Title
82283
    1SAPS     N    1   1.094   5.481  11.182  0.6452  0.5745  0.3812
    1SAPS   HN1    2   1.034   5.402  11.150  0.5227  0.7525  0.1679
    1SAPS   HN2    3   1.101   5.456  11.283  0.3429 -1.2464 -0.0145
    1SAPS   HN3    4   1.053   5.575  11.166 -2.1668 -0.8462 -1.6035
    1SAPS   C12    5   1.227   5.482  11.110  0.9052 -0.8204  0.5884
    1SAPS  H12A    6   1.300   5.547  11.156 -0.9313  1.4844  0.4222
    1SAPS   C13    7   1.281   5.344  11.093 -0.7031  0.4224  0.0020
    1SAPS  O13A    8   1.223   5.237  11.129  0.9662  0.2685  0.1025
    1SAPS  O13B    9   1.402   5.340  11.057 -0.0045  0.8073  0.0474
    1SAPS   C11   10   1.200   5.549  10.969 -0.0455 -0.3464  1.0420
    1SAPS  H11A   11   1.133   5.485  10.906  0.9641  0.2989 -0.7570
    1SAPS  H11B   12   1.297   5.559  10.916 -0.1579 -0.8150  0.7390
    1SAPS     P   13   1.178   5.806  10.935 -0.3824  0.4897 -0.0928
    1SAPS   O13   14   1.063   5.900  10.931 -0.3777 -0.0745  0.1628
    1SAPS   O14   15   1.276   5.829  11.041  0.3054  0.3337 -0.0214
    1SAPS   O12   16   1.113   5.666  10.965 -0.5820  0.0939  0.7448
    1SAPS   O11   17   1.253   5.796  10.794 -0.5363  0.0408  0.2443
    1SAPS    C1   18   1.179   5.828  10.673  0.4994 -0.2132 -0.0179
    1SAPS    HA   19   1.101   5.906  10.687  0.9533  0.0205  1.3573
    1SAPS    HB   20   1.241   5.870  10.591  0.1505  3.3631  1.3600
    1SAPS    C2   21   1.099   5.702  10.616  0.2017 -0.0120 -0.8646
    1SAPS    HS   22   1.048   5.661  10.706  0.0583 -0.0518 -0.9626
    1SAPS   O21   23   1.194   5.614  10.569 -0.2863 -0.1153  0.4790
    1SAPS   C21   24   1.156   5.485  10.556  0.6035  0.5356 -1.0735
    1SAPS   O22   25   1.051   5.434  10.594 -0.2917  0.0557 -0.7237
    1SAPS   C22   26   1.272   5.397  10.509  0.2163 -0.1886 -0.5294
    1SAPS   H2R   27   1.357   5.462  10.480 -0.8584  1.5544  0.0129
    1SAPS   H2S   28   1.312   5.340  10.596  1.8321  1.5205 -0.0769
    1SAPS    C3   29   0.991   5.743  10.520  0.0102  0.0025  0.4225
    1SAPS    HX   30   0.916   5.814  10.560  0.5468 -0.2218  1.8873
    1SAPS    HY   31   0.937   5.648  10.498 -1.3454  0.2779  2.3290
    1SAPS   O31   32   1.050   5.791  10.401  0.1129  0.0719 -0.1650
    1SAPS   C31   33   0.965   5.799  10.301  0.0046  0.1674  0.4778
    1SAPS   O32   34   0.841   5.796  10.305  0.5749 -0.1302  0.0179
    1SAPS   C32   35   1.039   5.834  10.174 -0.0439 -0.8222  0.1627
    1SAPS   H2X   36   1.090   5.741  10.142  1.5154  0.0727 -0.0353
    1SAPS   H2Y   37   1.123   5.903  10.196 -1.2170  0.1474  1.8118
    1SAPS   C23   38   1.229   5.303  10.399  0.2724 -0.0306  0.3650
    1SAPS   H3R   39   1.173   5.219  10.444 -0.3922  0.2622  0.1071
    1SAPS   H3S   40   1.318   5.256  10.351 -1.1445 -2.8079  0.2986
    1SAPS   C24   41   1.166   5.367  10.277 -0.2542 -0.2224 -0.4081
    1SAPS   H4R   42   1.079   5.424  10.317  0.5725  0.3489  0.6281
    1SAPS   H4S   43   1.126   5.288  10.211  2.2413 -1.3401 -0.6866
    1SAPS   C25   44   1.248   5.467  10.203  0.5004 -0.2357  0.0610
    1SAPS   H5R   45   1.292   5.551  10.259 -0.3521 -0.1626  0.6434
    1SAPS   C26   46   1.257   5.483  10.071  0.8240 -0.6736  0.2259
    1SAPS   H6R   47   1.334   5.553  10.037  0.4749 -0.5975 -0.4214
    1SAPS   C27   48   1.185   5.404   9.966 -0.4936 -0.0084  0.6729
    1SAPS   H7R   49   1.111   5.338  10.016 -0.0452 -0.1109  1.2150
    1SAPS   H7S   50   1.246   5.342   9.897 -0.6237 -0.0190  0.5680
    1SAPS   C28   51   1.108   5.496   9.883  0.3734  0.7326  0.9478
    1SAPS   H8R   52   1.043   5.560   9.945  0.7919  0.0531  2.1223
    1SAPS   C29   53   1.113   5.509   9.749 -0.2848 -0.5549 -0.4163
    1SAPS   H9R   54   1.056   5.592   9.705  1.3870  0.0694 -1.5177
    1SAPS  C210   55   1.201   5.438   9.650  1.1177 -0.4890 -0.1409
    1SAPS  H10R   56   1.281   5.388   9.708  1.0706  0.5125  0.8187
    1SAPS  H10S   57   1.236   5.518   9.582  0.1514  0.7437  0.7635
    1SAPS  C211   58   1.124   5.332   9.573  0.6577 -0.4911  0.0663
    1SAPS  H11R   59   1.088   5.251   9.639  1.3629 -1.0941 -0.2666
    1SAPS  C212   60   1.089   5.323   9.441 -0.2999 -0.4605 -0.1047
    1SAPS  H12R   61   1.031   5.238   9.404 -2.0618  0.5534  0.1990
    1SAPS  C213   62   1.118   5.434   9.340 -0.2849 -0.3207 -0.0761
    1SAPS  H13R   63   1.084   5.526   9.392  0.4156 -0.2804  0.3173
    1SAPS  H13S   64   1.064   5.433   9.242 -0.3548  0.9557 -0.0754
    1SAPS  C214   65   1.267   5.450   9.318  0.2829 -0.1327  0.6000
    1SAPS  H14R   66   1.324   5.359   9.342  1.7889  0.7599  0.5089
    1SAPS  C215   67   1.329   5.570   9.296  0.1102 -0.6738 -0.2697
    1SAPS  H15R   68   1.439   5.576   9.286  0.1544  1.9942  1.0629
    1SAPS  C216   69   1.271   5.711   9.279 -0.3628  0.0202  0.3535
    1SAPS  H16R   70   1.357   5.782   9.279 -0.6569  0.3810  0.5444
    1SAPS  H16S   71   1.204   5.745   9.361  0.8284 -0.3811  1.5194
    1SAPS  C217   72   1.195   5.738   9.147  0.6903  0.0335  0.1714
    1SAPS  H17R   73   1.183   5.848   9.138 -0.5220  0.2761  3.3707
    1SAPS  H17S   74   1.093   5.698   9.166  1.1836 -1.1296  0.4150
    1SAPS  C218   75   1.246   5.683   9.014  0.6301 -0.0010 -0.3928
    1SAPS  H18R   76   1.235   5.573   9.002  0.7877  0.0477 -0.9854
    1SAPS  H18S   77   1.357   5.688   9.020  0.7505 -1.2271 -1.2349
    1SAPS  C219   78   1.182   5.743   8.891 -0.6063 -0.2594 -0.2498
    1SAPS  H19R   79   1.248   5.720   8.805  0.1485 -0.6060  0.4078
    1SAPS  H19S   80   1.187   5.852   8.914 -0.6141  0.1968 -2.2515
    1SAPS  C220   81   1.041   5.701   8.846  0.3461  0.0915 -0.2837
    1SAPS  H20R   82   1.004   5.768   8.766  2.4886  3.5265  1.3859
    1SAPS  H20S   83   0.980   5.706   8.939  1.3456  1.2428  0.3364
    1SAPS  H20T   84   1.030   5.596   8.811 -0.7774  0.2270 -0.3844
    1SAPS   C33   85   0.952   5.891  10.063  0.8626 -0.6384  0.2236
    1SAPS   H3X   86   0.933   5.999  10.080  1.1318 -0.8442  2.0491
    1SAPS   H3Y   87   0.862   5.826  10.052  1.4783 -1.2936 -1.1786
    1SAPS   C34   88   1.029   5.882   9.927 -0.0279 -0.2148 -0.4565
    1SAPS   H4X   89   1.046   5.774   9.910  1.7592 -0.2300  1.1404
    1SAPS   H4Y   90   1.128   5.931   9.933 -0.0941 -0.2205  0.8157
    1SAPS   C35   91   0.953   5.942   9.806 -0.4943 -0.4320  0.0009
    1SAPS   H5X   92   0.958   6.053   9.814  0.4011 -0.3880 -0.8626
    1SAPS   H5Y   93   0.848   5.908   9.817 -0.1356 -0.8845  2.6241
    1SAPS   C36   94   0.995   5.911   9.658  0.1189 -0.0572  0.5121
    1SAPS   H6X   95   0.967   5.804   9.655 -1.0043  0.2379 -0.0797
    1SAPS   H6Y   96   1.106   5.918   9.649  0.0857 -1.1746 -1.1065
    1SAPS   C37   97   0.920   5.989   9.546  0.1998 -0.0023  0.1983
    1SAPS   H7X   98   0.924   6.098   9.565 -4.1729  0.8404 -2.3590
    1SAPS   H7Y   99   0.816   5.960   9.573  0.9298 -1.2693  1.8357
    1SAPS   C38  100   0.944   5.946   9.401  0.2416  0.3961 -0.3442
    1SAPS   H8X  101   0.919   5.838   9.391  1.1249  0.2184 -0.7515
    1SAPS   H8Y  102   1.051   5.951   9.374  0.5458 -1.2360  0.4565
    1SAPS   C39  103   0.850   6.021   9.305  0.5212  0.0641  0.4225
    1SAPS   H9X  104   0.884   6.127   9.298  1.8369 -0.4668 -2.6845
    1SAPS   H9Y  105   0.748   6.009   9.347  0.5406 -0.5525  0.2922
    1SAPS  C310  106   0.849   5.958   9.167  0.3650  0.0238  0.5465
    1SAPS  H10X  107   0.817   5.855   9.192  0.8473 -0.0958  0.6834
    1SAPS  H10Y  108   0.956   5.955   9.137  0.3761 -0.9987  0.6382
    1SAPS  C311  109   0.758   6.017   9.054 -0.0955 -0.6509 -0.0710
    1SAPS  H11X  110   0.784   6.125   9.047 -1.4251 -0.3466 -0.5329
    1SAPS  H11Y  111   0.651   6.018   9.084 -0.4539  1.5478 -1.1960
    1SAPS  C312  112   0.776   5.952   8.916 -0.0539 -1.7691  0.6864
    1SAPS  H12X  113   0.760   5.842   8.915 -0.1363 -1.8121  2.6476
    1SAPS  H12Y  114   0.883   5.971   8.896 -0.0945 -2.1244  0.1112
    1SAPS  C313  115   0.691   6.014   8.797  0.5269  0.3931 -0.3514
    1SAPS  H13X  116   0.591   6.000   8.843  0.2432  1.1658 -0.7116
    1SAPS  H13Y  117   0.711   5.950   8.709  0.4696 -1.2876  0.8047
    1SAPS  C314  118   0.722   6.160   8.760  0.8084  0.0151  0.6865
    1SAPS  H14X  119   0.828   6.162   8.726  0.3354  0.6560 -0.8587
    1SAPS  H14Y  120   0.720   6.226   8.850 -0.9454  1.3913 -0.2960
    1SAPS  C315  121   0.624   6.201   8.651  0.1832 -0.3678  0.6255
    1SAPS  H15X  122   0.616   6.125   8.571  1.3226  0.9836 -0.8506
    1SAPS  H15Y  123   0.653   6.295   8.599  0.2735 -0.9999 -0.4862
    1SAPS  C316  124   0.486   6.229   8.717  0.0809 -0.0922  0.6170
    1SAPS  H16X  125   0.500   6.310   8.792  1.1484 -0.1540  0.5081
    1SAPS  H16Y  126   0.445   6.135   8.758 -0.9318 -0.1106 -0.3812
    1SAPS  C317  127   0.377   6.276   8.612 -0.5836 -0.5276 -0.2422
    1SAPS  H17X  128   0.416   6.352   8.541  0.6029  0.2809  1.1998
    1SAPS  H17Y  129   0.299   6.328   8.672 -1.5350  0.6539 -2.4182
    1SAPS  C318  130   0.326   6.151   8.540 -0.2885 -0.3486 -0.4315
    1SAPS  H18X  131   0.225   6.127   8.578 -0.0740 -0.9168 -0.2177
    1SAPS  H18Y  132   0.393   6.062   8.534  1.5780  0.7816  1.8370
    1SAPS  H18Z  133   0.302   6.191   8.439  0.4290  0.2681 -0.3685
    2SAPS     N  134   5.987   5.379  10.673  0.1961 -0.1065 -0.1854
    2SAPS   HN1  135   5.964   5.459  10.610  0.9133  0.4765  0.2837
    2SAPS   HN2  136   6.088   5.368  10.695 -0.4823 -2.9068  2.1979
    2SAPS   HN3  137   5.951   5.295  10.623  0.1746 -0.5632  0.5861
    2SAPS   C12  138   5.918   5.380  10.806 -0.6613  0.5399  1.2158
    2SAPS  H12A  139   5.966   5.306  10.868 -1.8216 -1.6238 -0.3266
    2SAPS   C13  140   5.915   5.516  10.881  0.2942 -0.6892 -0.0688
    2SAPS  O13A  141   5.952   5.626  10.835 -0.1684  0.0587  0.6222
    2SAPS  O13B  142   5.861   5.524  10.994  0.3474  0.7936  0.4316
    2SAPS   C11  143   5.769   5.338  10.783 -0.5423 -0.7737  0.3899
    2SAPS  H11A  144   5.715   5.401  10.709 -0.3660 -3.6794 -2.4373
    2SAPS  H11B  145   5.721   5.352  10.882  0.7638 -0.9193  1.0658
    2SAPS     P  146   5.624   5.125  10.734  0.1750  0.1656  0.5466
    2SAPS   O13  147   5.586   5.084  10.872 -0.4294  0.3264 -0.0805
    2SAPS   O14  148   5.537   5.209  10.649  0.0164  0.1319  0.4306
    2SAPS   O12  149   5.768   5.203  10.742  0.3711  0.7453 -0.1219
    2SAPS   O11  150   5.660   4.995  10.652  0.2602  0.2420  0.0943
    2SAPS    C1  151   5.781   4.927  10.679  0.3965  0.5950  0.3797
    2SAPS    HA  152   5.837   4.972  10.764  1.9111  3.4195 -1.9278
    2SAPS    HB  153   5.754   4.823  10.708 -0.0391  0.7800  0.6559
    2SAPS    C2  154   5.865   4.930  10.551  0.0386 -0.3741  0.6010
    2SAPS    HS  155   5.893   5.035  10.529 -1.0120 -0.8286 -4.0192
    2SAPS   O21  156   5.792   4.874  10.437 -0.2049  0.2307  0.2838
    2SAPS   C21  157   5.810   4.929  10.311  0.0431  0.2991  0.6261
    2SAPS   O22  158   5.877   5.026  10.289  0.0511  0.3934  0.2077
    2SAPS   C22  159   5.735   4.851  10.200  0.2072 -0.1664 -0.1373
    2SAPS   H2R  160   5.665   4.773  10.237 -1.7231  1.5818  0.0978
    2SAPS   H2S  161   5.676   4.929  10.147 -0.0801  0.4815  1.0870
    2SAPS    C3  162   6.001   4.861  10.584  0.2034  0.4556  0.3326
    2SAPS    HX  163   5.983   4.756  10.616  1.4767 -0.6661 -2.3024
    2SAPS    HY  164   6.039   4.906  10.678  0.8849  0.7645 -0.0811
    2SAPS   O31  165   6.105   4.849  10.479  0.1983 -0.2300 -0.3417
    2SAPS   C31  166   6.189   4.951  10.479 -0.5044  0.3401  0.3035
    2SAPS   O32  167   6.183   5.051  10.545 -0.2304 -0.6437 -0.0398
    2SAPS   C32  168   6.299   4.934  10.374 -0.4281 -0.3155 -0.1723
    2SAPS   H2X  169   6.326   4.826  10.375  0.0380 -0.2018 -0.3955
    2SAPS   H2Y  170   6.378   4.992  10.425 -2.7951  2.0636  1.0063
    2SAPS   C23  171   5.834   4.795  10.093 -0.1455  0.0575  0.1699
    2SAPS   H3R  172   5.909   4.721  10.128 -0.7441 -2.0520 -2.6034
    2SAPS   H3S  173   5.885   4.885  10.054 -0.7439  0.9700  1.4300
    2SAPS   C24  174   5.779   4.714   9.970  0.3395  0.9764  0.5287
    2SAPS   H4R  175   5.738   4.620  10.014  1.5394 -0.3796 -1.1292
    2SAPS   H4S  176   5.861   4.681   9.903 -1.1289 -1.7086 -0.1083
    2SAPS   C25  177   5.674   4.780   9.888 -0.0389  0.6850 -0.0461
    2SAPS   H5R  178   5.590   4.833   9.934 -1.3479 -1.9110  0.7142
    2SAPS   C26  179   5.674   4.769   9.755  0.1997  0.4924  0.8079
    2SAPS   H6R  180   5.613   4.845   9.703 -0.8080  0.4988  1.9549
    2SAPS   C27  181   5.766   4.687   9.670 -1.1176  0.2793 -0.0139
    2SAPS   H7R  182   5.702   4.646   9.589 -0.7086 -0.2844 -0.0532
    2SAPS   H7S  183   5.810   4.597   9.719  1.4289  1.2213 -0.4271
    2SAPS   C28  184   5.883   4.774   9.624  0.3869  0.5789  0.8002
    2SAPS   H8R  185   5.974   4.772   9.686  0.1006  1.3428  1.2657
    2SAPS   C29  186   5.878   4.858   9.521  0.4549  0.5584 -0.1427
    2SAPS   H9R  187   5.970   4.907   9.485  0.2914 -1.7326 -4.4334
    2SAPS  C210  188   5.762   4.866   9.430 -0.4741 -0.6228  0.2562
    2SAPS  H10R  189   5.767   4.961   9.372 -1.7062 -1.5269 -1.4015
    2SAPS  H10S  190   5.664   4.862   9.484 -1.8682  0.0822 -2.0765
    2SAPS  C211  191   5.756   4.757   9.326  0.0893  0.2891  0.3275
    2SAPS  H11R  192   5.733   4.656   9.364  0.0262  0.5376  0.9540
    2SAPS  C212  193   5.766   4.771   9.191 -0.5125 -0.0470  0.9984
    2SAPS  H12R  194   5.756   4.684   9.124 -0.4562  0.9401 -0.3220
    2SAPS  C213  195   5.788   4.900   9.111  0.0675  0.2775 -0.0866
    2SAPS  H13R  196   5.754   4.981   9.179 -0.9851  0.6621 -1.0311
    2SAPS  H13S  197   5.718   4.900   9.025 -0.1552 -1.4886  0.0663
    2SAPS  C214  198   5.936   4.929   9.088 -0.1855  0.6338  0.5696
    2SAPS  H14R  199   6.003   4.855   9.134 -1.2129 -1.5502 -1.2166
    2SAPS  C215  200   5.992   5.026   9.012  0.2390  0.0357  0.2631
    2SAPS  H15R  201   6.100   5.037   8.993  0.3695  0.9408  1.4169
    2SAPS  C216  202   5.913   5.126   8.934 -0.0900  0.2368 -0.0350
    2SAPS  H16R  203   5.929   5.232   8.963 -0.0297  0.1534  0.2424
    2SAPS  H16S  204   5.803   5.117   8.949 -0.0846  0.1165 -0.0714
    2SAPS  C217  205   5.954   5.114   8.789  0.1824 -0.0311 -0.1956
    2SAPS  H17R  206   5.918   5.020   8.743  0.6975  0.0143 -0.6961
    2SAPS  H17S  207   6.063   5.118   8.768  0.1212 -0.2042 -0.5396
    2SAPS  C218  208   5.882   5.224   8.700  0.0303 -0.3299 -0.2481
    2SAPS  H18R  209   5.773   5.203   8.696 -0.1392  0.6519 -1.2909
    2SAPS  H18S  210   5.918   5.196   8.599 -0.0863  0.5706 -0.5509
    2SAPS  C219  211   5.918   5.370   8.743 -0.4189 -0.1692 -0.0773
    2SAPS  H19R  212   6.019   5.370   8.789  0.5897 -1.2105 -2.1577
    2SAPS  H19S  213   5.850   5.391   8.828 -0.5671  0.6560 -0.3958
    2SAPS  C220  214   5.900   5.479   8.637 -0.3334  0.1419 -0.3394
    2SAPS  H20R  215   5.810   5.470   8.572 -0.5251 -0.2883 -0.0266
    2SAPS  H20S  216   5.985   5.483   8.567 -0.2662  0.1690 -0.2578
    2SAPS  H20T  217   5.891   5.580   8.682  1.7765 -0.1129  0.7659
    2SAPS   C33  218   6.290   4.989  10.232  1.0699 -0.1958 -0.4142
    2SAPS   H3X  219   6.389   5.018  10.192  0.7473  0.7585 -0.5628
    2SAPS   H3Y  220   6.224   5.079  10.235  1.2913 -0.0094 -1.1270
    2SAPS   C34  221   6.227   4.881  10.140  0.3122  0.8570 -0.4895
    2SAPS   H4X  222   6.137   4.858  10.201  1.3282 -1.6371  0.2049
    2SAPS   H4Y  223   6.287   4.788  10.138 -0.1326  0.5450 -2.8696
    2SAPS   C35  224   6.194   4.915   9.999 -0.3155 -0.2200  0.2969
    2SAPS   H5X  225   6.147   5.015  10.014  1.4061  0.3786  2.2402
    2SAPS   H5Y  226   6.112   4.857   9.951  0.9351 -1.8651  0.0851
    2SAPS   C36  227   6.308   4.951   9.894  0.4262 -0.0721  0.1605
    2SAPS   H6X  228   6.370   4.859   9.892  0.3922 -0.0874 -0.2793
    2SAPS   H6Y  229   6.379   5.027   9.934 -0.8433  0.8128  0.8130
    2SAPS   C37  230   6.254   4.991   9.751 -0.6515 -0.4620  0.2501
    2SAPS   H7X  231   6.205   5.087   9.775  3.3890  1.5648  1.3251
    2SAPS   H7Y  232   6.175   4.918   9.723 -1.1664  1.0414 -2.6565
    2SAPS   C38  233   6.367   5.005   9.647  0.5687 -1.0818 -0.1643
    2SAPS   H8X  234   6.406   4.903   9.630 -0.9194 -1.7592  0.3612
    2SAPS   H8Y  235   6.447   5.073   9.683 -0.4295  0.5964 -0.9542
    2SAPS   C39  236   6.313   5.064   9.512 -0.1610  0.1246  0.1041
    2SAPS   H9X  237   6.276   5.163   9.546 -0.5271  0.4251 -1.1439
    2SAPS   H9Y  238   6.229   5.013   9.461  0.5633 -0.4837 -0.5028
    2SAPS  C310  239   6.426   5.072   9.414 -1.0560 -0.0526 -0.3323
    2SAPS  H10X  240   6.450   4.979   9.358  0.1521  0.2523 -0.3612
    2SAPS  H10Y  241   6.515   5.085   9.479  0.3082 -2.8110 -1.4597
    2SAPS  C311  242   6.410   5.193   9.320 -0.0327 -0.5096 -0.0231
    2SAPS  H11X  243   6.379   5.287   9.370 -1.9311  0.5275 -2.9042
    2SAPS  H11Y  244   6.324   5.174   9.252 -0.0903  3.8919 -1.5376
    2SAPS  C312  245   6.526   5.212   9.230  0.3054  0.6996  0.3331
    2SAPS  H12X  246   6.492   5.272   9.142  0.5030  0.2761 -0.0358
    2SAPS  H12Y  247   6.555   5.119   9.177 -0.6076  1.2884 -1.2627
    2SAPS  C313  248   6.642   5.289   9.305  0.0282  0.0205  0.3429
    2SAPS  H13X  249   6.590   5.327   9.396  0.8413 -0.2016  0.9149
    2SAPS  H13Y  250   6.688   5.371   9.246 -0.3860  0.7198  0.9694
    2SAPS  C314  251   6.750   5.195   9.343  0.0499  0.2299 -0.0687
    2SAPS  H14X  252   6.807   5.165   9.252  2.7713 -0.2553  1.6947
    2SAPS  H14Y  253   6.702   5.105   9.386 -3.1784  2.4630  1.3815
    2SAPS  C315  254   6.849   5.256   9.437 -0.3511 -0.2879 -0.1971
    2SAPS  H15X  255   6.819   5.297   9.536  2.6441  2.6968 -0.3439
    2SAPS  H15Y  256   6.895   5.347   9.394 -0.9021  0.1452  0.1026
    2SAPS  C316  257   6.962   5.160   9.470  0.0120 -0.1489 -0.5607
    2SAPS  H16X  258   7.001   5.127   9.371 -0.5383 -1.1652 -0.4543
    2SAPS  H16Y  259   6.928   5.070   9.525  0.5978  0.2192  0.4472
    2SAPS  C317  260   7.080   5.234   9.541 -0.2567  0.8783  0.9127
    2SAPS  H17X  261   7.056   5.221   9.649 -1.6732  0.2183  0.5410
    2SAPS  H17Y  262   7.076   5.342   9.518  3.0458  0.9358  0.2125
    2SAPS  C318  263   7.222   5.189   9.512 -0.4948 -0.1342  0.7272
    2SAPS  H18X  264   7.252   5.228   9.412 -1.2346 -2.1634 -0.3464
    2SAPS  H18Y  265   7.234   5.080   9.525  1.6523  0.1143  1.1558
    2SAPS  H18Z  266   7.295   5.228   9.586  1.8561 -1.9375 -0.5318
    3SAPS     N  267   5.861   1.817  10.885 -0.2122 -0.2342  0.3001
    3SAPS   HN1  268   5.785   1.851  10.947 -1.5917  1.7904 -2.2951
    3SAPS   HN2  269   5.901   1.904  10.843  3.0719  0.1868  3.7333
    3SAPS   HN3  270   5.822   1.756  10.810 -0.5344 -1.3758  1.3682
    3SAPS   C12  271   5.967   1.732  10.947  0.1763 -0.6848  0.4534
    3SAPS  H12A  272   6.056   1.736  10.886  1.6770 -0.1485  2.5516
    3SAPS   C13  273   6.011   1.794  11.082  0.0170  0.8713  0.3206
    3SAPS  O13A  274   5.951   1.889  11.130  0.0317  0.2871  0.3980
    3SAPS  O13B  275   6.114   1.745  11.138 -0.1508  0.3916 -0.2436
    3SAPS   C11  276   5.911   1.591  10.978 -0.0265  0.0226  0.2576
    3SAPS  H11A  277   5.849   1.582  11.070 -0.1206 -1.6105  0.0585
    3SAPS  H11B  278   5.995   1.519  10.991 -0.9919 -1.0890  0.5063
    3SAPS     P  279   5.740   1.423  10.870 -0.0305 -0.7217  0.1409
    3SAPS   O13  280   5.815   1.300  10.883  0.2018  0.6643  0.4660
    3SAPS   O14  281   5.642   1.457  10.977 -0.3442 -0.1787 -0.4410
    3SAPS   O12  282   5.841   1.542  10.858  0.0095 -0.6329  0.3236
    3SAPS   O11  283   5.677   1.435  10.725 -0.4094  0.0692  0.2477
    3SAPS    C1  284   5.733   1.373  10.608 -0.5126  0.1562 -0.6648
    3SAPS    HA  285   5.758   1.267  10.628  1.2878  0.7244  0.2944
    3SAPS    HB  286   5.654   1.366  10.530  0.2636 -0.5025 -1.3957
    3SAPS    C2  287   5.853   1.451  10.546  0.4763 -0.7641 -0.1392
    3SAPS    HS  288   5.929   1.478  10.623  1.3036 -0.9656 -0.8679
    3SAPS   O21  289   5.803   1.569  10.491  0.0241  0.1982 -0.5719
    3SAPS   C21  290   5.896   1.670  10.480 -0.3939  0.3832  0.5619
    3SAPS   O22  291   6.015   1.655  10.514  0.1940 -0.4644  0.2129
    3SAPS   C22  292   5.836   1.796  10.402  0.0206  0.1414 -0.1732
    3SAPS   H2R  293   5.755   1.749  10.343  0.0137  1.2624 -1.0874
    3SAPS   H2S  294   5.807   1.866  10.483  0.7918 -0.8063  0.9574
    3SAPS    C3  295   5.932   1.360  10.447 -0.2024 -0.7536 -0.1375
    3SAPS    HX  296   5.985   1.283  10.506  0.4176  0.8195  1.4446
    3SAPS    HY  297   6.004   1.430  10.399 -0.3981 -0.4754 -0.0272
    3SAPS   O31  298   5.848   1.315  10.345  0.5054 -0.2520 -0.4426
    3SAPS   C31  299   5.843   1.190  10.335  0.4620 -0.0985  0.3755
    3SAPS   O32  300   5.886   1.102  10.412  0.7668  0.7295  0.0173
    3SAPS   C32  301   5.765   1.154  10.214 -0.5900 -0.0814 -0.4763
    3SAPS   H2X  302   5.812   1.212  10.132 -0.5147 -1.8414 -1.7445
    3SAPS   H2Y  303   5.662   1.192  10.231 -0.6534 -1.0327  1.4784
    3SAPS   C23  304   5.939   1.865  10.313 -0.5575  0.2432  0.1944
    3SAPS   H3R  305   6.041   1.863  10.357  1.8844 -0.2766 -4.7144
    3SAPS   H3S  306   5.903   1.970  10.319  1.2420  0.8283  1.4295
    3SAPS   C24  307   5.950   1.816  10.168 -0.5975  0.1204  0.0245
    3SAPS   H4R  308   6.013   1.886  10.109  1.1477  0.0657  1.7103
    3SAPS   H4S  309   5.854   1.816  10.113  0.2326  1.0930 -1.5092
    3SAPS   C25  310   6.015   1.680  10.162 -0.4717  0.6159  0.1070
    3SAPS   H5R  311   6.078   1.643  10.244 -0.3237 -1.8532 -1.0330
    3SAPS   C26  312   6.014   1.601  10.050 -0.4027  0.0076 -0.5779
    3SAPS   H6R  313   6.089   1.521  10.050 -0.8236 -0.3985 -0.9568
    3SAPS   C27  314   5.944   1.635   9.919 -0.5318 -0.0600  0.3017
    3SAPS   H7R  315   6.023   1.667   9.848 -2.5761  1.2887 -1.5155
    3SAPS   H7S  316   5.880   1.724   9.935  1.1548  1.0070  1.3428
    3SAPS   C28  317   5.867   1.516   9.865 -1.0412 -0.3135  0.4447
    3SAPS   H8R  318   5.784   1.497   9.935  2.4993 -1.0358  4.9146
    3SAPS   C29  319   5.899   1.442   9.755 -0.4048  0.6853 -0.4901
    3SAPS   H9R  320   5.828   1.360   9.732  1.1610 -1.7832  2.6931
    3SAPS  C210  321   6.024   1.463   9.670  0.6580  0.2622  0.6658
    3SAPS  H10R  322   6.120   1.426   9.711  0.5117 -1.2758 -0.2906
    3SAPS  H10S  323   6.031   1.567   9.633 -1.8321  0.0475 -0.6352
    3SAPS  C211  324   6.009   1.383   9.545  0.2448 -0.6304  0.0572
    3SAPS  H11R  325   6.030   1.275   9.552  1.0532 -0.6792 -2.2225
    3SAPS  C212  326   5.959   1.428   9.425 -0.5572  0.1589 -0.1230
    3SAPS  H12R  327   5.955   1.362   9.337  0.7386  0.6790 -0.6083
    3SAPS  C213  328   5.911   1.565   9.398  0.4929 -0.3327  0.7028
    3SAPS  H13R  329   5.961   1.609   9.309  1.4120 -2.5195  0.0692
    3SAPS  H13S  330   5.939   1.635   9.480  2.0171  0.9335 -0.8299
    3SAPS  C214  331   5.759   1.576   9.400  0.8240 -0.0139  0.5124
    3SAPS  H14R  332   5.714   1.592   9.498  1.2094 -0.7445  0.8215
    3SAPS  C215  333   5.677   1.558   9.295 -0.5474 -0.2538 -0.2048
    3SAPS  H15R  334   5.568   1.566   9.312 -0.6281  1.3153 -1.2605
    3SAPS  C216  335   5.728   1.532   9.154  0.7299  0.4707 -0.2211
    3SAPS  H16R  336   5.824   1.588   9.159 -0.2273  2.1069  0.8513
    3SAPS  H16S  337   5.661   1.584   9.081 -0.9724 -0.8099  0.3654
    3SAPS  C217  338   5.732   1.387   9.119  0.3568 -0.7156 -0.3322
    3SAPS  H17R  339   5.633   1.345   9.093 -1.4030  3.2863 -0.7974
    3SAPS  H17S  340   5.760   1.320   9.204 -1.6763 -0.1029  0.8834
    3SAPS  C218  341   5.810   1.374   8.985  0.4061 -0.1554 -0.7342
    3SAPS  H18R  342   5.769   1.447   8.913  2.0415  2.9522  1.2756
    3SAPS  H18S  343   5.796   1.267   8.955  1.0954 -0.2720 -0.6483
    3SAPS  C219  344   5.955   1.395   9.015  0.4208  0.2015 -0.6222
    3SAPS  H19R  345   5.977   1.400   9.124  1.2521  0.4292 -0.7903
    3SAPS  H19S  346   5.977   1.493   8.968 -3.7085  1.6263  0.0422
    3SAPS  C220  347   6.046   1.291   8.955 -0.3318  0.2290  0.2026
    3SAPS  H20R  348   6.052   1.304   8.845  1.1390 -1.3258  0.0536
    3SAPS  H20S  349   6.012   1.186   8.968  1.7460 -0.6558 -0.9795
    3SAPS  H20T  350   6.144   1.292   9.007 -1.4663 -0.9941  2.4931
    3SAPS   C33  351   5.766   1.006  10.184 -0.8140  0.4885  0.1382
    3SAPS   H3X  352   5.718   0.949  10.266  2.2657 -1.7269  0.5521
    3SAPS   H3Y  353   5.870   0.971  10.168 -0.2786  2.3488 -0.7297
    3SAPS   C34  354   5.673   0.973  10.056  0.3229  0.2746  0.3376
    3SAPS   H4X  355   5.573   1.019  10.071  0.1746 -0.0630  0.4031
    3SAPS   H4Y  356   5.651   0.864  10.061  2.7151 -0.3690 -1.3391
    3SAPS   C35  357   5.729   1.027   9.928  0.0561  0.1148 -0.6423
    3SAPS   H5X  358   5.822   0.968   9.937 -0.6221 -0.7952  0.7313
    3SAPS   H5Y  359   5.746   1.137   9.933  0.9948 -0.0458 -0.0083
    3SAPS   C36  360   5.646   1.009   9.798 -0.1775  0.5592  0.1237
    3SAPS   H6X  361   5.547   1.059   9.802 -1.3204 -1.5227 -0.6915
    3SAPS   H6Y  362   5.625   0.901   9.788  0.7538  0.2532  1.1326
    3SAPS   C37  363   5.717   1.053   9.670  0.0643 -0.4377 -0.2199
    3SAPS   H7X  364   5.817   1.006   9.683 -0.2441 -0.9343  0.4429
    3SAPS   H7Y  365   5.718   1.164   9.665 -0.3313 -0.3934  0.5432
    3SAPS   C38  366   5.651   0.999   9.538 -0.9011  0.5654 -0.0204
    3SAPS   H8X  367   5.547   1.037   9.529 -2.2507 -2.2461  2.3050
    3SAPS   H8Y  368   5.642   0.889   9.531  0.1951  0.4991 -0.5441
    3SAPS   C39  369   5.745   1.045   9.419  0.5094  0.6791 -0.0877
    3SAPS   H9X  370   5.853   1.022   9.434  0.1957 -0.9312 -0.0720
    3SAPS   H9Y  371   5.737   1.155   9.413 -0.6552  0.5929 -0.3328
    3SAPS  C310  372   5.716   0.982   9.279  1.3784  0.1921  0.0562
    3SAPS  H10X  373   5.614   1.013   9.245  2.0796  2.7284  0.0838
    3SAPS  H10Y  374   5.714   0.875   9.309  2.7185  0.2913  0.5747
    3SAPS  C311  375   5.823   1.003   9.178  0.5930  0.0538  0.6414
    3SAPS  H11X  376   5.918   0.982   9.232  0.6908  2.1067  1.3540
    3SAPS  H11Y  377   5.832   1.104   9.131 -1.2894  0.2133  0.5572
    3SAPS  C312  378   5.808   0.894   9.071  0.1411 -0.8711 -0.0732
    3SAPS  H12X  379   5.702   0.860   9.066 -0.8637  2.0109  0.0726
    3SAPS  H12Y  380   5.874   0.813   9.109  2.3868  0.2700 -1.2663
    3SAPS  C313  381   5.863   0.929   8.930  0.5503 -0.3434  0.7020
    3SAPS  H13X  382   5.974   0.937   8.933  0.4777  0.8166  0.7388
    3SAPS  H13Y  383   5.832   1.033   8.909 -1.1591 -0.4131  2.5616
    3SAPS  C314  384   5.808   0.838   8.825  0.0935  0.1799  0.8286
    3SAPS  H14X  385   5.698   0.824   8.835 -0.2977  1.9375 -0.5635
    3SAPS  H14Y  386   5.848   0.738   8.852 -2.2257 -1.2997 -0.7846
    3SAPS  C315  387   5.850   0.867   8.673  1.0923  0.8519 -0.0132
    3SAPS  H15X  388   5.812   0.962   8.631  1.5320  1.0033 -0.0750
    3SAPS  H15Y  389   5.810   0.784   8.611 -2.4243  0.9858  1.8314
    3SAPS  C316  390   6.001   0.874   8.662 -0.4950  0.3486 -0.2789
    3SAPS  H16X  391   6.037   0.784   8.716  0.1942  0.2472 -0.9021
    3SAPS  H16Y  392   6.045   0.956   8.722 -0.3316  1.1853 -1.5087
    3SAPS  C317  393   6.053   0.882   8.513  0.1225 -0.2429 -0.2288
    3SAPS  H17X  394   5.998   0.955   8.450  0.9543  2.2735  1.8118
    3SAPS  H17Y  395   6.049   0.783   8.463  0.4955  1.7763 -4.7765
    3SAPS  C318  396   6.202   0.926   8.502 -0.0827 -0.0848 -0.0678
    3SAPS  H18X  397   6.207   1.017   8.565  0.2578 -0.4469  0.4369
    3SAPS  H18Y  398   6.220   0.945   8.394 -1.4954  1.1056 -0.1259
    3SAPS  H18Z  399   6.271   0.848   8.540 -0.8019 -0.7399 -0.0825
    4SAPS     N  400   3.948   0.805  11.021 -0.6515  0.3804  0.3563
    4SAPS   HN1  401   3.906   0.865  10.948  0.6015  0.5036 -0.2911
    4SAPS   HN2  402   3.949   0.859  11.110  2.2651  0.6486  0.2543
    4SAPS   HN3  403   4.045   0.781  10.994 -1.0673  1.0132 -1.9020
    4SAPS   C12  404   3.876   0.682  11.048 -0.2568  0.3568 -0.3454
    4SAPS  H12A  405   3.912   0.628  11.135 -2.1034 -0.5377 -0.0812
    4SAPS   C13  406   3.733   0.718  11.081  0.5715  0.0761 -0.1855
    4SAPS  O13A  407   3.691   0.835  11.069  0.9041 -0.1793 -0.3331
    4SAPS  O13B  408   3.652   0.628  11.120  0.3733  0.1532  0.5260
    4SAPS   C11  409   3.885   0.587  10.924 -0.0643 -0.0965  0.2272
    4SAPS  H11A  410   3.847   0.636  10.831 -1.0466 -2.1265 -0.4905
    4SAPS  H11B  411   3.823   0.496  10.938  1.3010 -1.4284 -1.8246
    4SAPS     P  412   4.131   0.597  10.819  0.7542  0.2406 -0.2133
    4SAPS   O13  413   4.170   0.727  10.878 -0.2047  0.0642 -0.4359
    4SAPS   O14  414   4.222   0.487  10.794  0.0963  0.2140 -0.2846
    4SAPS   O12  415   4.017   0.536  10.910 -0.1008  0.2135 -0.4358
    4SAPS   O11  416   4.047   0.625  10.687 -0.6987  0.2890 -0.2993
    4SAPS    C1  417   4.095   0.681  10.568 -0.3188 -0.0817 -0.1321
    4SAPS    HA  418   4.008   0.715  10.507 -0.9442 -1.6441 -0.1706
    4SAPS    HB  419   4.166   0.762  10.592 -1.0630  0.3610  0.6322
    4SAPS    C2  420   4.164   0.572  10.478 -0.7707 -0.6772 -0.4698
    4SAPS    HS  421   4.264   0.555  10.523  0.0466  1.7949 -1.1858
    4SAPS   O21  422   4.191   0.654  10.356 -0.3711 -0.6376  0.2683
    4SAPS   C21  423   4.289   0.609  10.281  0.7719  0.1997  0.0940
    4SAPS   O22  424   4.364   0.516  10.304 -0.1269 -0.1937  0.0613
    4SAPS   C22  425   4.293   0.695  10.146 -0.1359  0.0320  0.1490
    4SAPS   H2R  426   4.187   0.710  10.116 -0.8937 -3.6279  0.6122
    4SAPS   H2S  427   4.341   0.790  10.181 -0.3880  0.1479  0.1820
    4SAPS    C3  428   4.088   0.437  10.445  0.2248  0.6389 -0.2045
    4SAPS    HX  429   4.107   0.378  10.537 -0.5797  0.0342 -0.4213
    4SAPS    HY  430   4.146   0.395  10.360  0.7581 -0.3042  0.6201
    4SAPS   O31  431   3.948   0.460  10.413  0.0026 -0.1588  0.1255
    4SAPS   C31  432   3.919   0.509  10.291 -0.0236  0.2423 -0.1027
    4SAPS   O32  433   3.992   0.499  10.196 -0.2704  0.2267  0.1024
    4SAPS   C32  434   3.779   0.563  10.295 -0.0203 -0.0626 -0.1048
    4SAPS   H2X  435   3.765   0.649  10.364 -0.7729 -1.0690  1.0161
    4SAPS   H2Y  436   3.727   0.477  10.342 -2.0545  0.3291 -1.4947
    4SAPS   C23  437   4.375   0.636  10.027  0.2989 -0.7561 -0.5619
    4SAPS   H3R  438   4.474   0.603  10.064  0.5088 -0.4257 -0.8257
    4SAPS   H3S  439   4.401   0.726   9.968 -3.8090  1.8956  1.2080
    4SAPS   C24  440   4.296   0.535   9.939 -0.6720 -0.5667 -1.1734
    4SAPS   H4R  441   4.345   0.522   9.840  0.1261  2.0099 -1.1975
    4SAPS   H4S  442   4.210   0.599   9.910  0.4608  0.7389 -1.7651
    4SAPS   C25  443   4.262   0.402  10.010 -0.1602 -0.1434  0.0268
    4SAPS   H5R  444   4.221   0.404  10.112  0.0484  0.3354  0.1042
    4SAPS   C26  445   4.284   0.283   9.955 -0.3396  0.4978 -0.1770
    4SAPS   H6R  446   4.235   0.203  10.012 -2.1566  2.9050  1.8476
    4SAPS   C27  447   4.338   0.239   9.820 -0.1137 -0.0056 -0.0388
    4SAPS   H7R  448   4.266   0.270   9.741  0.3748 -0.1475 -0.5453
    4SAPS   H7S  449   4.338   0.129   9.810 -2.7232 -0.1014  0.2699
    4SAPS   C28  450   4.473   0.292   9.794 -0.1332 -0.3919  1.1541
    4SAPS   H8R  451   4.516   0.340   9.883 -0.9460 -0.4590  1.5915
    4SAPS   C29  452   4.539   0.291   9.675  0.6806 -0.4923  0.1302
    4SAPS   H9R  453   4.644   0.326   9.675  1.4903 -2.7427 -1.0351
    4SAPS  C210  454   4.483   0.223   9.553 -0.4718  0.4840 -0.3112
    4SAPS  H10R  455   4.400   0.291   9.525 -0.3599  0.4646 -0.6937
    4SAPS  H10S  456   4.428   0.129   9.576 -1.5523  1.0493 -0.5127
    4SAPS  C211  457   4.591   0.212   9.448  0.0718 -0.1649  0.5696
    4SAPS  H11R  458   4.691   0.188   9.487 -1.6047 -3.0176  3.5997
    4SAPS  C212  459   4.559   0.196   9.322 -0.4317 -0.0793  0.3872
    4SAPS  H12R  460   4.642   0.201   9.250 -0.6359  0.9251  0.2048
    4SAPS  C213  461   4.429   0.198   9.248  0.7087 -0.2323  0.9660
    4SAPS  H13R  462   4.342   0.195   9.317 -2.2001 -1.4008 -2.4281
    4SAPS  H13S  463   4.425   0.105   9.187 -1.7354  1.2860 -1.4243
    4SAPS  C214  464   4.424   0.318   9.148 -0.1939  0.0488  0.0283
    4SAPS  H14R  465   4.360   0.404   9.171  0.8011  0.1043  2.9402
    4SAPS  C215  466   4.495   0.326   9.035 -0.4422  0.6556 -0.4025
    4SAPS  H15R  467   4.490   0.412   8.966  1.1876 -0.3802 -1.9277
    4SAPS  C216  468   4.585   0.211   8.994 -0.6228  0.7145  0.5468
    4SAPS  H16R  469   4.553   0.108   9.019 -1.3758  1.1494  1.4390
    4SAPS  H16S  470   4.688   0.214   9.035  0.8378  2.1098 -2.8768
    4SAPS  C217  471   4.612   0.231   8.841 -0.1731  0.5100  0.5333
    4SAPS  H17R  472   4.627   0.336   8.810  0.2996  0.3133  0.0683
    4SAPS  H17S  473   4.515   0.203   8.795 -0.3106 -0.5224  1.3921
    4SAPS  C218  474   4.723   0.152   8.774 -0.6610  0.0683  0.3555
    4SAPS  H18R  475   4.708   0.046   8.804 -1.5979  0.6685  2.1255
    4SAPS  H18S  476   4.823   0.187   8.805 -1.2406  0.5209  1.8140
    4SAPS  C219  477   4.712   0.147   8.619 -0.1429  0.1659  0.0519
    4SAPS  H19R  478   4.714   0.245   8.566  0.2151 -0.1205 -0.4805
    4SAPS  H19S  479   4.609   0.107   8.605  0.3828 -1.4599  0.6494
    4SAPS  C220  480   4.802   0.045   8.541 -0.1490  0.3194 -0.2952
    4SAPS  H20R  481   4.771  -0.059   8.567  1.4069 -1.2185 -3.9618
    4SAPS  H20S  482   4.907   0.068   8.569 -0.7181  1.4372  1.0561
    4SAPS  H20T  483   4.796   0.060   8.431 -0.6792 -2.8612 -0.7976
    4SAPS   C33  484   3.721   0.584  10.153  0.3671 -0.7669 -0.7484
    4SAPS   H3X  485   3.612   0.567  10.157  0.1408  0.5611 -0.7338
    4SAPS   H3Y  486   3.772   0.518  10.079  0.3577 -0.8728 -0.6601
    4SAPS   C34  487   3.749   0.731  10.090 -0.5216  0.6292  0.1996
    4SAPS   H4X  488   3.856   0.747  10.065 -0.3366 -0.1047  0.4846
    4SAPS   H4Y  489   3.719   0.802  10.170 -0.9614  1.3586 -0.5936
    4SAPS   C35  490   3.656   0.756   9.965  0.0874  0.2524 -0.5392
    4SAPS   H5X  491   3.556   0.740  10.010  0.1412  0.8864 -0.1816
    4SAPS   H5Y  492   3.688   0.668   9.905  0.4912 -0.6322  0.9240
    4SAPS   C36  493   3.674   0.893   9.905 -0.3246 -0.4424 -0.6964
    4SAPS   H6X  494   3.773   0.893   9.856 -0.5859  1.3338 -1.3020
    4SAPS   H6Y  495   3.673   0.965   9.989 -2.3120  0.3425 -1.3280
    4SAPS   C37  496   3.563   0.941   9.805 -0.5884  0.2692 -0.0129
    4SAPS   H7X  497   3.514   1.028   9.855  0.0394  0.9400 -0.5395
    4SAPS   H7Y  498   3.494   0.860   9.773  1.8260 -0.7962 -3.0626
    4SAPS   C38  499   3.634   0.973   9.673  0.4386  0.2696 -0.0140
    4SAPS   H8X  500   3.716   1.043   9.699 -0.2882  0.6987  1.1976
    4SAPS   H8Y  501   3.552   1.028   9.622 -1.4277 -1.9150  0.4357
    4SAPS   C39  502   3.670   0.844   9.598 -0.1346 -0.6002 -0.1915
    4SAPS   H9X  503   3.581   0.784   9.569  0.4302 -1.0146 -1.1110
    4SAPS   H9Y  504   3.740   0.786   9.661  2.2736 -0.2040 -2.3431
    4SAPS  C310  505   3.740   0.854   9.463 -0.8328  0.7655 -0.5687
    4SAPS  H10X  506   3.830   0.918   9.473 -0.5758  0.3070  0.1235
    4SAPS  H10Y  507   3.673   0.892   9.383 -0.5449 -2.4942 -2.5422
    4SAPS  C311  508   3.776   0.710   9.416  0.1466  0.9536  0.4537
    4SAPS  H11X  509   3.679   0.657   9.406 -1.4037  3.6021  0.5886
    4SAPS  H11Y  510   3.837   0.658   9.493 -3.1039 -0.4485  2.2646
    4SAPS  C312  511   3.850   0.713   9.280  0.9391  0.1523  0.1997
    4SAPS  H12X  512   3.895   0.616   9.252 -1.7368 -1.2225  0.2467
    4SAPS  H12Y  513   3.935   0.783   9.292  1.2204 -0.1862  0.2015
    4SAPS  C313  514   3.776   0.763   9.156 -0.5893  0.0521 -0.0459
    4SAPS  H13X  515   3.746   0.867   9.176  2.5223  0.8591  1.0960
    4SAPS  H13Y  516   3.684   0.706   9.131  0.3969 -1.5613 -0.2139
    4SAPS  C314  517   3.865   0.751   9.031 -0.5380  0.1424  0.0446
    4SAPS  H14X  518   3.903   0.646   9.030 -0.7067  0.0785  0.2045
    4SAPS  H14Y  519   3.943   0.829   9.045  0.5602 -0.8830 -0.1095
    4SAPS  C315  520   3.788   0.779   8.909 -0.3410 -0.2558 -0.2782
    4SAPS  H15X  521   3.773   0.888   8.899 -0.9935 -0.3221 -0.1140
    4SAPS  H15Y  522   3.688   0.730   8.904 -0.3637 -0.1824 -0.5728
    4SAPS  C316  523   3.857   0.727   8.780 -0.6031  0.4398 -0.3735
    4SAPS  H16X  524   3.873   0.618   8.796  1.1886  0.5540 -1.1490
    4SAPS  H16Y  525   3.953   0.777   8.755 -1.4260  2.6365  0.5895
    4SAPS  C317  526   3.754   0.733   8.665  0.2546 -0.8044 -0.4416
    4SAPS  H17X  527   3.698   0.829   8.662  0.4288 -0.6332  0.9083
    4SAPS  H17Y  528   3.675   0.658   8.685  0.0207 -0.8311 -1.4152
    4SAPS  C318  529   3.820   0.703   8.520  0.5515 -0.2238 -0.8716
    4SAPS  H18X  530   3.906   0.769   8.499  0.4011 -0.3828 -2.1277
    4SAPS  H18Y  531   3.743   0.707   8.440 -1.6394  1.0391  1.1770
    4SAPS  H18Z  532   3.854   0.597   8.516 -0.8395 -0.8506  1.9078
    5SAPS     N  533   5.735   6.499  11.119 -0.5700  0.3818  0.6966
    5SAPS   HN1  534   5.741   6.396  11.115  0.5857  0.4827 -0.9706
    5SAPS   HN2  535   5.793   6.527  11.037  1.1988 -1.5693  1.2083
    5SAPS   HN3  536   5.764   6.537  11.211 -1.0910 -0.7489  1.3436
    5SAPS   C12  537   5.600   6.551  11.091 -0.2001  0.8516  0.0070
    5SAPS  H12A  538   5.584   6.540  10.985 -0.3138  1.6815 -0.0647
    5SAPS   C13  539   5.479   6.460  11.137 -0.0343  0.3580  0.4281
    5SAPS  O13A  540   5.503   6.347  11.198  0.7478 -0.0174  0.1510
    5SAPS  O13B  541   5.365   6.507  11.119 -0.0497  0.1145 -0.0372
    5SAPS   C11  542   5.594   6.688  11.149 -0.4129 -0.3380  0.7110
    5SAPS  H11A  543   5.620   6.681  11.257  0.1995 -1.5964  0.4992
    5SAPS  H11B  544   5.491   6.730  11.146  0.3751  1.6836  0.4391
    5SAPS     P  545   5.627   6.879  10.976  0.1047  0.2942  0.3099
    5SAPS   O13  546   5.520   6.959  11.042  0.1373  0.4006  0.2071
    5SAPS   O14  547   5.742   6.955  10.927 -0.1644 -0.3436 -0.2168
    5SAPS   O12  548   5.690   6.775  11.081  0.0731  0.5897  0.1675
    5SAPS   O11  549   5.565   6.790  10.867  0.7568 -0.2162  0.2599
    5SAPS    C1  550   5.626   6.716  10.759  0.8357  0.4444  0.0890
    5SAPS    HA  551   5.691   6.641  10.809  0.6184  1.0418  1.2960
    5SAPS    HB  552   5.542   6.661  10.711  0.6380  1.3901 -0.6697
    5SAPS    C2  553   5.704   6.795  10.652  0.0837  0.0277 -0.2639
    5SAPS    HS  554   5.797   6.838  10.695 -0.3427  1.4533 -0.7132
    5SAPS   O21  555   5.630   6.913  10.626  0.2910 -0.5415  0.5515
    5SAPS   C21  556   5.512   6.910  10.560  0.4917  0.5035  0.0047
    5SAPS   O22  557   5.437   6.814  10.545 -0.4948  0.3007 -0.2828
    5SAPS   C22  558   5.486   7.054  10.508  0.1728  0.4611 -0.1877
    5SAPS   H2R  559   5.377   7.067  10.488  0.1144  1.3319  0.6242
    5SAPS   H2S  560   5.518   7.129  10.583 -1.1904  2.1324 -1.1691
    5SAPS    C3  561   5.735   6.710  10.521  0.2288  0.4492 -0.0647
    5SAPS    HX  562   5.638   6.663  10.498 -0.6568  0.9513  2.2952
    5SAPS    HY  563   5.803   6.626  10.546 -0.3062 -0.4953 -1.6468
    5SAPS   O31  564   5.774   6.792  10.410 -0.4254 -0.2031 -0.7193
    5SAPS   C31  565   5.904   6.820  10.398 -0.1660 -0.1210  0.4581
    5SAPS   O32  566   5.996   6.789  10.468 -0.1670 -0.7444  0.5189
    5SAPS   C32  567   5.920   6.909  10.272 -0.0206  0.4421 -0.0638
    5SAPS   H2X  568   6.030   6.926  10.264  0.3013 -1.7469 -1.2866
    5SAPS   H2Y  569   5.865   7.004  10.285 -0.8573 -0.0434  0.0073
    5SAPS   C23  570   5.559   7.072  10.370 -0.3266  0.1698  0.2810
    5SAPS   H3R  571   5.668   7.056  10.385 -0.0902 -0.7273 -2.0278
    5SAPS   H3S  572   5.553   7.179  10.339  0.9138 -0.3943 -2.1115
    5SAPS   C24  573   5.519   6.979  10.260  0.3021 -0.5031 -0.1715
    5SAPS   H4R  574   5.518   6.874  10.295  0.3455 -0.3140  0.4061
    5SAPS   H4S  575   5.599   6.987  10.183 -0.5828  1.0120 -0.9892
    5SAPS   C25  576   5.388   7.016  10.207 -0.0927 -0.0220  0.1506
    5SAPS   H5R  577   5.308   6.969  10.265 -1.0480  0.3612 -0.8347
    5SAPS   C26  578   5.348   7.083  10.096  0.1953 -0.4578 -0.6404
    5SAPS   H6R  579   5.242   7.094  10.069  0.0792 -0.1118 -0.0677
    5SAPS   C27  580   5.433   7.156   9.995 -0.3214  0.7533 -0.5734
    5SAPS   H7R  581   5.516   7.214  10.041 -0.4334  2.0125 -1.8886
    5SAPS   H7S  582   5.371   7.236   9.949  1.6093  2.0661 -1.0215
    5SAPS   C28  583   5.498   7.058   9.902  0.2406  0.0034  0.0804
    5SAPS   H8R  584   5.552   6.975   9.950  1.3751  0.3811 -0.4945
    5SAPS   C29  585   5.468   7.051   9.771 -0.2492  0.1256  0.2246
    5SAPS   H9R  586   5.532   6.988   9.707  2.7777  2.3549  0.8434
    5SAPS  C210  587   5.368   7.142   9.705 -0.3430 -0.3352  0.0688
    5SAPS  H10R  588   5.287   7.166   9.777 -1.4209 -3.3553 -0.0030
    5SAPS  H10S  589   5.321   7.094   9.616 -0.7416  2.1549 -1.1460
    5SAPS  C211  590   5.430   7.272   9.659 -0.0391  0.1698 -0.0909
    5SAPS  H11R  591   5.417   7.365   9.716  0.3932  0.6729 -0.7969
    5SAPS  C212  592   5.500   7.290   9.548  0.3710  0.0206  0.2174
    5SAPS  H12R  593   5.545   7.389   9.531 -2.7644  1.2634 -1.5603
    5SAPS  C213  594   5.538   7.185   9.440  0.0393 -0.3275 -0.5359
    5SAPS  H13R  595   5.522   7.086   9.489  0.1565  0.8487  2.0185
    5SAPS  H13S  596   5.643   7.207   9.409 -0.1110 -1.4935 -1.9635
    5SAPS  C214  597   5.453   7.186   9.319  0.3970 -0.6668  0.1682
    5SAPS  H14R  598   5.376   7.107   9.319  0.8189 -1.0828  0.7992
    5SAPS  C215  599   5.450   7.259   9.204 -0.4766  0.3088 -0.6090
    5SAPS  H15R  600   5.362   7.234   9.143  0.2873 -1.8307 -0.9130
    5SAPS  C216  601   5.522   7.384   9.153 -0.2469  0.0796  0.2464
    5SAPS  H16R  602   5.588   7.427   9.232  0.0930  1.4476 -0.7406
    5SAPS  H16S  603   5.442   7.459   9.136 -0.2182 -0.0506 -0.5165
    5SAPS  C217  604   5.610   7.368   9.025  0.1273  0.0695 -0.3883
    5SAPS  H17R  605   5.670   7.460   9.005  1.5218 -1.1510 -2.3241
    5SAPS  H17S  606   5.552   7.358   8.930 -0.8107  2.8539 -0.1986
    5SAPS  C218  607   5.720   7.261   9.040  0.4014 -0.6391 -0.4923
    5SAPS  H18R  608   5.776   7.276   9.135 -2.8946  1.7114  1.3221
    5SAPS  H18S  609   5.664   7.165   9.047 -0.6903  0.0091  0.0880
    5SAPS  C219  610   5.825   7.259   8.930  0.8284  0.0107  0.5479
    5SAPS  H19R  611   5.775   7.279   8.832  0.4765 -3.6336 -0.1535
    5SAPS  H19S  612   5.850   7.152   8.918  1.7593  0.4847 -2.9077
    5SAPS  C220  613   5.943   7.335   8.958 -0.4345 -0.3517 -0.1742
    5SAPS  H20R  614   6.012   7.330   8.871  0.0513 -2.1590  0.2747
    5SAPS  H20S  615   5.998   7.275   9.034  2.9007 -0.6606 -2.6236
    5SAPS  H20T  616   5.913   7.439   8.985  0.5728  0.6282 -2.5833
    5SAPS   C33  617   5.869   6.833  10.138 -0.2554  0.4918  0.3477
    5SAPS   H3X  618   5.786   6.762  10.160  1.2738 -1.6297 -0.4527
    5SAPS   H3Y  619   5.960   6.778  10.106 -0.0974  0.1510  1.3348
    5SAPS   C34  620   5.840   6.943  10.027 -0.0135  0.0102  0.1060
    5SAPS   H4X  621   5.928   7.010  10.015  1.7215 -1.8953  1.3691
    5SAPS   H4Y  622   5.746   7.000  10.040  0.3227  0.6575 -0.2381
    5SAPS   C35  623   5.824   6.871   9.892  0.4519 -0.1690  0.3167
    5SAPS   H5X  624   5.734   6.806   9.893  2.2477 -2.8102  0.6736
    5SAPS   H5Y  625   5.906   6.798   9.883 -0.2750 -0.8384 -1.1437
    5SAPS   C36  626   5.815   6.951   9.769 -0.3098 -0.1076  0.0454
    5SAPS   H6X  627   5.912   6.991   9.731 -0.9083  0.7957 -0.5666
    5SAPS   H6Y  628   5.743   7.034   9.788  0.1295  0.5057 -0.8761
    5SAPS   C37  629   5.779   6.864   9.644 -0.2112 -0.2402 -0.3861
    5SAPS   H7X  630   5.671   6.839   9.656 -0.5227  1.1467 -0.1166
    5SAPS   H7Y  631   5.851   6.780   9.651 -0.5394 -0.3980  2.6427
    5SAPS   C38  632   5.826   6.941   9.513  0.1133 -0.0255  0.0347
    5SAPS   H8X  633   5.934   6.964   9.531  0.5432 -1.2076 -0.8659
    5SAPS   H8Y  634   5.781   7.041   9.500  2.8692  1.0905 -1.7746
    5SAPS   C39  635   5.816   6.849   9.386 -0.2199 -0.6636 -0.1359
    5SAPS   H9X  636   5.707   6.832   9.375 -0.9728  2.2245  1.8269
    5SAPS   H9Y  637   5.879   6.758   9.399  2.7302  1.6057  3.4999
    5SAPS  C310  638   5.875   6.918   9.264  0.0958 -0.6008 -0.4023
    5SAPS  H10X  639   5.981   6.939   9.288  0.1672 -0.1255 -1.1113
    5SAPS  H10Y  640   5.823   7.015   9.246  1.4071 -0.3776 -3.7476
    5SAPS  C311  641   5.864   6.825   9.148 -0.1909 -0.1701 -0.4830
    5SAPS  H11X  642   5.766   6.774   9.137 -1.2104  2.0362 -2.7108
    5SAPS  H11Y  643   5.936   6.744   9.169  0.0307 -0.1982 -1.3251
    5SAPS  C312  644   5.903   6.897   9.017 -0.2531  0.0272  0.0542
    5SAPS  H12X  645   5.997   6.946   9.051  0.2406 -0.6016 -0.3899
    5SAPS  H12Y  646   5.817   6.965   8.999 -0.3893 -0.8234 -3.0858
    5SAPS  C313  647   5.927   6.794   8.907  0.1137  0.4018 -0.3331
    5SAPS  H13X  648   5.833   6.734   8.914 -0.5755  1.4758 -0.1940
    5SAPS  H13Y  649   6.020   6.738   8.932 -0.2030  0.3916  0.8896
    5SAPS  C314  650   5.941   6.855   8.764 -0.1690  0.0518  0.3062
    5SAPS  H14X  651   6.032   6.917   8.779 -0.7084  0.9890 -0.2310
    5SAPS  H14Y  652   5.863   6.929   8.739  1.6202  1.9601  0.1508
    5SAPS  C315  653   5.951   6.755   8.656 -0.3081 -0.1039  1.0350
    5SAPS  H15X  654   5.966   6.812   8.561  0.3757 -2.7206 -0.5196
    5SAPS  H15Y  655   5.865   6.687   8.639 -1.2754  0.3995  3.5111
    5SAPS  C316  656   6.080   6.672   8.672 -0.5023  0.2707  0.1983
    5SAPS  H16X  657   6.069   6.608   8.762  0.0263  0.2416  0.2415
    5SAPS  H16Y  658   6.168   6.739   8.684  0.0565 -0.1317 -1.4710
    5SAPS  C317  659   6.100   6.597   8.545  0.7577  0.2537  0.5644
    5SAPS  H17X  660   6.062   6.668   8.467  3.9598  1.0205 -0.4666
    5SAPS  H17Y  661   6.032   6.509   8.548  0.2680  0.6119  0.1878
    5SAPS  C318  662   6.246   6.553   8.524  0.3698 -0.0044 -0.4338
    5SAPS  H18X  663   6.250   6.493   8.431 -1.1376 -0.0355 -0.4955
    5SAPS  H18Y  664   6.287   6.483   8.600 -0.5718  0.2616  0.3343
    5SAPS  H18Z  665   6.314   6.641   8.527  0.6421 -0.2342  1.4187
    6SAPS     N  666   4.217   5.445  10.679  0.1491 -0.9439  0.0690
    6SAPS   HN1  667   4.244   5.539  10.715  1.1433 -0.3715 -1.9803
    6SAPS   HN2  668   4.293   5.376  10.662  0.0615 -1.4645  1.6525
    6SAPS   HN3  669   4.176   5.465  10.586 -0.3180  0.0699  0.4752
    6SAPS   C12  670   4.140   5.372  10.794 -0.0570  0.3829 -0.4044
    6SAPS  H12A  671   4.215   5.321  10.853 -2.5766 -1.7419  1.1764
    6SAPS   C13  672   4.076   5.467  10.895 -0.1614 -0.1359 -0.1603
    6SAPS  O13A  673   4.120   5.586  10.906  0.4433  0.9346  0.2134
    6SAPS  O13B  674   4.017   5.413  10.992 -0.8191 -0.3224  0.0916
    6SAPS   C11  675   4.054   5.266  10.732 -1.0151  0.9758 -0.1850
    6SAPS  H11A  676   3.965   5.303  10.677 -0.1801  3.2922 -0.1116
    6SAPS  H11B  677   4.023   5.209  10.822 -0.0348 -0.6298 -0.8282
    6SAPS     P  678   4.124   5.031  10.637 -0.4358 -0.4390 -0.1959
    6SAPS   O13  679   4.225   4.979  10.735 -0.0350  1.1350  0.0337
    6SAPS   O14  680   3.985   4.982  10.649  0.8269 -0.8112 -0.2907
    6SAPS   O12  681   4.133   5.183  10.647 -0.1352  0.0288  0.1131
    6SAPS   O11  682   4.175   5.005  10.493  0.3867  0.1568 -0.2342
    6SAPS    C1  683   4.244   5.094  10.406  0.0380 -1.2563  1.0169
    6SAPS    HA  684   4.300   5.175  10.457 -1.6055  1.1119 -0.7473
    6SAPS    HB  685   4.317   5.026  10.356  0.7564 -0.7466  1.3522
    6SAPS    C2  686   4.139   5.145  10.303 -0.9397 -0.2637  0.4844
    6SAPS    HS  687   4.051   5.184  10.359 -1.8387 -1.8455  0.2249
    6SAPS   O21  688   4.105   5.033  10.226 -0.3210 -0.4350  0.5953
    6SAPS   C21  689   4.003   5.053  10.149  0.1375 -0.3574  0.1708
    6SAPS   O22  690   3.926   5.152  10.159 -1.0529 -0.3499  0.3032
    6SAPS   C22  691   3.991   4.946  10.042 -0.1039 -0.5281 -0.0918
    6SAPS   H2R  692   4.093   4.938   9.999  0.5955  1.6589  0.9800
    6SAPS   H2S  693   3.965   4.854  10.098  0.4618  0.3174  1.6369
    6SAPS    C3  694   4.212   5.262  10.218  0.8082 -0.2441 -0.2698
    6SAPS    HX  695   4.235   5.343  10.290  0.1449 -0.9733  0.7855
    6SAPS    HY  696   4.139   5.307  10.147 -0.4864  0.3141  1.3487
    6SAPS   O31  697   4.333   5.217  10.150 -0.1484  0.1781 -0.4907
    6SAPS   C31  698   4.311   5.181  10.024  0.4286  1.0444 -0.4112
    6SAPS   O32  699   4.211   5.191   9.961 -0.2969 -0.1353 -0.3513
    6SAPS   C32  700   4.425   5.103   9.974 -0.4496 -0.0454  0.5073
    6SAPS   H2X  701   4.446   5.014  10.038 -2.4417 -1.0029 -0.0798
    6SAPS   H2Y  702   4.512   5.172   9.973 -0.2765 -0.2114  1.8518
    6SAPS   C23  703   3.889   4.989   9.935  0.6955  0.1948 -0.9589
    6SAPS   H3R  704   3.902   5.098   9.913  0.0293  0.3990 -0.3628
    6SAPS   H3S  705   3.787   4.992   9.978  0.6850  1.6398 -1.0100
    6SAPS   C24  706   3.896   4.902   9.812 -0.0120  0.4295 -0.4696
    6SAPS   H4R  707   3.806   4.915   9.748 -1.0521 -4.2939 -0.3421
    6SAPS   H4S  708   3.888   4.796   9.844 -0.4311  0.5426 -0.1879
    6SAPS   C25  709   4.019   4.914   9.732 -0.4759 -0.4148  0.2514
    6SAPS   H5R  710   4.110   4.878   9.783  0.0493  0.3457 -0.1400
    6SAPS   C26  711   4.029   4.962   9.608 -0.5818 -0.0508  0.3294
    6SAPS   H6R  712   4.133   4.985   9.579 -1.6296  1.5086 -2.6182
    6SAPS   C27  713   3.917   5.018   9.519 -0.1508  0.0554 -0.0500
    6SAPS   H7R  714   3.927   5.128   9.515 -1.4885  0.2792  1.5327
    6SAPS   H7S  715   3.812   4.996   9.551 -0.9129  1.4390 -1.4632
    6SAPS   C28  716   3.942   4.962   9.381  0.9067 -0.0155 -0.7015
    6SAPS   H8R  717   3.989   4.863   9.380 -1.0083 -0.9682 -0.3520
    6SAPS   C29  718   3.907   5.021   9.271 -0.1384  0.2070  0.0821
    6SAPS   H9R  719   3.939   4.984   9.173  2.3223 -0.3707  1.0277
    6SAPS  C210  720   3.837   5.155   9.255 -0.0923  0.4198  0.1557
    6SAPS  H10R  721   3.909   5.232   9.219  1.8755 -1.1970  0.5026
    6SAPS  H10S  722   3.785   5.186   9.348 -1.8601 -4.0648  0.8961
    6SAPS  C211  723   3.733   5.151   9.142  0.5461  0.1578  0.3480
    6SAPS  H11R  724   3.640   5.102   9.174  1.2519 -1.1748  0.4053
    6SAPS  C212  725   3.741   5.195   9.015  0.4699 -0.1502 -0.0754
    6SAPS  H12R  726   3.656   5.195   8.945 -0.0542  1.6987  0.4981
    6SAPS  C213  727   3.867   5.262   8.962 -0.5025  0.2996 -0.1792
    6SAPS  H13R  728   3.947   5.190   8.931  2.4665  3.3442 -0.1932
    6SAPS  H13S  729   3.916   5.334   9.031  0.7003  2.1407 -2.8207
    6SAPS  C214  730   3.840   5.347   8.842 -0.7816  0.5956  0.4609
    6SAPS  H14R  731   3.832   5.456   8.859 -1.2326  0.5365  0.6435
    6SAPS  C215  732   3.831   5.306   8.715  0.2151 -0.4015  0.3889
    6SAPS  H15R  733   3.818   5.384   8.639 -1.2937 -0.3167  0.6987
    6SAPS  C216  734   3.839   5.167   8.661 -0.5066  0.3573 -0.5355
    6SAPS  H16R  735   3.748   5.147   8.602 -0.7333 -0.7830  0.1814
    6SAPS  H16S  736   3.841   5.091   8.742  0.9271 -0.6788 -1.4924
    6SAPS  C217  737   3.968   5.141   8.578  0.3134 -0.2606 -0.2265
    6SAPS  H17R  738   3.986   5.036   8.544  3.1800  0.3978 -1.0082
    6SAPS  H17S  739   4.053   5.160   8.647 -0.8718 -1.8892  1.7941
    6SAPS  C218  740   4.000   5.234   8.464 -0.1710 -0.3640  0.0561
    6SAPS  H18R  741   4.105   5.226   8.431  0.6183 -0.3545  2.4105
    6SAPS  H18S  742   3.997   5.337   8.506  1.8715 -0.9562  1.8309
    6SAPS  C219  743   3.896   5.210   8.349 -0.1588 -0.0342 -0.7805
    6SAPS  H19R  744   3.796   5.205   8.398  0.2913 -0.8009  0.0787
    6SAPS  H19S  745   3.895   5.102   8.324 -0.6589 -0.5703  1.3422
    6SAPS  C220  746   3.899   5.306   8.234  0.7333 -0.3368  0.5489
    6SAPS  H20R  747   3.974   5.283   8.155  0.0248  2.2416 -1.0026
    6SAPS  H20S  748   3.927   5.408   8.267  0.6826  0.3146 -1.2719
    6SAPS  H20T  749   3.799   5.316   8.186 -0.5326 -0.9434  2.8909
    6SAPS   C33  750   4.390   5.058   9.830 -0.2923  0.2136 -0.0164
    6SAPS   H3X  751   4.376   5.145   9.761  1.2598 -0.5763 -1.3964
    6SAPS   H3Y  752   4.292   5.006   9.833 -0.7443  1.0840  0.5808
    6SAPS   C34  753   4.495   4.964   9.760 -0.3420  0.0091 -0.2403
    6SAPS   H4X  754   4.560   4.925   9.841  1.3673  0.6138 -1.2784
    6SAPS   H4Y  755   4.562   5.021   9.693 -0.6691  0.5532 -0.1122
    6SAPS   C35  756   4.432   4.854   9.666  0.2189 -0.3777  0.3564
    6SAPS   H5X  757   4.353   4.894   9.599  0.1069 -1.3874 -0.1320
    6SAPS   H5Y  758   4.385   4.774   9.727 -0.0961 -0.8716 -0.5130
    6SAPS   C36  759   4.537   4.767   9.593  0.2617 -0.0564  0.0627
    6SAPS   H6X  760   4.484   4.679   9.552 -0.3325 -1.0229  2.6687
    6SAPS   H6Y  761   4.610   4.711   9.657  1.7552 -0.7898 -2.1713
    6SAPS   C37  762   4.606   4.842   9.490 -0.6058 -0.7913  0.2623
    6SAPS   H7X  763   4.709   4.859   9.528 -0.1093 -1.9507 -0.5112
    6SAPS   H7Y  764   4.558   4.942   9.482  0.1601 -0.3297  1.2225
    6SAPS   C38  765   4.604   4.771   9.352 -0.4058  0.1782 -0.2079
    6SAPS   H8X  766   4.501   4.745   9.318 -0.1289 -0.7931 -0.3376
    6SAPS   H8Y  767   4.664   4.678   9.365  0.6961  0.8041 -0.6806
    6SAPS   C39  768   4.700   4.835   9.246  0.4328  0.6494 -0.6139
    6SAPS   H9X  769   4.801   4.840   9.292  0.7203  0.8030 -1.2571
    6SAPS   H9Y  770   4.670   4.941   9.232  0.1659  1.1999  3.0931
    6SAPS  C310  771   4.705   4.756   9.114 -0.5014  0.3754 -0.5625
    6SAPS  H10X  772   4.606   4.737   9.067 -0.7650  1.2508 -0.3826
    6SAPS  H10Y  773   4.749   4.661   9.151  0.0408  0.7732 -0.1601
    6SAPS  C311  774   4.803   4.825   9.009  0.4896  0.1968  0.1469
    6SAPS  H11X  775   4.888   4.859   9.072  1.0711 -0.9245 -0.0014
    6SAPS  H11Y  776   4.748   4.909   8.962 -0.1284 -1.1174 -1.6185
    6SAPS  C312  777   4.859   4.735   8.893  0.3398  0.2630 -0.1059
    6SAPS  H12X  778   4.772   4.707   8.830  1.7947 -1.0597 -1.6039
    6SAPS  H12Y  779   4.906   4.641   8.929  0.5742 -0.1971 -1.5595
    6SAPS  C313  780   4.963   4.816   8.805  0.5864  0.4036 -0.4374
    6SAPS  H13X  781   5.046   4.839   8.875 -0.9881  1.6524  1.1075
    6SAPS  H13Y  782   4.927   4.913   8.764 -1.9962 -0.1033  0.4510
    6SAPS  C314  783   5.024   4.726   8.698  0.4825 -0.1989 -0.2558
    6SAPS  H14X  784   4.938   4.714   8.629 -0.6840 -0.6729  1.2173
    6SAPS  H14Y  785   5.058   4.626   8.731 -1.7152 -0.6677  0.7738
    6SAPS  C315  786   5.147   4.794   8.633  0.0527 -0.4446  0.4530
    6SAPS  H15X  787   5.181   4.719   8.558  2.1580  0.8506  0.0157
    6SAPS  H15Y  788   5.230   4.803   8.707  0.9861 -1.5599 -0.4225
    6SAPS  C316  789   5.110   4.920   8.557  0.2194 -0.5111  0.1984
    6SAPS  H16X  790   5.199   4.927   8.491 -1.4093 -0.5650 -2.1239
    6SAPS  H16Y  791   5.100   5.002   8.632 -4.5873 -3.3708  3.2574
    6SAPS  C317  792   4.985   4.919   8.455  0.1758 -0.4013  0.1642
    6SAPS  H17X  793   4.900   4.888   8.519 -0.5404  0.5682 -0.2910
    6SAPS  H17Y  794   5.014   4.846   8.376  1.0786  0.6602 -0.5322
    6SAPS  C318  795   4.971   5.055   8.387  0.1600  0.2628  0.4816
    6SAPS  H18X  796   5.054   5.066   8.314 -1.5629 -0.4328 -1.6655
    6SAPS  H18Y  797   4.987   5.140   8.457  1.5345 -0.2868  0.8644
    6SAPS  H18Z  798   4.866   5.059   8.350 -0.0452  0.2337  1.0493
    7SAPS     N  799   0.126   0.145  10.860 -0.1201 -0.1590  0.7561
    7SAPS   HN1  800   0.217   0.094  10.864 -1.2190 -2.2584  0.4808
    7SAPS   HN2  801   0.135   0.248  10.862  1.3141 -0.2705  1.7391
    7SAPS   HN3  802   0.068   0.114  10.941 -0.4107 -1.4433  0.0859
    7SAPS   C12  803   0.044   0.087  10.753  0.2446  0.2875 -0.5045
    7SAPS  H12A  804   0.114   0.048  10.682 -0.2694 -0.4765 -0.5990
    7SAPS   C13  805  -0.039  -0.032  10.811 -0.2541 -0.0875  0.3223
    7SAPS  O13A  806  -0.024  -0.076  10.929  0.1213 -0.1899  0.6305
    7SAPS  O13B  807  -0.118  -0.086  10.733 -0.1963  0.0227 -0.1082
    7SAPS   C11  808  -0.042   0.204  10.707 -0.2546  0.2718 -1.1181
    7SAPS  H11A  809  -0.099   0.252  10.790 -1.9057 -0.1380 -1.9639
    7SAPS  H11B  810  -0.119   0.164  10.637 -1.3811 -0.3564  0.3979
    7SAPS     P  811  -0.042   0.435  10.593  0.0775  0.4085  0.2257
    7SAPS   O13  812  -0.112   0.498  10.703 -0.8404 -0.0391 -0.6343
    7SAPS   O14  813   0.048   0.525  10.510  0.0533 -0.4925  0.0094
    7SAPS   O12  814   0.034   0.306  10.642  0.0397 -0.2934 -0.1438
    7SAPS   O11  815  -0.151   0.380  10.485  0.5239 -0.0523  0.0021
    7SAPS    C1  816  -0.099   0.341  10.358  0.0061  0.0547 -0.1195
    7SAPS    HA  817  -0.081   0.426  10.289  2.0286 -0.9555 -0.9318
    7SAPS    HB  818  -0.006   0.281  10.369 -1.1877 -1.9786 -0.6248
    7SAPS    C2  819  -0.202   0.250  10.282  0.1406 -0.9049 -0.3207
    7SAPS    HS  820  -0.143   0.192  10.208  1.1450 -3.1039  2.0608
    7SAPS   O21  821  -0.321   0.319  10.218  0.1120 -1.3293 -0.3461
    7SAPS   C21  822  -0.288   0.402  10.123 -0.2276  0.8444  0.1389
    7SAPS   O22  823  -0.177   0.426  10.079 -0.2776  0.7438  0.0780
    7SAPS   C22  824  -0.416   0.455  10.062 -0.4330 -0.5477  0.2371
    7SAPS   H2R  825  -0.482   0.374  10.023  0.5971 -0.9667 -0.6910
    7SAPS   H2S  826  -0.474   0.496  10.148  0.0963  2.7229 -0.8314
    7SAPS    C3  827  -0.261   0.144  10.369  0.1712 -0.1624 -0.5868
    7SAPS    HX  828  -0.326   0.197  10.440  2.5199  0.4120  1.2467
    7SAPS    HY  829  -0.183   0.086  10.424 -0.6059 -1.3383 -0.6855
    7SAPS   O31  830  -0.324   0.048  10.285  0.3888  0.2306 -0.4460
    7SAPS   C31  831  -0.458   0.056  10.280 -0.2696 -0.2816 -0.1789
    7SAPS   O32  832  -0.526   0.130  10.339 -0.7073  0.4038 -0.1593
    7SAPS   C32  833  -0.517  -0.062  10.201 -0.5223  0.1364  0.6626
    7SAPS   H2X  834  -0.579  -0.123  10.270 -0.0293 -2.5520 -1.1095
    7SAPS   H2Y  835  -0.432  -0.120  10.160  1.4425  2.1601  1.6456
    7SAPS   C23  836  -0.401   0.557   9.953 -0.3982 -0.2499  0.5393
    7SAPS   H3R  837  -0.363   0.499   9.866  1.6260  3.4360 -1.2646
    7SAPS   H3S  838  -0.328   0.638   9.976 -0.9693  0.8022 -1.1435
    7SAPS   C24  839  -0.537   0.620   9.921 -0.1178 -0.0670  0.3346
    7SAPS   H4R  840  -0.598   0.530   9.898  0.3541  0.2088 -2.3135
    7SAPS   H4S  841  -0.529   0.672   9.823 -2.2549 -2.4333 -1.2284
    7SAPS   C25  842  -0.588   0.720  10.022 -0.0905 -0.1398 -1.3602
    7SAPS   H5R  843  -0.512   0.781  10.071  0.9042 -1.9942 -0.4669
    7SAPS   C26  844  -0.711   0.707  10.079  0.3385 -0.9351  0.1221
    7SAPS   H6R  845  -0.737   0.775  10.161 -2.7532  0.4525 -1.8170
    7SAPS   C27  846  -0.816   0.612  10.031  1.2140  0.5539 -0.4367
    7SAPS   H7R  847  -0.795   0.514  10.080 -0.5980  0.2353 -0.2337
    7SAPS   H7S  848  -0.800   0.591   9.923 -0.6992 -1.3653 -0.4192
    7SAPS   C28  849  -0.958   0.652  10.067  0.1194  0.5030  0.2965
    7SAPS   H8R  850  -0.976   0.720  10.152  0.3524  2.0505 -0.8530
    7SAPS   C29  851  -1.067   0.623   9.997  0.5165  0.2243 -1.0187
    7SAPS   H9R  852  -1.160   0.665  10.039 -0.3839 -0.2689 -2.4053
    7SAPS  C210  853  -1.088   0.535   9.885 -0.5527  0.2557  0.4439
    7SAPS  H10R  854  -1.174   0.471   9.914 -0.6012 -0.0802 -0.4025
    7SAPS  H10S  855  -1.004   0.462   9.891  1.7580  2.8674  1.8299
    7SAPS  C211  856  -1.103   0.606   9.748  0.1332 -0.2738 -0.1917
    7SAPS  H11R  857  -1.162   0.699   9.754  1.0069  0.3007 -0.4799
    7SAPS  C212  858  -1.031   0.573   9.638 -0.2882 -0.9253  0.3088
    7SAPS  H12R  859  -1.044   0.625   9.541  1.1689  1.8397  1.4723
    7SAPS  C213  860  -0.928   0.468   9.614  0.3696 -0.2000  0.2103
    7SAPS  H13R  861  -0.961   0.372   9.660  3.1015 -1.5319 -0.3682
    7SAPS  H13S  862  -0.838   0.498   9.671  0.9789 -1.4909 -0.0323
    7SAPS  C214  863  -0.894   0.428   9.472 -0.6175 -0.6319  0.0883
    7SAPS  H14R  864  -0.955   0.344   9.437  1.9298 -2.1926 -0.9064
    7SAPS  C215  865  -0.796   0.470   9.385 -1.1752  0.6775 -0.1847
    7SAPS  H15R  866  -0.796   0.419   9.288  3.0534 -0.8708  0.4245
    7SAPS  C216  867  -0.685   0.569   9.410 -0.2067 -0.9640  0.3374
    7SAPS  H16R  868  -0.670   0.604   9.515 -2.0151  1.3776 -0.1119
    7SAPS  H16S  869  -0.703   0.661   9.350 -0.6361  0.5946  2.7201
    7SAPS  C217  870  -0.545   0.509   9.376 -0.3859  0.1408 -0.1189
    7SAPS  H17R  871  -0.557   0.409   9.424 -0.4450  0.1674 -0.0776
    7SAPS  H17S  872  -0.467   0.569   9.428 -0.4253 -0.6697  0.9284
    7SAPS  C218  873  -0.505   0.510   9.225  0.0681  1.2402  0.0327
    7SAPS  H18R  874  -0.545   0.606   9.185 -1.0123  0.9580  0.3914
    7SAPS  H18S  875  -0.555   0.425   9.173  1.1414  0.9034 -0.4831
    7SAPS  C219  876  -0.353   0.497   9.200  0.7183 -0.3878  0.0679
    7SAPS  H19R  877  -0.305   0.597   9.212  0.4910 -0.5053  2.3201
    7SAPS  H19S  878  -0.334   0.469   9.094 -0.0650  0.4123 -0.2874
    7SAPS  C220  879  -0.282   0.393   9.289  0.1268  0.3271  0.0744
    7SAPS  H20R  880  -0.175   0.417   9.273 -0.1119  0.4172 -1.5793
    7SAPS  H20S  881  -0.301   0.292   9.248  4.0551 -0.4327 -0.2743
    7SAPS  H20T  882  -0.304   0.400   9.398  0.1822  1.8582  0.0048
    7SAPS   C33  883  -0.612  -0.003  10.092 -1.0651  0.1348 -0.1742
    7SAPS   H3X  884  -0.651   0.093  10.130  2.6144  2.0506 -0.7656
    7SAPS   H3Y  885  -0.689  -0.080  10.068 -1.0017 -0.8938  2.6023
    7SAPS   C34  886  -0.534   0.031   9.962  0.1634  0.2902  0.0018
    7SAPS   H4X  887  -0.479  -0.062   9.935 -1.3322 -0.1492 -1.7421
    7SAPS   H4Y  888  -0.461   0.110   9.988 -0.7282  0.5541  1.8701
    7SAPS   C35  889  -0.626   0.072   9.847  0.5190  0.7390 -0.4776
    7SAPS   H5X  890  -0.656   0.178   9.860  2.3812  1.1423  1.0398
    7SAPS   H5Y  891  -0.714   0.006   9.831  0.6225  0.4683  0.0224
    7SAPS   C36  892  -0.556   0.064   9.712  0.0672 -0.2589  0.5278
    7SAPS   H6X  893  -0.508  -0.036   9.704  1.2433  0.0799  2.6611
    7SAPS   H6Y  894  -0.475   0.140   9.702 -0.3341  0.1607  0.4785
    7SAPS   C37  895  -0.657   0.080   9.601 -0.2097 -0.9789  0.0654
    7SAPS   H7X  896  -0.726   0.163   9.630  0.4301  0.0823 -1.3039
    7SAPS   H7Y  897  -0.720  -0.010   9.616  0.8769 -1.6727  0.5532
    7SAPS   C38  898  -0.601   0.101   9.467 -0.5628  0.1423 -0.1096
    7SAPS   H8X  899  -0.538   0.192   9.461 -2.3700  1.5554  1.2335
    7SAPS   H8Y  900  -0.680   0.125   9.392 -0.2179  1.6254 -0.0129
    7SAPS   C39  901  -0.522  -0.029   9.422  0.5404  0.0380 -1.0725
    7SAPS   H9X  902  -0.567  -0.110   9.483  1.8099  1.2344  1.6078
    7SAPS   H9Y  903  -0.414  -0.025   9.449  1.0867 -1.7834 -2.7717
    7SAPS  C310  904  -0.535  -0.055   9.274 -0.0183  0.6254 -0.6723
    7SAPS  H10X  905  -0.644  -0.066   9.258  0.0812 -0.3502 -0.7410
    7SAPS  H10Y  906  -0.496  -0.155   9.247 -1.4818 -0.2430  0.2541
    7SAPS  C311  907  -0.468   0.050   9.190 -0.3554 -0.1957 -0.1568
    7SAPS  H11X  908  -0.360   0.061   9.215 -0.4159 -1.8509  1.0135
    7SAPS  H11Y  909  -0.516   0.148   9.214  1.5310  0.4092  1.4022
    7SAPS  C312  910  -0.485   0.033   9.037  0.2301  0.2129 -0.0234
    7SAPS  H12X  911  -0.588   0.043   8.998  0.1259 -0.7298 -0.0094
    7SAPS  H12Y  912  -0.454  -0.070   9.011  0.0927  0.2090 -0.1743
    7SAPS  C313  913  -0.406   0.139   8.958  1.0433  0.4836  0.2791
    7SAPS  H13X  914  -0.296   0.135   8.978  0.9469 -2.4807  0.6044
    7SAPS  H13Y  915  -0.449   0.233   8.999 -2.6922  0.0979 -2.2982
    7SAPS  C314  916  -0.431   0.141   8.806 -0.3402 -0.0683 -0.5794
    7SAPS  H14X  917  -0.536   0.156   8.774 -0.2593 -1.1359 -1.3873
    7SAPS  H14Y  918  -0.409   0.035   8.781  0.1823 -0.9118  2.9426
    7SAPS  C315  919  -0.342   0.239   8.723  0.3127  0.7749 -0.5760
    7SAPS  H15X  920  -0.373   0.222   8.618  1.3177  1.4899 -1.0146
    7SAPS  H15Y  921  -0.235   0.210   8.730 -0.0877 -0.4099  1.4544
    7SAPS  C316  922  -0.347   0.382   8.776 -0.5752  0.3680  0.4870
    7SAPS  H16X  923  -0.265   0.432   8.720 -0.1386  0.0330  0.8125
    7SAPS  H16Y  924  -0.317   0.371   8.883 -0.8257  0.3014  0.5491
    7SAPS  C317  925  -0.471   0.455   8.780  0.8291  0.5009 -0.9565
    7SAPS  H17X  926  -0.472   0.529   8.864  0.8011 -0.6949  0.1298
    7SAPS  H17Y  927  -0.559   0.391   8.802  0.0137  2.5156  2.3865
    7SAPS  C318  928  -0.499   0.519   8.645 -0.0257  0.1901 -0.1236
    7SAPS  H18X  929  -0.579   0.596   8.644 -0.3368 -0.1264 -1.4594
    7SAPS  H18Y  930  -0.536   0.442   8.574  0.1108  0.9787 -1.0604
    7SAPS  H18Z  931  -0.408   0.570   8.605 -0.0797  1.4022  1.2398
    8SAPS     N  932   3.754   0.418  11.273 -0.0824  0.1714 -0.1515
    8SAPS   HN1  933   3.833   0.471  11.316  0.6161 -0.7809 -0.2329
    8SAPS   HN2  934   3.704   0.465  11.194 -1.1696  0.8742  0.9227
    8SAPS   HN3  935   3.681   0.398  11.344  0.6636  0.3662  0.6785
    8SAPS   C12  936   3.817   0.291  11.215  0.2863  0.9216  0.6229
    8SAPS  H12A  937   3.896   0.323  11.147  0.1771 -1.5025 -0.7360
    8SAPS   C13  938   3.872   0.200  11.325 -0.7711 -0.0307 -0.0919
    8SAPS  O13A  939   3.865   0.223  11.451 -0.0040 -0.4191 -0.4270
    8SAPS  O13B  940   3.949   0.109  11.288 -0.4216  0.0914 -0.6177
    8SAPS   C11  941   3.707   0.221  11.143  0.0206 -0.0887  0.3892
    8SAPS  H11A  942   3.625   0.203  11.216 -0.2141 -2.7791 -0.4384
    8SAPS  H11B  943   3.745   0.125  11.104 -1.1830 -0.4262  0.0204
    8SAPS     P  944   3.526   0.270  10.965  0.1993 -0.0181  0.1416
    8SAPS   O13  945   3.549   0.143  10.890  0.2684  0.0048  0.5181
    8SAPS   O14  946   3.418   0.272  11.072 -0.6554  0.1179 -0.0970
    8SAPS   O12  947   3.662   0.307  11.038  0.1060 -0.4317  0.6122
    8SAPS   O11  948   3.518   0.404  10.877  0.0543 -0.6688  1.2387
    8SAPS    C1  949   3.630   0.415  10.782  0.7562  1.0683 -0.2037
    8SAPS    HA  950   3.675   0.516  10.783  2.0935  0.4881  0.3040
    8SAPS    HB  951   3.714   0.342  10.788  1.4762  1.6340 -2.3450
    8SAPS    C2  952   3.575   0.402  10.634 -0.6122  0.3241  0.6074
    8SAPS    HS  953   3.644   0.422  10.549  0.5497 -0.0983  1.4224
    8SAPS   O21  954   3.469   0.497  10.612 -0.5322  0.5504 -0.3315
    8SAPS   C21  955   3.506   0.618  10.590 -0.2654  0.6900 -0.0820
    8SAPS   O22  956   3.624   0.653  10.577  0.2314 -0.5251 -0.4387
    8SAPS   C22  957   3.382   0.701  10.586 -0.1079 -0.0213  1.1392
    8SAPS   H2R  958   3.297   0.643  10.628 -0.4495  0.9120  1.7916
    8SAPS   H2S  959   3.393   0.792  10.650  0.3665 -0.9501  2.4206
    8SAPS    C3  960   3.534   0.259  10.606  0.3170 -0.1088 -0.3006
    8SAPS    HX  961   3.434   0.248  10.653  0.2882 -1.1246 -0.5657
    8SAPS    HY  962   3.599   0.190  10.665  0.5598 -0.3169 -0.8070
    8SAPS   O31  963   3.530   0.225  10.463 -0.5844 -0.0552  0.1817
    8SAPS   C31  964   3.640   0.185  10.413 -0.3483 -0.3160 -0.2045
    8SAPS   O32  965   3.746   0.165  10.472  0.3443  0.1523 -1.2593
    8SAPS   C32  966   3.627   0.160  10.265 -0.1320 -0.1398  0.4119
    8SAPS   H2X  967   3.560   0.234  10.218  1.9508  0.6164 -1.5463
    8SAPS   H2Y  968   3.591   0.054  10.261  0.7692 -0.6642  3.5792
    8SAPS   C23  969   3.351   0.733  10.430 -0.0142 -0.7466 -0.6555
    8SAPS   H3R  970   3.256   0.790  10.433 -0.1397 -1.0032  0.7305
    8SAPS   H3S  971   3.342   0.642  10.367  2.8225 -0.9620 -0.8777
    8SAPS   C24  972   3.455   0.823  10.359 -0.8283  0.3654 -0.3302
    8SAPS   H4R  973   3.549   0.767  10.344 -0.2957  1.2433 -0.3627
    8SAPS   H4S  974   3.472   0.913  10.422 -2.9894  1.4893 -1.2360
    8SAPS   C25  975   3.402   0.874  10.226 -0.3753 -0.7378  0.6407
    8SAPS   H5R  976   3.355   0.807  10.153 -1.9657  0.8242  0.1563
    8SAPS   C26  977   3.411   1.003  10.190  0.0536 -0.1800 -0.3791
    8SAPS   H6R  978   3.393   1.036  10.086 -0.4467  1.4340  0.1966
    8SAPS   C27  979   3.464   1.120  10.276  0.3419 -0.2661 -0.0756
    8SAPS   H7R  980   3.575   1.119  10.269  0.3333 -3.2899 -1.3113
    8SAPS   H7S  981   3.445   1.121  10.385  2.0825  0.6099  0.2550
    8SAPS   C28  982   3.399   1.249  10.222 -0.4836 -0.2173  0.2737
    8SAPS   H8R  983   3.294   1.256  10.254 -0.5912 -1.3678  0.2420
    8SAPS   C29  984   3.458   1.342  10.138  1.2914  0.2172  0.0091
    8SAPS   H9R  985   3.402   1.432  10.108 -1.7835 -1.9681 -1.3954
    8SAPS  C210  986   3.599   1.345  10.080  0.4033 -0.3502  0.6529
    8SAPS  H10R  987   3.659   1.274  10.142 -0.6416 -0.9820  0.9751
    8SAPS  H10S  988   3.660   1.436  10.096  2.0277 -1.1207 -0.8435
    8SAPS  C211  989   3.610   1.305   9.933 -0.0241 -0.3297  0.4888
    8SAPS  H11R  990   3.518   1.287   9.876  1.0344 -1.4009 -0.9712
    8SAPS  C212  991   3.722   1.311   9.864 -0.2071  0.0843 -0.4849
    8SAPS  H12R  992   3.728   1.274   9.761  0.2460  0.0493 -0.4502
    8SAPS  C213  993   3.857   1.359   9.916  0.0120 -1.3298  0.1927
    8SAPS  H13R  994   3.938   1.283   9.903  1.4145  0.4861 -2.5788
    8SAPS  H13S  995   3.853   1.384  10.024  0.8721  0.7198 -0.2023
    8SAPS  C214  996   3.889   1.481   9.829  0.0932  0.4033 -0.5476
    8SAPS  H14R  997   3.824   1.567   9.852  2.3239  1.6917  1.3561
    8SAPS  C215  998   4.000   1.499   9.753  0.4300  0.2323 -0.8329
    8SAPS  H15R  999   4.011   1.593   9.695 -0.7267 -0.8421 -2.9232
    8SAPS  C216 1000   4.109   1.398   9.737  0.0207  0.1183  0.4053
    8SAPS  H16R 1001   4.124   1.351   9.837 -1.2007 -0.5340  0.3007
    8SAPS  H16S 1002   4.202   1.452   9.709  2.4272 -4.4342 -1.3385
    8SAPS  C217 1003   4.082   1.304   9.629 -0.1008 -0.3347  0.3605
    8SAPS  H17R 1004   3.989   1.244   9.643  0.8312 -2.5435 -2.1311
    8SAPS  H17S 1005   4.158   1.224   9.616 -1.0994 -1.5529  1.5781
    8SAPS  C218 1006   4.069   1.375   9.490 -0.0313  1.0534  0.1539
    8SAPS  H18R 1007   4.171   1.410   9.464  0.3759  1.4016  2.1196
    8SAPS  H18S 1008   4.013   1.469   9.506  0.9468  1.9147 -1.2381
    8SAPS  C219 1009   4.002   1.280   9.393 -0.0779  0.1460 -0.0473
    8SAPS  H19R 1010   3.937   1.343   9.329 -1.7637 -2.0160 -0.5731
    8SAPS  H19S 1011   3.936   1.211   9.450  2.3714 -3.3738 -1.1185
    8SAPS  C220 1012   4.083   1.205   9.295  0.3609  0.1563  0.2670
    8SAPS  H20R 1013   4.143   1.131   9.351 -0.1462 -1.1351 -0.8504
    8SAPS  H20S 1014   4.146   1.263   9.224  0.1684 -1.5247 -1.3503
    8SAPS  H20T 1015   4.017   1.154   9.223  0.1216  1.5136 -0.5156
    8SAPS   C33 1016   3.761   0.167  10.188  0.1462  0.6842  0.2436
    8SAPS   H3X 1017   3.826   0.077  10.203  1.6228  1.4872 -1.0593
    8SAPS   H3Y 1018   3.827   0.252  10.215  0.5379 -0.3623  2.8826
    8SAPS   C34 1019   3.741   0.182  10.030 -0.2031  0.5193 -0.6462
    8SAPS   H4X 1020   3.683   0.277  10.023 -0.7516  0.1564 -1.1127
    8SAPS   H4Y 1021   3.691   0.092   9.990  0.3023  0.6855 -1.6822
    8SAPS   C35 1022   3.878   0.210   9.964  0.7794 -0.0715 -0.4962
    8SAPS   H5X 1023   3.946   0.122   9.969  1.6199  0.6035  2.6831
    8SAPS   H5Y 1024   3.930   0.291  10.020  0.4355 -0.6372  0.6734
    8SAPS   C36 1025   3.856   0.241   9.818 -0.0225  0.6510 -0.0529
    8SAPS   H6X 1026   3.803   0.335   9.792 -1.0650 -0.3063 -1.6319
    8SAPS   H6Y 1027   3.792   0.155   9.789 -0.5878  0.8703  0.5384
    8SAPS   C37 1028   3.978   0.227   9.726 -0.4578 -0.2452  0.6264
    8SAPS   H7X 1029   4.037   0.136   9.751  2.9418  1.5345 -0.2076
    8SAPS   H7Y 1030   4.048   0.310   9.751 -0.3336 -1.0118  3.1564
    8SAPS   C38 1031   3.945   0.241   9.581  0.1506 -0.4221 -0.2323
    8SAPS   H8X 1032   3.863   0.314   9.562  0.0463 -0.8593 -1.6152
    8SAPS   H8Y 1033   3.902   0.148   9.538 -3.8183  0.7591  0.8141
    8SAPS   C39 1034   4.065   0.298   9.495 -0.9978  0.0273  0.2756
    8SAPS   H9X 1035   4.133   0.211   9.503 -1.2952 -0.0353  2.8934
    8SAPS   H9Y 1036   4.107   0.390   9.541  2.0649 -1.3175  0.4007
    8SAPS  C310 1037   4.041   0.324   9.348 -0.6555  0.6680  0.1121
    8SAPS  H10X 1038   4.140   0.358   9.311 -1.4248  2.4912 -0.3843
    8SAPS  H10Y 1039   3.977   0.412   9.325  0.2421  1.7289  1.4706
    8SAPS  C311 1040   3.992   0.200   9.270 -0.9087 -0.0797 -0.6809
    8SAPS  H11X 1041   3.906   0.157   9.325 -1.7462  2.0463 -0.2386
    8SAPS  H11Y 1042   4.081   0.135   9.257 -2.1289 -1.7872 -0.8363
    8SAPS  C312 1043   3.943   0.233   9.128 -0.2635  0.9117 -0.0498
    8SAPS  H12X 1044   3.852   0.297   9.137  0.0237  1.3618 -0.3021
    8SAPS  H12Y 1045   3.912   0.139   9.078  1.9882  0.6573 -1.0702
    8SAPS  C313 1046   4.043   0.313   9.041 -0.0607  0.0942 -0.8852
    8SAPS  H13X 1047   4.139   0.257   9.038  0.2527  0.5949 -0.3602
    8SAPS  H13Y 1048   4.063   0.412   9.087 -0.3997 -0.1102 -0.2925
    8SAPS  C314 1049   3.994   0.340   8.908  0.2260  0.4637  0.3742
    8SAPS  H14X 1050   3.901   0.400   8.920  0.4382  1.2279 -1.4444
    8SAPS  H14Y 1051   3.981   0.239   8.866 -0.0397  0.3494  0.7324
    8SAPS  C315 1052   4.079   0.416   8.809  0.4070 -0.3164  0.2335
    8SAPS  H15X 1053   4.094   0.521   8.843  1.0646 -0.7386  1.3142
    8SAPS  H15Y 1054   4.016   0.432   8.719  0.4999 -0.8350  0.0738
    8SAPS  C316 1055   4.205   0.334   8.770 -0.1805 -0.5653  0.4356
    8SAPS  H16X 1056   4.168   0.235   8.734  0.9458 -1.2349  1.0777
    8SAPS  H16Y 1057   4.267   0.315   8.860 -1.8358  1.5270  2.1300
    8SAPS  C317 1058   4.281   0.415   8.657  0.0658 -0.0798  0.7145
    8SAPS  H17X 1059   4.389   0.389   8.658  0.2285 -0.0288 -2.6444
    8SAPS  H17Y 1060   4.292   0.521   8.689 -1.0911  0.5506 -0.8047
    8SAPS  C318 1061   4.226   0.408   8.515  0.0779 -0.0890 -0.6070
    8SAPS  H18X 1062   4.206   0.305   8.479  0.6036 -0.4600  0.1160
    8SAPS  H18Y 1063   4.298   0.460   8.448  0.1653 -0.4836 -0.8218
    8SAPS  H18Z 1064   4.127   0.457   8.504 -0.9649 -1.6569  1.0872
    9SAPS     N 1065   2.557   3.191   6.027  0.0820 -1.1349  0.2289
    9SAPS   HN1 1066   2.491   3.126   6.073  0.6344 -1.9967 -0.1775
    9SAPS   HN2 1067   2.583   3.161   5.931 -1.1095  0.6765 -0.7209
    9SAPS   HN3 1068   2.645   3.207   6.081  1.0457  1.0556 -1.7830
    9SAPS   C12 1069   2.473   3.316   6.022  0.0067 -0.0381  0.4163
    9SAPS  H12A 1070   2.530   3.402   5.989  0.0710 -0.3588 -0.3318
    9SAPS   C13 1071   2.340   3.311   5.934  0.1683 -0.7587 -0.3170
    9SAPS  O13A 1072   2.300   3.196   5.895 -0.6924 -0.1355  0.1114
    9SAPS  O13B 1073   2.270   3.415   5.922  0.6286  0.2578  0.8660
    9SAPS   C11 1074   2.437   3.347   6.168 -0.8748 -0.9772  0.2550
    9SAPS  H11A 1075   2.363   3.430   6.175 -0.4459 -0.4175 -1.4458
    9SAPS  H11B 1076   2.526   3.389   6.220 -0.9847  0.3241 -0.5589
    9SAPS     P 1077   2.281   3.248   6.357 -0.2028 -0.0768  0.1260
    9SAPS   O13 1078   2.156   3.284   6.290  0.3617 -0.5424 -0.2751
    9SAPS   O14 1079   2.273   3.127   6.443  0.2725  0.2432  0.1108
    9SAPS   O12 1080   2.394   3.237   6.244  0.4924  0.2639  0.0495
    9SAPS   O11 1081   2.319   3.372   6.453 -0.0851  0.4325 -0.7941
    9SAPS    C1 1082   2.422   3.367   6.552  0.4586  0.2276 -0.1679
    9SAPS    HA 1083   2.420   3.272   6.609  1.1993  0.9455  1.0988
    9SAPS    HB 1084   2.523   3.376   6.508  1.2887  0.4303  1.6706
    9SAPS    C2 1085   2.400   3.479   6.658 -0.0617 -0.2054 -0.0456
    9SAPS    HS 1086   2.506   3.506   6.679  0.4801 -1.6822 -0.7283
    9SAPS   O21 1087   2.318   3.419   6.770  0.1171 -0.3882  0.5870
    9SAPS   C21 1088   2.391   3.333   6.847  0.9475  0.0177  0.3153
    9SAPS   O22 1089   2.512   3.323   6.840 -0.6111  0.0865 -0.0045
    9SAPS   C22 1090   2.312   3.274   6.961  0.5615 -0.0470  0.0752
    9SAPS   H2R 1091   2.218   3.231   6.921  1.3338 -1.2745 -0.4677
    9SAPS   H2S 1092   2.361   3.180   6.995  0.3277  0.3652  1.6684
    9SAPS    C3 1093   2.330   3.610   6.612 -0.5725 -0.2475 -0.1586
    9SAPS    HX 1094   2.230   3.575   6.577 -0.2139 -0.6093 -0.8363
    9SAPS    HY 1095   2.385   3.643   6.520 -2.6266  0.2559 -1.2742
    9SAPS   O31 1096   2.328   3.713   6.714 -0.6751 -0.4332  0.0995
    9SAPS   C31 1097   2.439   3.781   6.745 -0.6717 -0.5297  0.2665
    9SAPS   O32 1098   2.543   3.771   6.680 -0.3690  0.5234 -0.3160
    9SAPS   C32 1099   2.417   3.861   6.879 -0.4452  0.2812 -0.6276
    9SAPS   H2X 1100   2.354   3.948   6.849 -1.5714 -0.0190  0.7665
    9SAPS   H2Y 1101   2.517   3.903   6.903  0.4608 -1.5402 -1.0436
    9SAPS   C23 1102   2.280   3.364   7.079 -0.1967  0.3302 -0.1885
    9SAPS   H3R 1103   2.184   3.337   7.129 -0.3281  0.6282 -0.2712
    9SAPS   H3S 1104   2.259   3.469   7.048  0.8539  0.1509 -1.5708
    9SAPS   C24 1105   2.390   3.362   7.192  0.4870 -0.4089  0.0155
    9SAPS   H4R 1106   2.359   3.436   7.269 -1.9739  1.1186 -2.2654
    9SAPS   H4S 1107   2.489   3.393   7.151  0.3292 -2.5257 -2.2318
    9SAPS   C25 1108   2.404   3.226   7.262 -0.4692 -0.1433  1.1551
    9SAPS   H5R 1109   2.314   3.163   7.264 -1.1105  0.4613 -2.2897
    9SAPS   C26 1110   2.519   3.162   7.291 -0.3686  0.3907  0.1915
    9SAPS   H6R 1111   2.500   3.071   7.350  1.4705  0.3690  0.8350
    9SAPS   C27 1112   2.657   3.219   7.276  0.4228 -0.0966  0.1395
    9SAPS   H7R 1113   2.716   3.163   7.352 -0.5429  1.3284  2.0260
    9SAPS   H7S 1114   2.655   3.322   7.318 -0.9550  0.2680 -0.7573
    9SAPS   C28 1115   2.711   3.215   7.139 -0.3474  0.3781  0.0769
    9SAPS   H8R 1116   2.638   3.238   7.059  0.4824  1.3510 -0.4388
    9SAPS   C29 1117   2.842   3.222   7.100 -0.8124 -0.6271  0.8747
    9SAPS   H9R 1118   2.866   3.235   6.994  0.9383  2.2966  1.5081
    9SAPS  C210 1119   2.958   3.224   7.194 -0.0833  0.5999  0.4304
    9SAPS  H10R 1120   2.926   3.167   7.283 -0.1198  0.6534  0.4519
    9SAPS  H10S 1121   2.974   3.330   7.220  2.3609  0.2751  0.4711
    9SAPS  C211 1122   3.074   3.148   7.133  0.2208  0.5141  0.1419
    9SAPS  H11R 1123   3.066   3.119   7.028 -0.0896  0.5335  0.1588
    9SAPS  C212 1124   3.182   3.112   7.207 -0.6847  0.3015 -0.1149
    9SAPS  H12R 1125   3.256   3.053   7.151 -0.1729  0.6614  0.1691
    9SAPS  C213 1126   3.217   3.129   7.358 -0.4575  0.3153  0.0861
    9SAPS  H13R 1127   3.150   3.201   7.410 -1.3311 -1.3301  1.3252
    9SAPS  H13S 1128   3.318   3.176   7.366  0.7603 -1.8108 -1.8542
    9SAPS  C214 1129   3.201   3.001   7.432 -0.1098 -0.0678  0.1935
    9SAPS  H14R 1130   3.158   2.916   7.377 -2.4306 -0.1981  2.0478
    9SAPS  C215 1131   3.229   2.992   7.564 -0.1968 -0.0661 -0.1389
    9SAPS  H15R 1132   3.190   2.897   7.606  0.3399  0.2854  1.2119
    9SAPS  C216 1133   3.284   3.100   7.659 -0.3086 -0.3126  0.9176
    9SAPS  H16R 1134   3.332   3.184   7.606  2.5743 -1.2917  1.7960
    9SAPS  H16S 1135   3.372   3.057   7.711  0.0835  0.3426  0.8007
    9SAPS  C217 1136   3.193   3.155   7.772 -0.2207  0.2291  0.3715
    9SAPS  H17R 1137   3.109   3.201   7.716  0.6912 -0.0187 -1.2500
    9SAPS  H17S 1138   3.249   3.239   7.819  0.3424 -0.3711  0.8030
    9SAPS  C218 1139   3.151   3.054   7.882  0.0641  0.5970  0.2937
    9SAPS  H18R 1140   3.246   3.002   7.906  0.1970 -0.0834 -1.5571
    9SAPS  H18S 1141   3.080   2.977   7.845 -0.6412  0.5770  1.6075
    9SAPS  C219 1142   3.080   3.130   7.996 -0.7786  0.1628  0.7083
    9SAPS  H19R 1143   2.975   3.147   7.967 -0.3127 -0.2701 -1.4309
    9SAPS  H19S 1144   3.133   3.223   8.026 -1.2737  0.7845 -0.2763
    9SAPS  C220 1145   3.059   3.050   8.119 -0.2992 -0.2761 -0.1147
    9SAPS  H20R 1146   3.021   3.111   8.203  0.6497  0.9724 -0.5595
    9SAPS  H20S 1147   3.158   3.009   8.151  0.4023  0.0561 -1.7525
    9SAPS  H20T 1148   2.986   2.970   8.095 -1.3368  1.1250 -1.8923
    9SAPS   C33 1149   2.342   3.784   6.985 -0.0308 -0.6576  0.2835
    9SAPS   H3X 1150   2.387   3.686   7.012  2.6958  0.0806 -1.2743
    9SAPS   H3Y 1151   2.239   3.773   6.943 -0.9778  0.6070  2.1320
    9SAPS   C34 1152   2.335   3.862   7.114  0.8887 -0.1492 -0.6767
    9SAPS   H4X 1153   2.429   3.917   7.134  0.2287  0.9596 -0.5152
    9SAPS   H4Y 1154   2.329   3.788   7.197 -0.2135 -0.1492 -0.7448
    9SAPS   C35 1155   2.212   3.951   7.135 -0.5907 -0.4738  0.5673
    9SAPS   H5X 1156   2.119   3.891   7.129  0.7369 -2.5701 -0.3185
    9SAPS   H5Y 1157   2.215   4.031   7.059  0.6946  1.4822  2.5380
    9SAPS   C36 1158   2.233   4.018   7.267 -0.0632 -0.6042 -0.6867
    9SAPS   H6X 1159   2.336   4.058   7.257 -0.6058  1.3665  1.0639
    9SAPS   H6Y 1160   2.228   3.944   7.349  0.8624 -0.3327 -0.3804
    9SAPS   C37 1161   2.129   4.128   7.308 -0.2035  0.2857  0.1664
    9SAPS   H7X 1162   2.037   4.066   7.316  0.3211 -0.4750  0.4161
    9SAPS   H7Y 1163   2.116   4.208   7.232  0.2564 -1.5590 -1.9368
    9SAPS   C38 1164   2.165   4.208   7.437 -0.2486  0.9981  0.6883
    9SAPS   H8X 1165   2.061   4.237   7.462 -0.7636 -0.7936  0.7901
    9SAPS   H8Y 1166   2.236   4.289   7.408 -0.9408  1.3499 -0.0355
    9SAPS   C39 1167   2.208   4.125   7.560 -0.0215 -0.1055 -0.7088
    9SAPS   H9X 1168   2.312   4.087   7.547  1.0866  1.4012  2.5883
    9SAPS   H9Y 1169   2.138   4.040   7.575  1.0500 -0.8573  0.2114
    9SAPS  C310 1170   2.223   4.213   7.699 -0.2384  0.1249 -0.4705
    9SAPS  H10X 1171   2.118   4.245   7.717  0.3585  2.0572 -0.1727
    9SAPS  H10Y 1172   2.282   4.299   7.662 -1.6763  0.1474 -3.0036
    9SAPS  C311 1173   2.286   4.130   7.811  0.2051 -0.2849 -0.4707
    9SAPS  H11X 1174   2.389   4.100   7.782 -0.8480 -3.1198 -1.6282
    9SAPS  H11Y 1175   2.234   4.035   7.834 -0.6829  0.5832  1.3299
    9SAPS  C312 1176   2.289   4.212   7.942  0.1955 -0.0873  0.5330
    9SAPS  H12X 1177   2.185   4.232   7.976  1.3261  1.2216  3.6544
    9SAPS  H12Y 1178   2.326   4.317   7.938 -2.5377  1.0174  1.7169
    9SAPS  C313 1179   2.360   4.135   8.066 -0.2393 -0.0631  0.7260
    9SAPS  H13X 1180   2.451   4.094   8.018 -0.8366 -0.2975 -0.2559
    9SAPS  H13Y 1181   2.298   4.043   8.077  0.9255 -1.0664 -0.7426
    9SAPS  C314 1182   2.370   4.221   8.194 -0.1681 -0.0839 -0.5478
    9SAPS  H14X 1183   2.268   4.263   8.210 -0.7452 -1.9247  1.1140
    9SAPS  H14Y 1184   2.438   4.307   8.177  0.4675 -0.2404  1.0635
    9SAPS  C315 1185   2.405   4.132   8.309 -0.2305  0.2428  0.5621
    9SAPS  H15X 1186   2.513   4.109   8.296 -0.1866  0.1680  1.0330
    9SAPS  H15Y 1187   2.354   4.034   8.309  1.6123 -0.7632  0.3586
    9SAPS  C316 1188   2.359   4.196   8.445 -0.7434  0.1702  0.0452
    9SAPS  H16X 1189   2.413   4.149   8.530  1.4227 -1.0850 -1.9187
    9SAPS  H16Y 1190   2.249   4.185   8.459 -0.5960 -3.2656 -0.7729
    9SAPS  C317 1191   2.390   4.348   8.464  0.4010 -0.6426  0.2900
    9SAPS  H17X 1192   2.324   4.401   8.391  1.0178  0.0193  0.1966
    9SAPS  H17Y 1193   2.492   4.381   8.434  0.3779 -0.5576  0.3029
    9SAPS  C318 1194   2.356   4.408   8.601 -0.3097 -0.2016 -0.0305
    9SAPS  H18X 1195   2.431   4.368   8.672  2.2024  2.2384 -1.1129
    9SAPS  H18Y 1196   2.251   4.380   8.625 -0.4682 -2.4253 -2.8178
    9SAPS  H18Z 1197   2.362   4.518   8.592  0.6751 -0.2043  0.4602
   10SAPS     N 1198   2.036   3.383   6.064 -0.1167  0.4765 -0.4324
   10SAPS   HN1 1199   1.981   3.342   5.986  1.0193  0.2411 -1.1353
   10SAPS   HN2 1200   2.129   3.400   6.022  0.7866  0.8310  1.5864
   10SAPS   HN3 1201   2.034   3.317   6.145 -3.8279 -2.6134 -2.7173
   10SAPS   C12 1202   1.983   3.503   6.125  0.0330 -0.3446  0.0486
   10SAPS  H12A 1203   2.035   3.527   6.217  0.1961  0.3454 -0.2169
   10SAPS   C13 1204   1.990   3.632   6.039  0.6037  0.4244  0.3874
   10SAPS  O13A 1205   1.980   3.629   5.912 -0.0137 -0.1693 -0.2171
   10SAPS  O13B 1206   1.982   3.745   6.100 -0.8699  0.2129  0.1491
   10SAPS   C11 1207   1.838   3.464   6.148  0.8225 -0.4562 -0.4896
   10SAPS  H11A 1208   1.780   3.446   6.054  0.5577  1.0817 -0.6428
   10SAPS  H11B 1209   1.799   3.559   6.191  1.2955  0.0432 -1.1520
   10SAPS     P 1210   1.733   3.364   6.367 -0.2102  0.0546  0.2640
   10SAPS   O13 1211   1.606   3.431   6.336  0.5082 -0.6599 -0.0366
   10SAPS   O14 1212   1.720   3.239   6.440  0.1077 -0.7727 -0.0659
   10SAPS   O12 1213   1.815   3.347   6.234  0.3071  0.4638 -0.6398
   10SAPS   O11 1214   1.824   3.463   6.448  0.3465  0.1087  0.0737
   10SAPS    C1 1215   1.952   3.422   6.504  0.5439 -0.3012 -0.6404
   10SAPS    HA 1216   1.972   3.315   6.486  1.4827  0.2361 -3.1336
   10SAPS    HB 1217   2.030   3.488   6.459  0.9114  0.4905  1.0432
   10SAPS    C2 1218   1.957   3.421   6.665  0.6331 -0.1800 -0.6811
   10SAPS    HS 1219   2.062   3.402   6.697  0.7945  1.7036  0.0809
   10SAPS   O21 1220   1.855   3.328   6.722  0.8798  0.4888  0.2122
   10SAPS   C21 1221   1.910   3.215   6.761 -0.3443 -0.9530 -0.5231
   10SAPS   O22 1222   2.024   3.182   6.732 -0.1317  0.2544 -0.2598
   10SAPS   C22 1223   1.811   3.127   6.846 -0.1111  0.2222  0.0933
   10SAPS   H2R 1224   1.710   3.170   6.830  0.6629  3.5335  2.8136
   10SAPS   H2S 1225   1.824   3.021   6.817  1.9512  0.2027  0.8915
   10SAPS    C3 1226   1.927   3.564   6.719 -0.1575  0.0814 -0.1445
   10SAPS    HX 1227   1.822   3.579   6.688 -0.5559  1.3919  1.6848
   10SAPS    HY 1228   1.989   3.638   6.664  0.1955  1.2761  1.7619
   10SAPS   O31 1229   1.942   3.562   6.859  0.4200  0.3070 -0.2750
   10SAPS   C31 1230   1.882   3.671   6.918 -1.1255  0.0345  0.5607
   10SAPS   O32 1231   1.811   3.753   6.866 -0.4625  0.4577  0.3363
   10SAPS   C32 1232   1.934   3.674   7.059 -0.0201 -0.2166 -0.2493
   10SAPS   H2X 1233   1.879   3.753   7.115 -0.9453 -0.4507 -0.8127
   10SAPS   H2Y 1234   2.039   3.711   7.049 -0.1858  0.5815  0.7144
   10SAPS   C23 1235   1.826   3.136   7.000  0.5588 -0.6079  0.4030
   10SAPS   H3R 1236   1.934   3.149   7.022  1.0839 -1.0846 -1.6302
   10SAPS   H3S 1237   1.803   3.036   7.044  0.3794 -1.2310 -1.0440
   10SAPS   C24 1238   1.746   3.251   7.061  1.2889  0.0652  0.4625
   10SAPS   H4R 1239   1.749   3.335   6.988  0.8476 -0.7915 -0.5689
   10SAPS   H4S 1240   1.790   3.294   7.153  0.8053  0.0885  0.6850
   10SAPS   C25 1241   1.598   3.222   7.075  0.1813 -0.6801 -0.0350
   10SAPS   H5R 1242   1.538   3.240   6.984  0.5100 -0.2601 -0.1682
   10SAPS   C26 1243   1.537   3.190   7.188 -0.1296 -0.7650 -0.2940
   10SAPS   H6R 1244   1.428   3.179   7.182 -0.0489 -1.1221 -1.2556
   10SAPS   C27 1245   1.601   3.171   7.328  0.4164  0.1047 -0.2432
   10SAPS   H7R 1246   1.557   3.248   7.394  0.4673  0.7633 -0.9548
   10SAPS   H7S 1247   1.709   3.195   7.320  1.0368 -2.0245  1.0515
   10SAPS   C28 1248   1.574   3.037   7.386 -0.2633 -0.2159 -0.1598
   10SAPS   H8R 1249   1.567   2.954   7.315 -2.5984  0.4462 -0.7862
   10SAPS   C29 1250   1.558   3.014   7.520  0.4955  0.3419 -0.0366
   10SAPS   H9R 1251   1.535   2.910   7.548  1.6528 -0.1523 -0.8195
   10SAPS  C210 1252   1.561   3.114   7.635 -0.2901  1.2406  0.2752
   10SAPS  H10R 1253   1.493   3.196   7.602  2.2793  3.5076  0.2784
   10SAPS  H10S 1254   1.662   3.157   7.647  0.8160 -0.6937 -1.4728
   10SAPS  C211 1255   1.509   3.056   7.761  0.7457  0.4685  0.4088
   10SAPS  H11R 1256   1.400   3.052   7.773  1.0097 -1.4910  3.0110
   10SAPS  C212 1257   1.580   3.013   7.866  0.1474  0.3947  0.0493
   10SAPS  H12R 1258   1.529   2.963   7.949 -1.5682  0.6803 -0.7937
   10SAPS  C213 1259   1.729   3.007   7.872  0.0808  0.2330  0.3811
   10SAPS  H13R 1260   1.771   3.109   7.862  0.9808 -0.2027 -0.4357
   10SAPS  H13S 1261   1.783   2.956   7.789 -0.3599 -1.5721  1.1391
   10SAPS  C214 1262   1.793   2.954   8.002  0.3414 -0.5835  0.3970
   10SAPS  H14R 1263   1.859   2.869   7.982  0.9563 -0.2618  1.0115
   10SAPS  C215 1264   1.775   3.007   8.126  0.6174 -0.5746  0.6589
   10SAPS  H15R 1265   1.824   2.962   8.214  2.3153 -0.2783 -0.0892
   10SAPS  C216 1266   1.692   3.131   8.157 -0.1000  1.1131  0.2739
   10SAPS  H16R 1267   1.641   3.172   8.067  2.0135  2.8071 -0.2271
   10SAPS  H16S 1268   1.757   3.215   8.189  0.3157  1.8003 -2.1125
   10SAPS  C217 1269   1.593   3.092   8.264 -0.7085  0.3505  0.8553
   10SAPS  H17R 1270   1.642   3.067   8.360  1.5519  2.3631  0.3094
   10SAPS  H17S 1271   1.522   3.016   8.225 -0.8382  1.1765 -0.5863
   10SAPS  C218 1272   1.499   3.204   8.296 -0.4528 -0.9681 -0.6526
   10SAPS  H18R 1273   1.437   3.236   8.209  0.2491  1.3278 -0.3738
   10SAPS  H18S 1274   1.556   3.296   8.319 -1.9267 -0.7412  2.7246
   10SAPS  C219 1275   1.403   3.162   8.414 -0.1387  0.5302  0.6634
   10SAPS  H19R 1276   1.471   3.117   8.489  0.7527  1.5551  0.4981
   10SAPS  H19S 1277   1.335   3.083   8.375  1.1053  0.1320 -0.8314
   10SAPS  C220 1278   1.324   3.281   8.461  0.9943  0.6150  0.2563
   10SAPS  H20R 1279   1.387   3.373   8.463  2.7199 -0.4490 -1.4742
   10SAPS  H20S 1280   1.286   3.258   8.563 -1.3506 -1.5035 -0.9865
   10SAPS  H20T 1281   1.234   3.310   8.403  0.4109  1.1084  1.3801
   10SAPS   C33 1282   1.917   3.545   7.136  0.0869 -0.2404  0.8053
   10SAPS   H3X 1283   1.971   3.464   7.083  0.8059  0.0470  1.0793
   10SAPS   H3Y 1284   1.811   3.522   7.159 -0.2436  1.5987  1.2831
   10SAPS   C34 1285   1.994   3.546   7.264 -0.4163 -0.0664 -0.0686
   10SAPS   H4X 1286   1.942   3.631   7.313 -0.4687 -0.6964  0.9868
   10SAPS   H4Y 1287   2.098   3.571   7.236  0.4503 -2.5925  0.7077
   10SAPS   C35 1288   1.982   3.410   7.326 -0.0428 -0.0854  0.1058
   10SAPS   H5X 1289   1.988   3.326   7.254 -2.8996 -2.0356  1.9305
   10SAPS   H5Y 1290   1.876   3.411   7.358  0.1170 -0.4645  0.6743
   10SAPS   C36 1291   2.075   3.399   7.443 -0.6582 -0.7906  0.4809
   10SAPS   H6X 1292   2.063   3.489   7.507  0.2460 -0.4114  0.1449
   10SAPS   H6Y 1293   2.180   3.404   7.407 -0.7485 -1.2191  0.1476
   10SAPS   C37 1294   2.050   3.272   7.535 -0.8112 -0.0093 -0.3837
   10SAPS   H7X 1295   2.090   3.185   7.479 -0.2838  0.1273 -0.2228
   10SAPS   H7Y 1296   1.943   3.242   7.540 -0.9848 -0.0142 -2.7777
   10SAPS   C38 1297   2.117   3.289   7.672 -0.3972 -0.9295  0.1214
   10SAPS   H8X 1298   2.095   3.391   7.708  0.3586 -1.0991  1.1077
   10SAPS   H8Y 1299   2.227   3.294   7.665 -0.4296 -0.7649 -0.2839
   10SAPS   C39 1300   2.085   3.192   7.779  0.6199  0.0554  0.2208
   10SAPS   H9X 1301   2.090   3.091   7.732  0.7572 -0.3831  1.1400
   10SAPS   H9Y 1302   1.983   3.203   7.822  0.7121 -1.3756  0.8883
   10SAPS  C310 1303   2.176   3.186   7.906 -0.1272 -0.3748  0.2274
   10SAPS  H10X 1304   2.262   3.254   7.890 -1.4788  1.2516 -0.3970
   10SAPS  H10Y 1305   2.217   3.083   7.917  1.0038 -0.0590 -0.8933
   10SAPS  C311 1306   2.112   3.212   8.044 -0.5231 -0.6303  0.6061
   10SAPS  H11X 1307   2.001   3.218   8.036 -0.3821 -0.2171 -1.7446
   10SAPS  H11Y 1308   2.135   3.316   8.075 -1.0218 -0.4836  0.5001
   10SAPS  C312 1309   2.133   3.116   8.157  0.3031 -0.2698  0.3463
   10SAPS  H12X 1310   2.101   3.012   8.133 -0.6635  0.6361 -2.9059
   10SAPS  H12Y 1311   2.067   3.148   8.240 -1.1146 -1.4105 -0.2869
   10SAPS  C313 1312   2.274   3.133   8.198 -0.1319 -0.1072  1.1320
   10SAPS  H13X 1313   2.287   3.235   8.240  1.3666  0.5396 -0.7420
   10SAPS  H13Y 1314   2.348   3.117   8.117  1.7334 -0.0697  2.7370
   10SAPS  C314 1315   2.321   3.043   8.310  0.1715  0.0628  0.0237
   10SAPS  H14X 1316   2.282   2.941   8.289 -1.7463  0.4508  1.4336
   10SAPS  H14Y 1317   2.286   3.085   8.407 -1.6592  1.8536 -1.3406
   10SAPS  C315 1318   2.477   3.029   8.310  0.1171  0.0169  0.4720
   10SAPS  H15X 1319   2.529   3.122   8.278  1.5015 -1.2226 -1.0682
   10SAPS  H15Y 1320   2.501   2.960   8.226 -0.9781  0.6345 -0.3518
   10SAPS  C316 1321   2.538   2.963   8.431  0.0367 -0.1573 -0.8370
   10SAPS  H16X 1322   2.492   2.864   8.449  2.5077 -1.4572 -1.3323
   10SAPS  H16Y 1323   2.526   3.021   8.525  1.2428  0.1732 -0.8688
   10SAPS  C317 1324   2.695   2.945   8.430 -0.4587 -0.1366  0.2901
   10SAPS  H17X 1325   2.728   2.907   8.331  0.6605 -1.4956  1.1528
   10SAPS  H17Y 1326   2.715   2.876   8.514 -0.0437  0.7662  0.9583
   10SAPS  C318 1327   2.760   3.083   8.465 -0.2073 -0.0702 -0.1658
   10SAPS  H18X 1328   2.764   3.146   8.373  1.5973 -1.5507 -1.1719
   10SAPS  H18Y 1329   2.865   3.069   8.496 -0.1118 -3.2721 -1.5580
   10SAPS  H18Z 1330   2.706   3.130   8.549 -0.2334  0.0264 -0.2355
   11SAPS     N 1331   0.326   6.490   5.749  0.0235  0.3248  0.0891
   11SAPS   HN1 1332   0.282   6.446   5.665  0.5160  2.4517 -1.3488
   11SAPS   HN2 1333   0.426   6.497   5.722 -0.5517  0.3997 -2.2479
   11SAPS   HN3 1334   0.324   6.434   5.836  0.4952  0.4030  0.1520
   11SAPS   C12 1335   0.268   6.629   5.769 -0.2428  0.1304  0.4202
   11SAPS  H12A 1336   0.288   6.693   5.684  0.8631 -1.2962 -0.4530
   11SAPS   C13 1337   0.112   6.633   5.811 -0.9013  0.6363  0.1116
   11SAPS  O13A 1338   0.047   6.524   5.820 -0.1731 -0.4490 -0.3087
   11SAPS  O13B 1339   0.062   6.742   5.834  0.1152 -0.1022 -0.0611
   11SAPS   C11 1340   0.358   6.677   5.878  0.1172 -0.4338 -0.7395
   11SAPS  H11A 1341   0.378   6.598   5.953 -1.1216  0.2635  0.3706
   11SAPS  H11B 1342   0.308   6.763   5.927  3.8729  1.3129  0.3303
   11SAPS     P 1343   0.559   6.838   5.923  0.0713 -0.0921 -0.2007
   11SAPS   O13 1344   0.705   6.823   5.921 -0.5785 -0.0463 -0.2251
   11SAPS   O14 1345   0.504   6.974   5.898 -0.3790  0.1897  0.2958
   11SAPS   O12 1346   0.487   6.723   5.829 -0.2253  0.2018 -0.0031
   11SAPS   O11 1347   0.516   6.791   6.072 -0.1397 -0.3918  0.5094
   11SAPS    C1 1348   0.575   6.691   6.147 -0.5452 -0.4635  0.2699
   11SAPS    HA 1349   0.497   6.630   6.197 -1.8337 -1.3390 -2.5495
   11SAPS    HB 1350   0.624   6.619   6.077 -0.8845  4.0031 -5.3319
   11SAPS    C2 1351   0.660   6.750   6.262 -0.0175 -0.1629  0.0209
   11SAPS    HS 1352   0.743   6.811   6.219 -0.3794  1.5220  1.5733
   11SAPS   O21 1353   0.710   6.643   6.341  0.2789  0.5224  0.6363
   11SAPS   C21 1354   0.811   6.569   6.293  0.1457  0.0906  0.2528
   11SAPS   O22 1355   0.847   6.555   6.178  0.9342  0.1249 -0.4381
   11SAPS   C22 1356   0.865   6.482   6.406 -0.2421 -0.1144  0.5358
   11SAPS   H2R 1357   0.795   6.468   6.492 -2.0588 -0.5122 -0.9443
   11SAPS   H2S 1358   0.880   6.381   6.362  2.0861  1.1460 -1.8396
   11SAPS    C3 1359   0.562   6.828   6.356 -0.1112 -0.1104 -0.2113
   11SAPS    HX 1360   0.468   6.771   6.367 -0.4860  0.6154  0.4351
   11SAPS    HY 1361   0.525   6.922   6.311 -0.7159 -0.3823 -0.2876
   11SAPS   O31 1362   0.621   6.854   6.484  0.0520 -0.0027 -0.7699
   11SAPS   C31 1363   0.722   6.931   6.495 -0.1172  0.6181 -0.0788
   11SAPS   O32 1364   0.780   6.996   6.409  0.2253 -0.6133 -1.0260
   11SAPS   C32 1365   0.766   6.930   6.636 -0.7318  0.2477 -0.0186
   11SAPS   H2X 1366   0.840   6.848   6.652 -1.7776 -1.1289 -1.8616
   11SAPS   H2Y 1367   0.677   6.910   6.699 -0.9615 -0.9287 -0.6670
   11SAPS   C23 1368   1.005   6.537   6.455 -0.3431  0.5323  0.1624
   11SAPS   H3R 1369   1.064   6.554   6.363 -2.6002  4.2157 -0.8263
   11SAPS   H3S 1370   1.048   6.458   6.520  0.3262  1.3819  0.7756
   11SAPS   C24 1371   1.000   6.675   6.528 -0.4159  0.1423 -0.4762
   11SAPS   H4R 1372   0.945   6.656   6.623  2.6582  1.0892  1.6665
   11SAPS   H4S 1373   0.938   6.752   6.477 -0.5021 -0.3648 -1.1494
   11SAPS   C25 1374   1.137   6.727   6.569 -0.5183 -1.5527 -0.3876
   11SAPS   H5R 1375   1.177   6.806   6.504  0.0929 -1.5445 -0.0093
   11SAPS   C26 1376   1.213   6.706   6.682  0.0176 -0.2607  0.4385
   11SAPS   H6R 1377   1.313   6.752   6.684 -0.8437  1.6502  0.8549
   11SAPS   C27 1378   1.184   6.607   6.789 -0.7888  0.0476  0.0832
   11SAPS   H7R 1379   1.267   6.616   6.863 -0.2211 -3.0792 -0.0118
   11SAPS   H7S 1380   1.196   6.508   6.740 -0.4484 -0.5734  1.3634
   11SAPS   C28 1381   1.052   6.613   6.874  0.8345 -0.4538 -0.0878
   11SAPS   H8R 1382   0.972   6.687   6.859 -0.1478 -1.3480  0.5956
   11SAPS   C29 1383   1.027   6.533   6.980 -0.0189  0.0136 -0.0164
   11SAPS   H9R 1384   0.928   6.543   7.026 -0.5573  1.7903 -1.4561
   11SAPS  C210 1385   1.116   6.423   7.018 -0.0425 -0.7121  0.0889
   11SAPS  H10R 1386   1.150   6.453   7.120 -0.0399 -1.1142  0.2101
   11SAPS  H10S 1387   1.210   6.423   6.958 -0.9867 -0.7178 -1.4369
   11SAPS  C211 1388   1.061   6.291   7.039 -0.1540 -0.0991  0.1355
   11SAPS  H11R 1389   1.046   6.235   6.945  0.3313 -0.5400  0.3191
   11SAPS  C212 1390   1.027   6.238   7.161 -0.6512 -0.3482 -0.1590
   11SAPS  H12R 1391   0.972   6.143   7.153  2.2409 -1.9873 -4.4138
   11SAPS  C213 1392   1.043   6.295   7.298 -0.1200 -0.4745  0.1379
   11SAPS  H13R 1393   0.970   6.241   7.361  0.0642 -0.1546  0.6308
   11SAPS  H13S 1394   1.013   6.402   7.303 -0.5307 -0.6124  0.7414
   11SAPS  C214 1395   1.187   6.271   7.349  0.4085 -0.2188 -0.1235
   11SAPS  H14R 1396   1.265   6.315   7.285  0.3875 -1.1892 -0.8510
   11SAPS  C215 1397   1.236   6.191   7.445 -0.4877  0.1166 -0.5324
   11SAPS  H15R 1398   1.342   6.180   7.476 -0.8700 -0.3314  0.6678
   11SAPS  C216 1399   1.156   6.100   7.527  0.0336  0.1397  0.3088
   11SAPS  H16R 1400   1.191   5.995   7.523 -1.5941 -0.4195  0.3508
   11SAPS  H16S 1401   1.052   6.094   7.491 -1.2022 -1.5139  3.6855
   11SAPS  C217 1402   1.157   6.139   7.678  0.1302  0.4013  0.4186
   11SAPS  H17R 1403   1.099   6.056   7.723 -1.4528  0.4378 -1.4009
   11SAPS  H17S 1404   1.085   6.223   7.692 -2.6819 -1.9799  1.1680
   11SAPS  C218 1405   1.293   6.172   7.745  0.1408 -0.1192  0.1624
   11SAPS  H18R 1406   1.288   6.198   7.853 -0.6186  1.0023 -0.1310
   11SAPS  H18S 1407   1.332   6.263   7.694 -1.7189  0.7947  0.2868
   11SAPS  C219 1408   1.384   6.050   7.726  0.2215  0.6123 -0.0640
   11SAPS  H19R 1409   1.486   6.085   7.751  1.3195 -0.7594 -2.2714
   11SAPS  H19S 1410   1.398   6.006   7.625  2.5766 -2.4551  1.4030
   11SAPS  C220 1411   1.343   5.940   7.822 -0.3632 -0.2227 -0.3103
   11SAPS  H20R 1412   1.359   5.971   7.927 -1.1269 -0.4589 -0.1163
   11SAPS  H20S 1413   1.399   5.847   7.797  0.8988  0.3433  0.3581
   11SAPS  H20T 1414   1.236   5.915   7.804  0.0488 -1.8600 -0.7058
   11SAPS   C33 1415   0.833   7.053   6.684 -0.0878 -0.5668 -0.4300
   11SAPS   H3X 1416   0.754   7.131   6.685 -0.6300 -1.0693  1.9215
   11SAPS   H3Y 1417   0.914   7.076   6.611 -2.5821  1.2297 -2.8164
   11SAPS   C34 1418   0.908   7.040   6.821  0.5841 -0.1423 -0.4459
   11SAPS   H4X 1419   0.945   7.141   6.850 -0.1312 -0.3873  1.4678
   11SAPS   H4Y 1420   0.997   6.978   6.798 -0.1806 -1.1455 -0.7909
   11SAPS   C35 1421   0.812   6.981   6.927  0.0021  0.4624  0.7919
   11SAPS   H5X 1422   0.766   6.888   6.886  0.2475  0.1733  1.1661
   11SAPS   H5Y 1423   0.724   7.047   6.944  0.2405  1.5693 -1.8342
   11SAPS   C36 1424   0.880   6.937   7.055  0.7794 -0.5877 -0.2794
   11SAPS   H6X 1425   0.937   7.019   7.104  0.9152 -0.0128 -1.3824
   11SAPS   H6Y 1426   0.957   6.859   7.039 -1.7767 -3.7783  1.6148
   11SAPS   C37 1427   0.778   6.892   7.163  0.5702  0.1391 -0.7049
   11SAPS   H7X 1428   0.729   6.799   7.125 -0.9461  1.0223 -0.9834
   11SAPS   H7Y 1429   0.699   6.970   7.169  0.7097  0.4013 -1.9043
   11SAPS   C38 1430   0.833   6.852   7.297 -0.0824 -0.6366  0.1920
   11SAPS   H8X 1431   0.756   6.820   7.370 -0.2677 -2.0678 -0.6104
   11SAPS   H8Y 1432   0.904   6.931   7.330  0.2914 -0.3781 -1.1718
   11SAPS   C39 1433   0.916   6.718   7.287 -0.1371 -0.4165 -0.0102
   11SAPS   H9X 1434   1.016   6.736   7.241  1.8221 -0.7426  3.6796
   11SAPS   H9Y 1435   0.860   6.646   7.225  1.0546  1.2787 -3.2914
   11SAPS  C310 1436   0.945   6.649   7.421  0.3067 -0.4421 -0.4191
   11SAPS  H10X 1437   0.997   6.730   7.478  1.0826 -0.0023 -1.7078
   11SAPS  H10Y 1438   1.024   6.571   7.416  1.8277  0.9813  0.2545
   11SAPS  C311 1439   0.820   6.591   7.489  0.8925  0.0095 -0.2999
   11SAPS  H11X 1440   0.756   6.538   7.415 -0.8555 -2.1975  2.6050
   11SAPS  H11Y 1441   0.764   6.678   7.530 -0.5496 -1.7055  1.5487
   11SAPS  C312 1442   0.846   6.492   7.605  0.0066 -0.0912  0.2559
   11SAPS  H12X 1443   0.909   6.543   7.681 -0.3991  0.6657  0.0944
   11SAPS  H12Y 1444   0.903   6.408   7.559  0.2603 -0.2319  0.8174
   11SAPS  C313 1445   0.709   6.444   7.658 -0.9093  0.1806 -0.0325
   11SAPS  H13X 1446   0.672   6.389   7.569 -1.2792 -2.5945  1.7000
   11SAPS  H13Y 1447   0.635   6.523   7.682 -0.2640  0.5656  0.7383
   11SAPS  C314 1448   0.714   6.337   7.781  0.4683 -0.3352 -0.0936
   11SAPS  H14X 1449   0.770   6.395   7.857 -0.1219 -0.3428  0.3444
   11SAPS  H14Y 1450   0.772   6.251   7.740 -1.5267 -1.9781  0.4045
   11SAPS  C315 1451   0.574   6.305   7.828  0.2950 -0.1544  0.2266
   11SAPS  H15X 1452   0.532   6.245   7.744  0.1224  1.1159 -0.6401
   11SAPS  H15Y 1453   0.510   6.395   7.843  2.1658  1.4025 -0.6146
   11SAPS  C316 1454   0.573   6.202   7.949 -0.2539  0.9997  0.2176
   11SAPS  H16X 1455   0.645   6.118   7.942 -1.2863 -0.0341  1.6390
   11SAPS  H16Y 1456   0.471   6.159   7.941  0.3784 -0.5271  0.1311
   11SAPS  C317 1457   0.605   6.269   8.084  0.7663 -0.6957 -0.2095
   11SAPS  H17X 1458   0.537   6.357   8.084  2.6690  0.9278 -2.2419
   11SAPS  H17Y 1459   0.703   6.321   8.097  0.3551  0.4899 -1.6356
   11SAPS  C318 1460   0.588   6.182   8.208 -0.0221  0.4949 -0.4624
   11SAPS  H18X 1461   0.484   6.143   8.211 -0.8056  2.4085 -1.1631
   11SAPS  H18Y 1462   0.605   6.243   8.300  1.0185  0.4681 -0.6261
   11SAPS  H18Z 1463   0.666   6.104   8.210 -0.5192 -0.0000  1.7027
   12SAPS     N 1464   2.357   5.356   5.835 -0.8131  0.5245 -0.1982
   12SAPS   HN1 1465   2.437   5.330   5.897  1.1513  5.1365 -0.4290
   12SAPS   HN2 1466   2.273   5.305   5.869 -0.1250 -0.2022  0.4933
   12SAPS   HN3 1467   2.391   5.321   5.744 -0.1441  0.2276  0.1563
   12SAPS   C12 1468   2.343   5.503   5.833  0.1581  0.2449  0.3502
   12SAPS  H12A 1469   2.427   5.548   5.782  1.8404  0.1306  2.8305
   12SAPS   C13 1470   2.208   5.540   5.768  0.0410 -0.7410  0.0592
   12SAPS  O13A 1471   2.116   5.461   5.752  0.0214  0.2897 -0.0264
   12SAPS  O13B 1472   2.187   5.664   5.743 -0.1762  0.6452 -0.6203
   12SAPS   C11 1473   2.334   5.550   5.983 -0.6417 -0.9884 -0.3588
   12SAPS  H11A 1474   2.245   5.506   6.031 -1.0790 -1.6616 -1.7288
   12SAPS  H11B 1475   2.327   5.660   5.973 -0.7139 -1.0538 -1.1257
   12SAPS     P 1476   2.587   5.585   6.065  0.2138 -0.2272  0.2443
   12SAPS   O13 1477   2.661   5.566   5.939 -0.0448 -0.3147 -0.2890
   12SAPS   O14 1478   2.553   5.719   6.107 -0.0867  0.0562  1.0088
   12SAPS   O12 1479   2.451   5.515   6.055 -0.0350  0.2455 -0.2548
   12SAPS   O11 1480   2.664   5.514   6.176 -0.3082 -0.3427  0.0287
   12SAPS    C1 1481   2.598   5.403   6.238  0.3088  0.2114 -0.1045
   12SAPS    HA 1482   2.564   5.329   6.162  1.7275  1.9819 -2.6290
   12SAPS    HB 1483   2.675   5.365   6.308  2.0416  2.3906 -0.7035
   12SAPS    C2 1484   2.488   5.445   6.341  0.0315 -0.0283  0.0551
   12SAPS    HS 1485   2.411   5.506   6.288 -1.1541 -1.0654  0.5191
   12SAPS   O21 1486   2.554   5.527   6.444  0.2118 -0.1552  0.1890
   12SAPS   C21 1487   2.482   5.572   6.545 -0.4157 -0.0354 -1.2748
   12SAPS   O22 1488   2.363   5.589   6.554  0.0568  0.4388  0.1450
   12SAPS   C22 1489   2.582   5.590   6.656 -0.3584 -0.1098  0.5927
   12SAPS   H2R 1490   2.654   5.506   6.658  0.4141  0.5653  1.4184
   12SAPS   H2S 1491   2.649   5.676   6.632 -0.3036 -0.0748  0.8678
   12SAPS    C3 1492   2.402   5.320   6.401 -0.3550  0.3965 -0.1172
   12SAPS    HX 1493   2.364   5.267   6.310  1.1855  0.8012 -1.0325
   12SAPS    HY 1494   2.316   5.364   6.456 -1.6242 -1.5655 -0.4218
   12SAPS   O31 1495   2.488   5.227   6.478  0.1468 -0.3117  0.0640
   12SAPS   C31 1496   2.479   5.211   6.608 -0.3371 -0.2925 -0.0191
   12SAPS   O32 1497   2.397   5.267   6.682 -0.0069  0.3000 -0.4433
   12SAPS   C32 1498   2.595   5.112   6.656  0.6220  0.4104 -0.4851
   12SAPS   H2X 1499   2.581   5.029   6.584 -0.0622  0.6905 -0.6810
   12SAPS   H2Y 1500   2.563   5.068   6.752 -0.7502 -2.3961 -2.1016
   12SAPS   C23 1501   2.523   5.599   6.797  0.3054 -0.0411  0.7169
   12SAPS   H3R 1502   2.467   5.507   6.822  1.3028 -0.4564  1.5346
   12SAPS   H3S 1503   2.443   5.675   6.786  2.4163  2.4488  1.2749
   12SAPS   C24 1504   2.632   5.620   6.906 -0.3519 -0.1437  0.6458
   12SAPS   H4R 1505   2.690   5.525   6.913  2.5600  1.3651 -0.9781
   12SAPS   H4S 1506   2.589   5.636   7.007 -1.8014  0.2174 -0.0071
   12SAPS   C25 1507   2.737   5.722   6.876 -0.1782  0.1769  0.3913
   12SAPS   H5R 1508   2.710   5.791   6.795  0.6684  0.1963  0.1151
   12SAPS   C26 1509   2.861   5.731   6.938 -0.3473  0.2325 -0.0190
   12SAPS   H6R 1510   2.928   5.815   6.917 -0.4070  0.1617 -0.5036
   12SAPS   C27 1511   2.894   5.640   7.050  0.4597 -0.6498 -0.1361
   12SAPS   H7R 1512   2.938   5.556   6.992 -0.1690 -1.1370  0.0870
   12SAPS   H7S 1513   2.808   5.589   7.098 -0.4269 -0.3064 -1.2828
   12SAPS   C28 1514   2.990   5.686   7.158  0.3525  0.1583  0.5752
   12SAPS   H8R 1515   3.093   5.696   7.121  0.8521  3.3013  2.4820
   12SAPS   C29 1516   2.956   5.734   7.282 -0.8018 -0.1515  0.3328
   12SAPS   H9R 1517   3.038   5.776   7.342  2.1203  0.7494 -3.9082
   12SAPS  C210 1518   2.817   5.750   7.331  0.3332 -0.1713 -0.2436
   12SAPS  H10R 1519   2.742   5.767   7.251 -0.5584  1.5379  0.8801
   12SAPS  H10S 1520   2.804   5.847   7.385 -2.8089 -0.5882 -0.0446
   12SAPS  C211 1521   2.767   5.654   7.435  0.1278 -0.3269 -0.6350
   12SAPS  H11R 1522   2.718   5.559   7.407 -1.9463  0.1060  1.2107
   12SAPS  C212 1523   2.782   5.673   7.567  0.0593 -0.2760 -0.3443
   12SAPS  H12R 1524   2.740   5.601   7.638 -2.7647  1.2447 -0.3321
   12SAPS  C213 1525   2.848   5.794   7.640 -0.0765  0.1422 -0.6178
   12SAPS  H13R 1526   2.772   5.860   7.685  0.9302  0.1974  1.0754
   12SAPS  H13S 1527   2.903   5.857   7.567 -0.2734  0.8799 -0.1401
   12SAPS  C214 1528   2.942   5.759   7.750 -0.1582  0.3876 -0.3760
   12SAPS  H14R 1529   3.047   5.781   7.725 -0.3847 -0.0069 -1.7510
   12SAPS  C215 1530   2.907   5.719   7.878 -0.3121 -0.7229  0.7185
   12SAPS  H15R 1531   2.985   5.720   7.956 -0.0700 -1.3759  0.4890
   12SAPS  C216 1532   2.773   5.697   7.939  0.3716 -0.6487  0.5295
   12SAPS  H16R 1533   2.739   5.592   7.930  1.1098 -0.7301 -2.6831
   12SAPS  H16S 1534   2.709   5.760   7.873 -0.4971 -0.8075  1.2071
   12SAPS  C217 1535   2.769   5.742   8.083  0.4829  0.4943 -0.3060
   12SAPS  H17R 1536   2.788   5.851   8.085  0.3922  0.5055  0.0246
   12SAPS  H17S 1537   2.846   5.690   8.143 -1.7947 -0.7914  1.6884
   12SAPS  C218 1538   2.637   5.714   8.161  0.1263  0.1466 -0.2340
   12SAPS  H18R 1539   2.595   5.612   8.146  0.0591  0.1344  0.0329
   12SAPS  H18S 1540   2.563   5.787   8.122  0.5433  1.2275  0.9465
   12SAPS  C219 1541   2.642   5.729   8.315  0.3552 -0.5816  0.4601
   12SAPS  H19R 1542   2.686   5.637   8.360 -2.2609 -1.2495  1.8754
   12SAPS  H19S 1543   2.534   5.735   8.340  0.8614  1.5485  2.4347
   12SAPS  C220 1544   2.709   5.857   8.357 -0.2908 -0.1105  0.3609
   12SAPS  H20R 1545   2.713   5.868   8.468 -1.1281 -0.6966  0.4623
   12SAPS  H20S 1546   2.659   5.946   8.315  0.0922  0.0022  0.1393
   12SAPS  H20T 1547   2.817   5.852   8.330 -0.7217 -0.4728 -1.4297
   12SAPS   C33 1548   2.736   5.169   6.662  0.4771  0.0749 -0.2519
   12SAPS   H3X 1549   2.765   5.223   6.569  1.8812 -0.2669 -0.0395
   12SAPS   H3Y 1550   2.812   5.088   6.669 -0.4754 -0.7994  0.4445
   12SAPS   C34 1551   2.756   5.271   6.776  0.1367 -0.0943  0.3276
   12SAPS   H4X 1552   2.672   5.342   6.796  0.1967  0.0214  0.1695
   12SAPS   H4Y 1553   2.843   5.335   6.750 -0.0685  0.4174  0.8768
   12SAPS   C35 1554   2.773   5.191   6.904 -0.5102  0.2623  1.4828
   12SAPS   H5X 1555   2.839   5.104   6.883  0.5341  1.3578 -0.0106
   12SAPS   H5Y 1556   2.681   5.140   6.939 -0.1216 -0.2923  1.7173
   12SAPS   C36 1557   2.839   5.277   7.007 -0.8328 -0.0098 -0.1861
   12SAPS   H6X 1558   2.788   5.374   7.030 -0.8800  0.0023 -0.3417
   12SAPS   H6Y 1559   2.942   5.293   6.968 -0.5577  2.4082  1.2889
   12SAPS   C37 1560   2.854   5.204   7.150 -0.8564  0.5174  0.1070
   12SAPS   H7X 1561   2.907   5.109   7.125 -3.4809 -0.3756 -2.5325
   12SAPS   H7Y 1562   2.757   5.173   7.195 -0.7903  0.3296  0.1240
   12SAPS   C38 1563   2.923   5.298   7.258  0.5072  0.4182  0.2036
   12SAPS   H8X 1564   2.857   5.386   7.270 -0.8791 -0.8319  2.7313
   12SAPS   H8Y 1565   3.010   5.326   7.196 -0.3284 -1.2173 -1.8536
   12SAPS   C39 1566   2.965   5.244   7.393  0.5586 -0.8205 -0.2528
   12SAPS   H9X 1567   3.018   5.321   7.452  1.0989 -0.5045 -1.1310
   12SAPS   H9Y 1568   3.027   5.152   7.379 -0.7276 -2.2635  2.7490
   12SAPS  C310 1569   2.854   5.178   7.469  0.2046 -0.1507  0.3343
   12SAPS  H10X 1570   2.825   5.082   7.419 -1.0520 -1.7069  3.7582
   12SAPS  H10Y 1571   2.762   5.239   7.475 -0.4436 -0.5841 -3.1303
   12SAPS  C311 1572   2.892   5.135   7.610 -0.3367 -0.4212  0.6581
   12SAPS  H11X 1573   2.985   5.073   7.613  0.3563  0.6051  0.8050
   12SAPS  H11Y 1574   2.807   5.071   7.642  0.2963 -0.1453  3.0753
   12SAPS  C312 1575   2.908   5.260   7.698 -0.2300  0.4732 -0.7508
   12SAPS  H12X 1576   2.832   5.339   7.685  0.4147  1.6111  1.8266
   12SAPS  H12Y 1577   3.009   5.303   7.680 -0.0879  1.2398  1.5254
   12SAPS  C313 1578   2.924   5.222   7.848 -1.1197  0.9341  0.4818
   12SAPS  H13X 1579   3.020   5.169   7.863 -0.3120  1.9840 -0.7812
   12SAPS  H13Y 1580   2.849   5.151   7.889 -0.7836 -0.6452 -1.5105
   12SAPS  C314 1581   2.928   5.335   7.945  0.6857  0.0535  0.4900
   12SAPS  H14X 1582   2.828   5.384   7.947  1.0449  0.7984  0.2922
   12SAPS  H14Y 1583   2.998   5.416   7.918 -0.3506  1.0440  0.7112
   12SAPS  C315 1584   2.973   5.275   8.083  0.1295 -0.6577  0.5410
   12SAPS  H15X 1585   3.073   5.229   8.079  0.4534  0.0951 -0.2853
   12SAPS  H15Y 1586   2.907   5.191   8.114 -0.0767 -0.8146 -0.2998
   12SAPS  C316 1587   2.973   5.382   8.198 -0.1249  0.5972 -0.3213
   12SAPS  H16X 1588   2.969   5.327   8.294  1.1604 -1.4747 -1.3680
   12SAPS  H16Y 1589   2.891   5.456   8.185  0.1795  0.8480 -0.8664
   12SAPS  C317 1590   3.100   5.452   8.196 -0.8129 -0.5189 -0.9483
   12SAPS  H17X 1591   3.113   5.508   8.101  0.9371  1.4878  0.3785
   12SAPS  H17Y 1592   3.191   5.391   8.210 -0.2197  0.9395  2.7272
   12SAPS  C318 1593   3.116   5.569   8.302  0.3365  0.6819  0.1061
   12SAPS  H18X 1594   3.094   5.531   8.404  0.0258 -1.2851 -0.6323
   12SAPS  H18Y 1595   3.042   5.646   8.271 -3.9517 -3.1338 -0.2114
   12SAPS  H18Z 1596   3.224   5.591   8.294  0.3420  0.0182 -2.4390
   13SAPS     N 1597   4.408   4.583   6.072  0.4477  0.4871 -0.2522
   13SAPS   HN1 1598   4.322   4.605   6.127  2.7953  2.6602  2.9272
   13SAPS   HN2 1599   4.475   4.607   6.148 -1.8526 -0.5444  2.2654
   13SAPS   HN3 1600   4.417   4.666   6.010 -0.8741  0.8801  0.0384
   13SAPS   C12 1601   4.417   4.454   5.999 -0.0524 -0.1502  0.1866
   13SAPS  H12A 1602   4.390   4.377   6.069 -0.3440 -0.7972 -0.6111
   13SAPS   C13 1603   4.325   4.437   5.868  0.4415 -0.2247  0.4149
   13SAPS  O13A 1604   4.244   4.535   5.842  0.0319  0.1262 -0.5023
   13SAPS  O13B 1605   4.320   4.330   5.802 -0.0506 -0.3600  0.7794
   13SAPS   C11 1606   4.561   4.437   5.954 -0.4547  0.6178  0.1152
   13SAPS  H11A 1607   4.579   4.526   5.890 -4.0958  1.2100 -0.3084
   13SAPS  H11B 1608   4.573   4.348   5.888  1.3022  0.4249  0.6584
   13SAPS     P 1609   4.675   4.296   6.143 -0.3240 -0.1849 -0.0900
   13SAPS   O13 1610   4.558   4.278   6.224  0.0576  0.2008 -0.0809
   13SAPS   O14 1611   4.718   4.197   6.041 -0.5122 -0.3337 -0.2156
   13SAPS   O12 1612   4.650   4.433   6.068  0.4197 -0.2898  0.2197
   13SAPS   O11 1613   4.794   4.336   6.239  0.0932  0.2573  0.6454
   13SAPS    C1 1614   4.786   4.462   6.314 -0.4292  0.4336 -0.3764
   13SAPS    HA 1615   4.872   4.523   6.279  1.0432 -1.5238 -0.3402
   13SAPS    HB 1616   4.691   4.519   6.316  0.6202  2.2875 -0.3880
   13SAPS    C2 1617   4.829   4.430   6.467 -0.0017 -0.0738  0.2629
   13SAPS    HS 1618   4.919   4.365   6.474 -0.3108 -0.7240 -1.3283
   13SAPS   O21 1619   4.719   4.384   6.543 -0.2266  0.1569 -0.1965
   13SAPS   C21 1620   4.703   4.253   6.535 -0.0139  0.5384  0.2872
   13SAPS   O22 1621   4.787   4.174   6.498  0.3265  0.4280  0.0397
   13SAPS   C22 1622   4.571   4.216   6.596  0.5953  0.1587 -0.7715
   13SAPS   H2R 1623   4.559   4.241   6.704 -0.1113  1.0081 -1.0380
   13SAPS   H2S 1624   4.501   4.276   6.534 -0.2180  1.1258  1.0017
   13SAPS    C3 1625   4.887   4.562   6.527 -0.4926  0.0252  0.1449
   13SAPS    HX 1626   4.803   4.634   6.521 -3.8069 -3.4014  1.5591
   13SAPS    HY 1627   4.969   4.600   6.461  0.4135 -1.2055  0.5037
   13SAPS   O31 1628   4.908   4.562   6.675 -0.5750 -0.4082 -0.1674
   13SAPS   C31 1629   5.015   4.493   6.716  0.4338  0.6880 -0.3947
   13SAPS   O32 1630   5.097   4.442   6.641 -0.1623 -0.2305 -0.2765
   13SAPS   C32 1631   5.008   4.470   6.867  0.0328  0.2248 -0.6676
   13SAPS   H2X 1632   4.899   4.468   6.889 -0.0517  0.4761 -1.0490
   13SAPS   H2Y 1633   5.037   4.567   6.914  0.2375 -0.8909  1.6854
   13SAPS   C23 1634   4.537   4.069   6.556 -0.4391 -0.4116  0.1057
   13SAPS   H3R 1635   4.620   4.005   6.592  0.9677  0.6228 -1.1916
   13SAPS   H3S 1636   4.556   4.060   6.447 -0.8296  0.0070 -0.0001
   13SAPS   C24 1637   4.395   4.038   6.599 -0.7032  1.0044  0.2747
   13SAPS   H4R 1638   4.327   4.109   6.548 -2.2147  1.0235  2.2028
   13SAPS   H4S 1639   4.389   4.073   6.705  0.7651 -1.0690  1.1246
   13SAPS   C25 1640   4.349   3.894   6.589  0.3522  0.2426  0.2644
   13SAPS   H5R 1641   4.312   3.863   6.490  3.4940 -0.9050 -0.6675
   13SAPS   C26 1642   4.355   3.802   6.682 -0.3539  0.4352 -0.2795
   13SAPS   H6R 1643   4.309   3.706   6.652  0.5929 -0.0200 -0.3066
   13SAPS   C27 1644   4.407   3.808   6.825 -0.3371 -0.0579 -0.1950
   13SAPS   H7R 1645   4.320   3.834   6.889  0.0992  0.9113  0.0333
   13SAPS   H7S 1646   4.490   3.882   6.826  1.0025 -1.5149  0.6189
   13SAPS   C28 1647   4.475   3.678   6.862 -0.0154 -0.1145  0.7467
   13SAPS   H8R 1648   4.540   3.641   6.782 -1.3259  1.5465 -1.1721
   13SAPS   C29 1649   4.480   3.632   6.985  0.3611  0.0368  0.5138
   13SAPS   H9R 1650   4.546   3.545   7.000  1.2997  0.7007  0.3325
   13SAPS  C210 1651   4.407   3.677   7.108 -0.5049  0.3189  0.0381
   13SAPS  H10R 1652   4.355   3.775   7.098 -0.2448  0.5897  1.1901
   13SAPS  H10S 1653   4.490   3.693   7.181  0.4843  0.4142 -1.0761
   13SAPS  C211 1654   4.303   3.573   7.141 -0.6751 -0.5032 -0.2959
   13SAPS  H11R 1655   4.283   3.498   7.063 -3.9916  0.8144 -0.8699
   13SAPS  C212 1656   4.248   3.552   7.259  0.5563  0.5585  0.0480
   13SAPS  H12R 1657   4.178   3.468   7.273 -1.2223  1.7012 -1.6230
   13SAPS  C213 1658   4.280   3.639   7.384  0.0885  0.0373  0.3011
   13SAPS  H13R 1659   4.236   3.741   7.379 -1.3255 -0.6050 -1.4069
   13SAPS  H13S 1660   4.390   3.650   7.394  0.1118  0.2667 -0.1648
   13SAPS  C214 1661   4.224   3.568   7.501  0.0473 -0.0523  0.1215
   13SAPS  H14R 1662   4.125   3.592   7.542  0.9730 -0.1170  2.5494
   13SAPS  C215 1663   4.270   3.458   7.559  0.4758  0.4417 -0.4173
   13SAPS  H15R 1664   4.215   3.410   7.642 -1.0098 -0.6966 -1.9730
   13SAPS  C216 1665   4.394   3.384   7.528 -0.1935  0.0013  0.1187
   13SAPS  H16R 1666   4.461   3.446   7.465  0.8204 -0.4218  0.7548
   13SAPS  H16S 1667   4.370   3.289   7.476 -1.5039 -0.0696  0.8226
   13SAPS  C217 1668   4.476   3.364   7.663  0.3148 -0.5010  0.1224
   13SAPS  H17R 1669   4.411   3.322   7.743 -0.7598  1.5175  0.3766
   13SAPS  H17S 1670   4.513   3.462   7.699  0.3682 -1.4025  2.7277
   13SAPS  C218 1671   4.611   3.277   7.658 -1.2296 -0.2451  0.4720
   13SAPS  H18R 1672   4.650   3.314   7.560  0.5427 -1.7382  0.5639
   13SAPS  H18S 1673   4.587   3.169   7.658 -2.1973 -0.0443  0.9260
   13SAPS  C219 1674   4.701   3.310   7.776  0.1888 -0.1535  0.5346
   13SAPS  H19R 1675   4.730   3.418   7.776  0.5335 -0.2413  0.2131
   13SAPS  H19S 1676   4.791   3.245   7.770 -0.0592 -0.4305 -0.2943
   13SAPS  C220 1677   4.636   3.271   7.907  0.1647 -0.1279 -0.0072
   13SAPS  H20R 1678   4.618   3.162   7.916 -0.7670 -0.0233 -0.4591
   13SAPS  H20S 1679   4.536   3.319   7.916 -0.5604 -1.5716 -0.1433
   13SAPS  H20T 1680   4.700   3.303   7.992  1.7355 -1.6865 -0.5481
   13SAPS   C33 1681   5.085   4.346   6.910 -0.3542 -0.1884 -0.5342
   13SAPS   H3X 1682   5.190   4.349   6.873 -0.6787 -1.6461 -1.6873
   13SAPS   H3Y 1683   5.054   4.247   6.870  1.8332 -1.4793  0.7275
   13SAPS   C34 1684   5.092   4.345   7.061 -0.2959  0.7989  0.0731
   13SAPS   H4X 1685   4.988   4.340   7.101 -0.3267  1.4376  0.0893
   13SAPS   H4Y 1686   5.139   4.437   7.101  0.6928  1.4280 -2.3541
   13SAPS   C35 1687   5.166   4.215   7.104  0.3754  0.1067 -0.2022
   13SAPS   H5X 1688   5.272   4.242   7.085  0.9457 -1.1169  1.0597
   13SAPS   H5Y 1689   5.137   4.121   7.052  1.6497  0.2806 -1.3165
   13SAPS   C36 1690   5.149   4.200   7.256 -0.0287  0.1389  0.1314
   13SAPS   H6X 1691   5.209   4.110   7.283  0.5808  0.8005  1.0360
   13SAPS   H6Y 1692   5.041   4.189   7.280  0.1069 -0.4412  0.5000
   13SAPS   C37 1693   5.198   4.315   7.339  0.2397 -0.5702 -0.6208
   13SAPS   H7X 1694   5.130   4.403   7.341  1.9986  0.8913 -1.7840
   13SAPS   H7Y 1695   5.293   4.354   7.298 -0.4463  1.5175 -0.3459
   13SAPS   C38 1696   5.210   4.277   7.482 -0.1194  0.1279  0.4331
   13SAPS   H8X 1697   5.271   4.185   7.496  2.4244  1.9603  2.3022
   13SAPS   H8Y 1698   5.107   4.262   7.519 -0.5731 -2.9161 -1.7075
   13SAPS   C39 1699   5.285   4.384   7.570 -0.7526  0.2554  0.6422
   13SAPS   H9X 1700   5.253   4.490   7.561 -0.5098  0.2348 -0.5721
   13SAPS   H9Y 1701   5.389   4.383   7.530 -0.5793  0.0601  1.0898
   13SAPS  C310 1702   5.281   4.350   7.720 -0.0918  0.4124 -0.1755
   13SAPS  H10X 1703   5.330   4.251   7.728 -1.1565 -0.0565  0.7798
   13SAPS  H10Y 1704   5.176   4.338   7.754  0.5257 -2.3698  0.9806
   13SAPS  C311 1705   5.358   4.452   7.803 -0.2467  0.2371  0.2939
   13SAPS  H11X 1706   5.425   4.516   7.742 -1.2137  3.2894  2.2206
   13SAPS  H11Y 1707   5.433   4.414   7.876 -0.5496  0.4744  0.7289
   13SAPS  C312 1708   5.270   4.554   7.879 -0.3963 -0.3885 -0.3306
   13SAPS  H12X 1709   5.207   4.496   7.949  1.6020 -1.5378  0.6129
   13SAPS  H12Y 1710   5.197   4.615   7.822 -2.1931 -0.5534  1.6959
   13SAPS  C313 1711   5.345   4.643   7.976  0.1976 -0.4742  0.6835
   13SAPS  H13X 1712   5.410   4.716   7.922  2.4053 -1.6967  1.5240
   13SAPS  H13Y 1713   5.407   4.583   8.046  0.7344 -2.4328 -1.3368
   13SAPS  C314 1714   5.242   4.732   8.053 -0.2406  0.6061 -0.1343
   13SAPS  H14X 1715   5.164   4.668   8.099  1.1673 -1.4771 -0.4870
   13SAPS  H14Y 1716   5.176   4.793   7.988 -1.6302  0.1808  0.8360
   13SAPS  C315 1717   5.309   4.817   8.160 -0.3889  0.2576 -0.3646
   13SAPS  H15X 1718   5.357   4.746   8.231  0.9264 -0.9661 -2.3827
   13SAPS  H15Y 1719   5.220   4.855   8.216 -0.0990  1.3869 -0.6337
   13SAPS  C316 1720   5.407   4.926   8.120 -0.0328 -0.4531  1.1587
   13SAPS  H16X 1721   5.498   4.887   8.070  0.5253  0.8323  1.1435
   13SAPS  H16Y 1722   5.436   4.976   8.214  1.3487  0.3651  0.3418
   13SAPS  C317 1723   5.349   5.030   8.027 -0.0935 -0.6474  0.9424
   13SAPS  H17X 1724   5.257   5.077   8.067 -0.7161 -0.6261 -0.4368
   13SAPS  H17Y 1725   5.323   4.978   7.932  0.3153  1.3773 -0.3432
   13SAPS  C318 1726   5.456   5.135   8.002  0.7460 -0.8031 -0.2741
   13SAPS  H18X 1727   5.511   5.162   8.095 -1.4528  1.2522  0.5434
   13SAPS  H18Y 1728   5.398   5.223   7.966 -0.6868 -1.8636 -0.6697
   13SAPS  H18Z 1729   5.526   5.104   7.923 -1.2559 -1.2045 -1.9879
   14SAPS     N 1730   2.419   6.592   5.863  0.2059 -0.3800 -0.5008
   14SAPS   HN1 1731   2.419   6.684   5.912 -1.5164 -0.6258  0.0350
   14SAPS   HN2 1732   2.332   6.590   5.806 -0.4934  2.7033  0.2378
   14SAPS   HN3 1733   2.413   6.517   5.934 -2.0575  0.8376  0.7098
   14SAPS   C12 1734   2.543   6.581   5.783 -0.9596 -0.4904  0.2082
   14SAPS  H12A 1735   2.625   6.574   5.852 -0.4714 -1.4128 -0.4443
   14SAPS   C13 1736   2.557   6.469   5.680 -0.3646  0.7915 -0.6154
   14SAPS  O13A 1737   2.478   6.371   5.678 -0.6686 -0.1948 -0.4181
   14SAPS  O13B 1738   2.675   6.453   5.637 -0.1021 -0.4169  0.1467
   14SAPS   C11 1739   2.571   6.714   5.710  0.2604 -0.3623  0.0670
   14SAPS  H11A 1740   2.482   6.740   5.649 -1.7611 -1.8317  2.1683
   14SAPS  H11B 1741   2.660   6.712   5.644 -0.9475  1.9509 -1.7649
   14SAPS     P 1742   2.659   6.950   5.763 -0.1732 -0.2066 -0.1503
   14SAPS   O13 1743   2.803   6.927   5.755  0.5320 -0.6920  0.0833
   14SAPS   O14 1744   2.596   7.002   5.642  0.1348 -0.1861  0.7594
   14SAPS   O12 1745   2.580   6.818   5.805  0.2492 -0.3245  0.2642
   14SAPS   O11 1746   2.631   7.056   5.880  0.1115  0.5070  0.3030
   14SAPS    C1 1747   2.507   7.054   5.951  0.2241  0.2104 -0.1449
   14SAPS    HA 1748   2.423   7.089   5.888 -0.9495  0.7588  1.6451
   14SAPS    HB 1749   2.474   6.955   5.988 -1.1668  0.3675 -0.9113
   14SAPS    C2 1750   2.520   7.145   6.075  0.5542  0.2171  0.0422
   14SAPS    HS 1751   2.524   7.249   6.038 -2.4064  0.0273 -1.0994
   14SAPS   O21 1752   2.625   7.100   6.166  0.1868 -0.3334  0.6362
   14SAPS   C21 1753   2.662   7.177   6.258 -0.3188 -0.9496  0.0466
   14SAPS   O22 1754   2.619   7.292   6.285  0.0369  0.2565  0.3191
   14SAPS   C22 1755   2.774   7.107   6.337 -0.4457 -0.2996 -0.0367
   14SAPS   H2R 1756   2.787   7.006   6.294  0.2336  0.5965 -2.0808
   14SAPS   H2S 1757   2.865   7.170   6.333 -0.5775  0.1309  2.2271
   14SAPS    C3 1758   2.378   7.164   6.144 -0.9874  0.0497  0.5286
   14SAPS    HX 1759   2.309   7.196   6.063  0.8929  0.6213 -0.9254
   14SAPS    HY 1760   2.387   7.248   6.215  1.1162  0.4594 -0.1616
   14SAPS   O31 1761   2.343   7.038   6.212  0.0285  0.0755 -0.7380
   14SAPS   C31 1762   2.223   7.042   6.269  0.0292  0.4149  0.0822
   14SAPS   O32 1763   2.141   7.129   6.269 -0.1381  0.1500 -0.0351
   14SAPS   C32 1764   2.203   6.910   6.344 -0.0490  0.4514  0.2546
   14SAPS   H2X 1765   2.288   6.882   6.410 -0.7562 -0.1847  0.9214
   14SAPS   H2Y 1766   2.194   6.825   6.272  1.3597  0.6251 -0.1456
   14SAPS   C23 1767   2.741   7.100   6.487 -0.8148 -0.1709  0.6482
   14SAPS   H3R 1768   2.635   7.074   6.504 -1.6067  2.4122  0.0260
   14SAPS   H3S 1769   2.762   7.199   6.533  1.1150 -0.5713  0.7189
   14SAPS   C24 1770   2.830   7.008   6.574  0.8510 -0.2015 -0.2342
   14SAPS   H4R 1771   2.793   6.910   6.536 -0.1824  0.0948 -0.0033
   14SAPS   H4S 1772   2.805   7.022   6.681 -1.8634 -1.0263 -0.6870
   14SAPS   C25 1773   2.977   7.031   6.555  0.0429  0.0220  0.7968
   14SAPS   H5R 1774   3.016   7.051   6.454  0.5732 -0.5230  0.8872
   14SAPS   C26 1775   3.074   7.015   6.655 -0.3426 -0.4976 -0.3295
   14SAPS   H6R 1776   3.182   7.024   6.635 -0.2064  2.1820  1.1309
   14SAPS   C27 1777   3.047   6.973   6.799 -0.2093  0.1793 -0.6412
   14SAPS   H7R 1778   3.060   6.863   6.803  0.2136  0.2465  0.1773
   14SAPS   H7S 1779   2.945   6.984   6.841  0.1752 -1.8293  0.9778
   14SAPS   C28 1780   3.148   7.041   6.892  0.4732 -0.0511  0.3868
   14SAPS   H8R 1781   3.211   7.121   6.852 -2.2310  1.0394 -2.0422
   14SAPS   C29 1782   3.165   7.018   7.021  0.4788  0.0118  0.7216
   14SAPS   H9R 1783   3.252   7.066   7.068  0.7436 -0.1104  0.3626
   14SAPS  C210 1784   3.075   6.915   7.090 -0.3695 -0.3780 -0.3191
   14SAPS  H10R 1785   3.061   6.824   7.029 -1.1642 -0.6206  0.2155
   14SAPS  H10S 1786   2.981   6.973   7.091 -0.8651 -0.9760 -3.4400
   14SAPS  C211 1787   3.130   6.882   7.224  0.6131 -0.0871  0.2541
   14SAPS  H11R 1788   3.233   6.844   7.221  0.3427 -0.9203  1.1333
   14SAPS  C212 1789   3.062   6.899   7.344 -0.1908  0.4884  0.0034
   14SAPS  H12R 1790   3.104   6.853   7.435 -0.4777  0.7903  0.2924
   14SAPS  C213 1791   2.921   6.951   7.368 -1.0141 -0.2199  0.2135
   14SAPS  H13R 1792   2.867   6.987   7.278  0.3340  1.9573  0.1927
   14SAPS  H13S 1793   2.940   7.043   7.428 -0.0517 -0.7356  0.7154
   14SAPS  C214 1794   2.825   6.871   7.457  1.0203 -0.1671 -0.2967
   14SAPS  H14R 1795   2.763   6.803   7.397 -0.5738 -1.3880  2.5291
   14SAPS  C215 1796   2.810   6.883   7.594  0.5665 -0.2285  0.0277
   14SAPS  H15R 1797   2.735   6.819   7.643  0.8704  0.4484  1.4476
   14SAPS  C216 1798   2.871   6.970   7.693 -0.7102 -0.3118 -1.0097
   14SAPS  H16R 1799   2.885   7.064   7.635 -0.6610  0.4068  0.1454
   14SAPS  H16S 1800   2.971   6.929   7.717  0.6166  2.4387 -1.4882
   14SAPS  C217 1801   2.800   6.997   7.822  0.8904  0.4562 -0.7012
   14SAPS  H17R 1802   2.779   6.903   7.876 -3.0001  0.4720 -1.8884
   14SAPS  H17S 1803   2.695   7.024   7.801  0.2440 -1.1548  0.3331
   14SAPS  C218 1804   2.864   7.101   7.917 -0.3743  0.7568 -0.1676
   14SAPS  H18R 1805   2.827   7.195   7.871 -0.2816  0.7416 -0.2727
   14SAPS  H18S 1806   2.974   7.109   7.906 -0.2317 -1.1515 -0.4352
   14SAPS  C219 1807   2.825   7.097   8.064  0.2733  0.0994  0.6516
   14SAPS  H19R 1808   2.890   7.159   8.129 -1.2092  1.0666  1.2571
   14SAPS  H19S 1809   2.860   7.002   8.110  0.2952 -0.8423 -1.2214
   14SAPS  C220 1810   2.676   7.104   8.102 -0.0590 -0.3090 -0.4906
   14SAPS  H20R 1811   2.599   7.073   8.028 -1.0071 -0.1049  0.3868
   14SAPS  H20S 1812   2.654   7.211   8.123 -1.9991 -0.3600 -1.9293
   14SAPS  H20T 1813   2.655   7.050   8.197  0.0359  1.3622  0.5210
   14SAPS   C33 1814   2.066   6.918   6.416  0.2489 -0.2113 -0.3243
   14SAPS   H3X 1815   1.987   6.931   6.339  0.4274 -0.7955 -0.6127
   14SAPS   H3Y 1816   2.069   7.011   6.476 -0.6112  0.2979 -1.0452
   14SAPS   C34 1817   2.048   6.801   6.516  0.3980  0.6278 -0.0638
   14SAPS   H4X 1818   2.050   6.703   6.465 -0.0536 -0.9703  2.8097
   14SAPS   H4Y 1819   1.953   6.819   6.572  2.4095  0.0977  3.8269
   14SAPS   C35 1820   2.151   6.813   6.630 -0.2554 -0.0493 -0.1022
   14SAPS   H5X 1821   2.134   6.909   6.684 -0.0382  0.0991 -0.2913
   14SAPS   H5Y 1822   2.256   6.819   6.593  0.0650  1.6570  0.9696
   14SAPS   C36 1823   2.146   6.698   6.730 -0.7540 -0.7601 -0.3834
   14SAPS   H6X 1824   2.158   6.602   6.674 -0.5130 -0.4795 -0.8232
   14SAPS   H6Y 1825   2.046   6.702   6.778 -0.5119  0.3807  0.0539
   14SAPS   C37 1826   2.252   6.713   6.838 -0.3553  0.1799  0.3793
   14SAPS   H7X 1827   2.242   6.809   6.892 -1.0779 -0.0371  0.6320
   14SAPS   H7Y 1828   2.354   6.720   6.794 -0.1972  2.1321  0.9705
   14SAPS   C38 1829   2.249   6.602   6.940 -0.0980  0.2643  0.4914
   14SAPS   H8X 1830   2.344   6.586   6.996  1.0354  2.2332 -0.7637
   14SAPS   H8Y 1831   2.216   6.513   6.882 -1.3008  0.5449  0.7064
   14SAPS   C39 1832   2.140   6.638   7.047  0.5475 -0.2325 -0.2102
   14SAPS   H9X 1833   2.046   6.667   6.995  0.5686  0.1732 -0.0274
   14SAPS   H9Y 1834   2.179   6.735   7.085  0.1862  0.0355 -0.5098
   14SAPS  C310 1835   2.123   6.542   7.165  0.0862 -0.1536  0.9062
   14SAPS  H10X 1836   2.209   6.488   7.210  0.0576 -0.2088  0.8943
   14SAPS  H10Y 1837   2.062   6.455   7.134 -1.0050 -0.2138  3.0394
   14SAPS  C311 1838   2.044   6.584   7.289 -0.6565  0.5280 -0.0372
   14SAPS  H11X 1839   1.941   6.610   7.256 -0.9196  0.7111  0.8997
   14SAPS  H11Y 1840   2.097   6.670   7.335 -0.2487  1.2672 -1.8040
   14SAPS  C312 1841   2.023   6.479   7.398 -0.3193  0.1588  1.0239
   14SAPS  H12X 1842   2.121   6.433   7.420 -0.1173 -0.2955 -0.6699
   14SAPS  H12Y 1843   1.962   6.389   7.374  0.6483  0.2988 -2.5839
   14SAPS  C313 1844   1.967   6.541   7.525  0.9731  0.3306 -0.4744
   14SAPS  H13X 1845   1.875   6.590   7.488 -0.0813 -0.9211  0.4342
   14SAPS  H13Y 1846   2.033   6.617   7.571  0.8822  0.8362 -1.1619
   14SAPS  C314 1847   1.913   6.434   7.624 -0.2651  0.0161 -0.3289
   14SAPS  H14X 1848   1.999   6.385   7.674 -1.3874 -0.2418  1.4298
   14SAPS  H14Y 1849   1.852   6.364   7.564  1.5771  0.3562 -2.7430
   14SAPS  C315 1850   1.819   6.491   7.721 -0.4550  0.1344  0.1397
   14SAPS  H15X 1851   1.731   6.533   7.668 -0.3333  0.7079  0.3812
   14SAPS  H15Y 1852   1.860   6.579   7.775  1.1435  0.3947 -1.4043
   14SAPS  C316 1853   1.751   6.402   7.823 -0.4729  0.1836  0.5363
   14SAPS  H16X 1854   1.832   6.336   7.863  2.5575  2.5897 -1.1811
   14SAPS  H16Y 1855   1.670   6.339   7.781 -1.9560  1.9003  0.7131
   14SAPS  C317 1856   1.685   6.494   7.925  0.5556 -0.3764 -0.1535
   14SAPS  H17X 1857   1.612   6.554   7.867  2.0013 -0.0695 -1.7594
   14SAPS  H17Y 1858   1.757   6.563   7.976  2.2598 -3.5142  1.9980
   14SAPS  C318 1859   1.605   6.419   8.028  0.1630  0.7560 -0.1876
   14SAPS  H18X 1860   1.677   6.371   8.098 -1.2325 -0.6821  0.3362
   14SAPS  H18Y 1861   1.553   6.328   7.989  1.2028 -0.7296  1.6831
   14SAPS  H18Z 1862   1.534   6.481   8.087  0.8587  1.3776  0.0132
   15SAPS     N 1863   3.131   5.433   6.004  0.0539 -0.4221 -0.9155
   15SAPS   HN1 1864   3.214   5.431   6.066 -0.1957  0.3894 -0.5510
   15SAPS   HN2 1865   3.108   5.533   5.992  0.2043 -0.0620  1.3830
   15SAPS   HN3 1866   3.054   5.383   6.053  1.0124 -0.9451  0.1011
   15SAPS   C12 1867   3.172   5.375   5.871 -0.5072  0.3098 -0.5579
   15SAPS  H12A 1868   3.077   5.374   5.820 -1.3906 -0.3816  1.0220
   15SAPS   C13 1869   3.277   5.444   5.795  1.0332  0.3902  0.0889
   15SAPS  O13A 1870   3.340   5.536   5.851 -0.1284  0.4595  0.2112
   15SAPS  O13B 1871   3.309   5.401   5.685  0.4153  0.1036 -0.6946
   15SAPS   C11 1872   3.214   5.223   5.879 -0.1397 -0.2823 -0.3582
   15SAPS  H11A 1873   3.309   5.223   5.935 -1.4362 -1.0454  1.9664
   15SAPS  H11B 1874   3.224   5.172   5.780 -0.9101 -1.0417 -0.0613
   15SAPS     P 1875   3.168   5.005   6.014  0.1461  0.4349 -0.0598
   15SAPS   O13 1876   3.050   4.968   6.086  0.7574 -0.2385 -0.7325
   15SAPS   O14 1877   3.222   4.899   5.920 -0.0580 -0.0834 -0.4918
   15SAPS   O12 1878   3.121   5.144   5.949 -0.0422  0.6476  0.1605
   15SAPS   O11 1879   3.282   5.043   6.110  0.0354 -0.6245  0.0895
   15SAPS    C1 1880   3.300   5.147   6.197 -0.0762 -0.0270  0.3938
   15SAPS    HA 1881   3.394   5.192   6.157  0.3002 -0.2667  1.0025
   15SAPS    HB 1882   3.207   5.208   6.202 -1.6914 -2.2942 -0.0888
   15SAPS    C2 1883   3.328   5.098   6.338  0.0100 -0.0170  0.1977
   15SAPS    HS 1884   3.403   5.017   6.331  0.4268  0.4231 -0.4985
   15SAPS   O21 1885   3.202   5.057   6.395 -0.1178  0.6045 -0.2485
   15SAPS   C21 1886   3.207   4.939   6.446 -0.7091  0.1572  1.1137
   15SAPS   O22 1887   3.298   4.857   6.437  0.6512 -0.2014  0.7622
   15SAPS   C22 1888   3.077   4.926   6.534  0.1276  0.1914 -0.0836
   15SAPS   H2R 1889   2.992   4.959   6.470  1.0989 -0.5478 -1.8440
   15SAPS   H2S 1890   3.063   4.818   6.557 -2.3588 -0.2659 -3.0000
   15SAPS    C3 1891   3.374   5.210   6.435 -0.0608 -0.4528 -0.7497
   15SAPS    HX 1892   3.281   5.272   6.439  0.2318  0.1097 -2.2151
   15SAPS    HY 1893   3.443   5.286   6.395  0.7207 -1.7139 -1.8742
   15SAPS   O31 1894   3.406   5.165   6.569  0.1693  0.1549  0.1417
   15SAPS   C31 1895   3.531   5.111   6.573  0.8598  0.4993  0.6993
   15SAPS   O32 1896   3.599   5.100   6.476 -0.5905  0.1056  0.0129
   15SAPS   C32 1897   3.572   5.077   6.716 -0.2938  0.6692  0.1678
   15SAPS   H2X 1898   3.504   4.999   6.758 -1.3588  0.8195 -1.2030
   15SAPS   H2Y 1899   3.557   5.164   6.782 -0.3752 -0.4058  1.6237
   15SAPS   C23 1900   3.107   4.993   6.666  0.1044  0.6359 -0.6284
   15SAPS   H3R 1901   3.020   5.002   6.734  1.5770  1.0383  1.3018
   15SAPS   H3S 1902   3.143   5.095   6.644  0.9397  1.0276  2.0793
   15SAPS   C24 1903   3.215   4.930   6.762  0.4727 -0.5086 -0.0737
   15SAPS   H4R 1904   3.223   4.993   6.853 -1.3453  1.0694 -0.9211
   15SAPS   H4S 1905   3.305   4.950   6.700  1.3679  0.8929  1.6039
   15SAPS   C25 1906   3.191   4.783   6.801  0.1520  0.1305  0.0778
   15SAPS   H5R 1907   3.121   4.723   6.741  0.5611 -1.9706  1.5741
   15SAPS   C26 1908   3.227   4.731   6.921 -0.6066 -0.7576  0.3127
   15SAPS   H6R 1909   3.198   4.628   6.946 -2.6411 -0.6101 -1.2305
   15SAPS   C27 1910   3.303   4.809   7.029 -0.0648  0.6557  0.0370
   15SAPS   H7R 1911   3.365   4.889   6.983  2.4301 -1.4269 -0.4523
   15SAPS   H7S 1912   3.374   4.739   7.076  1.0167  0.5897 -1.6224
   15SAPS   C28 1913   3.207   4.873   7.126 -0.4109 -0.1780  0.0283
   15SAPS   H8R 1914   3.155   4.967   7.102 -0.7355  0.9093  4.1129
   15SAPS   C29 1915   3.206   4.825   7.257  0.2530  0.4282 -0.4983
   15SAPS   H9R 1916   3.127   4.867   7.321  1.3864 -0.2880  1.4620
   15SAPS  C210 1917   3.286   4.710   7.318 -0.3657 -0.3373  0.4745
   15SAPS  H10R 1918   3.312   4.632   7.244 -2.8628 -0.0400 -0.8236
   15SAPS  H10S 1919   3.216   4.652   7.383  0.5811 -1.3403  0.6414
   15SAPS  C211 1920   3.405   4.746   7.404 -0.1018 -0.6395  0.0164
   15SAPS  H11R 1921   3.508   4.733   7.367 -0.5467 -0.0583 -1.4729
   15SAPS  C212 1922   3.389   4.789   7.536  0.0204  0.0975  0.5328
   15SAPS  H12R 1923   3.480   4.803   7.597  1.6025  2.4478 -2.0890
   15SAPS  C213 1924   3.256   4.801   7.608 -0.2801 -0.4516  0.2588
   15SAPS  H13R 1925   3.193   4.862   7.540  0.1771  1.4704  1.4780
   15SAPS  H13S 1926   3.266   4.873   7.691 -1.7667  1.3042 -0.9980
   15SAPS  C214 1927   3.198   4.668   7.649 -0.7468 -0.0094 -0.6235
   15SAPS  H14R 1928   3.177   4.598   7.567 -0.8947 -0.3308 -0.3129
   15SAPS  C215 1929   3.184   4.626   7.777 -0.4538  0.0673 -0.6841
   15SAPS  H15R 1930   3.144   4.526   7.801  0.7275 -0.2282  0.1661
   15SAPS  C216 1931   3.228   4.708   7.901 -0.3044 -0.2123 -0.1075
   15SAPS  H16R 1932   3.268   4.809   7.877 -0.4014  0.2537  1.6142
   15SAPS  H16S 1933   3.321   4.673   7.952 -1.0765 -2.2686 -0.0439
   15SAPS  C217 1934   3.118   4.718   8.009 -0.0036 -0.2027  0.9375
   15SAPS  H17R 1935   3.024   4.766   7.973  0.4970  0.0972  0.0216
   15SAPS  H17S 1936   3.149   4.792   8.086  1.8375 -1.7314  1.7391
   15SAPS  C218 1937   3.076   4.592   8.085 -0.2402  0.4591  0.1230
   15SAPS  H18R 1938   3.019   4.527   8.016  1.4633 -1.5597  0.5137
   15SAPS  H18S 1939   3.009   4.623   8.168 -1.1871 -0.7270 -0.1818
   15SAPS  C219 1940   3.197   4.513   8.140 -0.5027  0.6113  0.1931
   15SAPS  H19R 1941   3.283   4.583   8.150  0.4606 -0.5760  0.4025
   15SAPS  H19S 1942   3.228   4.430   8.073 -1.6481  1.7990 -1.9382
   15SAPS  C220 1943   3.171   4.452   8.272 -0.5681 -0.3217 -0.0727
   15SAPS  H20R 1944   3.246   4.386   8.320  0.1155  1.0033  0.7180
   15SAPS  H20S 1945   3.072   4.401   8.276 -3.7409  4.9161 -1.4438
   15SAPS  H20T 1946   3.158   4.536   8.344  1.7432  1.2127 -1.3337
   15SAPS   C33 1947   3.719   5.019   6.716  0.3621 -0.1771 -0.3110
   15SAPS   H3X 1948   3.788   5.104   6.696  1.2681 -0.7392  0.3187
   15SAPS   H3Y 1949   3.716   4.952   6.627  0.8649  0.5453 -0.8817
   15SAPS   C34 1950   3.758   4.939   6.835 -0.1750 -0.2896 -0.4768
   15SAPS   H4X 1951   3.865   4.912   6.824 -0.1718 -0.9444  0.8853
   15SAPS   H4Y 1952   3.694   4.848   6.840 -2.1194  1.0513  0.0937
   15SAPS   C35 1953   3.741   5.013   6.965  0.7517  0.2016 -0.2968
   15SAPS   H5X 1954   3.637   5.045   6.988  1.3987  0.8825  1.9387
   15SAPS   H5Y 1955   3.806   5.102   6.956  2.3089 -0.9509 -0.8759
   15SAPS   C36 1956   3.772   4.929   7.091 -0.2160  0.5188 -0.2964
   15SAPS   H6X 1957   3.873   4.892   7.063  0.3445  0.3183  1.8383
   15SAPS   H6Y 1958   3.703   4.842   7.089  1.8396 -1.1832 -0.6232
   15SAPS   C37 1959   3.774   5.005   7.224 -0.1330 -0.2594  0.1334
   15SAPS   H7X 1960   3.673   5.050   7.238  0.0565  1.4495 -3.1049
   15SAPS   H7Y 1961   3.849   5.086   7.216  1.0695 -1.2844  0.5943
   15SAPS   C38 1962   3.783   4.909   7.343 -0.3491 -0.6419  0.0808
   15SAPS   H8X 1963   3.888   4.871   7.336 -1.0570 -2.7710  0.0821
   15SAPS   H8Y 1964   3.709   4.828   7.359  0.9226 -1.4841  2.3127
   15SAPS   C39 1965   3.790   4.980   7.487 -0.4106  0.6782  0.7444
   15SAPS   H9X 1966   3.693   5.033   7.499  0.4277  2.1882  1.2785
   15SAPS   H9Y 1967   3.878   5.049   7.494  0.4775 -0.2639 -0.7935
   15SAPS  C310 1968   3.794   4.876   7.599  0.0114 -0.3359 -0.0788
   15SAPS  H10X 1969   3.879   4.808   7.576  0.7844  0.5754 -0.0063
   15SAPS  H10Y 1970   3.702   4.815   7.601 -0.5948  0.4839 -1.4002
   15SAPS  C311 1971   3.816   4.941   7.734 -0.7286 -0.1202 -0.1474
   15SAPS  H11X 1972   3.899   5.013   7.724 -1.3601  0.9201  1.7392
   15SAPS  H11Y 1973   3.839   4.862   7.808 -0.4263 -1.0238 -1.1719
   15SAPS  C312 1974   3.691   5.022   7.765 -0.1807  0.2274  0.8335
   15SAPS  H12X 1975   3.600   4.973   7.725  0.4719  0.2002 -0.6939
   15SAPS  H12Y 1976   3.695   5.120   7.712 -2.1985 -1.0515 -1.9278
   15SAPS  C313 1977   3.661   5.040   7.918  0.3496  0.6752  0.4621
   15SAPS  H13X 1978   3.608   5.136   7.937  0.1318  0.3247  1.7457
   15SAPS  H13Y 1979   3.750   5.034   7.985  1.3437  2.3044 -0.6307
   15SAPS  C314 1980   3.552   4.943   7.970  0.2377 -1.0006 -0.1693
   15SAPS  H14X 1981   3.596   4.843   7.991  0.0536 -1.3478 -1.3792
   15SAPS  H14Y 1982   3.477   4.932   7.890 -1.0693  4.0525 -0.0030
   15SAPS  C315 1983   3.470   5.009   8.087  0.2181  0.0639  0.2453
   15SAPS  H15X 1984   3.378   4.951   8.108  0.7583 -0.6578  0.6513
   15SAPS  H15Y 1985   3.451   5.115   8.058  2.5864 -0.1040 -2.2637
   15SAPS  C316 1986   3.555   5.017   8.220  0.1511  0.0213 -0.6268
   15SAPS  H16X 1987   3.505   5.069   8.305 -0.0076 -1.8164  0.4440
   15SAPS  H16Y 1988   3.654   5.066   8.209  1.3515 -1.6982  1.6575
   15SAPS  C317 1989   3.595   4.876   8.276 -0.6746  0.1559  0.4755
   15SAPS  H17X 1990   3.674   4.824   8.219  0.5963  1.1511  1.2730
   15SAPS  H17Y 1991   3.511   4.803   8.274 -0.1460 -0.4478 -0.7056
   15SAPS  C318 1992   3.657   4.893   8.414  0.0713 -0.2120  0.2316
   15SAPS  H18X 1993   3.705   4.798   8.443 -0.0177  0.3318  2.4056
   15SAPS  H18Y 1994   3.575   4.916   8.487 -0.5494  0.4140 -0.6433
   15SAPS  H18Z 1995   3.737   4.970   8.405 -0.5588  0.3365 -0.8425
   16SAPS     N 1996   6.090   2.323   6.137 -0.0318  0.1421  0.2392
   16SAPS   HN1 1997   6.030   2.245   6.105 -0.2337  0.5427 -0.3768
   16SAPS   HN2 1998   6.178   2.315   6.083 -0.1115  1.2488 -0.0822
   16SAPS   HN3 1999   6.107   2.328   6.240 -0.2742  1.9693  0.2215
   16SAPS   C12 2000   6.021   2.456   6.101  0.0996  0.2544  0.9022
   16SAPS  H12A 2001   6.090   2.530   6.139 -0.3939  1.2126  0.0161
   16SAPS   C13 2002   6.018   2.482   5.947 -0.3620  0.0986  0.3014
   16SAPS  O13A 2003   6.038   2.387   5.869  0.1631 -0.3723 -0.1244
   16SAPS  O13B 2004   5.997   2.596   5.904  0.6309 -0.5184  0.4338
   16SAPS   C11 2005   5.887   2.471   6.170 -0.0248 -0.5076  0.0930
   16SAPS  H11A 2006   5.804   2.407   6.134 -0.9328 -0.0298  1.2720
   16SAPS  H11B 2007   5.857   2.576   6.151  1.7598 -0.4224 -2.9932
   16SAPS     P 2008   5.802   2.385   6.406  0.4444 -0.1826 -0.3830
   16SAPS   O13 2009   5.659   2.402   6.370 -0.4956  0.1208 -0.2819
   16SAPS   O14 2010   5.859   2.245   6.412 -0.1981 -0.1552 -0.2570
   16SAPS   O12 2011   5.899   2.469   6.312  0.1597  0.2477 -0.4721
   16SAPS   O11 2012   5.826   2.460   6.547  0.5709  0.0298  0.4777
   16SAPS    C1 2013   5.883   2.592   6.544 -0.1799  0.2704  0.2185
   16SAPS    HA 2014   5.987   2.589   6.582  1.2220 -0.4962 -3.2553
   16SAPS    HB 2015   5.871   2.644   6.447 -3.0408  1.8497  1.3012
   16SAPS    C2 2016   5.813   2.684   6.649 -0.6954  0.2547 -0.1914
   16SAPS    HS 2017   5.867   2.781   6.648  2.9700 -1.3905  3.4979
   16SAPS   O21 2018   5.830   2.623   6.784  0.6422  0.9210  0.4079
   16SAPS   C21 2019   5.938   2.652   6.859  0.0078  0.5246  0.1458
   16SAPS   O22 2020   6.027   2.723   6.821  0.1980  0.2150  0.1907
   16SAPS   C22 2021   5.937   2.583   6.996 -0.6523  0.1369 -0.6302
   16SAPS   H2R 2022   5.846   2.520   6.998  0.0475 -0.9115  1.6428
   16SAPS   H2S 2023   6.015   2.504   6.995 -1.3153 -1.0806  5.4894
   16SAPS    C3 2024   5.661   2.703   6.613 -0.6595 -0.0470 -0.4979
   16SAPS    HX 2025   5.616   2.601   6.608 -0.2766 -0.1716 -1.6492
   16SAPS    HY 2026   5.659   2.756   6.516 -2.9572  0.0574 -0.4483
   16SAPS   O31 2027   5.598   2.786   6.712  0.3907  0.4886  0.6329
   16SAPS   C31 2028   5.469   2.788   6.690  0.4157 -0.4702 -0.7792
   16SAPS   O32 2029   5.412   2.738   6.598 -0.2606  0.2106 -0.0309
   16SAPS   C32 2030   5.406   2.885   6.795 -1.4250  0.9036 -0.4963
   16SAPS   H2X 2031   5.355   2.967   6.741 -1.8533 -0.0300 -1.5611
   16SAPS   H2Y 2032   5.489   2.925   6.857 -0.7348 -2.0923  0.7159
   16SAPS   C23 2033   5.949   2.679   7.119 -0.4957  0.0906 -0.0414
   16SAPS   H3R 2034   5.864   2.750   7.128  0.4027  1.6076 -2.3654
   16SAPS   H3S 2035   6.038   2.744   7.103  1.0433 -1.5558  1.4701
   16SAPS   C24 2036   5.982   2.612   7.254  0.7374 -0.3632 -0.5563
   16SAPS   H4R 2037   6.048   2.683   7.308 -0.5305 -0.1800  0.8114
   16SAPS   H4S 2038   6.044   2.522   7.233  2.4373  0.5878  0.1520
   16SAPS   C25 2039   5.856   2.571   7.335  0.3831 -0.1783  0.2240
   16SAPS   H5R 2040   5.783   2.529   7.264  1.5122 -2.0346  0.0928
   16SAPS   C26 2041   5.826   2.592   7.470  0.4180 -0.1449  0.4509
   16SAPS   H6R 2042   5.737   2.543   7.513  2.0547 -3.4040  0.3966
   16SAPS   C27 2043   5.919   2.660   7.567  0.2836 -0.1049  0.3932
   16SAPS   H7R 2044   5.968   2.739   7.506  0.5156 -0.3475  0.2577
   16SAPS   H7S 2045   5.996   2.588   7.604  0.9696  0.1611 -0.4818
   16SAPS   C28 2046   5.849   2.726   7.687  0.5602  0.8084 -1.0518
   16SAPS   H8R 2047   5.762   2.788   7.660 -0.9802 -0.2114  1.2568
   16SAPS   C29 2048   5.887   2.726   7.820  0.1239  0.2867  0.1943
   16SAPS   H9R 2049   5.831   2.787   7.893 -2.2064 -1.5692  0.0679
   16SAPS  C210 2050   6.008   2.659   7.888  0.8690 -0.3398  0.0336
   16SAPS  H10R 2051   6.055   2.729   7.961 -2.4941  1.4811  0.6476
   16SAPS  H10S 2052   6.077   2.618   7.811 -0.2480 -1.0615 -0.5946
   16SAPS  C211 2053   5.948   2.536   7.956  0.0879 -0.4668 -0.7048
   16SAPS  H11R 2054   5.921   2.460   7.882  0.5233 -1.8357  0.4955
   16SAPS  C212 2055   5.934   2.512   8.086  0.7275 -0.4426  0.5223
   16SAPS  H12R 2056   5.879   2.424   8.122 -0.3774  0.7486  1.9104
   16SAPS  C213 2057   5.968   2.598   8.204  0.4989 -0.3726  0.2585
   16SAPS  H13R 2058   6.079   2.602   8.217  0.2880  2.3086  1.8776
   16SAPS  H13S 2059   5.942   2.543   8.297  2.2124 -1.0904  0.3683
   16SAPS  C214 2060   5.903   2.740   8.213 -0.1668 -0.3117  0.2089
   16SAPS  H14R 2061   5.921   2.813   8.133 -2.0026 -1.2368 -1.1173
   16SAPS  C215 2062   5.837   2.791   8.318  0.4671 -0.1942 -0.8097
   16SAPS  H15R 2063   5.789   2.889   8.329  0.6539 -0.3020  1.5490
   16SAPS  C216 2064   5.809   2.714   8.447 -0.6292  0.3925 -0.5760
   16SAPS  H16R 2065   5.784   2.787   8.527 -1.4761 -2.6104  2.1167
   16SAPS  H16S 2066   5.892   2.650   8.484 -1.7056  0.5979  2.3909
   16SAPS  C217 2067   5.674   2.641   8.437 -0.2281 -0.5345  0.4383
   16SAPS  H17R 2068   5.664   2.600   8.334  0.3037 -0.0172  0.1760
   16SAPS  H17S 2069   5.586   2.708   8.437 -1.3409 -1.9073 -0.9621
   16SAPS  C218 2070   5.646   2.534   8.543 -0.6707 -0.1531 -0.5682
   16SAPS  H18R 2071   5.716   2.448   8.537  1.0014  1.2280 -1.8281
   16SAPS  H18S 2072   5.542   2.500   8.526  0.6586 -3.6235 -2.8498
   16SAPS  C219 2073   5.676   2.587   8.689 -0.0670  0.0339  0.4899
   16SAPS  H19R 2074   5.786   2.603   8.697  0.3282  0.2462 -3.4581
   16SAPS  H19S 2075   5.651   2.505   8.759 -1.8969 -0.4355 -0.6691
   16SAPS  C220 2076   5.602   2.713   8.746 -0.3295  0.8307  0.2979
   16SAPS  H20R 2077   5.626   2.719   8.854 -1.4222  0.1073  0.5937
   16SAPS  H20S 2078   5.495   2.699   8.722 -0.8962  2.0620  1.9813
   16SAPS  H20T 2079   5.642   2.803   8.695  2.7026 -1.0614 -1.0226
   16SAPS   C33 2080   5.303   2.813   6.889 -0.1430 -0.3202  0.4526
   16SAPS   H3X 2081   5.225   2.776   6.819 -1.5937  1.8226  0.8193
   16SAPS   H3Y 2082   5.267   2.881   6.968  1.2739 -0.7711  1.5312
   16SAPS   C34 2083   5.353   2.695   6.965 -0.0353  0.2804 -0.3327
   16SAPS   H4X 2084   5.387   2.606   6.907 -0.1045 -2.2729  3.2156
   16SAPS   H4Y 2085   5.274   2.643   7.023  2.4106 -0.1042  2.9406
   16SAPS   C35 2086   5.478   2.729   7.052 -0.1648  0.3619  0.0935
   16SAPS   H5X 2087   5.557   2.762   6.982 -0.2610  1.6175  0.5581
   16SAPS   H5Y 2088   5.510   2.633   7.099  0.8469  0.7278  0.1678
   16SAPS   C36 2089   5.446   2.828   7.158  0.4533  0.2775 -0.1627
   16SAPS   H6X 2090   5.348   2.800   7.203  0.4076 -1.7248 -1.3769
   16SAPS   H6Y 2091   5.443   2.931   7.118  2.5195  0.5765  0.3110
   16SAPS   C37 2092   5.543   2.828   7.275  0.2788  0.0948  0.4131
   16SAPS   H7X 2093   5.638   2.880   7.250 -0.9946  3.4140  1.8881
   16SAPS   H7Y 2094   5.570   2.725   7.308  0.5065 -0.1383 -0.4731
   16SAPS   C38 2095   5.481   2.907   7.391  0.1951 -0.0797  0.0207
   16SAPS   H8X 2096   5.374   2.878   7.393  0.4258 -0.9868 -0.3792
   16SAPS   H8Y 2097   5.491   3.017   7.377 -0.2688 -0.0022  0.2813
   16SAPS   C39 2098   5.553   2.886   7.527  0.5747 -0.4086 -0.3012
   16SAPS   H9X 2099   5.642   2.950   7.541  1.3715 -1.4067 -0.6458
   16SAPS   H9Y 2100   5.591   2.781   7.527  0.6322 -0.3861 -0.0413
   16SAPS  C310 2101   5.459   2.893   7.654 -0.1888 -0.4357 -0.0373
   16SAPS  H10X 2102   5.398   2.800   7.642  1.6741 -1.9146  1.2972
   16SAPS  H10Y 2103   5.397   2.984   7.637 -0.4725 -0.2017  2.0512
   16SAPS  C311 2104   5.536   2.908   7.782  0.2301 -0.5212  0.4856
   16SAPS  H11X 2105   5.604   2.995   7.792  0.1058 -0.3918  0.2405
   16SAPS  H11Y 2106   5.604   2.822   7.796  1.1791 -0.2499 -2.0323
   16SAPS  C312 2107   5.432   2.910   7.899  0.1803  0.3939 -0.1661
   16SAPS  H12X 2108   5.371   2.818   7.895 -1.6539  1.4991  0.8478
   16SAPS  H12Y 2109   5.358   2.992   7.884  0.5000  0.5527 -0.9825
   16SAPS  C313 2110   5.490   2.923   8.039 -0.1324  0.1775 -0.5035
   16SAPS  H13X 2111   5.561   3.008   8.042  0.7411 -0.5593  0.7830
   16SAPS  H13Y 2112   5.555   2.837   8.066 -1.5445 -1.5904 -2.4017
   16SAPS  C314 2113   5.372   2.948   8.130  0.3590 -0.6812 -0.9585
   16SAPS  H14X 2114   5.297   2.868   8.121  1.7060 -1.9665 -1.1254
   16SAPS  H14Y 2115   5.314   3.039   8.102  0.8932 -0.2804 -0.7837
   16SAPS  C315 2116   5.422   2.959   8.279  0.3546 -0.2160  0.4616
   16SAPS  H15X 2117   5.464   3.062   8.289 -0.1141 -0.1478  1.8796
   16SAPS  H15Y 2118   5.503   2.885   8.294  1.6291  1.2609  1.0945
   16SAPS  C316 2119   5.303   2.946   8.373 -0.7730  0.8768  0.3544
   16SAPS  H16X 2120   5.219   3.019   8.372 -1.8416 -0.2989  0.1388
   16SAPS  H16Y 2121   5.358   2.945   8.470  1.3592 -0.0229 -0.8148
   16SAPS  C317 2122   5.233   2.809   8.372 -0.2517  0.0484  0.4546
   16SAPS  H17X 2123   5.313   2.737   8.343 -1.5214 -0.3996 -2.2852
   16SAPS  H17Y 2124   5.167   2.796   8.284  2.1930  1.2826 -1.7199
   16SAPS  C318 2125   5.184   2.780   8.515 -0.0580  0.1767  0.4177
   16SAPS  H18X 2126   5.099   2.847   8.540  0.1290  0.1085  1.2843
   16SAPS  H18Y 2127   5.267   2.785   8.589 -1.6818 -0.2046  2.3485
   16SAPS  H18Z 2128   5.146   2.675   8.511  0.2991  0.0477  0.4027
   17SAPC     N 2129   2.548   4.427  10.565 -0.0814  0.8067  0.2734
   17SAPC   C12 2130   2.404   4.390  10.530  0.5290 -1.1341  0.0709
   17SAPC  H12A 2131   2.341   4.475  10.551  2.7788  0.7965 -0.5574
   17SAPC  H12B 2132   2.373   4.316  10.602 -1.0453 -0.7405 -0.1607
   17SAPC   C13 2133   2.593   4.547  10.496 -0.1061 -0.6759  0.0313
   17SAPC  H13A 2134   2.556   4.541  10.395 -0.7734  0.1426  0.2170
   17SAPC  H13B 2135   2.560   4.643  10.532  2.5830  0.6055 -0.7182
   17SAPC  H13C 2136   2.700   4.548  10.490 -0.1694  0.3206 -1.4976
   17SAPC   C14 2137   2.561   4.448  10.713 -0.4085 -0.0514  0.2245
   17SAPC  H14A 2138   2.493   4.520  10.756  1.6990  2.3369 -0.2243
   17SAPC  H14B 2139   2.529   4.356  10.759 -3.8912 -0.0576 -1.8556
   17SAPC  H14C 2140   2.660   4.477  10.743  0.1701  0.5250 -2.0492
   17SAPC   C15 2141   2.649   4.312  10.539 -0.4337 -0.0787 -0.2379
   17SAPC  H15A 2142   2.622   4.227  10.600  1.4053 -1.0143 -0.6700
   17SAPC  H15B 2143   2.653   4.279  10.436  2.1558 -1.8725  0.3372
   17SAPC  H15C 2144   2.747   4.341  10.573  0.0340 -2.3356  0.5024
   17SAPC   C11 2145   2.379   4.345  10.378  0.3862  0.0705 -0.4467
   17SAPC  H11A 2146   2.277   4.300  10.379  1.0656 -1.7229  2.5774
   17SAPC  H11B 2147   2.452   4.264  10.357 -0.6221 -0.4391 -2.1890
   17SAPC     P 2148   2.287   4.558  10.285  0.1159 -0.1808  0.2139
   17SAPC   O13 2149   2.222   4.585  10.416 -0.1632  0.3360 -0.7549
   17SAPC   O14 2150   2.332   4.680  10.213 -0.1159  0.0273 -0.0928
   17SAPC   O12 2151   2.404   4.455  10.293 -0.1152 -0.1305  0.6407
   17SAPC   O11 2152   2.182   4.484  10.192 -0.5175 -0.1176 -0.0973
   17SAPC    C1 2153   2.221   4.407  10.082  0.2149  0.4663 -0.5852
   17SAPC    HA 2154   2.330   4.391  10.076  0.0747 -0.0706 -1.8572
   17SAPC    HB 2155   2.178   4.305  10.084  2.2262 -0.4189  0.0234
   17SAPC    C2 2156   2.187   4.470   9.945  0.2076  0.4743 -0.2779
   17SAPC    HS 2157   2.247   4.562   9.930 -0.6082  0.8123 -1.6454
   17SAPC   O21 2158   2.046   4.492   9.943 -0.4545 -0.0575  0.2435
   17SAPC   C21 2159   2.003   4.616   9.964 -0.0832  0.6291 -0.5931
   17SAPC   O22 2160   2.067   4.716   9.986  0.5804 -0.3149  0.1145
   17SAPC   C22 2161   1.852   4.627   9.954 -0.2361 -0.4212  0.0864
   17SAPC   H2R 2162   1.818   4.532   9.907 -1.2032  0.1639 -0.4220
   17SAPC   H2S 2163   1.811   4.629  10.057  1.7711  1.8567  0.9230
   17SAPC    C3 2164   2.215   4.369   9.836  0.0309 -0.0460  0.0388
   17SAPC    HX 2165   2.152   4.284   9.867 -1.2931  1.1277  0.6879
   17SAPC    HY 2166   2.323   4.341   9.840 -0.0068 -0.0454  2.4715
   17SAPC   O31 2167   2.190   4.421   9.701  0.0492 -0.2315  0.0379
   17SAPC   C31 2168   2.211   4.331   9.610 -0.1365 -0.2481 -0.0630
   17SAPC   O32 2169   2.236   4.211   9.635 -0.2066  0.1719 -0.1575
   17SAPC   C32 2170   2.212   4.400   9.476 -0.3897  0.1062 -0.0553
   17SAPC   H2X 2171   2.311   4.369   9.437  0.7518 -0.3375  2.9778
   17SAPC   H2Y 2172   2.213   4.511   9.472  1.1589  0.0985 -0.6375
   17SAPC   C23 2173   1.797   4.747   9.873 -0.5183 -0.7541 -0.2808
   17SAPC   H3R 2174   1.836   4.849   9.897 -0.8957 -0.5006 -0.7255
   17SAPC   H3S 2175   1.688   4.742   9.891 -0.3694  0.2241  1.1032
   17SAPC   C24 2176   1.812   4.718   9.719  0.1731 -0.5647  0.1560
   17SAPC   H4R 2177   1.752   4.627   9.699 -2.9423  0.1839  4.5905
   17SAPC   H4S 2178   1.914   4.680   9.697 -0.0627  0.7938 -4.0927
   17SAPC   C25 2179   1.783   4.822   9.621 -0.4550 -0.3794  0.0076
   17SAPC   H5R 2180   1.704   4.896   9.644  0.6089  0.4662  1.1557
   17SAPC   C26 2181   1.856   4.855   9.514 -0.1187 -1.0492 -0.1964
   17SAPC   H6R 2182   1.835   4.951   9.464 -0.4667 -0.7492  0.5214
   17SAPC   C27 2183   1.977   4.789   9.441  1.1577 -0.7176 -0.1222
   17SAPC   H7R 2184   2.030   4.724   9.514 -0.2505 -1.0263  0.6455
   17SAPC   H7S 2185   2.046   4.873   9.415 -0.3687  0.3336 -0.9574
   17SAPC   C28 2186   1.940   4.717   9.316 -0.2584 -0.3920  0.1959
   17SAPC   H8R 2187   1.917   4.609   9.326 -1.3090 -0.1767  0.2395
   17SAPC   C29 2188   1.917   4.765   9.189 -0.3246  0.0469  0.5646
   17SAPC   H9R 2189   1.870   4.700   9.113  1.8913 -1.0033  0.0310
   17SAPC  C210 2190   1.934   4.908   9.151 -0.0381 -0.5093 -0.9372
   17SAPC  H10R 2191   2.021   4.908   9.082 -0.0050  0.7413 -0.9114
   17SAPC  H10S 2192   1.968   4.974   9.234 -0.2294  0.5664 -1.6900
   17SAPC  C211 2193   1.805   4.965   9.089 -0.3615 -0.1577  0.4739
   17SAPC  H11R 2194   1.734   5.016   9.155  0.4292  0.8515  0.5724
   17SAPC  C212 2195   1.772   4.959   8.957 -0.3462  0.0494  0.7425
   17SAPC  H12R 2196   1.672   4.995   8.929 -0.9579 -1.8589  0.3750
   17SAPC  C213 2197   1.859   4.889   8.849  0.0513 -0.4662 -0.0226
   17SAPC  H13R 2198   1.940   4.837   8.905 -1.0667 -2.2929 -0.0345
   17SAPC  H13S 2199   1.894   4.966   8.777  1.9055 -2.0348 -0.8740
   17SAPC  C214 2200   1.783   4.779   8.767  0.4269 -0.5880 -0.7844
   17SAPC  H14R 2201   1.795   4.678   8.807 -1.7616  0.2793  2.5377
   17SAPC  C215 2202   1.712   4.804   8.663  0.8533  0.3381  0.6946
   17SAPC  H15R 2203   1.657   4.725   8.610  1.1939 -0.4414  1.4696
   17SAPC  C216 2204   1.677   4.930   8.606  0.1240 -0.0967  0.3978
   17SAPC  H16R 2205   1.718   5.013   8.667  1.6244  0.0011 -0.6975
   17SAPC  H16S 2206   1.566   4.932   8.614  0.0620 -1.0848 -0.0281
   17SAPC  C217 2207   1.720   4.955   8.456  0.2006 -0.0090  0.2872
   17SAPC  H17R 2208   1.830   4.953   8.439  0.0061 -0.3660 -1.0653
   17SAPC  H17S 2209   1.694   5.061   8.436  0.8664  0.2187  0.5835
   17SAPC  C218 2210   1.642   4.879   8.349 -0.4256  0.1212 -0.4508
   17SAPC  H18R 2211   1.536   4.862   8.379 -0.4835  0.0726 -0.6814
   17SAPC  H18S 2212   1.676   4.773   8.356  2.7891  1.0659 -0.0244
   17SAPC  C219 2213   1.643   4.942   8.212  0.6202  0.6782  0.5614
   17SAPC  H19R 2214   1.621   5.049   8.230 -1.4664  0.0055  2.3608
   17SAPC  H19S 2215   1.547   4.924   8.160  0.4348  3.2239 -0.0947
   17SAPC  C220 2216   1.763   4.913   8.125  0.2446 -0.0386  0.3403
   17SAPC  H20R 2217   1.745   4.929   8.017 -0.4169 -1.2579  0.2571
   17SAPC  H20S 2218   1.786   4.806   8.142 -1.1953 -0.2230  1.3648
   17SAPC  H20T 2219   1.851   4.974   8.154 -1.5776  2.7926  0.3174
   17SAPC   C33 2220   2.116   4.336   9.379  0.2235 -0.0996 -0.2672
   17SAPC   H3X 2221   2.013   4.360   9.412  0.2579 -2.2177  1.6199
   17SAPC   H3Y 2222   2.116   4.225   9.387 -0.8005 -0.0372  0.9148
   17SAPC   C34 2223   2.161   4.378   9.234  0.2580 -0.4759  0.6307
   17SAPC   H4X 2224   2.272   4.384   9.238  0.3959 -2.1983  0.2685
   17SAPC   H4Y 2225   2.124   4.480   9.211 -0.4153 -1.2321 -1.8821
   17SAPC   C35 2226   2.111   4.273   9.135 -1.5229  0.3953 -0.1562
   17SAPC   H5X 2227   2.001   4.272   9.118 -1.6750 -2.2891  0.4420
   17SAPC   H5Y 2228   2.133   4.181   9.193 -0.6367  0.0159 -1.0598
   17SAPC   C36 2229   2.190   4.260   9.006 -0.9232  0.4555 -0.0588
   17SAPC   H6X 2230   2.293   4.281   9.041 -1.0078  1.9209 -0.6231
   17SAPC   H6Y 2231   2.172   4.346   8.938  0.4167  1.2083  0.4979
   17SAPC   C37 2232   2.177   4.126   8.931 -0.3423  0.3781 -0.1795
   17SAPC   H7X 2233   2.202   4.041   8.999 -2.2045  1.1173  1.5145
   17SAPC   H7Y 2234   2.246   4.117   8.844 -2.9132 -0.8215 -2.2678
   17SAPC   C38 2235   2.039   4.095   8.870  0.6138 -0.9117 -0.5224
   17SAPC   H8X 2236   1.967   4.109   8.953 -0.7467 -1.4658 -1.5760
   17SAPC   H8Y 2237   2.037   3.986   8.846 -2.2622 -1.6177  2.2652
   17SAPC   C39 2238   2.010   4.176   8.747  0.3381 -0.6098 -0.2279
   17SAPC   H9X 2239   2.078   4.148   8.664 -0.2270  0.0704 -0.9372
   17SAPC   H9Y 2240   2.027   4.282   8.774  0.7720 -0.6045 -0.5190
   17SAPC  C310 2241   1.869   4.154   8.695  0.1234  0.4244 -0.4274
   17SAPC  H10X 2242   1.811   4.208   8.772 -0.9328 -0.0917 -0.8396
   17SAPC  H10Y 2243   1.837   4.047   8.694  0.9234  0.1785 -0.6504
   17SAPC  C311 2244   1.861   4.198   8.551  0.3204  0.1614  0.2084
   17SAPC  H11X 2245   1.755   4.233   8.551 -0.1272 -0.5014  4.9285
   17SAPC  H11Y 2246   1.879   4.118   8.477 -1.3701  1.0503 -1.2392
   17SAPC  C312 2247   1.935   4.332   8.530  0.3193 -0.2393  0.0102
   17SAPC  H12X 2248   2.046   4.331   8.520  0.3400  0.7248  0.0801
   17SAPC  H12Y 2249   1.909   4.394   8.618  0.5996 -2.4792  1.7798
   17SAPC  C313 2250   1.898   4.403   8.392  0.8115  0.0401 -0.5882
   17SAPC  H13X 2251   1.788   4.416   8.381  0.6322  0.4862  1.4601
   17SAPC  H13Y 2252   1.932   4.334   8.311  0.5939  0.1173 -0.7470
   17SAPC  C314 2253   1.980   4.535   8.380  0.0690  0.4255  0.2688
   17SAPC  H14X 2254   2.086   4.520   8.408  1.8405 -0.2732 -5.4323
   17SAPC  H14Y 2255   1.941   4.614   8.448  0.3806  0.7521  0.0687
   17SAPC  C315 2256   1.991   4.582   8.229 -0.2748  0.8532  0.5557
   17SAPC  H15X 2257   1.892   4.601   8.182  0.6997  1.4338 -1.3558
   17SAPC  H15Y 2258   2.024   4.494   8.169  2.6662  1.9801  0.3776
   17SAPC  C316 2259   2.068   4.704   8.210  0.0180  0.1065  0.4686
   17SAPC  H16X 2260   2.159   4.686   8.269 -0.6151 -0.5502  1.2682
   17SAPC  H16Y 2261   2.005   4.785   8.254 -0.3336 -0.5328  1.1519
   17SAPC  C317 2262   2.103   4.736   8.061  0.3099  0.1044 -0.5473
   17SAPC  H17X 2263   2.143   4.838   8.042 -0.8777  0.6345 -0.2894
   17SAPC  H17Y 2264   2.004   4.733   8.011  0.0990  0.9619 -0.2061
   17SAPC  C318 2265   2.201   4.642   8.001  0.1734 -0.0400  0.1482
   17SAPC  H18X 2266   2.306   4.671   8.024 -0.3009  1.3015  0.6706
   17SAPC  H18Y 2267   2.185   4.535   8.028 -0.9688 -0.3004 -1.4091
   17SAPC  H18Z 2268   2.200   4.652   7.890 -1.4769  0.2952  0.1785
   18SAPC     N 2269   2.247   3.675  10.918 -1.1244 -0.2760  0.4747
   18SAPC   C12 2270   2.279   3.826  10.911 -0.2252 -0.0507  1.0770
   18SAPC  H12A 2271   2.301   3.858  11.012  2.8180  0.4880  0.3515
   18SAPC  H12B 2272   2.201   3.882  10.861 -1.1131 -3.1909 -1.4159
   18SAPC   C13 2273   2.111   3.650  10.968 -0.0036  0.5023 -0.3804
   18SAPC  H13A 2274   2.093   3.544  10.971  1.4979  0.2440  1.2922
   18SAPC  H13B 2275   2.090   3.683  11.068 -0.6406 -1.1304  0.0498
   18SAPC  H13C 2276   2.032   3.682  10.901  0.5639  0.4520 -1.0903
   18SAPC   C14 2277   2.268   3.609  10.784 -0.9166 -0.6667 -0.1937
   18SAPC  H14A 2278   2.233   3.675  10.706 -1.2370 -0.0313  0.4701
   18SAPC  H14B 2279   2.375   3.595  10.778 -0.9610 -0.8797 -0.4932
   18SAPC  H14C 2280   2.224   3.510  10.776  0.1303 -0.9848 -3.2511
   18SAPC   C15 2281   2.342   3.614  11.019 -0.8521  0.7507 -0.4408
   18SAPC  H15A 2282   2.319   3.510  11.040  1.0549 -0.2271 -2.7596
   18SAPC  H15B 2283   2.445   3.623  10.988  0.0663 -1.1568  1.7090
   18SAPC  H15C 2284   2.338   3.672  11.110  2.2152  1.4540 -0.6758
   18SAPC   C11 2285   2.415   3.857  10.836  0.5883 -0.5810  0.0236
   18SAPC  H11A 2286   2.491   3.777  10.849 -0.3001 -1.6176 -0.9681
   18SAPC  H11B 2287   2.449   3.954  10.878 -0.5407 -0.1268 -0.0548
   18SAPC     P 2288   2.415   3.988  10.610  0.0987 -0.1755  0.4071
   18SAPC   O13 2289   2.357   4.102  10.673  0.3409  0.0035 -0.6079
   18SAPC   O14 2290   2.563   4.001  10.587  0.2581  0.2135  1.1020
   18SAPC   O12 2291   2.382   3.858  10.696 -0.1888  0.2342  0.3413
   18SAPC   O11 2292   2.349   3.963  10.464 -0.2440 -0.1352 -0.2831
   18SAPC    C1 2293   2.362   3.823  10.419  0.5810  0.7115 -0.1659
   18SAPC    HA 2294   2.468   3.799  10.397 -0.0986 -0.9530 -1.9186
   18SAPC    HB 2295   2.320   3.747  10.489 -3.5399  1.7286 -1.2500
   18SAPC    C2 2296   2.291   3.810  10.279 -0.3708  0.3418  0.2491
   18SAPC    HS 2297   2.195   3.756  10.295 -0.5017  0.2529 -0.7715
   18SAPC   O21 2298   2.375   3.745  10.188  0.2309  0.4919  0.5025
   18SAPC   C21 2299   2.421   3.620  10.217  0.1622  0.5330 -0.6609
   18SAPC   O22 2300   2.387   3.545  10.305  0.5638  0.0413 -0.2064
   18SAPC   C22 2301   2.513   3.574  10.098 -0.2054 -0.0107 -0.7604
   18SAPC   H2R 2302   2.547   3.662  10.040  0.0459 -1.2312 -2.5373
   18SAPC   H2S 2303   2.598   3.532  10.156 -1.5475 -2.0535 -0.1603
   18SAPC    C3 2304   2.262   3.949  10.210 -0.2460  0.4636 -1.1229
   18SAPC    HX 2305   2.362   3.997  10.214  0.2291 -0.5763 -0.3278
   18SAPC    HY 2306   2.193   4.006  10.276  0.6976  0.1567  0.1601
   18SAPC   O31 2307   2.215   3.935  10.071 -0.3315 -0.2472 -0.5143
   18SAPC   C31 2308   2.087   3.896  10.071 -0.8311  0.5451 -0.1110
   18SAPC   O32 2309   2.019   3.890  10.172  0.2099 -0.1161  0.2174
   18SAPC   C32 2310   2.044   3.865   9.926 -0.4013 -0.5406 -0.2466
   18SAPC   H2X 2311   1.951   3.923   9.903 -0.5509 -0.9226 -0.6152
   18SAPC   H2Y 2312   2.015   3.758   9.935  1.4274 -0.9805  0.7843
   18SAPC   C23 2313   2.442   3.474  10.008  1.1802  0.1793 -0.0569
   18SAPC   H3R 2314   2.376   3.411  10.072  0.7458  0.3962 -0.2883
   18SAPC   H3S 2315   2.515   3.403   9.963  2.3957  1.2683  0.1693
   18SAPC   C24 2316   2.358   3.546   9.905  0.4245 -0.2649  0.8382
   18SAPC   H4R 2317   2.429   3.614   9.853 -0.8391 -1.0575 -2.1456
   18SAPC   H4S 2318   2.285   3.618   9.949 -1.6881 -1.1796 -0.9473
   18SAPC   C25 2319   2.290   3.448   9.806  0.1959 -0.5252 -0.5276
   18SAPC   H5R 2320   2.213   3.383   9.851 -2.1397  2.2221 -0.2909
   18SAPC   C26 2321   2.310   3.438   9.678 -0.2561 -0.2632 -0.1378
   18SAPC   H6R 2322   2.250   3.368   9.617  0.7317 -1.6976  0.4655
   18SAPC   C27 2323   2.405   3.535   9.606 -0.6946 -0.4904  0.2007
   18SAPC   H7R 2324   2.503   3.541   9.660 -1.0273  3.8231  0.6850
   18SAPC   H7S 2325   2.359   3.634   9.625 -0.6590 -0.7808  1.9997
   18SAPC   C28 2326   2.420   3.515   9.457  0.2131  0.1688  0.4450
   18SAPC   H8R 2327   2.343   3.454   9.407  1.5898  0.0525 -1.6609
   18SAPC   C29 2328   2.527   3.549   9.376 -0.4628  0.9281  0.0803
   18SAPC   H9R 2329   2.521   3.519   9.271 -2.4052  0.7277  0.2270
   18SAPC  C210 2330   2.652   3.619   9.422  0.1564  0.4349 -0.2462
   18SAPC  H10R 2331   2.653   3.632   9.532 -0.4719 -4.0062  0.4680
   18SAPC  H10S 2332   2.655   3.716   9.367  0.0220  0.4872 -0.1632
   18SAPC  C211 2333   2.779   3.544   9.379  0.6418 -0.5570  0.0595
   18SAPC  H11R 2334   2.762   3.495   9.282 -2.1657  0.3415  0.0062
   18SAPC  C212 2335   2.875   3.502   9.462  0.3421 -0.2304  0.0274
   18SAPC  H12R 2336   2.960   3.442   9.425  0.5809 -1.4375  2.3260
   18SAPC  C213 2337   2.875   3.522   9.608 -0.3022 -0.4806 -0.2427
   18SAPC  H13R 2338   2.953   3.458   9.654  1.9529  1.1155 -1.6802
   18SAPC  H13S 2339   2.778   3.479   9.644 -0.2666 -0.8431 -0.5779
   18SAPC  C214 2340   2.905   3.660   9.658  0.3341  0.0376  0.1131
   18SAPC  H14R 2341   2.955   3.733   9.592 -1.8191  2.7968  1.3221
   18SAPC  C215 2342   2.868   3.706   9.773 -0.1975  0.0078 -0.5185
   18SAPC  H15R 2343   2.894   3.808   9.806  0.7958 -0.6647  0.8780
   18SAPC  C216 2344   2.782   3.624   9.871 -0.2140 -1.3709 -0.3232
   18SAPC  H16R 2345   2.705   3.556   9.828  0.4988 -2.7403  0.5018
   18SAPC  H16S 2346   2.716   3.681   9.940  0.8155 -2.1938  1.3899
   18SAPC  C217 2347   2.865   3.529   9.961  0.0999  0.7496 -0.2444
   18SAPC  H17R 2348   2.935   3.471   9.897 -0.4930  1.2857 -1.4163
   18SAPC  H17S 2349   2.781   3.470  10.003 -1.4881  1.2548 -2.4972
   18SAPC  C218 2350   2.940   3.588  10.076 -0.6197 -0.1711 -0.3872
   18SAPC  H18R 2351   3.017   3.661  10.043  1.4185 -2.4565 -1.0220
   18SAPC  H18S 2352   2.995   3.505  10.126 -0.2803  0.9638  1.1813
   18SAPC  C219 2353   2.866   3.676  10.174  0.8445 -0.3456 -0.1333
   18SAPC  H19R 2354   2.777   3.633  10.225  1.2950  1.1067  2.0214
   18SAPC  H19S 2355   2.818   3.747  10.103  0.2197  1.7200  2.2126
   18SAPC  C220 2356   2.956   3.753  10.274 -0.4996  0.4345 -0.5517
   18SAPC  H20R 2357   3.028   3.813  10.215 -0.3484  1.1132  0.2972
   18SAPC  H20S 2358   3.002   3.679  10.344  0.4044  2.4108  1.0367
   18SAPC  H20T 2359   2.897   3.823  10.337 -1.3576 -1.0240  0.3401
   18SAPC   C33 2360   2.144   3.889   9.817  0.1810  0.1591 -0.1327
   18SAPC   H3X 2361   2.235   3.831   9.846 -0.6365 -0.5193  1.1488
   18SAPC   H3Y 2362   2.177   3.990   9.785  0.4563 -0.5486 -2.2365
   18SAPC   C34 2363   2.091   3.825   9.692  0.3996  0.8684  0.2830
   18SAPC   H4X 2364   1.987   3.851   9.663 -1.4420 -5.2159  0.0063
   18SAPC   H4Y 2365   2.073   3.715   9.687  1.3238  0.7478 -1.2730
   18SAPC   C35 2366   2.195   3.867   9.586  0.2521 -0.0854  0.3978
   18SAPC   H5X 2367   2.298   3.839   9.615 -0.3956 -3.4203 -0.0746
   18SAPC   H5Y 2368   2.189   3.977   9.578  0.6821  0.1854  2.8567
   18SAPC   C36 2369   2.171   3.793   9.450  0.4196 -0.4946 -0.3988
   18SAPC   H6X 2370   2.064   3.816   9.427  0.3684 -0.8701 -0.5491
   18SAPC   H6Y 2371   2.181   3.683   9.451  2.1676 -0.3980 -2.0723
   18SAPC   C37 2372   2.259   3.842   9.335 -0.7827 -0.6473 -0.3096
   18SAPC   H7X 2373   2.361   3.842   9.378 -0.7504 -1.9025 -0.3670
   18SAPC   H7Y 2374   2.241   3.951   9.321  1.8010 -0.0066  0.7198
   18SAPC   C38 2375   2.260   3.741   9.222  0.0356 -0.0333  0.6481
   18SAPC   H8X 2376   2.161   3.738   9.171 -0.3763  0.4281  1.3972
   18SAPC   H8Y 2377   2.273   3.644   9.273 -1.5872 -0.1474  0.8956
   18SAPC   C39 2378   2.383   3.765   9.127  0.1108 -0.0937  0.1948
   18SAPC   H9X 2379   2.471   3.730   9.185 -0.7097 -2.6651  0.0144
   18SAPC   H9Y 2380   2.389   3.875   9.110 -0.5957  0.1474  1.3790
   18SAPC  C310 2381   2.379   3.685   8.994  0.7354 -0.0238 -0.8873
   18SAPC  H10X 2382   2.301   3.725   8.926  0.6864 -1.7007 -1.8512
   18SAPC  H10Y 2383   2.354   3.578   9.012 -0.6732  0.6102  1.3296
   18SAPC  C311 2384   2.506   3.683   8.917 -0.7047  0.5177  0.4543
   18SAPC  H11X 2385   2.541   3.785   8.890 -0.9197  0.7264  0.9584
   18SAPC  H11Y 2386   2.473   3.640   8.820 -1.9704 -0.7873  1.4261
   18SAPC  C312 2387   2.610   3.587   8.975 -0.5745 -0.2491 -0.6283
   18SAPC  H12X 2388   2.566   3.487   8.992  0.7321 -0.6603  0.4708
   18SAPC  H12Y 2389   2.643   3.622   9.075 -1.1456  1.6800 -1.0676
   18SAPC  C313 2390   2.738   3.564   8.892 -0.4766  0.4329  0.3828
   18SAPC  H13X 2391   2.806   3.487   8.934 -0.2063 -0.0492 -0.8891
   18SAPC  H13Y 2392   2.778   3.664   8.868 -2.9422  1.0476 -1.5835
   18SAPC  C314 2393   2.710   3.503   8.749 -0.2103 -0.3172 -0.2114
   18SAPC  H14X 2394   2.617   3.551   8.713 -0.0560  0.4851  0.4290
   18SAPC  H14Y 2395   2.682   3.396   8.758  1.2437 -0.8098 -1.0643
   18SAPC  C315 2396   2.813   3.541   8.642 -0.1562  0.2254  0.7270
   18SAPC  H15X 2397   2.908   3.514   8.693 -1.5289 -0.5217  2.9727
   18SAPC  H15Y 2398   2.804   3.649   8.617  0.9200 -0.1862 -1.8283
   18SAPC  C316 2399   2.796   3.457   8.514  0.2967 -0.2710  0.3301
   18SAPC  H16X 2400   2.727   3.375   8.542 -0.6677  0.1313 -0.7817
   18SAPC  H16Y 2401   2.891   3.409   8.483  0.0027  0.1246 -1.3223
   18SAPC  C317 2402   2.743   3.539   8.394  0.5996  0.3653  0.3847
   18SAPC  H17X 2403   2.815   3.615   8.358 -0.1768  0.5228 -0.8701
   18SAPC  H17Y 2404   2.655   3.593   8.436  0.4882 -0.0477  0.6918
   18SAPC  C318 2405   2.691   3.444   8.285  0.0385  0.1620  0.3927
   18SAPC  H18X 2406   2.616   3.378   8.335  0.4342  1.1340  2.3863
   18SAPC  H18Y 2407   2.770   3.374   8.251  0.2725  0.0107  1.2218
   18SAPC  H18Z 2408   2.650   3.498   8.197  1.0298  0.0757 -0.1382
   19SAPC     N 2409   5.051   6.347  10.707 -0.0374  0.2236  0.6786
   19SAPC   C12 2410   4.922   6.296  10.657  0.6150 -0.0033 -0.5812
   19SAPC  H12A 2411   4.877   6.378  10.604  1.0161  0.6528  0.0740
   19SAPC  H12B 2412   4.861   6.280  10.744  0.4825 -1.8421 -0.9680
   19SAPC   C13 2413   5.119   6.241  10.787 -0.1218  1.1745  0.0106
   19SAPC  H13A 2414   5.209   6.290  10.822  0.2110  1.3400 -1.0650
   19SAPC  H13B 2415   5.061   6.201  10.869  0.0561  2.5758  0.8445
   19SAPC  H13C 2416   5.147   6.165  10.715  2.1249  1.4805  0.4642
   19SAPC   C14 2417   5.136   6.380  10.590 -0.6611 -0.6379  0.0308
   19SAPC  H14A 2418   5.235   6.419  10.609 -1.1757  0.4142  0.5999
   19SAPC  H14B 2419   5.156   6.285  10.541 -0.9606 -0.7611  0.1466
   19SAPC  H14C 2420   5.092   6.444  10.516  0.4455  0.6073  0.4089
   19SAPC   C15 2421   5.028   6.467  10.799 -0.6714 -0.3284  0.5123
   19SAPC  H15A 2422   4.975   6.437  10.889 -1.7220  0.9518  0.3624
   19SAPC  H15B 2423   5.125   6.509  10.819  0.2929 -1.1217 -2.0498
   19SAPC  H15C 2424   4.967   6.543  10.753  0.1242  0.1489  0.2214
   19SAPC   C11 2425   4.927   6.171  10.562 -0.6858  0.0694 -0.0849
   19SAPC  H11A 2426   4.979   6.195  10.467 -0.8454  0.3562 -0.0986
   19SAPC  H11B 2427   4.823   6.145  10.532 -0.9477 -0.4209  1.1800
   19SAPC     P 2428   5.093   5.974  10.560 -0.1551  0.3601  0.0578
   19SAPC   O13 2429   5.219   6.055  10.553  0.3982  0.0689  0.2162
   19SAPC   O14 2430   5.100   5.842  10.628 -0.1168 -0.0261  0.5186
   19SAPC   O12 2431   4.972   6.053  10.624  0.3942 -0.5468 -0.2437
   19SAPC   O11 2432   5.043   5.943  10.411 -0.1835 -0.2784 -0.1127
   19SAPC    C1 2433   4.927   5.865  10.387  0.6633  0.5813 -0.8942
   19SAPC    HA 2434   4.919   5.773  10.448 -0.0718  1.5497  0.5158
   19SAPC    HB 2435   4.843   5.934  10.411  2.4871  2.7341 -0.3243
   19SAPC    C2 2436   4.931   5.813  10.237  0.1842 -0.5130 -0.0456
   19SAPC    HS 2437   4.837   5.753  10.243 -0.1119 -0.0925 -0.4006
   19SAPC   O21 2438   5.045   5.733  10.209  0.0749 -0.1334  0.7391
   19SAPC   C21 2439   5.019   5.640  10.113 -0.8297  0.3995 -0.0318
   19SAPC   O22 2440   4.910   5.604  10.082  0.7826 -0.3914  0.5843
   19SAPC   C22 2441   5.146   5.581  10.050 -0.2552  0.7834  0.7566
   19SAPC   H2R 2442   5.229   5.616  10.116 -1.3986  3.6941  0.7730
   19SAPC   H2S 2443   5.142   5.470  10.042 -0.7250  0.8047  0.7102
   19SAPC    C3 2444   4.919   5.934  10.131  0.2324  0.0988 -0.1686
   19SAPC    HX 2445   4.999   6.009  10.148 -1.0037  1.0952  1.5770
   19SAPC    HY 2446   4.831   5.995  10.162  0.3610  0.8821 -1.2682
   19SAPC   O31 2447   4.910   5.891   9.992 -0.4950 -0.2705  0.1854
   19SAPC   C31 2448   4.795   5.856   9.953 -0.3878  0.3505 -0.1340
   19SAPC   O32 2449   4.688   5.857  10.016 -0.3516  0.6675 -0.3707
   19SAPC   C32 2450   4.805   5.805   9.811  0.3170  0.1941 -0.4855
   19SAPC   H2X 2451   4.864   5.711   9.807 -1.2771 -0.8231 -1.0607
   19SAPC   H2Y 2452   4.862   5.880   9.753 -0.7809  0.0727 -1.7617
   19SAPC   C23 2453   5.157   5.644   9.904 -0.3584 -0.0619  0.4582
   19SAPC   H3R 2454   5.139   5.753   9.914 -0.7619 -0.0683 -0.1079
   19SAPC   H3S 2455   5.088   5.598   9.830 -0.7231  1.0384  0.0908
   19SAPC   C24 2456   5.302   5.644   9.859 -0.1778 -0.4499  0.4876
   19SAPC   H4R 2457   5.356   5.680   9.949  0.1148 -1.6772  0.8248
   19SAPC   H4S 2458   5.318   5.722   9.782  1.7756  0.6073  1.8799
   19SAPC   C25 2459   5.344   5.497   9.825 -0.6684 -0.0806 -0.4219
   19SAPC   H5R 2460   5.381   5.438   9.910  2.3759  4.2280  1.6319
   19SAPC   C26 2461   5.341   5.450   9.700 -0.5441  0.4261  0.8960
   19SAPC   H6R 2462   5.379   5.347   9.691  2.0920  1.4557 -0.8980
   19SAPC   C27 2463   5.292   5.510   9.570 -0.1110 -0.8444 -0.5321
   19SAPC   H7R 2464   5.371   5.577   9.530  1.0274 -0.9809  1.3536
   19SAPC   H7S 2465   5.202   5.574   9.580  0.4818 -0.3439  2.2266
   19SAPC   C28 2466   5.269   5.414   9.458 -0.8612 -0.5385 -0.1778
   19SAPC   H8R 2467   5.177   5.355   9.470 -2.2566  1.7620  1.2426
   19SAPC   C29 2468   5.337   5.416   9.343  0.0183 -0.0636 -0.0339
   19SAPC   H9R 2469   5.301   5.341   9.271 -2.2558 -0.5095  1.4845
   19SAPC  C210 2470   5.447   5.502   9.301  0.5011  0.0589 -0.1078
   19SAPC  H10R 2471   5.509   5.517   9.392  3.6195 -0.4318 -2.0061
   19SAPC  H10S 2472   5.399   5.601   9.282  0.3916 -0.4054 -2.4931
   19SAPC  C211 2473   5.524   5.464   9.174 -0.3815  0.4671 -0.1562
   19SAPC  H11R 2474   5.510   5.525   9.083  2.5570  2.6334  0.7104
   19SAPC  C212 2475   5.592   5.350   9.147 -0.6509 -0.0273  0.1593
   19SAPC  H12R 2476   5.656   5.337   9.059 -0.4726  0.8554  0.1414
   19SAPC  C213 2477   5.612   5.236   9.245 -0.9289 -0.8597  0.5170
   19SAPC  H13R 2478   5.580   5.137   9.205 -1.3462 -0.4938 -0.0749
   19SAPC  H13S 2479   5.543   5.258   9.329  1.5243  0.6734  2.2518
   19SAPC  C214 2480   5.754   5.230   9.285  0.1092 -0.2689 -0.9930
   19SAPC  H14R 2481   5.822   5.208   9.201 -0.9316 -0.9952 -1.6608
   19SAPC  C215 2482   5.810   5.253   9.408 -0.4725  0.3416 -0.3747
   19SAPC  H15R 2483   5.917   5.239   9.429 -0.3691  3.0842  1.4491
   19SAPC  C216 2484   5.732   5.300   9.528  0.0896  0.6642 -0.4387
   19SAPC  H16R 2485   5.622   5.291   9.516  0.2172 -0.1941 -1.0256
   19SAPC  H16S 2486   5.752   5.409   9.545 -0.3656  0.6413  0.3082
   19SAPC  C217 2487   5.754   5.206   9.645  0.8460  0.3087 -0.7735
   19SAPC  H17R 2488   5.862   5.205   9.671  0.0542  0.7714  3.3199
   19SAPC  H17S 2489   5.706   5.108   9.625  3.5424 -1.8348  2.2860
   19SAPC  C218 2490   5.699   5.256   9.785 -0.3425  0.0020  0.2041
   19SAPC  H18R 2491   5.591   5.234   9.780 -0.0858 -1.3033 -0.0264
   19SAPC  H18S 2492   5.720   5.365   9.786  0.3204 -0.0925  2.3805
   19SAPC  C219 2493   5.768   5.186   9.902  0.1302 -0.4371 -0.3738
   19SAPC  H19R 2494   5.878   5.169   9.896  0.2186  0.1818 -0.5387
   19SAPC  H19S 2495   5.727   5.083   9.916  1.3213 -0.8961 -0.0870
   19SAPC  C220 2496   5.745   5.272  10.031 -0.3975 -0.1231  0.3563
   19SAPC  H20R 2497   5.777   5.377  10.015 -2.8991  0.4877 -1.0560
   19SAPC  H20S 2498   5.794   5.230  10.122 -1.3639  2.0691  1.9752
   19SAPC  H20T 2499   5.636   5.290  10.041 -0.4761  0.4624 -1.3738
   19SAPC   C33 2500   4.671   5.799   9.742  0.0375  0.4801  0.1636
   19SAPC   H3X 2501   4.625   5.900   9.745 -0.9627  0.0262  0.5498
   19SAPC   H3Y 2502   4.602   5.731   9.797  0.3278  0.9737  1.1442
   19SAPC   C34 2503   4.684   5.752   9.599 -0.2651  0.4243 -0.4793
   19SAPC   H4X 2504   4.722   5.647   9.598  4.2369  1.7864  0.9493
   19SAPC   H4Y 2505   4.762   5.815   9.551 -1.3455  1.5016 -0.8508
   19SAPC   C35 2506   4.551   5.762   9.534 -0.5425  0.0227 -0.1347
   19SAPC   H5X 2507   4.529   5.871   9.536 -1.4455 -0.1647  0.5748
   19SAPC   H5Y 2508   4.474   5.712   9.596 -1.8517  0.3293 -1.4396
   19SAPC   C36 2509   4.559   5.703   9.387  0.2332 -0.3952  0.0079
   19SAPC   H6X 2510   4.611   5.605   9.379 -0.5335 -0.7341 -1.1265
   19SAPC   H6Y 2511   4.608   5.779   9.323 -1.0743 -1.1641 -2.0151
   19SAPC   C37 2512   4.411   5.692   9.326  0.5106 -0.5351 -0.3846
   19SAPC   H7X 2513   4.359   5.788   9.344  0.7743  0.0294 -2.3397
   19SAPC   H7Y 2514   4.351   5.619   9.384 -2.6165  1.4235 -0.9346
   19SAPC   C38 2515   4.396   5.672   9.179  0.0481 -0.1896  0.2623
   19SAPC   H8X 2516   4.458   5.749   9.130 -0.6440  0.7211  0.7814
   19SAPC   H8Y 2517   4.291   5.695   9.150 -0.2889  0.0982  1.6483
   19SAPC   C39 2518   4.432   5.530   9.128  0.3122  0.3036  0.5507
   19SAPC   H9X 2519   4.366   5.454   9.175 -2.4821  0.9354 -2.0217
   19SAPC   H9Y 2520   4.541   5.510   9.134  0.4738  1.3139  1.3729
   19SAPC  C310 2521   4.402   5.529   8.976 -0.2835  0.4013 -0.4775
   19SAPC  H10X 2522   4.462   5.445   8.934  0.7234  2.5491 -3.7135
   19SAPC  H10Y 2523   4.449   5.614   8.922  1.9307 -1.9849 -2.6176
   19SAPC  C311 2524   4.252   5.519   8.934  0.1314  0.5486  0.1990
   19SAPC  H11X 2525   4.203   5.616   8.956 -1.0895 -0.0525  0.1850
   19SAPC  H11Y 2526   4.202   5.445   9.000 -0.4285  1.6040  0.9800
   19SAPC  C312 2527   4.227   5.467   8.795 -0.0978 -0.6233  0.5048
   19SAPC  H12X 2528   4.117   5.476   8.781  0.0091 -1.1087 -0.6974
   19SAPC  H12Y 2529   4.250   5.359   8.785 -0.5218 -0.5817 -1.1541
   19SAPC  C313 2530   4.310   5.558   8.691  0.1548 -0.1789 -0.1866
   19SAPC  H13X 2531   4.416   5.542   8.720  0.4420  0.9467 -0.5824
   19SAPC  H13Y 2532   4.275   5.662   8.704 -2.1311 -0.9275  0.0884
   19SAPC  C314 2533   4.321   5.518   8.547 -0.0489  0.1738  0.1726
   19SAPC  H14X 2534   4.299   5.411   8.525 -2.3735  0.6552 -0.0941
   19SAPC  H14Y 2535   4.428   5.532   8.521  0.2897  1.6080  2.1105
   19SAPC  C315 2536   4.253   5.617   8.451 -0.1431  0.9027  0.1809
   19SAPC  H15X 2537   4.255   5.725   8.480  0.4898  0.9318  0.0321
   19SAPC  H15Y 2538   4.149   5.578   8.456  0.8693 -2.0993 -0.0426
   19SAPC  C316 2539   4.297   5.614   8.304 -0.0085 -0.1108 -0.5897
   19SAPC  H16X 2540   4.387   5.680   8.304  0.8435 -1.2228  0.8768
   19SAPC  H16Y 2541   4.215   5.649   8.238 -0.3101  0.6250  0.1547
   19SAPC  C317 2542   4.342   5.480   8.254 -0.3843 -0.5098  0.0432
   19SAPC  H17X 2543   4.264   5.407   8.287 -1.1549  0.5492  0.6173
   19SAPC  H17Y 2544   4.438   5.453   8.302 -0.7999  3.1108  3.4010
   19SAPC  C318 2545   4.358   5.477   8.105 -0.1083 -0.5855 -0.5706
   19SAPC  H18X 2546   4.397   5.382   8.064 -0.7575 -0.4094 -1.6346
   19SAPC  H18Y 2547   4.419   5.561   8.064 -0.2789 -0.5974 -0.8550
   19SAPC  H18Z 2548   4.256   5.480   8.062 -0.3505  1.0166  0.0515
   20SAPC     N 2549   1.316   0.971  11.145 -0.4076  1.1247 -0.1551
   20SAPC   C12 2550   1.429   1.065  11.117  0.0099 -0.0505 -0.0806
   20SAPC  H12A 2551   1.420   1.151  11.181 -1.4073  0.0414 -0.3765
   20SAPC  H12B 2552   1.410   1.117  11.024 -0.1727 -1.1798 -0.6937
   20SAPC   C13 2553   1.188   1.051  11.136  0.2542 -0.3015 -0.4640
   20SAPC  H13A 2554   1.191   1.103  11.041 -0.3848 -0.0596 -0.3561
   20SAPC  H13B 2555   1.098   0.993  11.123 -0.2389  0.4322 -0.3580
   20SAPC  H13C 2556   1.180   1.120  11.218 -2.5108 -0.1209 -0.7810
   20SAPC   C14 2557   1.307   0.865  11.038  0.3364 -0.3397  0.4081
   20SAPC  H14A 2558   1.389   0.795  11.038  0.8516  0.1994 -1.5457
   20SAPC  H14B 2559   1.215   0.812  11.053  0.6136 -1.3149 -1.1184
   20SAPC  H14C 2560   1.290   0.912  10.942 -2.9990 -0.8099  0.6760
   20SAPC   C15 2561   1.321   0.901  11.274 -0.1182  0.1517  0.0090
   20SAPC  H15A 2562   1.238   0.832  11.284  0.7614 -0.6816  2.0696
   20SAPC  H15B 2563   1.412   0.845  11.291 -1.0932 -0.9339  2.1703
   20SAPC  H15C 2564   1.301   0.968  11.357 -1.2804 -0.2394  0.0718
   20SAPC   C11 2565   1.576   1.015  11.116  0.1475 -0.1636  0.4084
   20SAPC  H11A 2566   1.597   0.973  11.216  0.3839 -2.3766 -0.5045
   20SAPC  H11B 2567   1.639   1.104  11.097 -3.4342  2.2497 -1.4115
   20SAPC     P 2568   1.644   0.940  10.879  0.5824 -0.0320  0.6122
   20SAPC   O13 2569   1.796   0.959  10.880  0.2646  0.1987 -0.4900
   20SAPC   O14 2570   1.605   0.835  10.785 -0.1436  0.4629  0.5691
   20SAPC   O12 2571   1.594   0.905  11.024  0.3616 -0.3996  0.4291
   20SAPC   O11 2572   1.584   1.074  10.843  0.2663 -0.7185  0.0197
   20SAPC    C1 2573   1.451   1.092  10.775 -0.2850  0.5770  0.4986
   20SAPC    HA 2574   1.368   1.033  10.818 -0.4974  0.9771  0.6453
   20SAPC    HB 2575   1.411   1.194  10.796  1.5797  1.5221 -0.2623
   20SAPC    C2 2576   1.468   1.071  10.621  1.0583  0.3148  0.1158
   20SAPC    HS 2577   1.522   0.978  10.594  1.1421  0.4184 -0.0727
   20SAPC   O21 2578   1.527   1.192  10.574  0.6064 -0.2152 -0.4123
   20SAPC   C21 2579   1.620   1.171  10.487 -0.0893  0.2496  0.1002
   20SAPC   O22 2580   1.671   1.061  10.461  0.5318 -0.6865 -0.7317
   20SAPC   C22 2581   1.680   1.304  10.446 -0.5020  0.7510 -0.0478
   20SAPC   H2R 2582   1.752   1.326  10.528  0.6587 -3.9250  0.5167
   20SAPC   H2S 2583   1.740   1.304  10.352  2.5806  1.2659  1.7714
   20SAPC    C3 2584   1.324   1.064  10.560  0.4805 -0.4759 -0.0839
   20SAPC    HX 2585   1.266   1.156  10.581 -0.6814 -0.9316 -1.1948
   20SAPC    HY 2586   1.263   0.985  10.609 -2.1850  1.8395  0.5415
   20SAPC   O31 2587   1.344   1.045  10.416  0.2769 -0.1368  0.0831
   20SAPC   C31 2588   1.371   0.922  10.374  0.1767  0.7648 -0.2027
   20SAPC   O32 2589   1.373   0.825  10.450  0.2731 -0.0021 -0.0694
   20SAPC   C32 2590   1.376   0.918  10.225  0.2350 -0.0016 -0.7854
   20SAPC   H2X 2591   1.476   0.949  10.189  0.4373 -0.3224 -0.5121
   20SAPC   H2Y 2592   1.301   0.990  10.187 -0.7376 -1.4649 -1.7541
   20SAPC   C23 2593   1.589   1.422  10.432  0.3002 -0.6016 -0.5158
   20SAPC   H3R 2594   1.524   1.421  10.522 -1.0410  2.4128 -1.3088
   20SAPC   H3S 2595   1.515   1.415  10.349 -2.0027 -0.0568  1.3621
   20SAPC   C24 2596   1.660   1.554  10.420  0.5843 -0.1114  0.2581
   20SAPC   H4R 2597   1.729   1.556  10.333 -0.6813 -0.8259 -0.7996
   20SAPC   H4S 2598   1.727   1.584  10.503 -1.5877 -0.2589  2.1478
   20SAPC   C25 2599   1.570   1.672  10.408  0.3509 -0.0400  0.1747
   20SAPC   H5R 2600   1.524   1.703  10.503 -1.3403 -0.8410 -0.3372
   20SAPC   C26 2601   1.529   1.719  10.295 -0.2156 -0.2123 -0.0058
   20SAPC   H6R 2602   1.456   1.801  10.296 -0.5783 -0.5067 -1.0320
   20SAPC   C27 2603   1.567   1.678  10.156 -0.5218  0.1730 -0.2603
   20SAPC   H7R 2604   1.471   1.653  10.106 -1.2468  1.5735  0.3673
   20SAPC   H7S 2605   1.630   1.587  10.149  0.9791  1.2907 -2.1786
   20SAPC   C28 2606   1.630   1.792  10.079  0.5272  0.0329 -0.3496
   20SAPC   H8R 2607   1.722   1.828  10.129  1.4282 -0.9329 -1.2603
   20SAPC   C29 2608   1.594   1.854   9.968  0.1039  0.1055 -0.0582
   20SAPC   H9R 2609   1.667   1.930   9.934  1.1792 -1.8060 -2.3641
   20SAPC  C210 2610   1.472   1.819   9.883  0.3083  0.3301  0.2798
   20SAPC  H10R 2611   1.378   1.866   9.921 -0.2004 -1.6265  1.5811
   20SAPC  H10S 2612   1.452   1.711   9.898  0.0103  0.3228 -0.1583
   20SAPC  C211 2613   1.476   1.850   9.731 -0.3453 -0.6775 -0.7149
   20SAPC  H11R 2614   1.524   1.944   9.702 -1.4395 -0.0958 -0.6923
   20SAPC  C212 2615   1.436   1.771   9.637  0.1853  0.5705  0.1070
   20SAPC  H12R 2616   1.450   1.802   9.532  2.6221 -0.6397  0.0073
   20SAPC  C213 2617   1.380   1.632   9.655  0.2133 -0.0144 -0.0646
   20SAPC  H13R 2618   1.324   1.621   9.750 -1.2055  0.0528 -0.8656
   20SAPC  H13S 2619   1.458   1.555   9.672  1.0304  1.4535  4.3206
   20SAPC  C214 2620   1.288   1.603   9.539  0.1733 -0.1905  0.0501
   20SAPC  H14R 2621   1.182   1.629   9.548 -0.7157 -3.1574 -0.9315
   20SAPC  C215 2622   1.329   1.550   9.418  0.4134 -0.8332 -0.4240
   20SAPC  H15R 2623   1.252   1.543   9.340  1.6107 -2.0009 -1.5432
   20SAPC  C216 2624   1.471   1.522   9.385  0.2399 -0.0489  0.4468
   20SAPC  H16R 2625   1.484   1.412   9.385  0.5399 -0.0140  0.3138
   20SAPC  H16S 2626   1.542   1.554   9.464  1.0671 -1.7216  0.4234
   20SAPC  C217 2627   1.525   1.580   9.254 -0.2213  0.5194 -0.0956
   20SAPC  H17R 2628   1.631   1.546   9.249 -0.0365  1.2617 -1.5454
   20SAPC  H17S 2629   1.515   1.690   9.250  1.6972  0.6954 -1.8017
   20SAPC  C218 2630   1.463   1.509   9.133  0.0495 -0.2195 -0.1894
   20SAPC  H18R 2631   1.354   1.518   9.150  0.2916  0.7805  0.9258
   20SAPC  H18S 2632   1.489   1.401   9.126 -0.0998 -0.2027 -1.0686
   20SAPC  C219 2633   1.488   1.576   9.001  0.3014 -0.4841 -0.5595
   20SAPC  H19R 2634   1.473   1.685   9.015 -0.0545 -0.4132 -1.4469
   20SAPC  H19S 2635   1.400   1.534   8.948 -0.0606 -1.3965  0.6899
   20SAPC  C220 2636   1.606   1.531   8.920  0.0654  0.4793 -0.0105
   20SAPC  H20R 2637   1.605   1.432   8.869  0.4366  0.4092  0.1127
   20SAPC  H20S 2638   1.700   1.530   8.980 -0.1645  2.2413  0.4076
   20SAPC  H20T 2639   1.628   1.610   8.845  1.3180 -0.7323 -0.9791
   20SAPC   C33 2640   1.342   0.773  10.177  0.3525  0.0957 -0.9728
   20SAPC   H3X 2641   1.251   0.734  10.230 -0.6957  2.7470 -0.6639
   20SAPC   H3Y 2642   1.427   0.706  10.200  0.6119  0.5743 -0.5156
   20SAPC   C34 2643   1.324   0.776  10.026  0.1831  0.0331  0.0879
   20SAPC   H4X 2644   1.417   0.824   9.990 -0.3144  1.5655  0.7954
   20SAPC   H4Y 2645   1.238   0.846  10.017  0.8190  1.0781  1.7356
   20SAPC   C35 2646   1.300   0.636   9.961 -0.0863 -0.2288 -0.1606
   20SAPC   H5X 2647   1.206   0.582   9.983  0.1681 -1.1325 -1.2044
   20SAPC   H5Y 2648   1.376   0.579  10.017 -0.7140 -0.4415  0.4850
   20SAPC   C36 2649   1.337   0.630   9.813  0.3963 -1.3036  0.3595
   20SAPC   H6X 2650   1.349   0.523   9.786 -0.6904 -1.4585  0.4512
   20SAPC   H6Y 2651   1.432   0.686   9.800  0.5352 -1.8605 -1.2666
   20SAPC   C37 2652   1.229   0.684   9.709 -0.0883  0.1250  0.2859
   20SAPC   H7X 2653   1.207   0.792   9.721 -2.5312 -0.4222  1.2906
   20SAPC   H7Y 2654   1.134   0.627   9.716  1.5952 -2.9430 -0.4294
   20SAPC   C38 2655   1.282   0.676   9.563  0.1660 -0.0451 -0.2538
   20SAPC   H8X 2656   1.375   0.735   9.554 -0.1567  0.7907  1.5144
   20SAPC   H8Y 2657   1.207   0.737   9.508  0.0904 -1.4711 -1.8579
   20SAPC   C39 2658   1.276   0.537   9.492  0.0514 -0.4967 -0.1362
   20SAPC   H9X 2659   1.174   0.493   9.495 -0.9748  1.7439  1.9418
   20SAPC   H9Y 2660   1.332   0.471   9.562  1.5703  0.5288 -0.3288
   20SAPC  C310 2661   1.325   0.553   9.352  0.1589  0.2009 -0.2188
   20SAPC  H10X 2662   1.434   0.573   9.356  0.4893 -1.7012  0.7645
   20SAPC  H10Y 2663   1.277   0.636   9.294  0.8161  0.1668 -0.8205
   20SAPC  C311 2664   1.303   0.421   9.265  0.0203 -0.2090  0.0395
   20SAPC  H11X 2665   1.309   0.450   9.158 -2.3244 -0.5775 -0.2341
   20SAPC  H11Y 2666   1.198   0.387   9.273 -0.4115  0.5910 -1.6944
   20SAPC  C312 2667   1.412   0.305   9.281 -0.8100 -0.1239 -0.8352
   20SAPC  H12X 2668   1.407   0.267   9.385  4.1208  0.4008 -0.1449
   20SAPC  H12Y 2669   1.509   0.359   9.279 -0.9262  0.0687 -1.5788
   20SAPC  C313 2670   1.390   0.188   9.187 -0.5752 -0.3931  0.4211
   20SAPC  H13X 2671   1.389   0.213   9.078 -0.4360  0.7100  0.6609
   20SAPC  H13Y 2672   1.289   0.152   9.216  0.6166 -1.9342  2.9867
   20SAPC  C314 2673   1.480   0.071   9.202  0.1131  0.0931  0.4223
   20SAPC  H14X 2674   1.497   0.042   9.308 -3.8596  0.9506  1.4401
   20SAPC  H14Y 2675   1.580   0.105   9.167  0.0474  0.9936  1.0929
   20SAPC  C315 2676   1.431  -0.049   9.120 -0.2466  0.0653 -0.2772
   20SAPC  H15X 2677   1.434  -0.011   9.016  0.8422  0.6058 -0.0640
   20SAPC  H15Y 2678   1.326  -0.061   9.154 -0.0253  2.3334  1.4102
   20SAPC  C316 2679   1.511  -0.174   9.138 -0.2144 -0.1484  0.4820
   20SAPC  H16X 2680   1.540  -0.192   9.243  2.5357 -0.1088 -0.1891
   20SAPC  H16Y 2681   1.613  -0.155   9.097 -0.3841  0.5382  0.3726
   20SAPC  C317 2682   1.449  -0.298   9.076 -0.4321  0.1652  1.0302
   20SAPC  H17X 2683   1.378  -0.269   8.995 -0.0318 -1.1849  0.1674
   20SAPC  H17Y 2684   1.379  -0.354   9.142 -0.2667 -1.5122 -0.1439
   20SAPC  C318 2685   1.546  -0.395   9.011  0.0225 -0.5564 -0.3542
   20SAPC  H18X 2686   1.591  -0.351   8.920 -2.4435  0.4499 -1.1619
   20SAPC  H18Y 2687   1.496  -0.491   8.985 -1.1829 -0.4367  1.4025
   20SAPC  H18Z 2688   1.636  -0.413   9.074 -0.6740  3.4151  2.0861
   21SAPC     N 2689   2.332   0.940  10.885  0.4035 -0.6207 -0.1435
   21SAPC   C12 2690   2.405   0.836  10.804  1.0659  0.2987  0.0815
   21SAPC  H12A 2691   2.378   0.742  10.851  0.9019  1.1002  1.6512
   21SAPC  H12B 2692   2.512   0.847  10.805  1.1157 -0.1563 -0.0361
   21SAPC   C13 2693   2.359   1.078  10.826 -0.3288  0.0815  0.1755
   21SAPC  H13A 2694   2.309   1.093  10.732 -2.1814 -1.0593  0.9209
   21SAPC  H13B 2695   2.318   1.155  10.889  1.2845  1.1442 -0.0208
   21SAPC  H13C 2696   2.464   1.101  10.826 -0.6524  1.6489 -0.0715
   21SAPC   C14 2697   2.186   0.926  10.883 -0.0470 -0.3975 -0.4136
   21SAPC  H14A 2698   2.135   0.998  10.946 -2.4455 -0.8941 -1.6617
   21SAPC  H14B 2699   2.141   0.937  10.785  0.2497 -2.8989 -0.8834
   21SAPC  H14C 2700   2.152   0.830  10.919  1.3931  0.1334  2.6619
   21SAPC   C15 2701   2.376   0.932  11.027 -0.5024 -0.4214  0.3682
   21SAPC  H15A 2702   2.394   0.834  11.068 -0.0086 -1.5319 -2.2871
   21SAPC  H15B 2703   2.472   0.981  11.034 -1.8777  2.4290  1.0267
   21SAPC  H15C 2704   2.309   0.988  11.092  0.5684  1.3848 -0.0102
   21SAPC   C11 2705   2.366   0.829  10.649  0.1826  0.2350  0.4997
   21SAPC  H11A 2706   2.255   0.825  10.642  0.1284 -1.0212  1.5936
   21SAPC  H11B 2707   2.400   0.728  10.617 -1.7526 -0.4701  0.5349
   21SAPC     P 2708   2.566   0.943  10.535 -0.3211 -0.0193  0.0624
   21SAPC   O13 2709   2.600   1.085  10.505  0.2062 -0.4667  0.0245
   21SAPC   O14 2710   2.652   0.879  10.635 -0.3810 -0.2719 -0.6471
   21SAPC   O12 2711   2.414   0.935  10.578  0.0164 -0.3871 -0.7129
   21SAPC   O11 2712   2.578   0.867  10.396 -0.3207  0.1288 -0.5504
   21SAPC    C1 2713   2.468   0.833  10.312  0.6577  0.5743  0.4926
   21SAPC    HA 2714   2.479   0.727  10.282  1.7651  1.1490 -1.3303
   21SAPC    HB 2715   2.368   0.834  10.360  1.7441  0.5685  2.8911
   21SAPC    C2 2716   2.457   0.916  10.185 -0.6133 -1.1869  0.1706
   21SAPC    HS 2717   2.422   1.017  10.216  2.3027  0.1296 -0.4755
   21SAPC   O21 2718   2.363   0.859  10.087 -0.2392  0.6430 -0.1359
   21SAPC   C21 2719   2.289   0.942  10.024  0.8736  0.0229 -0.0478
   21SAPC   O22 2720   2.290   1.064  10.037  0.7190 -0.5555  0.5880
   21SAPC   C22 2721   2.194   0.853   9.940 -0.0494  0.3023  0.1239
   21SAPC   H2R 2722   2.195   0.759  10.000  0.1462  0.2644  0.0601
   21SAPC   H2S 2723   2.096   0.906   9.938 -0.8052 -1.0640  0.0978
   21SAPC    C3 2724   2.602   0.936  10.136 -0.4969  0.3626 -0.4631
   21SAPC    HX 2725   2.652   0.839  10.155 -1.0620  0.0381 -0.5839
   21SAPC    HY 2726   2.645   0.999  10.217  0.3764  1.2866 -1.6093
   21SAPC   O31 2727   2.608   0.981   9.999 -1.0877  0.3324 -0.5564
   21SAPC   C31 2728   2.691   1.075   9.970 -0.9468 -0.1667  0.2394
   21SAPC   O32 2729   2.767   1.132  10.048  0.2612  0.2904  0.1697
   21SAPC   C32 2730   2.665   1.110   9.825 -0.3147  0.5824 -0.3802
   21SAPC   H2X 2731   2.579   1.179   9.837 -2.2526 -1.6004 -0.9836
   21SAPC   H2Y 2732   2.623   1.021   9.774 -0.4359  0.0539  0.6025
   21SAPC   C23 2733   2.252   0.818   9.800 -0.5103  0.0950 -0.6038
   21SAPC   H3R 2734   2.198   0.723   9.784  0.1416 -0.2423 -0.8695
   21SAPC   H3S 2735   2.359   0.787   9.797 -0.1828  1.0657  0.5132
   21SAPC   C24 2736   2.219   0.916   9.689 -0.4965 -0.1044  0.7753
   21SAPC   H4R 2737   2.119   0.964   9.694 -0.7847 -0.3315 -1.8495
   21SAPC   H4S 2738   2.219   0.851   9.599 -0.7639  0.2275  0.5372
   21SAPC   C25 2739   2.332   1.016   9.684  0.0342  0.1897  0.4972
   21SAPC   H5R 2740   2.368   1.057   9.779  0.9858  1.2561 -0.2943
   21SAPC   C26 2741   2.384   1.072   9.574 -0.1005 -0.4054 -0.2792
   21SAPC   H6R 2742   2.461   1.150   9.584  0.8172 -1.1316 -1.4376
   21SAPC   C27 2743   2.348   1.040   9.438 -0.3633 -0.0858 -0.2956
   21SAPC   H7R 2744   2.307   1.138   9.404  0.9444  0.5151 -0.2354
   21SAPC   H7S 2745   2.256   0.978   9.435 -0.1882 -0.5513  1.9674
   21SAPC   C28 2746   2.455   0.996   9.338 -0.2660  0.2642 -0.0155
   21SAPC   H8R 2747   2.492   0.893   9.352 -0.1380  0.3241  0.0882
   21SAPC   C29 2748   2.524   1.080   9.252 -0.0239  0.4795  0.4551
   21SAPC   H9R 2749   2.608   1.036   9.195 -1.4437  0.6837 -1.9344
   21SAPC  C210 2750   2.492   1.224   9.214 -0.2758 -0.0646 -0.2438
   21SAPC  H10R 2751   2.591   1.275   9.208 -0.2542  0.0586  1.0031
   21SAPC  H10S 2752   2.444   1.266   9.305 -1.5562 -3.0786  0.5952
   21SAPC  C211 2753   2.405   1.223   9.087 -0.4581 -0.0881 -0.3114
   21SAPC  H11R 2754   2.329   1.144   9.085  0.5185 -1.0367 -1.2941
   21SAPC  C212 2755   2.429   1.282   8.971 -0.2247 -0.5702 -0.2636
   21SAPC  H12R 2756   2.352   1.280   8.892 -1.1478 -1.7034  0.6208
   21SAPC  C213 2757   2.545   1.369   8.932  0.3245 -0.8554  0.7581
   21SAPC  H13R 2758   2.610   1.372   9.022 -1.8763 -0.1973  2.4033
   21SAPC  H13S 2759   2.510   1.474   8.927  0.6545 -0.7762 -0.0974
   21SAPC  C214 2760   2.614   1.314   8.808 -0.2641  0.2805 -0.6830
   21SAPC  H14R 2761   2.629   1.205   8.814 -1.4225  0.1508  0.3018
   21SAPC  C215 2762   2.673   1.383   8.710 -0.3176  0.0947 -0.4768
   21SAPC  H15R 2763   2.737   1.327   8.640  0.6623 -3.8118  3.0776
   21SAPC  C216 2764   2.680   1.540   8.711  0.0432 -0.5681  0.2186
   21SAPC  H16R 2765   2.787   1.568   8.719  0.3612 -1.4832 -0.6303
   21SAPC  H16S 2766   2.622   1.572   8.800 -0.0593 -3.6186  1.3735
   21SAPC  C217 2767   2.606   1.606   8.596  0.6160  0.0558  0.2412
   21SAPC  H17R 2768   2.572   1.707   8.629  0.5925  0.3056 -0.5198
   21SAPC  H17S 2769   2.514   1.543   8.591  0.2049  0.6881 -0.4531
   21SAPC  C218 2770   2.667   1.586   8.455 -0.2726 -0.1136  0.2279
   21SAPC  H18R 2771   2.735   1.498   8.462 -0.1564 -0.0136  0.3611
   21SAPC  H18S 2772   2.735   1.672   8.440  0.3302 -0.2837  1.7766
   21SAPC  C219 2773   2.573   1.564   8.340  0.7212 -0.6560  0.1992
   21SAPC  H19R 2774   2.490   1.638   8.346  1.5917  0.2441  1.4676
   21SAPC  H19S 2775   2.518   1.467   8.327  0.9241 -0.5933 -1.2152
   21SAPC  C220 2776   2.632   1.582   8.199  0.4247  0.1757 -0.3125
   21SAPC  H20R 2777   2.717   1.512   8.179 -0.9990 -1.5272 -0.7205
   21SAPC  H20S 2778   2.656   1.688   8.177 -1.2234  0.5654 -0.3422
   21SAPC  H20T 2779   2.560   1.541   8.125  0.0546  0.7265 -0.2656
   21SAPC   C33 2780   2.777   1.187   9.746  0.5950 -0.5467  0.9304
   21SAPC   H3X 2781   2.868   1.125   9.758  1.8479  1.0430  0.0327
   21SAPC   H3Y 2782   2.799   1.288   9.787  1.6208 -1.0535  1.6508
   21SAPC   C34 2783   2.755   1.209   9.588  0.4001  0.0188 -0.9850
   21SAPC   H4X 2784   2.691   1.297   9.566 -1.7529 -1.3122 -0.4333
   21SAPC   H4Y 2785   2.700   1.117   9.557 -3.3669  1.4251  0.9023
   21SAPC   C35 2786   2.891   1.214   9.522  0.1151  0.2178  0.3220
   21SAPC   H5X 2787   2.942   1.116   9.538 -0.8502 -0.1985  0.9595
   21SAPC   H5Y 2788   2.961   1.286   9.569  0.0352 -0.1100  0.9535
   21SAPC   C36 2789   2.865   1.261   9.372 -0.2214  0.0851 -0.1068
   21SAPC   H6X 2790   2.825   1.364   9.375 -3.8447 -1.1664  2.8963
   21SAPC   H6Y 2791   2.778   1.203   9.334 -0.8960  0.3569  0.9793
   21SAPC   C37 2792   2.982   1.245   9.269  0.1611 -0.1622  0.7594
   21SAPC   H7X 2793   2.995   1.139   9.240  0.0531 -0.0001  0.0972
   21SAPC   H7Y 2794   3.074   1.278   9.322 -1.1062  0.2485  2.8345
   21SAPC   C38 2795   2.955   1.324   9.138  0.3117  0.0135  0.7906
   21SAPC   H8X 2796   2.973   1.430   9.164 -0.2268 -0.1194  1.7651
   21SAPC   H8Y 2797   2.852   1.310   9.098  1.1290 -1.5208 -0.9361
   21SAPC   C39 2798   3.052   1.289   9.027 -0.5637  0.1239 -0.0257
   21SAPC   H9X 2799   3.158   1.275   9.056 -0.4674 -0.6330 -0.7029
   21SAPC   H9Y 2800   3.052   1.376   8.958 -0.0237  1.1534  1.2242
   21SAPC  C310 2801   3.017   1.158   8.961 -0.4422  0.2559  0.5981
   21SAPC  H10X 2802   2.907   1.150   8.945 -0.2927 -1.1250  0.1668
   21SAPC  H10Y 2803   3.054   1.084   9.035  3.3081  0.3533 -0.9569
   21SAPC  C311 2804   3.093   1.152   8.827  0.2128 -0.4571  0.2381
   21SAPC  H11X 2805   3.204   1.161   8.838  0.2931 -2.5608  1.7023
   21SAPC  H11Y 2806   3.055   1.242   8.775 -0.4222 -1.5156 -1.1957
   21SAPC  C312 2807   3.061   1.032   8.732  0.5587  0.6603 -0.5738
   21SAPC  H12X 2808   3.123   0.944   8.760  0.5675  1.0303  0.6127
   21SAPC  H12Y 2809   3.081   1.044   8.623  0.4867  1.9978 -0.4620
   21SAPC  C313 2810   2.919   0.993   8.751  0.0406 -0.5651 -0.3744
   21SAPC  H13X 2811   2.858   1.076   8.710  0.9545  0.9573  1.2035
   21SAPC  H13Y 2812   2.877   0.979   8.853  0.4739  0.2229 -0.0825
   21SAPC  C314 2813   2.876   0.869   8.667  0.4257 -0.1104 -0.3234
   21SAPC  H14X 2814   2.894   0.778   8.728  0.4897 -0.1934 -0.4658
   21SAPC  H14Y 2815   2.948   0.865   8.582 -0.0212  2.4167 -0.8891
   21SAPC  C315 2816   2.730   0.878   8.619  0.1067 -0.5580  0.9144
   21SAPC  H15X 2817   2.709   0.985   8.601 -0.4593 -0.8035  0.0357
   21SAPC  H15Y 2818   2.663   0.839   8.698 -2.9801  1.3383 -0.5535
   21SAPC  C316 2819   2.680   0.811   8.487  0.6019  0.2299 -0.6100
   21SAPC  H16X 2820   2.668   0.705   8.519  0.5527  1.6813  5.2892
   21SAPC  H16Y 2821   2.764   0.799   8.415  1.5793 -0.1938  0.5643
   21SAPC  C317 2822   2.553   0.874   8.424  0.1513  0.2886 -0.6633
   21SAPC  H17X 2823   2.576   0.927   8.329  0.9071  0.2289 -0.5201
   21SAPC  H17Y 2824   2.509   0.954   8.487  1.0623  0.2897 -0.0117
   21SAPC  C318 2825   2.436   0.772   8.407 -0.1022  0.2560 -0.5633
   21SAPC  H18X 2826   2.467   0.684   8.347  0.7333  0.5097 -0.5189
   21SAPC  H18Y 2827   2.355   0.831   8.358 -0.0205  1.1234  0.3160
   21SAPC  H18Z 2828   2.412   0.740   8.511 -0.0284 -1.1821 -0.9753
   22SAPC     N 2829   6.509   0.835  10.811  0.6953  0.0111  0.0104
   22SAPC   C12 2830   6.447   0.979  10.792 -0.1829  0.7132  0.4372
   22SAPC  H12A 2831   6.429   0.989  10.686  1.5359  1.0438  0.1438
   22SAPC  H12B 2832   6.520   1.049  10.828 -0.1244 -0.0762  1.8932
   22SAPC   C13 2833   6.526   0.803  10.958 -0.9066  0.1726 -0.6681
   22SAPC  H13A 2834   6.594   0.722  10.978 -0.7123  0.5019  0.0213
   22SAPC  H13B 2835   6.562   0.892  11.008 -2.2913  0.9040 -0.9236
   22SAPC  H13C 2836   6.431   0.785  11.006 -0.5039  2.0435  0.9568
   22SAPC   C14 2837   6.430   0.725  10.748  0.5614  0.6143 -0.0861
   22SAPC  H14A 2838   6.323   0.743  10.754  0.9217  3.0968 -0.1542
   22SAPC  H14B 2839   6.450   0.710  10.643  1.2740  2.7363 -0.2970
   22SAPC  H14C 2840   6.446   0.631  10.800 -1.9313 -0.3290 -0.8710
   22SAPC   C15 2841   6.643   0.834  10.751 -0.0162  0.6570 -0.2936
   22SAPC  H15A 2842   6.708   0.890  10.816  1.7740 -2.8261  1.1709
   22SAPC  H15B 2843   6.677   0.732  10.760 -0.2486  0.1796 -3.5962
   22SAPC  H15C 2844   6.642   0.866  10.648  0.0129 -0.3790 -0.6308
   22SAPC   C11 2845   6.313   1.004  10.867  0.4256 -0.1927 -0.1596
   22SAPC  H11A 2846   6.283   1.110  10.852 -0.1191 -0.4935 -1.3137
   22SAPC  H11B 2847   6.331   0.992  10.976 -0.5542  1.4177  0.2155
   22SAPC     P 2848   6.135   0.916  10.700 -0.2229 -0.2449  0.3392
   22SAPC   O13 2849   6.102   0.777  10.668  0.1580  0.0305 -0.0524
   22SAPC   O14 2850   6.025   1.013  10.713  0.3684 -0.1962  0.1100
   22SAPC   O12 2851   6.217   0.909  10.833  0.9967 -0.4885  0.0014
   22SAPC   O11 2852   6.246   0.968  10.588  0.3031 -0.2933 -0.1726
   22SAPC    C1 2853   6.201   1.017  10.463  0.1768 -0.5902  0.5307
   22SAPC    HA 2854   6.135   0.942  10.414 -0.4799  0.6022 -0.4833
   22SAPC    HB 2855   6.140   1.108  10.482 -0.7659 -1.5966  2.6124
   22SAPC    C2 2856   6.325   1.052  10.371  0.6905  0.2510  0.0545
   22SAPC    HS 2857   6.378   1.140  10.414 -1.0663  0.6252  1.5916
   22SAPC   O21 2858   6.284   1.084  10.237 -0.1866  0.0548 -0.2019
   22SAPC   C21 2859   6.217   1.199  10.225  0.4339 -1.3690 -0.4336
   22SAPC   O22 2860   6.188   1.270  10.325  0.5220  0.1855  0.4292
   22SAPC   C22 2861   6.178   1.224  10.083 -0.5810  0.1600  0.7260
   22SAPC   H2R 2862   6.081   1.278  10.078  0.6617  2.4078 -0.9986
   22SAPC   H2S 2863   6.261   1.278  10.032 -0.2909 -0.2837  0.7224
   22SAPC    C3 2864   6.417   0.928  10.372  0.3353  0.1553  0.0331
   22SAPC    HX 2865   6.356   0.840  10.342 -0.9386  1.3356 -0.9600
   22SAPC    HY 2866   6.451   0.921  10.477  0.6098 -0.6577 -0.1004
   22SAPC   O31 2867   6.518   0.953  10.274  0.0386 -0.1182  0.1582
   22SAPC   C31 2868   6.597   0.852  10.249  0.0427 -0.1517  0.6363
   22SAPC   O32 2869   6.588   0.739  10.299 -0.0060  0.1117  0.3791
   22SAPC   C32 2870   6.709   0.888  10.150  0.3880 -0.5451 -0.8638
   22SAPC   H2X 2871   6.784   0.809  10.168 -0.4539 -0.5888  3.7816
   22SAPC   H2Y 2872   6.766   0.973  10.193 -0.2810 -0.0305 -0.9714
   22SAPC   C23 2873   6.164   1.094  10.002  0.1616  0.0003 -0.2799
   22SAPC   H3R 2874   6.099   1.015  10.045 -1.0738  1.0822 -0.1210
   22SAPC   H3S 2875   6.264   1.047   9.986 -0.5512 -1.1467 -1.6021
   22SAPC   C24 2876   6.108   1.126   9.860  0.3804 -0.1807 -1.1097
   22SAPC   H4R 2877   6.156   1.206   9.800  0.7641 -1.1426 -2.1104
   22SAPC   H4S 2878   6.013   1.181   9.873  0.4758 -0.1764 -0.3725
   22SAPC   C25 2879   6.093   0.994   9.788 -0.0889  0.2174  0.7453
   22SAPC   H5R 2880   6.008   0.931   9.818 -1.0631 -0.0431 -2.2533
   22SAPC   C26 2881   6.168   0.956   9.679  1.0156  0.2692  0.1189
   22SAPC   H6R 2882   6.146   0.861   9.627  0.1340  1.6272 -2.1707
   22SAPC   C27 2883   6.275   1.035   9.616 -0.6938 -0.3552  0.5895
   22SAPC   H7R 2884   6.327   1.103   9.687 -2.1047  0.7431  0.6227
   22SAPC   H7S 2885   6.238   1.106   9.539 -1.6305 -0.5742  0.8272
   22SAPC   C28 2886   6.378   0.942   9.557  0.2769 -0.2678 -0.0166
   22SAPC   H8R 2887   6.422   0.879   9.636 -1.5326  0.0819  1.3131
   22SAPC   C29 2888   6.415   0.924   9.428 -0.7733 -0.0943 -0.8594
   22SAPC   H9R 2889   6.497   0.854   9.411  0.2575  0.4773  1.3227
   22SAPC  C210 2890   6.369   1.012   9.313 -0.1316  1.2520  0.0485
   22SAPC  H10R 2891   6.442   1.014   9.230  0.7042 -1.3150  0.6340
   22SAPC  H10S 2892   6.350   1.114   9.351 -1.2543  0.4859  1.6646
   22SAPC  C211 2893   6.231   0.972   9.263 -0.4030  0.0008 -0.0722
   22SAPC  H11R 2894   6.161   0.988   9.346 -0.1128  0.3700  0.1048
   22SAPC  C212 2895   6.203   0.908   9.149 -0.2408 -0.7229  0.5308
   22SAPC  H12R 2896   6.102   0.865   9.140 -0.0775 -1.6429  2.5845
   22SAPC  C213 2897   6.297   0.873   9.032 -0.7025 -0.0069  0.0640
   22SAPC  H13R 2898   6.287   0.767   8.999  1.7558  0.1508 -1.3504
   22SAPC  H13S 2899   6.399   0.871   9.076 -0.5490 -1.3555 -0.3094
   22SAPC  C214 2900   6.279   0.968   8.915 -0.2365  0.3557  0.8018
   22SAPC  H14R 2901   6.183   0.943   8.868 -1.2146  0.6012  2.5459
   22SAPC  C215 2902   6.367   1.060   8.867  0.0632  0.2823  0.1343
   22SAPC  H15R 2903   6.331   1.127   8.788 -1.5403 -0.0042  0.5862
   22SAPC  C216 2904   6.504   1.096   8.909 -0.1908 -0.4320  0.2956
   22SAPC  H16R 2905   6.567   1.109   8.819  1.2380  0.8748  1.4271
   22SAPC  H16S 2906   6.548   1.009   8.962 -0.5463 -0.9852 -0.3028
   22SAPC  C217 2907   6.495   1.224   8.995 -0.9089 -0.4148 -0.1862
   22SAPC  H17R 2908   6.422   1.213   9.078  1.5344 -0.5155  2.0811
   22SAPC  H17S 2909   6.448   1.303   8.932 -1.7827 -0.7476  0.0305
   22SAPC  C218 2910   6.632   1.257   9.062  0.2580 -0.5537 -0.2958
   22SAPC  H18R 2911   6.693   1.298   8.980 -1.6156 -1.3579 -2.2088
   22SAPC  H18S 2912   6.687   1.166   9.094 -0.3541 -0.8018  0.0850
   22SAPC  C219 2913   6.610   1.349   9.178  0.3964  0.1222  0.1411
   22SAPC  H19R 2914   6.543   1.304   9.254  0.1995  0.1680 -0.0020
   22SAPC  H19S 2915   6.560   1.445   9.149  2.1007  1.4669  1.4432
   22SAPC  C220 2916   6.738   1.387   9.250  0.4538  0.0599  0.7552
   22SAPC  H20R 2917   6.716   1.424   9.353 -3.5309 -0.4935  0.2544
   22SAPC  H20S 2918   6.794   1.461   9.189  0.4109  0.0822  0.7423
   22SAPC  H20T 2919   6.793   1.291   9.250 -1.1286 -0.8957 -0.6665
   22SAPC   C33 2920   6.658   0.918  10.012 -0.3874  0.1266  1.0434
   22SAPC   H3X 2921   6.573   0.988  10.018 -0.7336 -0.3446  1.7493
   22SAPC   H3Y 2922   6.625   0.823   9.963  1.3831 -1.3127  2.4613
   22SAPC   C34 2923   6.769   0.988   9.921 -0.4296 -0.4118 -0.2794
   22SAPC   H4X 2924   6.835   0.903   9.893  0.5873  0.4765 -0.6556
   22SAPC   H4Y 2925   6.827   1.053   9.990  0.8675  1.5459 -3.0438
   22SAPC   C35 2926   6.708   1.045   9.798 -0.1922 -0.5105  0.3127
   22SAPC   H5X 2927   6.633   1.126   9.808  0.9710  0.5049  1.1551
   22SAPC   H5Y 2928   6.666   0.957   9.745 -0.7371 -1.9496  2.9663
   22SAPC   C36 2929   6.822   1.113   9.712  0.3761  0.0418 -0.0818
   22SAPC   H6X 2930   6.909   1.048   9.735  2.8206  3.1153  0.1402
   22SAPC   H6Y 2931   6.850   1.215   9.749 -1.5754  0.7586 -0.4696
   22SAPC   C37 2932   6.797   1.128   9.559 -0.1763 -0.0300 -0.4104
   22SAPC   H7X 2933   6.878   1.182   9.505 -0.1503 -0.1759 -0.5170
   22SAPC   H7Y 2934   6.704   1.185   9.538  0.5733  1.0783 -0.8057
   22SAPC   C38 2935   6.800   0.992   9.491  0.0399  0.2747  0.4434
   22SAPC   H8X 2936   6.708   0.939   9.524 -1.0496  1.2532 -0.8723
   22SAPC   H8Y 2937   6.888   0.929   9.514  1.0047  1.6539  0.6421
   22SAPC   C39 2938   6.792   1.004   9.333 -0.6160  0.1261  0.0896
   22SAPC   H9X 2939   6.885   1.057   9.302 -0.9344  0.5311 -0.1766
   22SAPC   H9Y 2940   6.707   1.061   9.290 -0.9549 -2.2292 -2.6514
   22SAPC  C310 2941   6.771   0.871   9.273 -0.2359 -0.5575 -0.8780
   22SAPC  H10X 2942   6.670   0.829   9.291  0.7828 -2.5892  0.4257
   22SAPC  H10Y 2943   6.843   0.799   9.318  0.9161  0.6210 -0.7943
   22SAPC  C311 2944   6.808   0.868   9.127  0.3810  0.4625  0.3044
   22SAPC  H11X 2945   6.918   0.886   9.122  0.7744 -1.5525  0.8678
   22SAPC  H11Y 2946   6.767   0.962   9.084  1.7903  0.9390 -0.0504
   22SAPC  C312 2947   6.763   0.751   9.045 -0.8060  0.3460 -0.3006
   22SAPC  H12X 2948   6.653   0.750   9.031 -0.7152  0.6133 -1.0880
   22SAPC  H12Y 2949   6.788   0.661   9.106 -1.5665 -0.3878 -1.0432
   22SAPC  C313 2950   6.839   0.745   8.912 -0.2832 -0.1012  0.5985
   22SAPC  H13X 2951   6.946   0.736   8.938 -0.0252 -2.3764 -1.0230
   22SAPC  H13Y 2952   6.813   0.837   8.855 -0.5386 -0.3689  0.2847
   22SAPC  C314 2953   6.805   0.624   8.818  0.2527 -0.2352 -0.4306
   22SAPC  H14X 2954   6.700   0.634   8.785  0.6805 -2.2884 -2.6569
   22SAPC  H14Y 2955   6.826   0.531   8.875  0.8590  0.4005  0.4249
   22SAPC  C315 2956   6.893   0.632   8.689  0.1117 -0.1018 -0.1268
   22SAPC  H15X 2957   6.999   0.629   8.721 -0.6398 -1.0818  2.5620
   22SAPC  H15Y 2958   6.870   0.730   8.642  3.1719 -0.4336 -2.6136
   22SAPC  C316 2959   6.867   0.516   8.600  0.2259  0.5079  0.3092
   22SAPC  H16X 2960   6.772   0.468   8.630 -0.6850  2.8275  1.3583
   22SAPC  H16Y 2961   6.942   0.436   8.616 -0.4679 -0.6875 -2.1025
   22SAPC  C317 2962   6.878   0.541   8.445  0.3410 -0.1999  0.3742
   22SAPC  H17X 2963   6.982   0.579   8.435  0.6238 -1.2129 -0.7495
   22SAPC  H17Y 2964   6.804   0.618   8.415  0.2471 -0.5599 -0.3544
   22SAPC  C318 2965   6.864   0.417   8.361 -0.3673 -0.0739 -0.2044
   22SAPC  H18X 2966   6.758   0.396   8.337 -0.8054  0.0964  1.4346
   22SAPC  H18Y 2967   6.908   0.335   8.423  1.3000  1.9997  1.5440
   22SAPC  H18Z 2968   6.924   0.431   8.269  0.2259  1.6703  0.3982
   23SAPC     N 2969   3.458   1.759  10.965  0.4954  0.1951  0.1762
   23SAPC   C12 2970   3.535   1.868  10.892 -0.1285  0.4955  0.1785
   23SAPC  H12A 2971   3.623   1.876  10.955  0.2199 -0.4234 -0.1742
   23SAPC  H12B 2972   3.482   1.961  10.906 -1.7006 -0.3581  0.1272
   23SAPC   C13 2973   3.422   1.793  11.106  0.6662 -0.0636  0.4396
   23SAPC  H13A 2974   3.512   1.799  11.165  0.3991 -2.5093  1.2277
   23SAPC  H13B 2975   3.364   1.884  11.103  1.4341  0.4489 -2.0117
   23SAPC  H13C 2976   3.366   1.709  11.145 -0.9080 -0.2028 -1.8589
   23SAPC   C14 2977   3.325   1.748  10.893  0.2140  0.4502 -0.0251
   23SAPC  H14A 2978   3.259   1.681  10.945  2.9322 -1.2961  1.4379
   23SAPC  H14B 2979   3.274   1.843  10.902  1.0422  0.8010  1.4291
   23SAPC  H14C 2980   3.345   1.726  10.789 -0.0395 -1.6537  0.3405
   23SAPC   C15 2981   3.528   1.630  10.959 -0.2199  0.1235  0.0727
   23SAPC  H15A 2982   3.569   1.607  10.862  0.2440 -0.3824  0.3831
   23SAPC  H15B 2983   3.606   1.612  11.032 -2.6564 -1.3629  2.5042
   23SAPC  H15C 2984   3.456   1.552  10.981 -0.4393  0.2833 -0.0706
   23SAPC   C11 2985   3.580   1.855  10.744 -0.1753 -0.2130 -0.1373
   23SAPC  H11A 2986   3.624   1.754  10.729  1.0906  0.4135 -0.8716
   23SAPC  H11B 2987   3.661   1.928  10.720 -0.4010  0.0023 -0.2463
   23SAPC     P 2988   3.443   2.003  10.570 -0.4932 -0.1735  0.3571
   23SAPC   O13 2989   3.314   1.993  10.497  0.3504 -1.0214 -0.2891
   23SAPC   O14 2990   3.464   2.130  10.646 -0.4500 -0.0256 -0.6662
   23SAPC   O12 2991   3.467   1.878  10.658  0.3156 -0.0880  0.4404
   23SAPC   O11 2992   3.559   1.992  10.469 -0.2648  0.2006  0.2398
   23SAPC    C1 2993   3.584   1.863  10.407  0.7005  0.9354 -0.2284
   23SAPC    HA 2994   3.689   1.837  10.430 -0.2747 -0.8083  2.8383
   23SAPC    HB 2995   3.528   1.779  10.453  2.5176  0.1256  0.5663
   23SAPC    C2 2996   3.559   1.847  10.252 -0.2123 -0.2829 -0.8300
   23SAPC    HS 2997   3.610   1.757  10.212  2.0515  1.2577 -1.6367
   23SAPC   O21 2998   3.599   1.959  10.174 -0.7515 -0.7209 -0.1957
   23SAPC   C21 2999   3.723   2.004  10.193  0.3747  0.2794 -0.4369
   23SAPC   O22 3000   3.810   1.940  10.247  0.4747  0.2240 -0.3423
   23SAPC   C22 3001   3.737   2.148  10.142  0.8180 -0.4345  0.4946
   23SAPC   H2R 3002   3.646   2.172  10.082  1.5995  0.4199 -0.3843
   23SAPC   H2S 3003   3.735   2.218  10.228 -0.6014  0.3730 -0.1553
   23SAPC    C3 3004   3.408   1.830  10.220  0.0172 -0.1756 -0.1871
   23SAPC    HX 3005   3.363   1.925  10.254  2.3335  0.7261  0.5033
   23SAPC    HY 3006   3.370   1.748  10.285  0.2702  1.3190  1.9062
   23SAPC   O31 3007   3.391   1.798  10.076 -0.5038 -0.0679 -0.2884
   23SAPC   C31 3008   3.265   1.809  10.039  0.6358  0.0056 -0.6810
   23SAPC   O32 3009   3.169   1.837  10.112  0.2415 -0.2547  0.2691
   23SAPC   C32 3010   3.247   1.796   9.888  0.3593 -0.0081  0.8278
   23SAPC   H2X 3011   3.241   1.687   9.870 -1.0812  0.0673  0.7080
   23SAPC   H2Y 3012   3.332   1.838   9.831 -0.2336  2.7752  1.8221
   23SAPC   C23 3013   3.869   2.163  10.057 -0.1239 -0.7148 -0.6837
   23SAPC   H3R 3014   3.951   2.125  10.123  1.1058  0.3831 -1.5414
   23SAPC   H3S 3015   3.882   2.273  10.053 -0.0640 -0.6914 -0.0409
   23SAPC   C24 3016   3.870   2.109   9.916 -0.4071  1.0765  0.7737
   23SAPC   H4R 3017   3.954   2.157   9.860  0.0757 -1.4311 -0.7975
   23SAPC   H4S 3018   3.772   2.123   9.864  0.8934 -1.5083 -2.7894
   23SAPC   C25 3019   3.905   1.960   9.928  0.3584 -0.3242  0.3055
   23SAPC   H5R 3020   4.008   1.947   9.964  1.9698  4.7765 -1.5144
   23SAPC   C26 3021   3.819   1.862   9.901  0.5093 -0.1099 -0.1294
   23SAPC   H6R 3022   3.866   1.764   9.918 -1.7145 -0.7469  3.5681
   23SAPC   C27 3023   3.680   1.870   9.848 -0.3351 -0.4098  0.0217
   23SAPC   H7R 3024   3.700   1.908   9.746  3.2054 -0.7625  0.4437
   23SAPC   H7S 3025   3.619   1.951   9.893 -0.2787  0.9584 -2.2204
   23SAPC   C28 3026   3.599   1.743   9.860  0.2158  0.1807 -0.2909
   23SAPC   H8R 3027   3.574   1.714   9.963  1.5781  0.4475  0.1321
   23SAPC   C29 3028   3.562   1.659   9.762 -0.0278  0.5682 -0.3598
   23SAPC   H9R 3029   3.536   1.559   9.800  0.7900  0.6631  0.4901
   23SAPC  C210 3030   3.581   1.676   9.609  0.3462 -0.1456 -0.3032
   23SAPC  H10R 3031   3.627   1.776   9.594 -1.2365  0.8376  1.0915
   23SAPC  H10S 3032   3.479   1.676   9.564  0.1396  1.1427  0.1251
   23SAPC  C211 3033   3.674   1.585   9.545  0.4608  0.6856 -1.0268
   23SAPC  H11R 3034   3.776   1.606   9.582  0.9383 -0.3749 -1.6969
   23SAPC  C212 3035   3.648   1.498   9.446  0.5388  0.1553  0.2779
   23SAPC  H12R 3036   3.727   1.436   9.403 -0.1091 -0.6280  0.1844
   23SAPC  C213 3037   3.516   1.472   9.381 -0.7984  0.3846  0.8204
   23SAPC  H13R 3038   3.522   1.501   9.274 -0.1559  1.7500  1.2046
   23SAPC  H13S 3039   3.437   1.542   9.415  0.7632  1.9187  1.4324
   23SAPC  C214 3040   3.467   1.326   9.389 -0.5037 -0.4780  1.0390
   23SAPC  H14R 3041   3.479   1.266   9.298  1.2629 -0.6910  1.3779
   23SAPC  C215 3042   3.398   1.267   9.490 -1.1566  0.7664 -0.1589
   23SAPC  H15R 3043   3.352   1.169   9.478 -0.7524  0.5974 -0.3714
   23SAPC  C216 3044   3.384   1.328   9.627 -0.0402 -0.0757 -0.4794
   23SAPC  H16R 3045   3.427   1.430   9.623  1.3875 -0.6718 -0.8531
   23SAPC  H16S 3046   3.454   1.268   9.689  3.8905  1.2994 -3.2049
   23SAPC  C217 3047   3.241   1.335   9.690 -0.1518  0.4598  0.0514
   23SAPC  H17R 3048   3.192   1.238   9.667  1.1559 -0.1924 -0.0952
   23SAPC  H17S 3049   3.184   1.418   9.642 -0.8562  0.8595  1.5214
   23SAPC  C218 3050   3.239   1.358   9.845 -0.2171 -0.3110  0.6752
   23SAPC  H18R 3051   3.290   1.452   9.874  2.2148 -0.9895 -1.0916
   23SAPC  H18S 3052   3.287   1.275   9.902  1.3235 -2.5786 -3.4784
   23SAPC  C219 3053   3.095   1.371   9.895  0.3406  0.9708 -0.1799
   23SAPC  H19R 3054   3.047   1.271   9.907 -0.0273  1.4975  4.9853
   23SAPC  H19S 3055   3.037   1.425   9.818 -0.1681  3.0534  1.5640
   23SAPC  C220 3056   3.090   1.452  10.020  0.2012 -0.3238  0.6293
   23SAPC  H20R 3057   2.984   1.468  10.049  0.1323 -0.0999  0.2597
   23SAPC  H20S 3058   3.140   1.550  10.010  2.2395 -1.2872  0.7697
   23SAPC  H20T 3059   3.124   1.394  10.108 -0.7086 -2.0595 -0.0992
   23SAPC   C33 3060   3.106   1.860   9.849 -0.3169  0.4064 -0.6169
   23SAPC   H3X 3061   3.065   1.931   9.924  0.7765 -0.0578  0.4640
   23SAPC   H3Y 3062   3.044   1.767   9.853  1.1945 -0.6939 -1.7378
   23SAPC   C34 3063   3.096   1.914   9.710  0.1887 -0.2851 -0.5729
   23SAPC   H4X 3064   3.146   2.014   9.707  0.8301 -0.5382  0.9195
   23SAPC   H4Y 3065   2.987   1.926   9.689 -0.0488  1.6228  1.3645
   23SAPC   C35 3066   3.156   1.826   9.601  0.2572  0.0884 -0.4496
   23SAPC   H5X 3067   3.167   1.723   9.642  1.2114 -0.1224 -1.1837
   23SAPC   H5Y 3068   3.256   1.863   9.570 -0.7739  1.9500 -1.7930
   23SAPC   C36 3069   3.082   1.824   9.465  0.3924 -0.1709  0.1865
   23SAPC   H6X 3070   3.094   1.927   9.427 -1.5747  0.5491  1.3552
   23SAPC   H6Y 3071   2.971   1.815   9.465  0.4183 -0.7438 -0.9157
   23SAPC   C37 3072   3.156   1.731   9.366  0.1549 -0.1091  0.4855
   23SAPC   H7X 3073   3.158   1.632   9.417 -2.7511  0.6797  2.3739
   23SAPC   H7Y 3074   3.257   1.768   9.340  0.6373 -1.0029  1.0178
   23SAPC   C38 3075   3.084   1.727   9.223 -0.3849 -1.0446 -0.1576
   23SAPC   H8X 3076   3.066   1.833   9.195  2.4953  0.1721  2.0913
   23SAPC   H8Y 3077   2.990   1.669   9.241 -0.8651 -0.3707 -0.4582
   23SAPC   C39 3078   3.154   1.647   9.117 -0.1590 -0.2995 -0.0475
   23SAPC   H9X 3079   3.106   1.665   9.019  0.0552  2.0756  0.2099
   23SAPC   H9Y 3080   3.158   1.536   9.122 -1.8135 -0.4269 -0.9010
   23SAPC  C310 3081   3.306   1.684   9.094  0.5191  0.8225  0.2821
   23SAPC  H10X 3082   3.375   1.656   9.177  1.1794 -2.3377 -1.1536
   23SAPC  H10Y 3083   3.311   1.794   9.081 -0.4555  0.8040 -0.3796
   23SAPC  C311 3084   3.371   1.621   8.964 -1.0909  0.2719 -0.1621
   23SAPC  H11X 3085   3.387   1.515   8.992 -1.3794  0.7480  1.8950
   23SAPC  H11Y 3086   3.468   1.669   8.936  0.7801 -3.5735 -0.9555
   23SAPC  C312 3087   3.278   1.611   8.845 -0.5872 -0.3253  0.6299
   23SAPC  H12X 3088   3.220   1.705   8.834  0.0725  0.0303  0.1258
   23SAPC  H12Y 3089   3.211   1.525   8.865  0.5724 -1.5061 -0.3562
   23SAPC  C313 3090   3.362   1.593   8.717 -0.9313 -0.1430 -0.1254
   23SAPC  H13X 3091   3.451   1.530   8.736 -0.9559 -0.0247  0.4119
   23SAPC  H13Y 3092   3.405   1.693   8.695  0.9546 -0.5525  1.4046
   23SAPC  C314 3093   3.284   1.545   8.604  0.3317  0.0049  0.4824
   23SAPC  H14X 3094   3.308   1.602   8.512 -1.7441 -0.2402 -0.2720
   23SAPC  H14Y 3095   3.175   1.564   8.610  0.4844  0.6067  1.4925
   23SAPC  C315 3096   3.310   1.394   8.579 -0.0284  0.7689 -0.0854
   23SAPC  H15X 3097   3.328   1.347   8.678  0.2848  1.6628  0.2978
   23SAPC  H15Y 3098   3.404   1.388   8.520  0.1955 -0.3192  0.3592
   23SAPC  C316 3099   3.199   1.321   8.502  0.9249  0.1654  0.7885
   23SAPC  H16X 3100   3.110   1.329   8.568  0.5204  0.8052  0.1857
   23SAPC  H16Y 3101   3.218   1.213   8.484 -1.8237 -0.4424  1.1168
   23SAPC  C317 3102   3.161   1.380   8.360 -0.3776 -0.3388 -0.2386
   23SAPC  H17X 3103   3.141   1.488   8.373 -1.2240 -0.6929  2.0289
   23SAPC  H17Y 3104   3.059   1.342   8.335 -1.6185  2.4268  0.1851
   23SAPC  C318 3105   3.259   1.332   8.253 -0.1126 -0.4669  0.6133
   23SAPC  H18X 3106   3.216   1.380   8.163  1.2320 -0.0936  0.1445
   23SAPC  H18Y 3107   3.272   1.223   8.236  0.5095 -0.2701 -0.1848
   23SAPC  H18Z 3108   3.359   1.376   8.270 -0.6048  0.9788 -0.1397
   24SAPC     N 3109   0.690   1.656  11.075  0.2227  0.3630 -0.0509
   24SAPC   C12 3110   0.777   1.684  10.946 -0.2421 -0.5152 -0.0275
   24SAPC  H12A 3111   0.721   1.742  10.874  2.0282  0.6133 -0.9978
   24SAPC  H12B 3112   0.805   1.588  10.905 -0.8268 -0.2733 -1.0264
   24SAPC   C13 3113   0.597   1.763  11.103 -0.5492  0.1056  0.4453
   24SAPC  H13A 3114   0.654   1.852  11.128 -0.3827  0.9057 -2.3273
   24SAPC  H13B 3115   0.527   1.785  11.023 -0.8807 -1.8532  0.1408
   24SAPC  H13C 3116   0.539   1.735  11.189 -0.3919 -0.2705  0.4259
   24SAPC   C14 3117   0.608   1.531  11.048  0.3114  0.3244 -0.3506
   24SAPC  H14A 3118   0.562   1.499  11.141 -2.0759 -0.6829 -1.7862
   24SAPC  H14B 3119   0.520   1.536  10.985 -0.9695 -2.7024  0.9793
   24SAPC  H14C 3120   0.661   1.451  10.999  0.6589  1.2180 -1.4733
   24SAPC   C15 3121   0.778   1.629  11.195 -0.5796  0.0562 -0.6316
   24SAPC  H15A 3122   0.731   1.612  11.291  2.7477 -2.3942  0.7701
   24SAPC  H15B 3123   0.836   1.542  11.169 -1.3775  0.0033 -2.3791
   24SAPC  H15C 3124   0.844   1.711  11.221  1.1243 -2.3696  3.9560
   24SAPC   C11 3125   0.896   1.770  10.969  0.0691 -0.2701  0.2495
   24SAPC  H11A 3126   0.880   1.858  11.036  1.0295 -0.4360  0.7163
   24SAPC  H11B 3127   0.937   1.810  10.874  0.5876 -0.4747  0.3820
   24SAPC     P 3128   1.084   1.583  10.953 -0.0614 -0.1571  0.2352
   24SAPC   O13 3129   1.206   1.545  11.025  0.3183 -0.0588 -0.8107
   24SAPC   O14 3130   0.990   1.472  10.931 -0.2248  0.1562  0.5096
   24SAPC   O12 3131   1.000   1.696  11.031 -0.0383 -0.6945 -0.4856
   24SAPC   O11 3132   1.114   1.645  10.812  0.4786  0.0857  0.4904
   24SAPC    C1 3133   1.245   1.647  10.757 -0.1357  0.4502 -0.1542
   24SAPC    HA 3134   1.277   1.753  10.752  0.5280  0.2177 -1.0397
   24SAPC    HB 3135   1.327   1.600  10.816 -0.2183 -2.4357 -2.1181
   24SAPC    C2 3136   1.252   1.591  10.611  0.1947  0.5169  0.0241
   24SAPC    HS 3137   1.354   1.606  10.570 -0.0659  0.6649 -0.5838
   24SAPC   O21 3138   1.150   1.649  10.526 -0.6825  0.3180 -0.4423
   24SAPC   C21 3139   1.185   1.774  10.503 -0.0047  0.3026  0.1143
   24SAPC   O22 3140   1.293   1.828  10.518  0.0809 -0.1715  0.1140
   24SAPC   C22 3141   1.060   1.845  10.454 -0.1416  0.5901 -0.3450
   24SAPC   H2R 3142   0.987   1.776  10.407 -0.4166 -0.4484  1.5144
   24SAPC   H2S 3143   1.026   1.892  10.549 -0.3901  0.1692 -0.2227
   24SAPC    C3 3144   1.238   1.435  10.597  0.4359  0.4347 -0.5358
   24SAPC    HX 3145   1.140   1.412  10.646  1.5201 -0.3972  1.3470
   24SAPC    HY 3146   1.319   1.388  10.657  0.6588  2.2979  0.7206
   24SAPC   O31 3147   1.243   1.390  10.461  0.0781  0.2661  0.2220
   24SAPC   C31 3148   1.147   1.320  10.412  0.5660  0.1440  0.5917
   24SAPC   O32 3149   1.052   1.271  10.476  0.9937 -0.6493  0.5151
   24SAPC   C32 3150   1.167   1.298  10.264  0.1541 -0.1978 -0.2669
   24SAPC   H2X 3151   1.082   1.241  10.221  1.6208 -3.6069  1.0421
   24SAPC   H2Y 3152   1.254   1.229  10.259 -1.1228 -2.0330  1.4364
   24SAPC   C23 3153   1.092   1.962  10.363 -0.2301 -0.1380  0.0214
   24SAPC   H3R 3154   1.166   2.036  10.400 -1.1596  1.3230 -0.9355
   24SAPC   H3S 3155   0.994   2.015  10.357 -0.2558 -0.2264 -0.3818
   24SAPC   C24 3156   1.125   1.914  10.216  0.9878  0.9919 -0.6789
   24SAPC   H4R 3157   1.037   1.851  10.192  0.0606  1.9811  0.0374
   24SAPC   H4S 3158   1.211   1.844  10.219 -0.5911 -0.9970  0.1837
   24SAPC   C25 3159   1.133   2.027  10.121 -1.0835 -0.4406  0.1460
   24SAPC   H5R 3160   1.153   2.124  10.169  1.5755 -1.2824  0.9099
   24SAPC   C26 3161   1.128   2.021   9.983 -0.1540  0.1546  0.0827
   24SAPC   H6R 3162   1.140   2.117   9.931  3.1697  0.4682  1.1221
   24SAPC   C27 3163   1.118   1.896   9.900 -0.2516  0.0097 -0.0750
   24SAPC   H7R 3164   1.132   1.796   9.946  1.4574  0.0983 -0.3401
   24SAPC   H7S 3165   1.196   1.890   9.821 -1.2877 -0.4156 -1.1075
   24SAPC   C28 3166   0.980   1.911   9.843  0.3968 -0.0028 -0.1036
   24SAPC   H8R 3167   0.900   1.874   9.908  1.4712  0.8754  1.7960
   24SAPC   C29 3168   0.947   1.954   9.721 -0.2775 -0.1921  0.6228
   24SAPC   H9R 3169   0.840   1.960   9.695 -0.0025  2.8563 -0.2628
   24SAPC  C210 3170   1.043   2.004   9.614  0.1256  0.6442 -0.8093
   24SAPC  H10R 3171   1.111   1.922   9.581 -1.9845 -2.1804  1.3464
   24SAPC  H10S 3172   1.099   2.094   9.649 -0.2731 -0.3356  2.6403
   24SAPC  C211 3173   0.980   2.058   9.489  0.0854 -0.2247  0.1638
   24SAPC  H11R 3174   0.998   2.167   9.487 -0.2939 -0.1124  1.5642
   24SAPC  C212 3175   0.912   2.002   9.393 -0.0898 -0.2616  0.8107
   24SAPC  H12R 3176   0.881   2.059   9.304 -0.8572 -2.4009 -0.3610
   24SAPC  C213 3177   0.880   1.855   9.382 -0.3190 -0.2330 -0.5396
   24SAPC  H13R 3178   0.777   1.830   9.415 -0.9010  0.0292 -2.0717
   24SAPC  H13S 3179   0.950   1.810   9.456 -1.6099  1.9478  2.2216
   24SAPC  C214 3180   0.913   1.794   9.247 -0.1159  0.6293 -0.0299
   24SAPC  H14R 3181   1.016   1.755   9.244 -0.9904 -1.8768 -0.5800
   24SAPC  C215 3182   0.835   1.777   9.142 -0.3185 -0.8578  0.9421
   24SAPC  H15R 3183   0.878   1.726   9.054 -1.3297 -1.6841  0.9094
   24SAPC  C216 3184   0.692   1.826   9.124  0.2364  0.5704 -0.2864
   24SAPC  H16R 3185   0.648   1.891   9.202 -0.1058 -0.2265  0.1979
   24SAPC  H16S 3186   0.616   1.745   9.120  1.2673 -0.4997  0.8691
   24SAPC  C217 3187   0.661   1.904   8.992 -0.1337 -0.0244 -0.3922
   24SAPC  H17R 3188   0.755   1.952   8.956  1.9977 -2.4208  1.5771
   24SAPC  H17S 3189   0.585   1.981   9.017 -1.1225 -1.4120  1.0704
   24SAPC  C218 3190   0.608   1.832   8.866  0.0659 -0.4171 -0.1010
   24SAPC  H18R 3191   0.619   1.904   8.783  0.0054  2.3060  2.1079
   24SAPC  H18S 3192   0.501   1.814   8.890  0.0403 -1.0693 -0.6723
   24SAPC  C219 3193   0.662   1.696   8.825 -0.0784 -0.4775  0.7939
   24SAPC  H19R 3194   0.660   1.631   8.915 -0.7218 -5.4700 -2.3784
   24SAPC  H19S 3195   0.769   1.716   8.804  0.0900 -3.4065 -1.9163
   24SAPC  C220 3196   0.609   1.624   8.704  0.2892  0.0074  0.3617
   24SAPC  H20R 3197   0.516   1.570   8.732  0.1659 -0.5560 -1.0582
   24SAPC  H20S 3198   0.678   1.544   8.671  0.9544  1.2353 -1.3895
   24SAPC  H20T 3199   0.582   1.692   8.620  0.1024 -1.9544 -1.2243
   24SAPC   C33 3200   1.193   1.426  10.184  0.7518  0.2534 -0.3602
   24SAPC   H3X 3201   1.251   1.496  10.247  2.4901 -2.0745  0.7895
   24SAPC   H3Y 3202   1.099   1.484  10.167  0.3159  0.0839  1.3133
   24SAPC   C34 3203   1.254   1.404  10.049  0.1936 -0.1294 -0.2369
   24SAPC   H4X 3204   1.364   1.395  10.061  0.0045 -0.1124  1.8551
   24SAPC   H4Y 3205   1.243   1.501   9.996 -0.9171 -0.1167 -0.0091
   24SAPC   C35 3206   1.194   1.291   9.964  0.2862  0.1010 -0.0505
   24SAPC   H5X 3207   1.086   1.313   9.948  0.3737 -0.1004 -0.9323
   24SAPC   H5Y 3208   1.193   1.197  10.023  0.7265  1.1351  1.7018
   24SAPC   C36 3209   1.269   1.286   9.835  0.2250  0.3131 -0.6740
   24SAPC   H6X 3210   1.371   1.247   9.852  0.1256 -0.8029 -2.4180
   24SAPC   H6Y 3211   1.273   1.390   9.797 -1.4508  1.7383  2.6153
   24SAPC   C37 3212   1.213   1.190   9.735  0.3303 -0.1661  0.4152
   24SAPC   H7X 3213   1.107   1.202   9.703  0.0949 -1.9376  0.4065
   24SAPC   H7Y 3214   1.237   1.091   9.779  3.6828  0.7809  0.9819
   24SAPC   C38 3215   1.287   1.191   9.602  0.5840  0.4341  0.1436
   24SAPC   H8X 3216   1.395   1.190   9.631  1.4081  1.1807 -2.6455
   24SAPC   H8Y 3217   1.267   1.283   9.544  1.1532  0.4883  0.0215
   24SAPC   C39 3218   1.254   1.064   9.518  0.1103  0.4211 -0.1612
   24SAPC   H9X 3219   1.152   1.073   9.475  0.4542 -0.1075 -1.1383
   24SAPC   H9Y 3220   1.262   0.978   9.587  1.4508 -0.2069 -1.0525
   24SAPC  C310 3221   1.339   1.047   9.390 -0.0871  0.4141 -0.6257
   24SAPC  H10X 3222   1.423   0.978   9.415 -0.2558  0.9065  1.5152
   24SAPC  H10Y 3223   1.375   1.144   9.351  1.9533 -0.1379 -0.2522
   24SAPC  C311 3224   1.259   0.983   9.278  0.4632 -0.5949 -0.4064
   24SAPC  H11X 3225   1.166   1.043   9.281  0.9517  0.1374  0.6103
   24SAPC  H11Y 3226   1.243   0.878   9.310 -0.8138  0.0102  1.0579
   24SAPC  C312 3227   1.329   1.009   9.145  0.4861 -0.1720 -0.2595
   24SAPC  H12X 3228   1.424   0.953   9.131 -0.3037 -1.2724 -1.4943
   24SAPC  H12Y 3229   1.356   1.117   9.145  0.9514 -0.2130  2.8125
   24SAPC  C313 3230   1.253   0.967   9.023  0.3402  0.1567  0.8643
   24SAPC  H13X 3231   1.156   1.022   9.028  0.8889  1.3124 -0.5492
   24SAPC  H13Y 3232   1.243   0.857   9.018  1.6730  0.0796 -1.2961
   24SAPC  C314 3233   1.321   1.019   8.899 -0.0041  0.7308 -0.1484
   24SAPC  H14X 3234   1.425   0.982   8.895  0.3758  1.2272  2.9867
   24SAPC  H14Y 3235   1.314   1.130   8.897 -3.9165  0.6418 -0.0163
   24SAPC  C315 3236   1.233   0.974   8.778  0.1622  0.1808  0.2472
   24SAPC  H15X 3237   1.126   0.977   8.809 -0.4153  2.0801 -1.6591
   24SAPC  H15Y 3238   1.259   0.867   8.768 -1.0762 -0.2023  0.9174
   24SAPC  C316 3239   1.253   1.056   8.644  0.1530 -0.1296 -0.6647
   24SAPC  H16X 3240   1.363   1.046   8.630  0.8139  1.0019  2.7913
   24SAPC  H16Y 3241   1.236   1.164   8.662  2.0015 -0.1911  2.2006
   24SAPC  C317 3242   1.182   1.003   8.525  0.0360  0.5648 -0.1770
   24SAPC  H17X 3243   1.200   0.893   8.526  0.2965  0.5900 -1.4123
   24SAPC  H17Y 3244   1.227   1.039   8.431  1.0875 -1.6660 -0.6152
   24SAPC  C318 3245   1.029   1.032   8.520 -0.3494 -0.1776  0.2406
   24SAPC  H18X 3246   1.017   1.142   8.512 -0.6634 -0.0100  2.5347
   24SAPC  H18Y 3247   0.996   1.010   8.623  0.7776  0.7306  0.8117
   24SAPC  H18Z 3248   0.973   0.999   8.429  0.2672  0.1079 -0.2522
   25SAPC     N 3249   0.972   4.927   5.704  0.0336  0.1981 -0.1535
   25SAPC   C12 3250   0.838   4.978   5.760 -0.7626  0.0689 -0.1331
   25SAPC  H12A 3251   0.756   4.939   5.701  0.2263  2.5435 -3.4605
   25SAPC  H12B 3252   0.842   5.085   5.744  0.2846  0.2070  0.9445
   25SAPC   C13 3253   1.092   5.002   5.759  0.2089  0.7658  0.2513
   25SAPC  H13A 3254   1.089   5.021   5.866  0.6028 -1.6982  0.7518
   25SAPC  H13B 3255   1.187   4.966   5.723  0.0497  0.9480 -0.3532
   25SAPC  H13C 3256   1.089   5.099   5.711 -1.6164 -0.7693 -3.0907
   25SAPC   C14 3257   0.989   4.785   5.744  0.5274  0.5209  0.0796
   25SAPC  H14A 3258   0.986   4.766   5.850 -0.5043 -0.6277 -0.1251
   25SAPC  H14B 3259   0.909   4.722   5.709  0.4800  0.2323  0.6856
   25SAPC  H14C 3260   1.081   4.750   5.699 -0.2347  0.0483 -1.1720
   25SAPC   C15 3261   0.964   4.926   5.556 -0.2675  0.7118  0.2468
   25SAPC  H15A 3262   1.028   4.857   5.502 -0.5053  1.1868 -0.6719
   25SAPC  H15B 3263   0.868   4.890   5.522  0.5233 -1.0749 -0.2158
   25SAPC  H15C 3264   0.980   5.026   5.519 -2.6636  1.8775  2.1047
   25SAPC   C11 3265   0.807   4.949   5.906 -0.4811  0.1449  0.2805
   25SAPC  H11A 3266   0.827   4.843   5.932  3.0688  1.1173  2.0808
   25SAPC  H11B 3267   0.700   4.975   5.922 -0.0592  1.4795  1.0075
   25SAPC     P 3268   0.840   5.157   6.037  0.3261  0.0906  0.2556
   25SAPC   O13 3269   0.780   5.240   5.930 -0.0801  0.5817 -0.2753
   25SAPC   O14 3270   0.750   5.124   6.148  0.0854 -0.3046  0.5563
   25SAPC   O12 3271   0.898   5.019   5.987  0.1065  0.2394  0.0121
   25SAPC   O11 3272   0.958   5.242   6.082 -0.5026 -0.0840  0.8065
   25SAPC    C1 3273   1.090   5.199   6.130 -0.4288 -0.3411 -0.3169
   25SAPC    HA 3274   1.084   5.108   6.194  2.0665  0.6884  1.5259
   25SAPC    HB 3275   1.161   5.177   6.048 -0.8709 -0.2731 -0.7196
   25SAPC    C2 3276   1.156   5.284   6.241  0.8738 -0.0279 -0.3474
   25SAPC    HS 3277   1.233   5.224   6.294  1.3508  2.6170  2.2450
   25SAPC   O21 3278   1.047   5.320   6.335 -0.4963 -0.0355 -0.2455
   25SAPC   C21 3279   1.027   5.222   6.429 -0.0577  0.1132  0.4130
   25SAPC   O22 3280   1.083   5.114   6.434  0.4144 -0.3915 -0.5119
   25SAPC   C22 3281   0.907   5.265   6.517 -0.3314 -0.4438 -0.1356
   25SAPC   H2R 3282   0.939   5.363   6.559  0.3338 -0.4143 -0.6885
   25SAPC   H2S 3283   0.821   5.281   6.449 -0.0956 -0.7264 -0.5023
   25SAPC    C3 3284   1.211   5.415   6.189 -0.2083  0.2374  0.0793
   25SAPC    HX 3285   1.126   5.468   6.141  0.4897 -0.1769 -1.7085
   25SAPC    HY 3286   1.286   5.396   6.109 -2.2128 -1.0163 -1.5956
   25SAPC   O31 3287   1.282   5.487   6.291 -0.1381 -0.3842  0.2273
   25SAPC   C31 3288   1.218   5.596   6.350  0.5231 -0.2151 -0.4637
   25SAPC   O32 3289   1.117   5.645   6.312  0.3162  0.2057  0.3260
   25SAPC   C32 3290   1.309   5.653   6.457 -0.0750 -0.6063  0.3797
   25SAPC   H2X 3291   1.322   5.763   6.441 -1.3707 -0.4108  0.5742
   25SAPC   H2Y 3292   1.409   5.605   6.443  1.2701  2.4833 -2.1091
   25SAPC   C23 3293   0.865   5.167   6.622  0.2065  0.1283 -0.3453
   25SAPC   H3R 3294   0.935   5.171   6.708  0.4231  1.1105 -0.5546
   25SAPC   H3S 3295   0.856   5.065   6.581 -1.6631 -0.4889  1.4147
   25SAPC   C24 3296   0.730   5.202   6.673  0.1362 -0.5091 -0.1363
   25SAPC   H4R 3297   0.713   5.128   6.754 -0.2896 -0.8464 -0.5256
   25SAPC   H4S 3298   0.651   5.178   6.598  0.3200 -1.5732 -0.0020
   25SAPC   C25 3299   0.696   5.344   6.706 -0.7329 -0.1355 -0.1140
   25SAPC   H5R 3300   0.699   5.414   6.622 -0.8832 -0.4422 -0.3766
   25SAPC   C26 3301   0.661   5.397   6.827  0.9970  0.0510 -0.1768
   25SAPC   H6R 3302   0.643   5.505   6.830  2.7969  0.4045 -0.5343
   25SAPC   C27 3303   0.655   5.331   6.965  0.8632 -0.1694  0.4119
   25SAPC   H7R 3304   0.619   5.226   6.965 -2.3225  0.8044 -0.1572
   25SAPC   H7S 3305   0.580   5.386   7.026  1.2331  0.6645  0.1359
   25SAPC   C28 3306   0.789   5.338   7.038 -0.3518 -0.2159 -0.5776
   25SAPC   H8R 3307   0.860   5.403   6.986 -1.1453  0.8871 -0.3168
   25SAPC   C29 3308   0.825   5.279   7.155  0.5437  1.0082  0.2367
   25SAPC   H9R 3309   0.920   5.310   7.201  0.3941  0.0724  1.2387
   25SAPC  C210 3310   0.746   5.189   7.244 -0.2415  0.1830  0.0012
   25SAPC  H10R 3311   0.747   5.088   7.199  2.1908 -0.0373  0.4266
   25SAPC  H10S 3312   0.643   5.232   7.252 -1.9812 -3.8548  1.8356
   25SAPC  C211 3313   0.790   5.173   7.389  0.5922 -0.4950  0.6363
   25SAPC  H11R 3314   0.744   5.250   7.453  1.6962  1.4431 -0.7741
   25SAPC  C212 3315   0.894   5.108   7.441 -0.3972 -0.4313 -0.0209
   25SAPC  H12R 3316   0.916   5.117   7.548 -1.1650 -0.8182  0.1795
   25SAPC  C213 3317   0.990   5.022   7.365  0.2548 -0.1901 -0.3278
   25SAPC  H13R 3318   0.957   5.005   7.261 -0.8099  2.3381 -0.4520
   25SAPC  H13S 3319   0.986   4.919   7.407 -1.0810  0.0876  0.2989
   25SAPC  C214 3320   1.124   5.088   7.370 -0.2038 -0.3831  0.7006
   25SAPC  H14R 3321   1.148   5.135   7.273 -1.4513  1.6742  1.3247
   25SAPC  C215 3322   1.207   5.092   7.475 -0.6047 -0.0511  0.2564
   25SAPC  H15R 3323   1.287   5.165   7.462 -0.9600  0.1307 -0.9898
   25SAPC  C216 3324   1.193   5.026   7.611  0.2823 -0.8097 -0.2837
   25SAPC  H16R 3325   1.237   4.924   7.615 -1.8569 -1.7611  0.2850
   25SAPC  H16S 3326   1.087   5.005   7.636  0.5907 -1.6072  0.4382
   25SAPC  C217 3327   1.241   5.120   7.727 -0.0001 -0.2579  0.4485
   25SAPC  H17R 3328   1.174   5.209   7.730  0.0554 -0.2112  0.3056
   25SAPC  H17S 3329   1.342   5.161   7.705 -0.6250  2.5952  2.2755
   25SAPC  C218 3330   1.250   5.053   7.860 -0.2123  0.4085 -0.3748
   25SAPC  H18R 3331   1.153   5.003   7.880  0.7040 -0.7374  1.4520
   25SAPC  H18S 3332   1.293   5.121   7.937  2.3853  0.7857 -2.0342
   25SAPC  C219 3333   1.352   4.933   7.866 -0.5231 -0.2901 -0.0153
   25SAPC  H19R 3334   1.318   4.855   7.794 -0.5843  0.7549 -1.1419
   25SAPC  H19S 3335   1.353   4.896   7.971  3.2195 -1.4154 -0.3006
   25SAPC  C220 3336   1.492   4.972   7.833 -0.2164 -0.4378 -0.1762
   25SAPC  H20R 3337   1.567   4.890   7.831  1.0693  0.6926 -2.0989
   25SAPC  H20S 3338   1.524   5.060   7.893 -2.5964 -0.6781  1.5783
   25SAPC  H20T 3339   1.494   5.011   7.729 -1.0073  0.2519  0.0656
   25SAPC   C33 3340   1.262   5.635   6.604 -0.7155  0.9566 -0.2072
   25SAPC   H3X 3341   1.159   5.672   6.620  0.2894  2.8364  2.7774
   25SAPC   H3Y 3342   1.321   5.703   6.669 -0.2919  0.5157 -0.1243
   25SAPC   C34 3343   1.277   5.491   6.642  0.7838 -0.2208  0.7594
   25SAPC   H4X 3344   1.385   5.468   6.628  0.5323 -0.9164 -0.1307
   25SAPC   H4Y 3345   1.234   5.431   6.559  0.4303 -0.6539  1.2496
   25SAPC   C35 3346   1.220   5.448   6.775 -0.5593  0.6357  0.9006
   25SAPC   H5X 3347   1.113   5.476   6.773 -0.4837  0.9482 -1.4671
   25SAPC   H5Y 3348   1.270   5.498   6.861 -0.4865 -0.5694  1.5829
   25SAPC   C36 3349   1.239   5.299   6.804  0.0148 -0.9503 -0.2816
   25SAPC   H6X 3350   1.349   5.290   6.800 -0.0862 -2.2928 -0.4817
   25SAPC   H6Y 3351   1.193   5.234   6.726  0.6666  1.5652 -2.9478
   25SAPC   C37 3352   1.187   5.247   6.938 -0.2307  0.1141  0.3009
   25SAPC   H7X 3353   1.077   5.249   6.924 -0.4668 -1.1531  1.7485
   25SAPC   H7Y 3354   1.215   5.327   7.010  0.4711 -0.2295  0.4212
   25SAPC   C38 3355   1.250   5.111   6.978  0.3595  0.2705 -0.7978
   25SAPC   H8X 3356   1.272   5.042   6.894 -1.4620 -2.3032  0.6790
   25SAPC   H8Y 3357   1.173   5.057   7.039  0.2650  0.6885 -0.5449
   25SAPC   C39 3358   1.374   5.130   7.066  1.0189 -0.3672  0.0837
   25SAPC   H9X 3359   1.354   5.184   7.161  1.1282 -0.4297  0.1434
   25SAPC   H9Y 3360   1.427   5.204   7.003 -1.0001  0.8575 -0.2626
   25SAPC  C310 3361   1.446   4.995   7.101 -0.3156  0.2254  0.9222
   25SAPC  H10X 3362   1.483   4.953   7.005 -0.3630 -0.4958  1.2164
   25SAPC  H10Y 3363   1.377   4.921   7.146  0.5604 -1.0620  0.1923
   25SAPC  C311 3364   1.586   5.014   7.172 -0.1058  0.2843 -0.1770
   25SAPC  H11X 3365   1.664   5.071   7.117  0.4160 -0.3658 -0.1292
   25SAPC  H11Y 3366   1.633   4.915   7.192 -0.8690 -0.1585 -0.5664
   25SAPC  C312 3367   1.577   5.089   7.304 -0.5834  0.4523  0.1724
   25SAPC  H12X 3368   1.490   5.051   7.362 -0.2538  0.9174  0.9848
   25SAPC  H12Y 3369   1.566   5.197   7.282 -0.0507  0.4147 -0.3014
   25SAPC  C313 3370   1.699   5.063   7.400 -0.5736  0.5498  0.7941
   25SAPC  H13X 3371   1.794   5.083   7.347  0.7329 -0.0657  2.8094
   25SAPC  H13Y 3372   1.708   4.952   7.408  0.0799  0.6021  0.8306
   25SAPC  C314 3373   1.710   5.119   7.538  0.0042 -1.2023 -1.0818
   25SAPC  H14X 3374   1.635   5.080   7.609 -0.4310  2.2432  0.5900
   25SAPC  H14Y 3375   1.700   5.230   7.529 -1.6181 -1.4125 -2.2209
   25SAPC  C315 3376   1.843   5.092   7.612 -0.3368  0.3389 -0.0946
   25SAPC  H15X 3377   1.845   5.177   7.684 -1.6658 -1.4007  2.1229
   25SAPC  H15Y 3378   1.921   5.092   7.533 -1.8641  0.3419 -1.6521
   25SAPC  C316 3379   1.849   4.967   7.699  0.0280 -0.2227  0.0771
   25SAPC  H16X 3380   1.804   4.876   7.653 -1.5555  0.4787  0.1826
   25SAPC  H16Y 3381   1.784   4.980   7.789  1.1827 -1.5628  1.1553
   25SAPC  C317 3382   1.985   4.941   7.766 -0.1521 -0.1838 -0.5408
   25SAPC  H17X 3383   2.049   4.909   7.681 -0.8091  0.6457 -1.3564
   25SAPC  H17Y 3384   1.968   4.856   7.836  1.3062  0.1994  0.3194
   25SAPC  C318 3385   2.051   5.062   7.837 -0.2299 -0.6424 -0.1060
   25SAPC  H18X 3386   2.146   5.025   7.879  0.0032 -0.7256 -0.6956
   25SAPC  H18Y 3387   1.986   5.082   7.925  1.0251 -2.7195  1.3663
   25SAPC  H18Z 3388   2.062   5.152   7.773 -0.2633 -1.4819 -1.3264
   26SAPC     N 3389   0.687   1.312   6.253 -0.5766  0.0467  0.2228
   26SAPC   C12 3390   0.669   1.163   6.224  0.4895 -1.0141  0.4628
   26SAPC  H12A 3391   0.686   1.139   6.120  2.0734  0.6701  0.2846
   26SAPC  H12B 3392   0.563   1.146   6.240  0.2862  0.8412  1.2509
   26SAPC   C13 3393   0.666   1.344   6.399 -0.1922 -0.1891  0.1907
   26SAPC  H13A 3394   0.735   1.289   6.462  2.3930  3.9490  1.3738
   26SAPC  H13B 3395   0.680   1.450   6.416 -0.9124 -0.3392  2.0195
   26SAPC  H13C 3396   0.570   1.312   6.435  0.6154 -2.6273  0.3571
   26SAPC   C14 3397   0.825   1.357   6.203 -0.7256 -0.0901 -0.5548
   26SAPC  H14A 3398   0.906   1.298   6.244  0.9752  2.6675  0.3464
   26SAPC  H14B 3399   0.837   1.337   6.098 -0.0570  0.8642 -0.6697
   26SAPC  H14C 3400   0.846   1.461   6.220 -0.5034 -0.2459  0.1724
   26SAPC   C15 3401   0.576   1.379   6.177 -0.1991 -0.4618 -0.5110
   26SAPC  H15A 3402   0.579   1.484   6.203  1.2029 -0.4972 -0.4504
   26SAPC  H15B 3403   0.581   1.371   6.069 -3.5604 -1.3208 -0.7052
   26SAPC  H15C 3404   0.482   1.341   6.214 -0.7260 -0.4755 -1.8193
   26SAPC   C11 3405   0.752   1.067   6.306 -0.3985  0.8006 -0.0087
   26SAPC  H11A 3406   0.703   1.073   6.406 -2.5009 -0.6963 -0.9035
   26SAPC  H11B 3407   0.860   1.087   6.327 -0.1268  0.5347 -1.1096
   26SAPC     P 3408   0.811   0.896   6.115  0.1279  0.2781 -0.0314
   26SAPC   O13 3409   0.805   0.751   6.094 -0.2861 -0.1939 -0.4575
   26SAPC   O14 3410   0.762   0.992   6.013  0.3781 -0.4780  0.2834
   26SAPC   O12 3411   0.745   0.933   6.257  0.5091 -0.1710 -0.1534
   26SAPC   O11 3412   0.961   0.928   6.136 -0.1030 -0.9860 -1.1943
   26SAPC    C1 3413   1.048   0.823   6.187 -0.1538 -0.4864 -0.0244
   26SAPC    HA 3414   1.045   0.738   6.115  0.4124 -1.9227  1.5662
   26SAPC    HB 3415   1.151   0.865   6.185 -0.3675  0.0225 -0.3129
   26SAPC    C2 3416   1.030   0.783   6.338 -0.4809  0.0356  0.6687
   26SAPC    HS 3417   0.944   0.713   6.349  0.6541 -1.6087 -0.4820
   26SAPC   O21 3418   1.038   0.894   6.423 -0.2442  0.1188 -0.2198
   26SAPC   C21 3419   0.971   0.884   6.542 -0.2843 -0.1877  0.6248
   26SAPC   O22 3420   0.899   0.792   6.573 -0.3234  0.3513 -0.2882
   26SAPC   C22 3421   0.995   1.014   6.620 -0.4316  0.4449  0.9478
   26SAPC   H2R 3422   1.103   1.039   6.616 -0.1270 -0.5280 -4.0255
   26SAPC   H2S 3423   0.928   1.097   6.589 -1.0071 -0.6198 -0.8361
   26SAPC    C3 3424   1.157   0.688   6.366 -0.5470 -0.4182 -0.1064
   26SAPC    HX 3425   1.243   0.746   6.327 -0.3728  0.8292  1.9727
   26SAPC    HY 3426   1.156   0.594   6.307 -0.2773 -0.6445  0.2477
   26SAPC   O31 3427   1.178   0.654   6.500  0.3142 -0.5088 -0.5420
   26SAPC   C31 3428   1.083   0.562   6.542  0.1693  0.3074  0.5180
   26SAPC   O32 3429   1.003   0.505   6.472 -0.2009 -0.2480  0.0468
   26SAPC   C32 3430   1.110   0.533   6.689 -0.7338  0.0622  0.1413
   26SAPC   H2X 3431   1.164   0.437   6.707  2.5444  1.7341 -0.1375
   26SAPC   H2Y 3432   1.007   0.516   6.727 -0.4735 -2.7996 -0.1792
   26SAPC   C23 3433   0.940   0.990   6.771  0.2013  0.5216  0.9715
   26SAPC   H3R 3434   0.985   0.893   6.800  1.4906  0.8316  0.1055
   26SAPC   H3S 3435   0.830   0.983   6.784 -0.2609 -1.1363 -2.5238
   26SAPC   C24 3436   1.001   1.089   6.867  0.8196  0.7056 -0.5005
   26SAPC   H4R 3437   0.956   1.070   6.967  0.9317 -0.0272 -0.5820
   26SAPC   H4S 3438   0.959   1.183   6.825 -2.3720  0.2531  1.3122
   26SAPC   C25 3439   1.152   1.110   6.873 -0.5090 -0.3033 -0.0021
   26SAPC   H5R 3440   1.195   1.145   6.778  0.7319  0.8181  0.9345
   26SAPC   C26 3441   1.235   1.070   6.969  0.4982 -0.0897  0.1273
   26SAPC   H6R 3442   1.340   1.102   6.957  0.6321 -1.3070 -2.7563
   26SAPC   C27 3443   1.206   1.006   7.097  0.6381  0.6600 -0.7637
   26SAPC   H7R 3444   1.280   0.930   7.130 -1.3549 -1.2975 -0.5348
   26SAPC   H7S 3445   1.121   0.935   7.085  1.0493  0.0391 -0.0340
   26SAPC   C28 3446   1.168   1.109   7.208  0.1473 -0.0435 -0.1231
   26SAPC   H8R 3447   1.086   1.180   7.189  1.2221  1.0223 -0.9496
   26SAPC   C29 3448   1.227   1.119   7.329 -0.0437 -0.4815 -0.5138
   26SAPC   H9R 3449   1.195   1.212   7.379  0.6802  1.7680 -3.8901
   26SAPC  C210 3450   1.342   1.033   7.379 -0.2466 -0.1678  0.0508
   26SAPC  H10R 3451   1.441   1.071   7.346  0.6618 -1.5267  1.1018
   26SAPC  H10S 3452   1.332   0.928   7.347  0.9735 -0.1147 -0.5740
   26SAPC  C211 3453   1.351   1.044   7.528 -0.0244 -0.2827 -0.0348
   26SAPC  H11R 3454   1.375   1.143   7.569  3.1133 -0.3029 -1.5439
   26SAPC  C212 3455   1.331   0.940   7.612  0.3029 -0.1788  0.0348
   26SAPC  H12R 3456   1.330   0.960   7.720 -0.0851 -1.1160  0.2139
   26SAPC  C213 3457   1.300   0.791   7.573  0.0788 -0.3880  0.0582
   26SAPC  H13R 3458   1.373   0.751   7.500  0.2986  1.0758 -0.5612
   26SAPC  H13S 3459   1.206   0.787   7.514 -0.4682 -0.2397  0.8940
   26SAPC  C214 3460   1.298   0.693   7.688  0.3143  0.6126 -0.2388
   26SAPC  H14R 3461   1.200   0.645   7.701  0.7519 -0.1068  0.5442
   26SAPC  C215 3462   1.392   0.668   7.776  0.2571  0.2426 -0.0587
   26SAPC  H15R 3463   1.388   0.588   7.852  1.0121 -0.6567 -0.9291
   26SAPC  C216 3464   1.521   0.744   7.782 -0.1374  0.7843  0.0992
   26SAPC  H16R 3465   1.521   0.839   7.839  0.4330  0.9077 -0.0965
   26SAPC  H16S 3466   1.548   0.766   7.677 -2.5511 -0.3331 -0.8279
   26SAPC  C217 3467   1.641   0.668   7.847 -0.8105 -0.0418  0.1430
   26SAPC  H17R 3468   1.743   0.713   7.838 -0.8315  0.0897  0.5479
   26SAPC  H17S 3469   1.646   0.577   7.783  0.8280  1.2616 -1.7344
   26SAPC  C218 3470   1.627   0.631   7.999 -0.4892 -0.0810 -0.4290
   26SAPC  H18R 3471   1.523   0.595   8.014 -0.4218 -1.4947 -2.8665
   26SAPC  H18S 3472   1.625   0.727   8.055 -1.6125 -0.4329  0.1858
   26SAPC  C219 3473   1.720   0.522   8.048 -0.0156 -0.6228 -0.1082
   26SAPC  H19R 3474   1.706   0.439   7.975 -1.0794  1.2919 -2.2037
   26SAPC  H19S 3475   1.674   0.486   8.143 -0.5128  0.2778  0.0081
   26SAPC  C220 3476   1.870   0.545   8.055  0.3356  0.0480  0.0913
   26SAPC  H20R 3477   1.898   0.628   7.986  0.3845  0.6493  0.8189
   26SAPC  H20S 3478   1.931   0.454   8.035 -0.3851 -0.1113 -1.4722
   26SAPC  H20T 3479   1.902   0.563   8.160  0.2265 -1.8967  0.4848
   26SAPC   C33 3480   1.178   0.640   6.780  0.6510  0.4502 -0.1637
   26SAPC   H3X 3481   1.171   0.739   6.730 -0.8784 -0.2471 -1.4018
   26SAPC   H3Y 3482   1.283   0.605   6.790  0.8694  0.8388 -0.9818
   26SAPC   C34 3483   1.092   0.646   6.908  0.4880  0.9726 -0.0791
   26SAPC   H4X 3484   0.986   0.670   6.885  1.2001  3.3468 -1.2023
   26SAPC   H4Y 3485   1.131   0.728   6.972 -1.1823  1.9904 -0.3020
   26SAPC   C35 3486   1.108   0.532   7.002  0.2302 -0.1148 -0.5644
   26SAPC   H5X 3487   1.215   0.504   7.006  0.4743  0.8813  1.3507
   26SAPC   H5Y 3488   1.053   0.441   6.968  0.2101 -1.3690  2.5047
   26SAPC   C36 3489   1.060   0.561   7.146 -0.0459 -0.1993 -0.0132
   26SAPC   H6X 3490   0.959   0.607   7.143  0.3783  0.7526  0.0174
   26SAPC   H6Y 3491   1.122   0.644   7.186  0.2809  0.5694 -2.0284
   26SAPC   C37 3492   1.080   0.446   7.247 -0.5955 -0.3774  0.4345
   26SAPC   H7X 3493   1.187   0.424   7.266 -0.7187  0.8496  2.8398
   26SAPC   H7Y 3494   1.038   0.354   7.201 -0.2199  0.3480 -1.4527
   26SAPC   C38 3495   1.015   0.472   7.380 -0.0181  0.2171 -0.3297
   26SAPC   H8X 3496   0.914   0.511   7.359 -0.8395 -0.9572  1.2475
   26SAPC   H8Y 3497   1.070   0.554   7.433  0.5175  0.7935 -1.7394
   26SAPC   C39 3498   1.021   0.344   7.459  0.3193 -0.4007 -0.4815
   26SAPC   H9X 3499   1.128   0.313   7.460  0.1001 -1.1782 -0.5267
   26SAPC   H9Y 3500   0.966   0.256   7.421  1.6383 -2.3906  1.9213
   26SAPC  C310 3501   0.993   0.363   7.616  0.0567 -0.1966  0.3420
   26SAPC  H10X 3502   0.891   0.403   7.630  0.5793  0.8945  1.1785
   26SAPC  H10Y 3503   1.060   0.443   7.655 -1.1475  1.9043 -1.7157
   26SAPC  C311 3504   1.012   0.226   7.687  0.1308 -0.5371  0.4335
   26SAPC  H11X 3505   1.112   0.189   7.657  0.1936  1.2793 -1.8191
   26SAPC  H11Y 3506   0.933   0.159   7.647  1.9347 -1.4835 -1.7655
   26SAPC  C312 3507   1.000   0.242   7.838  0.1538 -0.1441  0.0220
   26SAPC  H12X 3508   0.901   0.282   7.867  0.7316  0.7493  0.8257
   26SAPC  H12Y 3509   1.077   0.317   7.869 -1.1979  1.1871  0.2382
   26SAPC  C313 3510   1.027   0.119   7.924  0.0637 -0.3830 -0.3973
   26SAPC  H13X 3511   1.127   0.074   7.907 -0.8948 -1.8873 -2.4509
   26SAPC  H13Y 3512   0.950   0.043   7.901  0.2190 -0.6124 -0.1554
   26SAPC  C314 3513   1.022   0.132   8.073 -0.0944  0.1990 -0.2707
   26SAPC  H14X 3514   0.926   0.173   8.109  0.3957  0.0731  1.2675
   26SAPC  H14Y 3515   1.101   0.203   8.106  1.5343 -0.4503 -2.5504
   26SAPC  C315 3516   1.044   0.001   8.159 -0.7150 -0.4524 -0.2402
   26SAPC  H15X 3517   1.140  -0.035   8.116  0.2762  0.8841  0.7414
   26SAPC  H15Y 3518   0.952  -0.060   8.145 -0.2395 -1.1866 -0.2165
   26SAPC  C316 3519   1.053   0.017   8.315 -0.4258  0.0992  0.4795
   26SAPC  H16X 3520   1.123   0.102   8.333 -0.0025 -0.4557  1.5768
   26SAPC  H16Y 3521   1.086  -0.078   8.362  1.4054  0.8032  0.7094
   26SAPC  C317 3522   0.913   0.059   8.377  0.3732  0.4186  0.2971
   26SAPC  H17X 3523   0.875   0.157   8.341 -0.0757  0.0537 -0.2434
   26SAPC  H17Y 3524   0.942   0.073   8.483  1.2104  1.8574 -0.0887
   26SAPC  C318 3525   0.789  -0.035   8.374  0.7752  0.2988  0.6880
   26SAPC  H18X 3526   0.813  -0.137   8.409 -2.0752 -0.2144  1.4045
   26SAPC  H18Y 3527   0.738  -0.053   8.277 -0.0397  0.5612  1.0591
   26SAPC  H18Z 3528   0.707   0.003   8.439  0.3234  0.2670  0.1417
   27SAPC     N 3529   6.346   1.834   6.256 -0.3981 -0.0201  0.6441
   27SAPC   C12 3530   6.429   1.767   6.367  0.5436 -0.1054  0.0184
   27SAPC  H12A 3531   6.475   1.849   6.420 -2.0616  2.6093 -1.5649
   27SAPC  H12B 3532   6.501   1.695   6.330  1.3807 -0.9206  3.0139
   27SAPC   C13 3533   6.275   1.732   6.169  0.5265 -1.0613 -0.5213
   27SAPC  H13A 3534   6.243   1.784   6.080 -1.8330  0.3794  1.0690
   27SAPC  H13B 3535   6.348   1.662   6.131 -0.2091 -3.6185  2.3737
   27SAPC  H13C 3536   6.195   1.689   6.226  0.7878 -0.0250  0.6824
   27SAPC   C14 3537   6.255   1.938   6.312  0.4074 -0.2139 -0.4128
   27SAPC  H14A 3538   6.315   2.016   6.358  0.8662 -0.9785  0.2967
   27SAPC  H14B 3539   6.200   1.978   6.227  0.8684  0.1771 -0.5357
   27SAPC  H14C 3540   6.177   1.897   6.374  1.6924 -0.5065  1.0515
   27SAPC   C15 3541   6.443   1.909   6.170  0.0711 -0.2698 -0.1407
   27SAPC  H15A 3542   6.496   1.847   6.099  0.2374  0.4942 -0.7022
   27SAPC  H15B 3543   6.395   1.984   6.109  0.8034  0.6048  0.3292
   27SAPC  H15C 3544   6.509   1.963   6.237 -0.0955 -0.4138  0.1417
   27SAPC   C11 3545   6.339   1.697   6.466 -0.1038 -0.0652 -0.4806
   27SAPC  H11A 3546   6.269   1.631   6.410 -0.9060  0.2939  0.0672
   27SAPC  H11B 3547   6.274   1.771   6.517  2.0371  0.1276  2.1927
   27SAPC     P 3548   6.478   1.494   6.535  0.1292  0.1991  0.1640
   27SAPC   O13 3549   6.560   1.500   6.413 -0.5623  0.3236  0.1745
   27SAPC   O14 3550   6.545   1.439   6.655 -0.4346 -0.2119 -0.4181
   27SAPC   O12 3551   6.415   1.635   6.569 -0.0473  0.8377  0.2442
   27SAPC   O11 3552   6.356   1.412   6.499  0.5448 -0.4213  0.1529
   27SAPC    C1 3553   6.277   1.321   6.572 -0.5694  0.1370  0.2844
   27SAPC    HA 3554   6.234   1.243   6.506 -0.5660  1.6749 -1.6367
   27SAPC    HB 3555   6.341   1.275   6.651 -0.2888  0.3697  0.1933
   27SAPC    C2 3556   6.179   1.407   6.644  0.0124 -0.4031  0.0984
   27SAPC    HS 3557   6.157   1.487   6.570 -0.2637 -1.8153 -1.4066
   27SAPC   O21 3558   6.245   1.466   6.760  0.1609 -0.1576  0.2686
   27SAPC   C21 3559   6.183   1.582   6.810  0.9828 -0.1512 -1.0010
   27SAPC   O22 3560   6.077   1.618   6.765 -0.4031 -0.0431  0.2502
   27SAPC   C22 3561   6.271   1.644   6.909 -0.3195 -0.2646 -0.2396
   27SAPC   H2R 3562   6.296   1.581   6.996  0.3686  1.2423  0.6924
   27SAPC   H2S 3563   6.357   1.675   6.846 -1.9881 -0.3316 -2.7391
   27SAPC    C3 3564   6.051   1.325   6.684 -1.3488  0.4681 -0.0428
   27SAPC    HX 3565   5.996   1.291   6.594  0.0986  1.8579 -1.5075
   27SAPC    HY 3566   5.981   1.391   6.741 -1.7680 -0.9048  1.1013
   27SAPC   O31 3567   6.090   1.211   6.764  0.2973 -0.1879 -0.1754
   27SAPC   C31 3568   6.101   1.233   6.900  0.3813 -0.4211  0.4994
   27SAPC   O32 3569   6.054   1.333   6.950 -0.1827 -0.2336 -0.3037
   27SAPC   C32 3570   6.182   1.120   6.958 -0.3572 -0.1100  0.5508
   27SAPC   H2X 3571   6.286   1.159   6.961 -0.1456 -0.5646 -0.5127
   27SAPC   H2Y 3572   6.176   1.042   6.879  2.9145  1.1259 -1.0984
   27SAPC   C23 3573   6.222   1.773   6.976  0.4193  0.1118  0.1342
   27SAPC   H3R 3574   6.124   1.757   7.026 -0.9702 -2.4757 -3.0370
   27SAPC   H3S 3575   6.192   1.840   6.892  1.3485 -0.3890 -0.6047
   27SAPC   C24 3576   6.329   1.845   7.062 -0.1056 -0.4945  0.2887
   27SAPC   H4R 3577   6.411   1.845   6.986 -0.6005 -2.1610 -0.2804
   27SAPC   H4S 3578   6.347   1.783   7.153 -1.3147 -1.1260  0.1118
   27SAPC   C25 3579   6.279   1.987   7.084  0.6458  0.1989 -0.0198
   27SAPC   H5R 3580   6.267   2.048   6.994  1.9851  1.7171  0.7538
   27SAPC   C26 3581   6.261   2.048   7.198  0.5012 -0.1342  0.1368
   27SAPC   H6R 3582   6.219   2.150   7.194 -0.5313 -0.5246  0.5965
   27SAPC   C27 3583   6.286   1.999   7.338  0.3701  0.4814  0.8257
   27SAPC   H7R 3584   6.293   1.888   7.332  1.0358  0.6072 -1.3871
   27SAPC   H7S 3585   6.204   2.019   7.411 -1.0703  0.5052 -0.7410
   27SAPC   C28 3586   6.410   2.059   7.393 -0.8609 -0.0472 -0.1742
   27SAPC   H8R 3587   6.469   2.131   7.335  0.1704 -1.2996 -0.7323
   27SAPC   C29 3588   6.453   2.029   7.515 -0.1854 -0.1556 -0.0534
   27SAPC   H9R 3589   6.553   2.060   7.547  0.7216 -1.4524 -1.4805
   27SAPC  C210 3590   6.390   1.925   7.608 -0.2198 -0.0107 -0.3804
   27SAPC  H10R 3591   6.447   1.829   7.606 -1.1568 -0.6019  0.2374
   27SAPC  H10S 3592   6.286   1.896   7.580  0.2374  0.0478 -2.2405
   27SAPC  C211 3593   6.370   1.964   7.754  0.6171 -0.5745  0.3994
   27SAPC  H11R 3594   6.308   2.055   7.765 -0.5969 -1.0627 -1.7623
   27SAPC  C212 3595   6.429   1.927   7.868 -0.1290 -0.6138  0.5138
   27SAPC  H12R 3596   6.395   1.969   7.963  0.2636  2.6763 -0.6678
   27SAPC  C213 3597   6.544   1.833   7.873  0.2052  0.1446 -0.6452
   27SAPC  H13R 3598   6.599   1.822   7.777  2.6897  0.7265  0.6294
   27SAPC  H13S 3599   6.497   1.738   7.906 -0.7040  0.5696 -0.7092
   27SAPC  C214 3600   6.645   1.863   7.982  0.2005 -0.1436  0.2701
   27SAPC  H14R 3601   6.628   1.956   8.039  1.1507 -1.1876  2.3914
   27SAPC  C215 3602   6.759   1.792   8.003 -0.2159 -0.5662 -0.1069
   27SAPC  H15R 3603   6.832   1.829   8.077  0.1320 -0.9468 -0.2535
   27SAPC  C216 3604   6.797   1.668   7.931  0.3986 -0.7106  0.3491
   27SAPC  H16R 3605   6.893   1.684   7.877  0.1181  0.9052  0.2703
   27SAPC  H16S 3606   6.726   1.638   7.851 -1.6848  1.2042  1.3616
   27SAPC  C217 3607   6.831   1.561   8.036 -0.2034 -0.0673 -0.6900
   27SAPC  H17R 3608   6.917   1.588   8.100 -0.3959 -1.5947  0.2782
   27SAPC  H17S 3609   6.865   1.478   7.970 -1.3281 -0.0399 -1.3260
   27SAPC  C218 3610   6.712   1.505   8.109 -0.1780 -0.8711  0.3670
   27SAPC  H18R 3611   6.651   1.446   8.037 -0.5789  0.4928 -0.4516
   27SAPC  H18S 3612   6.652   1.582   8.163  0.4992 -0.2444  0.2384
   27SAPC  C219 3613   6.766   1.404   8.211 -0.6235  0.2273 -0.7974
   27SAPC  H19R 3614   6.863   1.439   8.253 -1.5136  0.3506  1.2409
   27SAPC  H19S 3615   6.802   1.317   8.152  0.2301  1.0215 -1.4814
   27SAPC  C220 3616   6.671   1.366   8.325  0.5364  0.2502  0.1663
   27SAPC  H20R 3617   6.658   1.446   8.401 -0.9006 -0.2141  0.4512
   27SAPC  H20S 3618   6.713   1.274   8.370 -2.0498 -0.6595  0.9109
   27SAPC  H20T 3619   6.573   1.348   8.274  0.2238 -0.1493  0.8918
   27SAPC   C33 3620   6.146   1.078   7.104  0.7478  0.1649 -0.4306
   27SAPC   H3X 3621   6.132   1.172   7.161  0.9182 -2.5421  4.5554
   27SAPC   H3Y 3622   6.230   1.012   7.135 -0.0989 -1.9907 -2.3990
   27SAPC   C34 3623   6.018   0.999   7.110  0.3689 -0.0241 -0.0628
   27SAPC   H4X 3624   6.037   0.900   7.063 -0.1899 -0.4013  0.4981
   27SAPC   H4Y 3625   5.938   1.049   7.051 -0.7382 -0.3410  1.1209
   27SAPC   C35 3626   5.972   0.966   7.254  0.9505 -0.3768 -0.6457
   27SAPC   H5X 3627   6.052   0.981   7.330  0.1261  1.3544 -0.0667
   27SAPC   H5Y 3628   5.926   0.866   7.261 -2.0762  0.8618 -1.3917
   27SAPC   C36 3629   5.863   1.071   7.304 -0.4091  0.4980  0.2766
   27SAPC   H6X 3630   5.774   1.063   7.237 -0.0421 -0.9377 -0.0714
   27SAPC   H6Y 3631   5.907   1.171   7.285 -1.5037  0.4594 -3.1996
   27SAPC   C37 3632   5.823   1.070   7.452  0.1148  0.2839 -0.9250
   27SAPC   H7X 3633   5.761   0.980   7.470  0.2336  0.1948 -0.9617
   27SAPC   H7Y 3634   5.754   1.153   7.478 -0.7025 -0.8886  0.8654
   27SAPC   C38 3635   5.930   1.073   7.563  0.2156  0.5887  0.2622
   27SAPC   H8X 3636   5.997   1.161   7.550  1.2991 -0.5109 -2.2519
   27SAPC   H8Y 3637   6.001   0.988   7.563  1.9374  1.9553  0.3434
   27SAPC   C39 3638   5.877   1.067   7.707 -0.0279 -0.7341  0.6442
   27SAPC   H9X 3639   5.790   1.136   7.711  1.8841  1.8093  0.9228
   27SAPC   H9Y 3640   5.962   1.111   7.763  1.4161 -3.8731  1.1301
   27SAPC  C310 3641   5.832   0.931   7.757  0.0849 -0.0110 -0.1535
   27SAPC  H10X 3642   5.891   0.844   7.721 -1.0767 -0.8679 -0.0414
   27SAPC  H10Y 3643   5.727   0.917   7.722  0.7959  0.8839 -2.9679
   27SAPC  C311 3644   5.843   0.921   7.916 -1.0816 -0.2773 -0.0176
   27SAPC  H11X 3645   5.786   1.004   7.963 -0.4940 -1.6163  3.3266
   27SAPC  H11Y 3646   5.951   0.929   7.943 -1.3676 -1.3418  1.5761
   27SAPC  C312 3647   5.786   0.794   7.963 -0.3712  0.5663 -0.2412
   27SAPC  H12X 3648   5.798   0.711   7.889  3.2818  2.6978 -2.3313
   27SAPC  H12Y 3649   5.676   0.802   7.977 -0.4721 -3.2669  2.9627
   27SAPC  C313 3650   5.859   0.751   8.095  0.2127  0.3575  0.2817
   27SAPC  H13X 3651   5.822   0.837   8.156 -0.3301 -0.2025  0.7464
   27SAPC  H13Y 3652   5.967   0.777   8.083  0.3551  0.2049  1.1404
   27SAPC  C314 3653   5.825   0.618   8.158  1.1776  0.7740 -1.0272
   27SAPC  H14X 3654   5.855   0.544   8.080  0.7148 -0.7167  0.1659
   27SAPC  H14Y 3655   5.715   0.618   8.172  0.9115 -1.0091 -2.7539
   27SAPC  C315 3656   5.900   0.592   8.293 -0.1164  0.8949  0.1577
   27SAPC  H15X 3657   5.892   0.687   8.351  0.2207  0.0748  1.5904
   27SAPC  H15Y 3658   6.007   0.580   8.267 -0.3091 -1.9897  0.4413
   27SAPC  C316 3659   5.830   0.482   8.377 -0.4635 -0.2305  0.0362
   27SAPC  H16X 3660   5.781   0.407   8.312 -0.5739 -1.4152  1.4375
   27SAPC  H16Y 3661   5.739   0.528   8.421 -1.7458  0.6571 -3.2694
   27SAPC  C317 3662   5.918   0.430   8.489  0.0655  0.3907 -0.1220
   27SAPC  H17X 3663   5.925   0.516   8.559 -1.3098  0.2559  0.2085
   27SAPC  H17Y 3664   6.016   0.397   8.450 -1.1210 -2.3843 -1.0121
   27SAPC  C318 3665   5.865   0.307   8.567  0.3886 -0.1976  0.2479
   27SAPC  H18X 3666   5.757   0.322   8.587  0.4012  2.0320 -1.0512
   27SAPC  H18Y 3667   5.926   0.310   8.660  0.2128 -1.5332  0.4197
   27SAPC  H18Z 3668   5.882   0.226   8.493 -1.8461  2.0458 -2.9998
   28SAPC     N 3669   4.927   6.008   5.673 -0.4424  0.5457 -0.0040
   28SAPC   C12 3670   4.880   5.959   5.812  0.1818 -0.1109  0.3051
   28SAPC  H12A 3671   4.792   6.013   5.845  0.1045 -0.0190 -0.0505
   28SAPC  H12B 3672   4.962   5.981   5.879 -0.5712  2.2979  0.5331
   28SAPC   C13 3673   5.042   5.922   5.624  0.0767  0.7640 -0.2902
   28SAPC  H13A 3674   5.139   5.945   5.666 -0.2452  0.2418  0.7682
   28SAPC  H13B 3675   5.025   5.818   5.645  1.7400  0.4025 -0.5617
   28SAPC  H13C 3676   5.056   5.934   5.518 -0.5701 -0.5469 -0.5353
   28SAPC   C14 3677   4.829   6.001   5.571  0.1533 -0.3891  0.7126
   28SAPC  H14A 3678   4.874   5.992   5.474  0.7588  2.3149  0.6510
   28SAPC  H14B 3679   4.769   5.912   5.562 -1.0864  0.6406 -2.4339
   28SAPC  H14C 3680   4.756   6.080   5.578 -0.2788 -0.5762 -1.1498
   28SAPC   C15 3681   4.974   6.152   5.696  0.4609  0.1757  0.4402
   28SAPC  H15A 3682   5.005   6.189   5.600  1.0927 -1.0129  0.1648
   28SAPC  H15B 3683   4.899   6.220   5.736 -0.7597 -2.7980  3.8319
   28SAPC  H15C 3684   5.055   6.147   5.767  0.8049  1.1500  0.1168
   28SAPC   C11 3685   4.846   5.807   5.824 -0.1293  0.0181  0.0729
   28SAPC  H11A 3686   4.776   5.772   5.745 -0.0175  0.1188 -0.0714
   28SAPC  H11B 3687   4.780   5.798   5.913 -0.5660 -1.5296 -0.3760
   28SAPC     P 3688   5.065   5.756   5.956  0.7402 -0.0977  0.0709
   28SAPC   O13 3689   5.198   5.723   5.905 -0.3842 -0.5359  0.8044
   28SAPC   O14 3690   5.059   5.896   6.011  0.6541  1.0217 -1.1986
   28SAPC   O12 3691   4.965   5.728   5.839  0.6910  0.1120 -0.0773
   28SAPC   O11 3692   5.034   5.647   6.067 -0.0697  0.4132 -0.8502
   28SAPC    C1 3693   4.902   5.611   6.114  0.7615  0.3735  0.8920
   28SAPC    HA 3694   4.830   5.589   6.033 -0.6288  2.7363  1.3942
   28SAPC    HB 3695   4.903   5.523   6.183 -1.8907 -1.9801 -1.7891
   28SAPC    C2 3696   4.836   5.726   6.205  0.6684  0.2881  0.4722
   28SAPC    HS 3697   4.829   5.813   6.136  1.5587 -0.3491 -0.4727
   28SAPC   O21 3698   4.924   5.753   6.308  0.2509 -0.1584  0.3292
   28SAPC   C21 3699   4.933   5.873   6.342 -0.3853 -0.2555  0.2177
   28SAPC   O22 3700   4.865   5.968   6.307  0.0251  0.2397  0.1930
   28SAPC   C22 3701   5.042   5.894   6.445 -0.8275  0.1553  0.4765
   28SAPC   H2R 3702   5.135   5.865   6.392 -1.3750  1.4650 -1.2897
   28SAPC   H2S 3703   5.058   5.994   6.489 -1.3006 -0.0498  1.1319
   28SAPC    C3 3704   4.701   5.671   6.270  0.0318 -0.1249  0.5047
   28SAPC    HX 3705   4.731   5.578   6.322 -1.8766 -1.4533 -0.6600
   28SAPC    HY 3706   4.629   5.644   6.190 -2.8872 -2.9340  3.7562
   28SAPC   O31 3707   4.632   5.758   6.359 -0.5653 -0.2570 -0.4531
   28SAPC   C31 3708   4.566   5.855   6.297 -0.1892  0.0004  0.3901
   28SAPC   O32 3709   4.588   5.882   6.178  0.7332  0.0441 -0.3823
   28SAPC   C32 3710   4.469   5.939   6.381 -1.0216  0.4583 -0.5776
   28SAPC   H2X 3711   4.374   5.881   6.384 -1.2843  0.7028 -2.4962
   28SAPC   H2Y 3712   4.446   6.037   6.332 -0.0837  1.3953  0.7808
   28SAPC   C23 3713   5.044   5.783   6.558  0.3122 -0.5451  0.0581
   28SAPC   H3R 3714   5.147   5.745   6.572  0.0390 -1.3136  0.0257
   28SAPC   H3S 3715   4.964   5.711   6.532  0.0603 -0.6010  0.9645
   28SAPC   C24 3716   5.013   5.838   6.701  0.0332  0.0946  1.0384
   28SAPC   H4R 3717   5.036   5.766   6.782  1.0963 -2.9829 -1.7542
   28SAPC   H4S 3718   5.096   5.911   6.715 -0.6244  1.0188  0.2654
   28SAPC   C25 3719   4.884   5.902   6.723 -0.2362 -0.3114 -0.6682
   28SAPC   H5R 3720   4.822   5.920   6.633 -0.8005  0.6534 -0.1005
   28SAPC   C26 3721   4.837   5.942   6.848 -0.4065  0.5057  0.1683
   28SAPC   H6R 3722   4.733   5.976   6.855 -1.3647 -1.7790 -1.5834
   28SAPC   C27 3723   4.908   5.926   6.982  0.1353  0.1652  0.1734
   28SAPC   H7R 3724   5.013   5.901   6.953 -0.4788  0.9753 -3.1068
   28SAPC   H7S 3725   4.865   5.846   7.046  0.6481 -0.0624  0.2454
   28SAPC   C28 3726   4.907   6.058   7.058 -0.1276 -0.8817 -0.3544
   28SAPC   H8R 3727   4.915   6.145   6.992  5.0740 -1.0667 -0.3946
   28SAPC   C29 3728   4.911   6.070   7.192  0.3840  0.5546 -0.0122
   28SAPC   H9R 3729   4.920   6.169   7.239  3.4816  1.1957 -1.7400
   28SAPC  C210 3730   4.924   5.952   7.293  0.4059  0.1537  0.1442
   28SAPC  H10R 3731   4.966   5.987   7.390 -2.4179  0.7227  1.2851
   28SAPC  H10S 3732   4.999   5.883   7.251  0.3634  0.7556 -0.9626
   28SAPC  C211 3733   4.795   5.879   7.314 -0.4059  0.1004  0.1200
   28SAPC  H11R 3734   4.754   5.842   7.219  0.3237 -1.4527  0.3896
   28SAPC  C212 3735   4.724   5.876   7.423  0.0658 -0.6995 -0.2650
   28SAPC  H12R 3736   4.636   5.811   7.425  0.3410 -1.1408 -1.8317
   28SAPC  C213 3737   4.761   5.945   7.553  0.0701 -0.1428 -0.1945
   28SAPC  H13R 3738   4.665   5.947   7.610 -0.8177  2.3899 -1.6292
   28SAPC  H13S 3739   4.785   6.052   7.535  1.8147 -0.2773  1.0916
   28SAPC  C214 3740   4.868   5.875   7.636 -0.1036 -0.5171 -0.3069
   28SAPC  H14R 3741   4.920   5.794   7.583  0.1722 -1.7895  1.8304
   28SAPC  C215 3742   4.899   5.906   7.764  0.3100 -0.4915 -0.0859
   28SAPC  H15R 3743   4.976   5.842   7.810  3.5025  2.4824 -0.8953
   28SAPC  C216 3744   4.829   6.008   7.854  0.0601  0.3331  0.1389
   28SAPC  H16R 3745   4.720   6.011   7.836  0.4705 -1.8115 -3.7112
   28SAPC  H16S 3746   4.867   6.107   7.821  0.5997  0.4535  1.0925
   28SAPC  C217 3747   4.862   5.988   8.003 -0.2218 -0.4207  0.3661
   28SAPC  H17R 3748   4.801   5.898   8.026 -2.8337  0.7522 -1.4436
   28SAPC  H17S 3749   4.811   6.072   8.055  0.5284  0.2271  0.0701
   28SAPC  C218 3750   5.012   5.978   8.028 -0.8146 -0.0983  0.2845
   28SAPC  H18R 3751   5.064   6.051   7.962 -0.8332 -1.1289 -0.8911
   28SAPC  H18S 3752   5.053   5.879   7.999 -0.2393  0.4399 -0.7924
   28SAPC  C219 3753   5.054   6.024   8.168  0.4279 -0.4181  0.5092
   28SAPC  H19R 3754   4.995   6.118   8.186  0.8792 -0.2463  1.1207
   28SAPC  H19S 3755   5.162   6.047   8.178  1.0079 -2.4450 -0.6198
   28SAPC  C220 3756   5.024   5.925   8.286 -0.5783  0.2969  0.1249
   28SAPC  H20R 3757   5.078   5.965   8.375  0.0602 -0.0918 -0.0771
   28SAPC  H20S 3758   5.076   5.830   8.261 -1.1208 -0.2950  1.1442
   28SAPC  H20T 3759   4.916   5.904   8.299 -0.9031  1.7881 -0.0812
   28SAPC   C33 3760   4.527   5.974   6.516  0.4414  1.2210  0.4860
   28SAPC   H3X 3761   4.623   6.027   6.499  0.9742 -0.2902 -1.6018
   28SAPC   H3Y 3762   4.557   5.882   6.570  1.3531  1.5626  0.5751
   28SAPC   C34 3763   4.435   6.049   6.605  0.0088 -0.8081 -0.1639
   28SAPC   H4X 3764   4.338   5.995   6.613 -1.8646  2.2907 -0.6443
   28SAPC   H4Y 3765   4.424   6.151   6.563 -0.4701 -1.6796 -2.2373
   28SAPC   C35 3766   4.492   6.056   6.746 -0.6921  0.3623  0.0760
   28SAPC   H5X 3767   4.598   6.088   6.737  0.1591 -2.3907 -0.6035
   28SAPC   H5Y 3768   4.496   5.955   6.792 -0.5070 -0.0997 -0.9202
   28SAPC   C36 3769   4.406   6.151   6.837  0.6770 -0.2357 -0.1953
   28SAPC   H6X 3770   4.300   6.120   6.826  0.9024 -1.2986  0.4762
   28SAPC   H6Y 3771   4.419   6.251   6.791  2.6065 -1.0933 -1.6496
   28SAPC   C37 3772   4.463   6.138   6.981  0.4967  0.2947 -0.2478
   28SAPC   H7X 3773   4.429   6.231   7.032 -0.7226  1.1928 -2.5286
   28SAPC   H7Y 3774   4.573   6.125   6.970  0.6278 -0.3610  1.5448
   28SAPC   C38 3775   4.402   6.018   7.055 -0.0216 -0.2651 -0.6669
   28SAPC   H8X 3776   4.447   5.926   7.012  2.1216  0.9526 -1.2318
   28SAPC   H8Y 3777   4.294   6.023   7.028 -0.2346  1.1536  0.3436
   28SAPC   C39 3778   4.408   6.024   7.202 -0.0992  0.2440  0.0334
   28SAPC   H9X 3779   4.355   6.117   7.232  2.1444  2.2804 -1.9453
   28SAPC   H9Y 3780   4.512   6.026   7.242 -0.1744  0.3461  0.2289
   28SAPC  C310 3781   4.341   5.901   7.253 -0.5942 -0.2972  0.4664
   28SAPC  H10X 3782   4.393   5.818   7.201  0.1272  0.7403 -0.5377
   28SAPC  H10Y 3783   4.239   5.894   7.209 -0.3635  1.7200 -0.5243
   28SAPC  C311 3784   4.339   5.889   7.402 -0.2754  0.0096  0.2452
   28SAPC  H11X 3785   4.303   5.984   7.447 -0.1245 -0.1742  0.7626
   28SAPC  H11Y 3786   4.445   5.879   7.434  0.1484  1.2455 -0.7337
   28SAPC  C312 3787   4.259   5.774   7.445  0.3326  0.1997 -0.2858
   28SAPC  H12X 3788   4.313   5.678   7.434 -0.4133  0.0117 -3.0079
   28SAPC  H12Y 3789   4.176   5.760   7.372  0.6072 -1.2595 -0.3506
   28SAPC  C313 3790   4.201   5.796   7.589 -0.8129 -0.1564  0.0018
   28SAPC  H13X 3791   4.115   5.726   7.599 -1.5635  0.3231 -2.4841
   28SAPC  H13Y 3792   4.156   5.897   7.589  0.6342  0.5402  1.1714
   28SAPC  C314 3793   4.298   5.785   7.711 -0.0140  0.1469 -0.0494
   28SAPC  H14X 3794   4.376   5.862   7.697  0.1564 -0.1532 -0.8123
   28SAPC  H14Y 3795   4.352   5.688   7.725  0.0304  0.3242  1.1362
   28SAPC  C315 3796   4.213   5.811   7.842 -0.2588 -0.4375 -0.1340
   28SAPC  H15X 3797   4.153   5.720   7.865 -2.2443  0.8859  0.1169
   28SAPC  H15Y 3798   4.143   5.892   7.814  0.1424 -0.4017 -1.0740
   28SAPC  C316 3799   4.310   5.838   7.965  0.1038 -0.9629 -0.7070
   28SAPC  H16X 3800   4.394   5.771   7.936 -1.5503 -2.4395 -2.3665
   28SAPC  H16Y 3801   4.262   5.802   8.059 -1.6811 -1.1368 -1.6419
   28SAPC  C317 3802   4.365   5.977   7.982 -0.5011  0.3259  0.3102
   28SAPC  H17X 3803   4.286   6.042   8.025 -0.3861  0.5577  0.1742
   28SAPC  H17Y 3804   4.387   6.020   7.882 -1.5651  1.7819  0.6601
   28SAPC  C318 3805   4.487   5.992   8.073  0.1610  0.4870  0.0924
   28SAPC  H18X 3806   4.525   6.096   8.060  1.8832  0.0089  0.9913
   28SAPC  H18Y 3807   4.564   5.917   8.044 -0.4338  0.4847 -1.6520
   28SAPC  H18Z 3808   4.463   5.976   8.180 -0.2123 -0.6465 -0.1424
   29SAPC     N 3809   1.634   3.012   6.119 -0.2621  0.6998  0.4258
   29SAPC   C12 3810   1.587   3.027   6.264 -0.1409 -0.7229  0.9133
   29SAPC  H12A 3811   1.649   3.107   6.303 -1.3278  1.1075 -0.7853
   29SAPC  H12B 3812   1.612   2.935   6.314 -0.9368 -0.9231  0.9585
   29SAPC   C13 3813   1.623   2.868   6.077  0.3734  0.6146  0.4328
   29SAPC  H13A 3814   1.674   2.805   6.148  3.1714  1.0558 -1.0654
   29SAPC  H13B 3815   1.523   2.826   6.065 -0.5004  2.1115  2.1468
   29SAPC  H13C 3816   1.673   2.876   5.982 -1.0027 -0.2761 -0.4165
   29SAPC   C14 3817   1.565   3.105   6.030 -0.3068 -0.1064 -0.2276
   29SAPC  H14A 3818   1.457   3.112   6.036 -0.1420  2.5540  2.1054
   29SAPC  H14B 3819   1.598   3.207   6.041  0.8506 -0.1763 -2.6060
   29SAPC  H14C 3820   1.591   3.084   5.928 -0.7577  2.3037 -0.9000
   29SAPC   C15 3821   1.778   3.045   6.118 -0.2977 -0.2046  0.1364
   29SAPC  H15A 3822   1.813   2.993   6.030 -1.3865 -0.0541 -0.4051
   29SAPC  H15B 3823   1.802   3.149   6.100 -0.5724 -0.5880 -3.1217
   29SAPC  H15C 3824   1.834   3.002   6.200 -0.5517 -2.1824 -0.6718
   29SAPC   C11 3825   1.441   3.061   6.297 -0.1267 -0.8049  0.3805
   29SAPC  H11A 3826   1.426   3.165   6.261  4.0399 -0.5630 -1.3114
   29SAPC  H11B 3827   1.413   3.042   6.402 -0.5750 -1.0352  0.2239
   29SAPC     P 3828   1.316   2.826   6.292  0.0914  0.0528  0.3483
   29SAPC   O13 3829   1.172   2.800   6.311  0.4396 -0.8581  0.0756
   29SAPC   O14 3830   1.371   2.724   6.200 -0.3051 -0.2804 -0.6959
   29SAPC   O12 3831   1.343   2.972   6.229 -0.1026 -0.7189 -0.1180
   29SAPC   O11 3832   1.395   2.808   6.428  0.6506 -0.0087 -0.0352
   29SAPC    C1 3833   1.334   2.824   6.553 -0.0277 -0.1834 -0.5687
   29SAPC    HA 3834   1.413   2.844   6.629 -1.0521 -0.0153  0.4805
   29SAPC    HB 3835   1.252   2.898   6.558  0.2697  0.0717  1.5938
   29SAPC    C2 3836   1.253   2.703   6.606 -0.7601 -0.0666  0.6950
   29SAPC    HS 3837   1.169   2.675   6.538 -0.2492 -0.8821  0.3926
   29SAPC   O21 3838   1.212   2.735   6.744 -0.4250 -0.0436  0.2623
   29SAPC   C21 3839   1.112   2.829   6.750 -0.0013 -0.4535  0.0799
   29SAPC   O22 3840   1.048   2.870   6.653 -0.1583  0.1503  0.0865
   29SAPC   C22 3841   1.075   2.865   6.892 -0.3022  0.1195 -0.2487
   29SAPC   H2R 3842   0.965   2.856   6.901 -0.4425  0.9395 -1.0683
   29SAPC   H2S 3843   1.127   2.795   6.962 -0.8788  1.3033  1.4097
   29SAPC    C3 3844   1.348   2.582   6.612  0.2112  0.1565 -0.7989
   29SAPC    HX 3845   1.444   2.616   6.657 -0.6215  0.9579  0.4312
   29SAPC    HY 3846   1.371   2.538   6.512  1.2378 -0.6747 -0.2209
   29SAPC   O31 3847   1.299   2.475   6.696  0.3115  0.5338  0.0055
   29SAPC   C31 3848   1.187   2.419   6.652 -0.2143 -0.3394  0.1201
   29SAPC   O32 3849   1.136   2.432   6.542  0.4022  0.2451  0.4273
   29SAPC   C32 3850   1.132   2.324   6.757 -0.5409 -0.1699 -0.1959
   29SAPC   H2X 3851   1.214   2.262   6.800 -1.8515 -1.7484  0.1280
   29SAPC   H2Y 3852   1.056   2.260   6.707  0.6113 -0.2897 -1.9110
   29SAPC   C23 3853   1.100   3.009   6.935 -1.0449  0.4055  0.2157
   29SAPC   H3R 3854   1.036   3.041   7.020 -0.0757  2.2278  0.3169
   29SAPC   H3S 3855   1.072   3.079   6.854  1.0556  1.0309 -0.0370
   29SAPC   C24 3856   1.253   3.038   6.973  0.1534  0.1034  0.0893
   29SAPC   H4R 3857   1.266   3.025   7.082 -1.2294 -1.3882  0.1182
   29SAPC   H4S 3858   1.258   3.149   6.970  2.8117  0.0656  1.0713
   29SAPC   C25 3859   1.360   2.995   6.873 -0.2800 -0.3827 -0.5317
   29SAPC   H5R 3860   1.358   3.020   6.766 -1.2635 -0.6917 -0.5914
   29SAPC   C26 3861   1.454   2.905   6.903  0.6054 -0.4445 -0.0939
   29SAPC   H6R 3862   1.516   2.872   6.819 -1.7075  0.6113 -2.3242
   29SAPC   C27 3863   1.467   2.838   7.038  0.2727 -0.1069  0.4848
   29SAPC   H7R 3864   1.432   2.898   7.124 -1.3025  0.3452 -0.4333
   29SAPC   H7S 3865   1.575   2.819   7.057  1.3793  1.9109 -2.9013
   29SAPC   C28 3866   1.397   2.706   7.011 -0.8258 -0.0337  1.1459
   29SAPC   H8R 3867   1.442   2.657   6.923  2.4790  2.3010  1.3337
   29SAPC   C29 3868   1.318   2.640   7.099 -0.8211  0.7028  0.0978
   29SAPC   H9R 3869   1.271   2.545   7.070 -0.1901  0.4164 -0.0147
   29SAPC  C210 3870   1.285   2.687   7.236 -0.5103 -0.2093  0.0335
   29SAPC  H10R 3871   1.350   2.776   7.249  0.4488 -0.6138 -1.6793
   29SAPC  H10S 3872   1.321   2.618   7.315  0.4518  1.0733  0.7560
   29SAPC  C211 3873   1.145   2.725   7.259  0.9234  0.0663  0.7794
   29SAPC  H11R 3874   1.082   2.737   7.170  0.6451 -1.4387  0.7466
   29SAPC  C212 3875   1.092   2.759   7.376  0.4563  0.2816 -0.4405
   29SAPC  H12R 3876   0.991   2.803   7.377 -0.1876 -1.1499 -0.6526
   29SAPC  C213 3877   1.165   2.768   7.508  0.7493 -0.0061 -0.1852
   29SAPC  H13R 3878   1.194   2.873   7.530  1.5020 -0.3563  0.5720
   29SAPC  H13S 3879   1.256   2.706   7.496  2.1356  1.9938 -0.4951
   29SAPC  C214 3880   1.091   2.714   7.625  0.4625 -0.0229 -0.0566
   29SAPC  H14R 3881   1.019   2.633   7.606 -0.5339  0.6155  0.8248
   29SAPC  C215 3882   1.110   2.749   7.754 -0.3189 -0.3066  0.3899
   29SAPC  H15R 3883   1.059   2.692   7.833  1.0868  0.5185  1.9722
   29SAPC  C216 3884   1.219   2.841   7.809 -0.2076  0.2203  0.1464
   29SAPC  H16R 3885   1.201   2.949   7.786  0.4158  0.3227  0.1103
   29SAPC  H16S 3886   1.315   2.823   7.755  1.0051  3.0449  1.1546
   29SAPC  C217 3887   1.256   2.829   7.957  0.0402 -1.2061  0.5475
   29SAPC  H17R 3888   1.171   2.859   8.021  0.4367  2.0993 -0.3092
   29SAPC  H17S 3889   1.324   2.910   7.993  0.0936 -1.0995  0.2074
   29SAPC  C218 3890   1.320   2.697   7.998 -0.3626 -0.5578 -0.9973
   29SAPC  H18R 3891   1.387   2.670   7.913  0.6982  3.3971 -1.6116
   29SAPC  H18S 3892   1.245   2.615   8.003 -0.2143 -0.7656 -1.9303
   29SAPC  C219 3893   1.413   2.688   8.124  0.5199 -1.0354 -0.0527
   29SAPC  H19R 3894   1.502   2.750   8.097  1.3788 -2.1708  0.0843
   29SAPC  H19S 3895   1.458   2.587   8.131 -0.4306 -1.7615 -3.0498
   29SAPC  C220 3896   1.349   2.742   8.249 -0.6222  0.0046  0.4039
   29SAPC  H20R 3897   1.309   2.838   8.211 -0.6292 -0.5257 -0.9641
   29SAPC  H20S 3898   1.424   2.755   8.330  3.6858 -0.7753 -3.0570
   29SAPC  H20T 3899   1.268   2.672   8.278  1.3675 -1.4759  2.8586
   29SAPC   C33 3900   1.079   2.389   6.887  0.5626 -1.0455 -0.2114
   29SAPC   H3X 3901   1.011   2.471   6.858  2.1313  0.3983  0.0429
   29SAPC   H3Y 3902   1.164   2.448   6.926  0.4222  1.1164 -2.8458
   29SAPC   C34 3903   1.011   2.296   6.987 -0.0755  0.1451  0.0651
   29SAPC   H4X 3904   1.057   2.196   6.974  0.5973  0.5977 -1.1557
   29SAPC   H4Y 3905   0.901   2.292   6.972 -0.2681  1.0004  1.0817
   29SAPC   C35 3906   1.048   2.323   7.142  0.8443  0.4707 -0.2892
   29SAPC   H5X 3907   0.974   2.264   7.200 -0.8941  1.6996 -1.1546
   29SAPC   H5Y 3908   1.036   2.431   7.168  3.0887  1.1304 -1.6549
   29SAPC   C36 3909   1.194   2.291   7.170 -0.2771  0.0134  0.1409
   29SAPC   H6X 3910   1.247   2.348   7.090 -2.1032  0.8235 -0.5407
   29SAPC   H6Y 3911   1.206   2.183   7.148  0.4568 -0.0274  0.7173
   29SAPC   C37 3912   1.251   2.334   7.302 -0.0712  0.3072 -0.7828
   29SAPC   H7X 3913   1.227   2.440   7.325  2.0830  0.2258  2.8035
   29SAPC   H7Y 3914   1.362   2.330   7.296  0.0643 -0.6008  1.2871
   29SAPC   C38 3915   1.191   2.256   7.429 -0.7251 -0.8233 -0.2052
   29SAPC   H8X 3916   1.227   2.151   7.432  0.8418 -0.2924  1.4909
   29SAPC   H8Y 3917   1.081   2.259   7.418 -0.5707  0.1036 -1.9042
   29SAPC   C39 3918   1.246   2.312   7.556 -0.3144 -0.0007  0.2732
   29SAPC   H9X 3919   1.220   2.420   7.555  0.7598  0.2689  0.5878
   29SAPC   H9Y 3920   1.354   2.289   7.555 -0.1911  0.2590 -3.1276
   29SAPC  C310 3921   1.172   2.259   7.680 -0.3755  0.3327 -0.4742
   29SAPC  H10X 3922   1.184   2.149   7.684  2.4839  0.5037 -1.4678
   29SAPC  H10Y 3923   1.064   2.281   7.667 -0.8645 -0.1036  2.1809
   29SAPC  C311 3924   1.217   2.322   7.813 -0.1626  0.2831 -0.4019
   29SAPC  H11X 3925   1.172   2.423   7.826  0.5104  0.5264  0.0914
   29SAPC  H11Y 3926   1.327   2.335   7.812 -0.2944  1.7061 -1.8754
   29SAPC  C312 3927   1.152   2.237   7.925  0.1103  0.6722 -1.0833
   29SAPC  H12X 3928   1.204   2.139   7.924 -0.2597  0.4396  0.2038
   29SAPC  H12Y 3929   1.045   2.218   7.903 -0.2353  0.4102  0.6482
   29SAPC  C313 3930   1.181   2.299   8.065  0.4637 -0.1190 -0.1186
   29SAPC  H13X 3931   1.135   2.236   8.144  0.5666 -1.9333 -1.4427
   29SAPC  H13Y 3932   1.131   2.397   8.080  1.7437  0.4762  0.4518
   29SAPC  C314 3933   1.335   2.311   8.086  0.2596 -0.1855  0.4973
   29SAPC  H14X 3934   1.372   2.390   8.017  1.7902  1.0632  2.6199
   29SAPC  H14Y 3935   1.380   2.217   8.047  2.0035  1.3094 -1.3503
   29SAPC  C315 3936   1.375   2.348   8.228  0.9848 -0.2812 -1.2766
   29SAPC  H15X 3937   1.307   2.428   8.265  2.0419 -0.0610  0.2836
   29SAPC  H15Y 3938   1.473   2.398   8.243  0.6246  0.1506 -0.2879
   29SAPC  C316 3939   1.362   2.230   8.325 -0.4601 -0.3609 -0.1123
   29SAPC  H16X 3940   1.453   2.168   8.310 -1.8819 -2.8993  1.2131
   29SAPC  H16Y 3941   1.291   2.155   8.284 -4.1406  3.5762 -1.7923
   29SAPC  C317 3942   1.325   2.265   8.469 -0.6581  0.6027 -0.4228
   29SAPC  H17X 3943   1.222   2.307   8.472 -0.7599  0.3241  1.5989
   29SAPC  H17Y 3944   1.384   2.355   8.498 -2.4326  1.5049  0.5874
   29SAPC  C318 3945   1.335   2.149   8.570  0.6851 -0.3368 -0.1365
   29SAPC  H18X 3946   1.278   2.195   8.654 -1.0861 -0.1950 -1.3527
   29SAPC  H18Y 3947   1.442   2.127   8.592  1.2901 -0.2553 -2.6934
   29SAPC  H18Z 3948   1.273   2.064   8.537 -0.5076  0.2807  0.4457
   30SAPC     N 3949   3.632   3.752   5.843  0.1907  1.0527 -0.2734
   30SAPC   C12 3950   3.553   3.746   5.967 -0.5864  0.1080 -0.2229
   30SAPC  H12A 3951   3.456   3.793   5.967 -1.5000 -1.6662  0.4378
   30SAPC  H12B 3952   3.609   3.794   6.045  2.2111 -1.2589 -1.2411
   30SAPC   C13 3953   3.543   3.683   5.736 -0.1004  0.1232  0.1948
   30SAPC  H13A 3954   3.521   3.584   5.773  1.8949 -1.2747 -2.0892
   30SAPC  H13B 3955   3.444   3.720   5.715 -0.2588 -0.1080  0.5102
   30SAPC  H13C 3956   3.597   3.685   5.643  1.7600  1.0515  1.2315
   30SAPC   C14 3957   3.650   3.895   5.801  0.2696  0.1863 -0.3275
   30SAPC  H14A 3958   3.685   3.905   5.700 -1.1651 -1.8378 -1.0711
   30SAPC  H14B 3959   3.551   3.935   5.818 -0.1395 -1.5759  1.9233
   30SAPC  H14C 3960   3.712   3.948   5.872 -0.5087  2.0559 -0.9752
   30SAPC   C15 3961   3.763   3.685   5.847 -1.0754  0.3425 -0.1127
   30SAPC  H15A 3962   3.836   3.735   5.908  0.1195  0.1858 -1.3773
   30SAPC  H15B 3963   3.755   3.586   5.890  1.5815  0.6194  1.1819
   30SAPC  H15C 3964   3.807   3.685   5.749 -1.2930  0.1094 -0.2130
   30SAPC   C11 3965   3.523   3.607   6.030  0.2483  0.0651 -0.1282
   30SAPC  H11A 3966   3.500   3.633   6.136 -2.5592 -0.6392 -0.4858
   30SAPC  H11B 3967   3.616   3.547   6.026  0.5652  0.3884  1.4652
   30SAPC     P 3968   3.365   3.402   5.991  0.2563 -0.0180  0.1398
   30SAPC   O13 3969   3.239   3.384   5.922 -0.3431  0.3971  1.3406
   30SAPC   O14 3970   3.469   3.304   5.965 -0.1242 -0.3070  0.3751
   30SAPC   O12 3971   3.423   3.548   5.956  0.1845  0.1988 -0.0047
   30SAPC   O11 3972   3.339   3.416   6.144  0.0645 -0.1669  0.0537
   30SAPC    C1 3973   3.224   3.495   6.186 -0.2140 -1.0844 -0.4920
   30SAPC    HA 3974   3.197   3.579   6.119 -0.4696 -1.0959 -0.4046
   30SAPC    HB 3975   3.133   3.431   6.192 -0.3232 -0.9521 -0.7322
   30SAPC    C2 3976   3.233   3.555   6.337 -0.1674  0.1504  0.1330
   30SAPC    HS 3977   3.336   3.596   6.341 -0.0004 -0.3327  1.2715
   30SAPC   O21 3978   3.213   3.453   6.438  0.0750 -0.0957 -0.2809
   30SAPC   C21 3979   3.327   3.407   6.494  0.0782 -0.5995  0.7233
   30SAPC   O22 3980   3.434   3.427   6.442  0.3423  0.2368 -0.1022
   30SAPC   C22 3981   3.292   3.366   6.636 -0.4200 -0.0098 -0.2727
   30SAPC   H2R 3982   3.195   3.312   6.623  0.5227 -1.7194 -0.4917
   30SAPC   H2S 3983   3.363   3.293   6.679 -0.8931 -0.1292  0.3199
   30SAPC    C3 3984   3.133   3.666   6.349  0.1963 -0.4739  0.7623
   30SAPC    HX 3985   3.038   3.655   6.293  0.6028  2.0990 -0.5553
   30SAPC    HY 3986   3.182   3.752   6.299 -0.0242 -1.1122 -0.6053
   30SAPC   O31 3987   3.113   3.705   6.487  0.3153  0.1993 -0.4467
   30SAPC   C31 3988   3.031   3.810   6.502  0.1985 -0.0919  0.0349
   30SAPC   O32 3989   2.963   3.854   6.413  0.0829 -0.4159 -0.0842
   30SAPC   C32 3990   3.026   3.843   6.651  0.0146  0.0260  0.0030
   30SAPC   H2X 3991   3.135   3.849   6.671  0.3352 -1.5332 -1.0608
   30SAPC   H2Y 3992   2.989   3.759   6.714 -0.3002  0.4190  0.3446
   30SAPC   C23 3993   3.278   3.488   6.736 -0.2211  0.5508 -0.4830
   30SAPC   H3R 3994   3.242   3.449   6.834  0.1071  0.0324 -0.5641
   30SAPC   H3S 3995   3.206   3.565   6.702 -0.9998 -0.0252 -0.1664
   30SAPC   C24 3996   3.406   3.576   6.759 -0.0313  0.0019 -0.3627
   30SAPC   H4R 3997   3.381   3.659   6.828 -2.2271 -0.3889 -0.5893
   30SAPC   H4S 3998   3.419   3.623   6.659 -1.7077  2.0051  0.2978
   30SAPC   C25 3999   3.530   3.502   6.792 -0.5184  0.1927  0.4557
   30SAPC   H5R 4000   3.567   3.438   6.711 -1.7096 -0.7421  0.6190
   30SAPC   C26 4001   3.588   3.487   6.914 -0.5400  0.1419 -0.2380
   30SAPC   H6R 4002   3.685   3.436   6.927  0.4575  1.7794 -0.8807
   30SAPC   C27 4003   3.542   3.541   7.044  0.4440  0.1647 -0.1459
   30SAPC   H7R 4004   3.513   3.646   7.023  2.3352  0.8824  0.5568
   30SAPC   H7S 4005   3.621   3.547   7.122 -0.2884  2.1318  0.5118
   30SAPC   C28 4006   3.419   3.474   7.110 -0.1671 -0.4151 -0.3328
   30SAPC   H8R 4007   3.334   3.475   7.040 -0.9187  0.0615  0.5549
   30SAPC   C29 4008   3.408   3.416   7.232 -1.0684 -0.0938  0.2029
   30SAPC   H9R 4009   3.313   3.362   7.247 -1.1028 -0.3228 -0.8169
   30SAPC  C210 4010   3.520   3.399   7.332 -0.5840 -0.8756  0.4877
   30SAPC  H10R 4011   3.608   3.358   7.277  0.4356  2.3401 -0.4635
   30SAPC  H10S 4012   3.483   3.319   7.400 -0.3058 -2.6101 -1.2824
   30SAPC  C211 4013   3.548   3.523   7.413  0.4992  0.4232  0.4284
   30SAPC  H11R 4014   3.459   3.587   7.418 -0.0077 -0.2779  0.5663
   30SAPC  C212 4015   3.650   3.548   7.495  0.5757  0.1813  0.5699
   30SAPC  H12R 4016   3.650   3.646   7.544 -3.6485  1.0029 -0.6334
   30SAPC  C213 4017   3.762   3.444   7.510 -0.4557  0.5771 -0.1758
   30SAPC  H13R 4018   3.847   3.476   7.445  0.8991  2.2744  2.2849
   30SAPC  H13S 4019   3.719   3.348   7.476 -2.1212  1.3791 -0.4206
   30SAPC  C214 4020   3.815   3.427   7.651  0.6997 -0.3574  0.0154
   30SAPC  H14R 4021   3.906   3.488   7.667  0.1847  0.6956 -0.9416
   30SAPC  C215 4022   3.765   3.355   7.753  0.0601  0.3295 -0.0823
   30SAPC  H15R 4023   3.818   3.353   7.849 -0.5726  0.6339  0.2827
   30SAPC  C216 4024   3.636   3.272   7.748 -0.3613  0.0507 -0.2443
   30SAPC  H16R 4025   3.627   3.226   7.647  1.2805  0.6046 -0.6831
   30SAPC  H16S 4026   3.549   3.341   7.758 -1.4337 -1.3937  0.7974
   30SAPC  C217 4027   3.610   3.180   7.868 -0.3785  0.0927  0.0037
   30SAPC  H17R 4028   3.694   3.107   7.861  2.9310  3.7154 -1.8275
   30SAPC  H17S 4029   3.521   3.115   7.853  0.5800 -1.0698 -0.8964
   30SAPC  C218 4030   3.605   3.233   8.004 -0.3007  0.6114 -0.7253
   30SAPC  H18R 4031   3.519   3.303   8.016  0.3482  1.2735  0.2973
   30SAPC  H18S 4032   3.706   3.280   8.010 -0.6440  1.9938 -3.8934
   30SAPC  C219 4033   3.616   3.117   8.111  0.4417 -0.8554 -0.0826
   30SAPC  H19R 4034   3.642   3.156   8.211  0.2219 -0.7129 -0.0785
   30SAPC  H19S 4035   3.701   3.056   8.074  0.1625 -0.3715 -1.5986
   30SAPC  C220 4036   3.477   3.044   8.130  0.0320 -0.5121  0.5712
   30SAPC  H20R 4037   3.398   3.122   8.143  0.6325  0.1416  0.3400
   30SAPC  H20S 4038   3.478   2.988   8.225 -0.1069 -1.4515  0.0334
   30SAPC  H20T 4039   3.441   2.988   8.040  0.3702  0.1896 -0.0140
   30SAPC   C33 4040   2.948   3.975   6.693 -0.3699 -0.2520  0.2371
   30SAPC   H3X 4041   2.998   4.060   6.642  1.7779 -1.3353  0.4562
   30SAPC   H3Y 4042   2.973   3.992   6.800  0.2455  1.9747 -0.2066
   30SAPC   C34 4043   2.796   3.978   6.662 -0.3077  0.8641  0.2986
   30SAPC   H4X 4044   2.759   3.877   6.692  1.5130  0.2073  0.4601
   30SAPC   H4Y 4045   2.791   3.985   6.552 -0.2980  0.4959  0.2709
   30SAPC   C35 4046   2.724   4.097   6.731  0.6404  0.7381 -0.0377
   30SAPC   H5X 4047   2.620   4.103   6.692  0.7003  0.5545 -0.2339
   30SAPC   H5Y 4048   2.770   4.190   6.691  0.3473  0.1611 -1.8484
   30SAPC   C36 4049   2.732   4.114   6.884  0.3905  0.0566  0.2306
   30SAPC   H6X 4050   2.837   4.137   6.913 -0.1216  0.7839  1.5700
   30SAPC   H6Y 4051   2.700   4.015   6.922 -1.7056  0.6241  0.0572
   30SAPC   C37 4052   2.650   4.232   6.933 -0.2736  0.4409 -0.3222
   30SAPC   H7X 4053   2.547   4.224   6.893  0.4943  1.2071 -2.6370
   30SAPC   H7Y 4054   2.686   4.323   6.880 -1.3472  0.9515 -0.2022
   30SAPC   C38 4055   2.673   4.259   7.086 -0.5827 -0.8299 -0.0001
   30SAPC   H8X 4056   2.633   4.357   7.118  0.0049 -0.3692 -0.6698
   30SAPC   H8Y 4057   2.779   4.255   7.120 -1.3134  2.0463  3.1934
   30SAPC   C39 4058   2.599   4.152   7.170 -0.0458  0.3000  0.2019
   30SAPC   H9X 4059   2.634   4.051   7.138 -2.6492 -0.5373 -0.2879
   30SAPC   H9Y 4060   2.488   4.161   7.166 -0.2266 -0.6014  1.8817
   30SAPC  C310 4061   2.636   4.176   7.323  0.3917 -0.3107 -0.0355
   30SAPC  H10X 4062   2.746   4.190   7.327  0.7275 -2.5439  0.3658
   30SAPC  H10Y 4063   2.630   4.071   7.360  1.6516 -0.2022  0.5068
   30SAPC  C311 4064   2.544   4.257   7.401  0.0619 -0.1849 -0.0915
   30SAPC  H11X 4065   2.444   4.209   7.413 -0.8833  1.4607 -1.0348
   30SAPC  H11Y 4066   2.532   4.354   7.349 -0.8600 -0.1059  0.2510
   30SAPC  C312 4067   2.615   4.287   7.541  0.6751 -1.1085  0.2487
   30SAPC  H12X 4068   2.556   4.364   7.595  1.5356  0.5100 -1.0412
   30SAPC  H12Y 4069   2.717   4.331   7.536  1.2123 -2.3174  0.2567
   30SAPC  C313 4070   2.622   4.159   7.630 -0.2087 -0.0527 -0.3062
   30SAPC  H13X 4071   2.584   4.068   7.577  0.3688 -1.1601  1.1161
   30SAPC  H13Y 4072   2.555   4.186   7.714 -0.5356  2.0589 -1.1962
   30SAPC  C314 4073   2.759   4.134   7.691 -0.5567 -0.2119 -0.1780
   30SAPC  H14X 4074   2.777   4.204   7.775  2.0829 -1.4980  0.4392
   30SAPC  H14Y 4075   2.839   4.162   7.620 -1.8882 -1.1229 -2.1228
   30SAPC  C315 4076   2.784   3.989   7.747  1.0534 -0.0174  0.0012
   30SAPC  H15X 4077   2.894   3.977   7.755  1.0432  0.4197  1.0299
   30SAPC  H15Y 4078   2.761   3.915   7.667 -1.0185 -0.0954  0.6162
   30SAPC  C316 4079   2.709   3.947   7.871  0.3545 -0.0652 -0.4797
   30SAPC  H16X 4080   2.602   3.966   7.848  0.9421  2.7470 -1.2565
   30SAPC  H16Y 4081   2.732   4.013   7.958 -0.4696  2.0786 -1.8188
   30SAPC  C317 4082   2.729   3.799   7.911 -1.3281  0.3676 -0.5646
   30SAPC  H17X 4083   2.803   3.787   7.993  0.6793  1.7387 -2.0502
   30SAPC  H17Y 4084   2.771   3.749   7.820 -0.1960 -0.7063  0.4958
   30SAPC  C318 4085   2.600   3.741   7.957  0.3489 -0.4447 -0.2332
   30SAPC  H18X 4086   2.537   3.816   8.010 -1.9797 -2.0098 -0.6176
   30SAPC  H18Y 4087   2.626   3.662   8.030 -0.2324  0.9052  1.4935
   30SAPC  H18Z 4088   2.537   3.714   7.869 -1.6784 -0.4490  1.1428
   31SAPC     N 4089   3.949   4.366   6.149  0.4145  0.4722 -0.8664
   31SAPC   C12 4090   4.034   4.405   6.272 -0.3085  0.8127 -0.9508
   31SAPC  H12A 4091   4.130   4.446   6.245  1.6534 -1.7830  1.4776
   31SAPC  H12B 4092   4.056   4.313   6.324  1.0748  2.6625  2.0141
   31SAPC   C13 4093   3.843   4.464   6.129 -0.0142 -0.6856  0.0387
   31SAPC  H13A 4094   3.790   4.453   6.035 -1.0542 -1.3054  0.6787
   31SAPC  H13B 4095   3.773   4.467   6.211  0.5356 -0.1549  0.4926
   31SAPC  H13C 4096   3.889   4.560   6.111  0.0118 -1.0281 -2.0068
   31SAPC   C14 4097   4.024   4.351   6.026 -0.4334  0.1743  0.3371
   31SAPC  H14A 4098   4.079   4.441   6.000  0.9532 -0.7984 -0.1943
   31SAPC  H14B 4099   4.098   4.273   6.028 -1.4911 -0.9308 -1.2145
   31SAPC  H14C 4100   3.953   4.319   5.951 -1.4395 -1.0161  1.7403
   31SAPC   C15 4101   3.883   4.234   6.188 -0.5120 -0.2793 -0.1445
   31SAPC  H15A 4102   3.822   4.212   6.102  1.4043  0.9975 -1.9235
   31SAPC  H15B 4103   3.956   4.154   6.191  0.3649  0.3831  4.4388
   31SAPC  H15C 4104   3.836   4.230   6.285  2.3009  0.3150  1.3574
   31SAPC   C11 4105   3.969   4.488   6.388  0.0510  0.5374  0.5479
   31SAPC  H11A 4106   4.033   4.475   6.478 -0.0756  0.3233  0.6071
   31SAPC  H11B 4107   3.869   4.447   6.412  0.2882 -0.3343  0.0836
   31SAPC     P 4108   4.087   4.705   6.294  0.1271  0.2894  0.0240
   31SAPC   O13 4109   4.167   4.625   6.196 -0.1086  0.7562 -0.2264
   31SAPC   O14 4110   4.052   4.837   6.244  0.0128 -0.2103  0.1856
   31SAPC   O12 4111   3.957   4.627   6.359 -0.2353 -0.3761  0.3437
   31SAPC   O11 4112   4.177   4.737   6.421  0.5744 -0.1256  0.5855
   31SAPC    C1 4113   4.121   4.777   6.544 -0.6531  0.0417 -0.2586
   31SAPC    HA 4114   4.029   4.839   6.537 -0.6838  0.3473  2.1620
   31SAPC    HB 4115   4.100   4.686   6.605  0.7913 -0.1269  0.0182
   31SAPC    C2 4116   4.211   4.855   6.637 -0.1697 -0.6015  0.6213
   31SAPC    HS 4117   4.275   4.923   6.576  1.5531 -1.3543  1.5372
   31SAPC   O21 4118   4.287   4.762   6.706 -0.0088  0.9629 -0.0962
   31SAPC   C21 4119   4.391   4.709   6.639 -0.5956 -0.4706  0.2532
   31SAPC   O22 4120   4.446   4.759   6.545  0.4085 -0.5263 -0.0908
   31SAPC   C22 4121   4.438   4.584   6.710  0.1007  0.5420  0.2158
   31SAPC   H2R 4122   4.368   4.548   6.787  0.0614  0.5649  0.1911
   31SAPC   H2S 4123   4.435   4.512   6.625 -0.9677 -1.0985  1.5764
   31SAPC    C3 4124   4.132   4.943   6.734 -0.3070 -0.3760 -0.1800
   31SAPC    HX 4125   4.095   4.873   6.811 -1.9007  0.6947  0.0576
   31SAPC    HY 4126   4.049   4.988   6.675  0.2914  3.2112  1.4729
   31SAPC   O31 4127   4.215   5.042   6.781 -0.0979  0.2770  1.2259
   31SAPC   C31 4128   4.190   5.091   6.909  0.5894 -0.3399 -0.1944
   31SAPC   O32 4129   4.118   5.031   6.984  0.9752 -0.1027 -0.2281
   31SAPC   C32 4130   4.278   5.207   6.954 -0.6617 -0.2404 -0.0777
   31SAPC   H2X 4131   4.266   5.289   6.880 -0.5352  1.1737  1.4010
   31SAPC   H2Y 4132   4.383   5.175   6.968  0.3794  2.1183 -1.7558
   31SAPC   C23 4133   4.577   4.600   6.769  0.4780 -0.2573 -0.4340
   31SAPC   H3R 4134   4.650   4.638   6.694 -0.4557  2.1579 -0.1847
   31SAPC   H3S 4135   4.610   4.500   6.805  1.2451  0.2964  0.4315
   31SAPC   C24 4136   4.589   4.693   6.889  0.7174  0.7509  0.2835
   31SAPC   H4R 4137   4.552   4.795   6.862  3.1228  1.6332  0.1082
   31SAPC   H4S 4138   4.695   4.714   6.912  0.6948  2.4779 -0.9877
   31SAPC   C25 4139   4.515   4.642   7.011 -0.4927 -0.3728 -0.1431
   31SAPC   H5R 4140   4.415   4.685   7.024 -1.2068 -1.6399 -1.2697
   31SAPC   C26 4141   4.563   4.574   7.115 -0.6066  0.5440 -0.3576
   31SAPC   H6R 4142   4.501   4.555   7.204  0.3052  1.1610  0.4384
   31SAPC   C27 4143   4.702   4.507   7.132  0.0423 -0.8511  0.4594
   31SAPC   H7R 4144   4.717   4.466   7.030 -1.9637  1.2896 -0.7953
   31SAPC   H7S 4145   4.697   4.424   7.206 -0.9848 -0.9459  0.2928
   31SAPC   C28 4146   4.809   4.601   7.170  0.3535 -0.0395  0.0585
   31SAPC   H8R 4147   4.876   4.641   7.092 -0.2778 -1.7022 -1.3742
   31SAPC   C29 4148   4.838   4.635   7.299  0.1097  0.5545  0.7161
   31SAPC   H9R 4149   4.924   4.702   7.312 -0.3185  2.1417 -3.3437
   31SAPC  C210 4150   4.771   4.589   7.425  0.1116  0.3325 -0.4903
   31SAPC  H10R 4151   4.677   4.536   7.397 -0.2004  0.8721 -0.4796
   31SAPC  H10S 4152   4.727   4.672   7.483  1.6790 -0.1338  1.5013
   31SAPC  C211 4153   4.849   4.494   7.513 -0.0080 -0.6409 -0.4289
   31SAPC  H11R 4154   4.885   4.395   7.482  1.7523 -0.5018  1.0177
   31SAPC  C212 4155   4.890   4.534   7.637 -0.5358  0.3039 -0.3391
   31SAPC  H12R 4156   4.946   4.457   7.692  0.0043 -0.2367 -1.5913
   31SAPC  C213 4157   4.873   4.666   7.707 -1.0952  0.8760  0.0518
   31SAPC  H13R 4158   4.900   4.749   7.638  0.2257  0.0799 -0.4160
   31SAPC  H13S 4159   4.955   4.668   7.781 -0.1133 -1.4782 -0.8928
   31SAPC  C214 4160   4.739   4.667   7.774 -0.1001  0.5857  0.0555
   31SAPC  H14R 4161   4.656   4.678   7.703 -0.2423  1.5245  0.3591
   31SAPC  C215 4162   4.725   4.651   7.909 -0.6997  0.2791 -0.0152
   31SAPC  H15R 4163   4.622   4.639   7.947 -0.6159  1.5561  0.6545
   31SAPC  C216 4164   4.829   4.621   8.015 -0.8769 -0.0329 -0.1706
   31SAPC  H16R 4165   4.923   4.581   7.974 -0.6269  0.3968 -0.0230
   31SAPC  H16S 4166   4.788   4.537   8.075 -1.5429  1.1518  1.1182
   31SAPC  C217 4167   4.852   4.742   8.116  0.5173  0.4126  0.1659
   31SAPC  H17R 4168   4.885   4.830   8.057  0.2247  0.2505 -0.2425
   31SAPC  H17S 4169   4.938   4.708   8.178 -0.3321 -0.3867  0.9371
   31SAPC  C218 4170   4.726   4.774   8.200 -0.4265  0.3248 -0.4558
   31SAPC  H18R 4171   4.633   4.784   8.139 -0.5507  0.8960 -0.1810
   31SAPC  H18S 4172   4.747   4.873   8.244 -0.3539 -0.2078  0.7478
   31SAPC  C219 4173   4.703   4.667   8.306  0.2868  0.3912  0.0123
   31SAPC  H19R 4174   4.799   4.623   8.339  0.3717 -1.8307 -2.8320
   31SAPC  H19S 4175   4.642   4.592   8.251 -0.1306  0.3636  0.5021
   31SAPC  C220 4176   4.614   4.702   8.425 -0.0785 -0.4397 -0.2609
   31SAPC  H20R 4177   4.654   4.789   8.483 -3.6581  1.0022  0.2764
   31SAPC  H20S 4178   4.597   4.613   8.489 -0.6226 -0.0835  0.0948
   31SAPC  H20T 4179   4.506   4.723   8.408 -0.2950  2.4335  3.3268
   31SAPC   C33 4180   4.212   5.287   7.075  0.4103  0.0307  0.9544
   31SAPC   H3X 4181   4.102   5.298   7.066  0.4792 -0.1167 -0.2149
   31SAPC   H3Y 4182   4.250   5.391   7.064 -1.6688  0.6600 -1.0127
   31SAPC   C34 4183   4.271   5.237   7.207 -0.3484 -0.9536 -0.7211
   31SAPC   H4X 4184   4.381   5.249   7.200 -0.0116 -3.3091 -0.4448
   31SAPC   H4Y 4185   4.260   5.126   7.209  2.9484 -1.4073 -2.1710
   31SAPC   C35 4186   4.204   5.302   7.329 -0.4725  0.3019  0.3039
   31SAPC   H5X 4187   4.093   5.299   7.317 -0.5774  0.2773  1.2263
   31SAPC   H5Y 4188   4.245   5.405   7.334  0.3830  0.0161 -0.6400
   31SAPC   C36 4189   4.249   5.223   7.457  0.0044 -0.5180 -0.0150
   31SAPC   H6X 4190   4.354   5.236   7.492 -0.6494 -0.8892  2.1931
   31SAPC   H6Y 4191   4.238   5.113   7.447  0.1057 -0.5447  0.1612
   31SAPC   C37 4192   4.166   5.259   7.579  0.4058 -0.2563 -0.0947
   31SAPC   H7X 4193   4.056   5.256   7.562  0.5604  0.9228 -1.4133
   31SAPC   H7Y 4194   4.191   5.361   7.614  1.7479 -0.9044  0.9004
   31SAPC   C38 4195   4.186   5.162   7.695  0.3249 -0.4338  0.1005
   31SAPC   H8X 4196   4.296   5.145   7.701  0.6215 -0.2709 -3.0604
   31SAPC   H8Y 4197   4.136   5.066   7.669 -2.0283  0.6747  0.2479
   31SAPC   C39 4198   4.130   5.232   7.817  0.1436 -0.1091 -0.9583
   31SAPC   H9X 4199   4.022   5.252   7.805 -0.2005 -0.5836  1.0629
   31SAPC   H9Y 4200   4.178   5.331   7.834  0.3536 -0.2681 -0.6186
   31SAPC  C310 4201   4.142   5.149   7.949  0.4362  0.3318  0.2992
   31SAPC  H10X 4202   4.122   5.208   8.041  0.2348 -0.8766  1.0502
   31SAPC  H10Y 4203   4.247   5.114   7.951  0.8683  1.0193 -3.1168
   31SAPC  C311 4204   4.047   5.021   7.957  0.0073  1.3281 -0.3886
   31SAPC  H11X 4205   4.086   4.943   7.889  2.3307  2.5160 -0.5357
   31SAPC  H11Y 4206   3.947   5.063   7.935 -0.0778 -0.7029 -4.8940
   31SAPC  C312 4207   4.069   4.959   8.104  0.3546 -0.6264  0.6423
   31SAPC  H12X 4208   4.043   5.040   8.175 -0.5575  0.5870 -1.0165
   31SAPC  H12Y 4209   4.171   4.915   8.101  0.7559  0.3275 -1.9666
   31SAPC  C313 4210   3.969   4.845   8.130  0.1295  0.2477 -0.5835
   31SAPC  H13X 4211   3.937   4.795   8.036  0.4641 -2.1477  0.5024
   31SAPC  H13Y 4212   3.878   4.889   8.177 -0.2023 -1.2381  0.2243
   31SAPC  C314 4213   4.019   4.732   8.221 -0.3217 -0.1311 -0.2804
   31SAPC  H14X 4214   4.108   4.703   8.162 -0.8195 -1.1927 -0.5469
   31SAPC  H14Y 4215   3.933   4.661   8.218 -1.5065  1.1420  1.5814
   31SAPC  C315 4216   4.057   4.765   8.371 -0.1821  0.0652  0.1883
   31SAPC  H15X 4217   3.967   4.811   8.418 -1.6967 -3.3498  0.9038
   31SAPC  H15Y 4218   4.138   4.841   8.365 -1.1841  1.1751  0.1661
   31SAPC  C316 4219   4.089   4.631   8.447  0.0625 -0.3131  0.4050
   31SAPC  H16X 4220   4.130   4.656   8.547  2.0765 -0.3524 -0.3741
   31SAPC  H16Y 4221   4.164   4.572   8.391 -1.4540 -2.1461  0.1912
   31SAPC  C317 4222   3.961   4.550   8.469 -0.2419  0.0619 -0.2799
   31SAPC  H17X 4223   3.911   4.511   8.378 -2.2006  0.7080  0.4526
   31SAPC  H17Y 4224   3.883   4.603   8.528 -0.4757 -1.7282  1.0677
   31SAPC  C318 4225   3.990   4.422   8.551 -0.0755  0.4933  0.2326
   31SAPC  H18X 4226   4.056   4.352   8.497 -0.5884  1.2314 -1.4251
   31SAPC  H18Y 4227   3.892   4.369   8.557  1.2463 -1.9514  1.6624
   31SAPC  H18Z 4228   4.022   4.438   8.656 -1.0936 -0.0015  0.6303
   32SAPC     N 4229   5.604   3.502   6.022 -0.4212  0.3721  0.4379
   32SAPC   C12 4230   5.661   3.444   6.149 -0.3083 -0.1079  0.2490
   32SAPC  H12A 4231   5.586   3.373   6.183 -1.4488 -0.4792 -2.7308
   32SAPC  H12B 4232   5.672   3.521   6.224  0.8196 -0.1777  0.1730
   32SAPC   C13 4233   5.684   3.625   5.984  0.9332  0.7585 -0.7291
   32SAPC  H13A 4234   5.665   3.639   5.879  2.2036 -0.2259 -1.1164
   32SAPC  H13B 4235   5.657   3.711   6.043  0.0066  0.0233 -0.0509
   32SAPC  H13C 4236   5.785   3.596   6.008 -0.1876 -3.6816 -0.4017
   32SAPC   C14 4237   5.586   3.404   5.911 -0.5825 -0.0240  0.8289
   32SAPC  H14A 4238   5.557   3.452   5.818  0.6463 -1.1229 -0.1513
   32SAPC  H14B 4239   5.666   3.333   5.895 -1.2498 -0.8889  1.2720
   32SAPC  H14C 4240   5.505   3.340   5.943  1.3372 -2.1938  1.6248
   32SAPC   C15 4241   5.460   3.548   6.045 -0.7914 -0.4998  0.1029
   32SAPC  H15A 4242   5.392   3.465   6.058 -1.6558  0.3025  0.8657
   32SAPC  H15B 4243   5.451   3.599   6.139 -0.9503 -0.9563  0.3404
   32SAPC  H15C 4244   5.427   3.605   5.960 -0.8808 -1.5273 -0.5690
   32SAPC   C11 4245   5.798   3.374   6.141 -0.8596  0.3541 -0.0034
   32SAPC  H11A 4246   5.789   3.298   6.060  0.7350  1.3169 -1.1325
   32SAPC  H11B 4247   5.814   3.319   6.236  0.8095 -3.1158 -2.0518
   32SAPC     P 4248   5.998   3.531   6.230  0.2776  0.4659  0.0506
   32SAPC   O13 4249   6.083   3.638   6.174 -0.4442  0.2883 -0.4470
   32SAPC   O14 4250   5.911   3.569   6.347  0.2578  0.3711 -0.3069
   32SAPC   O12 4251   5.909   3.464   6.114  0.3428 -0.1865  0.2044
   32SAPC   O11 4252   6.092   3.408   6.268 -0.1530  0.1663  0.5915
   32SAPC    C1 4253   6.059   3.305   6.360 -0.1784  0.9787 -0.3358
   32SAPC    HA 4254   5.954   3.317   6.392 -0.5962 -1.0341 -0.8544
   32SAPC    HB 4255   6.087   3.205   6.322 -2.4011 -0.8427  2.4083
   32SAPC    C2 4256   6.152   3.328   6.487  0.2213 -0.2882  0.3351
   32SAPC    HS 4257   6.132   3.251   6.565  0.5016 -0.3756  0.3217
   32SAPC   O21 4258   6.143   3.460   6.537 -0.1251 -0.0979 -0.1817
   32SAPC   C21 4259   6.043   3.474   6.625 -0.1060  0.0767 -0.5093
   32SAPC   O22 4260   5.957   3.393   6.648 -0.4024  0.2703 -0.3992
   32SAPC   C22 4261   6.049   3.620   6.680  0.3312  0.6025  0.5194
   32SAPC   H2R 4262   6.143   3.621   6.739  1.9222 -3.3675 -1.5550
   32SAPC   H2S 4263   6.048   3.688   6.592 -1.7716  0.7701  0.6256
   32SAPC    C3 4264   6.301   3.304   6.455  0.3755 -0.1364  0.3289
   32SAPC    HX 4265   6.327   3.374   6.373 -0.2156 -0.4961 -0.1696
   32SAPC    HY 4266   6.298   3.201   6.415 -1.1345  0.0085  0.0092
   32SAPC   O31 4267   6.387   3.303   6.572  0.1222  0.0516  0.4041
   32SAPC   C31 4268   6.454   3.419   6.599 -0.5358  0.1062  0.0718
   32SAPC   O32 4269   6.437   3.526   6.541 -0.1987  0.2782  0.0617
   32SAPC   C32 4270   6.545   3.392   6.715 -0.7105 -0.4747  0.4255
   32SAPC   H2X 4271   6.647   3.418   6.679 -0.5108  0.5462  1.6494
   32SAPC   H2Y 4272   6.534   3.284   6.739  1.0209 -0.4840  1.3721
   32SAPC   C23 4273   5.923   3.646   6.765  0.3348 -0.2672  0.2902
   32SAPC   H3R 4274   5.941   3.598   6.863  2.1473  0.2819  0.2664
   32SAPC   H3S 4275   5.830   3.607   6.719  0.9655 -1.9465  0.3447
   32SAPC   C24 4276   5.908   3.795   6.796  0.6159  0.1551 -0.0168
   32SAPC   H4R 4277   5.814   3.797   6.855  2.2158 -0.4372  2.6996
   32SAPC   H4S 4278   5.894   3.855   6.704 -0.0636 -1.6257 -1.1372
   32SAPC   C25 4279   6.024   3.851   6.876 -0.8339  0.4828 -0.6775
   32SAPC   H5R 4280   6.095   3.890   6.802 -0.4634 -1.8168 -1.6281
   32SAPC   C26 4281   6.038   3.860   7.007  0.3119  0.2514 -0.3036
   32SAPC   H6R 4282   6.121   3.923   7.042  0.0039  0.1700  0.5915
   32SAPC   C27 4283   5.945   3.813   7.116  0.4534  0.2102 -0.7193
   32SAPC   H7R 4284   5.854   3.761   7.079  1.1164 -1.6767  0.1749
   32SAPC   H7S 4285   5.923   3.897   7.185  1.7853 -1.2355  1.5887
   32SAPC   C28 4286   6.030   3.729   7.207  0.0464 -0.4218  0.4366
   32SAPC   H8R 4287   6.101   3.673   7.145 -1.2886 -2.3466  0.5719
   32SAPC   C29 4288   6.033   3.717   7.344  0.1383 -0.3743  0.2495
   32SAPC   H9R 4289   6.104   3.639   7.378  2.0657  1.0970 -0.2001
   32SAPC  C210 4290   5.937   3.776   7.445  0.1788 -0.1211 -0.0161
   32SAPC  H10R 4291   5.844   3.719   7.463  0.2402 -0.7059 -1.3992
   32SAPC  H10S 4292   5.909   3.874   7.401 -0.1760 -1.3842 -2.8587
   32SAPC  C211 4293   6.018   3.803   7.569 -0.0710  0.3123 -0.0267
   32SAPC  H11R 4294   6.111   3.858   7.549 -0.1189  0.0240 -1.0796
   32SAPC  C212 4295   5.986   3.779   7.701  0.2711 -0.1122  0.5836
   32SAPC  H12R 4296   6.051   3.819   7.781 -0.5432 -0.5491  1.4899
   32SAPC  C213 4297   5.855   3.714   7.737  0.5855 -0.5309 -0.3037
   32SAPC  H13R 4298   5.828   3.623   7.680 -4.2455  1.6474 -2.0694
   32SAPC  H13S 4299   5.767   3.776   7.711  1.6141 -0.3214 -3.7691
   32SAPC  C214 4300   5.866   3.685   7.892  0.4500 -0.5854 -0.3484
   32SAPC  H14R 4301   5.939   3.608   7.921  1.1255 -0.4073 -1.4884
   32SAPC  C215 4302   5.795   3.743   7.992 -0.6628 -0.2267  0.4871
   32SAPC  H15R 4303   5.813   3.726   8.100 -0.4457 -0.0686  0.4761
   32SAPC  C216 4304   5.679   3.839   7.975 -0.0429 -0.1765  0.1200
   32SAPC  H16R 4305   5.644   3.833   7.870  3.4162 -2.5438 -1.0679
   32SAPC  H16S 4306   5.707   3.944   7.997  3.0078 -0.5060 -1.6731
   32SAPC  C217 4307   5.560   3.808   8.075  0.5327 -0.7049  0.0358
   32SAPC  H17R 4308   5.598   3.810   8.179 -0.0621 -1.0905  0.2664
   32SAPC  H17S 4309   5.515   3.706   8.069  0.8091 -0.7895 -4.9612
   32SAPC  C218 4310   5.461   3.923   8.057 -0.1344 -0.2701 -0.0163
   32SAPC  H18R 4311   5.402   3.910   7.964  0.6856  0.6964 -0.6954
   32SAPC  H18S 4312   5.521   4.016   8.047 -0.4557 -0.0680 -0.0782
   32SAPC  C219 4313   5.365   3.933   8.174 -0.7163  0.1359  0.3861
   32SAPC  H19R 4314   5.307   3.839   8.183 -1.3657  0.5071  0.1506
   32SAPC  H19S 4315   5.291   4.010   8.146  0.4248  1.7212  1.5198
   32SAPC  C220 4316   5.428   3.967   8.314 -0.3409 -0.6650 -0.1434
   32SAPC  H20R 4317   5.514   3.903   8.346 -0.8768  0.1805  3.2942
   32SAPC  H20S 4318   5.349   3.961   8.392  0.0443  3.6750  0.8418
   32SAPC  H20T 4319   5.459   4.073   8.322 -0.5647 -0.5055 -1.2676
   32SAPC   C33 4320   6.507   3.480   6.832  1.2775  0.4711 -0.2276
   32SAPC   H3X 4321   6.542   3.582   6.806  1.1942  0.5638  0.0220
   32SAPC   H3Y 4322   6.579   3.455   6.913  0.1288  0.0688  0.6980
   32SAPC   C34 4323   6.364   3.485   6.881  0.1631  0.0239 -0.2032
   32SAPC   H4X 4324   6.350   3.388   6.932  2.4557  0.6225  1.7451
   32SAPC   H4Y 4325   6.298   3.494   6.792  2.4416  1.4143 -1.8695
   32SAPC   C35 4326   6.340   3.592   6.990 -0.4285 -0.0983 -0.0099
   32SAPC   H5X 4327   6.236   3.586   7.029 -0.0791  1.6756  1.3620
   32SAPC   H5Y 4328   6.371   3.694   6.958 -0.2677 -0.3729 -0.7392
   32SAPC   C36 4329   6.420   3.550   7.117 -0.2917  0.1965 -0.4652
   32SAPC   H6X 4330   6.400   3.635   7.186 -1.3573 -0.3803 -0.0498
   32SAPC   H6Y 4331   6.529   3.561   7.095  0.3515 -0.9872  1.8186
   32SAPC   C37 4332   6.383   3.421   7.186  0.1986  0.6332 -1.1125
   32SAPC   H7X 4333   6.447   3.348   7.133  1.9163 -0.2537  1.9606
   32SAPC   H7Y 4334   6.280   3.384   7.166 -0.1571 -0.2330  1.7774
   32SAPC   C38 4335   6.422   3.411   7.343  0.2996  0.4554  0.0919
   32SAPC   H8X 4336   6.527   3.444   7.358  1.1131 -2.4915  1.5373
   32SAPC   H8Y 4337   6.412   3.301   7.354 -1.3411  0.7013  1.2727
   32SAPC   C39 4338   6.328   3.495   7.437 -0.2296  0.4156 -0.4237
   32SAPC   H9X 4339   6.225   3.458   7.418  0.3842 -0.4088 -2.3942
   32SAPC   H9Y 4340   6.330   3.600   7.400  0.4663  0.9862  1.1655
   32SAPC  C310 4341   6.369   3.465   7.586  0.0181  0.3867  0.1240
   32SAPC  H10X 4342   6.467   3.504   7.619 -0.2949  1.2103  0.1054
   32SAPC  H10Y 4343   6.389   3.356   7.582 -2.2100 -0.0604 -0.3585
   32SAPC  C311 4344   6.258   3.502   7.689 -0.1168 -0.5861  0.5006
   32SAPC  H11X 4345   6.159   3.460   7.661  0.0992 -0.8005  0.0565
   32SAPC  H11Y 4346   6.265   3.613   7.696 -0.8682 -0.5029  0.0565
   32SAPC  C312 4347   6.294   3.444   7.828 -0.1056  0.2103 -0.5048
   32SAPC  H12X 4348   6.403   3.463   7.841 -0.4431  1.4699  0.9072
   32SAPC  H12Y 4349   6.282   3.334   7.837  1.5886  0.0535  0.3039
   32SAPC  C313 4350   6.218   3.500   7.946 -0.1629  0.6541 -0.1397
   32SAPC  H13X 4351   6.109   3.484   7.931 -0.6810  1.6622  2.1693
   32SAPC  H13Y 4352   6.237   3.607   7.972 -0.0662  0.1302  2.1229
   32SAPC  C314 4353   6.254   3.431   8.077 -0.8139 -0.0536  0.1403
   32SAPC  H14X 4354   6.360   3.427   8.110 -0.2306 -0.7221 -1.6988
   32SAPC  H14Y 4355   6.230   3.323   8.066  1.4896 -0.3807 -3.2301
   32SAPC  C315 4356   6.166   3.490   8.181  0.3744 -0.0638  0.2007
   32SAPC  H15X 4357   6.148   3.426   8.270 -4.0255  0.8522  0.2113
   32SAPC  H15Y 4358   6.062   3.509   8.145  0.8317  0.0434 -1.0861
   32SAPC  C316 4359   6.222   3.618   8.242  0.9815  0.3832 -0.2212
   32SAPC  H16X 4360   6.128   3.674   8.261 -0.5026 -0.8654 -3.1295
   32SAPC  H16Y 4361   6.290   3.683   8.182  3.4041 -1.8962 -0.1439
   32SAPC  C317 4362   6.294   3.590   8.376 -0.3629  0.0573 -0.4010
   32SAPC  H17X 4363   6.373   3.512   8.365  0.6048  0.9029  0.4328
   32SAPC  H17Y 4364   6.216   3.548   8.443  0.2793 -1.1171 -0.3466
   32SAPC  C318 4365   6.347   3.717   8.440 -0.5204 -0.2064 -0.1455
   32SAPC  H18X 4366   6.274   3.781   8.494 -1.0924 -0.0780 -1.0501
   32SAPC  H18Y 4367   6.376   3.786   8.358 -1.1861  0.4563  0.1722
   32SAPC  H18Z 4368   6.429   3.690   8.510  0.4962 -0.8376 -1.5289
   33POPC     N 4369   0.752   5.748  10.909 -0.0365 -0.2450 -0.0958
   33POPC   C12 4370   0.602   5.733  10.902  0.2648  0.7089 -0.5516
   33POPC  H12A 4371   0.560   5.832  10.908  0.4027  0.8407 -1.5678
   33POPC  H12B 4372   0.556   5.678  10.983 -0.2083  2.1335  0.1841
   33POPC   C13 4373   0.831   5.622  10.907  0.3767  0.3584 -0.0388
   33POPC  H13A 4374   0.931   5.647  10.938  0.1127 -0.7141  1.8704
   33POPC  H13B 4375   0.773   5.549  10.961 -1.3410  1.8376  0.2062
   33POPC  H13C 4376   0.830   5.574  10.810  1.0319 -2.5063  1.2717
   33POPC   C14 4377   0.801   5.830  10.799  0.3685  0.3850  0.1578
   33POPC  H14A 4378   0.786   5.780  10.704 -1.1474  1.5690 -0.2674
   33POPC  H14B 4379   0.752   5.926  10.795 -0.1325  0.2349  2.1012
   33POPC  H14C 4380   0.908   5.847  10.805  0.4665  0.1619 -0.7813
   33POPC   C15 4381   0.793   5.819  11.032 -1.0259 -0.1920  0.3940
   33POPC  H15A 4382   0.891   5.864  11.026 -1.3548  0.3143 -3.4421
   33POPC  H15B 4383   0.797   5.747  11.113  1.1939 -0.0937  0.4414
   33POPC  H15C 4384   0.730   5.904  11.055 -0.1241  0.5514  0.1764
   33POPC   C11 4385   0.542   5.669  10.775 -0.1148 -0.1512  0.2077
   33POPC  H11A 4386   0.567   5.739  10.692  1.6435 -0.8772  0.0846
   33POPC  H11B 4387   0.432   5.681  10.785 -0.6212 -2.0811 -2.0037
   33POPC     P 4388   0.610   5.464  10.632  0.1185  0.7973 -0.2917
   33POPC   O13 4389   0.646   5.325  10.659 -0.7870 -0.2921 -0.7577
   33POPC   O14 4390   0.696   5.540  10.534  0.0698 -0.0147 -0.5018
   33POPC   O12 4391   0.594   5.538  10.771  0.1778  0.0814  0.7724
   33POPC   O11 4392   0.463   5.474  10.579  0.2964 -0.1234  0.2489
   33POPC    C1 4393   0.397   5.367  10.517 -0.0624 -0.0141  0.8842
   33POPC    HA 4394   0.405   5.271  10.574  0.2370 -0.1462  0.6223
   33POPC    HB 4395   0.292   5.399  10.509  0.5933  2.3187  0.9749
   33POPC    C2 4396   0.449   5.360  10.370 -0.2142  0.0719  0.5380
   33POPC    HS 4397   0.557   5.336  10.373  0.5628  3.1982  0.5196
   33POPC   O21 4398   0.422   5.491  10.313 -0.1233  0.2670 -0.2553
   33POPC   C21 4399   0.524   5.538  10.244 -0.0782 -0.4283  0.1354
   33POPC   O22 4400   0.629   5.484  10.210 -0.0412 -0.8857  0.1570
   33POPC   C22 4401   0.464   5.669  10.176  0.5031  0.7204 -0.9279
   33POPC   H2R 4402   0.462   5.751  10.251 -0.6360 -0.2142  0.1057
   33POPC   H2S 4403   0.358   5.652  10.149 -0.5302  4.4493  0.2363
   33POPC    C3 4404   0.368   5.251  10.293  0.3908  0.4734 -0.0274
   33POPC    HX 4405   0.261   5.280  10.306 -0.3385 -0.0850 -3.5891
   33POPC    HY 4406   0.386   5.152  10.340 -0.6274 -0.7127 -1.9970
   33POPC   O31 4407   0.383   5.236  10.148 -0.2748 -0.2347 -0.2913
   33POPC   C31 4408   0.506   5.204  10.106  0.0955  0.1253  0.6620
   33POPC   O32 4409   0.600   5.176  10.175  0.0900  0.7501  0.4250
   33POPC   C32 4410   0.507   5.212   9.959 -0.2142  0.2210  0.4855
   33POPC   H2X 4411   0.406   5.240   9.920 -0.5724  0.6655  1.7104
   33POPC   H2Y 4412   0.528   5.115   9.908  0.3844  0.7304 -0.2669
   33POPC   C23 4413   0.535   5.716  10.051 -0.6045  0.8567 -0.0924
   33POPC   H3R 4414   0.552   5.623   9.993  2.7400  0.1106  1.8046
   33POPC   H3S 4415   0.635   5.757  10.078 -1.9733  2.8653  2.4357
   33POPC   C24 4416   0.457   5.822   9.964  0.2942 -0.5437  0.3860
   33POPC   H4R 4417   0.433   5.916  10.020 -1.2217  1.1075 -2.7632
   33POPC   H4S 4418   0.366   5.774   9.922  0.3100 -0.0334 -0.2522
   33POPC   C25 4419   0.541   5.867   9.842 -0.1172  0.1496 -0.1499
   33POPC   H5R 4420   0.580   5.780   9.787 -1.0147 -0.2703 -0.1424
   33POPC   H5S 4421   0.629   5.927   9.875  0.0546  0.0250 -0.3803
   33POPC   C26 4422   0.454   5.944   9.739 -0.3790 -0.1191 -0.2096
   33POPC   H6R 4423   0.420   6.034   9.795 -0.1185 -0.3735  0.3671
   33POPC   H6S 4424   0.364   5.884   9.712 -0.6076 -0.1622  0.6108
   33POPC   C27 4425   0.530   5.992   9.617  0.2907 -0.2194 -0.3573
   33POPC   H7R 4426   0.576   5.905   9.565  1.6766  0.9079 -1.0847
   33POPC   H7S 4427   0.614   6.051   9.660  0.8800 -1.3533  0.0875
   33POPC   C28 4428   0.462   6.085   9.507 -0.1727  0.0931  0.0618
   33POPC   H8R 4429   0.376   6.029   9.465  0.9265 -1.0067 -0.7985
   33POPC   H8S 4430   0.541   6.097   9.430  1.2512 -1.3614  1.2315
   33POPC   C29 4431   0.415   6.212   9.565 -0.5405 -0.8302 -0.3802
   33POPC   H91 4432   0.335   6.196   9.639 -2.6571  1.0702 -2.0825
   33POPC  C210 4433   0.443   6.343   9.534  0.2882 -0.1339  0.1029
   33POPC  H101 4434   0.377   6.422   9.573 -2.0838 -2.1268  0.4258
   33POPC  C211 4435   0.525   6.389   9.419  0.0769  0.1900 -0.6330
   33POPC  H11R 4436   0.478   6.463   9.352  0.5463  0.5499 -0.5779
   33POPC  H11S 4437   0.559   6.310   9.349 -0.9851 -0.1838 -0.7292
   33POPC  C212 4438   0.648   6.452   9.491  0.3725  0.9542  0.6519
   33POPC  H12R 4439   0.712   6.476   9.404  0.6373 -1.4869  0.0917
   33POPC  H12S 4440   0.691   6.374   9.558  1.4308  2.5524  1.9252
   33POPC  C213 4441   0.617   6.570   9.577 -0.5242  0.0561 -0.3157
   33POPC  H13R 4442   0.553   6.553   9.666  3.6173 -1.0711  2.6857
   33POPC  H13S 4443   0.560   6.640   9.511  0.9104  1.9421  0.3762
   33POPC  C214 4444   0.738   6.637   9.626 -0.7948  0.1895 -0.6216
   33POPC  H14R 4445   0.703   6.739   9.652  2.3992  1.2979 -0.2770
   33POPC  H14S 4446   0.806   6.645   9.539 -0.6263 -1.4955 -0.6686
   33POPC  C215 4447   0.810   6.565   9.739 -0.0665 -0.2552  0.0617
   33POPC  H15R 4448   0.837   6.462   9.705 -0.3318 -0.5645  0.7630
   33POPC  H15S 4449   0.738   6.544   9.822 -1.2551 -4.1802 -1.7137
   33POPC  C216 4450   0.938   6.639   9.772 -0.4045  0.5778 -0.1369
   33POPC  H16R 4451   0.929   6.744   9.806  3.6277  2.0348 -2.7639
   33POPC  H16S 4452   0.995   6.650   9.677 -1.2623  1.2186 -0.5881
   33POPC  C217 4453   1.025   6.575   9.891 -0.2194  0.7550 -0.2028
   33POPC  H17R 4454   0.980   6.605   9.988  1.3690  3.1139 -0.1428
   33POPC  H17S 4455   1.127   6.617   9.887  1.3661 -2.7592 -0.0668
   33POPC  C218 4456   1.042   6.425   9.876  0.4615  0.3009 -0.7642
   33POPC  H18R 4457   1.106   6.392   9.961 -1.3112 -0.9657  0.1586
   33POPC  H18S 4458   1.109   6.410   9.789 -0.2042  0.1282 -1.2540
   33POPC  H18T 4459   0.952   6.360   9.876  0.6929 -0.0319  0.3037
   33POPC   C33 4460   0.614   5.313   9.911  0.4526  0.2073 -0.2378
   33POPC   H3X 4461   0.712   5.263   9.922 -0.2904 -1.7333 -1.8512
   33POPC   H3Y 4462   0.615   5.406   9.972 -1.2090 -0.5001  0.9539
   33POPC   C34 4463   0.601   5.347   9.764  0.1367  1.1444  0.1338
   33POPC   H4X 4464   0.501   5.394   9.755 -0.7130 -0.2494  1.8150
   33POPC   H4Y 4465   0.595   5.254   9.704  0.0336 -0.6091  2.7374
   33POPC   C35 4466   0.720   5.428   9.706 -0.5330  0.5413  0.3701
   33POPC   H5X 4467   0.809   5.362   9.705 -0.8949  0.0371 -0.4838
   33POPC   H5Y 4468   0.741   5.516   9.770 -0.1210  0.1116  0.8291
   33POPC   C36 4469   0.687   5.470   9.562 -0.2111  0.6044  0.0454
   33POPC   H6X 4470   0.588   5.520   9.554 -0.0497  0.6346 -2.9177
   33POPC   H6Y 4471   0.683   5.380   9.498  1.0330  0.5489  0.0149
   33POPC   C37 4472   0.790   5.560   9.492 -0.1223  0.0867 -0.1784
   33POPC   H7X 4473   0.887   5.508   9.482 -0.5719 -0.6477 -0.8060
   33POPC   H7Y 4474   0.811   5.652   9.552  1.9729 -0.4809  0.0403
   33POPC   C38 4475   0.751   5.617   9.358  0.3098  0.7769  0.1374
   33POPC   H8X 4476   0.838   5.675   9.318  1.3979 -0.3997  0.7324
   33POPC   H8Y 4477   0.650   5.663   9.368 -0.9628 -2.0105  0.8515
   33POPC   C39 4478   0.728   5.508   9.251  0.5905 -0.5090 -0.1967
   33POPC   H9X 4479   0.644   5.440   9.274 -2.4224  3.1861  0.6687
   33POPC   H9Y 4480   0.818   5.443   9.246  0.3251 -0.8884 -0.0740
   33POPC  C310 4481   0.709   5.570   9.114  0.2085  0.3175 -0.8242
   33POPC  H10X 4482   0.791   5.642   9.093  2.6882 -2.0002  0.3083
   33POPC  H10Y 4483   0.623   5.640   9.102  0.2911  0.1672 -2.5514
   33POPC  C311 4484   0.711   5.469   9.000 -0.0638 -0.2561 -0.4643
   33POPC  H11X 4485   0.613   5.418   9.008 -0.1430  0.0821  1.0963
   33POPC  H11Y 4486   0.787   5.395   9.033 -2.7701 -2.3324  1.5967
   33POPC  C312 4487   0.724   5.524   8.857 -0.1071  0.3400  0.4085
   33POPC  H12X 4488   0.828   5.557   8.838 -0.0071  0.3728  0.9974
   33POPC  H12Y 4489   0.662   5.612   8.830  0.1647  0.5482  0.4681
   33POPC  C313 4490   0.701   5.403   8.760  0.5576 -0.6143 -0.1037
   33POPC  H13X 4491   0.751   5.315   8.808 -1.4256 -2.0342 -0.5128
   33POPC  H13Y 4492   0.741   5.416   8.657 -0.6985 -0.7219 -0.6195
   33POPC  C314 4493   0.553   5.376   8.732 -0.0351 -0.0391 -0.0155
   33POPC  H14X 4494   0.508   5.465   8.683  0.5886  0.0811 -0.3824
   33POPC  H14Y 4495   0.494   5.348   8.822 -0.1989 -1.7543 -0.6343
   33POPC  C315 4496   0.520   5.264   8.630  0.5500 -0.2837  0.2612
   33POPC  H15X 4497   0.554   5.284   8.526 -1.2175  0.1593 -0.2604
   33POPC  H15Y 4498   0.409   5.264   8.618  0.3940 -1.1270  1.4591
   33POPC  C316 4499   0.575   5.126   8.652  0.1514 -0.8308 -0.0182
   33POPC  H16X 4500   0.682   5.137   8.625 -0.0842  0.4411 -0.5068
   33POPC  H16Y 4501   0.526   5.048   8.590 -1.5191 -2.8174  3.4893
   33POPC  H16Z 4502   0.563   5.094   8.758  0.1500  0.2908  0.3292
   34POPC     N 4503   1.800   4.493  10.653 -0.4481 -0.0838  0.4751
   34POPC   C12 4504   1.717   4.479  10.532  0.0192 -0.5495 -0.2445
   34POPC  H12A 4505   1.781   4.426  10.464 -0.9293 -2.1691  0.0683
   34POPC  H12B 4506   1.686   4.570  10.483  2.3123 -0.0791 -0.9280
   34POPC   C13 4507   1.737   4.579  10.759  0.0975  0.2460 -0.0618
   34POPC  H13A 4508   1.744   4.682  10.726 -0.8050  0.0147 -1.0275
   34POPC  H13B 4509   1.634   4.554  10.775 -0.0022  0.2304 -0.6827
   34POPC  H13C 4510   1.802   4.565  10.844 -0.5589  1.7647  0.7217
   34POPC   C14 4511   1.822   4.358  10.706 -0.4681  0.4343 -0.2519
   34POPC  H14A 4512   1.729   4.313  10.735 -0.9449  1.7989  0.4219
   34POPC  H14B 4513   1.866   4.294  10.631  1.0077 -0.8890  1.6174
   34POPC  H14C 4514   1.893   4.347  10.788 -2.2335  1.4119  1.4805
   34POPC   C15 4515   1.931   4.559  10.618 -0.2792 -0.2445 -0.7090
   34POPC  H15A 4516   1.990   4.510  10.542  1.6463 -0.1094  0.6197
   34POPC  H15B 4517   2.004   4.559  10.698 -1.1567 -4.1932  0.2864
   34POPC  H15C 4518   1.917   4.659  10.580  1.0054 -0.3403 -1.5090
   34POPC   C11 4519   1.582   4.412  10.569  0.4265 -0.3172  0.3872
   34POPC  H11A 4520   1.589   4.322  10.634 -1.2414  0.4775  1.7611
   34POPC  H11B 4521   1.532   4.374  10.477  0.6341  0.9916 -0.2889
   34POPC     P 4522   1.438   4.637  10.580  0.3497 -0.3336  0.0151
   34POPC   O13 4523   1.462   4.745  10.678 -0.0018 -0.2452  0.1273
   34POPC   O14 4524   1.299   4.622  10.534 -0.0438 -0.6554 -0.0350
   34POPC   O12 4525   1.494   4.502  10.639  0.9114 -0.4153 -0.2881
   34POPC   O11 4526   1.537   4.668  10.460  0.3420  0.3065 -0.8004
   34POPC    C1 4527   1.529   4.604  10.333 -0.1294 -0.7565  0.8318
   34POPC    HA 4528   1.476   4.507  10.328  0.3545 -0.9476 -1.5479
   34POPC    HB 4529   1.630   4.587  10.290 -0.7431  0.4115 -1.1954
   34POPC    C2 4530   1.459   4.691  10.219  0.5358 -0.1200  0.1157
   34POPC    HS 4531   1.348   4.691  10.227  0.5762 -0.3270  0.6852
   34POPC   O21 4532   1.499   4.662  10.085 -0.0833  0.5928  1.1884
   34POPC   C21 4533   1.436   4.556  10.034 -0.2448  0.4969 -0.0240
   34POPC   O22 4534   1.358   4.480  10.090 -0.8294  0.0144  0.2221
   34POPC   C22 4535   1.476   4.533   9.889 -0.0262  0.4116  0.1258
   34POPC   H2R 4536   1.570   4.474   9.886 -0.1683  0.1961 -0.1234
   34POPC   H2S 4537   1.511   4.627   9.843  1.4006  0.0109  0.3518
   34POPC    C3 4538   1.478   4.843  10.249  0.2919 -0.0903  0.4260
   34POPC    HX 4539   1.587   4.859  10.264  0.0187 -0.1136  2.8994
   34POPC    HY 4540   1.428   4.877  10.342  0.7614  2.1514 -0.0757
   34POPC   O31 4541   1.434   4.923  10.141  0.5056  0.0134  0.1971
   34POPC   C31 4542   1.301   4.942  10.142 -0.5550  0.4537 -0.1504
   34POPC   O32 4543   1.223   4.892  10.220  0.7780  0.3535 -0.2513
   34POPC   C32 4544   1.262   5.033  10.020  0.3198 -0.1383 -0.3108
   34POPC   H2X 4545   1.311   5.131  10.039  0.7133 -0.3319 -0.3204
   34POPC   H2Y 4546   1.152   5.041  10.030  0.4853 -0.2906  2.5226
   34POPC   C23 4547   1.368   4.461   9.803  0.3662 -0.7014  0.1180
   34POPC   H3R 4548   1.281   4.531   9.808 -0.6941 -1.8711 -1.0216
   34POPC   H3S 4549   1.330   4.372   9.858 -0.3199 -0.2658  0.3575
   34POPC   C24 4550   1.401   4.438   9.660  0.7624  0.4991  0.3470
   34POPC   H4R 4551   1.314   4.392   9.610  0.6950 -0.2629  1.1459
   34POPC   H4S 4552   1.490   4.371   9.656  0.8768  0.5650  1.5632
   34POPC   C25 4553   1.441   4.566   9.576 -0.1789 -0.1925 -0.2906
   34POPC   H5R 4554   1.548   4.588   9.592  0.0587 -0.9756 -0.7800
   34POPC   H5S 4555   1.379   4.657   9.591  0.1302  0.4993 -2.7716
   34POPC   C26 4556   1.440   4.522   9.424  0.2208  0.5745  0.4201
   34POPC   H6R 4557   1.359   4.583   9.379  0.1734  0.7950  0.8024
   34POPC   H6S 4558   1.412   4.414   9.423  0.3943  0.5213 -1.0198
   34POPC   C27 4559   1.572   4.540   9.354 -0.3052 -0.0500 -0.1649
   34POPC   H7R 4560   1.658   4.486   9.400 -0.5123 -1.5432 -1.4421
   34POPC   H7S 4561   1.608   4.643   9.374  0.7138 -0.5579  0.7594
   34POPC   C28 4562   1.572   4.510   9.206  0.7569 -0.0265 -0.5134
   34POPC   H8R 4563   1.538   4.406   9.192 -1.5075  0.6902 -0.6989
   34POPC   H8S 4564   1.681   4.502   9.183  0.9527 -0.6180  0.5632
   34POPC   C29 4565   1.505   4.601   9.106  0.3904  0.4791 -0.3012
   34POPC   H91 4566   1.512   4.710   9.117 -2.6896  0.7059  0.3404
   34POPC  C210 4567   1.420   4.559   9.005  0.3092 -0.2809 -0.9043
   34POPC  H101 4568   1.379   4.638   8.940  0.6452  1.6198  1.0886
   34POPC  C211 4569   1.372   4.424   8.985 -0.0626  0.3515  0.4288
   34POPC  H11R 4570   1.262   4.413   8.972 -0.2299  0.9360  1.2624
   34POPC  H11S 4571   1.379   4.354   9.071 -1.9622 -0.8337 -0.2954
   34POPC  C212 4572   1.462   4.349   8.877  0.0456 -0.2763 -1.2870
   34POPC  H12R 4573   1.448   4.238   8.879  0.3755 -0.3318 -1.8574
   34POPC  H12S 4574   1.567   4.360   8.912 -0.0673 -0.5118 -0.8592
   34POPC  C213 4575   1.462   4.404   8.732  0.0602 -0.6411 -0.6337
   34POPC  H13R 4576   1.561   4.388   8.683 -0.1191  1.3333 -1.7290
   34POPC  H13S 4577   1.455   4.515   8.740  2.5211 -0.5585  2.9027
   34POPC  C214 4578   1.337   4.361   8.657  0.9846  0.5973 -0.1570
   34POPC  H14R 4579   1.248   4.383   8.719 -0.1121 -1.3112 -0.9887
   34POPC  H14S 4580   1.340   4.250   8.646  2.4677  0.6752 -0.8334
   34POPC  C215 4581   1.299   4.445   8.529 -0.5787 -0.1487 -0.3588
   34POPC  H15R 4582   1.277   4.549   8.562  1.1710  0.1765 -0.1277
   34POPC  H15S 4583   1.208   4.404   8.481 -0.5420 -1.0545  0.3198
   34POPC  C216 4584   1.415   4.436   8.429  0.2458 -0.4416  0.4420
   34POPC  H16R 4585   1.435   4.330   8.402 -0.5889  0.3184 -3.9454
   34POPC  H16S 4586   1.506   4.485   8.471 -0.7784  3.0481 -1.0180
   34POPC  C217 4587   1.398   4.510   8.288  0.7339 -0.3640 -0.3256
   34POPC  H17R 4588   1.420   4.618   8.302 -0.4539 -0.1711  0.2048
   34POPC  H17S 4589   1.295   4.491   8.251  0.6856  0.6758 -0.7648
   34POPC  C218 4590   1.486   4.457   8.181  0.6627  0.0105  0.1494
   34POPC  H18R 4591   1.473   4.347   8.172 -0.2338  0.1014  0.2427
   34POPC  H18S 4592   1.592   4.471   8.211  0.0455  0.8367  2.1005
   34POPC  H18T 4593   1.455   4.507   8.087  1.9418  2.0870  0.7619
   34POPC   C33 4594   1.305   4.975   9.890 -0.3328 -0.6449  0.3381
   34POPC   H3X 4595   1.308   4.864   9.896 -1.5104 -0.7311 -0.3243
   34POPC   H3Y 4596   1.401   5.029   9.877 -0.9714 -0.0388 -2.3296
   34POPC   C34 4597   1.221   5.011   9.762  0.8845  0.3624 -0.0984
   34POPC   H4X 4598   1.208   5.121   9.754  1.3390  0.5622  1.4895
   34POPC   H4Y 4599   1.125   4.962   9.790  1.8491 -2.4971 -1.3638
   34POPC   C35 4600   1.258   4.937   9.634 -0.0646 -0.2407  0.7492
   34POPC   H5X 4601   1.173   4.914   9.567 -2.5207  0.6187  3.3726
   34POPC   H5Y 4602   1.301   4.837   9.653  0.6690 -0.7279 -2.7643
   34POPC   C36 4603   1.372   5.014   9.560  0.7513 -0.0373  0.4279
   34POPC   H6X 4604   1.454   5.027   9.634  1.3833 -0.2054 -0.2257
   34POPC   H6Y 4605   1.344   5.119   9.536  0.8696 -0.4001 -1.4430
   34POPC   C37 4606   1.419   4.950   9.428  0.5704  0.1430 -0.1384
   34POPC   H7X 4607   1.464   4.852   9.454  0.0256 -0.2364 -0.5831
   34POPC   H7Y 4608   1.493   5.025   9.391  1.8321  0.5549  2.8915
   34POPC   C38 4609   1.309   4.911   9.321  0.1184  0.0661 -0.2781
   34POPC   H8X 4610   1.228   4.851   9.369 -2.6453  4.5706  1.3392
   34POPC   H8Y 4611   1.363   4.846   9.248  1.3028  0.1528  0.5110
   34POPC   C39 4612   1.255   5.035   9.247 -0.6559 -0.6477  0.4861
   34POPC   H9X 4613   1.341   5.105   9.240 -0.7227 -0.6805 -0.8604
   34POPC   H9Y 4614   1.182   5.081   9.317 -0.1717  0.9992 -0.0510
   34POPC  C310 4615   1.184   5.006   9.109 -0.1551 -0.4484 -0.3924
   34POPC  H10X 4616   1.096   4.946   9.141 -1.4172  2.2303  1.5587
   34POPC  H10Y 4617   1.249   4.949   9.040 -1.9003  0.6669 -3.1044
   34POPC  C311 4618   1.146   5.133   9.042  0.3158 -0.7406 -0.1750
   34POPC  H11X 4619   1.233   5.192   9.006 -0.6507  1.2862  0.6389
   34POPC  H11Y 4620   1.095   5.192   9.121  0.9601 -2.2811  1.4717
   34POPC  C312 4621   1.058   5.127   8.919  0.1749  0.9516  0.3257
   34POPC  H12X 4622   0.955   5.094   8.943  0.0221  0.9215 -0.3481
   34POPC  H12Y 4623   1.099   5.043   8.860 -0.7003  1.2793 -0.7827
   34POPC  C313 4624   1.046   5.263   8.839 -0.1128 -0.0444  0.1278
   34POPC  H13X 4625   1.140   5.323   8.848  1.2741 -2.2167  1.0842
   34POPC  H13Y 4626   0.973   5.329   8.890 -1.1731 -0.8820 -0.2876
   34POPC  C314 4627   1.009   5.235   8.687  0.4026 -0.0444  0.1840
   34POPC  H14X 4628   0.974   5.336   8.658 -0.4866 -0.8778 -1.8517
   34POPC  H14Y 4629   0.937   5.151   8.680  0.4703 -0.2192  1.4878
   34POPC  C315 4630   1.129   5.184   8.601  0.0604  0.0011  0.0758
   34POPC  H15X 4631   1.158   5.083   8.636 -3.8041 -0.8010  1.5399
   34POPC  H15Y 4632   1.213   5.249   8.631  0.9856 -1.6248  1.1299
   34POPC  C316 4633   1.108   5.180   8.452 -0.2296  0.4346 -0.0892
   34POPC  H16X 4634   1.049   5.260   8.401  0.0864  0.7338  0.0091
   34POPC  H16Y 4635   1.047   5.091   8.427 -0.4699 -0.3255  2.8500
   34POPC  H16Z 4636   1.206   5.180   8.401  1.0428 -2.8294  2.0493
   35POPC     N 4637   0.698   3.955  10.938  0.1826 -0.3443  0.3970
   35POPC   C12 4638   0.566   3.903  10.983 -0.2036 -0.1942 -0.5390
   35POPC  H12A 4639   0.559   3.877  11.087 -2.1236  0.7055 -0.3987
   35POPC  H12B 4640   0.550   3.810  10.932 -1.0130 -0.1332 -0.4054
   35POPC   C13 4641   0.806   3.865  10.992  0.5984 -0.4492  0.7041
   35POPC  H13A 4642   0.904   3.901  10.966 -0.1361  1.2514  0.1511
   35POPC  H13B 4643   0.801   3.870  11.100 -0.7117 -0.1179  0.6427
   35POPC  H13C 4644   0.785   3.771  10.943  0.5527  0.0560 -0.2571
   35POPC   C14 4645   0.715   3.945  10.783  0.5721  0.4920 -0.0491
   35POPC  H14A 4646   0.642   4.012  10.739 -0.0028  1.3730  2.0886
   35POPC  H14B 4647   0.807   3.988  10.747  0.6626 -1.1451 -1.9531
   35POPC  H14C 4648   0.702   3.843  10.751  0.2257  1.1900 -2.2849
   35POPC   C15 4649   0.720   4.090  10.992 -0.5599  0.2736  0.0764
   35POPC  H15A 4650   0.813   4.133  10.958  0.6524 -1.8072  0.5402
   35POPC  H15B 4651   0.715   4.088  11.100 -0.9637 -0.5337  0.0532
   35POPC  H15C 4652   0.636   4.149  10.958 -1.0886 -0.6656 -0.2923
   35POPC   C11 4653   0.436   3.978  10.953  0.3487 -0.3040  0.1107
   35POPC  H11A 4654   0.340   3.924  10.970 -1.7004  2.8632 -0.6983
   35POPC  H11B 4655   0.440   4.003  10.845  2.7154  0.6488  0.3590
   35POPC     P 4656   0.290   4.172  11.053  0.3107 -0.2937  0.6397
   35POPC   O13 4657   0.311   4.311  11.098 -0.2589  0.6567  0.2364
   35POPC   O14 4658   0.197   4.091  11.131  0.9488 -0.0205  0.5170
   35POPC   O12 4659   0.433   4.099  11.032 -0.1893  0.3994  0.3507
   35POPC   O11 4660   0.236   4.184  10.906 -0.1204  0.2001  0.6545
   35POPC    C1 4661   0.293   4.271  10.815  0.1173  0.2104  0.2118
   35POPC    HA 4662   0.292   4.226  10.714  2.2550 -1.4509  0.8454
   35POPC    HB 4663   0.401   4.278  10.843  0.0066 -0.7114  0.9348
   35POPC    C2 4664   0.219   4.412  10.812 -0.6870  0.6928 -0.2069
   35POPC    HS 4665   0.206   4.444  10.917  1.1076 -0.1090  0.3020
   35POPC   O21 4666   0.087   4.405  10.748 -0.3344  0.0150  0.4997
   35POPC   C21 4667   0.002   4.507  10.760  0.1073  0.2781 -0.7803
   35POPC   O22 4668   0.012   4.590  10.847  0.6398  0.2776 -0.4280
   35POPC   C22 4669  -0.096   4.506  10.646 -0.2079 -0.4998 -0.7281
   35POPC   H2R 4670  -0.195   4.457  10.658 -0.4881 -0.2402 -1.8475
   35POPC   H2S 4671  -0.033   4.484  10.557  2.2857  4.9088 -0.6781
   35POPC    C3 4672   0.311   4.512  10.734  0.2795  0.1610  0.1176
   35POPC    HX 4673   0.401   4.523  10.800  0.5074 -0.7364 -0.0228
   35POPC    HY 4674   0.258   4.608  10.720 -2.1864 -1.0097  0.8800
   35POPC   O31 4675   0.355   4.452  10.612  0.6486  0.0458 -0.0263
   35POPC   C31 4676   0.275   4.485  10.507  0.1358  0.4130  0.3509
   35POPC   O32 4677   0.185   4.566  10.513  0.0516  0.0671  0.0421
   35POPC   C32 4678   0.319   4.409  10.387 -0.1575  0.6417 -0.4551
   35POPC   H2X 4679   0.322   4.300  10.407  0.9186  0.6852 -0.3353
   35POPC   H2Y 4680   0.418   4.448  10.355  0.5920 -1.1796 -0.4764
   35POPC   C23 4681  -0.141   4.650  10.606 -0.0636 -0.6488  0.5810
   35POPC   H3R 4682  -0.047   4.698  10.572 -1.2449  1.4571  0.1380
   35POPC   H3S 4683  -0.192   4.702  10.690  1.3159  0.0436  1.0302
   35POPC   C24 4684  -0.226   4.649  10.476 -0.8258  0.1352 -0.2559
   35POPC   H4R 4685  -0.268   4.751  10.464 -0.1412  0.2547 -1.9876
   35POPC   H4S 4686  -0.302   4.569  10.471 -0.4354 -0.2116 -3.9583
   35POPC   C25 4687  -0.141   4.629  10.346  0.5168  0.0698  0.0464
   35POPC   H5R 4688  -0.072   4.542  10.350 -0.9194 -1.0916  0.1258
   35POPC   H5S 4689  -0.081   4.722  10.336 -1.2919  1.1859 -0.9825
   35POPC   C26 4690  -0.229   4.625  10.220 -0.0260  0.9789  0.6107
   35POPC   H6R 4691  -0.177   4.667  10.132 -1.0170 -0.1022 -0.5266
   35POPC   H6S 4692  -0.320   4.689  10.229 -0.2880  0.3515  3.0556
   35POPC   C27 4693  -0.262   4.481  10.179 -0.3888  0.4173 -0.1680
   35POPC   H7R 4694  -0.307   4.440  10.272  0.3341 -2.4240 -0.9667
   35POPC   H7S 4695  -0.185   4.405  10.155 -0.8758  0.1486 -0.9284
   35POPC   C28 4696  -0.364   4.479  10.064 -0.0562 -0.7868  0.3443
   35POPC   H8R 4697  -0.448   4.548  10.089 -0.7295 -0.6433 -2.0155
   35POPC   H8S 4698  -0.400   4.374  10.063 -0.9806 -0.6259  3.9214
   35POPC   C29 4699  -0.291   4.526   9.937 -0.1950  0.2069 -0.4268
   35POPC   H91 4700  -0.261   4.631   9.949 -2.2190  0.8515 -0.5942
   35POPC  C210 4701  -0.269   4.453   9.830 -0.1414  0.2022 -0.3749
   35POPC  H101 4702  -0.200   4.492   9.755  0.5266  1.6002  0.9076
   35POPC  C211 4703  -0.305   4.304   9.819  0.2748 -0.2579 -0.3224
   35POPC  H11R 4704  -0.416   4.294   9.823  0.2257  0.2336 -0.4155
   35POPC  H11S 4705  -0.279   4.241   9.907  1.1814  0.1128 -0.3159
   35POPC  C212 4706  -0.268   4.227   9.696  0.2397 -0.0726  0.6863
   35POPC  H12R 4707  -0.286   4.117   9.706  1.5214 -0.3843 -0.1622
   35POPC  H12S 4708  -0.161   4.249   9.678 -0.0843  0.4071 -0.8266
   35POPC  C213 4709  -0.331   4.286   9.569 -0.1913  0.5817 -0.0921
   35POPC  H13R 4710  -0.319   4.397   9.570 -0.7864  0.7049 -1.8674
   35POPC  H13S 4711  -0.440   4.264   9.563  0.1440 -0.8402 -3.0363
   35POPC  C214 4712  -0.274   4.232   9.439  0.6678  0.2051 -0.0182
   35POPC  H14R 4713  -0.263   4.121   9.436  0.5490  0.2024 -2.3981
   35POPC  H14S 4714  -0.171   4.273   9.433  0.2593  1.1328 -1.0588
   35POPC  C215 4715  -0.353   4.283   9.318 -0.2805 -0.3526 -0.0011
   35POPC  H15R 4716  -0.361   4.393   9.312  2.2493 -0.0788  0.4667
   35POPC  H15S 4717  -0.455   4.240   9.328  0.6787 -2.5029  1.5335
   35POPC  C216 4718  -0.294   4.244   9.179  0.0454 -0.1621 -0.1401
   35POPC  H16R 4719  -0.285   4.135   9.162 -2.6114 -0.5400  0.5232
   35POPC  H16S 4720  -0.198   4.297   9.158 -0.7587  1.3668 -0.1181
   35POPC  C217 4721  -0.396   4.281   9.074 -0.1740 -0.0025 -0.4374
   35POPC  H17R 4722  -0.398   4.392   9.071 -2.3777  0.0908  1.6447
   35POPC  H17S 4723  -0.497   4.253   9.111 -0.8128  1.6830 -0.7871
   35POPC  C218 4724  -0.375   4.218   8.940  0.3866  0.0791 -0.8060
   35POPC  H18R 4725  -0.397   4.110   8.948 -0.3796  0.1140 -2.1722
   35POPC  H18S 4726  -0.271   4.221   8.899 -0.0220  0.0342 -1.8794
   35POPC  H18T 4727  -0.451   4.251   8.867 -0.0157 -0.4075 -0.6094
   35POPC   C33 4728   0.226   4.452  10.262  0.5468 -0.2833  0.0235
   35POPC   H3X 4729   0.224   4.563  10.272 -1.8887 -0.3575  1.3151
   35POPC   H3Y 4730   0.130   4.403  10.291 -0.1120  1.1915  0.4183
   35POPC   C34 4731   0.270   4.387  10.132  0.0819  0.1665 -0.4347
   35POPC   H4X 4732   0.245   4.279  10.140  0.3786  0.0913 -0.5206
   35POPC   H4Y 4733   0.378   4.408  10.116  0.3322  1.3055  2.2458
   35POPC   C35 4734   0.187   4.444  10.021 -0.5677  0.4016  0.3444
   35POPC   H5X 4735   0.196   4.554  10.010  0.3602  0.3649  0.6299
   35POPC   H5Y 4736   0.083   4.408  10.035  0.3041 -2.1967  0.7002
   35POPC   C36 4737   0.240   4.377   9.888  0.4259 -0.3590  0.3598
   35POPC   H6X 4738   0.235   4.268   9.912 -2.3478 -0.7244 -1.3973
   35POPC   H6Y 4739   0.342   4.416   9.869 -0.0728  0.3632 -0.9511
   35POPC   C37 4740   0.156   4.417   9.769  0.6451 -0.3569 -0.1232
   35POPC   H7X 4741   0.167   4.528   9.762 -1.0016 -0.2413 -1.2781
   35POPC   H7Y 4742   0.050   4.401   9.798  0.3829 -4.0872 -2.4782
   35POPC   C38 4743   0.197   4.332   9.652 -0.5722  0.1941  0.6220
   35POPC   H8X 4744   0.228   4.235   9.696  1.1722  1.2587  1.8722
   35POPC   H8Y 4745   0.285   4.387   9.613 -0.3172  0.3155  1.3599
   35POPC   C39 4746   0.099   4.310   9.541 -0.5149  0.7553 -0.3584
   35POPC   H9X 4747   0.003   4.365   9.557 -1.7517 -0.9509 -1.5128
   35POPC   H9Y 4748   0.053   4.209   9.546 -0.3272  0.6127 -1.2688
   35POPC  C310 4749   0.164   4.312   9.397 -0.4450 -0.0621 -0.6727
   35POPC  H10X 4750   0.265   4.268   9.404 -0.8208 -0.8427 -0.0052
   35POPC  H10Y 4751   0.187   4.417   9.369  0.0912  1.0527  3.3147
   35POPC  C311 4752   0.082   4.243   9.288  0.1613  0.8858 -0.1860
   35POPC  H11X 4753  -0.001   4.307   9.252 -0.8805 -0.6699 -0.6431
   35POPC  H11Y 4754   0.019   4.158   9.320 -0.2381  0.7610 -1.2446
   35POPC  C312 4755   0.160   4.209   9.159 -0.0915  0.4383  0.2441
   35POPC  H12X 4756   0.230   4.125   9.178  0.7955  0.6720 -1.7421
   35POPC  H12Y 4757   0.218   4.292   9.113  0.6110 -1.6193 -2.8475
   35POPC  C313 4758   0.069   4.149   9.053 -0.6254 -0.1746 -0.0240
   35POPC  H13X 4759   0.002   4.232   9.021 -0.7872  0.0283  0.8201
   35POPC  H13Y 4760   0.017   4.071   9.112 -0.4214 -0.3301 -0.0503
   35POPC  C314 4761   0.135   4.073   8.936 -0.5180 -0.3572  0.1400
   35POPC  H14X 4762   0.190   3.981   8.967 -0.2707 -0.3540 -0.2685
   35POPC  H14Y 4763   0.202   4.150   8.892  1.2619 -1.4555  0.8025
   35POPC  C315 4764   0.028   4.020   8.832 -0.5431 -0.0316 -0.7446
   35POPC  H15X 4765   0.070   3.995   8.732  0.7479  1.4414 -0.5972
   35POPC  H15Y 4766  -0.051   4.098   8.822 -1.7691 -0.8042  1.9892
   35POPC  C316 4767  -0.051   3.896   8.886 -0.1823  0.6286 -0.5005
   35POPC  H16X 4768  -0.103   3.923   8.980 -0.7349  0.1826 -0.6702
   35POPC  H16Y 4769   0.003   3.799   8.893 -2.9558 -0.9856  0.3575
   35POPC  H16Z 4770  -0.130   3.873   8.812 -1.2571 -1.6101  1.2271
   36POPC     N 4771   3.047   6.606  10.912 -0.2393 -0.1297  0.2275
   36POPC   C12 4772   3.012   6.731  10.835  0.2377 -0.3613 -0.5264
   36POPC  H12A 4773   3.101   6.790  10.814 -0.5796  1.9264  1.8631
   36POPC  H12B 4774   2.954   6.795  10.900 -2.0619 -0.8687 -1.9900
   36POPC   C13 4775   3.131   6.634  11.035  0.1904 -0.6741  0.1688
   36POPC  H13A 4776   3.211   6.706  11.020  0.8901 -0.8630  2.5831
   36POPC  H13B 4777   3.074   6.684  11.111  2.1920  1.4639  0.3813
   36POPC  H13C 4778   3.162   6.540  11.078 -2.6186 -1.5471  0.4718
   36POPC   C14 4779   2.925   6.528  10.948 -0.7112 -0.3042  0.2102
   36POPC  H14A 4780   2.941   6.424  10.973 -1.0281  0.2447  3.0502
   36POPC  H14B 4781   2.874   6.579  11.028 -1.6704 -1.4457  0.3557
   36POPC  H14C 4782   2.858   6.533  10.864 -1.9622  2.4834  1.2445
   36POPC   C15 4783   3.123   6.516  10.820  0.0968  0.5940 -0.0813
   36POPC  H15A 4784   3.226   6.548  10.818  0.2949 -0.0500 -0.3367
   36POPC  H15B 4785   3.080   6.494  10.723  2.9945 -0.3719 -1.2448
   36POPC  H15C 4786   3.122   6.418  10.865 -3.1859  0.7216  0.4005
   36POPC   C11 4787   2.934   6.717  10.703  0.1394 -0.1099  0.5451
   36POPC  H11A 4788   2.978   6.629  10.652  1.2004  0.3458  0.6336
   36POPC  H11B 4789   2.941   6.809  10.640 -0.9075  0.2464  0.9349
   36POPC     P 4790   2.688   6.796  10.767 -0.3198  0.2520  0.4200
   36POPC   O13 4791   2.728   6.919  10.842 -0.0045  0.3704  0.2555
   36POPC   O14 4792   2.571   6.723  10.814 -0.1708  0.0956  0.9850
   36POPC   O12 4793   2.800   6.684  10.746 -0.7022 -0.2889 -0.5494
   36POPC   O11 4794   2.657   6.841  10.619 -0.1544  0.3683  0.6777
   36POPC    C1 4795   2.574   6.769  10.524 -0.1921 -0.0328 -1.0397
   36POPC    HA 4796   2.511   6.845  10.473  0.0377  0.3416 -0.7762
   36POPC    HB 4797   2.513   6.693  10.577 -0.8976 -0.7244 -2.7577
   36POPC    C2 4798   2.658   6.696  10.411  0.1768  0.5098 -0.8738
   36POPC    HS 4799   2.717   6.621  10.469  0.9487  0.9526 -1.0644
   36POPC   O21 4800   2.742   6.791  10.343  0.3845 -0.2933  0.3094
   36POPC   C21 4801   2.840   6.728  10.273  0.4337 -0.1820  0.3002
   36POPC   O22 4802   2.851   6.609  10.246  0.3920 -0.2301 -0.1240
   36POPC   C22 4803   2.927   6.842  10.206  0.6585 -0.4143  0.1934
   36POPC   H2R 4804   3.016   6.839  10.273  0.4075 -0.6438  0.5198
   36POPC   H2S 4805   2.876   6.938  10.225  0.7856  0.0951 -1.8298
   36POPC    C3 4806   2.565   6.632  10.311  0.6437 -0.0588  0.1335
   36POPC    HX 4807   2.505   6.559  10.369 -2.1535  2.8154  1.2044
   36POPC    HY 4808   2.618   6.572  10.234  2.2995  2.9025 -1.2336
   36POPC   O31 4809   2.474   6.729  10.241 -0.1115 -0.0661 -0.2411
   36POPC   C31 4810   2.490   6.749  10.112  0.0349  0.6072 -0.0037
   36POPC   O32 4811   2.554   6.677  10.036  0.3938 -0.1298  0.2831
   36POPC   C32 4812   2.418   6.870  10.066 -0.1018  0.0104  0.2374
   36POPC   H2X 4813   2.469   6.963  10.099  0.0250  0.7663 -1.9611
   36POPC   H2Y 4814   2.313   6.868  10.103 -0.4193  2.0068 -0.4235
   36POPC   C23 4815   2.980   6.814  10.068 -0.3204 -0.9446 -0.2641
   36POPC   H3R 4816   2.995   6.704  10.060  1.3770 -0.6369 -1.8005
   36POPC   H3S 4817   3.077   6.863  10.048  0.5573 -2.4510  0.1233
   36POPC   C24 4818   2.883   6.853   9.958  0.0685  0.0925 -0.6915
   36POPC   H4R 4819   2.897   6.961   9.935  3.1206 -0.1926 -0.5372
   36POPC   H4S 4820   2.783   6.830  10.001  0.6854  0.9984  1.3461
   36POPC   C25 4821   2.901   6.775   9.826  0.9545 -0.5272  0.2999
   36POPC   H5R 4822   2.877   6.668   9.844  0.9794 -0.2879  1.8714
   36POPC   H5S 4823   3.008   6.786   9.798  0.5705  4.2942 -0.1451
   36POPC   C26 4824   2.805   6.816   9.707 -0.3646  0.3356 -0.6746
   36POPC   H6R 4825   2.792   6.926   9.698  0.6351  0.4406 -1.0003
   36POPC   H6S 4826   2.702   6.780   9.726 -0.5433  1.3754  0.4170
   36POPC   C27 4827   2.877   6.773   9.579 -0.2638  0.0814 -0.2646
   36POPC   H7R 4828   2.803   6.733   9.506  0.9871 -2.0331 -0.4781
   36POPC   H7S 4829   2.940   6.688   9.613 -1.6222 -1.2034 -0.8631
   36POPC   C28 4830   2.963   6.886   9.517  0.2825 -0.3342 -0.3425
   36POPC   H8R 4831   3.004   6.942   9.604  0.3734  0.5699 -0.9650
   36POPC   H8S 4832   2.894   6.959   9.469 -0.0148  0.2836  0.9615
   36POPC   C29 4833   3.061   6.819   9.427  0.2653 -0.3955  0.7847
   36POPC   H91 4834   3.095   6.718   9.455  2.6779  0.2818  0.4898
   36POPC  C210 4835   3.101   6.871   9.308 -0.5806  0.5827 -0.4505
   36POPC  H101 4836   3.177   6.811   9.254 -1.3016  0.5195 -1.4275
   36POPC  C211 4837   3.059   6.997   9.239  0.2193 -1.2602 -0.0351
   36POPC  H11R 4838   3.142   7.068   9.261 -1.3241  0.9046 -0.9510
   36POPC  H11S 4839   2.968   7.047   9.277  1.4836  1.3726 -0.2844
   36POPC  C212 4840   3.050   6.981   9.081 -0.3148 -0.0883  0.0861
   36POPC  H12R 4841   3.143   6.931   9.048 -0.5799 -0.0847 -0.6888
   36POPC  H12S 4842   3.043   7.079   9.028 -1.8515  0.6399  1.5416
   36POPC  C213 4843   2.936   6.887   9.041  0.1189  0.5898 -0.3003
   36POPC  H13R 4844   2.848   6.916   9.103  1.3356  3.2119  0.3617
   36POPC  H13S 4845   2.955   6.779   9.061 -1.0124  0.3431 -0.4871
   36POPC  C214 4846   2.901   6.901   8.892  0.0367 -0.1669  0.2935
   36POPC  H14R 4847   2.987   6.935   8.830  1.3766 -2.6555  0.6850
   36POPC  H14S 4848   2.825   6.982   8.895 -1.0303 -1.1387  0.0347
   36POPC  C215 4849   2.847   6.777   8.822 -0.1047  0.4378  0.0632
   36POPC  H15R 4850   2.746   6.748   8.859  0.2662 -1.8407 -0.5273
   36POPC  H15S 4851   2.907   6.684   8.836  0.2185  0.9154  2.2487
   36POPC  C216 4852   2.851   6.802   8.661 -0.4226  0.2911 -0.1596
   36POPC  H16R 4853   2.953   6.838   8.635  0.6092 -0.6194  2.3038
   36POPC  H16S 4854   2.781   6.887   8.651  0.0997  0.6229 -1.1104
   36POPC  C217 4855   2.802   6.688   8.582  0.4788 -0.0089  0.5114
   36POPC  H17R 4856   2.705   6.656   8.626  0.7565 -2.5688 -0.5640
   36POPC  H17S 4857   2.873   6.603   8.583  0.8959  0.2823 -1.1282
   36POPC  C218 4858   2.799   6.733   8.431  0.0845  0.0491 -1.1145
   36POPC  H18R 4859   2.746   6.831   8.424 -2.5169 -1.2399 -0.8337
   36POPC  H18S 4860   2.752   6.665   8.357  1.4910  1.0880 -3.0402
   36POPC  H18T 4861   2.903   6.752   8.400  0.8630 -0.7060  0.8587
   36POPC   C33 4862   2.427   6.889   9.911 -0.0658  0.0082 -0.2591
   36POPC   H3X 4863   2.533   6.879   9.879  0.3373 -0.8996  1.2315
   36POPC   H3Y 4864   2.390   6.993   9.906 -2.3365 -0.6091  1.7690
   36POPC   C34 4865   2.348   6.780   9.832  0.0715 -0.0348 -0.0673
   36POPC   H4X 4866   2.250   6.761   9.882  0.6793 -0.8751  0.8309
   36POPC   H4Y 4867   2.412   6.689   9.829  2.8607  1.8602 -1.5169
   36POPC   C35 4868   2.325   6.835   9.692 -0.7636 -0.0220  0.0363
   36POPC   H5X 4869   2.275   6.934   9.704 -1.2902 -0.5973  3.6091
   36POPC   H5Y 4870   2.259   6.759   9.645 -0.9781 -1.5282  2.5505
   36POPC   C36 4871   2.452   6.859   9.617 -0.4841 -0.5108 -0.9043
   36POPC   H6X 4872   2.512   6.768   9.596  0.5679 -0.3697  1.2954
   36POPC   H6Y 4873   2.525   6.926   9.667  0.1171 -2.3147  0.7694
   36POPC   C37 4874   2.426   6.916   9.477 -1.0524  0.2683  0.0787
   36POPC   H7X 4875   2.356   7.000   9.497 -0.8055  0.1489  1.6283
   36POPC   H7Y 4876   2.366   6.843   9.420 -1.2713  0.9500 -0.5757
   36POPC   C38 4877   2.547   6.950   9.393  0.3311  0.4541 -0.2399
   36POPC   H8X 4878   2.622   6.868   9.404 -0.0237  0.2361  0.6365
   36POPC   H8Y 4879   2.611   7.030   9.437  1.7356 -0.4447 -0.5595
   36POPC   C39 4880   2.514   6.992   9.249  0.1950  0.2608 -0.1068
   36POPC   H9X 4881   2.602   7.035   9.199 -0.8376  1.5579 -0.8668
   36POPC   H9Y 4882   2.440   7.074   9.240 -1.4394 -1.2006 -0.7218
   36POPC  C310 4883   2.465   6.875   9.164 -0.3803 -0.0194  0.1930
   36POPC  H10X 4884   2.360   6.847   9.186 -0.0453 -0.3582  1.4843
   36POPC  H10Y 4885   2.532   6.788   9.180 -0.1906 -0.1454 -1.2080
   36POPC  C311 4886   2.467   6.916   9.023 -0.1680 -0.6322 -0.3056
   36POPC  H11X 4887   2.567   6.941   8.982 -1.6888  2.1957 -2.6452
   36POPC  H11Y 4888   2.396   7.001   9.010 -1.4831 -1.0461  3.1588
   36POPC  C312 4889   2.420   6.804   8.935 -0.0965 -0.2240  0.2662
   36POPC  H12X 4890   2.325   6.782   8.987 -0.4246  2.8499  1.1489
   36POPC  H12Y 4891   2.495   6.722   8.941 -0.5262 -0.5547  1.4269
   36POPC  C313 4892   2.385   6.855   8.792 -1.2260  0.8355  0.4168
   36POPC  H13X 4893   2.485   6.864   8.746 -1.3900 -1.0857 -0.4086
   36POPC  H13Y 4894   2.330   6.952   8.796 -0.2260  1.4498 -0.3513
   36POPC  C314 4895   2.310   6.758   8.713  0.1664 -0.2826 -0.2767
   36POPC  H14X 4896   2.218   6.718   8.762  0.2670  0.6074  0.6866
   36POPC  H14Y 4897   2.369   6.669   8.681 -0.5109 -0.0164 -2.4320
   36POPC  C315 4898   2.263   6.811   8.579 -0.1061  0.1707 -0.7821
   36POPC  H15X 4899   2.220   6.913   8.596 -1.3989 -0.7635  2.3380
   36POPC  H15Y 4900   2.174   6.764   8.533  0.7130 -1.6036 -0.6230
   36POPC  C316 4901   2.371   6.816   8.475 -0.8745 -0.1890  0.1188
   36POPC  H16X 4902   2.384   6.720   8.420 -1.1102  0.2322 -0.6831
   36POPC  H16Y 4903   2.470   6.837   8.520 -1.3660  0.3554  0.9797
   36POPC  H16Z 4904   2.335   6.886   8.396  0.1543 -0.1002 -0.2818
   37POPC     N 4905   6.320   3.929   6.280 -0.2036  0.6168 -0.2741
   37POPC   C12 4906   6.439   3.976   6.356  0.5776  0.5733 -0.3296
   37POPC  H12A 4907   6.415   4.028   6.447 -0.8277 -2.1728  0.9873
   37POPC  H12B 4908   6.496   4.044   6.295  2.8354  0.1993  1.2231
   37POPC   C13 4909   6.225   4.031   6.234 -0.2970 -0.1733 -0.2284
   37POPC  H13A 4910   6.167   4.071   6.316  2.5271  1.1653  1.2535
   37POPC  H13B 4911   6.267   4.107   6.170 -1.0631  1.2891  0.9333
   37POPC  H13C 4912   6.151   3.981   6.174 -1.0000 -0.5818  0.9295
   37POPC   C14 4913   6.357   3.872   6.149  0.3394  0.3631 -0.5450
   37POPC  H14A 4914   6.419   3.944   6.098 -0.4480 -0.0573 -2.1746
   37POPC  H14B 4915   6.424   3.788   6.159  1.0969  0.7442 -2.1331
   37POPC  H14C 4916   6.278   3.843   6.081  0.6822  1.5955 -1.5148
   37POPC   C15 4917   6.246   3.819   6.352 -0.6356  0.1598 -0.1463
   37POPC  H15A 4918   6.177   3.772   6.284 -1.3482 -0.3690  0.9155
   37POPC  H15B 4919   6.189   3.846   6.440  1.2680 -0.8992  1.5104
   37POPC  H15C 4920   6.317   3.742   6.378 -0.2776  0.7086  0.5647
   37POPC   C11 4921   6.545   3.875   6.407 -0.7817 -0.8948  0.2749
   37POPC  H11A 4922   6.498   3.795   6.467 -1.3945 -1.2017 -0.5945
   37POPC  H11B 4923   6.601   3.933   6.483 -0.2207 -0.6838 -0.2988
   37POPC     P 4924   6.743   3.899   6.257 -0.2595 -0.0823 -0.0016
   37POPC   O13 4925   6.695   4.030   6.215 -0.1467  0.2765 -0.5704
   37POPC   O14 4926   6.818   3.814   6.160 -0.1345 -0.1439  0.3995
   37POPC   O12 4927   6.617   3.815   6.301 -0.0080  0.0843  0.8948
   37POPC   O11 4928   6.833   3.914   6.380  0.0491  0.0440 -0.9938
   37POPC    C1 4929   6.881   3.795   6.453 -0.2727  0.0145  0.3026
   37POPC    HA 4930   6.990   3.807   6.471 -0.2197 -0.0179  0.0089
   37POPC    HB 4931   6.867   3.703   6.392  0.4166 -0.0611  0.2448
   37POPC    C2 4932   6.808   3.767   6.588 -0.2734  0.2993 -0.4538
   37POPC    HS 4933   6.707   3.723   6.571  0.1193 -1.0839  0.6179
   37POPC   O21 4934   6.801   3.891   6.663  0.3312  0.5635 -0.3701
   37POPC   C21 4935   6.696   3.899   6.744 -0.6547  0.4314  0.7948
   37POPC   O22 4936   6.601   3.825   6.745  0.3598 -0.5430  0.1560
   37POPC   C22 4937   6.731   4.011   6.851  0.1771  0.6609 -0.1491
   37POPC   H2R 4938   6.728   4.105   6.792 -1.1684 -0.3099 -1.7126
   37POPC   H2S 4939   6.833   3.982   6.884 -0.0845  0.2166  0.2823
   37POPC    C3 4940   6.890   3.654   6.666  0.6735  0.2738 -0.1039
   37POPC    HX 4941   6.999   3.675   6.668  0.8525 -0.6017  2.1704
   37POPC    HY 4942   6.868   3.561   6.610  0.5187 -0.0439  0.4784
   37POPC   O31 4943   6.853   3.644   6.803  0.3101  0.1941 -0.4693
   37POPC   C31 4944   6.890   3.549   6.872  0.3554  0.3018  0.5771
   37POPC   O32 4945   6.949   3.447   6.834 -0.5485 -0.6921 -0.1360
   37POPC   C32 4946   6.857   3.573   7.020 -0.4830  0.0016 -0.2827
   37POPC   H2X 4947   6.766   3.635   7.036 -1.0957 -0.7064 -0.9460
   37POPC   H2Y 4948   6.938   3.632   7.069 -0.6043  1.1353 -1.4029
   37POPC   C23 4949   6.625   4.003   6.958 -0.1647  0.2255 -0.9419
   37POPC   H3R 4950   6.519   3.982   6.937 -0.6674 -0.3915  1.7893
   37POPC   H3S 4951   6.613   4.097   7.015 -0.4181  0.4268 -1.3221
   37POPC   C24 4952   6.663   3.894   7.062  0.0387 -0.2501 -0.1522
   37POPC   H4R 4953   6.771   3.898   7.089  0.1185  2.2608 -0.5652
   37POPC   H4S 4954   6.651   3.795   7.014 -0.2634 -0.5805  0.5817
   37POPC   C25 4955   6.583   3.917   7.188  0.1184 -0.5875  0.6090
   37POPC   H5R 4956   6.473   3.916   7.171 -0.1934  0.7863  2.3043
   37POPC   H5S 4957   6.596   4.023   7.219  0.2077  0.2367 -1.9679
   37POPC   C26 4958   6.619   3.829   7.310 -0.1053 -0.4587  0.5345
   37POPC   H6R 4959   6.727   3.842   7.335 -0.0886  0.7571 -0.0609
   37POPC   H6S 4960   6.611   3.723   7.280 -2.1932 -0.8867  2.3747
   37POPC   C27 4961   6.547   3.863   7.437 -0.8267  0.4462  0.0645
   37POPC   H7R 4962   6.436   3.854   7.428 -0.8114 -0.7185  0.8763
   37POPC   H7S 4963   6.584   3.966   7.459  1.8291 -0.6760  1.2514
   37POPC   C28 4964   6.585   3.774   7.561 -0.4616  0.1711 -0.2581
   37POPC   H8R 4965   6.692   3.799   7.580 -0.8892  1.5386  0.5169
   37POPC   H8S 4966   6.554   3.671   7.533  0.1691  0.3812 -1.7896
   37POPC   C29 4967   6.502   3.816   7.681 -0.4793 -0.0221  0.6998
   37POPC   H91 4968   6.393   3.819   7.664 -0.3555  0.8589 -0.0605
   37POPC  C210 4969   6.553   3.831   7.808  0.5589 -0.6331  0.0848
   37POPC  H101 4970   6.483   3.853   7.890  0.0776 -0.4318 -0.3746
   37POPC  C211 4971   6.691   3.817   7.861 -1.0017  0.5168  0.8361
   37POPC  H11R 4972   6.712   3.914   7.911  1.3879  1.6097 -2.0065
   37POPC  H11S 4973   6.771   3.793   7.788 -0.4447 -2.0332  2.1588
   37POPC  C212 4974   6.707   3.700   7.960  0.7651  0.1094  0.4798
   37POPC  H12R 4975   6.811   3.708   7.998  1.0464  0.6789 -0.3736
   37POPC  H12S 4976   6.691   3.600   7.915 -0.1086  1.2144 -1.8571
   37POPC  C213 4977   6.621   3.714   8.085 -0.0122 -0.3633 -0.4756
   37POPC  H13R 4978   6.651   3.624   8.142  1.9118 -0.6056 -1.7752
   37POPC  H13S 4979   6.511   3.703   8.073 -0.5838  2.7406  0.9265
   37POPC  C214 4980   6.643   3.833   8.178  0.8782 -0.6981 -0.4480
   37POPC  H14R 4981   6.576   3.831   8.267  0.9630  2.5906 -0.1829
   37POPC  H14S 4982   6.622   3.922   8.116  3.9954  0.2678 -0.2406
   37POPC  C215 4983   6.788   3.842   8.235 -0.0325  0.7401 -0.2598
   37POPC  H15R 4984   6.856   3.852   8.148  2.5986 -2.5916  1.1899
   37POPC  H15S 4985   6.816   3.754   8.297 -0.8940  1.7110  1.5534
   37POPC  C216 4986   6.808   3.974   8.314 -0.0955 -0.0567  0.7030
   37POPC  H16R 4987   6.769   4.054   8.248  0.1980  0.4768  1.1721
   37POPC  H16S 4988   6.914   3.985   8.347  0.1683 -2.5930  0.9227
   37POPC  C217 4989   6.733   3.972   8.449  0.0723 -0.1000  0.3238
   37POPC  H17R 4990   6.766   3.876   8.494  0.7003 -1.2130 -2.3068
   37POPC  H17S 4991   6.627   3.957   8.420 -1.1626  0.7069  3.9101
   37POPC  C218 4992   6.743   4.095   8.530  0.2922 -0.1188  0.0310
   37POPC  H18R 4993   6.834   4.108   8.592 -1.8831  0.0692  3.4136
   37POPC  H18S 4994   6.651   4.111   8.591 -0.8491  2.1654 -2.1136
   37POPC  H18T 4995   6.734   4.183   8.463 -3.3941  0.6536  1.2989
   37POPC   C33 4996   6.832   3.440   7.098  0.4143 -0.5901 -0.8548
   37POPC   H3X 4997   6.921   3.373   7.086  0.4068 -0.4460 -1.7722
   37POPC   H3Y 4998   6.749   3.376   7.061 -1.1599 -0.5829  2.3247
   37POPC   C34 4999   6.811   3.472   7.247 -0.4682 -0.2396  0.1426
   37POPC   H4X 5000   6.706   3.507   7.260  0.3878  2.3632  0.5793
   37POPC   H4Y 5001   6.887   3.547   7.279 -1.5804  0.6472  0.7788
   37POPC   C35 5002   6.830   3.347   7.339  0.1404  0.1799  0.7670
   37POPC   H5X 5003   6.894   3.273   7.287 -1.7594 -1.4322  0.6268
   37POPC   H5Y 5004   6.727   3.306   7.347  0.1833 -0.3152 -0.9679
   37POPC   C36 5005   6.889   3.378   7.479 -0.2147 -0.0618  0.3005
   37POPC   H6X 5006   6.856   3.471   7.529 -0.0679 -1.3215  2.9103
   37POPC   H6Y 5007   6.996   3.400   7.457  0.3802 -0.7942  2.2335
   37POPC   C37 5008   6.867   3.266   7.584  0.3766 -0.3648  0.4127
   37POPC   H7X 5009   6.918   3.170   7.560 -0.2817 -0.4064 -0.9721
   37POPC   H7Y 5010   6.759   3.244   7.599  0.4699  0.2501  2.1300
   37POPC   C38 5011   6.911   3.311   7.722 -0.4807 -0.0882  0.9233
   37POPC   H8X 5012   6.862   3.410   7.737 -0.5880 -0.1962  1.3000
   37POPC   H8Y 5013   7.021   3.328   7.721  0.1573 -3.4362 -0.2447
   37POPC   C39 5014   6.874   3.215   7.841 -0.6584  0.2989 -0.3391
   37POPC   H9X 5015   6.909   3.111   7.827 -1.1230 -0.2167  1.9838
   37POPC   H9Y 5016   6.765   3.203   7.859 -0.6412  1.6266  0.8466
   37POPC  C310 5017   6.930   3.256   7.978  0.3477  0.0842  0.2304
   37POPC  H10X 5018   6.910   3.361   8.007 -1.2981 -0.1635  0.0976
   37POPC  H10Y 5019   7.039   3.236   7.972 -0.0699 -2.0364 -2.6908
   37POPC  C311 5020   6.865   3.182   8.090  0.6444  0.2477  0.7757
   37POPC  H11X 5021   6.896   3.075   8.096 -1.3044 -0.2559  4.3740
   37POPC  H11Y 5022   6.757   3.170   8.069  0.1393  1.4439  2.4672
   37POPC  C312 5023   6.886   3.242   8.224 -0.1606 -0.5517  0.2467
   37POPC  H12X 5024   6.794   3.216   8.279 -0.7217 -0.1877 -0.5072
   37POPC  H12Y 5025   6.880   3.353   8.218 -1.1049 -0.5202  1.3377
   37POPC  C313 5026   7.014   3.197   8.293  0.0383  0.0674 -0.1232
   37POPC  H13X 5027   7.095   3.219   8.220 -1.0030  0.2020 -1.2794
   37POPC  H13Y 5028   7.013   3.086   8.296 -1.3352  0.0594  0.0070
   37POPC  C314 5029   7.045   3.265   8.431  0.3795  0.3412 -0.0516
   37POPC  H14X 5030   7.032   3.375   8.419  2.3865  0.7822  1.2948
   37POPC  H14Y 5031   7.150   3.248   8.464  0.8551 -1.3483 -2.2045
   37POPC  C315 5032   6.945   3.231   8.544  0.2585  0.1429 -0.0062
   37POPC  H15X 5033   6.964   3.128   8.583 -0.4795  0.1762  0.4703
   37POPC  H15Y 5034   6.842   3.216   8.504  1.3304 -2.4736 -2.1597
   37POPC  C316 5035   6.949   3.328   8.659  0.0257  0.2429  0.2207
   37POPC  H16X 5036   6.876   3.293   8.735  0.7981 -1.9631  0.0344
   37POPC  H16Y 5037   6.919   3.430   8.628 -1.2422 -0.4621 -1.0000
   37POPC  H16Z 5038   7.048   3.334   8.708  0.7485  0.3660 -1.1956
   38POPC     N 5039   1.293   0.595   5.765 -0.3719 -0.5787  0.1506
   38POPC   C12 5040   1.377   0.656   5.877  0.5359 -0.3919  0.3414
   38POPC  H12A 5041   1.353   0.761   5.890  0.1582 -0.3751 -0.4084
   38POPC  H12B 5042   1.478   0.655   5.839  1.0842 -2.2596  1.6716
   38POPC   C13 5043   1.152   0.578   5.803  0.4257 -0.6190 -0.1433
   38POPC  H13A 5044   1.101   0.672   5.822  1.7160  0.3447 -1.2974
   38POPC  H13B 5045   1.097   0.517   5.733 -0.4641  1.5880 -1.4720
   38POPC  H13C 5046   1.159   0.528   5.899  2.4233 -0.2267 -0.0550
   38POPC   C14 5047   1.298   0.680   5.631  0.3326 -0.1097  0.2506
   38POPC  H14A 5048   1.400   0.679   5.594  0.2629  0.1639  0.0448
   38POPC  H14B 5049   1.232   0.629   5.562  0.8427  0.0274 -0.3467
   38POPC  H14C 5050   1.265   0.781   5.645 -3.3109 -1.1288  0.0523
   38POPC   C15 5051   1.354   0.463   5.732  0.8275 -0.1297 -0.1291
   38POPC  H15A 5052   1.342   0.394   5.814  0.5919  2.1113  1.8096
   38POPC  H15B 5053   1.456   0.477   5.699  1.5901 -1.3607  1.5706
   38POPC  H15C 5054   1.302   0.405   5.657  1.4908 -1.0163  0.0923
   38POPC   C11 5055   1.374   0.597   6.016 -0.5181 -0.3104 -0.8958
   38POPC  H11A 5056   1.269   0.600   6.053 -0.7463 -1.9622 -1.3126
   38POPC  H11B 5057   1.431   0.666   6.082 -0.4424 -0.8687 -0.3647
   38POPC     P 5058   1.347   0.346   6.090  0.3196 -0.0592  0.1900
   38POPC   O13 5059   1.415   0.214   6.062 -0.3941 -0.9348 -0.0882
   38POPC   O14 5060   1.205   0.356   6.050 -0.0598  0.0344 -0.0020
   38POPC   O12 5061   1.430   0.464   6.032 -0.3341  0.4339  0.1148
   38POPC   O11 5062   1.354   0.372   6.238 -0.3792 -0.4797  0.4332
   38POPC    C1 5063   1.485   0.419   6.293 -0.8104 -0.2286  0.1026
   38POPC    HA 5064   1.490   0.530   6.304  2.3117 -0.3492  0.9477
   38POPC    HB 5065   1.571   0.382   6.234 -1.1070 -1.5251  0.4678
   38POPC    C2 5066   1.513   0.354   6.428 -0.2075 -0.2420  0.3904
   38POPC    HS 5067   1.621   0.378   6.434 -0.3529  1.2521 -1.8711
   38POPC   O21 5068   1.502   0.210   6.428 -0.3086  0.6626  0.2117
   38POPC   C21 5069   1.583   0.141   6.346 -0.0202  0.2467  0.3620
   38POPC   O22 5070   1.677   0.185   6.276 -0.2847 -0.1291 -0.1609
   38POPC   C22 5071   1.551  -0.009   6.364  0.1725 -0.2598 -0.4541
   38POPC   H2R 5072   1.548  -0.062   6.266  0.1334 -1.8597  0.3897
   38POPC   H2S 5073   1.448  -0.022   6.404 -0.0869  1.6661 -0.4104
   38POPC    C3 5074   1.435   0.422   6.544 -0.7485  0.2155 -0.1294
   38POPC    HX 5075   1.327   0.416   6.516 -0.9055 -1.1647  0.6799
   38POPC    HY 5076   1.454   0.531   6.541 -1.6696  0.4009  0.2185
   38POPC   O31 5077   1.468   0.379   6.679  0.6954  0.0878  0.1552
   38POPC   C31 5078   1.405   0.268   6.727  0.3180 -0.7204 -0.9663
   38POPC   O32 5079   1.328   0.202   6.663  0.7568 -0.1716 -0.4640
   38POPC   C32 5080   1.446   0.254   6.867  0.5409  0.3181 -0.1383
   38POPC   H2X 5081   1.488   0.342   6.920  0.4160 -0.6214  1.6153
   38POPC   H2Y 5082   1.521   0.171   6.869  2.3131  1.8315 -0.7769
   38POPC   C23 5083   1.656  -0.063   6.464  0.1392 -0.7882 -0.2933
   38POPC   H3R 5084   1.679   0.010   6.545 -1.8512 -1.1038  0.6256
   38POPC   H3S 5085   1.756  -0.080   6.419 -0.7660 -1.5224 -2.1182
   38POPC   C24 5086   1.608  -0.193   6.525  0.1531 -0.0432  0.0168
   38POPC   H4R 5087   1.595  -0.262   6.440  0.0644 -1.1869  0.9345
   38POPC   H4S 5088   1.511  -0.189   6.579 -0.2242 -1.7957 -0.4726
   38POPC   C25 5089   1.719  -0.256   6.610  0.0920  0.0577  0.1774
   38POPC   H5R 5090   1.818  -0.228   6.568 -0.6057 -0.7900 -2.1732
   38POPC   H5S 5091   1.722  -0.367   6.610  2.1116  0.0427  1.3746
   38POPC   C26 5092   1.699  -0.225   6.759 -0.0568  0.3141 -0.5101
   38POPC   H6R 5093   1.686  -0.115   6.773 -1.2221 -0.0654  2.0396
   38POPC   H6S 5094   1.792  -0.255   6.811  0.5948  0.4075 -1.6009
   38POPC   C27 5095   1.582  -0.311   6.816 -0.5910  0.0120 -0.5221
   38POPC   H7R 5096   1.625  -0.411   6.841 -1.6823 -0.6899 -1.3308
   38POPC   H7S 5097   1.501  -0.306   6.740  0.6067  2.0377 -1.7428
   38POPC   C28 5098   1.528  -0.258   6.948  0.0038 -0.2819 -0.1524
   38POPC   H8R 5099   1.447  -0.318   6.996  0.0202  0.6361  1.0725
   38POPC   H8S 5100   1.477  -0.163   6.920 -0.0008 -0.3877 -0.5075
   38POPC   C29 5101   1.637  -0.224   7.048 -1.2428 -0.5003  0.8943
   38POPC   H91 5102   1.691  -0.139   7.003 -1.8711 -0.2142  0.6650
   38POPC  C210 5103   1.660  -0.284   7.165  0.6748 -0.0623  1.0973
   38POPC  H101 5104   1.741  -0.234   7.220 -0.9247  2.3676  1.4323
   38POPC  C211 5105   1.584  -0.395   7.225  0.5397  0.0556 -0.5060
   38POPC  H11R 5106   1.476  -0.402   7.199  0.3464 -3.6887  0.7403
   38POPC  H11S 5107   1.572  -0.365   7.331  0.0357  0.1843 -0.5975
   38POPC  C212 5108   1.645  -0.532   7.214 -0.3108 -0.0515 -0.1667
   38POPC  H12R 5109   1.755  -0.513   7.218 -0.4062  0.8020 -1.2570
   38POPC  H12S 5110   1.629  -0.585   7.117  0.9904  0.9152 -0.9425
   38POPC  C213 5111   1.627  -0.620   7.340  0.1359  0.1578 -0.4803
   38POPC  H13R 5112   1.528  -0.667   7.357  0.1670  0.5298  0.7817
   38POPC  H13S 5113   1.657  -0.569   7.433  1.0323 -1.1214 -0.0399
   38POPC  C214 5114   1.722  -0.742   7.341  0.7069  0.3618  0.6603
   38POPC  H14R 5115   1.824  -0.696   7.342  0.6221  0.5442  1.3488
   38POPC  H14S 5116   1.711  -0.791   7.242  2.6179  1.5182 -0.2015
   38POPC  C215 5117   1.702  -0.844   7.448 -0.1928  0.0243  0.8631
   38POPC  H15R 5118   1.769  -0.929   7.426  0.2114  0.6235 -0.3205
   38POPC  H15S 5119   1.596  -0.874   7.432  0.2131 -0.6350 -0.8550
   38POPC  C216 5120   1.739  -0.793   7.583 -0.3494  0.6068 -0.3106
   38POPC  H16R 5121   1.679  -0.703   7.607  0.6829  1.0591  0.6411
   38POPC  H16S 5122   1.837  -0.743   7.590 -0.7718  1.2041  2.7659
   38POPC  C217 5123   1.739  -0.902   7.697 -0.5963 -0.5024 -0.4141
   38POPC  H17R 5124   1.806  -0.981   7.659 -1.3804 -1.5790  0.3873
   38POPC  H17S 5125   1.641  -0.950   7.714  0.7103 -3.4273 -0.5837
   38POPC  C218 5126   1.816  -0.842   7.828 -0.4041  0.1946  0.0986
   38POPC  H18R 5127   1.926  -0.840   7.819 -0.2407 -3.7932 -0.3183
   38POPC  H18S 5128   1.802  -0.917   7.909 -1.0898  1.9699  1.7217
   38POPC  H18T 5129   1.778  -0.744   7.867 -3.5282 -0.5777 -0.6756
   38POPC   C33 5130   1.332   0.188   6.951  0.7104  0.2447 -0.4672
   38POPC   H3X 5131   1.282   0.105   6.897 -1.5269  1.2425 -0.0417
   38POPC   H3Y 5132   1.251   0.258   6.980  2.7865  2.5455  0.0949
   38POPC   C34 5133   1.377   0.126   7.083  0.1673 -0.1249 -0.0383
   38POPC   H4X 5134   1.447   0.194   7.137 -0.9543  0.8748  0.2070
   38POPC   H4Y 5135   1.427   0.030   7.057 -2.4379 -0.8964 -2.8042
   38POPC   C35 5136   1.260   0.106   7.177  0.3825 -0.4082  0.3481
   38POPC   H5X 5137   1.184   0.053   7.116 -1.4104  0.6633  1.5784
   38POPC   H5Y 5138   1.220   0.203   7.212  0.4203 -0.8322  1.6364
   38POPC   C36 5139   1.282   0.021   7.307 -0.6180 -1.1027 -0.1129
   38POPC   H6X 5140   1.181  -0.001   7.348 -0.1866 -0.4687  1.3832
   38POPC   H6Y 5141   1.335   0.084   7.382 -1.7408  0.3954 -0.5398
   38POPC   C37 5142   1.347  -0.116   7.290 -0.1814  0.9448 -0.1853
   38POPC   H7X 5143   1.448  -0.108   7.245  0.2391 -1.4663  0.1711
   38POPC   H7Y 5144   1.279  -0.163   7.215 -3.5806  2.3472  1.7852
   38POPC   C38 5145   1.336  -0.205   7.415  0.3969  0.4566  0.2194
   38POPC   H8X 5146   1.378  -0.306   7.402 -0.2165  0.4856 -2.4943
   38POPC   H8Y 5147   1.228  -0.219   7.435  0.6333 -0.9989  0.5729
   38POPC   C39 5148   1.380  -0.144   7.550  0.3974  1.1956 -0.1997
   38POPC   H9X 5149   1.326  -0.048   7.569  0.7594  1.5896 -1.0935
   38POPC   H9Y 5150   1.487  -0.114   7.553  0.8355 -0.3416  1.4059
   38POPC  C310 5151   1.345  -0.240   7.671  0.5418 -0.3645  1.2565
   38POPC  H10X 5152   1.418  -0.215   7.751 -0.8814 -0.5238  2.6655
   38POPC  H10Y 5153   1.368  -0.342   7.636 -0.0360  0.2684 -1.1384
   38POPC  C311 5154   1.197  -0.235   7.723 -0.3314  0.2144  0.7621
   38POPC  H11X 5155   1.121  -0.276   7.655 -0.5854  0.5945  0.8101
   38POPC  H11Y 5156   1.165  -0.130   7.741 -3.7462 -0.7332  0.8199
   38POPC  C312 5157   1.202  -0.303   7.856 -0.2231  0.4011 -0.2091
   38POPC  H12X 5158   1.282  -0.260   7.920 -0.2507  1.9982 -1.1833
   38POPC  H12Y 5159   1.233  -0.409   7.848  1.3143  0.8868 -0.9927
   38POPC  C313 5160   1.064  -0.317   7.934 -0.4844 -0.1292  0.8969
   38POPC  H13X 5161   1.001  -0.390   7.879 -1.7015 -0.1271  2.2423
   38POPC  H13Y 5162   1.021  -0.215   7.921  0.0228  0.0177  0.2936
   38POPC  C314 5163   1.090  -0.365   8.079  0.0389 -0.6934 -0.2362
   38POPC  H14X 5164   0.988  -0.353   8.122  0.2383  1.0236 -0.1585
   38POPC  H14Y 5165   1.160  -0.289   8.120  2.0027 -0.5293 -3.4702
   38POPC  C315 5166   1.135  -0.511   8.091  0.9087  0.1816 -0.7851
   38POPC  H15X 5167   1.148  -0.543   8.197  0.1474 -1.5108 -1.1645
   38POPC  H15Y 5168   1.238  -0.515   8.051  1.3932 -0.0502  0.4441
   38POPC  C316 5169   1.037  -0.608   8.025 -0.3983  0.1781 -0.0128
   38POPC  H16X 5170   0.932  -0.578   8.040 -0.3396 -0.0913  1.0490
   38POPC  H16Y 5171   1.063  -0.711   8.059  1.0482  0.9302  1.2832
   38POPC  H16Z 5172   1.063  -0.599   7.917 -1.0541  1.9154 -0.0452
   39POPC     N 5173   5.048   4.789   5.665 -0.3075 -0.2474  0.0576
   39POPC   C12 5174   5.047   4.940   5.681 -0.1836 -0.4113  0.3017
   39POPC  H12A 5175   4.947   4.980   5.689  0.5000  2.4623 -3.0328
   39POPC  H12B 5176   5.086   4.984   5.590  0.3183  0.4935  0.9416
   39POPC   C13 5177   5.000   4.718   5.789  0.8395 -0.4429  0.1169
   39POPC  H13A 5178   5.047   4.742   5.883  1.1409 -0.0045 -0.1413
   39POPC  H13B 5179   4.895   4.740   5.800  0.4169 -0.6291 -2.7859
   39POPC  H13C 5180   5.010   4.612   5.769  2.3600 -0.5127  1.0673
   39POPC   C14 5181   4.956   4.757   5.543 -0.0733 -0.3147  0.0800
   39POPC  H14A 5182   4.962   4.653   5.512  1.0434  0.1783 -1.5034
   39POPC  H14B 5183   4.852   4.778   5.561  0.4163  2.7734 -0.2790
   39POPC  H14C 5184   5.002   4.815   5.464  0.8942  2.0739  2.2848
   39POPC   C15 5185   5.192   4.740   5.640 -0.8480 -0.8333  0.0779
   39POPC  H15A 5186   5.185   4.634   5.626 -0.2092 -1.0668  1.3349
   39POPC  H15B 5187   5.255   4.757   5.726 -1.0912  0.5593  0.0126
   39POPC  H15C 5188   5.231   4.776   5.546 -1.0978  0.3253  0.3949
   39POPC   C11 5189   5.131   4.984   5.799  0.2656 -0.3211  0.3648
   39POPC  H11A 5190   5.236   4.960   5.772  0.9535  0.0343  2.4981
   39POPC  H11B 5191   5.106   4.929   5.891 -1.6500  0.8393  0.5915
   39POPC     P 5192   5.047   5.176   5.956  0.1357  0.1537 -0.1171
   39POPC   O13 5193   4.898   5.184   5.953  0.5328 -0.1270 -0.1827
   39POPC   O14 5194   5.115   5.303   5.990 -0.1850  0.2092 -0.7894
   39POPC   O12 5195   5.100   5.123   5.825  0.2794 -0.3208  0.1996
   39POPC   O11 5196   5.092   5.066   6.069 -0.6325 -0.1590 -0.4536
   39POPC    C1 5197   4.984   4.996   6.140  0.1819 -0.0976  0.6083
   39POPC    HA 5198   5.039   4.914   6.191 -0.0005 -1.1415 -0.8264
   39POPC    HB 5199   4.907   4.948   6.076 -0.1590 -0.6287  1.3960
   39POPC    C2 5200   4.906   5.074   6.240 -0.0471  0.3389  0.3233
   39POPC    HS 5201   4.854   5.157   6.187 -0.7229 -0.1489  0.2148
   39POPC   O21 5202   5.004   5.119   6.339  0.2758  0.3798 -0.8144
   39POPC   C21 5203   4.968   5.241   6.388  0.0112  0.1500 -0.9342
   39POPC   O22 5204   4.870   5.302   6.356 -0.1842  0.0987 -0.7516
   39POPC   C22 5205   5.057   5.276   6.503 -0.3416 -0.6028  0.0413
   39POPC   H2R 5206   5.165   5.269   6.475 -0.7638 -1.3052 -1.5229
   39POPC   H2S 5207   5.031   5.211   6.589  0.8124  0.6533  1.3912
   39POPC    C3 5208   4.798   4.975   6.305 -0.6636  0.2478  0.3765
   39POPC    HX 5209   4.849   4.876   6.312 -2.8776 -0.8052  3.6245
   39POPC    HY 5210   4.719   4.956   6.229  1.8059 -2.8369 -1.6989
   39POPC   O31 5211   4.724   5.019   6.425  0.1037  0.5253 -0.8652
   39POPC   C31 5212   4.782   4.981   6.547  0.2341 -0.5902  0.4629
   39POPC   O32 5213   4.881   4.912   6.546  0.0810  0.2589  0.5579
   39POPC   C32 5214   4.723   5.063   6.663 -0.0463 -0.0989 -0.0615
   39POPC   H2X 5215   4.767   5.163   6.647  2.3578 -0.9738  0.6073
   39POPC   H2Y 5216   4.612   5.056   6.661 -0.0011 -0.8076 -0.6830
   39POPC   C23 5217   5.029   5.421   6.546  0.2431  0.2053  0.0355
   39POPC   H3R 5218   4.920   5.440   6.557 -0.1104 -0.2503 -2.1042
   39POPC   H3S 5219   5.073   5.492   6.472  2.0331 -0.0234  0.8299
   39POPC   C24 5220   5.103   5.449   6.676 -0.5950  0.4767 -0.0756
   39POPC   H4R 5221   5.143   5.552   6.690  1.2654 -0.2930  0.5207
   39POPC   H4S 5222   5.194   5.387   6.690 -0.1181  1.3168  0.6989
   39POPC   C25 5223   5.021   5.424   6.803  0.6279  1.0556  0.0257
   39POPC   H5R 5224   4.982   5.320   6.791  1.2918  0.8092 -0.0507
   39POPC   H5S 5225   4.928   5.485   6.803  0.5789  0.9850  0.4191
   39POPC   C26 5226   5.093   5.426   6.931  0.0944  0.4571 -1.1413
   39POPC   H6R 5227   5.134   5.525   6.962  0.0373  0.4954 -1.1883
   39POPC   H6S 5228   5.174   5.350   6.925 -2.2145 -1.9863 -3.8144
   39POPC   C27 5229   4.997   5.385   7.052 -0.2274 -0.8641  0.6099
   39POPC   H7R 5230   4.950   5.285   7.041  1.0914 -1.6818  1.9498
   39POPC   H7S 5231   4.908   5.450   7.041  0.4690 -0.1054 -0.8237
   39POPC   C28 5232   5.058   5.384   7.194 -0.2734 -0.1531  0.1641
   39POPC   H8R 5233   5.151   5.324   7.190 -1.0768 -1.5564  1.4715
   39POPC   H8S 5234   4.991   5.331   7.266  0.7136  0.2489  1.4180
   39POPC   C29 5235   5.087   5.519   7.242 -0.5707 -0.1711 -0.2320
   39POPC   H91 5236   5.093   5.590   7.159 -3.1632  1.5613  0.9214
   39POPC  C210 5237   5.086   5.568   7.366 -0.2560  0.4512  0.4217
   39POPC  H101 5238   5.103   5.675   7.384 -2.0505  1.2619 -2.2737
   39POPC  C211 5239   5.054   5.488   7.494  0.2967  0.0065  0.7873
   39POPC  H11R 5240   5.079   5.383   7.468  0.4984  0.5109 -1.2123
   39POPC  H11S 5241   4.946   5.482   7.519 -0.4424 -2.0279 -2.3108
   39POPC  C212 5242   5.129   5.558   7.604 -0.4850  0.2414 -1.0441
   39POPC  H12R 5243   5.112   5.666   7.619 -1.0943 -0.0210  0.2608
   39POPC  H12S 5244   5.240   5.554   7.609 -0.5101 -0.0529 -0.6719
   39POPC  C213 5245   5.088   5.491   7.729  0.4918  0.0184 -0.6275
   39POPC  H13R 5246   5.078   5.383   7.705 -0.2465  0.1795 -1.0811
   39POPC  H13S 5247   4.989   5.532   7.759  2.4748  2.8884  2.7022
   39POPC  C214 5248   5.189   5.505   7.848 -0.6416  0.2016 -0.2379
   39POPC  H14R 5249   5.212   5.614   7.851  0.9800 -0.1231  1.8747
   39POPC  H14S 5250   5.287   5.455   7.830  0.3039  1.2660  1.5453
   39POPC  C215 5251   5.136   5.453   7.981  0.1792  0.1437  0.1734
   39POPC  H15R 5252   5.121   5.343   7.973 -0.6907  0.2357  0.4730
   39POPC  H15S 5253   5.036   5.499   7.994  0.0617 -0.3529  1.0531
   39POPC  C216 5254   5.214   5.478   8.108  0.6458  0.2637  0.0670
   39POPC  H16R 5255   5.201   5.583   8.144  0.2140 -0.3150  1.6804
   39POPC  H16S 5256   5.319   5.466   8.074  1.5784  0.3235  2.7387
   39POPC  C217 5257   5.175   5.385   8.226  0.5327 -0.2043  0.2304
   39POPC  H17R 5258   5.181   5.283   8.184  1.3535 -0.3250  0.6050
   39POPC  H17S 5259   5.069   5.406   8.251  0.4726 -0.5553  0.2699
   39POPC  C218 5260   5.265   5.401   8.348  0.7701  0.2186  0.2969
   39POPC  H18R 5261   5.248   5.320   8.423  0.5122  0.1060  0.1164
   39POPC  H18S 5262   5.236   5.491   8.406  0.6896  0.0114  0.5856
   39POPC  H18T 5263   5.371   5.400   8.315  0.0243  2.2861 -2.5157
   39POPC   C33 5264   4.760   5.000   6.802 -0.6307  0.4742  0.1755
   39POPC   H3X 5265   4.870   4.994   6.820 -0.8820  0.4732  1.9872
   39POPC   H3Y 5266   4.737   4.892   6.798  1.2718  0.0607 -1.9500
   39POPC   C34 5267   4.684   5.054   6.923 -0.2686 -0.5493  0.6107
   39POPC   H4X 5268   4.576   5.038   6.903 -0.4495  1.4225 -0.2413
   39POPC   H4Y 5269   4.695   5.164   6.937 -2.2167 -0.6082  3.4102
   39POPC   C35 5270   4.722   5.005   7.059  0.3808 -0.1603  0.3958
   39POPC   H5X 5271   4.801   5.063   7.110 -2.0293  2.3102  1.5678
   39POPC   H5Y 5272   4.765   4.903   7.051 -0.8349 -0.5482 -2.1455
   39POPC   C36 5273   4.604   4.993   7.156  0.3551 -0.6466  0.0943
   39POPC   H6X 5274   4.513   4.950   7.109 -0.3180  0.4649  0.3377
   39POPC   H6Y 5275   4.562   5.095   7.171  0.0277 -0.5069 -1.5245
   39POPC   C37 5276   4.623   4.933   7.299 -0.5044 -0.4863  1.0810
   39POPC   H7X 5277   4.722   4.946   7.346 -0.4402  0.0278  0.8181
   39POPC   H7Y 5278   4.614   4.823   7.287  0.5092 -0.9842  4.0395
   39POPC   C38 5279   4.525   4.975   7.408  0.7195 -0.2679  0.1699
   39POPC   H8X 5280   4.429   4.988   7.354  1.1344  1.3281 -0.2235
   39POPC   H8Y 5281   4.548   5.078   7.443 -2.1605 -0.0806  1.7957
   39POPC   C39 5282   4.492   4.890   7.529 -0.4804  0.0585 -0.2490
   39POPC   H9X 5283   4.426   4.948   7.596  0.0705  1.8636 -1.2161
   39POPC   H9Y 5284   4.580   4.862   7.590  0.0894  0.6245 -0.7951
   39POPC  C310 5285   4.416   4.765   7.483  0.0916  0.4162 -0.5940
   39POPC  H10X 5286   4.485   4.678   7.482 -1.6854 -1.0602 -0.8214
   39POPC  H10Y 5287   4.382   4.783   7.379 -0.4774  0.8659 -0.3357
   39POPC  C311 5288   4.289   4.734   7.566  0.3942  0.3548  0.0259
   39POPC  H11X 5289   4.226   4.650   7.531 -0.4770  0.4917  1.2242
   39POPC  H11Y 5290   4.230   4.827   7.579  0.6467  0.6183 -0.6352
   39POPC  C312 5291   4.330   4.686   7.703 -0.3041  0.6089  0.1890
   39POPC  H12X 5292   4.374   4.770   7.762  0.8328  0.2429 -0.1161
   39POPC  H12Y 5293   4.404   4.606   7.682 -0.4065  1.2701 -3.2693
   39POPC  C313 5294   4.207   4.642   7.787 -0.0612 -0.3303  0.9966
   39POPC  H13X 5295   4.148   4.564   7.735 -0.6578  0.5818  0.2773
   39POPC  H13Y 5296   4.127   4.718   7.794 -1.5238 -1.7435  0.1169
   39POPC  C314 5297   4.257   4.596   7.926 -0.6192  0.0982 -0.3544
   39POPC  H14X 5298   4.174   4.561   7.991 -0.4098  1.3668  0.6282
   39POPC  H14Y 5299   4.313   4.669   7.987 -4.3165  1.3191  1.9079
   39POPC  C315 5300   4.346   4.466   7.919 -0.2445 -0.7150  0.7979
   39POPC  H15X 5301   4.438   4.504   7.870 -1.0526 -0.5328 -0.6669
   39POPC  H15Y 5302   4.311   4.388   7.847  0.8539 -0.7994  0.3430
   39POPC  C316 5303   4.378   4.401   8.050 -0.5652 -0.1035  0.2636
   39POPC  H16X 5304   4.430   4.466   8.122 -0.5704 -1.4724  1.5488
   39POPC  H16Y 5305   4.436   4.307   8.043 -0.3757  0.0080  0.3516
   39POPC  H16Z 5306   4.283   4.365   8.096 -1.8363  2.1952 -0.3946
   40POPC     N 5307   3.703   3.165   6.298  0.7711 -0.0510  0.0396
   40POPC   C12 5308   3.727   3.180   6.450  0.1102 -0.1595  0.2206
   40POPC  H12A 5309   3.779   3.087   6.472 -0.1335 -0.2671  0.3408
   40POPC  H12B 5310   3.638   3.170   6.509 -0.8605  0.0899 -1.1582
   40POPC   C13 5311   3.827   3.137   6.227  0.6597 -0.4238 -0.3035
   40POPC  H13A 5312   3.874   3.044   6.254  1.2932  0.3077  1.2445
   40POPC  H13B 5313   3.810   3.155   6.121  3.5757 -0.6242 -0.8748
   40POPC  H13C 5314   3.896   3.214   6.259 -0.8000  0.0443  1.9481
   40POPC   C14 5315   3.607   3.053   6.260  0.3248 -0.7915 -0.0108
   40POPC  H14A 5316   3.513   3.072   6.310  1.9401 -0.6437  3.2158
   40POPC  H14B 5317   3.577   3.046   6.157 -2.0931  2.6233  0.2827
   40POPC  H14C 5318   3.641   2.958   6.297 -1.4897 -1.2513  0.5714
   40POPC   C15 5319   3.653   3.285   6.241  0.2941  0.4358 -0.7682
   40POPC  H15A 5320   3.718   3.370   6.253  0.5072  0.1692  0.0039
   40POPC  H15B 5321   3.558   3.313   6.284  0.3659  0.5302 -0.6705
   40POPC  H15C 5322   3.624   3.280   6.137 -0.3258  1.9146 -0.6906
   40POPC   C11 5323   3.817   3.293   6.503  1.0188  0.2137 -0.3293
   40POPC  H11A 5324   3.815   3.284   6.613  1.4336 -1.3412 -0.4249
   40POPC  H11B 5325   3.762   3.385   6.472 -1.9616 -1.9408 -1.9414
   40POPC     P 5326   4.016   3.444   6.479 -0.3293  0.3213 -0.2936
   40POPC   O13 5327   3.943   3.541   6.390  0.1005 -0.8740  0.2143
   40POPC   O14 5328   4.166   3.429   6.458 -0.0555 -0.2375 -0.2345
   40POPC   O12 5329   3.944   3.303   6.453  0.2177  0.0480  0.9493
   40POPC   O11 5330   3.980   3.483   6.627  0.1523  0.3670 -0.0729
   40POPC    C1 5331   4.087   3.475   6.720  0.7648  0.1178  0.0890
   40POPC    HA 5332   4.168   3.541   6.682 -0.2743  0.2476 -2.0629
   40POPC    HB 5333   4.124   3.370   6.722 -0.8085 -0.5200 -1.5247
   40POPC    C2 5334   4.044   3.528   6.859  0.1724 -0.2349 -0.3631
   40POPC    HS 5335   4.133   3.560   6.916  0.9257 -1.6159 -0.7311
   40POPC   O21 5336   3.959   3.441   6.937 -0.3190 -0.2177  0.5341
   40POPC   C21 5337   4.024   3.328   6.967 -0.4289  0.4097  0.3568
   40POPC   O22 5338   4.143   3.312   6.955 -0.1802  0.2746  0.7468
   40POPC   C22 5339   3.919   3.219   7.007 -0.0813  0.0059  0.0872
   40POPC   H2R 5340   3.896   3.155   6.919  5.0342  0.1026 -1.6362
   40POPC   H2S 5341   3.822   3.264   7.040  0.2152  1.4458 -0.9049
   40POPC    C3 5342   3.964   3.659   6.843  0.3290  1.0711  0.4040
   40POPC    HX 5343   3.863   3.645   6.800  0.0946  3.3649  0.0453
   40POPC    HY 5344   4.022   3.718   6.767 -1.1909  2.3784  0.2127
   40POPC   O31 5345   3.961   3.744   6.964  0.6228 -0.4102  0.1561
   40POPC   C31 5346   3.839   3.790   7.001  0.4037 -0.4643  0.4524
   40POPC   O32 5347   3.736   3.778   6.932 -0.6638 -0.4842  0.6991
   40POPC   C32 5348   3.853   3.872   7.135  0.1393  0.0650  1.5229
   40POPC   H2X 5349   3.766   3.853   7.201 -0.8907 -2.2497 -0.3484
   40POPC   H2Y 5350   3.847   3.979   7.105  1.4326  0.0185  1.0356
   40POPC   C23 5351   3.987   3.115   7.116  0.1053  0.1637  0.3617
   40POPC   H3R 5352   4.081   3.069   7.078 -0.0029 -1.6144  2.0963
   40POPC   H3S 5353   3.919   3.027   7.124  2.4190 -1.7936 -0.0836
   40POPC   C24 5354   4.009   3.175   7.256  0.5322  0.3894 -0.4916
   40POPC   H4R 5355   3.907   3.188   7.297  0.7838  1.7106 -0.2458
   40POPC   H4S 5356   4.043   3.280   7.240 -1.4702  1.2267  0.4132
   40POPC   C25 5357   4.093   3.097   7.354 -0.2455 -0.4280 -0.0338
   40POPC   H5R 5358   4.200   3.126   7.346 -1.1676  4.3381  1.5306
   40POPC   H5S 5359   4.092   2.987   7.338  1.3055 -0.1759 -2.4268
   40POPC   C26 5360   4.061   3.132   7.504  0.1738  0.0849 -0.5665
   40POPC   H6R 5361   3.955   3.104   7.522 -0.1566  0.5422 -1.7445
   40POPC   H6S 5362   4.069   3.241   7.523  2.0360 -0.1399  0.0938
   40POPC   C27 5363   4.145   3.053   7.594  0.4116  0.0246  0.3184
   40POPC   H7R 5364   4.242   3.037   7.542  0.0784 -3.2011  0.4826
   40POPC   H7S 5365   4.099   2.952   7.585 -1.7337  0.9915 -0.3691
   40POPC   C28 5366   4.155   3.104   7.740 -0.4389 -0.0941  0.5437
   40POPC   H8R 5367   4.176   3.213   7.743  0.6183 -0.2780  0.4662
   40POPC   H8S 5368   4.242   3.047   7.778 -0.2036 -1.7565 -2.1848
   40POPC   C29 5369   4.028   3.087   7.820 -0.0389  0.0644  0.3188
   40POPC   H91 5370   3.970   3.178   7.843  2.0477  0.9899  2.3564
   40POPC  C210 5371   3.977   2.977   7.882 -0.0174 -0.3970 -0.1082
   40POPC  H101 5372   3.890   2.990   7.949  2.0084 -2.0997  3.1343
   40POPC  C211 5373   4.039   2.838   7.882 -0.3075 -0.0199 -0.1923
   40POPC  H11R 5374   4.136   2.847   7.830 -0.8242  3.2218 -0.7902
   40POPC  H11S 5375   3.971   2.761   7.840 -0.4127 -0.3749  0.5935
   40POPC  C212 5376   4.073   2.781   8.019  1.1072 -0.1429 -0.3147
   40POPC  H12R 5377   3.978   2.768   8.076  1.6133 -0.8307  0.3975
   40POPC  H12S 5378   4.130   2.856   8.079 -1.1314  1.5393 -0.1056
   40POPC  C213 5379   4.153   2.651   8.012  0.0944 -0.0184  0.1691
   40POPC  H13R 5380   4.253   2.655   7.962 -0.4598  1.1900 -0.8765
   40POPC  H13S 5381   4.091   2.576   7.960 -0.3741  1.1064 -0.9370
   40POPC  C214 5382   4.183   2.593   8.151 -0.2230 -0.1626  0.7727
   40POPC  H14R 5383   4.254   2.658   8.206 -2.0144  3.0159 -0.4524
   40POPC  H14S 5384   4.232   2.495   8.131  0.6915  0.3327  0.5275
   40POPC  C215 5385   4.057   2.580   8.235 -0.2804  0.1645  0.1999
   40POPC  H15R 5386   3.979   2.530   8.175  0.8915  1.4944 -2.5901
   40POPC  H15S 5387   4.022   2.677   8.276  0.3910  0.8535 -0.8158
   40POPC  C216 5388   4.079   2.497   8.360 -0.1294 -0.0664  0.7465
   40POPC  H16R 5389   4.161   2.548   8.415  1.6770 -0.3240 -1.5487
   40POPC  H16S 5390   4.104   2.391   8.340 -0.2657  0.1003 -0.3934
   40POPC  C217 5391   3.953   2.500   8.447  0.1696 -0.0363  0.0877
   40POPC  H17R 5392   3.869   2.455   8.389 -1.0100 -0.3499  1.9611
   40POPC  H17S 5393   3.935   2.601   8.488 -2.0033 -0.3389 -0.0125
   40POPC  C218 5394   3.978   2.407   8.562 -0.6374  0.1726 -0.3474
   40POPC  H18R 5395   4.005   2.304   8.530  0.0580  0.0447  0.6105
   40POPC  H18S 5396   3.888   2.406   8.627  0.1041 -2.4358  0.7351
   40POPC  H18T 5397   4.075   2.435   8.608 -1.8633  1.1759  1.7593
   40POPC   C33 5398   3.991   3.845   7.192 -0.1432 -0.2973  0.1098
   40POPC   H3X 5399   4.076   3.864   7.124  0.3923  0.6619  1.0236
   40POPC   H3Y 5400   4.002   3.739   7.223 -2.0965 -0.3922  0.6096
   40POPC   C34 5401   4.014   3.930   7.322  0.5969  0.7160 -0.9256
   40POPC   H4X 5402   3.986   4.036   7.305  0.9018  0.8697 -0.4960
   40POPC   H4Y 5403   4.124   3.936   7.338  0.9587 -2.4399 -1.5416
   40POPC   C35 5404   3.946   3.887   7.455 -0.4979  0.3507  0.7633
   40POPC   H5X 5405   3.988   3.788   7.483 -1.5919 -0.8347 -1.5537
   40POPC   H5Y 5406   3.841   3.856   7.441 -0.5730  0.7504  0.4416
   40POPC   C36 5407   3.928   3.992   7.558 -0.4036 -0.1904 -0.3709
   40POPC   H6X 5408   3.849   3.961   7.630  0.3743  2.0483  1.5958
   40POPC   H6Y 5409   3.882   4.071   7.494 -0.8625 -0.6188 -0.5696
   40POPC   C37 5410   4.036   4.042   7.646 -0.4574 -0.1481 -0.2576
   40POPC   H7X 5411   4.003   4.117   7.720 -1.8185 -0.0398 -0.9439
   40POPC   H7Y 5412   4.116   4.092   7.586 -2.1147 -0.4160 -2.8516
   40POPC   C38 5413   4.095   3.926   7.735 -0.8961  0.5254 -0.8101
   40POPC   H8X 5414   4.200   3.956   7.756 -0.6785  1.0107 -2.4455
   40POPC   H8Y 5415   4.091   3.832   7.675 -0.0342 -0.5073  0.6950
   40POPC   C39 5416   4.013   3.912   7.868  0.4903 -0.0297  0.1284
   40POPC   H9X 5417   3.910   3.881   7.842  0.8422 -0.4895 -0.7524
   40POPC   H9Y 5418   4.024   4.010   7.920 -1.4346  0.2987 -0.0115
   40POPC  C310 5419   4.066   3.809   7.970  0.5335 -0.0357 -0.4807
   40POPC  H10X 5420   4.017   3.830   8.067 -1.9630 -1.8405 -1.2382
   40POPC  H10Y 5421   4.176   3.811   7.988  0.2748 -0.4809  1.2642
   40POPC  C311 5422   4.035   3.664   7.925  0.5254 -0.3729 -0.1928
   40POPC  H11X 5423   4.101   3.621   7.846 -1.0129 -0.9696 -1.2016
   40POPC  H11Y 5424   3.937   3.648   7.875  1.8645 -4.0186 -2.0356
   40POPC  C312 5425   4.048   3.573   8.053 -0.1937  0.2298  0.2859
   40POPC  H12X 5426   3.963   3.570   8.125 -0.8441  0.0373 -0.4858
   40POPC  H12Y 5427   4.135   3.624   8.099 -1.5081  1.6333  1.3374
   40POPC  C313 5428   4.067   3.427   8.009  0.5568 -0.2243  0.1002
   40POPC  H13X 5429   4.163   3.402   7.959 -0.3210 -2.0963 -0.7717
   40POPC  H13Y 5430   3.996   3.402   7.927 -0.4418 -0.8259  1.1151
   40POPC  C314 5431   4.056   3.318   8.120  0.0775  0.3887  0.0741
   40POPC  H14X 5432   4.002   3.230   8.079  1.1232 -0.7609  1.0646
   40POPC  H14Y 5433   4.007   3.371   8.205 -1.0795  0.2582 -0.4942
   40POPC  C315 5434   4.189   3.262   8.176  0.2384 -0.5317 -0.3507
   40POPC  H15X 5435   4.170   3.199   8.266 -0.4024  0.6777  0.3852
   40POPC  H15Y 5436   4.238   3.352   8.220 -0.4798  1.5913 -3.5404
   40POPC  C316 5437   4.284   3.196   8.078 -0.3030 -0.0718 -0.0761
   40POPC  H16X 5438   4.288   3.247   7.980  2.8177  0.8811  0.4323
   40POPC  H16Y 5439   4.260   3.088   8.064 -3.4913  0.1809  2.3150
   40POPC  H16Z 5440   4.388   3.195   8.118 -0.1053  1.0038 -0.5370
   41CHL1    C3 5441   3.396   6.426  10.142  0.5324 -0.1642 -0.0033
   41CHL1    H3 5442   3.473   6.347  10.129  0.3183 -0.1299 -1.7797
   41CHL1    O3 5443   3.341   6.407  10.270  0.0947 -0.0881 -0.6356
   41CHL1   H3' 5444   3.340   6.490  10.319  0.4337  0.9981 -2.3799
   41CHL1    C4 5445   3.475   6.556  10.132  0.0759 -0.1805 -0.5549
   41CHL1   H4A 5446   3.392   6.623  10.165 -2.0389 -2.7626 -0.2871
   41CHL1   H4B 5447   3.556   6.556  10.208 -0.6564 -1.3757  0.2547
   41CHL1    C5 5448   3.525   6.584   9.992  0.4644 -0.9189 -0.0246
   41CHL1    C6 5449   3.652   6.626   9.978 -0.5530 -0.1167  0.0758
   41CHL1    H6 5450   3.712   6.635  10.070 -2.2274 -3.9978  1.7505
   41CHL1    C7 5451   3.711   6.660   9.840 -0.3259  0.1231  0.2947
   41CHL1   H7A 5452   3.767   6.755   9.850 -0.9636  0.5259  0.1203
   41CHL1   H7B 5453   3.779   6.580   9.805 -0.7200  1.2498 -3.5172
   41CHL1    C8 5454   3.590   6.674   9.739  0.1650 -0.5586  0.5723
   41CHL1    H8 5455   3.541   6.768   9.772  0.8691 -0.0499  0.2083
   41CHL1   C14 5456   3.641   6.690   9.598 -0.3752  0.5900 -1.0652
   41CHL1   H14 5457   3.688   6.593   9.570  0.5610  1.1769 -1.5779
   41CHL1   C15 5458   3.761   6.785   9.562 -0.3695  0.2219 -0.2626
   41CHL1  H15A 5459   3.747   6.887   9.604  1.3141 -0.2252  1.4799
   41CHL1  H15B 5460   3.857   6.738   9.589 -1.4682 -2.0568 -0.0515
   41CHL1   C16 5461   3.743   6.796   9.414  0.0619 -0.2134  0.4953
   41CHL1  H16A 5462   3.724   6.904   9.395  1.0095 -0.4647 -2.5138
   41CHL1  H16B 5463   3.831   6.766   9.352 -1.7548 -2.1977 -1.3070
   41CHL1   C17 5464   3.619   6.729   9.367  0.4449  0.3313 -0.6149
   41CHL1   H17 5465   3.644   6.627   9.332  1.3879  1.1615 -2.5150
   41CHL1   C13 5466   3.532   6.715   9.488  0.0594  0.1857 -0.1518
   41CHL1   C18 5467   3.442   6.840   9.515  0.1316 -0.6972  0.0723
   41CHL1  H18A 5468   3.495   6.936   9.532 -0.2474 -0.4770  0.0315
   41CHL1  H18B 5469   3.357   6.839   9.443 -0.1857 -1.5958  0.4420
   41CHL1  H18C 5470   3.397   6.814   9.613 -0.5551  0.4844  0.0934
   41CHL1   C12 5471   3.445   6.585   9.485 -0.2384 -0.3156 -0.7168
   41CHL1  H12A 5472   3.367   6.595   9.407 -0.4747  2.8050 -0.2175
   41CHL1  H12B 5473   3.499   6.494   9.451 -1.1472 -0.2239 -2.5489
   41CHL1   C11 5474   3.393   6.552   9.624  0.4017  0.1328 -0.0960
   41CHL1  H11A 5475   3.315   6.627   9.648  2.9391  2.9210 -0.0112
   41CHL1  H11B 5476   3.341   6.454   9.613  1.6272 -0.5357 -0.1727
   41CHL1    C9 5477   3.490   6.558   9.745 -0.1625 -0.4036  0.1092
   41CHL1    H9 5478   3.556   6.471   9.725  0.1739  0.2437 -1.9115
   41CHL1   C10 5479   3.424   6.561   9.882  0.0865 -0.0030 -0.0144
   41CHL1   C19 5480   3.316   6.676   9.901 -0.5234 -0.5546 -0.3337
   41CHL1  H19A 5481   3.358   6.774   9.871  2.0802 -1.4880  0.0478
   41CHL1  H19B 5482   3.228   6.656   9.836 -0.4313 -1.9564 -0.0719
   41CHL1  H19C 5483   3.280   6.694  10.004  0.1965 -1.5564  0.1122
   41CHL1    C1 5484   3.359   6.428   9.896 -0.0258  0.1227 -0.4255
   41CHL1   H1A 5485   3.274   6.416   9.824 -2.1684 -0.3277  2.0446
   41CHL1   H1B 5486   3.439   6.352   9.889  1.1319  1.2971 -0.2204
   41CHL1    C2 5487   3.289   6.401  10.035  0.3195 -0.1347  0.2326
   41CHL1   H2A 5488   3.263   6.293  10.037 -0.8196  0.1371  0.5510
   41CHL1   H2B 5489   3.204   6.471  10.053  0.6849 -0.1401  2.1404
   41CHL1   C20 5490   3.564   6.802   9.243 -0.3106  0.5873  0.6356
   41CHL1   H20 5491   3.542   6.902   9.286 -1.6234  0.5874  0.0331
   41CHL1   C21 5492   3.440   6.724   9.187 -1.1980 -0.0974  0.1327
   41CHL1  H21A 5493   3.424   6.740   9.079 -1.4064 -0.2903  0.1342
   41CHL1  H21B 5494   3.358   6.756   9.255 -0.6286  2.0913 -0.1413
   41CHL1  H21C 5495   3.453   6.614   9.197  0.4904  0.0752  0.1819
   41CHL1   C22 5496   3.659   6.835   9.121 -0.1114 -0.0431  0.2269
   41CHL1  H22A 5497   3.611   6.918   9.065  0.2281  0.6155  0.8867
   41CHL1  H22B 5498   3.751   6.888   9.152  0.2333  0.6389 -1.8196
   41CHL1   C23 5499   3.685   6.730   9.017  0.3287  0.5022 -0.5701
   41CHL1  H23A 5500   3.732   6.639   9.061 -0.6624  0.9842  1.5984
   41CHL1  H23B 5501   3.598   6.698   8.956 -1.9105  2.6947  1.2839
   41CHL1   C24 5502   3.772   6.788   8.910 -0.4970 -0.1794 -0.3290
   41CHL1  H24A 5503   3.727   6.877   8.861 -2.1080  0.0371  1.4194
   41CHL1  H24B 5504   3.864   6.831   8.955 -1.8694  2.1092  0.4612
   41CHL1   C25 5505   3.801   6.695   8.785 -0.7408  0.7896  0.1455
   41CHL1   H25 5506   3.832   6.607   8.846 -0.1139  2.4084  2.2655
   41CHL1   C26 5507   3.684   6.656   8.689  0.0703  0.0324  0.1523
   41CHL1  H26A 5508   3.665   6.749   8.631  0.6722 -0.1786 -0.3958
   41CHL1  H26B 5509   3.719   6.581   8.615  2.3505  0.7770  0.3826
   41CHL1  H26C 5510   3.585   6.637   8.735 -0.9507  1.3472 -1.3957
   41CHL1   C27 5511   3.907   6.741   8.686  0.3971 -0.1746 -0.1450
   41CHL1  H27A 5512   3.998   6.755   8.749 -0.6447 -1.8795  1.8664
   41CHL1  H27B 5513   3.924   6.656   8.617  0.6851 -1.2486  1.1940
   41CHL1  H27C 5514   3.883   6.832   8.628 -0.3713 -0.8953 -0.9858
   42CHL1    C3 5515   1.919   5.765   9.716 -0.0371  0.3805  0.7755
   42CHL1    H3 5516   2.016   5.810   9.687  0.3938 -1.8999 -1.8032
   42CHL1    O3 5517   1.910   5.742   9.857  0.0743 -0.3892 -0.0415
   42CHL1   H3' 5518   1.817   5.746   9.881 -0.1661 -0.5661 -0.9004
   42CHL1    C4 5519   1.809   5.866   9.675 -0.7849  0.6406 -0.6311
   42CHL1   H4A 5520   1.709   5.833   9.712 -0.2734 -0.1956  0.0653
   42CHL1   H4B 5521   1.824   5.963   9.728  0.0128  1.7651 -2.7789
   42CHL1    C5 5522   1.802   5.904   9.528  0.3787 -0.1498 -0.4562
   42CHL1    C6 5523   1.818   6.027   9.477 -0.4920 -0.1994  0.1502
   42CHL1    H6 5524   1.827   6.101   9.557 -1.0338 -1.1573  1.1174
   42CHL1    C7 5525   1.805   6.061   9.329  0.3909  0.1299  0.0107
   42CHL1   H7A 5526   1.739   6.150   9.328 -2.7052 -1.9807  1.4357
   42CHL1   H7B 5527   1.902   6.086   9.281 -2.0047  3.1715 -3.8825
   42CHL1    C8 5528   1.746   5.949   9.247  0.1591  0.0175 -0.4471
   42CHL1    H8 5529   1.637   5.940   9.265  0.0057  3.1759  0.8127
   42CHL1   C14 5530   1.761   5.987   9.099  0.4353  0.2612  0.4041
   42CHL1   H14 5531   1.870   5.982   9.081  0.5473 -0.5138  1.2083
   42CHL1   C15 5532   1.722   6.130   9.053 -0.1738 -0.1748  0.0267
   42CHL1  H15A 5533   1.629   6.162   9.105  0.2975 -0.0217  0.7857
   42CHL1  H15B 5534   1.813   6.191   9.073  1.0862 -2.7185  2.7484
   42CHL1   C16 5535   1.706   6.106   8.906  0.1198  0.6168  0.0896
   42CHL1  H16A 5536   1.602   6.131   8.878  0.4380  3.2362  0.9895
   42CHL1  H16B 5537   1.777   6.163   8.842  0.8943 -2.1740 -1.7549
   42CHL1   C17 5538   1.733   5.958   8.871 -0.0294  0.8016 -0.3631
   42CHL1   H17 5539   1.840   5.940   8.847 -0.2749 -0.4735 -0.6233
   42CHL1   C13 5540   1.705   5.883   9.011  0.4501  0.9366  1.0400
   42CHL1   C18 5541   1.552   5.866   9.029  0.5580 -0.0905 -0.1270
   42CHL1  H18A 5542   1.530   5.810   9.123  0.2440 -0.6662 -0.5365
   42CHL1  H18B 5543   1.517   5.971   9.039  3.6756  0.9398  1.2420
   42CHL1  H18C 5544   1.500   5.815   8.945  0.3025 -2.0646  1.1654
   42CHL1   C12 5545   1.777   5.756   9.038 -0.8220 -0.4109 -0.2229
   42CHL1  H12A 5546   1.732   5.685   8.964 -2.2685  1.0402 -0.7937
   42CHL1  H12B 5547   1.886   5.769   9.023 -0.8552  1.9781  1.1067
   42CHL1   C11 5548   1.764   5.711   9.183 -0.3468  0.5793 -0.5057
   42CHL1  H11A 5549   1.659   5.676   9.197 -0.1765  0.4456  0.5733
   42CHL1  H11B 5550   1.830   5.623   9.201  0.2073  0.3996 -3.1011
   42CHL1    C9 5551   1.808   5.821   9.284  0.3292 -0.1394  0.0961
   42CHL1    H9 5552   1.917   5.835   9.268  1.1021 -0.3105  4.1190
   42CHL1   C10 5553   1.782   5.789   9.434  0.1549  0.2960 -0.9581
   42CHL1   C19 5554   1.629   5.746   9.464 -0.0492  0.7446 -0.6687
   42CHL1  H19A 5555   1.591   5.664   9.399  3.0100 -1.2278 -0.1602
   42CHL1  H19B 5556   1.611   5.708   9.567 -0.1997 -0.8829 -1.2733
   42CHL1  H19C 5557   1.557   5.830   9.453 -1.3316 -0.1342  0.6112
   42CHL1    C1 5558   1.879   5.676   9.476 -0.2954 -0.2447  0.1515
   42CHL1   H1A 5559   1.850   5.586   9.417 -0.3294  0.2259 -0.5594
   42CHL1   H1B 5560   1.982   5.702   9.441 -0.8052 -1.3777 -2.4280
   42CHL1    C2 5561   1.894   5.640   9.625  0.4551 -0.2703  0.0596
   42CHL1   H2A 5562   1.981   5.572   9.641  0.5797  0.0137  0.6185
   42CHL1   H2B 5563   1.801   5.587   9.653 -0.3940  2.6072  3.2809
   42CHL1   C20 5564   1.659   5.915   8.746 -0.2968  0.7768  0.4760
   42CHL1   H20 5565   1.550   5.932   8.754 -0.0717  1.9007  1.5717
   42CHL1   C21 5566   1.691   5.768   8.714  0.3900  0.0470  0.4826
   42CHL1  H21A 5567   1.649   5.734   8.616 -0.6567 -0.0846  0.9613
   42CHL1  H21B 5568   1.640   5.715   8.797  1.4040 -0.1246  1.0144
   42CHL1  H21C 5569   1.802   5.758   8.710  0.3296 -0.3908 -0.5026
   42CHL1   C22 5570   1.691   6.011   8.633  0.1141  0.0258  0.4506
   42CHL1  H22A 5571   1.655   6.113   8.659  2.2294  0.6077  1.2753
   42CHL1  H22B 5572   1.799   5.999   8.613  0.1535 -0.9377  1.1671
   42CHL1   C23 5573   1.609   5.984   8.501  0.3958 -0.0454  0.3772
   42CHL1  H23A 5574   1.616   5.877   8.471  2.5090  0.2069 -0.2250
   42CHL1  H23B 5575   1.505   6.005   8.533  0.7053  1.6381  0.3419
   42CHL1   C24 5576   1.655   6.072   8.387 -0.3333 -0.0363 -0.2945
   42CHL1  H24A 5577   1.632   6.176   8.417  1.7732  0.1650  0.7216
   42CHL1  H24B 5578   1.762   6.056   8.363 -0.0751  0.9185  0.1594
   42CHL1   C25 5579   1.591   6.069   8.245 -0.0545 -0.1875  0.0363
   42CHL1   H25 5580   1.632   6.153   8.185 -1.5824  0.7949  0.3254
   42CHL1   C26 5581   1.618   5.933   8.175  0.2089  0.1095  0.2649
   42CHL1  H26A 5582   1.727   5.911   8.172  0.0998 -0.5269  0.9283
   42CHL1  H26B 5583   1.566   5.851   8.226  0.8382  1.2572  2.9025
   42CHL1  H26C 5584   1.578   5.929   8.071  1.3084 -1.1113 -0.1393
   42CHL1   C27 5585   1.442   6.107   8.236  0.0933 -0.6545 -0.2595
   42CHL1  H27A 5586   1.422   6.176   8.320  0.3750 -1.0017  0.0960
   42CHL1  H27B 5587   1.410   6.139   8.134  0.5828  0.0410 -0.2046
   42CHL1  H27C 5588   1.398   6.010   8.269  0.3211  0.3042  3.2829
   43CHL1    C3 5589   2.440   5.791   9.769 -0.0923  0.2414  0.6682
   43CHL1    H3 5590   2.513   5.709   9.752  0.5114  0.9608 -0.2366
   43CHL1    O3 5591   2.458   5.814   9.902  0.6229 -0.0410 -0.4929
   43CHL1   H3' 5592   2.480   5.732   9.947  1.0222  0.4848  0.2866
   43CHL1    C4 5593   2.485   5.921   9.692 -0.5082  0.4179  0.0870
   43CHL1   H4A 5594   2.410   5.997   9.722  0.6002  1.7514 -0.4206
   43CHL1   H4B 5595   2.586   5.946   9.731 -0.7129 -1.2770  1.8629
   43CHL1    C5 5596   2.488   5.891   9.545  0.4093  0.2823 -0.0607
   43CHL1    C6 5597   2.599   5.909   9.472  0.2633  0.3685 -0.2589
   43CHL1    H6 5598   2.690   5.944   9.522 -1.6361  1.4240  2.7381
   43CHL1    C7 5599   2.598   5.897   9.317 -0.6607  0.7168  0.5598
   43CHL1   H7A 5600   2.659   5.979   9.272 -1.3686  0.6750 -0.5201
   43CHL1   H7B 5601   2.660   5.806   9.300 -2.4015 -0.4301  0.1278
   43CHL1    C8 5602   2.451   5.880   9.267 -0.0319 -0.1059  0.1346
   43CHL1    H8 5603   2.396   5.976   9.279 -0.2151 -0.2050  0.0912
   43CHL1   C14 5604   2.457   5.832   9.126 -0.5753  0.3376  0.6398
   43CHL1   H14 5605   2.511   5.735   9.118  0.9768  1.0868  1.5589
   43CHL1   C15 5606   2.540   5.920   9.031  0.2403  0.4758 -0.0619
   43CHL1  H15A 5607   2.517   6.027   9.046 -0.3427  0.2866  0.4123
   43CHL1  H15B 5608   2.650   5.907   9.029  0.2914  0.9399 -0.6642
   43CHL1   C16 5609   2.476   5.882   8.893 -0.4683  0.0256 -0.0113
   43CHL1  H16A 5610   2.456   5.977   8.839 -2.3007 -0.0993  0.4170
   43CHL1  H16B 5611   2.547   5.831   8.824  1.6727  0.0221  2.0566
   43CHL1   C17 5612   2.350   5.793   8.914 -0.1285  0.2660 -0.4997
   43CHL1   H17 5613   2.378   5.686   8.908 -0.4400  0.2468 -1.7157
   43CHL1   C13 5614   2.317   5.816   9.064 -0.2008 -0.6629 -0.1341
   43CHL1   C18 5615   2.231   5.949   9.070 -0.0637 -0.1520  0.1126
   43CHL1  H18A 5616   2.194   5.969   9.173 -1.5383 -0.6906 -0.3013
   43CHL1  H18B 5617   2.290   6.035   9.030 -2.3724  1.7700  0.5888
   43CHL1  H18C 5618   2.144   5.933   9.003  0.9536 -2.1119 -0.8187
   43CHL1   C12 5619   2.250   5.695   9.132  0.3063 -0.2934 -0.2201
   43CHL1  H12A 5620   2.146   5.692   9.092  0.6145 -0.4589 -1.0316
   43CHL1  H12B 5621   2.306   5.601   9.110  0.2289 -0.2061 -0.8066
   43CHL1   C11 5622   2.241   5.724   9.281 -0.1718  0.5476  0.6078
   43CHL1  H11A 5623   2.162   5.800   9.295 -0.1849  0.8815 -1.0677
   43CHL1  H11B 5624   2.211   5.627   9.326  1.3673 -0.9513 -1.3862
   43CHL1    C9 5625   2.376   5.769   9.350 -0.1741 -0.4985  0.4820
   43CHL1    H9 5626   2.447   5.684   9.346  1.3792  0.8019 -2.1845
   43CHL1   C10 5627   2.357   5.828   9.493  0.6463 -0.4189 -0.0823
   43CHL1   C19 5628   2.246   5.940   9.491 -0.2629  0.4307 -0.0680
   43CHL1  H19A 5629   2.262   6.020   9.416  1.5044 -0.3694 -0.6056
   43CHL1  H19B 5630   2.143   5.905   9.471 -0.3800  0.3964  0.5556
   43CHL1  H19C 5631   2.240   5.996   9.587 -2.0535  2.1088 -1.0959
   43CHL1    C1 5632   2.303   5.716   9.591  0.0474 -0.3180  0.6070
   43CHL1   H1A 5633   2.199   5.694   9.560 -0.0484  0.1619  0.5815
   43CHL1   H1B 5634   2.355   5.622   9.563 -1.5786 -0.6981 -1.3192
   43CHL1    C2 5635   2.302   5.746   9.741  0.6542  0.0544 -0.0234
   43CHL1   H2A 5636   2.268   5.654   9.792  0.2930  1.2026  1.8939
   43CHL1   H2B 5637   2.229   5.830   9.753  0.2446 -0.4134  0.8716
   43CHL1   C20 5638   2.243   5.808   8.809  0.1927  0.3233  0.2611
   43CHL1   H20 5639   2.211   5.915   8.810  0.0374  0.3264  3.0920
   43CHL1   C21 5640   2.114   5.729   8.833  0.2426  0.3434 -0.1365
   43CHL1  H21A 5641   2.050   5.771   8.914 -2.4021 -2.0787 -0.8060
   43CHL1  H21B 5642   2.143   5.628   8.868  0.2567  1.2690  2.7751
   43CHL1  H21C 5643   2.045   5.716   8.747 -0.0671  2.0050 -0.1626
   43CHL1   C22 5644   2.292   5.783   8.666  1.1130  0.3297  0.3855
   43CHL1  H22A 5645   2.393   5.828   8.653  0.3716  1.4497 -2.1079
   43CHL1  H22B 5646   2.297   5.674   8.644 -1.2402 -0.4877  3.3063
   43CHL1   C23 5647   2.193   5.841   8.557 -0.1370 -0.3177  0.3155
   43CHL1  H23A 5648   2.090   5.802   8.566  0.6774 -2.9964 -0.9016
   43CHL1  H23B 5649   2.189   5.952   8.567 -0.9968 -0.3402  0.2794
   43CHL1   C24 5650   2.236   5.806   8.412  0.1385 -0.0683 -0.1872
   43CHL1  H24A 5651   2.346   5.819   8.399  0.0997 -0.3216 -0.7839
   43CHL1  H24B 5652   2.208   5.701   8.387 -1.4681  0.8877 -2.7270
   43CHL1   C25 5653   2.167   5.890   8.301  0.2818  0.2487 -0.0473
   43CHL1   H25 5654   2.202   5.994   8.318  3.0560 -0.3737 -1.4162
   43CHL1   C26 5655   2.239   5.861   8.170  0.2969  0.4110 -1.7014
   43CHL1  H26A 5656   2.348   5.871   8.189  0.2894 -0.6733 -1.0270
   43CHL1  H26B 5657   2.210   5.757   8.142  0.6663 -0.0155 -0.5336
   43CHL1  H26C 5658   2.210   5.934   8.092  0.2234 -0.3271 -2.3816
   43CHL1   C27 5659   2.015   5.884   8.282  0.4182 -0.1763  0.1974
   43CHL1  H27A 5660   1.989   5.952   8.198  0.6296  1.1131  1.1483
   43CHL1  H27B 5661   1.969   5.784   8.271 -2.2904  0.8326  1.3365
   43CHL1  H27C 5662   1.979   5.928   8.378 -2.0217 -0.6233 -0.4555
   44CHL1    C3 5663   2.592   4.799  10.027  0.3998 -0.2998 -0.4507
   44CHL1    H3 5664   2.701   4.777  10.015  0.8268 -0.1254  2.3828
   44CHL1    O3 5665   2.559   4.819  10.163  0.5722 -0.1740 -0.2006
   44CHL1   H3' 5666   2.491   4.756  10.187  2.3960 -1.9909  0.4986
   44CHL1    C4 5667   2.562   4.931   9.958 -0.2399 -0.3093 -0.2090
   44CHL1   H4A 5668   2.458   4.964   9.979 -0.8117 -1.3142 -1.3548
   44CHL1   H4B 5669   2.635   4.995  10.010 -0.5771 -1.2257  1.4747
   44CHL1    C5 5670   2.567   4.911   9.806  0.0395 -0.2452 -0.2998
   44CHL1    C6 5671   2.639   4.999   9.732  0.2942  0.3417  0.3841
   44CHL1    H6 5672   2.683   5.083   9.787 -2.9703  2.6209 -0.1990
   44CHL1    C7 5673   2.637   5.003   9.583  0.0573  0.3135  0.1294
   44CHL1   H7A 5674   2.635   5.109   9.549  2.8576  0.5405  0.4324
   44CHL1   H7B 5675   2.741   4.989   9.546  0.5448  0.2948  1.4491
   44CHL1    C8 5676   2.530   4.913   9.527 -0.1723  0.4255  0.0075
   44CHL1    H8 5677   2.435   4.968   9.548  0.1280  0.8768  0.1991
   44CHL1   C14 5678   2.548   4.905   9.380 -0.4031 -0.7083 -0.1462
   44CHL1   H14 5679   2.642   4.848   9.361  0.1353 -0.6764  2.1272
   44CHL1   C15 5680   2.572   5.040   9.305 -0.1743 -0.3855  1.0862
   44CHL1  H15A 5681   2.506   5.120   9.343 -0.6442 -1.7890  3.4561
   44CHL1  H15B 5682   2.676   5.078   9.312 -0.6133  0.8094  1.3621
   44CHL1   C16 5683   2.550   4.992   9.162  0.2286  0.4131 -0.1340
   44CHL1  H16A 5684   2.475   5.059   9.114 -0.3065  0.4269  0.7037
   44CHL1  H16B 5685   2.645   4.990   9.105  0.6564  0.6583  0.5652
   44CHL1   C17 5686   2.493   4.842   9.159 -0.0044  0.5725  0.0133
   44CHL1   H17 5687   2.578   4.772   9.145 -0.4182 -0.0764  0.6779
   44CHL1   C13 5688   2.449   4.818   9.310 -0.0562  0.1793  0.6622
   44CHL1   C18 5689   2.301   4.869   9.334 -0.2498  0.2207  0.0809
   44CHL1  H18A 5690   2.229   4.802   9.281 -1.0183 -0.1134  1.5064
   44CHL1  H18B 5691   2.269   4.881   9.439 -0.3891 -0.3333  0.1037
   44CHL1  H18C 5692   2.297   4.973   9.296 -0.7413 -0.5255 -2.0804
   44CHL1   C12 5693   2.468   4.675   9.358 -0.1907 -0.0346 -0.4222
   44CHL1  H12A 5694   2.397   4.604   9.310 -0.6834  0.9543 -1.1940
   44CHL1  H12B 5695   2.572   4.638   9.343 -0.5205 -0.4107 -2.0353
   44CHL1   C11 5696   2.452   4.659   9.506  0.1545  0.1774 -0.2084
   44CHL1  H11A 5697   2.344   4.660   9.531  0.1329 -0.4202 -0.2580
   44CHL1  H11B 5698   2.483   4.560   9.546  0.5002  0.3108 -0.1381
   44CHL1    C9 5699   2.527   4.772   9.589  0.3773 -0.5989 -0.5320
   44CHL1    H9 5700   2.632   4.735   9.585  0.3948 -0.7741  0.9625
   44CHL1   C10 5701   2.493   4.781   9.741  0.4123  0.1751 -0.0883
   44CHL1   C19 5702   2.341   4.813   9.753  0.5234  0.0920  0.0421
   44CHL1  H19A 5703   2.318   4.858   9.852  2.2103 -3.4237  2.2451
   44CHL1  H19B 5704   2.301   4.869   9.666 -0.2929 -0.0733  0.3020
   44CHL1  H19C 5705   2.301   4.710   9.760  0.1845  0.1764 -0.6074
   44CHL1    C1 5706   2.535   4.660   9.817  0.5027  0.6430 -0.2915
   44CHL1   H1A 5707   2.479   4.572   9.778 -0.6938  1.0882  0.3685
   44CHL1   H1B 5708   2.640   4.630   9.796 -0.1203 -3.4241  1.4613
   44CHL1    C2 5709   2.515   4.682   9.970  0.0110 -0.3077 -0.5302
   44CHL1   H2A 5710   2.557   4.595  10.024 -0.3915 -0.5265 -0.5655
   44CHL1   H2B 5711   2.406   4.694   9.990  0.0848  0.3736 -0.5006
   44CHL1   C20 5712   2.397   4.817   9.045 -0.5834  0.7613  0.3333
   44CHL1   H20 5713   2.301   4.866   9.070  0.4026  1.6043  2.7343
   44CHL1   C21 5714   2.371   4.663   9.033 -0.5691 -0.1818  0.0160
   44CHL1  H21A 5715   2.350   4.599   9.121 -1.7576 -2.1966 -1.6613
   44CHL1  H21B 5716   2.466   4.625   8.990 -0.3830 -0.6945  0.8541
   44CHL1  H21C 5717   2.285   4.642   8.966 -1.6213  1.1281  0.8997
   44CHL1   C22 5718   2.450   4.876   8.914 -0.0803  0.6336  0.1126
   44CHL1  H22A 5719   2.469   4.984   8.930 -1.2618  0.5163  2.8740
   44CHL1  H22B 5720   2.546   4.832   8.877 -0.9591  0.3932 -2.0453
   44CHL1   C23 5721   2.351   4.857   8.801  0.0557 -0.3266  0.5315
   44CHL1  H23A 5722   2.341   4.753   8.763  0.1618  0.5527 -2.0745
   44CHL1  H23B 5723   2.250   4.869   8.846 -0.1013 -0.3998  0.1969
   44CHL1   C24 5724   2.373   4.950   8.677 -0.5580 -0.1566 -0.8583
   44CHL1  H24A 5725   2.403   5.055   8.699 -0.9782  0.1869 -1.8696
   44CHL1  H24B 5726   2.456   4.903   8.620 -1.8924 -1.2812 -1.9533
   44CHL1   C25 5727   2.257   4.958   8.578 -0.6250  0.2153 -0.4576
   44CHL1   H25 5728   2.178   5.005   8.639  0.9645  1.8215  0.4749
   44CHL1   C26 5729   2.279   5.054   8.456  0.3839  0.2271  0.4534
   44CHL1  H26A 5730   2.347   5.005   8.383 -0.9113  1.7997 -1.9490
   44CHL1  H26B 5731   2.181   5.074   8.408 -0.3393 -0.0266  1.7775
   44CHL1  H26C 5732   2.321   5.150   8.492  0.0671 -1.1059  4.9066
   44CHL1   C27 5733   2.217   4.826   8.526 -0.6798  0.6932  0.6593
   44CHL1  H27A 5734   2.175   4.767   8.610 -1.0102  2.2938  1.6385
   44CHL1  H27B 5735   2.157   4.819   8.433 -1.0233 -2.9280  0.9848
   44CHL1  H27C 5736   2.316   4.778   8.508 -0.2458  1.4569  0.9644
   45CHL1    C3 5737   5.823   3.674  10.108  0.6734 -0.4100 -0.9042
   45CHL1    H3 5738   5.759   3.588  10.136  1.5527 -0.8403 -0.1728
   45CHL1    O3 5739   5.883   3.730  10.230  0.4101  0.2896 -0.0810
   45CHL1   H3' 5740   5.916   3.818  10.211  0.6854  0.2320  0.1180
   45CHL1    C4 5741   5.941   3.626  10.017 -0.9893 -0.0791  0.5868
   45CHL1   H4A 5742   5.997   3.719   9.991  1.2221 -0.4834  3.4436
   45CHL1   H4B 5743   6.016   3.567  10.074  0.3210  0.2432 -0.7292
   45CHL1    C5 5744   5.885   3.558   9.891 -0.2240 -0.6387  0.9058
   45CHL1    C6 5745   5.921   3.436   9.856  0.1104  0.0327  0.1072
   45CHL1    H6 5746   5.983   3.376   9.924  0.3821 -2.2598 -1.9958
   45CHL1    C7 5747   5.880   3.370   9.729  0.1162  0.3329  0.0915
   45CHL1   H7A 5748   5.976   3.351   9.676  0.6361 -0.4922  1.2784
   45CHL1   H7B 5749   5.835   3.275   9.764  0.2092  0.5628  0.8663
   45CHL1    C8 5750   5.784   3.451   9.633 -0.4415 -0.2766  0.4923
   45CHL1    H8 5751   5.709   3.377   9.599  0.9280  0.1507 -4.0413
   45CHL1   C14 5752   5.851   3.496   9.497 -0.1918  0.0140  0.2420
   45CHL1   H14 5753   5.937   3.562   9.519 -1.4792  1.6706  0.4735
   45CHL1   C15 5754   5.898   3.374   9.420 -0.5806  0.9034 -0.5819
   45CHL1  H15A 5755   6.007   3.356   9.431 -1.0564 -1.6932  0.5889
   45CHL1  H15B 5756   5.849   3.276   9.438 -0.1615  0.7575 -0.2234
   45CHL1   C16 5757   5.866   3.393   9.272 -0.7391 -0.0443 -0.7492
   45CHL1  H16A 5758   5.935   3.470   9.231 -2.3321  1.3561 -0.9489
   45CHL1  H16B 5759   5.866   3.295   9.219 -0.8558  1.1420 -3.1138
   45CHL1   C17 5760   5.730   3.470   9.279 -0.9817  0.2945  0.0920
   45CHL1   H17 5761   5.656   3.392   9.304  0.2726 -0.7058  0.7762
   45CHL1   C13 5762   5.749   3.561   9.393 -0.4875 -0.5900 -0.6820
   45CHL1   C18 5763   5.818   3.685   9.343 -0.5266 -0.3403 -0.0638
   45CHL1  H18A 5764   5.775   3.741   9.257 -1.6996 -0.6165  0.3231
   45CHL1  H18B 5765   5.833   3.759   9.425  0.4683 -0.4702 -0.1086
   45CHL1  H18C 5766   5.920   3.658   9.307 -1.3505 -1.0368 -1.9889
   45CHL1   C12 5767   5.611   3.591   9.459 -0.1106  0.1683 -0.2543
   45CHL1  H12A 5768   5.566   3.673   9.399  0.2970  0.4062 -0.2334
   45CHL1  H12B 5769   5.547   3.500   9.455 -2.0845  1.5254 -1.5418
   45CHL1   C11 5770   5.626   3.645   9.602 -0.3729  0.4223 -0.4822
   45CHL1  H11A 5771   5.679   3.743   9.600  1.4209 -0.5008 -1.5802
   45CHL1  H11B 5772   5.529   3.651   9.654 -1.3591 -5.9275 -0.7983
   45CHL1    C9 5773   5.715   3.567   9.700  0.8849  0.6404 -0.4731
   45CHL1    H9 5774   5.655   3.503   9.769 -1.7783  0.7247 -2.5479
   45CHL1   C10 5775   5.803   3.651   9.800  0.9221 -0.1076 -0.4035
   45CHL1   C19 5776   5.894   3.755   9.728 -0.5465 -0.2383  0.1107
   45CHL1  H19A 5777   5.830   3.812   9.658  0.9577 -0.6548 -1.6755
   45CHL1  H19B 5778   5.948   3.823   9.798 -0.2058 -0.4533  0.0604
   45CHL1  H19C 5779   5.967   3.703   9.662 -4.1031 -1.1493 -3.5009
   45CHL1    C1 5780   5.702   3.733   9.892  0.4121 -1.0375 -0.4321
   45CHL1   H1A 5781   5.680   3.829   9.840  0.0366 -1.1367 -0.4602
   45CHL1   H1B 5782   5.607   3.678   9.909 -0.1915 -0.2812 -1.2556
   45CHL1    C2 5783   5.752   3.780  10.030 -0.5271 -0.4543 -0.3548
   45CHL1   H2A 5784   5.664   3.814  10.090  0.5162 -1.6199  1.9652
   45CHL1   H2B 5785   5.824   3.861  10.009 -0.9449 -0.3206 -1.3206
   45CHL1   C20 5786   5.679   3.523   9.141 -0.1516  0.0292  0.1012
   45CHL1   H20 5787   5.747   3.606   9.113 -0.2416  0.1371  0.2011
   45CHL1   C21 5788   5.533   3.581   9.143 -0.9342 -0.6956  0.1250
   45CHL1  H21A 5789   5.498   3.585   9.038 -1.0922 -0.5732  0.1830
   45CHL1  H21B 5790   5.549   3.684   9.182  3.3007 -0.4798 -1.5914
   45CHL1  H21C 5791   5.456   3.532   9.205 -0.9745  0.1891  0.7921
   45CHL1   C22 5792   5.677   3.411   9.028  0.3737 -0.5361  0.6690
   45CHL1  H22A 5793   5.661   3.452   8.926 -1.4144 -1.2917  0.6112
   45CHL1  H22B 5794   5.773   3.355   9.026 -0.7894 -2.6065 -0.0953
   45CHL1   C23 5795   5.573   3.295   9.050 -0.3072 -0.6778 -0.0701
   45CHL1  H23A 5796   5.578   3.247   9.150  0.7162 -1.3092 -0.4093
   45CHL1  H23B 5797   5.473   3.343   9.040  0.2180  0.8920  1.6501
   45CHL1   C24 5798   5.577   3.211   8.923  0.6131 -0.8544  0.0760
   45CHL1  H24A 5799   5.552   3.271   8.833 -0.0551 -0.2129  0.6771
   45CHL1  H24B 5800   5.676   3.167   8.896  0.0940 -2.3463  0.4768
   45CHL1   C25 5801   5.480   3.093   8.913 -0.4490  0.1278  0.1747
   45CHL1   H25 5802   5.383   3.134   8.949 -0.5206 -0.8657  1.1597
   45CHL1   C26 5803   5.448   3.039   8.770  0.0734 -0.3359 -0.4097
   45CHL1  H26A 5804   5.366   2.964   8.761 -0.8820  0.2932  2.0648
   45CHL1  H26B 5805   5.417   3.122   8.703  1.5944  0.3982 -0.2401
   45CHL1  H26C 5806   5.542   2.998   8.729  1.0026  0.2095  1.1007
   45CHL1   C27 5807   5.520   2.977   9.007  0.5942  0.2930  0.2253
   45CHL1  H27A 5808   5.546   3.010   9.110  0.3537 -2.5764  1.2972
   45CHL1  H27B 5809   5.421   2.928   9.017  0.0596  0.9671 -1.3320
   45CHL1  H27C 5810   5.599   2.907   8.971  0.9204  1.3431 -1.2011
   46CHL1    C3 5811   3.366   2.420   9.897 -0.7369 -0.3427 -0.4893
   46CHL1    H3 5812   3.330   2.516   9.855  1.0469  0.6581  0.1576
   46CHL1    O3 5813   3.349   2.432  10.037  0.0362 -0.5292  0.5505
   46CHL1   H3' 5814   3.363   2.344  10.072  0.7092 -0.2346  1.0301
   46CHL1    C4 5815   3.282   2.310   9.849 -0.1875  0.9125  0.4719
   46CHL1   H4A 5816   3.309   2.221   9.910  0.5696  1.2974  0.7144
   46CHL1   H4B 5817   3.174   2.333   9.865  0.2454  3.3426  0.4004
   46CHL1    C5 5818   3.305   2.281   9.703 -0.5805 -0.4070 -0.4598
   46CHL1    C6 5819   3.206   2.289   9.609 -0.3508  0.1222 -0.8864
   46CHL1    H6 5820   3.102   2.309   9.640  0.0029  0.8215 -0.1126
   46CHL1    C7 5821   3.236   2.265   9.467 -0.5630  0.4306  0.3541
   46CHL1   H7A 5822   3.156   2.198   9.428  0.1346 -1.2709  1.6885
   46CHL1   H7B 5823   3.239   2.365   9.420  1.8032 -0.0536 -0.6590
   46CHL1    C8 5824   3.367   2.183   9.435 -0.2141  0.1273 -0.0521
   46CHL1    H8 5825   3.343   2.081   9.470 -0.3454  0.0865 -0.2587
   46CHL1   C14 5826   3.403   2.177   9.288  0.7291 -0.0466 -0.0925
   46CHL1   H14 5827   3.426   2.282   9.261  1.2238 -0.4107 -1.1152
   46CHL1   C15 5828   3.294   2.129   9.184  0.1073  0.5483 -0.0397
   46CHL1  H15A 5829   3.233   2.042   9.218 -1.0336  2.3434  2.8926
   46CHL1  H15B 5830   3.224   2.211   9.160  0.2708  0.4700 -0.8134
   46CHL1   C16 5831   3.379   2.090   9.061 -0.1689 -0.0037 -0.4272
   46CHL1  H16A 5832   3.347   1.990   9.025 -4.0102  0.8812  0.1100
   46CHL1  H16B 5833   3.355   2.152   8.972 -0.9794 -2.5847 -2.1367
   46CHL1   C17 5834   3.534   2.099   9.104  0.6221 -0.3867  0.8344
   46CHL1   H17 5835   3.563   2.203   9.081  0.5365  0.1916  3.1341
   46CHL1   C13 5836   3.524   2.094   9.254 -1.1819  0.1101 -0.9013
   46CHL1   C18 5837   3.508   1.944   9.301  0.1792 -0.1227  0.1731
   46CHL1  H18A 5838   3.600   1.890   9.271  2.4341  3.2342  0.5477
   46CHL1  H18B 5839   3.484   1.930   9.409  0.4360  1.9244  0.5341
   46CHL1  H18C 5840   3.435   1.890   9.237  1.5907 -2.1613  0.2085
   46CHL1   C12 5841   3.649   2.160   9.326 -0.7537 -0.2363 -0.3367
   46CHL1  H12A 5842   3.743   2.101   9.320 -0.6489 -0.1811  0.5471
   46CHL1  H12B 5843   3.658   2.259   9.277  0.0509 -0.8106 -1.3852
   46CHL1   C11 5844   3.626   2.183   9.481 -0.2478  0.8671  0.1683
   46CHL1  H11A 5845   3.618   2.076   9.511  1.5724  0.8738  0.8122
   46CHL1  H11B 5846   3.711   2.233   9.532 -0.8279  1.4532  0.5821
   46CHL1    C9 5847   3.487   2.245   9.513  0.3887  0.1044  0.3151
   46CHL1    H9 5848   3.496   2.350   9.477  0.0548 -0.3108 -1.0512
   46CHL1   C10 5849   3.457   2.253   9.668  0.1036 -0.4272  0.3223
   46CHL1   C19 5850   3.498   2.119   9.730 -0.5521  1.1243  0.2736
   46CHL1  H19A 5851   3.484   2.110   9.839  3.8656  0.7045  1.0042
   46CHL1  H19B 5852   3.442   2.030   9.694 -2.0073  0.0606  4.5751
   46CHL1  H19C 5853   3.605   2.090   9.721 -1.1217 -1.3010  0.6578
   46CHL1    C1 5854   3.541   2.374   9.723 -0.0675  0.3893  0.0496
   46CHL1   H1A 5855   3.646   2.340   9.711 -0.0002 -0.0309  1.6254
   46CHL1   H1B 5856   3.522   2.470   9.670  0.3173  0.7363  0.5363
   46CHL1    C2 5857   3.519   2.401   9.870 -0.1338  0.1639  0.1521
   46CHL1   H2A 5858   3.585   2.477   9.918 -0.3225  0.0479  0.5989
   46CHL1   H2B 5859   3.556   2.312   9.925 -2.2951 -0.8245  0.1113
   46CHL1   C20 5860   3.638   2.002   9.029  0.5815 -0.0444 -0.2128
   46CHL1   H20 5861   3.624   1.904   9.079  0.2418  0.7570  1.3328
   46CHL1   C21 5862   3.779   2.058   9.053 -0.6295  0.7517  0.3152
   46CHL1  H21A 5863   3.827   2.077   8.954  1.4397 -0.8631  0.9469
   46CHL1  H21B 5864   3.844   1.987   9.107  0.8194  0.1907 -2.0314
   46CHL1  H21C 5865   3.777   2.156   9.107 -1.6363  0.1771  1.3586
   46CHL1   C22 5866   3.608   2.008   8.875  0.5009  0.0051  0.3255
   46CHL1  H22A 5867   3.500   1.984   8.857  0.4084  0.6077  0.0628
   46CHL1  H22B 5868   3.634   2.115   8.858  2.0483 -0.2448  0.9979
   46CHL1   C23 5869   3.695   1.924   8.787 -0.1393  0.0552  0.5098
   46CHL1  H23A 5870   3.788   1.980   8.764 -1.0590  1.5298  0.2255
   46CHL1  H23B 5871   3.712   1.829   8.842  0.3101  0.4185  1.0120
   46CHL1   C24 5872   3.619   1.904   8.659 -0.7841  0.1372  0.3245
   46CHL1  H24A 5873   3.519   1.858   8.675 -0.1995 -1.4523 -0.3362
   46CHL1  H24B 5874   3.616   2.006   8.614 -1.9481 -0.0600 -0.0910
   46CHL1   C25 5875   3.694   1.816   8.552  0.1447  0.5288  0.3217
   46CHL1   H25 5876   3.780   1.868   8.504 -0.7798  1.1933 -0.6567
   46CHL1   C26 5877   3.743   1.684   8.613  0.0534  0.0666  0.1696
   46CHL1  H26A 5878   3.783   1.627   8.526  0.0610  0.7635 -0.2854
   46CHL1  H26B 5879   3.822   1.701   8.689 -1.6957 -1.5114  2.4836
   46CHL1  H26C 5880   3.654   1.630   8.654 -1.1035  0.9020 -1.1529
   46CHL1   C27 5881   3.588   1.780   8.449 -1.0268 -0.1132  0.7762
   46CHL1  H27A 5882   3.625   1.709   8.372 -0.0864 -0.9182  1.9493
   46CHL1  H27B 5883   3.498   1.736   8.496 -1.1483 -1.4289 -0.6309
   46CHL1  H27C 5884   3.561   1.874   8.395 -0.7393 -1.7028 -2.3928
   47CHL1    C3 5885   4.433   4.053   9.947  0.6995 -0.4269 -0.3211
   47CHL1    H3 5886   4.476   4.154   9.927  0.1493  0.2555  1.6612
   47CHL1    O3 5887   4.433   4.040  10.090 -0.3184  0.0722  0.2288
   47CHL1   H3' 5888   4.395   4.122  10.122  0.4355  0.8492 -0.7866
   47CHL1    C4 5889   4.289   4.051   9.899  0.3195  0.0793  0.2143
   47CHL1   H4A 5890   4.240   3.956   9.931 -0.8876  1.0268  1.2679
   47CHL1   H4B 5891   4.240   4.128   9.962 -0.8029 -0.6981  0.3424
   47CHL1    C5 5892   4.277   4.055   9.741  0.2926 -0.5824  0.0402
   47CHL1    C6 5893   4.200   4.149   9.677  0.6117  0.4726  0.3464
   47CHL1    H6 5894   4.142   4.213   9.745  0.5625  1.1706 -0.3366
   47CHL1    C7 5895   4.175   4.166   9.532  0.2939  0.0536 -0.2080
   47CHL1   H7A 5896   4.068   4.178   9.504 -0.1005 -1.7451  0.3820
   47CHL1   H7B 5897   4.225   4.257   9.494  3.0478 -2.0436 -2.0171
   47CHL1    C8 5898   4.246   4.050   9.458  0.1096 -0.3991 -0.3343
   47CHL1    H8 5899   4.179   3.963   9.474 -0.8778  0.5585  0.8559
   47CHL1   C14 5900   4.258   4.090   9.313  0.6246 -0.3952 -0.5060
   47CHL1   H14 5901   4.339   4.166   9.319  0.6542 -0.4860  0.6006
   47CHL1   C15 5902   4.133   4.143   9.243 -0.3052  0.3642  1.1308
   47CHL1  H15A 5903   4.047   4.086   9.286  1.0749 -3.6852 -0.9467
   47CHL1  H15B 5904   4.124   4.250   9.270 -0.2454  0.8021 -0.5312
   47CHL1   C16 5905   4.163   4.128   9.096 -0.0721 -0.7740 -0.2153
   47CHL1  H16A 5906   4.082   4.066   9.052  0.2870 -1.0810 -0.4577
   47CHL1  H16B 5907   4.171   4.222   9.039 -1.7415 -1.8007 -2.2836
   47CHL1   C17 5908   4.298   4.053   9.087 -0.4424 -0.0489  0.3263
   47CHL1   H17 5909   4.380   4.129   9.085  2.2287 -2.7470 -0.6888
   47CHL1   C13 5910   4.315   3.978   9.222 -0.1823 -0.5052 -0.0123
   47CHL1   C18 5911   4.211   3.863   9.214 -0.4480  0.6084 -0.0722
   47CHL1  H18A 5912   4.111   3.875   9.168 -0.6509 -2.5003 -0.7176
   47CHL1  H18B 5913   4.260   3.785   9.151  0.9429  0.2571  1.3922
   47CHL1  H18C 5914   4.190   3.807   9.308 -1.7231  0.5209 -0.3969
   47CHL1   C12 5915   4.451   3.935   9.277  0.0102  0.5163 -0.2489
   47CHL1  H12A 5916   4.478   3.839   9.229 -1.7370 -0.8509  1.3435
   47CHL1  H12B 5917   4.533   4.006   9.251  0.4165 -0.0892 -0.6412
   47CHL1   C11 5918   4.446   3.892   9.425 -0.4961 -0.6955 -0.3847
   47CHL1  H11A 5919   4.381   3.803   9.425 -1.7074  0.1593 -0.6554
   47CHL1  H11B 5920   4.548   3.866   9.461 -0.4879 -1.7425 -1.1289
   47CHL1    C9 5921   4.380   4.004   9.515 -0.4547 -0.2682 -0.3981
   47CHL1    H9 5922   4.437   4.100   9.511 -1.9217  0.8394  2.3249
   47CHL1   C10 5923   4.369   3.967   9.665 -0.1503  0.5358 -0.9077
   47CHL1   C19 5924   4.299   3.818   9.678  0.2022  0.3730  0.4143
   47CHL1  H19A 5925   4.220   3.798   9.603 -0.6237 -1.2060  1.6450
   47CHL1  H19B 5926   4.379   3.747   9.648 -1.3915 -0.7696 -1.3435
   47CHL1  H19C 5927   4.270   3.775   9.776 -1.3584  0.0284 -0.1711
   47CHL1    C1 5928   4.505   3.970   9.723 -0.2683 -0.1243  0.2735
   47CHL1   H1A 5929   4.565   3.885   9.684 -1.7256 -0.3249 -1.6751
   47CHL1   H1B 5930   4.552   4.067   9.699 -1.5603 -0.0294 -2.0776
   47CHL1    C2 5931   4.518   3.948   9.881  0.3210  0.1955 -0.0278
   47CHL1   H2A 5932   4.623   3.946   9.918  0.9813 -2.5046 -1.7169
   47CHL1   H2B 5933   4.479   3.852   9.922  0.3899  1.0780  2.2646
   47CHL1   C20 5934   4.315   3.972   8.957  1.0429  0.0589 -0.3740
   47CHL1   H20 5935   4.232   3.899   8.944  0.3531  1.1589 -2.7916
   47CHL1   C21 5936   4.447   3.895   8.952 -0.3877  0.1351  0.5347
   47CHL1  H21A 5937   4.463   3.867   8.845  1.2823  4.5019 -0.5779
   47CHL1  H21B 5938   4.456   3.811   9.025 -0.0558  0.6902  1.1386
   47CHL1  H21C 5939   4.523   3.972   8.976 -1.1811  1.2216 -0.3405
   47CHL1   C22 5940   4.312   4.061   8.825 -0.4302  0.8309 -0.0537
   47CHL1  H22A 5941   4.240   4.140   8.857 -0.4038  0.6260  0.5270
   47CHL1  H22B 5942   4.416   4.092   8.804 -0.0904 -1.1360 -1.5638
   47CHL1   C23 5943   4.272   3.999   8.688 -0.0278  0.0005 -0.2268
   47CHL1  H23A 5944   4.322   3.899   8.681  0.8185  0.5248 -3.0450
   47CHL1  H23B 5945   4.162   3.993   8.685 -0.0758  0.9486 -0.6653
   47CHL1   C24 5946   4.296   4.094   8.573 -0.3874 -0.3031  0.0753
   47CHL1  H24A 5947   4.249   4.194   8.586 -1.6167 -0.9089  0.4154
   47CHL1  H24B 5948   4.405   4.119   8.567 -0.2183 -0.4100  2.0683
   47CHL1   C25 5949   4.249   4.031   8.437 -0.4846  0.1491  0.2181
   47CHL1   H25 5950   4.143   3.997   8.439 -0.2206 -0.6951  1.6708
   47CHL1   C26 5951   4.272   4.123   8.320 -0.0221  0.2380 -0.3630
   47CHL1  H26A 5952   4.382   4.132   8.312  0.2454 -1.3187  0.9927
   47CHL1  H26B 5953   4.235   4.223   8.353 -0.1625  0.3704 -0.9098
   47CHL1  H26C 5954   4.230   4.079   8.227 -0.5799 -3.2703  1.3858
   47CHL1   C27 5955   4.328   3.899   8.391  0.2300 -0.1163  0.1077
   47CHL1  H27A 5956   4.437   3.917   8.387  0.5182 -1.6833  0.2948
   47CHL1  H27B 5957   4.317   3.825   8.473  3.1137  1.4034  2.0456
   47CHL1  H27C 5958   4.298   3.855   8.293  0.2295  0.3895 -0.1230
   48CHL1    C3 5959   2.812   6.192  10.065  0.0844  1.4075 -0.4272
   48CHL1    H3 5960   2.879   6.111  10.030 -0.5865  0.9936 -0.7542
   48CHL1    O3 5961   2.833   6.195  10.202 -0.4763  0.4376 -0.2403
   48CHL1   H3' 5962   2.929   6.201  10.209 -0.6240  1.9497  1.0950
   48CHL1    C4 5963   2.874   6.326  10.007 -0.5269 -0.0337  0.7800
   48CHL1   H4A 5964   2.832   6.414  10.061  1.4681  0.4065  1.7124
   48CHL1   H4B 5965   2.975   6.342  10.051 -0.7947  1.3506  0.9397
   48CHL1    C5 5966   2.872   6.336   9.860 -0.5628 -0.2529  0.1053
   48CHL1    C6 5967   2.981   6.341   9.782 -0.2018 -0.1951 -0.8595
   48CHL1    H6 5968   3.075   6.345   9.838 -0.3025 -0.4586 -0.6652
   48CHL1    C7 5969   2.983   6.340   9.631  0.1363 -0.1244  0.2596
   48CHL1   H7A 5970   3.055   6.420   9.602 -1.1027  0.8336 -0.2767
   48CHL1   H7B 5971   3.028   6.248   9.589 -1.7992 -0.7236 -0.6220
   48CHL1    C8 5972   2.843   6.370   9.580 -0.6424 -0.3373  0.7790
   48CHL1    H8 5973   2.830   6.478   9.603  1.1546 -0.0414  0.4976
   48CHL1   C14 5974   2.835   6.357   9.426  0.1061 -0.0094  0.4514
   48CHL1   H14 5975   2.839   6.247   9.408  0.8671  0.0111  0.4378
   48CHL1   C15 5976   2.945   6.422   9.342 -0.1006  0.4077  0.1987
   48CHL1  H15A 5977   2.960   6.528   9.372 -1.1544  0.1535  1.7837
   48CHL1  H15B 5978   3.041   6.369   9.357  0.4179  1.6035  1.3169
   48CHL1   C16 5979   2.892   6.402   9.197  0.1037 -0.3906  0.4930
   48CHL1  H16A 5980   2.901   6.498   9.142 -0.8500  0.6704  2.1081
   48CHL1  H16B 5981   2.955   6.326   9.147  3.7036  2.5288  0.2071
   48CHL1   C17 5982   2.738   6.379   9.215 -0.1824  0.2720  0.1694
   48CHL1   H17 5983   2.723   6.269   9.206  0.0623  0.3040 -0.7511
   48CHL1   C13 5984   2.701   6.401   9.363  0.0698  0.6209 -0.9818
   48CHL1   C18 5985   2.656   6.544   9.392 -1.0401 -0.5150 -0.1812
   48CHL1  H18A 5986   2.656   6.567   9.500  0.7446 -1.3223  0.0333
   48CHL1  H18B 5987   2.729   6.616   9.347 -0.5523 -0.3015  0.9139
   48CHL1  H18C 5988   2.559   6.579   9.351  1.1714  3.1442 -3.0649
   48CHL1   C12 5989   2.598   6.297   9.421 -0.2369  0.1470 -0.0688
   48CHL1  H12A 5990   2.495   6.326   9.393  0.4277  2.6352 -0.2097
   48CHL1  H12B 5991   2.628   6.193   9.395  0.8435  0.4288 -0.0236
   48CHL1   C11 5992   2.590   6.307   9.573  0.3959 -0.6749 -0.0110
   48CHL1  H11A 5993   2.542   6.404   9.599  0.7537 -0.4731 -0.1026
   48CHL1  H11B 5994   2.513   6.236   9.611  0.6854 -0.2300  1.4695
   48CHL1    C9 5995   2.721   6.292   9.650 -0.7651  0.5920  0.3843
   48CHL1    H9 5996   2.760   6.189   9.632  1.2492  1.4553 -0.5576
   48CHL1   C10 5997   2.724   6.320   9.805  0.2613 -0.2924  0.6084
   48CHL1   C19 5998   2.642   6.446   9.835 -0.1229 -0.0018  0.3603
   48CHL1  H19A 5999   2.628   6.463   9.944 -0.9538  1.9948 -0.0025
   48CHL1  H19B 6000   2.693   6.532   9.786 -0.3659 -1.1978 -2.1444
   48CHL1  H19C 6001   2.537   6.441   9.801  0.4749 -0.8111 -1.4750
   48CHL1    C1 6002   2.667   6.187   9.872 -0.0352  0.0238  0.2881
   48CHL1   H1A 6003   2.559   6.179   9.846 -0.3488 -0.1751  1.5777
   48CHL1   H1B 6004   2.712   6.099   9.822  1.0722  1.3993 -1.2344
   48CHL1    C2 6005   2.664   6.176  10.024  0.3383  0.2423  0.1624
   48CHL1   H2A 6006   2.631   6.076  10.060  1.4130  0.4434  1.7814
   48CHL1   H2B 6007   2.602   6.260  10.062  1.0920  0.3797  1.1197
   48CHL1   C20 6008   2.643   6.446   9.109  0.4764 -0.1897 -0.1651
   48CHL1   H20 6009   2.638   6.554   9.135  0.6039 -0.5331  1.4094
   48CHL1   C21 6010   2.501   6.393   9.119  0.3352 -0.1694  0.3036
   48CHL1  H21A 6011   2.512   6.283   9.111 -1.5627 -0.5129  1.6993
   48CHL1  H21B 6012   2.445   6.431   9.032 -0.7217  2.0311  1.8365
   48CHL1  H21C 6013   2.442   6.419   9.210 -0.4484 -1.8663  0.3115
   48CHL1   C22 6014   2.695   6.449   8.966  0.1193  0.1842  0.1700
   48CHL1  H22A 6015   2.627   6.500   8.896 -0.4602  0.3511  0.8419
   48CHL1  H22B 6016   2.783   6.516   8.966 -1.0164  1.7351  0.9397
   48CHL1   C23 6017   2.737   6.315   8.903 -0.1906  0.5593 -0.1363
   48CHL1  H23A 6018   2.826   6.270   8.954  2.0204  2.5482 -2.0377
   48CHL1  H23B 6019   2.658   6.237   8.907  0.7908 -0.4759 -0.0624
   48CHL1   C24 6020   2.777   6.330   8.756 -0.2828  0.6353  0.0838
   48CHL1  H24A 6021   2.692   6.335   8.684 -0.1877 -0.6863 -0.1497
   48CHL1  H24B 6022   2.839   6.419   8.733 -0.0452  0.5068  0.2151
   48CHL1   C25 6023   2.847   6.202   8.711  0.0361  0.2644 -0.0871
   48CHL1   H25 6024   2.914   6.160   8.789 -2.6345  0.4107  2.4567
   48CHL1   C26 6025   2.739   6.087   8.687 -0.0582 -0.7300  0.0737
   48CHL1  H26A 6026   2.673   6.129   8.608  0.0973  1.3735  0.9834
   48CHL1  H26B 6027   2.787   5.996   8.646 -0.2274 -0.2177 -1.3155
   48CHL1  H26C 6028   2.676   6.073   8.777 -0.8810  0.8035 -0.2261
   48CHL1   C27 6029   2.929   6.237   8.587  0.0207  0.0082  0.5678
   48CHL1  H27A 6030   2.871   6.308   8.525 -2.4788 -0.2115  2.4858
   48CHL1  H27B 6031   3.022   6.286   8.623  0.5695  0.2948 -1.1479
   48CHL1  H27C 6032   2.949   6.145   8.527  1.3933  0.5410  0.1724
   49CHL1    C3 6033   2.355   1.774  10.200 -0.2732  0.1482 -0.0398
   49CHL1    H3 6034   2.424   1.715  10.136  2.5248  0.5290  2.3941
   49CHL1    O3 6035   2.406   1.769  10.330  0.0447 -0.2130 -0.1683
   49CHL1   H3' 6036   2.366   1.690  10.369 -1.4181 -0.0418 -1.2345
   49CHL1    C4 6037   2.342   1.921  10.152 -0.0743 -0.0275 -0.1267
   49CHL1   H4A 6038   2.275   1.965  10.229  0.2713  0.0659  0.1218
   49CHL1   H4B 6039   2.444   1.965  10.159 -0.2816  0.7422 -1.7195
   49CHL1    C5 6040   2.287   1.946  10.017  0.4869  0.5157  0.5830
   49CHL1    C6 6041   2.355   2.009   9.914  0.3235  0.1255  0.4479
   49CHL1    H6 6042   2.451   2.060   9.932  0.2689  1.0816 -1.6398
   49CHL1    C7 6043   2.295   2.021   9.776 -0.0959 -0.0779 -0.0978
   49CHL1   H7A 6044   2.328   2.117   9.731  1.5892 -0.5705  0.0386
   49CHL1   H7B 6045   2.331   1.938   9.711  0.1457  0.8645 -1.2086
   49CHL1    C8 6046   2.139   1.998   9.772  0.1082 -0.7085  0.3360
   49CHL1    H8 6047   2.085   2.081   9.823 -2.1113 -0.7241 -1.8074
   49CHL1   C14 6048   2.110   1.976   9.623 -0.1385  0.4277  0.0743
   49CHL1   H14 6049   2.175   1.894   9.586  1.2817  1.2257  0.7376
   49CHL1   C15 6050   2.146   2.086   9.521 -0.0411  0.0801 -0.0972
   49CHL1  H15A 6051   2.109   2.184   9.560 -0.1603  0.3036 -0.7657
   49CHL1  H15B 6052   2.257   2.093   9.514  0.0831 -1.0131  0.5845
   49CHL1   C16 6053   2.080   2.039   9.392  0.0200  0.3983 -0.2454
   49CHL1  H16A 6054   2.030   2.118   9.332  0.4523  0.3776 -0.6402
   49CHL1  H16B 6055   2.158   1.989   9.331 -1.3034 -1.5084 -0.4857
   49CHL1   C17 6056   1.972   1.934   9.438 -0.3602 -0.3910  0.0877
   49CHL1   H17 6057   2.011   1.833   9.415 -1.8900 -1.2776  1.2207
   49CHL1   C13 6058   1.970   1.937   9.588  0.2670  0.2179 -0.2257
   49CHL1   C18 6059   1.878   2.064   9.613 -0.6828 -0.7382  0.2647
   49CHL1  H18A 6060   1.772   2.031   9.597 -0.5919 -0.5366 -0.8235
   49CHL1  H18B 6061   1.891   2.089   9.720  0.3367  0.8247 -0.1932
   49CHL1  H18C 6062   1.899   2.149   9.545 -1.6202 -1.1638 -0.6099
   49CHL1   C12 6063   1.936   1.809   9.665 -0.0613  0.0273  0.2037
   49CHL1  H12A 6064   1.833   1.772   9.646 -0.1675  1.4338 -2.3429
   49CHL1  H12B 6065   2.010   1.736   9.625 -0.2235  0.0894 -0.2094
   49CHL1   C11 6066   1.955   1.830   9.817 -0.0308 -0.2262  0.8122
   49CHL1  H11A 6067   1.870   1.899   9.836  1.4920  1.6315  1.2026
   49CHL1  H11B 6068   1.942   1.730   9.865 -0.3484  0.4540  2.2023
   49CHL1    C9 6069   2.103   1.870   9.844  0.2705  0.3063  0.2568
   49CHL1    H9 6070   2.166   1.791   9.797 -2.1271 -2.4909  1.3733
   49CHL1   C10 6071   2.147   1.873   9.999  0.0078  0.8593  0.2744
   49CHL1   C19 6072   2.028   1.931  10.083 -0.8271 -0.1252  0.9036
   49CHL1  H19A 6073   2.010   2.038  10.062  2.0323  0.2164 -0.1018
   49CHL1  H19B 6074   1.937   1.868  10.077  0.5648 -2.3410  1.7642
   49CHL1  H19C 6075   2.061   1.921  10.189  2.0224 -2.0263 -0.0631
   49CHL1    C1 6076   2.162   1.725  10.050  0.0558 -0.4802  0.0719
   49CHL1   H1A 6077   2.063   1.674  10.051  0.0411 -0.4717  1.6108
   49CHL1   H1B 6078   2.222   1.663   9.979 -2.0256 -1.1017 -1.2386
   49CHL1    C2 6079   2.229   1.704  10.187 -0.3914 -0.1805  0.1883
   49CHL1   H2A 6080   2.254   1.597  10.204  2.1250  0.0738 -1.3832
   49CHL1   H2B 6081   2.161   1.731  10.271  1.1065  0.5374  1.2070
   49CHL1   C20 6082   1.839   1.942   9.360 -0.1181 -0.4826  0.4257
   49CHL1   H20 6083   1.800   2.044   9.381 -2.8634 -1.3052 -0.2706
   49CHL1   C21 6084   1.738   1.833   9.389  0.7617  0.6161 -0.6979
   49CHL1  H21A 6085   1.700   1.851   9.492 -0.2150 -1.1279 -0.7111
   49CHL1  H21B 6086   1.787   1.735   9.371 -0.3593  0.0564 -0.8033
   49CHL1  H21C 6087   1.645   1.834   9.328 -1.2673 -1.9129  2.0715
   49CHL1   C22 6088   1.866   1.946   9.201  0.3996  0.2493 -0.9018
   49CHL1  H22A 6089   1.896   2.051   9.181 -0.3447  1.0475  1.7312
   49CHL1  H22B 6090   1.951   1.885   9.164  0.4404 -0.2142 -0.0590
   49CHL1   C23 6091   1.738   1.922   9.113  0.3598  0.2907 -0.5136
   49CHL1  H23A 6092   1.688   1.824   9.127  1.2099 -0.1816 -0.6911
   49CHL1  H23B 6093   1.658   1.996   9.134 -2.1935 -2.5669  0.7560
   49CHL1   C24 6094   1.783   1.946   8.967  0.2340  0.0164 -0.0262
   49CHL1  H24A 6095   1.853   2.031   8.960  0.9776 -0.6549 -1.0436
   49CHL1  H24B 6096   1.833   1.855   8.929 -0.0669 -0.2640  0.2406
   49CHL1   C25 6097   1.667   1.971   8.865  0.1495 -0.2157 -0.0523
   49CHL1   H25 6098   1.577   1.914   8.897  0.2191 -0.3369 -0.0735
   49CHL1   C26 6099   1.620   2.120   8.872 -0.0339 -1.1921 -0.1069
   49CHL1  H26A 6100   1.533   2.130   8.804 -1.8681  2.7372  2.4193
   49CHL1  H26B 6101   1.578   2.128   8.975 -1.2564  1.4537 -0.7412
   49CHL1  H26C 6102   1.709   2.184   8.851 -0.4640 -0.6847 -0.3971
   49CHL1   C27 6103   1.709   1.919   8.721  0.0969  0.1088 -0.6503
   49CHL1  H27A 6104   1.628   1.932   8.646  0.0470  0.1517 -0.5896
   49CHL1  H27B 6105   1.801   1.969   8.685  0.5737 -0.4974 -0.2761
   49CHL1  H27C 6106   1.740   1.813   8.720 -1.3270 -0.3902  1.3389
   50CHL1    C3 6107   0.709   2.025  10.315 -0.5456  0.2544 -0.0343
   50CHL1    H3 6108   0.808   1.989  10.280 -0.5612 -0.0485  0.2352
   50CHL1    O3 6109   0.695   2.012  10.458  0.4298  0.2571  0.0252
   50CHL1   H3' 6110   0.688   1.917  10.473  0.2457  0.4009  0.9249
   50CHL1    C4 6111   0.696   2.177  10.276  0.0714  1.3295 -0.0984
   50CHL1   H4A 6112   0.594   2.202  10.312 -1.7236 -2.0650 -2.2927
   50CHL1   H4B 6113   0.765   2.249  10.325  2.2981 -0.1961 -0.8593
   50CHL1    C5 6114   0.682   2.178  10.122 -0.2622  0.1241  0.6034
   50CHL1    C6 6115   0.769   2.252  10.055  0.0494 -0.5617  0.1651
   50CHL1    H6 6116   0.843   2.313  10.108 -1.0763  0.8687  0.1497
   50CHL1    C7 6117   0.757   2.280   9.913  0.0800  0.6895  0.6632
   50CHL1   H7A 6118   0.759   2.388   9.884  0.1047  0.4565 -0.2199
   50CHL1   H7B 6119   0.842   2.231   9.862  0.9880  2.6160  0.2185
   50CHL1    C8 6120   0.619   2.238   9.848  0.1000 -0.2121 -0.3578
   50CHL1    H8 6121   0.536   2.307   9.875  1.3749  1.3569 -0.3184
   50CHL1   C14 6122   0.620   2.234   9.693  0.5061  0.7254  0.7373
   50CHL1   H14 6123   0.699   2.157   9.678  0.7241  0.8400  1.2785
   50CHL1   C15 6124   0.673   2.354   9.621 -0.1162 -0.7427  1.0108
   50CHL1  H15A 6125   0.612   2.439   9.658  0.1443 -1.4585  3.1745
   50CHL1  H15B 6126   0.781   2.371   9.638 -0.2535 -0.5965  1.7580
   50CHL1   C16 6127   0.636   2.326   9.473 -0.4689 -0.7511  0.2980
   50CHL1  H16A 6128   0.583   2.418   9.441  1.9909  1.0835  1.2324
   50CHL1  H16B 6129   0.728   2.329   9.411 -0.0321  1.7483  0.9813
   50CHL1   C17 6130   0.549   2.203   9.473 -0.1065  0.0564 -0.5729
   50CHL1   H17 6131   0.610   2.111   9.460 -1.5518 -1.9005  4.2149
   50CHL1   C13 6132   0.496   2.190   9.623  0.9727 -0.3777  0.1329
   50CHL1   C18 6133   0.375   2.284   9.658  0.2867 -0.1392 -0.1636
   50CHL1  H18A 6134   0.289   2.243   9.601  0.4967 -1.2175  0.2647
   50CHL1  H18B 6135   0.350   2.284   9.766  1.7100  1.4426  0.2065
   50CHL1  H18C 6136   0.391   2.389   9.624 -0.7664  0.0898  0.0189
   50CHL1   C12 6137   0.463   2.048   9.671 -0.0505 -0.0093  0.5125
   50CHL1  H12A 6138   0.367   2.014   9.626 -1.0034  0.5550  2.0364
   50CHL1  H12B 6139   0.545   1.974   9.659  0.1931  0.3106  0.1872
   50CHL1   C11 6140   0.454   2.042   9.823  0.5221 -0.5519 -0.0303
   50CHL1  H11A 6141   0.350   2.062   9.855 -0.1911 -0.7107 -2.1012
   50CHL1  H11B 6142   0.465   1.934   9.848  0.2969 -0.5108  0.2517
   50CHL1    C9 6143   0.577   2.101   9.898  1.0430 -0.2361 -0.5455
   50CHL1    H9 6144   0.661   2.034   9.867 -0.6713 -2.7180 -0.1352
   50CHL1   C10 6145   0.561   2.098  10.056 -0.1714  0.1167 -0.0291
   50CHL1   C19 6146   0.421   2.145  10.107 -0.4825  0.2629 -0.3564
   50CHL1  H19A 6147   0.425   2.161  10.217 -1.6011 -0.9557 -0.1189
   50CHL1  H19B 6148   0.399   2.241  10.057  0.6732 -1.1115 -3.7997
   50CHL1  H19C 6149   0.337   2.077  10.083 -1.0795  0.0461  2.0709
   50CHL1    C1 6150   0.575   1.951  10.099 -0.7804  1.1411 -0.5952
   50CHL1   H1A 6151   0.481   1.898  10.074 -2.2478  2.9939  0.7392
   50CHL1   H1B 6152   0.664   1.910  10.046  1.5044  2.1812  2.1869
   50CHL1    C2 6153   0.600   1.940  10.250  0.4448 -0.1490 -0.1517
   50CHL1   H2A 6154   0.612   1.833  10.280 -2.1618 -0.4198  0.1509
   50CHL1   H2B 6155   0.505   1.962  10.302  0.7611  1.1034 -0.0807
   50CHL1   C20 6156   0.441   2.207   9.365 -0.2277  0.3364  0.1460
   50CHL1   H20 6157   0.370   2.289   9.390  2.4982  2.3457  1.8714
   50CHL1   C21 6158   0.366   2.072   9.351 -0.2190  0.4510  0.4564
   50CHL1  H21A 6159   0.450   2.001   9.337 -0.1410  0.7793 -0.9202
   50CHL1  H21B 6160   0.302   2.072   9.260 -1.3418 -0.5456  1.2164
   50CHL1  H21C 6161   0.305   2.042   9.439 -0.0943 -1.0565  0.0532
   50CHL1   C22 6162   0.499   2.253   9.224  0.3877  0.3168 -0.5053
   50CHL1  H22A 6163   0.535   2.358   9.225  0.4032  0.3164 -0.7706
   50CHL1  H22B 6164   0.587   2.187   9.210  0.9184  0.7570  0.6607
   50CHL1   C23 6165   0.407   2.245   9.093  0.1673 -0.0980 -0.2539
   50CHL1  H23A 6166   0.371   2.141   9.080  1.2117 -0.1688 -3.2567
   50CHL1  H23B 6167   0.316   2.304   9.115  0.2363 -0.0077 -0.2117
   50CHL1   C24 6168   0.472   2.301   8.960  0.4919  0.2185 -0.1194
   50CHL1  H24A 6169   0.504   2.405   8.980 -1.2554  0.7467  0.0065
   50CHL1  H24B 6170   0.561   2.239   8.934 -0.0773 -0.5144 -0.3355
   50CHL1   C25 6171   0.377   2.306   8.841  0.1803 -0.2852  0.0116
   50CHL1   H25 6172   0.272   2.321   8.874 -0.0852 -1.2934 -0.3243
   50CHL1   C26 6173   0.436   2.413   8.753 -0.2632 -0.2302  0.4514
   50CHL1  H26A 6174   0.541   2.390   8.725  0.2359  0.8086  1.3894
   50CHL1  H26B 6175   0.378   2.423   8.658 -0.4077  2.5087  0.7489
   50CHL1  H26C 6176   0.442   2.512   8.801  1.3351 -1.0425  2.0299
   50CHL1   C27 6177   0.380   2.169   8.764 -0.0204  0.7679 -0.7007
   50CHL1  H27A 6178   0.305   2.172   8.682  0.4039  2.2642 -1.0690
   50CHL1  H27B 6179   0.474   2.140   8.713 -0.5836 -0.5807 -1.0199
   50CHL1  H27C 6180   0.377   2.089   8.841  2.2542  0.8243 -0.4832
   51CHL1    C3 6181   5.554   4.279  10.155 -0.3413  0.2502 -0.8598
   51CHL1    H3 6182   5.455   4.326  10.136  0.0302  1.4170 -0.0207
   51CHL1    O3 6183   5.576   4.274  10.295 -0.3455 -0.5456 -0.3940
   51CHL1   H3' 6184   5.657   4.226  10.313  0.4544  0.7207 -0.4774
   51CHL1    C4 6185   5.567   4.136  10.109  0.0561 -0.6082 -1.2473
   51CHL1   H4A 6186   5.664   4.093  10.142 -1.0004 -2.3170 -0.2190
   51CHL1   H4B 6187   5.477   4.095  10.159 -1.7264  1.7355 -2.3238
   51CHL1    C5 6188   5.558   4.130   9.961 -1.1007 -1.1076  0.1301
   51CHL1    C6 6189   5.469   4.057   9.896  1.5713  0.7876  0.6053
   51CHL1    H6 6190   5.402   3.992   9.954  0.6873  1.6018  0.5176
   51CHL1    C7 6191   5.461   4.041   9.746  0.1284  0.3805 -0.7026
   51CHL1   H7A 6192   5.453   3.933   9.722  0.6620  0.3699 -0.8415
   51CHL1   H7B 6193   5.368   4.092   9.711  0.1358  0.5399 -0.4914
   51CHL1    C8 6194   5.581   4.086   9.665 -0.9642 -0.0168  0.1273
   51CHL1    H8 6195   5.669   4.019   9.674  0.1571  1.5727  1.6007
   51CHL1   C14 6196   5.547   4.099   9.522 -0.7025 -0.3590  0.4533
   51CHL1   H14 6197   5.472   4.181   9.525 -0.3401 -0.0187  2.8625
   51CHL1   C15 6198   5.492   3.980   9.446  0.2640  0.3959  0.4432
   51CHL1  H15A 6199   5.550   3.886   9.459 -1.7536 -0.7535  1.6601
   51CHL1  H15B 6200   5.390   3.955   9.481  0.3430 -1.1865 -0.4122
   51CHL1   C16 6201   5.489   4.023   9.300  0.0419  0.1133 -0.7469
   51CHL1  H16A 6202   5.530   3.958   9.219  1.0996 -1.9059  1.2937
   51CHL1  H16B 6203   5.379   4.033   9.288 -0.0402  0.6032  0.3468
   51CHL1   C17 6204   5.568   4.161   9.301  1.1812 -0.2983 -0.7921
   51CHL1   H17 6205   5.488   4.237   9.310  2.3109  0.9121 -0.7256
   51CHL1   C13 6206   5.646   4.165   9.437 -0.5988  0.9787  0.4073
   51CHL1   C18 6207   5.774   4.071   9.419  0.8805 -0.6120 -0.6470
   51CHL1  H18A 6208   5.743   3.974   9.373 -2.1453 -0.4658  0.8549
   51CHL1  H18B 6209   5.843   4.132   9.356  1.4708  1.2394  1.6631
   51CHL1  H18C 6210   5.825   4.050   9.515 -1.2921  0.6472  0.8739
   51CHL1   C12 6211   5.691   4.301   9.497 -0.3466 -0.5818 -1.0122
   51CHL1  H12A 6212   5.782   4.329   9.441 -1.2619  2.9147 -0.9917
   51CHL1  H12B 6213   5.617   4.384   9.491  1.1078  0.9414  0.6661
   51CHL1   C11 6214   5.732   4.290   9.643 -0.6723 -0.2484  0.4012
   51CHL1  H11A 6215   5.822   4.224   9.643 -1.3136 -1.1540  0.0615
   51CHL1  H11B 6216   5.769   4.387   9.680 -0.0623 -1.0739  2.0647
   51CHL1    C9 6217   5.629   4.219   9.727 -0.2941 -0.1894  0.2531
   51CHL1    H9 6218   5.538   4.283   9.722  1.0036  1.6910 -0.7974
   51CHL1   C10 6219   5.666   4.214   9.880  0.3704 -0.3242 -0.2907
   51CHL1   C19 6220   5.799   4.145   9.889  0.1080 -0.1798  1.0118
   51CHL1  H19A 6221   5.789   4.042   9.850  0.4523 -1.2611  3.5697
   51CHL1  H19B 6222   5.881   4.204   9.844 -0.8232  0.8292  0.5968
   51CHL1  H19C 6223   5.829   4.136   9.996  0.4136 -0.7123  0.8833
   51CHL1    C1 6224   5.677   4.358   9.945  0.0467 -0.1337  0.1445
   51CHL1   H1A 6225   5.765   4.413   9.905 -0.4788 -0.4218 -1.5194
   51CHL1   H1B 6226   5.598   4.428   9.909  1.4196  0.2438 -2.4245
   51CHL1    C2 6227   5.669   4.365  10.098 -1.0419  0.2783  0.7739
   51CHL1   H2A 6228   5.654   4.470  10.132  0.5793  0.6028  0.5401
   51CHL1   H2B 6229   5.765   4.328  10.139 -0.7943  0.5443  0.4403
   51CHL1   C20 6230   5.642   4.181   9.165  0.1700 -0.4775  0.1119
   51CHL1   H20 6231   5.726   4.108   9.167 -0.6731 -1.4708  1.5938
   51CHL1   C21 6232   5.697   4.326   9.149 -0.0836 -0.5107  0.4703
   51CHL1  H21A 6233   5.632   4.410   9.182 -1.1880 -1.9262  2.1023
   51CHL1  H21B 6234   5.735   4.347   9.047  0.3528 -1.3324  0.4555
   51CHL1  H21C 6235   5.784   4.343   9.216  1.5972 -1.0590 -1.4769
   51CHL1   C22 6236   5.561   4.142   9.038  0.5570  0.4942 -0.3000
   51CHL1  H22A 6237   5.462   4.098   9.061 -0.8126  2.6034 -1.7556
   51CHL1  H22B 6238   5.534   4.230   8.976  1.6558  0.3619 -1.0006
   51CHL1   C23 6239   5.631   4.053   8.942 -0.2443  0.5305  0.2850
   51CHL1  H23A 6240   5.728   4.103   8.920  0.2773 -0.5468  0.0822
   51CHL1  H23B 6241   5.653   3.953   8.986  2.6538  0.5195 -0.9639
   51CHL1   C24 6242   5.562   4.025   8.808  0.2585  0.2084  0.4895
   51CHL1  H24A 6243   5.526   4.124   8.774 -0.0293 -0.2889 -0.6788
   51CHL1  H24B 6244   5.644   3.987   8.743  0.7556  0.4190  0.9863
   51CHL1   C25 6245   5.444   3.928   8.823  0.0121  0.3144 -0.5597
   51CHL1   H25 6246   5.374   3.969   8.898 -2.2683  0.0992 -2.4421
   51CHL1   C26 6247   5.356   3.911   8.695  0.0189  0.0006  0.4906
   51CHL1  H26A 6248   5.258   3.862   8.709 -0.2018  0.1218 -0.5449
   51CHL1  H26B 6249   5.346   4.004   8.635  1.1910 -0.9841 -1.3302
   51CHL1  H26C 6250   5.411   3.847   8.623 -1.2228  1.4652 -1.9025
   51CHL1   C27 6251   5.477   3.777   8.864  0.0521 -0.1145 -0.2609
   51CHL1  H27A 6252   5.512   3.784   8.969 -0.3682  1.7261 -0.2135
   51CHL1  H27B 6253   5.389   3.709   8.857  1.2602 -1.6791 -0.8292
   51CHL1  H27C 6254   5.548   3.724   8.797 -0.7791 -0.2949 -1.0187
   52CHL1    C3 6255   5.026   3.805   9.965 -0.2681 -0.5751 -0.2897
   52CHL1    H3 6256   5.007   3.696   9.958 -1.0972 -0.4169 -0.5038
   52CHL1    O3 6257   5.036   3.833  10.101  0.6971  0.1049  0.1137
   52CHL1   H3' 6258   5.092   3.909  10.116 -1.6396  1.5928  2.0621
   52CHL1    C4 6259   5.152   3.850   9.896  0.3259  0.1678 -0.2927
   52CHL1   H4A 6260   5.171   3.958   9.914  2.5175 -0.1889 -0.1540
   52CHL1   H4B 6261   5.234   3.798   9.950  0.0323  2.4439  2.6310
   52CHL1    C5 6262   5.151   3.826   9.748 -0.0185 -0.1731  0.2055
   52CHL1    C6 6263   5.236   3.752   9.679 -0.1972  0.0535  0.6516
   52CHL1    H6 6264   5.319   3.704   9.733  1.1080  0.9811 -0.4731
   52CHL1    C7 6265   5.226   3.722   9.531 -0.4714  0.3625  0.5368
   52CHL1   H7A 6266   5.323   3.727   9.477 -1.7073  0.7636 -1.7929
   52CHL1   H7B 6267   5.211   3.612   9.525  0.8811  0.1930 -0.4005
   52CHL1    C8 6268   5.120   3.802   9.458  0.2430  0.9466 -0.3003
   52CHL1    H8 6269   5.166   3.901   9.440  0.4286  1.0244  0.5668
   52CHL1   C14 6270   5.088   3.731   9.325  0.0216 -0.1279 -0.0931
   52CHL1   H14 6271   5.030   3.641   9.355 -0.8544  0.6953  0.7474
   52CHL1   C15 6272   5.203   3.693   9.235 -0.1597  0.3092 -0.4134
   52CHL1  H15A 6273   5.281   3.769   9.214  0.5066 -0.5108 -0.9640
   52CHL1  H15B 6274   5.263   3.614   9.285 -0.2135  1.2571  1.2117
   52CHL1   C16 6275   5.136   3.667   9.096  1.0586  0.5151 -0.2670
   52CHL1  H16A 6276   5.193   3.723   9.018  1.1921 -0.8966 -1.2195
   52CHL1  H16B 6277   5.139   3.556   9.087 -0.1086  0.2351  2.1605
   52CHL1   C17 6278   4.992   3.732   9.115  0.3382  0.0352 -0.1272
   52CHL1   H17 6279   4.926   3.645   9.135  1.5344 -1.2116 -1.3500
   52CHL1   C13 6280   5.000   3.824   9.235  0.2548  0.2806  0.1621
   52CHL1   C18 6281   5.074   3.956   9.198  0.2367  0.2215 -0.5000
   52CHL1  H18A 6282   5.018   4.023   9.129  0.2732 -0.3558 -1.1003
   52CHL1  H18B 6283   5.091   4.015   9.290  0.3790 -2.6668  1.4425
   52CHL1  H18C 6284   5.173   3.938   9.151  1.9628  3.8748  1.3189
   52CHL1   C12 6285   4.868   3.858   9.314  0.4566  0.3214 -0.4381
   52CHL1  H12A 6286   4.794   3.923   9.261 -1.8331 -1.2277  0.6856
   52CHL1  H12B 6287   4.814   3.763   9.331 -3.7630  2.7296  1.1287
   52CHL1   C11 6288   4.891   3.910   9.456 -0.8355  0.0949 -0.2305
   52CHL1  H11A 6289   4.931   4.013   9.446  0.0949 -0.2181  0.1937
   52CHL1  H11B 6290   4.795   3.919   9.512  0.0450  0.6894  1.2375
   52CHL1    C9 6291   4.991   3.816   9.539  0.3019 -0.3722  0.0433
   52CHL1    H9 6292   4.941   3.719   9.555 -0.6737  0.0907 -0.0863
   52CHL1   C10 6293   5.020   3.877   9.679  0.8110  0.4011  0.0760
   52CHL1   C19 6294   5.040   4.030   9.677 -0.3862  0.7255  0.1392
   52CHL1  H19A 6295   5.084   4.077   9.768 -1.2275  2.5623 -0.3701
   52CHL1  H19B 6296   5.102   4.054   9.588 -2.2618 -0.7020 -1.6423
   52CHL1  H19C 6297   4.942   4.075   9.652  0.0078  0.7551 -1.4570
   52CHL1    C1 6298   4.897   3.846   9.766 -0.0395 -0.0496  0.4027
   52CHL1   H1A 6299   4.807   3.893   9.720  0.7574  0.9361 -0.1802
   52CHL1   H1B 6300   4.881   3.736   9.764 -0.1646 -0.0298 -0.9941
   52CHL1    C2 6301   4.910   3.884   9.910  0.2841  0.6594 -0.3307
   52CHL1   H2A 6302   4.819   3.854   9.966 -0.8613 -1.8503 -3.3127
   52CHL1   H2B 6303   4.918   3.995   9.918  2.8282  0.4473  1.4661
   52CHL1   C20 6304   4.936   3.796   8.984 -0.0340 -0.8607  0.2016
   52CHL1   H20 6305   5.007   3.868   8.939  0.4567 -0.7770  1.0887
   52CHL1   C21 6306   4.795   3.862   9.006 -0.0284 -0.3935  0.0302
   52CHL1  H21A 6307   4.811   3.954   9.066  4.2196  0.4374 -2.0092
   52CHL1  H21B 6308   4.740   3.790   9.070 -2.4821 -0.1728 -1.6894
   52CHL1  H21C 6309   4.745   3.899   8.914  0.9654  1.1683  0.0834
   52CHL1   C22 6310   4.914   3.693   8.877  0.6112  0.7070  0.2232
   52CHL1  H22A 6311   4.987   3.611   8.889 -0.1816 -0.1403 -0.5843
   52CHL1  H22B 6312   4.814   3.645   8.881  0.3227  1.3926  1.6726
   52CHL1   C23 6313   4.938   3.743   8.725 -0.5158  0.3532 -0.9398
   52CHL1  H23A 6314   4.847   3.800   8.697  0.2908  2.4514  0.5116
   52CHL1  H23B 6315   5.022   3.813   8.743 -1.6073  0.8817  3.0185
   52CHL1   C24 6316   4.965   3.630   8.628 -0.8053 -0.1390  0.3932
   52CHL1  H24A 6317   5.068   3.590   8.613 -0.8763  0.4827 -2.0700
   52CHL1  H24B 6318   4.895   3.546   8.648  0.3349 -1.1969  0.0622
   52CHL1   C25 6319   4.929   3.672   8.483  1.1659 -0.4154  0.3418
   52CHL1   H25 6320   4.827   3.716   8.487  1.0621 -0.7219  1.3922
   52CHL1   C26 6321   5.035   3.776   8.431  0.3319 -0.2234  0.5204
   52CHL1  H26A 6322   5.141   3.745   8.419  0.3820 -0.2227  0.9464
   52CHL1  H26B 6323   5.005   3.801   8.327  3.0296  0.2593 -0.2243
   52CHL1  H26C 6324   5.035   3.870   8.491 -1.4240 -0.6585  1.2655
   52CHL1   C27 6325   4.908   3.553   8.387  0.3374  0.3726 -0.6683
   52CHL1  H27A 6326   4.877   3.579   8.284 -1.6555  0.4345 -0.1059
   52CHL1  H27B 6327   5.009   3.507   8.387 -0.4544 -1.4912  0.7605
   52CHL1  H27C 6328   4.827   3.494   8.435 -0.8098  2.2984 -0.1109
   53CHL1    C3 6329   2.690   4.066   9.993  0.6723 -0.2656 -0.6469
   53CHL1    H3 6330   2.717   3.958   9.994 -0.4390 -0.5823 -1.8802
   53CHL1    O3 6331   2.667   4.115  10.124 -0.0729  0.2913 -0.5179
   53CHL1   H3' 6332   2.661   4.211  10.120 -2.2330  0.4772  3.0647
   53CHL1    C4 6333   2.787   4.155   9.917  0.7489  0.0464 -0.4408
   53CHL1   H4A 6334   2.760   4.262   9.935  0.6962 -0.0583  0.1410
   53CHL1   H4B 6335   2.888   4.159   9.963  0.1003  2.1456  0.9592
   53CHL1    C5 6336   2.798   4.132   9.767  0.6726 -0.3320 -0.1458
   53CHL1    C6 6337   2.917   4.116   9.702  0.4273 -0.5032 -0.0615
   53CHL1    H6 6338   2.998   4.142   9.772  0.3101  0.1612 -0.1617
   53CHL1    C7 6339   2.943   4.107   9.553 -0.3025 -0.6747  0.4989
   53CHL1   H7A 6340   3.020   4.175   9.511 -0.6106 -1.1103 -0.8145
   53CHL1   H7B 6341   2.976   4.003   9.531 -0.7600 -0.6686 -0.2277
   53CHL1    C8 6342   2.806   4.143   9.479 -0.1331  0.5207  0.2232
   53CHL1    H8 6343   2.785   4.252   9.482 -0.9932  0.3423  1.3225
   53CHL1   C14 6344   2.820   4.112   9.332  0.3250 -0.8154 -1.0783
   53CHL1   H14 6345   2.832   4.003   9.319  1.0069 -1.6178  4.2809
   53CHL1   C15 6346   2.942   4.188   9.266 -0.0380 -0.4878 -0.3037
   53CHL1  H15A 6347   2.935   4.295   9.293  0.0678 -0.3725 -0.7178
   53CHL1  H15B 6348   3.038   4.138   9.288 -0.2888 -2.1398 -2.5757
   53CHL1   C16 6349   2.908   4.161   9.117 -0.6752  0.0652  0.3113
   53CHL1  H16A 6350   2.925   4.254   9.059  1.9075  1.0165  2.3727
   53CHL1  H16B 6351   2.984   4.089   9.079  0.6731  0.6603  1.7619
   53CHL1   C17 6352   2.759   4.112   9.109  0.0817  0.2337 -0.8573
   53CHL1   H17 6353   2.765   4.001   9.107  3.3713  0.3219 -1.3538
   53CHL1   C13 6354   2.697   4.149   9.250 -0.2224  0.6853  0.4337
   53CHL1   C18 6355   2.653   4.299   9.245  0.5379  0.2162 -0.2685
   53CHL1  H18A 6356   2.741   4.360   9.216  1.9404 -0.5540  2.0603
   53CHL1  H18B 6357   2.574   4.304   9.167  0.1867  1.8263  0.1605
   53CHL1  H18C 6358   2.617   4.332   9.345  2.3501 -1.0417  0.8466
   53CHL1   C12 6359   2.584   4.058   9.305  0.9331 -0.0535  0.8316
   53CHL1  H12A 6360   2.488   4.073   9.251 -0.6088 -3.1289  2.3840
   53CHL1  H12B 6361   2.615   3.951   9.305 -1.0967 -0.7203 -1.3996
   53CHL1   C11 6362   2.558   4.092   9.451 -0.5873 -0.7386  0.3231
   53CHL1  H11A 6363   2.517   4.195   9.451  1.0899 -0.0072 -1.5478
   53CHL1  H11B 6364   2.472   4.037   9.496 -0.6939 -0.0229  1.0308
   53CHL1    C9 6365   2.685   4.085   9.548  0.5651 -0.0275  0.9463
   53CHL1    H9 6366   2.707   3.977   9.562  0.0378 -0.2296  0.2600
   53CHL1   C10 6367   2.661   4.132   9.696 -0.7474 -0.7394  0.6111
   53CHL1   C19 6368   2.589   4.275   9.686 -0.5353  0.0208  0.4480
   53CHL1  H19A 6369   2.485   4.274   9.647 -0.7416  1.0472  0.9584
   53CHL1  H19B 6370   2.593   4.326   9.784 -0.2213  0.1550  0.3672
   53CHL1  H19C 6371   2.645   4.341   9.616 -0.7515  0.9266  1.1245
   53CHL1    C1 6372   2.558   4.043   9.773 -0.1170  0.0833 -0.7273
   53CHL1   H1A 6373   2.453   4.061   9.739 -0.0468 -0.9427 -1.5592
   53CHL1   H1B 6374   2.581   3.937   9.749 -1.5004 -1.0133  2.2217
   53CHL1    C2 6375   2.552   4.069   9.930 -0.4612 -0.8063 -0.1009
   53CHL1   H2A 6376   2.480   3.996   9.972 -2.4731  0.9393 -0.3214
   53CHL1   H2B 6377   2.513   4.173   9.933  1.9189  0.2129 -1.7786
   53CHL1   C20 6378   2.687   4.160   8.987  0.6792  0.6576  0.9670
   53CHL1   H20 6379   2.667   4.269   8.994  0.5430  0.5885  1.7528
   53CHL1   C21 6380   2.542   4.107   8.986 -0.3735  0.4384  0.1699
   53CHL1  H21A 6381   2.480   4.148   9.069  1.5779  1.8566  1.0188
   53CHL1  H21B 6382   2.544   3.997   8.999  0.4762  0.2753 -1.1804
   53CHL1  H21C 6383   2.500   4.138   8.888  2.6398  0.0290 -1.3492
   53CHL1   C22 6384   2.764   4.134   8.854  0.3751 -0.5346 -0.4354
   53CHL1  H22A 6385   2.700   4.160   8.767 -1.7649 -0.8106  0.9687
   53CHL1  H22B 6386   2.855   4.197   8.844  0.6346 -0.8482 -0.0954
   53CHL1   C23 6387   2.804   3.982   8.826  0.5394  0.6900 -0.4973
   53CHL1  H23A 6388   2.893   3.962   8.889 -0.1440 -0.9181  0.0017
   53CHL1  H23B 6389   2.718   3.920   8.859  2.3352 -0.7210  1.8534
   53CHL1   C24 6390   2.834   3.962   8.673  0.2673 -0.3789 -0.7077
   53CHL1  H24A 6391   2.920   4.026   8.646 -1.3332  1.7616 -0.9404
   53CHL1  H24B 6392   2.852   3.852   8.672  3.0693 -0.0262  0.7150
   53CHL1   C25 6393   2.725   3.980   8.563 -0.0304  0.1467  0.5019
   53CHL1   H25 6394   2.699   4.087   8.553  0.1895  0.3074  1.5142
   53CHL1   C26 6395   2.775   3.940   8.422  0.1323 -0.4718  0.0292
   53CHL1  H26A 6396   2.695   3.956   8.346 -1.0533 -1.7707  0.9570
   53CHL1  H26B 6397   2.856   4.008   8.389 -0.0474 -0.4378 -0.3493
   53CHL1  H26C 6398   2.823   3.840   8.418  2.5469  0.6188  0.3535
   53CHL1   C27 6399   2.594   3.904   8.605 -0.0247 -0.4244  0.0219
   53CHL1  H27A 6400   2.622   3.800   8.632  2.3661  0.1130 -0.1232
   53CHL1  H27B 6401   2.548   3.954   8.692  0.9988 -1.7151  1.3455
   53CHL1  H27C 6402   2.533   3.914   8.513  2.6575  2.1439 -1.6720
   54CHL1    C3 6403   3.482   5.412  10.080 -0.3072 -0.3866  0.4239
   54CHL1    H3 6404   3.478   5.520  10.057 -1.9621 -0.8064 -1.5823
   54CHL1    O3 6405   3.478   5.380  10.217 -0.3407 -0.3528  0.0049
   54CHL1   H3' 6406   3.525   5.296  10.224  0.0293 -0.0260  2.1437
   54CHL1    C4 6407   3.343   5.361  10.034 -0.0865  0.0379 -0.5541
   54CHL1   H4A 6408   3.314   5.259  10.066 -1.8262  0.3335 -1.0414
   54CHL1   H4B 6409   3.270   5.418  10.096  1.5292 -1.6751  3.2083
   54CHL1    C5 6410   3.327   5.391   9.884 -0.5910 -0.0698 -0.6258
   54CHL1    C6 6411   3.235   5.472   9.834 -0.1877 -0.6748 -0.4441
   54CHL1    H6 6412   3.154   5.517   9.892 -1.2851 -1.8285 -1.0226
   54CHL1    C7 6413   3.229   5.512   9.692 -0.2780  0.4078 -0.6109
   54CHL1   H7A 6414   3.122   5.507   9.662 -0.4506 -0.5984  0.1081
   54CHL1   H7B 6415   3.267   5.612   9.663 -0.4419  0.2267 -1.4830
   54CHL1    C8 6416   3.298   5.412   9.594  0.0915 -0.9646  0.0006
   54CHL1    H8 6417   3.234   5.322   9.584  0.3643 -0.9612 -2.1105
   54CHL1   C14 6418   3.308   5.474   9.456 -0.1440 -0.8515  0.2831
   54CHL1   H14 6419   3.355   5.573   9.472 -2.6437  0.0685  2.6650
   54CHL1   C15 6420   3.187   5.517   9.366  0.0691 -0.5130 -0.0429
   54CHL1  H15A 6421   3.104   5.443   9.373 -2.8417  2.2898 -2.1183
   54CHL1  H15B 6422   3.150   5.619   9.391 -0.8016 -0.4060 -1.6416
   54CHL1   C16 6423   3.230   5.515   9.225 -0.5554  0.4661 -0.3293
   54CHL1  H16A 6424   3.161   5.443   9.175 -0.8149  1.0149 -0.7636
   54CHL1  H16B 6425   3.234   5.612   9.171  3.5966  0.4783 -0.3371
   54CHL1   C17 6426   3.374   5.469   9.219  0.6458  0.8217  0.2051
   54CHL1   H17 6427   3.430   5.563   9.236 -0.7545  1.7899 -0.3305
   54CHL1   C13 6428   3.387   5.389   9.353 -0.8188  0.7520 -0.4036
   54CHL1   C18 6429   3.313   5.250   9.333  0.0511 -0.6659  0.0186
   54CHL1  H18A 6430   3.215   5.275   9.287 -0.2336  1.8093  1.7498
   54CHL1  H18B 6431   3.369   5.196   9.253 -2.1344  0.4761 -2.4337
   54CHL1  H18C 6432   3.303   5.210   9.436  0.8223  0.5867  0.6099
   54CHL1   C12 6433   3.532   5.370   9.412 -0.2716  0.8198  0.4769
   54CHL1  H12A 6434   3.591   5.315   9.336 -1.4946 -0.0936  0.1701
   54CHL1  H12B 6435   3.578   5.472   9.407  1.3634  0.0585 -1.7416
   54CHL1   C11 6436   3.534   5.315   9.550 -0.5716  0.0211 -0.3277
   54CHL1  H11A 6437   3.512   5.207   9.535  1.3521 -0.4194 -0.1812
   54CHL1  H11B 6438   3.638   5.307   9.587 -0.8468  1.0209  0.6982
   54CHL1    C9 6439   3.435   5.389   9.647 -0.0066  0.2980  0.0909
   54CHL1    H9 6440   3.485   5.489   9.653 -1.5531  1.0272  2.1202
   54CHL1   C10 6441   3.442   5.338   9.795 -0.4728  0.1376 -0.4099
   54CHL1   C19 6442   3.416   5.187   9.785  0.1275  0.3421 -0.1708
   54CHL1  H19A 6443   3.326   5.158   9.726  0.9112 -1.9626 -0.3344
   54CHL1  H19B 6444   3.500   5.141   9.729 -0.3995  0.1730 -0.8348
   54CHL1  H19C 6445   3.424   5.140   9.885  3.8861  1.1730  0.0606
   54CHL1    C1 6446   3.587   5.356   9.856 -0.1668 -0.3755  0.1128
   54CHL1   H1A 6447   3.657   5.290   9.801  0.4120 -2.1886  2.8344
   54CHL1   H1B 6448   3.614   5.462   9.836 -1.7484 -0.1729 -1.1735
   54CHL1    C2 6449   3.595   5.331  10.010  0.3831  0.0837  0.3985
   54CHL1   H2A 6450   3.700   5.349  10.040 -0.0215 -1.4211  3.0580
   54CHL1   H2B 6451   3.585   5.224  10.038  1.7652 -0.2653 -0.3259
   54CHL1   C20 6452   3.428   5.406   9.089  0.4605 -0.1234 -0.2838
   54CHL1   H20 6453   3.489   5.316   9.115  0.0650 -0.2447  0.2278
   54CHL1   C21 6454   3.524   5.505   9.020 -0.7264  0.3601  0.1886
   54CHL1  H21A 6455   3.574   5.459   8.932  0.4711 -0.5537  1.2959
   54CHL1  H21B 6456   3.600   5.532   9.096 -2.9396 -0.3074  2.7773
   54CHL1  H21C 6457   3.465   5.596   8.994 -2.3386 -0.9172 -0.7552
   54CHL1   C22 6458   3.315   5.345   8.999 -0.1218  0.4653  0.4259
   54CHL1  H22A 6459   3.263   5.264   9.054  0.6800  0.0963  0.6676
   54CHL1  H22B 6460   3.249   5.430   8.973 -2.0952 -0.6407  1.6334
   54CHL1   C23 6461   3.364   5.291   8.865 -0.1777  0.1862  0.1464
   54CHL1  H23A 6462   3.419   5.369   8.809 -0.6859 -0.5020 -1.3782
   54CHL1  H23B 6463   3.431   5.205   8.886 -0.7696 -0.4533 -0.5190
   54CHL1   C24 6464   3.246   5.243   8.773 -0.4419 -0.4870 -0.4334
   54CHL1  H24A 6465   3.221   5.142   8.812  1.5469 -0.6718  0.4790
   54CHL1  H24B 6466   3.160   5.313   8.780 -2.3919 -2.9516  2.6297
   54CHL1   C25 6467   3.286   5.232   8.626 -0.3210  0.1333 -0.5790
   54CHL1   H25 6468   3.219   5.153   8.584 -0.4799 -0.4795  0.7651
   54CHL1   C26 6469   3.275   5.358   8.539 -0.4473 -0.0056 -0.0800
   54CHL1  H26A 6470   3.345   5.436   8.576  0.2337 -0.7598  0.2384
   54CHL1  H26B 6471   3.291   5.338   8.431 -1.7240 -0.2823 -0.2240
   54CHL1  H26C 6472   3.173   5.399   8.546 -0.8924 -1.0451 -0.3042
   54CHL1   C27 6473   3.431   5.181   8.603 -0.2659 -0.2940 -0.2295
   54CHL1  H27A 6474   3.437   5.134   8.503  1.2502  0.4142 -0.4969
   54CHL1  H27B 6475   3.503   5.264   8.586 -2.6098  1.9214 -0.0250
   54CHL1  H27C 6476   3.459   5.114   8.687  0.1269 -1.1840 -1.0630
   55CHL1    C3 6477   0.461   4.050   9.980  0.2223  0.6581 -0.1114
   55CHL1    H3 6478   0.368   4.077   9.925  0.1354 -1.6545 -1.1911
   55CHL1    O3 6479   0.441   4.038  10.120  0.2693  0.0682  0.4804
   55CHL1   H3' 6480   0.526   4.065  10.155 -0.0008  0.4754  0.8316
   55CHL1    C4 6481   0.506   3.916   9.918  0.7780  0.3214  0.0148
   55CHL1   H4A 6482   0.608   3.885   9.950  0.2718 -1.4881 -0.0215
   55CHL1   H4B 6483   0.430   3.840   9.947 -1.5400  2.3136 -0.5001
   55CHL1    C5 6484   0.521   3.938   9.761  0.7587 -0.2000 -1.1711
   55CHL1    C6 6485   0.452   3.864   9.675  0.4492 -0.2809  0.0909
   55CHL1    H6 6486   0.383   3.790   9.720  0.7468  0.3926  1.7172
   55CHL1    C7 6487   0.449   3.883   9.525  0.0926  0.2130 -0.1875
   55CHL1   H7A 6488   0.460   3.788   9.469 -0.9400  1.0969 -1.9930
   55CHL1   H7B 6489   0.348   3.916   9.493  0.4110 -0.2175 -1.7008
   55CHL1    C8 6490   0.559   3.973   9.477  0.8045 -0.6581 -0.1291
   55CHL1    H8 6491   0.651   3.911   9.475  0.3914 -1.2767 -0.2968
   55CHL1   C14 6492   0.530   4.016   9.334  0.6010 -0.2713  0.1088
   55CHL1   H14 6493   0.438   4.077   9.335  1.7184  1.6264 -2.2880
   55CHL1   C15 6494   0.499   3.909   9.234 -0.3804  0.1929  0.1638
   55CHL1  H15A 6495   0.577   3.830   9.238 -1.4583 -0.9175  0.0551
   55CHL1  H15B 6496   0.399   3.860   9.229 -0.4708  0.4657 -2.1981
   55CHL1   C16 6497   0.515   3.972   9.100  0.2078 -0.4384  0.0701
   55CHL1  H16A 6498   0.595   3.917   9.045  0.2789  1.9228 -2.3777
   55CHL1  H16B 6499   0.428   3.982   9.033 -0.3513 -1.9537  0.5101
   55CHL1   C17 6500   0.580   4.111   9.126  0.4382  0.1145  0.7676
   55CHL1   H17 6501   0.497   4.184   9.116  0.7305  0.3613  0.1351
   55CHL1   C13 6502   0.633   4.107   9.274 -0.0297 -0.2607  0.2405
   55CHL1   C18 6503   0.775   4.033   9.278 -0.3426 -0.1824 -0.1667
   55CHL1  H18A 6504   0.850   4.101   9.233 -0.9837  1.1972  0.7672
   55CHL1  H18B 6505   0.806   4.010   9.382 -1.2525 -1.7426 -0.1954
   55CHL1  H18C 6506   0.766   3.935   9.227 -2.6825  0.8742 -2.0014
   55CHL1   C12 6507   0.632   4.238   9.352  0.3801  0.4821  0.3374
   55CHL1  H12A 6508   0.701   4.317   9.315 -0.0699  0.6693 -0.1189
   55CHL1  H12B 6509   0.528   4.279   9.351 -0.2926 -1.1454  0.4118
   55CHL1   C11 6510   0.656   4.214   9.506  0.2311  0.1928 -0.1333
   55CHL1  H11A 6511   0.765   4.193   9.515  0.2330  0.6690  1.1579
   55CHL1  H11B 6512   0.621   4.305   9.558 -2.7874 -1.2271  0.5054
   55CHL1    C9 6513   0.571   4.096   9.571 -0.3565  0.7101  0.5685
   55CHL1    H9 6514   0.470   4.141   9.554 -1.4762 -1.4432  1.1345
   55CHL1   C10 6515   0.601   4.058   9.715  0.2870 -0.6584 -0.4074
   55CHL1   C19 6516   0.753   4.022   9.722  0.2064  0.0613  0.3903
   55CHL1  H19A 6517   0.768   3.931   9.661  2.3935  0.3336  0.4537
   55CHL1  H19B 6518   0.812   4.107   9.681  0.1304  0.0344  0.2258
   55CHL1  H19C 6519   0.785   3.998   9.826  0.2255 -2.6046 -0.1649
   55CHL1    C1 6520   0.570   4.180   9.809  0.3856 -0.4201  0.8914
   55CHL1   H1A 6521   0.643   4.262   9.791  0.0645 -0.0196  1.3733
   55CHL1   H1B 6522   0.473   4.220   9.771 -0.0894 -2.8022 -0.5915
   55CHL1    C2 6523   0.562   4.160   9.956  0.5843  0.0134  0.8906
   55CHL1   H2A 6524   0.529   4.250  10.011  0.6597  0.8218 -0.3491
   55CHL1   H2B 6525   0.660   4.138  10.004  0.5267  0.0985  1.0458
   55CHL1   C20 6526   0.679   4.149   9.010 -0.4561  0.8042  0.3177
   55CHL1   H20 6527   0.774   4.093   9.019 -0.1758  1.2844  0.3806
   55CHL1   C21 6528   0.721   4.298   9.020 -0.5093 -0.0176  0.0725
   55CHL1  H21A 6529   0.778   4.317   9.113  1.6753 -2.8549 -0.5465
   55CHL1  H21B 6530   0.636   4.370   9.015 -1.7614 -1.4972 -1.1553
   55CHL1  H21C 6531   0.786   4.330   8.936  2.1175 -0.6762  1.7463
   55CHL1   C22 6532   0.636   4.121   8.858  0.0810 -0.6307 -0.2779
   55CHL1  H22A 6533   0.728   4.155   8.805 -0.2960  0.3870 -0.3050
   55CHL1  H22B 6534   0.625   4.012   8.841 -0.8179 -0.7843  1.1513
   55CHL1   C23 6535   0.505   4.197   8.818 -0.2090  0.0734  0.0823
   55CHL1  H23A 6536   0.418   4.158   8.874  0.0552  0.1955  0.5834
   55CHL1  H23B 6537   0.510   4.301   8.855 -0.6484  0.0535  0.2019
   55CHL1   C24 6538   0.471   4.174   8.673 -0.1814  0.2247  1.5697
   55CHL1  H24A 6539   0.565   4.199   8.619 -0.9435 -1.4701 -0.6787
   55CHL1  H24B 6540   0.445   4.068   8.655  2.0278 -0.1959  0.5138
   55CHL1   C25 6541   0.358   4.258   8.617 -0.0388 -0.0967  0.6257
   55CHL1   H25 6542   0.256   4.254   8.662 -0.2667  1.2017  0.2622
   55CHL1   C26 6543   0.396   4.404   8.611  0.1976  0.4095  0.1594
   55CHL1  H26A 6544   0.422   4.447   8.710  2.2822 -1.1921  0.3746
   55CHL1  H26B 6545   0.492   4.416   8.557  0.1819 -0.4919 -0.0755
   55CHL1  H26C 6546   0.323   4.469   8.558 -2.2539 -1.2796  1.2586
   55CHL1   C27 6547   0.335   4.208   8.466  0.1985 -0.2749  0.5987
   55CHL1  H27A 6548   0.298   4.103   8.464 -1.7543  0.3777 -0.1339
   55CHL1  H27B 6549   0.258   4.263   8.408  1.3964 -0.2069 -0.9764
   55CHL1  H27C 6550   0.434   4.211   8.417 -0.4937 -0.0421 -0.8225
   56CHL1    C3 6551   2.720   1.627  10.130  0.4062 -0.2681  0.8915
   56CHL1    H3 6552   2.639   1.697  10.161  2.2920  1.6434  1.7517
   56CHL1    O3 6553   2.785   1.581  10.249  0.1166  0.1717 -0.3202
   56CHL1   H3' 6554   2.837   1.653  10.287  3.0860 -1.4767 -0.9272
   56CHL1    C4 6555   2.660   1.506  10.052  0.3091  0.3783  0.4051
   56CHL1   H4A 6556   2.740   1.433  10.029  1.6080  2.1016 -0.7473
   56CHL1   H4B 6557   2.583   1.459  10.117 -0.1738  1.1018  0.3691
   56CHL1    C5 6558   2.601   1.537   9.916 -0.1513  0.0930 -0.0118
   56CHL1    C6 6559   2.480   1.485   9.888  0.1653 -0.3204  0.0491
   56CHL1    H6 6560   2.436   1.409   9.955 -1.1904 -0.5444 -1.0456
   56CHL1    C7 6561   2.407   1.510   9.758 -0.2651  0.0960 -0.0457
   56CHL1   H7A 6562   2.356   1.418   9.723  0.5794 -0.6699  0.6746
   56CHL1   H7B 6563   2.332   1.588   9.784  1.0554  1.9552 -1.5716
   56CHL1    C8 6564   2.500   1.571   9.653  0.2765  0.1442  0.3258
   56CHL1    H8 6565   2.567   1.494   9.607  1.3058  1.2225 -0.0397
   56CHL1   C14 6566   2.415   1.632   9.539 -0.4177 -0.0092  0.1832
   56CHL1   H14 6567   2.374   1.719   9.595  0.6926  0.6517  0.0096
   56CHL1   C15 6568   2.308   1.538   9.485  0.2478  0.1951  0.0872
   56CHL1  H15A 6569   2.344   1.432   9.486  0.6453  0.3276  0.4081
   56CHL1  H15B 6570   2.216   1.533   9.547 -0.7197  0.9893 -1.2498
   56CHL1   C16 6571   2.280   1.590   9.348  0.6467  0.5361 -0.5317
   56CHL1  H16A 6572   2.283   1.522   9.259 -1.5759  0.1719 -0.3818
   56CHL1  H16B 6573   2.175   1.626   9.354 -0.1340 -1.0710 -2.9096
   56CHL1   C17 6574   2.368   1.714   9.331  0.0474  0.3577 -0.7188
   56CHL1   H17 6575   2.322   1.805   9.376 -0.3460 -0.2418  0.1252
   56CHL1   C13 6576   2.487   1.685   9.424 -1.1709  0.7148 -0.9031
   56CHL1   C18 6577   2.573   1.578   9.359  0.2299 -0.2515  0.3733
   56CHL1  H18A 6578   2.630   1.615   9.271  0.2221 -1.4401 -0.1489
   56CHL1  H18B 6579   2.656   1.551   9.428  1.3557  0.7521 -0.5350
   56CHL1  H18C 6580   2.520   1.486   9.325 -1.0418 -0.1236  1.8904
   56CHL1   C12 6581   2.582   1.799   9.477  0.1287  0.5069 -0.0442
   56CHL1  H12A 6582   2.636   1.845   9.391 -0.1066  2.2220  0.6840
   56CHL1  H12B 6583   2.506   1.873   9.512 -0.8256 -1.4218  2.2114
   56CHL1   C11 6584   2.671   1.755   9.597  0.7749 -0.0838  0.4688
   56CHL1  H11A 6585   2.734   1.680   9.543 -0.4735  0.3508 -1.7380
   56CHL1  H11B 6586   2.725   1.847   9.627  0.7643  1.0387 -2.5868
   56CHL1    C9 6587   2.597   1.681   9.703  0.6203 -0.4527 -0.1670
   56CHL1    H9 6588   2.525   1.757   9.741  1.4223  0.3359 -0.1849
   56CHL1   C10 6589   2.682   1.635   9.828 -0.1106 -0.4094  0.6945
   56CHL1   C19 6590   2.809   1.567   9.764 -0.4794 -0.2512 -0.3694
   56CHL1  H19A 6591   2.860   1.523   9.853 -0.7129  0.0326 -0.0914
   56CHL1  H19B 6592   2.778   1.488   9.692  0.8532 -2.1105  0.9781
   56CHL1  H19C 6593   2.873   1.644   9.718  2.0101 -1.8005  0.2864
   56CHL1    C1 6594   2.733   1.758   9.911  0.5079  0.5494 -0.0227
   56CHL1   H1A 6595   2.809   1.810   9.849  0.8393 -0.3480 -0.3930
   56CHL1   H1B 6596   2.646   1.825   9.927 -0.0528  0.5700 -2.7124
   56CHL1    C2 6597   2.804   1.717  10.043  0.0118  0.2069 -0.1451
   56CHL1   H2A 6598   2.817   1.809  10.105 -2.5746  0.2023  0.5187
   56CHL1   H2B 6599   2.906   1.679  10.023 -0.1715 -0.2791 -0.1659
   56CHL1   C20 6600   2.390   1.737   9.178  0.5647  0.3896 -0.2640
   56CHL1   H20 6601   2.453   1.658   9.132  0.8820  0.7643 -0.4776
   56CHL1   C21 6602   2.438   1.883   9.169 -0.0092  0.5616 -0.1736
   56CHL1  H21A 6603   2.539   1.892   9.214 -0.4956 -0.8589  1.3489
   56CHL1  H21B 6604   2.372   1.949   9.230 -2.5389 -0.4587 -1.6262
   56CHL1  H21C 6605   2.441   1.933   9.070 -1.0829  2.6002  0.7522
   56CHL1   C22 6606   2.257   1.739   9.093 -0.8216 -0.0517  0.0648
   56CHL1  H22A 6607   2.199   1.645   9.109  2.4099 -2.0853  1.0344
   56CHL1  H22B 6608   2.198   1.826   9.128 -0.5037  0.5890 -0.9605
   56CHL1   C23 6609   2.283   1.745   8.943  0.0148 -0.3920  0.2960
   56CHL1  H23A 6610   2.323   1.845   8.916  0.4957 -0.2755  1.4008
   56CHL1  H23B 6611   2.359   1.667   8.921  1.4453  1.0759 -0.1697
   56CHL1   C24 6612   2.156   1.731   8.852 -0.6993 -0.4585 -0.5307
   56CHL1  H24A 6613   2.097   1.645   8.890  1.0803 -2.0445 -1.2114
   56CHL1  H24B 6614   2.087   1.818   8.857 -0.6756 -0.4097 -0.9971
   56CHL1   C25 6615   2.184   1.691   8.702  0.6764  0.3809  0.4750
   56CHL1   H25 6616   2.208   1.583   8.692 -3.6730 -0.7829  0.4670
   56CHL1   C26 6617   2.057   1.699   8.623  0.5336  0.0129  0.0369
   56CHL1  H26A 6618   1.987   1.623   8.663 -1.0567  1.4500  0.0707
   56CHL1  H26B 6619   2.028   1.806   8.632 -0.7697 -0.3232 -0.0249
   56CHL1  H26C 6620   2.087   1.678   8.518 -0.1754 -0.1863 -0.1294
   56CHL1   C27 6621   2.295   1.772   8.635  0.7378  0.4021  0.0482
   56CHL1  H27A 6622   2.394   1.748   8.678  0.2823 -1.4276  0.1434
   56CHL1  H27B 6623   2.296   1.746   8.527 -1.7354  0.1962  0.0272
   56CHL1  H27C 6624   2.284   1.882   8.649  1.6101  0.4588  0.3468
   57CHL1    C3 6625   0.066   3.420  10.224 -0.0533 -0.1074 -0.7407
   57CHL1    H3 6626   0.020   3.324  10.192 -0.4004 -0.5108  0.9203
   57CHL1    O3 6627   0.048   3.450  10.362 -0.5454  0.0091  0.1279
   57CHL1   H3' 6628  -0.026   3.399  10.397 -0.8680  1.0800  1.0621
   57CHL1    C4 6629   0.226   3.420  10.200  0.4884 -0.4556  0.8030
   57CHL1   H4A 6630   0.265   3.522  10.216  1.8267 -0.2986 -2.5973
   57CHL1   H4B 6631   0.268   3.348  10.274 -0.7009 -0.5478  1.4099
   57CHL1    C5 6632   0.244   3.379  10.053 -0.0442  0.0639 -0.2729
   57CHL1    C6 6633   0.315   3.266  10.017 -0.5202  0.1533 -0.1128
   57CHL1    H6 6634   0.352   3.203  10.100 -0.6622 -0.6422 -0.6436
   57CHL1    C7 6635   0.336   3.218   9.877 -0.1116  0.3761 -0.7138
   57CHL1   H7A 6636   0.445   3.200   9.867 -0.1343 -0.5496  0.4665
   57CHL1   H7B 6637   0.282   3.124   9.851 -2.2345  1.5945 -0.8786
   57CHL1    C8 6638   0.300   3.328   9.770  0.0849 -0.4323 -0.7732
   57CHL1    H8 6639   0.377   3.408   9.770  1.5899 -1.7685  1.7342
   57CHL1   C14 6640   0.286   3.268   9.637  0.2511  0.5203 -0.0313
   57CHL1   H14 6641   0.199   3.199   9.633  2.3597 -2.5167  1.9356
   57CHL1   C15 6642   0.396   3.178   9.592 -0.5874 -0.2381 -0.8360
   57CHL1  H15A 6643   0.488   3.237   9.616 -2.0756  2.3690 -1.1306
   57CHL1  H15B 6644   0.395   3.077   9.638 -1.7091 -0.3388 -1.0443
   57CHL1   C16 6645   0.376   3.175   9.441  0.0214  0.4911  0.1375
   57CHL1  H16A 6646   0.473   3.211   9.400  0.0378  0.4960  0.1809
   57CHL1  H16B 6647   0.360   3.068   9.416 -0.0629  0.4841  0.2230
   57CHL1   C17 6648   0.263   3.279   9.399  0.3812 -0.5936  0.5348
   57CHL1   H17 6649   0.165   3.228   9.392  0.5346 -0.7192 -1.2268
   57CHL1   C13 6650   0.247   3.374   9.524 -0.4672 -0.0913 -0.0900
   57CHL1   C18 6651   0.360   3.482   9.506  0.4883  0.8814  0.3970
   57CHL1  H18A 6652   0.326   3.553   9.428 -2.0394 -0.3104  0.3169
   57CHL1  H18B 6653   0.386   3.538   9.599  4.7637 -3.9193  2.5971
   57CHL1  H18C 6654   0.450   3.434   9.461 -0.5275  0.4592 -1.2515
   57CHL1   C12 6655   0.106   3.434   9.556  0.0961 -0.2430 -0.3013
   57CHL1  H12A 6656   0.092   3.513   9.479 -2.8218  1.5237  1.8235
   57CHL1  H12B 6657   0.029   3.356   9.536 -1.8343  2.0313 -2.5188
   57CHL1   C11 6658   0.103   3.495   9.693 -0.6261 -0.6213 -0.3456
   57CHL1  H11A 6659   0.150   3.595   9.696 -1.0888 -0.4271  0.8950
   57CHL1  H11B 6660  -0.006   3.514   9.709 -0.7658 -0.4216 -1.4119
   57CHL1    C9 6661   0.162   3.398   9.804 -0.2374  0.3075 -0.4169
   57CHL1    H9 6662   0.094   3.310   9.814 -0.7489  0.7376 -0.0426
   57CHL1   C10 6663   0.165   3.460   9.950 -0.5518  0.0999 -0.0980
   57CHL1   C19 6664   0.230   3.599   9.945  0.0812 -0.0717  0.2261
   57CHL1  H19A 6665   0.324   3.600   9.885  1.7856  1.1739  2.7385
   57CHL1  H19B 6666   0.159   3.668   9.895 -0.8121 -1.8524 -1.0778
   57CHL1  H19C 6667   0.246   3.645  10.045 -0.6949  1.2810 -0.2392
   57CHL1    C1 6668   0.018   3.484   9.991  0.4219  0.8753 -0.5830
   57CHL1   H1A 6669  -0.027   3.562   9.926 -1.8298 -0.3387 -0.5503
   57CHL1   H1B 6670  -0.032   3.392   9.957  0.9191  0.3288  0.1224
   57CHL1    C2 6671  -0.003   3.527  10.135  0.5651  0.2094  0.0012
   57CHL1   H2A 6672  -0.109   3.533  10.170 -0.3004  0.3970 -2.4758
   57CHL1   H2B 6673   0.042   3.626  10.155 -2.3746  1.5248  0.6203
   57CHL1   C20 6674   0.291   3.344   9.262 -0.8652  0.0680 -1.0463
   57CHL1   H20 6675   0.379   3.412   9.266 -1.3704  0.6989 -0.5002
   57CHL1   C21 6676   0.169   3.430   9.220  0.4445  0.3024 -0.1248
   57CHL1  H21A 6677   0.175   3.477   9.120  1.8352  1.7459  0.6027
   57CHL1  H21B 6678   0.159   3.518   9.286 -1.2398 -1.8815  2.8114
   57CHL1  H21C 6679   0.078   3.365   9.217  1.4314 -1.3175  1.9788
   57CHL1   C22 6680   0.331   3.238   9.152  0.2953 -0.5401 -0.0030
   57CHL1  H22A 6681   0.375   3.146   9.195 -1.1760 -2.8632 -2.9852
   57CHL1  H22B 6682   0.243   3.197   9.097  0.8707 -1.0362 -0.5787
   57CHL1   C23 6683   0.444   3.289   9.053  0.4364 -0.6702  0.0657
   57CHL1  H23A 6684   0.417   3.392   9.021  0.0783 -1.0247 -0.7944
   57CHL1  H23B 6685   0.543   3.283   9.101  0.3033  0.1741  0.4685
   57CHL1   C24 6686   0.436   3.198   8.931  0.1725  0.1688  0.1052
   57CHL1  H24A 6687   0.454   3.091   8.955 -2.6575 -0.7098 -1.2858
   57CHL1  H24B 6688   0.337   3.213   8.883 -1.6448 -0.4554  3.3652
   57CHL1   C25 6689   0.543   3.226   8.821  0.1403 -0.1020  0.2587
   57CHL1   H25 6690   0.642   3.211   8.870  0.1948 -0.1985  0.1176
   57CHL1   C26 6691   0.524   3.132   8.696 -0.3339 -0.3614  0.4941
   57CHL1  H26A 6692   0.576   3.162   8.603  0.0720 -1.2598  0.4147
   57CHL1  H26B 6693   0.559   3.028   8.716 -2.6779 -1.0516  1.3234
   57CHL1  H26C 6694   0.414   3.131   8.682 -0.3409  0.2208  0.4811
   57CHL1   C27 6695   0.534   3.372   8.770 -0.0101  0.0686  0.3455
   57CHL1  H27A 6696   0.425   3.391   8.758 -0.0131  0.4457  0.9472
   57CHL1  H27B 6697   0.584   3.452   8.828  2.6750 -0.3323 -1.2211
   57CHL1  H27C 6698   0.580   3.375   8.668 -0.4189  2.8173  0.1853
   58CHL1    C3 6699   1.716   1.367   9.895 -0.3840 -0.0443  0.3744
   58CHL1    H3 6700   1.615   1.404   9.869 -1.4006 -0.8544  2.8477
   58CHL1    O3 6701   1.722   1.365  10.034 -0.5145  0.3003  0.1960
   58CHL1   H3' 6702   1.789   1.303  10.062 -0.9050 -0.9506 -1.5399
   58CHL1    C4 6703   1.735   1.223   9.839 -0.5213  0.0305  0.4415
   58CHL1   H4A 6704   1.833   1.186   9.877 -0.1648  0.2875 -0.2147
   58CHL1   H4B 6705   1.647   1.171   9.881 -1.4222  1.9776  1.0950
   58CHL1    C5 6706   1.743   1.240   9.693  0.5134  0.6384 -0.0046
   58CHL1    C6 6707   1.668   1.155   9.624  0.4202 -0.8865 -0.2411
   58CHL1    H6 6708   1.620   1.076   9.683  1.7711 -2.2067 -0.8436
   58CHL1    C7 6709   1.656   1.149   9.474 -0.3493 -0.0714 -0.0512
   58CHL1   H7A 6710   1.638   1.044   9.443 -0.1768 -0.2449  0.4157
   58CHL1   H7B 6711   1.573   1.215   9.443 -0.0136  2.0317  3.0898
   58CHL1    C8 6712   1.785   1.207   9.415 -1.0458  0.7086  0.1162
   58CHL1    H8 6713   1.865   1.133   9.437 -1.0674  0.9536  1.0352
   58CHL1   C14 6714   1.780   1.215   9.259 -0.3307  0.2286  0.6615
   58CHL1   H14 6715   1.708   1.295   9.230 -0.5882  0.2174  1.2651
   58CHL1   C15 6716   1.734   1.089   9.183 -0.1791 -0.0435 -0.1492
   58CHL1  H15A 6717   1.777   0.996   9.225  0.2891 -0.3654 -1.2969
   58CHL1  H15B 6718   1.624   1.074   9.176  0.0826 -1.4604 -1.8502
   58CHL1   C16 6719   1.791   1.110   9.037  0.3275 -0.1231 -0.0645
   58CHL1  H16A 6720   1.841   1.019   8.998  2.0529  0.3261  0.9784
   58CHL1  H16B 6721   1.712   1.133   8.962  0.2969  0.8210  0.2442
   58CHL1   C17 6722   1.884   1.234   9.047  0.2932 -0.6113 -0.0646
   58CHL1   H17 6723   1.813   1.309   9.005 -0.0411 -0.1114  1.3438
   58CHL1   C13 6724   1.913   1.260   9.200  0.3110 -0.1576  0.3796
   58CHL1   C18 6725   2.034   1.175   9.250 -0.4278  0.4356 -0.6392
   58CHL1  H18A 6726   2.044   1.169   9.360 -0.1983  1.2649 -0.6138
   58CHL1  H18B 6727   2.025   1.073   9.205  1.9801  0.0601 -0.4007
   58CHL1  H18C 6728   2.125   1.221   9.207 -0.9689  2.7594  0.5736
   58CHL1   C12 6729   1.928   1.405   9.249 -0.1831  0.2233 -0.7724
   58CHL1  H12A 6730   2.024   1.448   9.215 -0.7555  0.8863 -1.6112
   58CHL1  H12B 6731   1.839   1.463   9.215 -2.3002 -0.1585  3.5098
   58CHL1   C11 6732   1.931   1.424   9.407  0.4240  0.1170 -0.9748
   58CHL1  H11A 6733   2.036   1.392   9.423  0.5431 -0.0198 -1.9459
   58CHL1  H11B 6734   1.924   1.529   9.444  0.6943 -0.5511  1.0913
   58CHL1    C9 6735   1.814   1.346   9.478 -0.2556 -0.8311  0.0111
   58CHL1    H9 6736   1.720   1.394   9.443  0.7507  0.1306 -1.4920
   58CHL1   C10 6737   1.832   1.340   9.627  0.4543  0.4529  0.4647
   58CHL1   C19 6738   1.981   1.296   9.654  0.5611 -0.2919 -0.2536
   58CHL1  H19A 6739   2.010   1.223   9.575  1.8220  1.2017 -1.2541
   58CHL1  H19B 6740   2.039   1.390   9.637 -1.5049  1.2003  0.6218
   58CHL1  H19C 6741   1.998   1.259   9.757 -0.8063 -2.6332 -0.7993
   58CHL1    C1 6742   1.810   1.478   9.693 -0.1299  0.4638  0.2336
   58CHL1   H1A 6743   1.882   1.554   9.654  0.1472  0.0361 -0.0999
   58CHL1   H1B 6744   1.709   1.520   9.673  0.4878  0.9169 -2.2154
   58CHL1    C2 6745   1.817   1.464   9.846 -0.1257 -0.7306  0.1748
   58CHL1   H2A 6746   1.805   1.564   9.892  3.0565 -1.4745  3.0829
   58CHL1   H2B 6747   1.920   1.430   9.870 -0.3697 -1.2840  0.4544
   58CHL1   C20 6748   2.003   1.234   8.948  0.7906 -0.3009 -0.6554
   58CHL1   H20 6749   2.077   1.161   8.987  0.2885 -0.5766 -0.2053
   58CHL1   C21 6750   2.080   1.368   8.955  0.4317  0.3761 -0.2626
   58CHL1  H21A 6751   2.131   1.387   9.052  0.8681  1.4297 -0.6794
   58CHL1  H21B 6752   2.006   1.441   8.915 -1.5174 -1.2073  0.2877
   58CHL1  H21C 6753   2.161   1.361   8.879  1.6590 -0.7165  1.0971
   58CHL1   C22 6754   1.964   1.186   8.805 -0.2207  0.2989 -1.4175
   58CHL1  H22A 6755   2.061   1.184   8.750  0.8612  1.7416  0.3200
   58CHL1  H22B 6756   1.923   1.083   8.807 -0.0024  0.2295 -0.2936
   58CHL1   C23 6757   1.872   1.277   8.726  0.5217 -0.0745 -0.1973
   58CHL1  H23A 6758   1.773   1.256   8.772 -0.6694 -0.2869 -2.6857
   58CHL1  H23B 6759   1.899   1.385   8.734 -1.9094  0.7917 -2.0740
   58CHL1   C24 6760   1.865   1.244   8.573  0.3588 -0.2179  0.6333
   58CHL1  H24A 6761   1.959   1.283   8.528  0.4774  0.7446  1.6745
   58CHL1  H24B 6762   1.861   1.135   8.555  1.0598 -0.4373  1.7199
   58CHL1   C25 6763   1.750   1.320   8.490  0.5631  0.2840 -0.7707
   58CHL1   H25 6764   1.664   1.251   8.508  0.2522  0.9772  0.5314
   58CHL1   C26 6765   1.712   1.463   8.543  0.6560 -0.1627 -0.3363
   58CHL1  H26A 6766   1.633   1.491   8.471 -0.7441 -2.9085 -0.0161
   58CHL1  H26B 6767   1.674   1.465   8.648  1.4976  0.6237 -0.0289
   58CHL1  H26C 6768   1.801   1.527   8.525  0.9832 -0.5963 -0.2754
   58CHL1   C27 6769   1.777   1.323   8.337 -0.3567  0.4040 -0.2732
   58CHL1  H27A 6770   1.696   1.379   8.286 -1.3796  0.2181  1.0962
   58CHL1  H27B 6771   1.875   1.372   8.319  0.0580 -0.5506 -0.7031
   58CHL1  H27C 6772   1.778   1.216   8.307  2.9535  0.0713  0.5459
   59CHL1    C3 6773   2.066   2.143  10.404 -0.4555  1.2333  0.1447
   59CHL1    H3 6774   2.069   2.069  10.321  1.2786  1.3761  0.0364
   59CHL1    O3 6775   2.083   2.078  10.529  0.5179  0.1469 -0.0463
   59CHL1   H3' 6776   2.127   2.135  10.592  0.6135 -0.9372  0.9056
   59CHL1    C4 6777   2.185   2.248  10.375 -0.2224  0.5778  0.0690
   59CHL1   H4A 6778   2.187   2.320  10.459 -5.6530 -0.6899  1.7207
   59CHL1   H4B 6779   2.276   2.185  10.380 -0.2259  0.5357 -0.3845
   59CHL1    C5 6780   2.156   2.309  10.239  0.3140 -0.3348 -0.2263
   59CHL1    C6 6781   2.242   2.301  10.141  0.2072  0.6515  0.1286
   59CHL1    H6 6782   2.339   2.254  10.161 -1.2007 -2.7218 -0.2507
   59CHL1    C7 6783   2.225   2.358  10.004 -0.6760  0.0042  0.0614
   59CHL1   H7A 6784   2.317   2.412   9.974 -1.3449  1.2457  0.1757
   59CHL1   H7B 6785   2.189   2.283   9.930 -0.7674 -0.0693  0.1787
   59CHL1    C8 6786   2.112   2.466   9.997  0.5584  0.9657 -0.0885
   59CHL1    H8 6787   2.140   2.560  10.050 -1.4532  0.8827  1.2231
   59CHL1   C14 6788   2.075   2.490   9.851 -0.8825  0.8200 -0.0763
   59CHL1   H14 6789   2.029   2.396   9.812 -0.5826  1.0913 -1.0913
   59CHL1   C15 6790   2.181   2.532   9.759 -0.2373  0.0023  0.9430
   59CHL1  H15A 6791   2.260   2.605   9.787 -0.7032  0.6436  0.6106
   59CHL1  H15B 6792   2.246   2.450   9.724  1.2450  2.2036 -1.8901
   59CHL1   C16 6793   2.108   2.584   9.638  0.6188  0.4269 -0.2350
   59CHL1  H16A 6794   2.145   2.683   9.606 -3.3059  2.2703  0.3211
   59CHL1  H16B 6795   2.085   2.509   9.559 -0.6187 -0.0575  0.5380
   59CHL1   C17 6796   1.960   2.609   9.690  0.0384 -0.7170  0.4975
   59CHL1   H17 6797   1.900   2.526   9.647 -0.1228  0.4433 -1.6560
   59CHL1   C13 6798   1.965   2.591   9.839  0.2046  1.0434  0.2680
   59CHL1   C18 6799   2.007   2.724   9.906  0.4925  0.0191  0.1690
   59CHL1  H18A 6800   1.918   2.790   9.910  1.3548  1.3180 -1.2073
   59CHL1  H18B 6801   2.042   2.714  10.011 -0.9419  1.5106  0.8210
   59CHL1  H18C 6802   2.079   2.779   9.843 -0.2820 -0.6075 -1.3249
   59CHL1   C12 6803   1.849   2.519   9.905 -0.0000  0.5313 -0.3881
   59CHL1  H12A 6804   1.752   2.573   9.895 -0.4708  0.8519  3.9811
   59CHL1  H12B 6805   1.836   2.419   9.860  1.5845 -0.0117  0.2864
   59CHL1   C11 6806   1.872   2.501  10.055  0.1009 -0.3309  0.5985
   59CHL1  H11A 6807   1.876   2.597  10.112 -0.1472 -0.3385  0.6282
   59CHL1  H11B 6808   1.775   2.467  10.098  0.5108  0.3720  2.1815
   59CHL1    C9 6809   1.993   2.417  10.079  0.6790  0.4837 -0.7347
   59CHL1    H9 6810   1.972   2.322  10.025  1.8577  0.7975 -1.7809
   59CHL1   C10 6811   2.018   2.374  10.228  0.7186  0.2506  0.1722
   59CHL1   C19 6812   2.004   2.491  10.314 -0.2003  0.8190 -0.2059
   59CHL1  H19A 6813   2.001   2.462  10.421 -2.7281  0.9150 -0.1843
   59CHL1  H19B 6814   2.090   2.558  10.297  0.8073 -0.0606  1.1989
   59CHL1  H19C 6815   1.905   2.539  10.299 -1.8342 -1.8113  1.3566
   59CHL1    C1 6816   1.908   2.274  10.267  0.5438 -0.7495 -0.3035
   59CHL1   H1A 6817   1.807   2.320  10.267 -0.1279 -2.1544  0.5458
   59CHL1   H1B 6818   1.898   2.203  10.182  0.8449 -0.1238 -0.8709
   59CHL1    C2 6819   1.923   2.201  10.396  0.5308  0.2790 -0.3408
   59CHL1   H2A 6820   1.853   2.117  10.415 -0.7690  1.5705  0.7880
   59CHL1   H2B 6821   1.918   2.268  10.485 -1.5195  0.2605 -0.3929
   59CHL1   C20 6822   1.891   2.730   9.625  0.0895 -0.2333 -0.2480
   59CHL1   H20 6823   1.931   2.825   9.666 -1.5751  1.7102 -2.7539
   59CHL1   C21 6824   1.743   2.729   9.664 -0.5050 -0.7725 -0.4047
   59CHL1  H21A 6825   1.673   2.795   9.608 -2.6024 -1.8373  0.8485
   59CHL1  H21B 6826   1.733   2.755   9.771 -0.0897 -0.0786 -0.5249
   59CHL1  H21C 6827   1.693   2.630   9.655 -1.2462 -0.2402 -3.8677
   59CHL1   C22 6828   1.907   2.739   9.465 -0.6120 -0.4457  0.5274
   59CHL1  H22A 6829   1.849   2.828   9.430  1.5542  0.3425 -1.3906
   59CHL1  H22B 6830   2.011   2.765   9.434 -0.8230 -0.3037 -0.0690
   59CHL1   C23 6831   1.855   2.620   9.395 -0.6183 -0.9007 -0.1855
   59CHL1  H23A 6832   1.936   2.547   9.416  2.3567  1.6826 -1.7460
   59CHL1  H23B 6833   1.762   2.583   9.442  0.3874 -1.9421  1.0581
   59CHL1   C24 6834   1.843   2.640   9.246  0.2658  1.0609  0.8171
   59CHL1  H24A 6835   1.788   2.734   9.226 -1.2362  0.1322  0.3747
   59CHL1  H24B 6836   1.946   2.656   9.208  0.8141  0.0146  1.7946
   59CHL1   C25 6837   1.776   2.522   9.161  0.2259  0.2964  0.2153
   59CHL1   H25 6838   1.674   2.507   9.203 -0.4044  0.3119 -1.2789
   59CHL1   C26 6839   1.759   2.568   9.014  0.1818  0.3599 -0.2132
   59CHL1  H26A 6840   1.854   2.588   8.960 -0.3744  0.9548 -0.9850
   59CHL1  H26B 6841   1.691   2.500   8.958  0.9460 -0.3170 -0.3379
   59CHL1  H26C 6842   1.710   2.668   9.019 -1.3148 -0.3274 -0.5191
   59CHL1   C27 6843   1.854   2.386   9.169  0.7298  0.1173  0.0571
   59CHL1  H27A 6844   1.807   2.306   9.108  1.9111  0.2229 -1.0218
   59CHL1  H27B 6845   1.963   2.397   9.150  1.1116  0.5810  2.2239
   59CHL1  H27C 6846   1.841   2.360   9.276 -0.1557  0.1175 -0.0423
   60CHL1    C3 6847   3.830   5.613  10.213  0.3032  0.4911  0.2543
   60CHL1    H3 6848   3.748   5.553  10.169  0.3300 -0.1283  1.0203
   60CHL1    O3 6849   3.827   5.589  10.355  0.2159 -0.2094  0.1275
   60CHL1   H3' 6850   3.776   5.663  10.389 -0.5284 -0.6245 -0.0549
   60CHL1    C4 6851   3.966   5.570  10.148 -0.4987 -0.1778 -0.0773
   60CHL1   H4A 6852   4.051   5.630  10.187  0.2556 -1.4336  0.2392
   60CHL1   H4B 6853   3.979   5.469  10.191  1.9627  0.8019  1.7128
   60CHL1    C5 6854   3.960   5.572   9.997  0.2418  0.7635 -0.2113
   60CHL1    C6 6855   3.970   5.463   9.921  0.2270  0.1002 -0.1384
   60CHL1    H6 6856   3.992   5.374   9.982  4.2743  1.4341  0.6532
   60CHL1    C7 6857   3.955   5.456   9.771 -0.1668  0.1040 -0.0036
   60CHL1   H7A 6858   4.048   5.409   9.734  0.3603  2.0200 -1.2130
   60CHL1   H7B 6859   3.865   5.399   9.738 -0.2028 -1.3832  2.3764
   60CHL1    C8 6860   3.965   5.593   9.714 -0.3036 -0.0924  0.3153
   60CHL1    H8 6861   4.069   5.633   9.718 -0.6004  1.1792 -2.1589
   60CHL1   C14 6862   3.936   5.593   9.563 -0.4415 -0.6039 -0.1308
   60CHL1   H14 6863   3.835   5.548   9.555 -0.3648 -1.6176  3.1376
   60CHL1   C15 6864   4.025   5.495   9.480  0.4335  0.1311  0.2691
   60CHL1  H15A 6865   4.134   5.494   9.501  0.3026 -0.3127  0.9564
   60CHL1  H15B 6866   3.998   5.389   9.493  2.0360 -0.0483  2.8606
   60CHL1   C16 6867   3.997   5.541   9.336 -0.1669  0.9701  0.4668
   60CHL1  H16A 6868   4.098   5.538   9.290 -0.1173 -1.1289  0.5997
   60CHL1  H16B 6869   3.927   5.473   9.283  0.3044 -0.7804  1.9923
   60CHL1   C17 6870   3.918   5.679   9.335  0.5046 -0.0479  0.7411
   60CHL1   H17 6871   3.808   5.665   9.330  0.3464  0.5436  2.1000
   60CHL1   C13 6872   3.945   5.723   9.483 -0.2705  0.1187  0.3425
   60CHL1   C18 6873   4.089   5.772   9.489  0.1799 -0.0407  0.3709
   60CHL1  H18A 6874   4.115   5.788   9.595 -1.6432 -0.3623  0.9012
   60CHL1  H18B 6875   4.157   5.700   9.438  0.8093 -0.2699  1.4934
   60CHL1  H18C 6876   4.104   5.861   9.425 -0.3812 -1.5197 -1.9422
   60CHL1   C12 6877   3.843   5.817   9.555 -0.5429  0.5109  0.6214
   60CHL1  H12A 6878   3.838   5.918   9.509 -0.5814  0.4686  0.5337
   60CHL1  H12B 6879   3.738   5.784   9.544 -1.0543  1.4177  2.3728
   60CHL1   C11 6880   3.876   5.828   9.708  0.4224  0.9239 -0.2653
   60CHL1  H11A 6881   3.962   5.898   9.717 -0.5960  2.0852  0.9522
   60CHL1  H11B 6882   3.791   5.883   9.755 -1.1833 -0.8838 -0.9317
   60CHL1    C9 6883   3.885   5.700   9.787 -0.1121  0.3217 -0.1059
   60CHL1    H9 6884   3.783   5.657   9.783  0.2359 -0.4658 -1.5967
   60CHL1   C10 6885   3.918   5.711   9.940 -0.8926  0.1968  0.0616
   60CHL1   C19 6886   4.047   5.795   9.955  0.2141  0.0494 -0.6631
   60CHL1  H19A 6887   4.136   5.748   9.908 -0.1873 -1.4890  0.0474
   60CHL1  H19B 6888   4.023   5.894   9.912  2.6725  1.4541  0.9521
   60CHL1  H19C 6889   4.073   5.817  10.060  2.2557  1.1472 -1.3381
   60CHL1    C1 6890   3.792   5.761  10.022  0.2443 -0.0608 -0.6910
   60CHL1   H1A 6891   3.772   5.866   9.991  1.4581  0.8188  1.3092
   60CHL1   H1B 6892   3.700   5.702  10.002 -0.2722  0.1249  1.0010
   60CHL1    C2 6893   3.809   5.756  10.176 -0.3343  0.2699  0.3501
   60CHL1   H2A 6894   3.719   5.810  10.213  0.1873  1.5290 -0.1873
   60CHL1   H2B 6895   3.895   5.813  10.218  0.0012 -0.9471  1.3995
   60CHL1   C20 6896   3.969   5.751   9.212 -0.0243  0.0497  0.0615
   60CHL1   H20 6897   4.080   5.750   9.208  0.0167 -0.6642 -4.8879
   60CHL1   C21 6898   3.921   5.902   9.213 -1.2955  0.4804  0.0838
   60CHL1  H21A 6899   3.955   5.949   9.308 -2.1582 -1.6606  1.5478
   60CHL1  H21B 6900   3.810   5.908   9.205 -1.3095  0.9367  0.5496
   60CHL1  H21C 6901   3.970   5.970   9.141 -0.6986  0.1397  0.1681
   60CHL1   C22 6902   3.921   5.688   9.084  0.5837  0.2607  0.0475
   60CHL1  H22A 6903   3.959   5.585   9.069  0.7815  0.4743 -1.0366
   60CHL1  H22B 6904   3.810   5.680   9.092  0.5602  0.2528 -0.2773
   60CHL1   C23 6905   3.961   5.777   8.960  0.8916 -0.3370  0.1924
   60CHL1  H23A 6906   3.913   5.877   8.961 -3.3588 -2.0990  2.8436
   60CHL1  H23B 6907   4.070   5.792   8.976  0.4977  1.7553  1.3325
   60CHL1   C24 6908   3.926   5.720   8.826 -0.0339 -0.5949  0.3783
   60CHL1  H24A 6909   3.987   5.628   8.810 -1.3670 -1.6667  1.2177
   60CHL1  H24B 6910   3.821   5.683   8.829 -0.1090 -0.3772  0.4378
   60CHL1   C25 6911   3.934   5.812   8.712 -1.2511 -0.0139  0.2688
   60CHL1   H25 6912   3.865   5.898   8.727 -0.9672  0.0353  1.3846
   60CHL1   C26 6913   4.074   5.879   8.686 -0.4920  0.2219 -0.4245
   60CHL1  H26A 6914   4.051   5.978   8.642  2.3436  0.7636 -0.8890
   60CHL1  H26B 6915   4.121   5.895   8.785  0.6732  0.6184 -1.0186
   60CHL1  H26C 6916   4.147   5.819   8.628  0.1410  0.5766 -0.0052
   60CHL1   C27 6917   3.876   5.748   8.580 -0.3223 -0.5264 -0.5523
   60CHL1  H27A 6918   3.922   5.647   8.573  1.7346  0.2417  0.9639
   60CHL1  H27B 6919   3.765   5.745   8.581 -0.3156 -0.7229  0.5726
   60CHL1  H27C 6920   3.919   5.799   8.491  0.9386 -0.4530  0.0732
   61CHL1    C3 6921   5.348   6.250  10.286  0.4342  0.0226 -0.1601
   61CHL1    H3 6922   5.352   6.359  10.264 -2.3938  0.1308 -0.3939
   61CHL1    O3 6923   5.363   6.243  10.428  0.4138 -0.1247  0.7914
   61CHL1   H3' 6924   5.309   6.165  10.445 -0.3801 -0.4649 -2.5879
   61CHL1    C4 6925   5.208   6.192  10.242 -0.0918  0.2265  0.3286
   61CHL1   H4A 6926   5.192   6.092  10.287 -1.5652  1.1222  1.8841
   61CHL1   H4B 6927   5.122   6.239  10.293  0.6239 -1.0115  2.8551
   61CHL1    C5 6928   5.191   6.188  10.095 -0.3442  0.3084  0.0319
   61CHL1    C6 6929   5.087   6.251  10.037  0.1959  0.1312  0.1712
   61CHL1    H6 6930   5.004   6.299  10.092  0.6952  0.9737  0.2121
   61CHL1    C7 6931   5.061   6.248   9.887 -0.1830 -0.2944  0.2675
   61CHL1   H7A 6932   4.954   6.223   9.869  0.5446 -2.8252 -0.8790
   61CHL1   H7B 6933   5.093   6.345   9.843 -0.7963  0.5336  1.5867
   61CHL1    C8 6934   5.149   6.136   9.818  0.1803 -0.6914 -0.4625
   61CHL1    H8 6935   5.099   6.042   9.847  0.8250 -0.2409  2.4171
   61CHL1   C14 6936   5.139   6.164   9.671 -0.1792  0.2547 -0.3324
   61CHL1   H14 6937   5.180   6.267   9.661  1.2581 -0.4141 -1.9776
   61CHL1   C15 6938   5.010   6.186   9.606 -0.3927  0.2836  0.2578
   61CHL1  H15A 6939   4.925   6.117   9.620 -0.6533  0.8076  1.3149
   61CHL1  H15B 6940   4.967   6.287   9.624 -2.2621 -0.0993 -1.6806
   61CHL1   C16 6941   5.049   6.187   9.457 -0.1008  0.2080 -0.6815
   61CHL1  H16A 6942   4.983   6.123   9.395 -1.9443  3.0422 -1.8356
   61CHL1  H16B 6943   5.034   6.287   9.412 -2.6864  0.1957 -0.0270
   61CHL1   C17 6944   5.203   6.147   9.447 -0.4754 -0.4210 -0.3116
   61CHL1   H17 6945   5.260   6.243   9.440 -3.2834  1.4396  0.7302
   61CHL1   C13 6946   5.231   6.084   9.586 -0.6236  0.6669 -0.1800
   61CHL1   C18 6947   5.183   5.937   9.599 -1.2633 -0.4527 -0.7231
   61CHL1  H18A 6948   5.073   5.931   9.594 -1.2629 -0.9442 -0.2543
   61CHL1  H18B 6949   5.231   5.865   9.528 -1.4899 -0.7179 -0.6063
   61CHL1  H18C 6950   5.198   5.899   9.702 -0.9055  0.0366 -0.5919
   61CHL1   C12 6951   5.375   6.097   9.629 -0.1414  0.0196 -0.9200
   61CHL1  H12A 6952   5.443   6.025   9.579 -1.4012 -2.2245  0.4463
   61CHL1  H12B 6953   5.419   6.197   9.611 -0.6243 -0.0947 -2.9478
   61CHL1   C11 6954   5.397   6.070   9.781  0.2130  0.1339 -0.0915
   61CHL1  H11A 6955   5.387   5.959   9.789 -1.8762  0.3990  2.1725
   61CHL1  H11B 6956   5.502   6.102   9.802  0.5677 -0.6198 -0.6787
   61CHL1    C9 6957   5.293   6.148   9.867 -0.4218 -0.0164 -0.7799
   61CHL1    H9 6958   5.315   6.257   9.856 -0.6625  0.1875  0.5457
   61CHL1   C10 6959   5.312   6.124  10.016  0.0549 -0.6494 -0.6250
   61CHL1   C19 6960   5.306   5.971  10.037 -0.3702  0.3299 -0.1042
   61CHL1  H19A 6961   5.217   5.918   9.997  0.7007 -2.7590  1.3209
   61CHL1  H19B 6962   5.392   5.919   9.989 -0.3510  0.1281  0.1502
   61CHL1  H19C 6963   5.311   5.939  10.143 -0.7575 -0.4397 -0.3082
   61CHL1    C1 6964   5.447   6.175  10.066 -0.0541  0.4414  0.0457
   61CHL1   H1A 6965   5.514   6.098  10.023 -3.3043 -2.2007 -0.7506
   61CHL1   H1B 6966   5.459   6.276  10.022  0.2973  0.1150 -0.6235
   61CHL1    C2 6967   5.465   6.178  10.223 -0.1567 -0.4999 -0.2438
   61CHL1   H2A 6968   5.566   6.218  10.242  0.5990 -2.6340  0.5029
   61CHL1   H2B 6969   5.464   6.070  10.250 -0.3408 -1.0975 -2.4036
   61CHL1   C20 6970   5.237   6.063   9.316  0.7939  0.3552 -0.3668
   61CHL1   H20 6971   5.169   5.975   9.306  3.2505 -1.5001 -1.9911
   61CHL1   C21 6972   5.378   6.017   9.328 -0.6255  0.6997  0.1050
   61CHL1  H21A 6973   5.458   6.087   9.359 -1.0726  1.7730 -1.0797
   61CHL1  H21B 6974   5.414   5.966   9.236 -0.6788 -1.4164  1.2158
   61CHL1  H21C 6975   5.387   5.931   9.397  1.4219  0.8100  0.0342
   61CHL1   C22 6976   5.219   6.150   9.193 -0.4592  0.0501  0.1985
   61CHL1  H22A 6977   5.111   6.179   9.193 -0.9808 -1.6384 -1.2985
   61CHL1  H22B 6978   5.278   6.244   9.191  0.9232 -0.7905 -2.4718
   61CHL1   C23 6979   5.251   6.078   9.055 -0.2098 -0.3659  0.7736
   61CHL1  H23A 6980   5.360   6.059   9.048  0.0270  0.7521  1.2043
   61CHL1  H23B 6981   5.191   5.991   9.022 -0.5944  0.3692 -0.5368
   61CHL1   C24 6982   5.232   6.190   8.947 -0.5224  0.0450  0.2083
   61CHL1  H24A 6983   5.124   6.217   8.942 -0.5552  0.0602  0.8699
   61CHL1  H24B 6984   5.288   6.283   8.967 -1.3704  0.2698  1.6583
   61CHL1   C25 6985   5.265   6.148   8.800  0.2196  0.4297  0.4887
   61CHL1   H25 6986   5.367   6.109   8.820  1.2484  3.3563  1.4573
   61CHL1   C26 6987   5.182   6.028   8.749  0.5386 -0.1796  0.0834
   61CHL1  H26A 6988   5.153   6.043   8.642 -2.8121  3.5691  1.2715
   61CHL1  H26B 6989   5.233   5.930   8.756 -1.3568 -1.0948  1.8871
   61CHL1  H26C 6990   5.078   6.035   8.786 -0.0389  1.2627 -1.6591
   61CHL1   C27 6991   5.281   6.269   8.707 -0.3112  0.3038  0.1499
   61CHL1  H27A 6992   5.321   6.240   8.607 -0.2026  1.2523 -0.1020
   61CHL1  H27B 6993   5.183   6.314   8.681 -0.2138  0.1373 -0.5194
   61CHL1  H27C 6994   5.350   6.343   8.754 -1.4510  1.4887  0.0285
   62CHL1    C3 6995   5.293   4.519   9.888 -0.1884  0.1028 -0.6961
   62CHL1    H3 6996   5.388   4.462   9.894 -0.9437 -1.2077 -0.9270
   62CHL1    O3 6997   5.261   4.575  10.012  0.1023 -0.3436 -0.0671
   62CHL1   H3' 6998   5.172   4.607   9.994 -0.0077 -1.0234 -0.7969
   62CHL1    C4 6999   5.308   4.637   9.790  0.1827  0.2838  0.5861
   62CHL1   H4A 7000   5.223   4.707   9.800 -0.3748 -0.5139  1.5989
   62CHL1   H4B 7001   5.400   4.696   9.812  0.7542  0.3736 -1.7747
   62CHL1    C5 7002   5.309   4.596   9.642  0.6424  0.0121 -0.3084
   62CHL1    C6 7003   5.413   4.626   9.567 -0.4051 -0.1111 -0.4208
   62CHL1    H6 7004   5.493   4.692   9.602  0.5817 -2.3630  1.9386
   62CHL1    C7 7005   5.409   4.606   9.412  0.1810 -0.4432  0.4430
   62CHL1   H7A 7006   5.429   4.688   9.341 -0.1708 -0.3875  0.4061
   62CHL1   H7B 7007   5.491   4.532   9.399  1.8429  1.3642  0.1736
   62CHL1    C8 7008   5.276   4.543   9.364  1.0824 -0.1308  0.0090
   62CHL1    H8 7009   5.203   4.624   9.347  1.5673  0.3173  0.0280
   62CHL1   C14 7010   5.305   4.485   9.221  0.3052 -0.2384  0.2317
   62CHL1   H14 7011   5.378   4.403   9.235  0.2320 -0.3510 -0.0553
   62CHL1   C15 7012   5.361   4.579   9.122 -0.4401 -0.2755  0.5073
   62CHL1  H15A 7013   5.300   4.671   9.128  1.5951  1.0857  1.6660
   62CHL1  H15B 7014   5.468   4.611   9.126 -0.9428  1.4017  3.1767
   62CHL1   C16 7015   5.344   4.504   8.987  0.1320  0.3705 -0.2765
   62CHL1  H16A 7016   5.310   4.578   8.911  0.9415 -1.3121 -2.3409
   62CHL1  H16B 7017   5.440   4.461   8.955 -0.1922  0.7653 -1.8473
   62CHL1   C17 7018   5.249   4.386   9.014  1.3641  0.7843  0.3737
   62CHL1   H17 7019   5.320   4.300   9.012  2.1762  1.3931  2.0110
   62CHL1   C13 7020   5.188   4.408   9.159  0.1889 -0.3176  0.2244
   62CHL1   C18 7021   5.072   4.513   9.153 -0.5355  0.4472 -0.4870
   62CHL1  H18A 7022   4.989   4.455   9.107  2.3354 -2.1830 -2.7757
   62CHL1  H18B 7023   5.037   4.545   9.254 -1.5733  0.9705 -0.9891
   62CHL1  H18C 7024   5.098   4.604   9.095 -0.8150  0.9875  0.2154
   62CHL1   C12 7025   5.154   4.291   9.252 -0.3746 -0.2547  0.0399
   62CHL1  H12A 7026   5.066   4.244   9.204  0.0829 -0.4380 -0.6553
   62CHL1  H12B 7027   5.240   4.221   9.250  0.4107  0.6318  1.4162
   62CHL1   C11 7028   5.119   4.337   9.393 -0.0853 -0.1143  0.5041
   62CHL1  H11A 7029   5.021   4.388   9.380 -0.0106 -0.5807 -2.5281
   62CHL1  H11B 7030   5.119   4.247   9.458  2.6049 -1.0014 -0.5683
   62CHL1    C9 7031   5.222   4.436   9.454 -0.9530  0.2206 -0.2485
   62CHL1    H9 7032   5.313   4.372   9.460 -1.1700 -0.0499  0.1999
   62CHL1   C10 7033   5.199   4.495   9.592  0.3975 -0.1416 -0.3212
   62CHL1   C19 7034   5.060   4.583   9.583  0.1163  0.4748  0.0718
   62CHL1  H19A 7035   4.969   4.523   9.563 -0.5487  1.6857 -0.5776
   62CHL1  H19B 7036   5.035   4.645   9.672  0.6002 -2.8696  2.7671
   62CHL1  H19C 7037   5.067   4.653   9.498  1.6501 -1.8556 -1.8706
   62CHL1    C1 7038   5.187   4.387   9.699  0.3773  0.3804 -0.0536
   62CHL1   H1A 7039   5.099   4.324   9.673  1.7087 -2.6669  2.1276
   62CHL1   H1B 7040   5.275   4.320   9.698 -1.8185 -2.7273 -0.6455
   62CHL1    C2 7041   5.179   4.427   9.844 -0.4102 -0.1112 -0.2043
   62CHL1   H2A 7042   5.188   4.336   9.907 -3.2633  0.6686  1.5044
   62CHL1   H2B 7043   5.079   4.472   9.861  0.7834  2.5235  0.2874
   62CHL1   C20 7044   5.154   4.346   8.891  0.5706 -0.1736  0.4330
   62CHL1   H20 7045   5.074   4.423   8.888  1.2319  0.5039 -2.0767
   62CHL1   C21 7046   5.082   4.212   8.909 -0.4977  0.3984  0.3355
   62CHL1  H21A 7047   5.034   4.182   8.814  0.4897 -1.6535  0.4397
   62CHL1  H21B 7048   4.997   4.204   8.980 -2.5566 -0.4358 -2.0872
   62CHL1  H21C 7049   5.162   4.137   8.927  0.3952  1.6971  2.1070
   62CHL1   C22 7050   5.240   4.348   8.753  0.2477 -0.4130 -0.3331
   62CHL1  H22A 7051   5.304   4.438   8.752  0.4188 -0.3542  3.2253
   62CHL1  H22B 7052   5.299   4.255   8.739  0.6077 -0.0588 -1.1940
   62CHL1   C23 7053   5.147   4.363   8.636  0.1042 -0.2647  0.7317
   62CHL1  H23A 7054   5.084   4.274   8.613 -0.7407  0.1219  1.5080
   62CHL1  H23B 7055   5.080   4.451   8.640 -2.6211 -2.2375  2.4637
   62CHL1   C24 7056   5.236   4.381   8.510  0.8652  0.3540 -1.0543
   62CHL1  H24A 7057   5.304   4.468   8.519  2.3251 -0.6861 -1.5895
   62CHL1  H24B 7058   5.304   4.293   8.499 -0.2660 -0.3758 -2.6193
   62CHL1   C25 7059   5.154   4.387   8.382  0.2109  0.3508 -0.2252
   62CHL1   H25 7060   5.080   4.303   8.390 -1.8737  1.9461 -1.6402
   62CHL1   C26 7061   5.077   4.521   8.369  0.2010 -0.8672  0.4782
   62CHL1  H26A 7062   5.028   4.542   8.467 -0.3669 -2.2539  0.5098
   62CHL1  H26B 7063   5.144   4.608   8.356  0.0539 -0.7079  0.7781
   62CHL1  H26C 7064   4.999   4.516   8.289  1.9224 -2.7168 -1.1945
   62CHL1   C27 7065   5.238   4.354   8.259 -0.0741  0.2652 -0.4629
   62CHL1  H27A 7066   5.269   4.248   8.256 -0.6278 -0.0324  2.1747
   62CHL1  H27B 7067   5.181   4.381   8.168  2.3428  0.5113 -2.0005
   62CHL1  H27C 7068   5.336   4.407   8.261  1.5889 -2.6266 -0.4305
   63CHL1    C3 7069   6.062   6.416  10.422 -0.1267  0.1198  0.0409
   63CHL1    H3 7070   5.987   6.496  10.442 -0.8194 -1.1329  3.2144
   63CHL1    O3 7071   6.120   6.373  10.548  0.4737 -0.3316 -0.3558
   63CHL1   H3' 7072   6.191   6.436  10.566  1.3132 -1.6401  1.1652
   63CHL1    C4 7073   5.984   6.307  10.355 -0.0668  0.2067  0.0143
   63CHL1   H4A 7074   6.050   6.217  10.350  1.6741  1.4015  0.5964
   63CHL1   H4B 7075   5.892   6.284  10.412  0.7448  2.1701  2.2508
   63CHL1    C5 7076   5.944   6.351  10.216  0.2530 -0.2908  0.5023
   63CHL1    C6 7077   5.816   6.343  10.177  0.2303 -0.1207 -0.2710
   63CHL1    H6 7078   5.735   6.310  10.243 -0.9978  2.2515 -0.4708
   63CHL1    C7 7079   5.770   6.374  10.037  0.4437  0.4686  0.3875
   63CHL1   H7A 7080   5.686   6.302  10.023 -1.0481  1.9546  1.3534
   63CHL1   H7B 7081   5.722   6.474  10.034 -0.9890 -0.2101 -0.7607
   63CHL1    C8 7082   5.887   6.355   9.944  0.3883  0.6063  0.5511
   63CHL1    H8 7083   5.915   6.248   9.954 -1.6097  0.0314  0.3335
   63CHL1   C14 7084   5.832   6.385   9.798 -0.1599 -0.0460 -0.4416
   63CHL1   H14 7085   5.794   6.489   9.809 -0.8773 -0.2141 -1.2191
   63CHL1   C15 7086   5.719   6.304   9.741 -0.2863  0.1457  0.1792
   63CHL1  H15A 7087   5.740   6.197   9.761  1.8335  0.1440 -1.6670
   63CHL1  H15B 7088   5.627   6.346   9.787 -1.0240  0.6445 -1.6814
   63CHL1   C16 7089   5.732   6.324   9.589 -0.2184 -0.6952  0.0432
   63CHL1  H16A 7090   5.728   6.225   9.540  0.5638 -1.0100  0.5950
   63CHL1  H16B 7091   5.655   6.399   9.561 -0.4373 -1.6810 -2.1426
   63CHL1   C17 7092   5.867   6.399   9.566 -0.5022 -0.7941  0.1411
   63CHL1   H17 7093   5.848   6.508   9.556 -0.8293 -0.7540  1.0875
   63CHL1   C13 7094   5.944   6.386   9.698 -0.2037  0.5383 -0.3877
   63CHL1   C18 7095   6.020   6.246   9.709  0.1156  0.1593 -0.0627
   63CHL1  H18A 7096   5.953   6.161   9.685  1.4851 -0.9760 -0.0241
   63CHL1  H18B 7097   6.104   6.234   9.637 -1.9701 -0.7572 -2.5144
   63CHL1  H18C 7098   6.057   6.220   9.811  1.0798 -1.6827 -0.8252
   63CHL1   C12 7099   6.029   6.508   9.742 -0.7951  0.0711 -0.0320
   63CHL1  H12A 7100   6.098   6.543   9.662  2.9808  0.5587  3.1469
   63CHL1  H12B 7101   5.960   6.594   9.751  0.1201  1.0745 -1.8609
   63CHL1   C11 7102   6.106   6.475   9.868  0.2939  0.4579 -0.3987
   63CHL1  H11A 7103   6.167   6.383   9.854  0.0147  0.0638  0.8573
   63CHL1  H11B 7104   6.180   6.549   9.907  1.1354 -0.0611 -0.9706
   63CHL1    C9 7105   6.003   6.447   9.989 -0.2314  0.6580 -0.3973
   63CHL1    H9 7106   5.953   6.545  10.007 -0.8263  0.1309  0.9566
   63CHL1   C10 7107   6.054   6.391  10.118 -0.5666 -0.2518  0.4668
   63CHL1   C19 7108   6.146   6.262  10.084 -0.8085 -0.4874  0.2390
   63CHL1  H19A 7109   6.088   6.193  10.020 -2.0423  0.1011  0.6921
   63CHL1  H19B 7110   6.233   6.293  10.023  0.2218  0.8338  2.2491
   63CHL1  H19C 7111   6.178   6.212  10.178 -0.9023 -1.9037 -0.4676
   63CHL1    C1 7112   6.126   6.507  10.191  0.9998  1.0696  0.3665
   63CHL1   H1A 7113   6.204   6.541  10.119  1.0817  3.0220  1.2994
   63CHL1   H1B 7114   6.059   6.595  10.201  0.1170  0.3576  0.8151
   63CHL1    C2 7115   6.177   6.462  10.331 -1.1692  0.0779 -0.0564
   63CHL1   H2A 7116   6.235   6.546  10.376  0.8964 -1.2375 -0.0968
   63CHL1   H2B 7117   6.248   6.378  10.320  0.4626  1.1266  1.7773
   63CHL1   C20 7118   5.938   6.372   9.427  0.1123 -0.6274 -1.1338
   63CHL1   H20 7119   5.968   6.265   9.427 -1.4827 -1.1212 -0.2022
   63CHL1   C21 7120   6.063   6.445   9.402 -0.2145 -0.8672  0.8262
   63CHL1  H21A 7121   6.110   6.411   9.306 -0.3723  0.3144  0.3045
   63CHL1  H21B 7122   6.143   6.420   9.475  1.7507  1.0129 -0.5399
   63CHL1  H21C 7123   6.049   6.555   9.407  1.3957 -0.6369  0.8588
   63CHL1   C22 7124   5.833   6.388   9.313  0.2606 -0.2674  0.2205
   63CHL1  H22A 7125   5.745   6.324   9.337  0.6910 -0.4642  1.3114
   63CHL1  H22B 7126   5.794   6.492   9.309 -2.0392 -0.9785  1.8050
   63CHL1   C23 7127   5.882   6.352   9.165  0.0247  0.8075  0.6510
   63CHL1  H23A 7128   5.985   6.395   9.159  0.4210  0.0228  1.6819
   63CHL1  H23B 7129   5.896   6.243   9.154  0.2232  1.0412 -2.8305
   63CHL1   C24 7130   5.784   6.379   9.050  0.2568  0.0628 -0.3897
   63CHL1  H24A 7131   5.688   6.336   9.087  0.8952  0.0385  1.3183
   63CHL1  H24B 7132   5.773   6.488   9.033 -1.2278  0.0981  0.6034
   63CHL1   C25 7133   5.827   6.324   8.915 -0.2542 -0.5172  0.3996
   63CHL1   H25 7134   5.886   6.234   8.942 -0.0310 -0.4195  0.2462
   63CHL1   C26 7135   5.716   6.287   8.820  0.5060 -0.9358 -0.3642
   63CHL1  H26A 7136   5.684   6.373   8.756  0.0216 -1.3251 -0.6505
   63CHL1  H26B 7137   5.758   6.213   8.748  2.0472 -1.5339  1.0921
   63CHL1  H26C 7138   5.633   6.235   8.872  0.7514 -1.0197 -0.0602
   63CHL1   C27 7139   5.930   6.408   8.842  0.3964 -0.9143  0.1095
   63CHL1  H27A 7140   6.015   6.443   8.904  0.8386  0.0325 -0.9956
   63CHL1  H27B 7141   5.967   6.357   8.750 -0.9779 -0.9653 -0.4383
   63CHL1  H27C 7142   5.880   6.500   8.805 -0.0457 -1.2751 -0.2066
   64CHL1    C3 7143   4.763   3.362  10.029  1.2380 -0.4714 -0.8021
   64CHL1    H3 7144   4.812   3.263  10.026  0.0913 -1.1674  1.3650
   64CHL1    O3 7145   4.778   3.404  10.163 -0.4105  0.5545  0.0064
   64CHL1   H3' 7146   4.756   3.332  10.222  2.2943  1.7730  2.7768
   64CHL1    C4 7147   4.828   3.468   9.938 -0.1719 -0.3088  0.6341
   64CHL1   H4A 7148   4.772   3.561   9.962 -2.0340 -0.8145 -1.4061
   64CHL1   H4B 7149   4.932   3.475   9.975 -0.4338 -0.4952  1.4222
   64CHL1    C5 7150   4.803   3.437   9.789 -0.4620  0.4019 -0.0882
   64CHL1    C6 7151   4.911   3.420   9.709  0.0159 -0.6453 -0.0052
   64CHL1    H6 7152   5.016   3.426   9.742 -0.1980 -1.7030  0.9135
   64CHL1    C7 7153   4.893   3.399   9.558 -1.1224 -0.0088 -0.2406
   64CHL1   H7A 7154   4.959   3.458   9.491  0.6060  0.0976  1.4588
   64CHL1   H7B 7155   4.922   3.294   9.533  1.5953  0.9048 -1.3051
   64CHL1    C8 7156   4.745   3.417   9.503  0.5071  0.0233  0.7668
   64CHL1    H8 7157   4.720   3.525   9.498 -0.5954 -0.2764 -0.7711
   64CHL1   C14 7158   4.729   3.346   9.373 -0.7188 -0.3533 -0.6645
   64CHL1   H14 7159   4.758   3.242   9.398  1.1487  0.8597  2.9973
   64CHL1   C15 7160   4.821   3.377   9.259 -0.2259  0.1690  0.2543
   64CHL1  H15A 7161   4.839   3.486   9.251  0.2766 -0.0315 -1.7507
   64CHL1  H15B 7162   4.915   3.319   9.271 -1.8308 -2.2662  2.0474
   64CHL1   C16 7163   4.743   3.323   9.136 -0.2149 -0.1009  0.5853
   64CHL1  H16A 7164   4.725   3.394   9.053 -0.6721 -0.7518  0.1244
   64CHL1  H16B 7165   4.815   3.253   9.088 -0.6826  1.3905 -2.4734
   64CHL1   C17 7166   4.606   3.262   9.187 -0.0814 -0.6210 -1.0131
   64CHL1   H17 7167   4.624   3.156   9.217  2.6653  0.2003  0.6157
   64CHL1   C13 7168   4.583   3.344   9.315 -0.1607  0.2015  0.5193
   64CHL1   C18 7169   4.548   3.486   9.281  0.5951  0.7391  0.6730
   64CHL1  H18A 7170   4.444   3.490   9.241  0.2341 -0.5943  1.4350
   64CHL1  H18B 7171   4.564   3.550   9.370  0.5015  1.7070  0.0082
   64CHL1  H18C 7172   4.602   3.532   9.196 -1.7988  1.8091 -0.3813
   64CHL1   C12 7173   4.491   3.271   9.413 -0.3125 -0.3883 -0.0546
   64CHL1  H12A 7174   4.384   3.276   9.383  0.0433 -0.0353 -1.3350
   64CHL1  H12B 7175   4.520   3.165   9.429  1.0621 -0.0332 -0.0812
   64CHL1   C11 7176   4.497   3.335   9.547  0.5425  0.7518  0.5196
   64CHL1  H11A 7177   4.460   3.440   9.539 -0.7568  0.5240  2.7536
   64CHL1  H11B 7178   4.430   3.281   9.617 -2.0913  0.7510 -1.8294
   64CHL1    C9 7179   4.642   3.356   9.605 -0.3518  0.4857  0.0832
   64CHL1    H9 7180   4.679   3.253   9.624  0.6827  0.5608 -1.3444
   64CHL1   C10 7181   4.660   3.415   9.752  0.3999  0.6176 -0.1064
   64CHL1   C19 7182   4.587   3.557   9.753 -0.0111 -0.2874 -0.3443
   64CHL1  H19A 7183   4.629   3.626   9.677  0.3643 -0.7561 -0.5648
   64CHL1  H19B 7184   4.477   3.547   9.738 -0.1536  0.7410 -0.0997
   64CHL1  H19C 7185   4.598   3.620   9.844  0.4005  0.2405 -0.7489
   64CHL1    C1 7186   4.599   3.316   9.855 -0.4594  0.1258  0.0002
   64CHL1   H1A 7187   4.493   3.311   9.824  0.3997  3.2165 -4.2451
   64CHL1   H1B 7188   4.646   3.215   9.851  0.0644  0.3703 -0.0829
   64CHL1    C2 7189   4.611   3.356   9.998 -0.5518  0.4428 -1.1480
   64CHL1   H2A 7190   4.555   3.286  10.063 -0.4513 -1.8875 -3.4210
   64CHL1   H2B 7191   4.569   3.453  10.033 -1.1647 -0.4056  0.5763
   64CHL1   C20 7192   4.499   3.261   9.075  0.3656 -0.2493 -0.6933
   64CHL1   H20 7193   4.467   3.366   9.063  1.2595  0.1709  0.4543
   64CHL1   C21 7194   4.380   3.175   9.125  0.3930 -0.6973  0.1880
   64CHL1  H21A 7195   4.301   3.166   9.047  0.8764  2.6084 -0.8335
   64CHL1  H21B 7196   4.317   3.220   9.205 -1.6848 -2.2470 -0.4801
   64CHL1  H21C 7197   4.412   3.074   9.158 -1.2033 -1.0706  0.6779
   64CHL1   C22 7198   4.545   3.191   8.943  0.1590 -0.5843  0.0207
   64CHL1  H22A 7199   4.653   3.213   8.931 -0.0880  0.5089 -0.3358
   64CHL1  H22B 7200   4.520   3.085   8.964 -0.1506 -0.3442  0.9285
   64CHL1   C23 7201   4.463   3.248   8.821 -0.0058  0.9710 -0.4123
   64CHL1  H23A 7202   4.355   3.237   8.844 -0.1792  1.2945 -1.0325
   64CHL1  H23B 7203   4.496   3.354   8.812  2.2540  0.3765  0.1738
   64CHL1   C24 7204   4.478   3.173   8.686 -0.5570 -0.3693 -0.8743
   64CHL1  H24A 7205   4.583   3.167   8.652 -0.2663  1.2472 -0.3072
   64CHL1  H24B 7206   4.445   3.066   8.690 -0.0999 -0.4937 -0.4248
   64CHL1   C25 7207   4.409   3.234   8.567  0.8201  0.1326  0.9999
   64CHL1   H25 7208   4.301   3.249   8.592  0.9573  0.6727  1.2983
   64CHL1   C26 7209   4.457   3.374   8.530  0.3747  1.0255 -0.1264
   64CHL1  H26A 7210   4.405   3.418   8.442 -2.1258  0.9723  1.2399
   64CHL1  H26B 7211   4.443   3.446   8.614 -0.0331  0.6906  0.0967
   64CHL1  H26C 7212   4.564   3.380   8.503  0.0985  0.7906 -1.3307
   64CHL1   C27 7213   4.425   3.141   8.441 -0.3330 -0.2683 -0.1229
   64CHL1  H27A 7214   4.405   3.036   8.472 -1.2026 -0.4515 -1.2473
   64CHL1  H27B 7215   4.360   3.176   8.358 -1.4568 -1.0992  0.3852
   64CHL1  H27C 7216   4.533   3.151   8.414 -0.4900 -0.3025 -0.7693
   65CHL1    C3 7217   2.668   0.526  10.043 -0.2326  0.4692 -0.0549
   65CHL1    H3 7218   2.753   0.595  10.062  1.4133 -1.3119 -0.6414
   65CHL1    O3 7219   2.613   0.503  10.173 -0.2350 -0.2496  0.5066
   65CHL1   H3' 7220   2.535   0.451  10.152 -0.3226  0.6044 -1.5296
   65CHL1    C4 7221   2.566   0.589   9.943  0.3031 -0.3587 -0.0029
   65CHL1   H4A 7222   2.475   0.528   9.927 -2.0223  3.3166 -2.2796
   65CHL1   H4B 7223   2.522   0.676   9.996  0.2821  0.3680 -1.1769
   65CHL1    C5 7224   2.627   0.619   9.805 -0.0848 -0.2471  0.5846
   65CHL1    C6 7225   2.619   0.736   9.743  0.1621  0.4901 -0.3831
   65CHL1    H6 7226   2.565   0.813   9.800  0.8083  0.0716  0.8148
   65CHL1    C7 7227   2.659   0.764   9.601  0.3566  0.1087  0.1683
   65CHL1   H7A 7228   2.582   0.823   9.547  0.7360  0.6520  0.2111
   65CHL1   H7B 7229   2.738   0.842   9.600 -0.0049  0.4802  0.1259
   65CHL1    C8 7230   2.704   0.643   9.517 -0.1437 -0.2696 -0.3501
   65CHL1    H8 7231   2.613   0.598   9.473 -0.4754 -0.0097  0.0636
   65CHL1   C14 7232   2.805   0.687   9.416  0.0777 -0.6284 -0.4902
   65CHL1   H14 7233   2.899   0.721   9.464  0.6774 -1.9747 -0.6566
   65CHL1   C15 7234   2.766   0.803   9.320 -0.2132 -0.0077 -0.2911
   65CHL1  H15A 7235   2.665   0.774   9.283  0.5146 -1.6057 -1.1546
   65CHL1  H15B 7236   2.782   0.903   9.366  0.1797  0.6382 -1.7466
   65CHL1   C16 7237   2.858   0.791   9.193  0.0335  0.1277  0.0791
   65CHL1  H16A 7238   2.795   0.796   9.101 -0.7418  1.6329  0.6478
   65CHL1  H16B 7239   2.944   0.860   9.184 -0.8394  1.0927 -1.3670
   65CHL1   C17 7240   2.932   0.654   9.212  0.0958 -0.1559 -0.4009
   65CHL1   H17 7241   3.028   0.669   9.267 -0.1270 -0.0506 -0.0383
   65CHL1   C13 7242   2.856   0.572   9.322 -0.0489 -0.5929 -0.6617
   65CHL1   C18 7243   2.742   0.491   9.253  0.7406 -0.0125  0.1062
   65CHL1  H18A 7244   2.780   0.407   9.190 -1.3356 -0.2655 -0.8944
   65CHL1  H18B 7245   2.677   0.448   9.331  1.5377 -0.8860  0.3106
   65CHL1  H18C 7246   2.683   0.559   9.188  0.8171  1.4972  1.5578
   65CHL1   C12 7247   2.939   0.480   9.411  0.5606  0.0633 -0.0046
   65CHL1  H12A 7248   2.980   0.384   9.373  0.5124  0.0230  0.0437
   65CHL1  H12B 7249   3.030   0.532   9.447  0.1226 -0.1139  1.4333
   65CHL1   C11 7250   2.852   0.424   9.530 -0.0500 -0.2445  0.7914
   65CHL1  H11A 7251   2.785   0.348   9.484 -2.0026  1.4835  0.6014
   65CHL1  H11B 7252   2.913   0.358   9.596  0.7822 -1.6348 -1.2731
   65CHL1    C9 7253   2.777   0.538   9.607  0.0042  0.1630 -0.7200
   65CHL1    H9 7254   2.860   0.594   9.655  0.5358 -1.2901  0.1206
   65CHL1   C10 7255   2.697   0.495   9.736  0.6500 -0.9640  0.0484
   65CHL1   C19 7256   2.587   0.402   9.679 -0.1800 -0.6844 -0.3443
   65CHL1  H19A 7257   2.523   0.456   9.606  0.7593  1.2099  0.1808
   65CHL1  H19B 7258   2.630   0.314   9.625 -0.8493 -1.3629  0.2120
   65CHL1  H19C 7259   2.522   0.363   9.760 -0.2866  0.3721  0.0886
   65CHL1    C1 7260   2.782   0.427   9.835 -0.4303  0.6251 -0.3599
   65CHL1   H1A 7261   2.820   0.327   9.803  0.3764 -0.1938  2.8182
   65CHL1   H1B 7262   2.860   0.501   9.863  0.0074 -0.5809  1.9082
   65CHL1    C2 7263   2.714   0.397   9.976 -0.0542  0.0970  0.3728
   65CHL1   H2A 7264   2.791   0.352  10.042 -0.1909 -0.6056  0.0645
   65CHL1   H2B 7265   2.628   0.328   9.961  0.6521 -0.6051 -0.6117
   65CHL1   C20 7266   2.970   0.575   9.085 -0.5612 -0.6384 -0.5649
   65CHL1   H20 7267   2.999   0.473   9.118 -0.8267 -0.1770  1.2339
   65CHL1   C21 7268   3.100   0.625   9.025 -0.2333 -0.5297  0.1114
   65CHL1  H21A 7269   3.105   0.736   9.018  1.4261 -0.4859  1.1972
   65CHL1  H21B 7270   3.126   0.582   8.925  3.6462 -1.4732  1.3304
   65CHL1  H21C 7271   3.183   0.579   9.082 -0.1282 -2.0979 -1.2235
   65CHL1   C22 7272   2.864   0.567   8.980  0.5350  0.1754  0.3629
   65CHL1  H22A 7273   2.758   0.593   9.001 -0.0206 -1.5517 -0.1228
   65CHL1  H22B 7274   2.891   0.639   8.901 -0.6978 -0.5192 -0.7268
   65CHL1   C23 7275   2.873   0.432   8.917  0.6715 -0.3580  0.9502
   65CHL1  H23A 7276   2.980   0.402   8.908  1.9113  2.4284  4.1736
   65CHL1  H23B 7277   2.826   0.356   8.983 -2.3416  1.5764  1.2337
   65CHL1   C24 7278   2.813   0.420   8.776  0.1439  0.3145  0.1865
   65CHL1  H24A 7279   2.862   0.494   8.708  1.1184  1.2132  1.7921
   65CHL1  H24B 7280   2.839   0.317   8.746  0.6337  0.5285 -0.1474
   65CHL1   C25 7281   2.657   0.439   8.764  0.1479  0.2783  0.0015
   65CHL1   H25 7282   2.637   0.547   8.783  0.5693 -0.0688  2.8918
   65CHL1   C26 7283   2.622   0.406   8.617  0.1225  0.9162 -0.1568
   65CHL1  H26A 7284   2.644   0.304   8.579 -0.4323  0.5059  0.5951
   65CHL1  H26B 7285   2.512   0.416   8.607 -0.3558 -1.2897  1.9983
   65CHL1  H26C 7286   2.669   0.472   8.541  1.7003 -0.7159 -0.6861
   65CHL1   C27 7287   2.568   0.344   8.853 -0.0034 -0.3410  0.0554
   65CHL1  H27A 7288   2.552   0.368   8.960  1.0490 -0.1971  0.1874
   65CHL1  H27B 7289   2.466   0.335   8.808 -0.1557  0.6303  0.1866
   65CHL1  H27C 7290   2.618   0.245   8.850  1.2921  0.2292  1.7043
   66CHL1    C3 7291   0.055   1.912  10.176  0.4773 -0.0848 -0.7482
   66CHL1    H3 7292   0.085   2.010  10.133 -1.6909  0.3233 -1.4567
   66CHL1    O3 7293   0.014   1.929  10.308  0.3621  0.1296  0.1247
   66CHL1   H3' 7294  -0.056   1.864  10.320 -0.5557  0.7647 -1.5464
   66CHL1    C4 7295  -0.052   1.846  10.086 -0.0044  0.4013 -0.2644
   66CHL1   H4A 7296  -0.095   1.757  10.135 -0.0561  1.4183  1.6169
   66CHL1   H4B 7297  -0.141   1.912  10.089 -0.6283 -0.4292  2.4625
   66CHL1    C5 7298  -0.014   1.820   9.946 -0.1843  0.2497 -0.0800
   66CHL1    C6 7299  -0.082   1.877   9.846  0.0989  0.0566 -0.1387
   66CHL1    H6 7300  -0.179   1.924   9.869  0.8580  0.6847  1.9546
   66CHL1    C7 7301  -0.044   1.869   9.695  0.8239  0.1974  0.2658
   66CHL1   H7A 7302  -0.136   1.835   9.644  2.1859  0.0213 -2.1928
   66CHL1   H7B 7303  -0.010   1.968   9.658  1.5883  0.3802  1.4014
   66CHL1    C8 7304   0.064   1.755   9.669  0.2711  0.7940  0.2713
   66CHL1    H8 7305   0.013   1.656   9.672  0.1730  0.6023 -3.1316
   66CHL1   C14 7306   0.133   1.772   9.538 -0.5375 -0.0615 -0.4781
   66CHL1   H14 7307   0.200   1.861   9.545 -0.2820 -0.3073  0.2104
   66CHL1   C15 7308   0.038   1.790   9.420 -0.5406 -0.3022 -0.1311
   66CHL1  H15A 7309  -0.044   1.717   9.435 -0.6051  0.2749  2.8944
   66CHL1  H15B 7310  -0.003   1.893   9.413  0.9952  0.3116 -0.5882
   66CHL1   C16 7311   0.120   1.750   9.294  0.0262  0.4550 -0.6340
   66CHL1  H16A 7312   0.062   1.673   9.238 -0.9413  1.5159 -1.1322
   66CHL1  H16B 7313   0.138   1.841   9.233  1.5362  0.0378 -0.8507
   66CHL1   C17 7314   0.259   1.698   9.356  0.4813 -0.4990  0.3610
   66CHL1   H17 7315   0.324   1.788   9.361 -1.5546  0.9874  1.4827
   66CHL1   C13 7316   0.229   1.659   9.504  0.1892 -0.1625  0.1280
   66CHL1   C18 7317   0.158   1.522   9.505 -0.2791  0.0162 -0.2329
   66CHL1  H18A 7318   0.074   1.521   9.433 -0.3439 -0.5094 -0.1557
   66CHL1  H18B 7319   0.234   1.442   9.488  0.2302  0.3193  0.5066
   66CHL1  H18C 7320   0.117   1.506   9.607 -1.3838  0.3801 -0.6069
   66CHL1   C12 7321   0.342   1.672   9.608  0.6219  0.0395 -0.0698
   66CHL1  H12A 7322   0.416   1.590   9.611 -1.6064 -2.1148  2.8906
   66CHL1  H12B 7323   0.387   1.768   9.576 -1.6193  0.7151 -1.4388
   66CHL1   C11 7324   0.292   1.679   9.750 -0.5302  0.4233  0.0078
   66CHL1  H11A 7325   0.268   1.573   9.771 -1.2604  0.4276 -0.7249
   66CHL1  H11B 7326   0.375   1.694   9.822  1.1380 -1.7972 -1.3311
   66CHL1    C9 7327   0.174   1.767   9.782  0.2494 -0.4351  0.1769
   66CHL1    H9 7328   0.211   1.870   9.763  1.1668 -0.8299 -0.2277
   66CHL1   C10 7329   0.117   1.746   9.927 -0.6578  0.2859  0.1183
   66CHL1   C19 7330   0.077   1.600   9.946  0.0885 -0.1091 -0.3892
   66CHL1  H19A 7331   0.038   1.593  10.050  0.8423  2.6948  0.1544
   66CHL1  H19B 7332  -0.003   1.562   9.878 -0.0277 -1.9109  0.6914
   66CHL1  H19C 7333   0.157   1.523   9.937 -0.6555 -0.8244 -1.1093
   66CHL1    C1 7334   0.226   1.790  10.031 -0.3721 -0.0700 -0.6327
   66CHL1   H1A 7335   0.321   1.734  10.034 -0.8632 -0.8788  0.6369
   66CHL1   H1B 7336   0.263   1.889   9.996  0.7958 -0.3018 -0.0855
   66CHL1    C2 7337   0.172   1.812  10.180 -0.0241  0.6184 -0.0311
   66CHL1   H2A 7338   0.267   1.841  10.231  1.6479 -2.4247 -1.0959
   66CHL1   H2B 7339   0.127   1.718  10.219 -0.3346  0.3430 -1.0276
   66CHL1   C20 7340   0.324   1.598   9.262 -0.3365 -0.4443  0.2703
   66CHL1   H20 7341   0.266   1.503   9.266 -0.8285 -0.2908 -1.9598
   66CHL1   C21 7342   0.472   1.583   9.318  0.3550  0.0991 -0.3272
   66CHL1  H21A 7343   0.464   1.537   9.419  2.8170 -1.1535 -0.6212
   66CHL1  H21B 7344   0.530   1.677   9.318 -1.1693  1.1099  1.0937
   66CHL1  H21C 7345   0.532   1.514   9.255  2.2919  0.4196  1.0647
   66CHL1   C22 7346   0.329   1.644   9.113  0.4873 -0.0476 -0.0221
   66CHL1  H22A 7347   0.231   1.677   9.072 -1.4952 -1.9184  2.8059
   66CHL1  H22B 7348   0.398   1.731   9.119 -0.6944  0.9064 -0.0074
   66CHL1   C23 7349   0.365   1.534   9.021  0.8961  0.9292 -0.0627
   66CHL1  H23A 7350   0.386   1.574   8.920 -0.9160  1.4862 -0.2598
   66CHL1  H23B 7351   0.453   1.483   9.064 -0.1407  1.8785  3.5428
   66CHL1   C24 7352   0.248   1.430   9.005  0.0665  0.1950 -0.6220
   66CHL1  H24A 7353   0.240   1.362   9.093 -1.4815 -0.3731 -1.1721
   66CHL1  H24B 7354   0.152   1.486   9.004  1.1153  2.3921  2.9502
   66CHL1   C25 7355   0.267   1.318   8.898 -0.7896  0.5442  0.7235
   66CHL1   H25 7356   0.371   1.283   8.913 -0.8925  0.1664  0.5801
   66CHL1   C26 7357   0.173   1.200   8.918 -0.4724  0.2399 -0.2536
   66CHL1  H26A 7358   0.201   1.166   9.019 -0.9079  3.7187  1.1956
   66CHL1  H26B 7359   0.066   1.230   8.922 -0.0674  2.1279 -1.8985
   66CHL1  H26C 7360   0.197   1.124   8.841  1.7131  1.6772 -1.0868
   66CHL1   C27 7361   0.278   1.369   8.750  0.2579  0.1806 -0.3998
   66CHL1  H27A 7362   0.370   1.321   8.709 -1.6208 -4.6210  0.3433
   66CHL1  H27B 7363   0.201   1.332   8.679  0.8109  0.0474 -0.9428
   66CHL1  H27C 7364   0.264   1.479   8.747 -1.0061  0.0543  0.2251
   67CHL1    C3 7365   4.401   6.051  10.104  0.5211 -0.0818 -0.4745
   67CHL1    H3 7366   4.448   5.956  10.072  0.6300  0.1077 -0.8838
   67CHL1    O3 7367   4.396   6.047  10.247  0.1712 -0.2487 -0.1084
   67CHL1   H3' 7368   4.366   6.133  10.277 -0.6007 -1.3726  2.7110
   67CHL1    C4 7369   4.483   6.169  10.045  0.3102 -0.3401 -0.3280
   67CHL1   H4A 7370   4.432   6.261  10.080  1.9326 -0.1080  1.6047
   67CHL1   H4B 7371   4.583   6.173  10.093 -1.4016  2.5029  3.6172
   67CHL1    C5 7372   4.482   6.177   9.896  0.5181  0.6281  0.0741
   67CHL1    C6 7373   4.598   6.176   9.832  0.6988 -0.1520  0.3812
   67CHL1    H6 7374   4.691   6.162   9.889 -0.2864 -3.6399  1.3482
   67CHL1    C7 7375   4.621   6.182   9.679  0.5408 -0.1869  0.2171
   67CHL1   H7A 7376   4.696   6.260   9.655  0.5760  0.1332  1.3065
   67CHL1   H7B 7377   4.656   6.080   9.653 -1.8705 -0.8396 -0.7219
   67CHL1    C8 7378   4.482   6.212   9.617  0.3696 -0.2664  0.1117
   67CHL1    H8 7379   4.462   6.319   9.641 -1.4377 -0.9969  2.1850
   67CHL1   C14 7380   4.498   6.181   9.461  0.5691 -0.1774  0.8266
   67CHL1   H14 7381   4.528   6.074   9.458 -0.7870 -0.5671 -1.2492
   67CHL1   C15 7382   4.603   6.261   9.379  0.3341  0.3168  0.3862
   67CHL1  H15A 7383   4.592   6.371   9.391  0.9537  0.1504  3.2883
   67CHL1  H15B 7384   4.709   6.235   9.398 -0.0882 -1.3765  0.5155
   67CHL1   C16 7385   4.560   6.233   9.234  0.8857  0.1316 -0.7544
   67CHL1  H16A 7386   4.546   6.334   9.188  0.0607 -0.6092 -2.2050
   67CHL1  H16B 7387   4.625   6.171   9.168  1.7602  0.0610  0.1443
   67CHL1   C17 7388   4.420   6.159   9.242  1.0054  0.3709  0.3165
   67CHL1   H17 7389   4.446   6.051   9.242 -3.3735 -0.8798 -0.4477
   67CHL1   C13 7390   4.370   6.197   9.383  0.3279  0.1097 -0.3722
   67CHL1   C18 7391   4.320   6.340   9.370 -0.0485  0.9674 -0.4520
   67CHL1  H18A 7392   4.325   6.397   9.465 -2.4323 -0.0073  0.3369
   67CHL1  H18B 7393   4.371   6.405   9.296 -1.4897  4.1633  1.1709
   67CHL1  H18C 7394   4.213   6.335   9.340  0.0382  0.9555 -0.7600
   67CHL1   C12 7395   4.264   6.104   9.444 -0.2701  0.2785  0.6013
   67CHL1  H12A 7396   4.166   6.120   9.394 -2.0234 -2.2496  2.8807
   67CHL1  H12B 7397   4.299   5.999   9.431 -1.5470 -0.0853 -0.1521
   67CHL1   C11 7398   4.243   6.127   9.591  0.7386 -0.3255  0.0444
   67CHL1  H11A 7399   4.189   6.224   9.596  1.6915  0.3093 -1.2496
   67CHL1  H11B 7400   4.177   6.045   9.626  0.5058  0.2476  0.9754
   67CHL1    C9 7401   4.370   6.126   9.679  0.1774  0.5373  0.4344
   67CHL1    H9 7402   4.414   6.024   9.676  1.3092  0.9739  1.4075
   67CHL1   C10 7403   4.344   6.166   9.824  0.2155 -0.8692 -0.2053
   67CHL1   C19 7404   4.260   6.293   9.837 -0.1620  0.5106 -0.1834
   67CHL1  H19A 7405   4.292   6.375   9.770 -1.5361  0.5156 -0.8591
   67CHL1  H19B 7406   4.156   6.255   9.823 -0.9106  2.3219  0.1706
   67CHL1  H19C 7407   4.269   6.339   9.938  0.4242 -0.0483  0.0286
   67CHL1    C1 7408   4.272   6.054   9.894 -0.2294 -0.2669 -0.2973
   67CHL1   H1A 7409   4.170   6.054   9.852 -0.0862  1.6872 -0.7397
   67CHL1   H1B 7410   4.301   5.951   9.862  0.8824  0.0506 -0.3821
   67CHL1    C2 7411   4.261   6.055  10.047  0.4728  0.1583 -0.5703
   67CHL1   H2A 7412   4.195   5.970  10.077 -0.4943  1.5139  1.3714
   67CHL1   H2B 7413   4.203   6.137  10.095  0.0583 -0.2242 -0.4039
   67CHL1   C20 7414   4.330   6.183   9.115 -0.1895 -0.5365 -0.6847
   67CHL1   H20 7415   4.295   6.289   9.123 -1.5235 -1.0330  0.6422
   67CHL1   C21 7416   4.204   6.091   9.116 -0.4091  0.0445 -0.3739
   67CHL1  H21A 7417   4.180   6.056   9.013 -2.5050 -1.2592  0.5006
   67CHL1  H21B 7418   4.115   6.144   9.156 -0.3163 -0.6990  0.8693
   67CHL1  H21C 7419   4.218   5.996   9.172  0.5925  0.3426 -0.1136
   67CHL1   C22 7420   4.418   6.160   8.987  0.1058 -0.5313  1.3462
   67CHL1  H22A 7421   4.363   6.226   8.917  2.3711  0.9357  0.8167
   67CHL1  H22B 7422   4.511   6.220   8.999 -1.1529  1.8219  0.0860
   67CHL1   C23 7423   4.452   6.014   8.936 -1.1373  0.1316  0.0230
   67CHL1  H23A 7424   4.527   5.983   9.012  1.7285  2.6069 -1.6089
   67CHL1  H23B 7425   4.356   5.957   8.941 -1.1906  0.2791  0.9232
   67CHL1   C24 7426   4.509   6.005   8.791  0.5660  0.4742 -0.3761
   67CHL1  H24A 7427   4.429   6.049   8.727  0.8435  1.6111  0.0308
   67CHL1  H24B 7428   4.607   6.056   8.777 -0.8344  2.9488 -2.0910
   67CHL1   C25 7429   4.524   5.860   8.749 -0.3254  0.1106 -0.0989
   67CHL1   H25 7430   4.432   5.807   8.783  0.6498 -0.7689  1.2404
   67CHL1   C26 7431   4.544   5.827   8.599 -0.1432  0.0674  0.6381
   67CHL1  H26A 7432   4.456   5.858   8.539  0.2331 -0.1787 -0.0503
   67CHL1  H26B 7433   4.620   5.884   8.542 -1.1371 -1.2117 -2.1426
   67CHL1  H26C 7434   4.557   5.718   8.583 -1.4848  0.2084 -2.0357
   67CHL1   C27 7435   4.642   5.803   8.833  0.6718 -0.0987  0.6938
   67CHL1  H27A 7436   4.617   5.795   8.941 -0.0473 -1.8711  0.4332
   67CHL1  H27B 7437   4.645   5.697   8.800 -2.1459  0.1680 -0.6707
   67CHL1  H27C 7438   4.741   5.852   8.818 -0.5911  2.6713  0.8515
   68CHL1    C3 7439   0.946   1.007  10.047 -0.7804 -0.0163 -0.0070
   68CHL1    H3 7440   1.046   1.025  10.000 -1.1391  0.8314 -0.4761
   68CHL1    O3 7441   0.955   1.048  10.176  0.0426  0.0871  0.6947
   68CHL1   H3' 7442   0.913   0.986  10.235 -2.3413  0.6266 -0.2973
   68CHL1    C4 7443   0.833   1.086   9.971  0.5439 -0.1686 -0.5117
   68CHL1   H4A 7444   0.742   1.069  10.033 -0.1924  0.8038 -1.2902
   68CHL1   H4B 7445   0.850   1.196   9.978  1.3840 -0.2591 -0.9915
   68CHL1    C5 7446   0.825   1.036   9.829 -0.3228 -0.3922 -0.7807
   68CHL1    C6 7447   0.844   1.130   9.734  0.1282  0.3628  0.5048
   68CHL1    H6 7448   0.854   1.234   9.770 -1.4537  0.3421  1.0940
   68CHL1    C7 7449   0.830   1.097   9.586  0.1401  0.1080  0.3865
   68CHL1   H7A 7450   0.754   1.169   9.549 -0.5304 -0.2393  1.0602
   68CHL1   H7B 7451   0.930   1.117   9.542  1.0502 -1.2304  1.7424
   68CHL1    C8 7452   0.793   0.950   9.554 -0.2736  0.5337 -0.0689
   68CHL1    H8 7453   0.682   0.953   9.558 -0.2160  1.9022  1.8084
   68CHL1   C14 7454   0.839   0.909   9.416 -0.0969  1.2448 -0.1940
   68CHL1   H14 7455   0.950   0.911   9.412 -0.0603 -0.5521 -1.1079
   68CHL1   C15 7456   0.796   0.995   9.297 -0.7303 -0.4977  0.8663
   68CHL1  H15A 7457   0.686   0.999   9.309 -0.6021 -1.1248  2.6126
   68CHL1  H15B 7458   0.835   1.099   9.292  0.9318 -1.1113  0.1607
   68CHL1   C16 7459   0.836   0.908   9.178  0.2835  0.2957  0.1429
   68CHL1  H16A 7460   0.740   0.899   9.123  0.4838 -1.5102  0.0312
   68CHL1  H16B 7461   0.922   0.936   9.113  1.0844 -0.4833  0.8337
   68CHL1   C17 7462   0.860   0.757   9.232  0.1281 -0.1776 -0.0885
   68CHL1   H17 7463   0.968   0.735   9.245  0.3231  0.2615 -0.8752
   68CHL1   C13 7464   0.806   0.763   9.379  0.5700  0.8971 -0.0167
   68CHL1   C18 7465   0.653   0.742   9.381 -0.7255  0.2775  0.3048
   68CHL1  H18A 7466   0.613   0.775   9.479 -0.7879 -0.5823  0.5769
   68CHL1  H18B 7467   0.595   0.797   9.304 -0.0136  0.0253 -0.4371
   68CHL1  H18C 7468   0.627   0.635   9.367 -0.9160  0.3426  0.1571
   68CHL1   C12 7469   0.884   0.672   9.478  0.1049  0.7362  0.0771
   68CHL1  H12A 7470   0.864   0.566   9.452  1.3110  0.3834  0.5182
   68CHL1  H12B 7471   0.994   0.681   9.476  0.1895 -0.2627 -0.2036
   68CHL1   C11 7472   0.829   0.707   9.624  0.0265  0.4894 -0.1938
   68CHL1  H11A 7473   0.721   0.689   9.642  0.0053  0.6547 -0.1603
   68CHL1  H11B 7474   0.885   0.640   9.694 -0.8610 -0.3395 -0.2537
   68CHL1    C9 7475   0.853   0.855   9.659  0.3699 -0.7807 -0.4955
   68CHL1    H9 7476   0.962   0.866   9.648  0.4446 -0.2187  0.6499
   68CHL1   C10 7477   0.812   0.887   9.806  0.5927 -0.2743  0.7821
   68CHL1   C19 7478   0.655   0.852   9.818 -0.1327 -0.3651 -0.2732
   68CHL1  H19A 7479   0.602   0.897   9.731 -0.1524 -1.5086 -0.8764
   68CHL1  H19B 7480   0.649   0.741   9.817 -2.2852 -0.4067  3.2589
   68CHL1  H19C 7481   0.614   0.876   9.918  0.6569 -1.2886  0.2837
   68CHL1    C1 7482   0.898   0.807   9.904 -0.3839 -0.1000  0.0478
   68CHL1   H1A 7483   0.872   0.699   9.900  1.3642 -0.5113 -1.1289
   68CHL1   H1B 7484   1.004   0.824   9.875 -0.4591  3.3461  1.3202
   68CHL1    C2 7485   0.905   0.858  10.048 -0.5170 -0.2979 -0.7666
   68CHL1   H2A 7486   0.988   0.800  10.092 -1.5470 -0.5456  0.9208
   68CHL1   H2B 7487   0.812   0.839  10.105 -0.7185 -1.5370 -1.4544
   68CHL1   C20 7488   0.797   0.652   9.143  0.2772 -0.2149  0.3809
   68CHL1   H20 7489   0.688   0.675   9.134  0.4166  0.2117 -0.2090
   68CHL1   C21 7490   0.823   0.511   9.194 -0.3295  0.2086 -0.2323
   68CHL1  H21A 7491   0.753   0.492   9.279 -0.4459 -0.4014 -0.4582
   68CHL1  H21B 7492   0.928   0.502   9.227 -0.2748  3.5295  0.8820
   68CHL1  H21C 7493   0.794   0.436   9.117  1.5992 -1.6224  0.7183
   68CHL1   C22 7494   0.851   0.659   8.995 -0.1131  0.5410 -0.4032
   68CHL1  H22A 7495   0.812   0.572   8.937 -2.0331  0.9490  0.2297
   68CHL1  H22B 7496   0.825   0.758   8.953 -0.5591  0.3954 -0.4653
   68CHL1   C23 7497   1.012   0.649   8.992 -0.1941 -0.2970  0.3786
   68CHL1  H23A 7498   1.051   0.732   9.055 -0.9529  0.3285  0.0341
   68CHL1  H23B 7499   1.047   0.556   9.043  2.1067  0.1006 -0.3634
   68CHL1   C24 7500   1.061   0.639   8.851 -0.9858 -0.2031 -0.8707
   68CHL1  H24A 7501   0.989   0.688   8.781 -0.2473  0.1325 -1.4141
   68CHL1  H24B 7502   1.154   0.694   8.826  0.2704 -3.0952 -3.1808
   68CHL1   C25 7503   1.073   0.493   8.807 -0.6490 -0.7580 -0.3301
   68CHL1   H25 7504   0.974   0.447   8.829 -0.0445 -3.6946 -2.9502
   68CHL1   C26 7505   1.089   0.490   8.654 -0.8756 -0.1127 -0.0671
   68CHL1  H26A 7506   1.171   0.561   8.629 -2.4103  2.3881  1.6184
   68CHL1  H26B 7507   1.100   0.385   8.618 -1.0402 -0.2796  0.3680
   68CHL1  H26C 7508   0.993   0.528   8.612 -0.9123  3.0871  2.5035
   68CHL1   C27 7509   1.190   0.419   8.876  0.3232 -0.3323  0.7443
   68CHL1  H27A 7510   1.284   0.480   8.876  1.9596 -2.6572 -1.1250
   68CHL1  H27B 7511   1.182   0.372   8.976  1.9806 -2.2476  0.0546
   68CHL1  H27C 7512   1.212   0.326   8.820 -1.5228 -0.2565 -0.1647
   69CHL1    C3 7513   0.130   0.888   6.748 -0.3534 -0.4865  0.7840
   69CHL1    H3 7514   0.177   0.789   6.767 -0.3629 -0.7470 -0.4302
   69CHL1    O3 7515   0.085   0.892   6.611 -0.3673 -0.1503  0.3877
   69CHL1   H3' 7516   0.129   0.966   6.569 -0.8296 -0.5064 -0.7522
   69CHL1    C4 7517   0.008   0.911   6.841 -0.5105  0.0286 -0.2820
   69CHL1   H4A 7518  -0.039   1.008   6.810 -0.7020  0.8290  2.2865
   69CHL1   H4B 7519  -0.071   0.837   6.818 -0.3194  0.0283 -0.9804
   69CHL1    C5 7520   0.038   0.917   6.984  0.5278  0.6254 -0.8342
   69CHL1    C6 7521  -0.022   0.839   7.075 -0.6262  0.7255  0.3466
   69CHL1    H6 7522  -0.103   0.775   7.037  0.5862 -0.0135 -1.0378
   69CHL1    C7 7523   0.006   0.851   7.220 -0.3956 -0.3586 -0.0436
   69CHL1   H7A 7524  -0.087   0.865   7.279 -0.6138 -3.5553  0.5548
   69CHL1   H7B 7525   0.055   0.758   7.256  0.2007 -0.8142 -1.9637
   69CHL1    C8 7526   0.091   0.971   7.269 -0.6365 -0.3232 -0.4569
   69CHL1    H8 7527   0.031   1.065   7.276 -2.6611 -1.5686 -0.4778
   69CHL1   C14 7528   0.156   0.941   7.399  0.4258  0.4402  0.0702
   69CHL1   H14 7529   0.222   0.852   7.389  2.3667  1.8112  0.1289
   69CHL1   C15 7530   0.055   0.901   7.507 -0.3800 -0.1467 -0.6485
   69CHL1  H15A 7531  -0.020   0.983   7.513  0.5381  0.6406  0.9811
   69CHL1  H15B 7532   0.016   0.797   7.504 -0.5744 -0.1242  0.4655
   69CHL1   C16 7533   0.124   0.929   7.639  0.2597 -0.4628 -0.5381
   69CHL1  H16A 7534   0.069   1.004   7.700  0.8981 -0.7847  0.4430
   69CHL1  H16B 7535   0.142   0.832   7.689 -0.3643  0.1438  0.9293
   69CHL1   C17 7536   0.262   0.993   7.601 -0.3665 -0.8151  0.3886
   69CHL1   H17 7537   0.329   0.910   7.572  2.2745  1.1201  0.5742
   69CHL1   C13 7538   0.236   1.057   7.460  0.2325 -0.4970 -0.3689
   69CHL1   C18 7539   0.161   1.191   7.472 -0.5404 -0.2478 -0.6902
   69CHL1  H18A 7540   0.214   1.268   7.532 -2.7346  1.4322 -0.8142
   69CHL1  H18B 7541   0.152   1.241   7.374  1.2606 -1.3564 -1.4918
   69CHL1  H18C 7542   0.059   1.171   7.512  0.0630 -2.2636  0.0137
   69CHL1   C12 7543   0.358   1.075   7.364  0.0207 -0.4658  0.1604
   69CHL1  H12A 7544   0.416   1.166   7.392  0.3190 -0.5303 -0.2356
   69CHL1  H12B 7545   0.424   0.986   7.374 -0.6546 -1.1719 -1.3849
   69CHL1   C11 7546   0.317   1.091   7.219 -0.3582 -0.1143  0.9598
   69CHL1  H11A 7547   0.264   1.187   7.200 -2.3867 -1.1080  1.3426
   69CHL1  H11B 7548   0.408   1.085   7.155 -0.9856 -0.9600  0.1184
   69CHL1    C9 7549   0.206   0.990   7.167 -0.2491  0.0682  0.2475
   69CHL1    H9 7550   0.257   0.891   7.169  1.5524  0.9691  1.4675
   69CHL1   C10 7551   0.156   1.014   7.016  1.0884 -0.5901  0.3935
   69CHL1   C19 7552   0.106   1.160   7.010 -0.5229  0.0980  0.4235
   69CHL1  H19A 7553   0.046   1.180   6.919  2.2531 -1.6523 -1.9703
   69CHL1  H19B 7554   0.034   1.173   7.093  0.1088  0.9890  0.8574
   69CHL1  H19C 7555   0.185   1.237   7.028  1.1626 -1.5400  0.2861
   69CHL1    C1 7556   0.270   0.998   6.919 -0.5043 -0.4687 -0.3657
   69CHL1   H1A 7557   0.341   1.081   6.936 -1.6918  0.1500  2.0374
   69CHL1   H1B 7558   0.317   0.901   6.945 -1.9676 -0.8440  1.0080
   69CHL1    C2 7559   0.239   0.996   6.772 -0.1444  0.3216  0.2787
   69CHL1   H2A 7560   0.339   0.976   6.728  1.0266  1.8282  2.0978
   69CHL1   H2B 7561   0.198   1.093   6.738 -2.7376 -0.8219 -0.1245
   69CHL1   C20 7562   0.328   1.086   7.706 -0.6465 -0.0338 -0.1547
   69CHL1   H20 7563   0.279   1.186   7.695 -1.1573 -0.2931 -0.2790
   69CHL1   C21 7564   0.480   1.090   7.670 -0.4969  0.2266 -0.3524
   69CHL1  H21A 7565   0.537   1.007   7.719 -0.9067  0.9253  1.3976
   69CHL1  H21B 7566   0.532   1.182   7.705 -0.7297 -0.1638  1.0688
   69CHL1  H21C 7567   0.505   1.089   7.562 -1.4256 -2.0613 -0.5873
   69CHL1   C22 7568   0.309   1.035   7.848  0.5769  0.5398 -0.0105
   69CHL1  H22A 7569   0.202   1.019   7.875  0.7470  0.7620  0.8183
   69CHL1  H22B 7570   0.339   0.929   7.862  2.0533  0.8401 -0.7538
   69CHL1   C23 7571   0.367   1.127   7.949 -0.1708  0.3014 -0.0051
   69CHL1  H23A 7572   0.477   1.125   7.932 -0.3135 -0.5031 -0.8977
   69CHL1  H23B 7573   0.337   1.229   7.917 -0.1762  0.3817  0.2516
   69CHL1   C24 7574   0.318   1.092   8.095 -0.5976 -0.1486  0.5650
   69CHL1  H24A 7575   0.208   1.074   8.095 -1.5749  4.4003  1.2563
   69CHL1  H24B 7576   0.370   0.998   8.121  1.4690  1.3821  2.2407
   69CHL1   C25 7577   0.357   1.209   8.191  0.0325  0.5038  0.2310
   69CHL1   H25 7578   0.452   1.259   8.163 -0.7854  0.5618 -2.7700
   69CHL1   C26 7579   0.251   1.324   8.186  0.0381 -1.1912 -0.4490
   69CHL1  H26A 7580   0.263   1.381   8.280  1.1399 -1.7645 -0.2293
   69CHL1  H26B 7581   0.278   1.387   8.098 -0.5852  0.9135  0.8033
   69CHL1  H26C 7582   0.149   1.288   8.161 -0.7020  0.8748 -0.5880
   69CHL1   C27 7583   0.369   1.151   8.333  0.0494  0.3816  0.5225
   69CHL1  H27A 7584   0.439   1.065   8.328  0.5427  0.8250 -0.3787
   69CHL1  H27B 7585   0.414   1.228   8.399  1.2678 -0.8987  1.2412
   69CHL1  H27C 7586   0.274   1.111   8.376  0.5326 -0.2153  1.0606
   70CHL1    C3 7587   0.528   2.588   6.918  0.2911  0.0190 -0.6963
   70CHL1    H3 7588   0.469   2.494   6.918  2.5205 -1.5338  1.9758
   70CHL1    O3 7589   0.538   2.648   6.788 -0.3276  0.0356 -1.0389
   70CHL1   H3' 7590   0.625   2.625   6.754 -0.2370  1.8026 -2.1535
   70CHL1    C4 7591   0.473   2.695   7.011 -0.3647  0.8549 -0.2199
   70CHL1   H4A 7592   0.532   2.789   7.003  4.2177 -1.7399 -0.3401
   70CHL1   H4B 7593   0.371   2.730   6.983 -0.5349  0.5722  0.0367
   70CHL1    C5 7594   0.471   2.645   7.155 -0.0482 -0.4776 -0.3184
   70CHL1    C6 7595   0.354   2.633   7.227 -0.5355  0.5720  0.1880
   70CHL1    H6 7596   0.267   2.668   7.170  0.9505  2.1746 -1.1929
   70CHL1    C7 7597   0.349   2.594   7.372 -0.3297 -0.1724  0.3139
   70CHL1   H7A 7598   0.290   2.669   7.428  0.0285  0.1294  0.2891
   70CHL1   H7B 7599   0.291   2.500   7.385 -1.9332  0.7341 -0.0657
   70CHL1    C8 7600   0.490   2.596   7.436  0.2000 -0.7798  0.6014
   70CHL1    H8 7601   0.518   2.704   7.441 -0.6009 -0.5171 -0.3369
   70CHL1   C14 7602   0.476   2.539   7.571  0.4171  0.3529  0.4447
   70CHL1   H14 7603   0.437   2.435   7.568  0.1326  0.4512  0.7091
   70CHL1   C15 7604   0.380   2.605   7.675 -0.4643  0.0168  0.7163
   70CHL1  H15A 7605   0.390   2.715   7.686 -0.4491 -0.2258  4.3695
   70CHL1  H15B 7606   0.271   2.585   7.665 -0.5413  0.9291 -0.4709
   70CHL1   C16 7607   0.426   2.550   7.813 -0.3461  0.3403  0.7521
   70CHL1  H16A 7608   0.425   2.632   7.889 -1.7112  1.0420  0.0177
   70CHL1  H16B 7609   0.351   2.475   7.846 -1.6279  1.7528  1.1779
   70CHL1   C17 7610   0.554   2.473   7.790  0.1236 -0.4486  0.1763
   70CHL1   H17 7611   0.526   2.366   7.776 -2.6788 -0.1228  2.3644
   70CHL1   C13 7612   0.609   2.512   7.644  0.0787  0.3905 -0.0515
   70CHL1   C18 7613   0.686   2.646   7.655  0.1324 -0.0328 -0.4426
   70CHL1  H18A 7614   0.630   2.718   7.718 -1.9783 -0.4094 -1.7905
   70CHL1  H18B 7615   0.787   2.638   7.702  0.3121  1.6922 -0.4927
   70CHL1  H18C 7616   0.688   2.698   7.557  0.4529  0.6684 -0.0742
   70CHL1   C12 7617   0.697   2.416   7.558 -0.1885  0.2498  0.2007
   70CHL1  H12A 7618   0.799   2.412   7.603 -0.1325 -0.3994  0.0320
   70CHL1  H12B 7619   0.649   2.316   7.551 -0.6690  0.5775 -1.8196
   70CHL1   C11 7620   0.716   2.481   7.423  0.1023  0.2291 -0.6475
   70CHL1  H11A 7621   0.790   2.564   7.429  0.2870  0.0021  0.2708
   70CHL1  H11B 7622   0.758   2.397   7.363  1.1868  0.4660 -0.2540
   70CHL1    C9 7623   0.586   2.521   7.355 -0.4992 -0.8405  1.3736
   70CHL1    H9 7624   0.540   2.423   7.331  0.1619 -0.9148  0.2795
   70CHL1   C10 7625   0.601   2.594   7.211 -0.4581  0.2903  0.5102
   70CHL1   C19 7626   0.690   2.720   7.230  0.2792 -0.0694 -0.2066
   70CHL1  H19A 7627   0.787   2.700   7.280  0.6985  0.3152 -0.8424
   70CHL1  H19B 7628   0.717   2.773   7.136  0.2259 -1.5771 -1.1032
   70CHL1  H19C 7629   0.636   2.792   7.296  2.3292 -1.2351  2.9446
   70CHL1    C1 7630   0.664   2.495   7.106  0.3934  0.2505 -0.2836
   70CHL1   H1A 7631   0.763   2.474   7.152  0.7491  3.3781  0.6105
   70CHL1   H1B 7632   0.603   2.402   7.105  1.9039 -0.7880  0.3187
   70CHL1    C2 7633   0.665   2.543   6.965 -1.2796 -0.1019  1.0996
   70CHL1   H2A 7634   0.700   2.460   6.900  2.4118  2.5480 -0.6282
   70CHL1   H2B 7635   0.733   2.630   6.967 -1.8836  0.3777  2.7378
   70CHL1   C20 7636   0.655   2.471   7.897  0.8444  0.3115 -0.1476
   70CHL1   H20 7637   0.683   2.578   7.907  2.5585 -0.0983 -0.2437
   70CHL1   C21 7638   0.778   2.385   7.872 -0.1313 -0.2482  0.2052
   70CHL1  H21A 7639   0.834   2.366   7.966 -0.1897  1.7254  0.6789
   70CHL1  H21B 7640   0.844   2.454   7.816  0.0951 -0.9478 -0.3997
   70CHL1  H21C 7641   0.757   2.292   7.815  1.8233  0.5587 -1.9807
   70CHL1   C22 7642   0.595   2.415   8.031  0.5187  0.4755 -0.0187
   70CHL1  H22A 7643   0.500   2.472   8.047 -0.3537 -1.0068  0.2188
   70CHL1  H22B 7644   0.568   2.308   8.029  0.5210  0.4697  0.2245
   70CHL1   C23 7645   0.683   2.447   8.158  0.1605 -0.8442 -0.0040
   70CHL1  H23A 7646   0.617   2.434   8.246 -2.0339  1.0505 -1.2645
   70CHL1  H23B 7647   0.773   2.383   8.170  0.6624 -0.8346 -3.0446
   70CHL1   C24 7648   0.744   2.585   8.169 -0.9218 -0.3037 -0.3054
   70CHL1  H24A 7649   0.826   2.593   8.094 -1.3688  0.4310 -0.7235
   70CHL1  H24B 7650   0.665   2.662   8.158  0.1244  1.1035  1.4620
   70CHL1   C25 7651   0.809   2.636   8.299 -0.6320 -0.5249  0.4408
   70CHL1   H25 7652   0.830   2.743   8.277  0.7372 -0.6190  1.1841
   70CHL1   C26 7653   0.721   2.630   8.423 -0.1272  0.0930 -0.3629
   70CHL1  H26A 7654   0.712   2.524   8.452  0.9536 -0.1581 -0.9271
   70CHL1  H26B 7655   0.763   2.688   8.508 -0.3571 -0.7970  0.3643
   70CHL1  H26C 7656   0.617   2.666   8.402  0.8368  2.0722 -2.2329
   70CHL1   C27 7657   0.939   2.569   8.334 -0.4468  0.8108 -0.1699
   70CHL1  H27A 7658   1.021   2.580   8.259  0.5173 -0.5419  0.6508
   70CHL1  H27B 7659   0.963   2.622   8.429  0.1387 -2.2535  1.4984
   70CHL1  H27C 7660   0.916   2.461   8.346  1.1429  0.4610 -0.0539
   71CHL1    C3 7661   5.703   5.217   6.732 -0.1207  0.4123 -1.5335
   71CHL1    H3 7662   5.696   5.115   6.775 -1.7695  1.0504 -0.1846
   71CHL1    O3 7663   5.704   5.217   6.590 -0.2082  0.3782 -0.2443
   71CHL1   H3' 7664   5.616   5.226   6.555 -0.3412 -1.2930 -0.4631
   71CHL1    C4 7665   5.590   5.303   6.777 -0.6640  0.0649 -0.6643
   71CHL1   H4A 7666   5.603   5.399   6.722  0.3401 -0.4539 -1.3638
   71CHL1   H4B 7667   5.494   5.271   6.732 -0.7067 -0.8860  0.0824
   71CHL1    C5 7668   5.586   5.321   6.928  0.4122 -0.5235  0.3705
   71CHL1    C6 7669   5.474   5.307   7.003 -0.0145 -0.5989  0.6040
   71CHL1    H6 7670   5.377   5.287   6.954  0.0819  0.6820 -0.1611
   71CHL1    C7 7671   5.473   5.331   7.147 -0.4742  1.1232 -0.1833
   71CHL1   H7A 7672   5.374   5.375   7.172 -0.3890  1.5716 -0.6022
   71CHL1   H7B 7673   5.466   5.226   7.183  0.8396  0.7218 -1.0162
   71CHL1    C8 7674   5.594   5.396   7.221  0.5064  0.2053 -0.6795
   71CHL1    H8 7675   5.588   5.506   7.207 -0.2270  0.0651 -1.5624
   71CHL1   C14 7676   5.606   5.355   7.369 -0.1490 -0.4576  0.0711
   71CHL1   H14 7677   5.620   5.245   7.374  1.8582 -0.1994  1.3378
   71CHL1   C15 7678   5.478   5.387   7.450 -0.0510  0.1924  0.1086
   71CHL1  H15A 7679   5.434   5.487   7.433 -0.9692 -0.0636  0.9578
   71CHL1  H15B 7680   5.403   5.306   7.436  0.6470 -0.1806 -1.8084
   71CHL1   C16 7681   5.531   5.404   7.589  0.0764 -0.0047 -0.0447
   71CHL1  H16A 7682   5.507   5.506   7.627 -1.9184 -0.7931  0.9450
   71CHL1  H16B 7683   5.497   5.328   7.663 -0.8917  0.3776 -0.0817
   71CHL1   C17 7684   5.686   5.383   7.589 -0.6640 -0.1337  0.6409
   71CHL1   H17 7685   5.702   5.274   7.609 -4.1031 -0.6310  1.4478
   71CHL1   C13 7686   5.723   5.424   7.445 -0.2370  0.5514  0.8146
   71CHL1   C18 7687   5.708   5.582   7.440 -0.6779  0.0267  0.0751
   71CHL1  H18A 7688   5.608   5.611   7.478 -1.7734 -2.0369 -1.0367
   71CHL1  H18B 7689   5.796   5.625   7.492 -2.1189  3.5797 -0.1590
   71CHL1  H18C 7690   5.721   5.619   7.336  0.6018  0.9316  0.5323
   71CHL1   C12 7691   5.851   5.371   7.376 -0.7015  0.2374 -0.3673
   71CHL1  H12A 7692   5.940   5.417   7.424 -1.5361 -0.3222  1.8139
   71CHL1  H12B 7693   5.869   5.265   7.407 -0.8901  0.1366 -0.5944
   71CHL1   C11 7694   5.848   5.399   7.228 -0.5714  0.8681 -0.4024
   71CHL1  H11A 7695   5.866   5.507   7.209  1.0589  0.7786  0.4596
   71CHL1  H11B 7696   5.938   5.355   7.181 -1.3205  2.5010 -3.6635
   71CHL1    C9 7697   5.728   5.343   7.154  0.6624 -0.6385  0.5736
   71CHL1    H9 7698   5.725   5.234   7.173 -1.1867 -0.7659 -0.1988
   71CHL1   C10 7699   5.727   5.357   6.998 -0.2816 -0.3762  0.0304
   71CHL1   C19 7700   5.759   5.510   6.971  0.0949 -0.4510  0.4501
   71CHL1  H19A 7701   5.861   5.534   7.008 -0.2403 -0.1711  1.2203
   71CHL1  H19B 7702   5.752   5.529   6.862 -2.2319 -1.5054  0.3583
   71CHL1  H19C 7703   5.704   5.589   7.027  2.4677  1.8054 -0.2234
   71CHL1    C1 7704   5.846   5.279   6.936 -0.3709  0.2091 -0.5541
   71CHL1   H1A 7705   5.942   5.316   6.978 -0.5023  1.7449 -1.5250
   71CHL1   H1B 7706   5.837   5.175   6.975 -0.7188 -0.3616 -2.0814
   71CHL1    C2 7707   5.839   5.272   6.780 -0.5523  0.0370 -0.5069
   71CHL1   H2A 7708   5.917   5.205   6.737  1.1663  1.2741  0.5717
   71CHL1   H2B 7709   5.866   5.373   6.743  0.9136 -0.8455 -2.0592
   71CHL1   C20 7710   5.741   5.458   7.710 -0.3636 -0.7091 -0.1849
   71CHL1   H20 7711   5.703   5.562   7.706  1.2614 -0.1390 -1.5594
   71CHL1   C21 7712   5.888   5.462   7.700 -0.6346 -0.6068  0.2433
   71CHL1  H21A 7713   5.929   5.516   7.787 -3.0894  0.2820  0.9179
   71CHL1  H21B 7714   5.933   5.509   7.610 -1.2396 -0.4767  0.0012
   71CHL1  H21C 7715   5.926   5.358   7.697  0.4965 -0.1795 -1.2634
   71CHL1   C22 7716   5.701   5.404   7.847 -0.3418  1.1485  0.0915
   71CHL1  H22A 7717   5.594   5.375   7.854  0.1686 -1.8382 -2.4202
   71CHL1  H22B 7718   5.758   5.309   7.848 -0.1169  1.1664 -2.7098
   71CHL1   C23 7719   5.739   5.482   7.975 -0.1249  0.0252 -0.0764
   71CHL1  H23A 7720   5.731   5.427   8.071 -0.7012 -1.2085 -0.8013
   71CHL1  H23B 7721   5.843   5.521   7.975 -1.1883  3.3021  2.3756
   71CHL1   C24 7722   5.650   5.608   7.995  0.1786  0.0015  0.0547
   71CHL1  H24A 7723   5.670   5.681   7.914  0.2625  1.4038  1.2927
   71CHL1  H24B 7724   5.543   5.580   7.990  0.6919 -2.0059 -0.5835
   71CHL1   C25 7725   5.674   5.681   8.128 -0.4491 -0.4784  0.1067
   71CHL1   H25 7726   5.783   5.701   8.138 -0.4092 -0.0570 -1.0082
   71CHL1   C26 7727   5.609   5.814   8.140 -0.7242 -1.0717 -0.3037
   71CHL1  H26A 7728   5.500   5.806   8.158 -0.9608  2.0009  0.2289
   71CHL1  H26B 7729   5.659   5.860   8.228 -2.4260 -1.3107  0.8268
   71CHL1  H26C 7730   5.632   5.879   8.052  1.9522  0.4431  1.3835
   71CHL1   C27 7731   5.629   5.599   8.246 -0.2974  1.0247 -0.3224
   71CHL1  H27A 7732   5.615   5.669   8.332 -0.5447 -0.1608  0.6378
   71CHL1  H27B 7733   5.534   5.544   8.228  0.0992  0.5945 -1.1575
   71CHL1  H27C 7734   5.705   5.524   8.276 -4.6864 -3.2005  1.4987
   72CHL1    C3 7735   5.411   2.297   7.226 -0.7295 -0.1165  0.2889
   72CHL1    H3 7736   5.442   2.191   7.215 -1.6344 -0.4201  0.5232
   72CHL1    O3 7737   5.386   2.346   7.094  0.1998 -1.1742 -0.0196
   72CHL1   H3' 7738   5.466   2.309   7.055  0.6527 -2.0288  1.6113
   72CHL1    C4 7739   5.280   2.297   7.307 -0.1173 -0.0764 -0.8249
   72CHL1   H4A 7740   5.226   2.394   7.310  0.0327  0.0225  2.8658
   72CHL1   H4B 7741   5.218   2.224   7.252  2.0272 -3.1503  0.5887
   72CHL1    C5 7742   5.300   2.253   7.452 -0.1120 -0.1964  0.3756
   72CHL1    C6 7743   5.227   2.154   7.510 -0.1747  0.9093  0.2827
   72CHL1    H6 7744   5.150   2.100   7.453  0.3253  0.3975  0.0863
   72CHL1    C7 7745   5.232   2.114   7.657 -0.1295 -0.2244  0.6045
   72CHL1   H7A 7746   5.127   2.114   7.694 -0.3233  0.3329  0.0662
   72CHL1   H7B 7747   5.267   2.011   7.680 -0.9047 -0.5808  0.2360
   72CHL1    C8 7748   5.318   2.222   7.743 -0.0631  0.7296 -0.3749
   72CHL1    H8 7749   5.255   2.313   7.757 -1.6756 -0.7193  2.7752
   72CHL1   C14 7750   5.349   2.158   7.879  0.8306 -0.2991  0.0399
   72CHL1   H14 7751   5.409   2.069   7.848 -0.0195 -1.2746  1.0988
   72CHL1   C15 7752   5.248   2.095   7.970 -0.2352  0.1620 -0.2772
   72CHL1  H15A 7753   5.168   2.171   7.983 -0.2742 -0.1360  1.4271
   72CHL1  H15B 7754   5.198   2.004   7.930  1.5458 -1.3158  0.6996
   72CHL1   C16 7755   5.312   2.083   8.105 -0.1533 -0.6552  0.4315
   72CHL1  H16A 7756   5.247   2.126   8.184 -0.1714  0.2938 -0.0855
   72CHL1  H16B 7757   5.351   1.983   8.134 -0.2196 -1.2859 -1.5647
   72CHL1   C17 7758   5.444   2.166   8.098  0.4430 -0.0016  0.0541
   72CHL1   H17 7759   5.521   2.087   8.088  2.0859  0.7797  4.2474
   72CHL1   C13 7760   5.434   2.249   7.969 -0.6820 -0.1362 -0.3864
   72CHL1   C18 7761   5.350   2.375   7.991  0.0006  0.3455  0.8081
   72CHL1  H18A 7762   5.243   2.367   8.023 -0.1312 -1.1458  0.0977
   72CHL1  H18B 7763   5.399   2.450   8.056 -0.7222 -0.6437  2.5980
   72CHL1  H18C 7764   5.347   2.426   7.893  0.9292 -0.4279  0.3656
   72CHL1   C12 7765   5.566   2.276   7.892 -0.0203  0.4519 -0.1286
   72CHL1  H12A 7766   5.634   2.340   7.953  0.0327  1.6836 -1.4177
   72CHL1  H12B 7767   5.617   2.178   7.888  1.3904  1.1061  0.7458
   72CHL1   C11 7768   5.548   2.335   7.753  0.8224  0.1494  0.5340
   72CHL1  H11A 7769   5.535   2.446   7.757  0.5639  0.2416 -1.7555
   72CHL1  H11B 7770   5.646   2.325   7.702  0.3663  0.1601 -0.3558
   72CHL1    C9 7771   5.443   2.258   7.668 -0.4990 -0.0207  1.3948
   72CHL1    H9 7772   5.493   2.165   7.632  1.6189  0.9004  1.8350
   72CHL1   C10 7773   5.417   2.325   7.533  0.0860  0.5604  0.0161
   72CHL1   C19 7774   5.366   2.470   7.561 -0.5816 -0.4167 -0.1177
   72CHL1  H19A 7775   5.354   2.516   7.461 -1.1484 -0.6093 -0.1416
   72CHL1  H19B 7776   5.269   2.479   7.616  0.1559  2.7225  0.9240
   72CHL1  H19C 7777   5.447   2.528   7.610 -0.4636  0.5097 -1.3776
   72CHL1    C1 7778   5.537   2.307   7.441 -0.3029 -0.5838 -0.9303
   72CHL1   H1A 7779   5.623   2.362   7.486  1.8288 -3.1661 -1.6219
   72CHL1   H1B 7780   5.563   2.200   7.439 -0.8575 -0.7776  0.5772
   72CHL1    C2 7781   5.524   2.371   7.295 -0.0428 -0.1230 -0.6359
   72CHL1   H2A 7782   5.622   2.369   7.243 -0.4334  2.2002 -1.5908
   72CHL1   H2B 7783   5.503   2.479   7.313 -0.8527  0.0427 -2.3526
   72CHL1   C20 7784   5.475   2.237   8.236 -0.5823 -0.1430 -0.0606
   72CHL1   H20 7785   5.397   2.308   8.269  0.6148  1.0670  0.2743
   72CHL1   C21 7786   5.597   2.333   8.215 -0.0218 -0.3897 -0.8459
   72CHL1  H21A 7787   5.563   2.422   8.158 -0.7405  1.4991  2.2934
   72CHL1  H21B 7788   5.675   2.279   8.157 -0.8628  0.5602 -2.9629
   72CHL1  H21C 7789   5.641   2.366   8.312 -1.9583 -0.0957 -0.0287
   72CHL1   C22 7790   5.487   2.129   8.357  0.2795 -0.4622  0.5195
   72CHL1  H22A 7791   5.385   2.087   8.371  0.3563 -0.6873  0.4138
   72CHL1  H22B 7792   5.557   2.046   8.333 -1.3476 -1.7028 -0.1641
   72CHL1   C23 7793   5.529   2.193   8.485 -0.0252  0.3216 -0.1373
   72CHL1  H23A 7794   5.632   2.235   8.476 -0.0283  0.2505 -0.5140
   72CHL1  H23B 7795   5.457   2.277   8.499 -0.2819  0.0867 -0.0529
   72CHL1   C24 7796   5.512   2.100   8.609  0.0130 -0.5079 -0.3584
   72CHL1  H24A 7797   5.408   2.069   8.633 -1.1600  3.2988  0.0941
   72CHL1  H24B 7798   5.567   2.005   8.593  1.9551  0.8777 -2.4736
   72CHL1   C25 7799   5.568   2.176   8.736  0.5197 -0.3373 -0.2895
   72CHL1   H25 7800   5.526   2.278   8.731 -0.5054 -0.7361 -0.0310
   72CHL1   C26 7801   5.507   2.107   8.860  0.4744  0.5525  0.2702
   72CHL1  H26A 7802   5.547   2.166   8.946  3.0278  3.2819 -2.5200
   72CHL1  H26B 7803   5.397   2.112   8.853  0.5393  1.5655 -0.1836
   72CHL1  H26C 7804   5.536   2.000   8.862 -1.2699 -0.0169 -1.6428
   72CHL1   C27 7805   5.721   2.187   8.750 -0.1322 -0.3361  1.0558
   72CHL1  H27A 7806   5.744   2.281   8.804  1.1435  0.3467 -0.5921
   72CHL1  H27B 7807   5.770   2.103   8.804  0.2039 -1.1789 -0.5060
   72CHL1  H27C 7808   5.762   2.191   8.647 -3.9705  0.7059 -0.6145
   73CHL1    C3 7809   6.212   6.523   6.990  0.3368 -0.2769 -0.1327
   73CHL1    H3 7810   6.259   6.618   7.024  0.5521  0.1413 -1.5295
   73CHL1    O3 7811   6.191   6.521   6.855  0.4166  0.1383  0.4980
   73CHL1   H3' 7812   6.261   6.573   6.813  0.1064 -0.7721 -1.2484
   73CHL1    C4 7813   6.306   6.401   7.016 -0.0157  0.7761  0.1321
   73CHL1   H4A 7814   6.251   6.315   6.972 -0.8978  0.7370  1.2701
   73CHL1   H4B 7815   6.397   6.419   6.955  1.2347  0.4167  1.8185
   73CHL1    C5 7816   6.337   6.392   7.160 -0.4312 -0.2658  0.5281
   73CHL1    C6 7817   6.463   6.402   7.205 -0.4055  0.4747 -0.1518
   73CHL1    H6 7818   6.543   6.421   7.131  0.6378  0.5022  0.9578
   73CHL1    C7 7819   6.507   6.393   7.351  0.4704  0.6564 -0.2042
   73CHL1   H7A 7820   6.592   6.321   7.352 -0.2424 -0.2735 -2.0408
   73CHL1   H7B 7821   6.542   6.487   7.398  0.8632 -0.6709  2.3820
   73CHL1    C8 7822   6.392   6.334   7.445  0.1264  0.6526  0.1012
   73CHL1    H8 7823   6.396   6.225   7.425  1.5872  0.2531  2.2367
   73CHL1   C14 7824   6.420   6.376   7.586  0.1537  0.0033 -0.6499
   73CHL1   H14 7825   6.399   6.485   7.584 -0.0158  0.0223  1.0465
   73CHL1   C15 7826   6.562   6.365   7.640 -0.4102 -0.2093 -0.4226
   73CHL1  H15A 7827   6.608   6.267   7.617 -1.7624 -1.6589  2.5157
   73CHL1  H15B 7828   6.636   6.444   7.614 -1.7909  0.6837 -1.7973
   73CHL1   C16 7829   6.544   6.355   7.792  0.0414 -0.1508 -0.2520
   73CHL1  H16A 7830   6.560   6.252   7.831 -3.2253 -0.4296  0.5938
   73CHL1  H16B 7831   6.615   6.430   7.834  0.4317 -0.0591 -1.0399
   73CHL1   C17 7832   6.386   6.375   7.818 -1.4300  0.1206 -0.2920
   73CHL1   H17 7833   6.380   6.484   7.798  0.1223  0.2030 -0.4573
   73CHL1   C13 7834   6.329   6.317   7.691  0.5362  0.3630  0.5967
   73CHL1   C18 7835   6.332   6.161   7.691 -0.3020 -0.6934  0.4441
   73CHL1  H18A 7836   6.436   6.129   7.712 -0.1199 -1.2557 -1.1597
   73CHL1  H18B 7837   6.267   6.111   7.766 -2.2089 -2.9045 -2.4596
   73CHL1  H18C 7838   6.305   6.113   7.594  0.4529 -0.4109  0.0897
   73CHL1   C12 7839   6.181   6.354   7.659 -0.2358 -0.1116 -0.1334
   73CHL1  H12A 7840   6.113   6.291   7.720 -0.9773  1.5241  0.7839
   73CHL1  H12B 7841   6.163   6.461   7.682 -2.3733 -0.2384 -1.0168
   73CHL1   C11 7842   6.141   6.320   7.513 -0.2876  0.5523  0.4314
   73CHL1  H11A 7843   6.145   6.211   7.494  2.2292  0.5684  0.5593
   73CHL1  H11B 7844   6.042   6.360   7.482  0.1799  1.6007  0.2603
   73CHL1    C9 7845   6.250   6.378   7.409  0.6890  0.1744 -0.3043
   73CHL1    H9 7846   6.245   6.485   7.438 -0.8895  0.1507 -0.3669
   73CHL1   C10 7847   6.212   6.370   7.260 -1.2330 -1.4979  0.3962
   73CHL1   C19 7848   6.147   6.234   7.242 -0.4530 -0.2164  0.8831
   73CHL1  H19A 7849   6.053   6.223   7.299 -0.3803 -0.3919  0.9701
   73CHL1  H19B 7850   6.140   6.199   7.137  1.0581  1.5554  0.1243
   73CHL1  H19C 7851   6.223   6.162   7.279 -0.5553 -1.9244 -2.0067
   73CHL1    C1 7852   6.112   6.485   7.222 -0.6580 -0.8529  0.1530
   73CHL1   H1A 7853   6.021   6.473   7.285  0.6978 -0.8260  2.2361
   73CHL1   H1B 7854   6.156   6.582   7.252  0.4702 -1.3845  0.2792
   73CHL1    C2 7855   6.080   6.504   7.070 -0.5676 -0.3089  0.8265
   73CHL1   H2A 7856   6.016   6.594   7.058 -0.6237 -0.6180 -1.9082
   73CHL1   H2B 7857   6.020   6.418   7.031 -0.9547  1.0002 -1.6455
   73CHL1   C20 7858   6.339   6.347   7.962 -0.7230  0.2889 -0.5947
   73CHL1   H20 7859   6.283   6.252   7.974  1.7678 -1.3200 -0.9586
   73CHL1   C21 7860   6.242   6.453   7.987 -0.0653 -0.3747  0.0211
   73CHL1  H21A 7861   6.174   6.469   7.901  1.3663 -1.0278 -1.2678
   73CHL1  H21B 7862   6.297   6.548   8.002 -2.3507  0.7398  2.3054
   73CHL1  H21C 7863   6.186   6.432   8.081  1.5186 -0.9050  0.8868
   73CHL1   C22 7864   6.453   6.358   8.065  0.4333 -0.0622  0.0761
   73CHL1  H22A 7865   6.539   6.290   8.045  1.1693  0.9886 -0.3977
   73CHL1  H22B 7866   6.500   6.457   8.047 -0.6771  0.4519 -0.0704
   73CHL1   C23 7867   6.410   6.332   8.211 -0.4590 -0.9080  0.7584
   73CHL1  H23A 7868   6.333   6.406   8.243 -0.3313 -0.1518 -0.5919
   73CHL1  H23B 7869   6.375   6.227   8.219  1.9703 -1.8759 -0.3737
   73CHL1   C24 7870   6.534   6.364   8.305  0.4066  0.1380  0.2633
   73CHL1  H24A 7871   6.582   6.460   8.274  0.9245 -0.8065 -2.0101
   73CHL1  H24B 7872   6.487   6.374   8.405 -0.1174 -0.6546  0.1043
   73CHL1   C25 7873   6.640   6.253   8.327  0.0198  0.5481  0.5941
   73CHL1   H25 7874   6.678   6.216   8.229 -2.3734 -1.8851  0.4424
   73CHL1   C26 7875   6.761   6.298   8.398 -0.9127 -0.3650 -0.6103
   73CHL1  H26A 7876   6.734   6.310   8.505 -1.0220  0.2259 -0.6988
   73CHL1  H26B 7877   6.842   6.225   8.377 -0.4734 -0.4022  1.0357
   73CHL1  H26C 7878   6.780   6.403   8.366 -0.7340 -0.1800  0.0776
   73CHL1   C27 7879   6.585   6.132   8.390 -0.8226 -0.2898  0.1206
   73CHL1  H27A 7880   6.514   6.090   8.315 -0.0324 -1.1951 -0.1430
   73CHL1  H27B 7881   6.668   6.062   8.414 -0.7910  0.0866  1.1541
   73CHL1  H27C 7882   6.529   6.160   8.481  0.6883  1.0323  0.6913
   74CHL1    C3 7883   5.877   4.756   6.862 -0.0728 -0.3356 -0.0221
   74CHL1    H3 7884   5.967   4.692   6.875  0.8691  1.3248  2.1897
   74CHL1    O3 7885   5.871   4.775   6.725 -0.1153  0.2769 -0.4313
   74CHL1   H3' 7886   5.840   4.690   6.692 -1.6021  1.8022 -3.3935
   74CHL1    C4 7887   5.747   4.697   6.927  0.4160  0.1658  0.2772
   74CHL1   H4A 7888   5.656   4.748   6.888  0.7770  0.4607 -0.1942
   74CHL1   H4B 7889   5.749   4.595   6.884  0.4034  0.4176 -0.3415
   74CHL1    C5 7890   5.750   4.689   7.075 -0.6949  0.3427  0.5852
   74CHL1    C6 7891   5.736   4.577   7.144 -1.1016  0.4636  0.3932
   74CHL1    H6 7892   5.702   4.489   7.085 -1.7650  1.9395 -1.5420
   74CHL1    C7 7893   5.732   4.564   7.294 -0.1279 -0.0309  0.6982
   74CHL1   H7A 7894   5.648   4.499   7.324  0.5237 -1.2442  0.0077
   74CHL1   H7B 7895   5.825   4.517   7.333 -0.6547  1.1461  3.6047
   74CHL1    C8 7896   5.720   4.705   7.360 -0.0028  0.2054  0.7571
   74CHL1    H8 7897   5.615   4.739   7.352 -0.2061 -0.0303  2.1262
   74CHL1   C14 7898   5.754   4.685   7.511  0.1093 -0.7251  0.0515
   74CHL1   H14 7899   5.860   4.655   7.512  0.0249 -1.0251 -0.0579
   74CHL1   C15 7900   5.682   4.572   7.590  0.5825  0.9730 -0.2585
   74CHL1  H15A 7901   5.573   4.573   7.569  0.6056  2.8597 -0.5110
   74CHL1  H15B 7902   5.727   4.473   7.565 -0.3445  0.5431 -0.2431
   74CHL1   C16 7903   5.703   4.604   7.732  0.2633 -0.0964 -1.5971
   74CHL1  H16A 7904   5.607   4.594   7.787  2.3835  2.2651  3.1074
   74CHL1  H16B 7905   5.775   4.535   7.782 -1.3547 -0.1743  0.8104
   74CHL1   C17 7906   5.769   4.749   7.732 -0.0123  0.1027  0.2708
   74CHL1   H17 7907   5.878   4.731   7.731  0.2059  1.3874 -0.1112
   74CHL1   C13 7908   5.736   4.814   7.599  0.3513  0.2981  0.1897
   74CHL1   C18 7909   5.592   4.877   7.604 -0.3259 -0.2452 -0.7441
   74CHL1  H18A 7910   5.536   4.883   7.507 -1.5712 -2.0556 -0.1915
   74CHL1  H18B 7911   5.532   4.803   7.661 -0.3852 -0.7152 -1.4068
   74CHL1  H18C 7912   5.585   4.979   7.646  0.5802  0.2153 -1.6720
   74CHL1   C12 7913   5.836   4.911   7.537 -0.1602  0.6488 -0.5452
   74CHL1  H12A 7914   5.833   5.008   7.591  0.6887  1.7770 -2.4203
   74CHL1  H12B 7915   5.937   4.865   7.548  0.5110  1.1422 -3.7088
   74CHL1   C11 7916   5.816   4.930   7.387 -0.2616  0.1170 -0.5864
   74CHL1  H11A 7917   5.722   4.989   7.384 -1.2552 -1.2901  0.8672
   74CHL1  H11B 7918   5.897   4.999   7.355  0.6431 -0.3946  0.5393
   74CHL1    C9 7919   5.811   4.804   7.297 -0.6247 -0.0388  0.6097
   74CHL1    H9 7920   5.909   4.751   7.300 -1.0779 -0.9166  0.2013
   74CHL1   C10 7921   5.784   4.818   7.146 -0.4624  0.4585 -0.1371
   74CHL1   C19 7922   5.663   4.912   7.123  0.8973 -0.1889 -0.6030
   74CHL1  H19A 7923   5.681   5.008   7.175 -0.2443  0.0183 -0.5708
   74CHL1  H19B 7924   5.631   4.923   7.017 -0.1832 -0.5979 -0.3368
   74CHL1  H19C 7925   5.578   4.867   7.178 -0.9215  1.6122 -1.8139
   74CHL1    C1 7926   5.918   4.873   7.084  0.2268 -0.4794  0.0003
   74CHL1   H1A 7927   5.939   4.968   7.138  2.2302  0.6033 -2.4494
   74CHL1   H1B 7928   5.997   4.798   7.108  2.0722  1.4476  0.2234
   74CHL1    C2 7929   5.914   4.888   6.928 -0.0329  0.2388 -0.2548
   74CHL1   H2A 7930   6.014   4.923   6.896  0.9963 -1.9097  0.3745
   74CHL1   H2B 7931   5.831   4.959   6.911  1.4563  1.5393 -2.4752
   74CHL1   C20 7932   5.742   4.826   7.863  0.1854  0.1410  0.1961
   74CHL1   H20 7933   5.636   4.854   7.884  0.0635  0.2460 -0.5355
   74CHL1   C21 7934   5.830   4.953   7.867  0.5274  0.6607  0.0416
   74CHL1  H21A 7935   5.938   4.935   7.845  0.9295  0.4712  1.9687
   74CHL1  H21B 7936   5.814   5.004   7.964  0.2877 -1.2329  1.0418
   74CHL1  H21C 7937   5.794   5.032   7.798  0.3570 -0.6543 -1.4315
   74CHL1   C22 7938   5.787   4.738   7.990 -0.8338  0.5806  0.4371
   74CHL1  H22A 7939   5.716   4.654   8.001  0.9782 -1.4153 -1.8043
   74CHL1  H22B 7940   5.887   4.695   7.968 -0.5707  0.7504  1.2837
   74CHL1   C23 7941   5.783   4.806   8.125 -0.6179  0.2195 -1.1635
   74CHL1  H23A 7942   5.869   4.869   8.155 -0.5203  0.2027 -1.4073
   74CHL1  H23B 7943   5.693   4.871   8.126 -0.5364  0.5390  2.8526
   74CHL1   C24 7944   5.759   4.708   8.246  0.3066 -0.6188 -0.3698
   74CHL1  H24A 7945   5.679   4.632   8.231 -0.3075  0.1112 -0.8723
   74CHL1  H24B 7946   5.857   4.660   8.263 -0.6525 -1.5748  3.4755
   74CHL1   C25 7947   5.720   4.778   8.377 -0.2881 -0.6080  0.3919
   74CHL1   H25 7948   5.638   4.848   8.351 -1.4454 -1.7140  0.9341
   74CHL1   C26 7949   5.664   4.689   8.486  0.4669 -0.4366  0.4547
   74CHL1  H26A 7950   5.625   4.747   8.572 -1.6129  1.2750 -1.4933
   74CHL1  H26B 7951   5.573   4.652   8.432  0.5120  2.4621 -1.8445
   74CHL1  H26C 7952   5.721   4.598   8.514 -1.0817 -1.8628 -0.7657
   74CHL1   C27 7953   5.838   4.851   8.435  0.0255 -0.5203 -0.0322
   74CHL1  H27A 7954   5.932   4.793   8.433  0.2539 -0.1561  0.0632
   74CHL1  H27B 7955   5.867   4.940   8.376  2.3261 -2.5989 -2.2364
   74CHL1  H27C 7956   5.823   4.899   8.535 -2.3105  1.4931 -1.2360
   75CHL1    C3 7957   0.606   0.614   6.682  0.6048  0.6309 -0.1790
   75CHL1    H3 7958   0.556   0.519   6.654  0.6351  0.3648  0.6504
   75CHL1    O3 7959   0.640   0.688   6.570 -0.2490 -0.2218  0.3946
   75CHL1   H3' 7960   0.721   0.733   6.592  1.1903 -2.0056 -0.9241
   75CHL1    C4 7961   0.504   0.695   6.763  0.4723 -0.8302  0.2494
   75CHL1   H4A 7962   0.551   0.795   6.774  3.4395 -2.0167 -0.5534
   75CHL1   H4B 7963   0.409   0.697   6.705  1.2820  3.2570 -1.3125
   75CHL1    C5 7964   0.479   0.637   6.899  0.8464  0.1305 -0.6491
   75CHL1    C6 7965   0.351   0.623   6.946 -0.0998 -0.6281  0.2015
   75CHL1    H6 7966   0.261   0.663   6.896  0.0215 -1.0234 -0.3469
   75CHL1    C7 7967   0.315   0.564   7.079  0.4000  0.2592 -0.1705
   75CHL1   H7A 7968   0.252   0.634   7.138  1.9346 -0.0816  2.0129
   75CHL1   H7B 7969   0.265   0.467   7.061 -2.8709  1.1695  2.8335
   75CHL1    C8 7970   0.436   0.549   7.176  0.3080 -0.2177 -0.0996
   75CHL1    H8 7971   0.451   0.654   7.209 -2.6361  1.7512 -4.0686
   75CHL1   C14 7972   0.401   0.469   7.296  0.0483  0.6784 -0.2013
   75CHL1   H14 7973   0.375   0.369   7.257 -0.6882  0.5057  0.6980
   75CHL1   C15 7974   0.283   0.513   7.392 -0.7162 -1.1486 -0.6262
   75CHL1  H15A 7975   0.289   0.622   7.414 -0.1193 -1.8743  3.5670
   75CHL1  H15B 7976   0.178   0.497   7.359 -1.7976 -0.2555  2.1500
   75CHL1   C16 7977   0.313   0.437   7.527 -0.3461 -0.2150  0.4525
   75CHL1  H16A 7978   0.326   0.511   7.609  1.3406 -0.0160  0.0397
   75CHL1  H16B 7979   0.240   0.359   7.558 -0.7284 -0.7135 -1.5815
   75CHL1   C17 7980   0.454   0.371   7.507 -0.3442 -0.3650  0.6922
   75CHL1   H17 7981   0.424   0.272   7.466  1.3999 -0.8612  0.5620
   75CHL1   C13 7982   0.522   0.449   7.393  0.4371 -0.4664  0.3567
   75CHL1   C18 7983   0.568   0.585   7.451  0.2029  0.7717  0.0082
   75CHL1  H18A 7984   0.660   0.583   7.513 -1.1340 -1.2614  2.0871
   75CHL1  H18B 7985   0.593   0.654   7.367 -1.0034 -0.7070 -1.6676
   75CHL1  H18C 7986   0.501   0.633   7.525 -0.3256 -0.5386  0.3965
   75CHL1   C12 7987   0.641   0.385   7.320  0.4056  0.8949 -0.7365
   75CHL1  H12A 7988   0.723   0.363   7.391 -0.3423 -0.2847 -0.2132
   75CHL1  H12B 7989   0.592   0.293   7.284 -0.8535  0.6233  1.4439
   75CHL1   C11 7990   0.684   0.467   7.202 -0.2172  0.3777 -0.2404
   75CHL1  H11A 7991   0.724   0.560   7.248  0.0001  0.0393  0.2692
   75CHL1  H11B 7992   0.763   0.417   7.142  0.5813  1.7130 -0.3477
   75CHL1    C9 7993   0.564   0.500   7.105  0.0062 -0.2038  0.3725
   75CHL1    H9 7994   0.537   0.396   7.076  2.6786 -0.4153 -1.7094
   75CHL1   C10 7995   0.604   0.588   6.978 -0.1024 -1.3894 -0.4606
   75CHL1   C19 7996   0.677   0.714   7.028 -0.4712 -0.3367 -0.8826
   75CHL1  H19A 7997   0.616   0.763   7.108  0.0126  0.1126 -0.7800
   75CHL1  H19B 7998   0.777   0.695   7.073  0.0575  0.9439 -1.4523
   75CHL1  H19C 7999   0.704   0.788   6.950  0.1865 -1.8455 -2.1375
   75CHL1    C1 8000   0.697   0.503   6.885  0.2031 -0.6165  0.2901
   75CHL1   H1A 8001   0.786   0.486   6.950 -0.4459  0.1220  1.4150
   75CHL1   H1B 8002   0.639   0.416   6.849 -1.2365  0.0114  1.0214
   75CHL1    C2 8003   0.734   0.579   6.761  0.2936  0.0523 -0.2962
   75CHL1   H2A 8004   0.810   0.532   6.696  2.7352  0.0026  2.4204
   75CHL1   H2B 8005   0.788   0.670   6.794 -1.8890  0.5565  2.2246
   75CHL1   C20 8006   0.530   0.341   7.637  0.4415 -0.0197 -0.4415
   75CHL1   H20 8007   0.604   0.423   7.650  1.6434 -1.0369 -0.6088
   75CHL1   C21 8008   0.609   0.214   7.619  0.1873  0.1380 -0.2065
   75CHL1  H21A 8009   0.669   0.195   7.711 -0.1157  0.3903  0.0426
   75CHL1  H21B 8010   0.682   0.215   7.535  1.6130  2.0647  0.9725
   75CHL1  H21C 8011   0.543   0.125   7.610 -1.7674  1.3851  1.1627
   75CHL1   C22 8012   0.442   0.333   7.762  0.4103  0.5476 -0.5130
   75CHL1  H22A 8013   0.362   0.409   7.768  0.5515  0.6263  0.4750
   75CHL1  H22B 8014   0.390   0.236   7.771  1.9931 -0.1818  1.6782
   75CHL1   C23 8015   0.523   0.340   7.895  0.5866  0.9239 -1.5529
   75CHL1  H23A 8016   0.567   0.238   7.895 -0.5581  0.4003 -0.1619
   75CHL1  H23B 8017   0.599   0.419   7.880  1.8608 -0.4443 -2.6431
   75CHL1   C24 8018   0.440   0.366   8.018  0.5671 -1.0575 -0.0440
   75CHL1  H24A 8019   0.370   0.451   8.006  0.0579 -0.8728  3.1331
   75CHL1  H24B 8020   0.378   0.273   8.016 -0.6681 -0.2604  0.4587
   75CHL1   C25 8021   0.514   0.379   8.151  0.3686 -0.5493  0.0411
   75CHL1   H25 8022   0.586   0.460   8.129 -0.3378  0.3159  0.8270
   75CHL1   C26 8023   0.423   0.421   8.271  1.1263  0.0671 -0.2689
   75CHL1  H26A 8024   0.394   0.527   8.256 -1.4178 -0.4822  0.2326
   75CHL1  H26B 8025   0.332   0.359   8.280  1.0809  0.3065  1.1112
   75CHL1  H26C 8026   0.482   0.410   8.365  0.1525  1.2618  0.5173
   75CHL1   C27 8027   0.587   0.251   8.183 -0.1770  0.3860 -0.4459
   75CHL1  H27A 8028   0.530   0.155   8.181  1.8975 -0.9085 -0.4410
   75CHL1  H27B 8029   0.673   0.236   8.115  0.1601 -1.5958  0.3352
   75CHL1  H27C 8030   0.636   0.248   8.283  0.6112 -1.9049 -0.8346
   76CHL1    C3 8031   5.943   1.501   7.196  0.1234 -0.4923  0.3607
   76CHL1    H3 8032   5.898   1.400   7.196 -1.7813  0.3208  0.9421
   76CHL1    O3 8033   5.921   1.553   7.067  0.1216 -0.0372  0.0010
   76CHL1   H3' 8034   5.956   1.481   7.014  1.1967 -0.1822  0.8773
   76CHL1    C4 8035   5.861   1.580   7.300  0.7635 -0.2821  0.0333
   76CHL1   H4A 8036   5.875   1.688   7.279 -0.3845 -0.2342 -0.5471
   76CHL1   H4B 8037   5.753   1.574   7.277  0.6960  0.9537 -0.0469
   76CHL1    C5 8038   5.902   1.545   7.440 -0.2242 -0.1432  0.3820
   76CHL1    C6 8039   5.807   1.504   7.526  0.0840  0.5984  0.8029
   76CHL1    H6 8040   5.702   1.513   7.493 -0.3633  0.6291  2.1761
   76CHL1    C7 8041   5.834   1.470   7.663 -0.4053  0.3880 -0.0933
   76CHL1   H7A 8042   5.751   1.504   7.729 -1.0224  0.4968 -0.9101
   76CHL1   H7B 8043   5.833   1.359   7.674 -2.1624  0.3032 -0.7667
   76CHL1    C8 8044   5.968   1.527   7.712 -0.1341  0.1008 -0.1016
   76CHL1    H8 8045   5.950   1.636   7.721 -2.3666 -0.1377 -1.1280
   76CHL1   C14 8046   6.012   1.461   7.839 -0.0183 -0.0865 -0.3481
   76CHL1   H14 8047   6.036   1.357   7.805 -0.2688 -0.2415 -0.0527
   76CHL1   C15 8048   5.916   1.437   7.958 -0.0300 -0.1068  0.5869
   76CHL1  H15A 8049   5.865   1.528   7.995  0.2018  0.3487 -0.1840
   76CHL1  H15B 8050   5.839   1.363   7.929  0.0715 -0.5842  1.5077
   76CHL1   C16 8051   5.997   1.391   8.073 -0.2585 -0.2274 -0.4021
   76CHL1  H16A 8052   5.967   1.449   8.163 -1.2544  0.2742 -1.0363
   76CHL1  H16B 8053   5.983   1.281   8.088  0.6880 -0.3175 -0.1200
   76CHL1   C17 8054   6.145   1.426   8.033 -0.1920  0.3945 -0.3381
   76CHL1   H17 8055   6.187   1.325   8.010 -0.0769  0.6786 -1.4285
   76CHL1   C13 8056   6.140   1.507   7.903 -0.4542 -0.2038  0.0735
   76CHL1   C18 8057   6.124   1.653   7.942  0.1978  0.0969 -0.5517
   76CHL1  H18A 8058   6.213   1.680   8.002 -1.2229 -0.8172  2.1767
   76CHL1  H18B 8059   6.111   1.716   7.852 -0.1417 -2.6936 -2.5760
   76CHL1  H18C 8060   6.036   1.675   8.006  0.2286  2.7430 -1.2921
   76CHL1   C12 8061   6.251   1.488   7.805  0.0725 -0.0522  0.1087
   76CHL1  H12A 8062   6.346   1.534   7.839  0.2365 -0.0243 -0.3903
   76CHL1  H12B 8063   6.262   1.378   7.798 -0.5854 -0.1621  0.6304
   76CHL1   C11 8064   6.221   1.553   7.671 -0.1291  0.2872 -0.4982
   76CHL1  H11A 8065   6.214   1.662   7.690 -1.4644  0.1665 -0.1625
   76CHL1  H11B 8066   6.306   1.531   7.603  0.2392 -0.9949  0.3273
   76CHL1    C9 8067   6.082   1.503   7.618 -0.1752  0.2695  0.0096
   76CHL1    H9 8068   6.094   1.394   7.603  1.8147  0.4729 -0.1225
   76CHL1   C10 8069   6.051   1.556   7.481  0.3131 -0.3756  0.4123
   76CHL1   C19 8070   6.077   1.710   7.467  0.2745  0.3735 -0.4341
   76CHL1  H19A 8071   6.045   1.743   7.366 -1.1402  0.1887 -0.0751
   76CHL1  H19B 8072   6.032   1.785   7.535 -0.5223 -0.1599 -0.3515
   76CHL1  H19C 8073   6.187   1.724   7.459  0.3345 -0.3670 -1.1092
   76CHL1    C1 8074   6.130   1.475   7.381  0.7800  0.4400  0.2383
   76CHL1   H1A 8075   6.237   1.498   7.398  1.3848 -1.0524 -1.3255
   76CHL1   H1B 8076   6.123   1.365   7.396  3.8472 -0.1447 -1.7361
   76CHL1    C2 8077   6.092   1.505   7.229  0.0065 -0.1367 -0.2179
   76CHL1   H2A 8078   6.152   1.438   7.163  1.1526  1.3236 -0.7373
   76CHL1   H2B 8079   6.119   1.610   7.203 -1.0528 -0.1109 -1.2874
   76CHL1   C20 8080   6.228   1.473   8.154  0.4029  0.5800  0.1841
   76CHL1   H20 8081   6.185   1.572   8.178  0.1007  0.1332  1.5759
   76CHL1   C21 8082   6.380   1.499   8.125  0.0150  0.2172 -0.1896
   76CHL1  H21A 8083   6.390   1.576   8.045 -1.3944 -0.3931 -1.0023
   76CHL1  H21B 8084   6.431   1.404   8.099  0.2214 -0.4827  2.5134
   76CHL1  H21C 8085   6.429   1.546   8.213  1.0500 -0.8953 -0.1660
   76CHL1   C22 8086   6.206   1.386   8.278 -0.7464  0.0524  0.1211
   76CHL1  H22A 8087   6.098   1.384   8.303 -0.8473  0.6795 -0.2330
   76CHL1  H22B 8088   6.252   1.286   8.264  1.9727  1.2354 -0.0321
   76CHL1   C23 8089   6.273   1.446   8.401  0.1693 -0.3241  0.0611
   76CHL1  H23A 8090   6.383   1.431   8.404  0.8220  3.4230 -0.0132
   76CHL1  H23B 8091   6.263   1.556   8.391  0.2388 -0.4907 -2.7258
   76CHL1   C24 8092   6.197   1.406   8.528 -0.3055  0.8701  0.0057
   76CHL1  H24A 8093   6.093   1.436   8.506  0.3517  4.0530  0.5889
   76CHL1  H24B 8094   6.208   1.297   8.546 -1.9443  1.0395  2.5310
   76CHL1   C25 8095   6.251   1.476   8.655 -0.0669  1.4118 -0.5193
   76CHL1   H25 8096   6.189   1.443   8.741  1.2149  0.0456 -0.0609
   76CHL1   C26 8097   6.405   1.447   8.680  0.6527 -0.0913 -0.2891
   76CHL1  H26A 8098   6.428   1.491   8.780  1.2911 -0.5799 -0.2080
   76CHL1  H26B 8099   6.412   1.337   8.699  0.0955  0.0117  0.6076
   76CHL1  H26C 8100   6.467   1.479   8.594  2.9281 -0.2527  1.2029
   76CHL1   C27 8101   6.229   1.629   8.641  0.5299  0.9859  0.1907
   76CHL1  H27A 8102   6.309   1.675   8.579  1.0557  0.7438  0.6804
   76CHL1  H27B 8103   6.135   1.648   8.585  0.7507  1.8393  0.0943
   76CHL1  H27C 8104   6.237   1.683   8.737  2.1660  0.2970  0.4852
   77CHL1    C3 8105   0.363   5.998   6.886  0.8674 -0.3065 -0.1433
   77CHL1    H3 8106   0.467   6.024   6.916  0.7549 -0.7367  0.6705
   77CHL1    O3 8107   0.334   6.035   6.752  0.5446 -0.7957  0.1803
   77CHL1   H3' 8108   0.241   6.057   6.750  0.9499  1.0508 -1.5196
   77CHL1    C4 8109   0.339   5.841   6.910  0.5514 -0.4255  0.3380
   77CHL1   H4A 8110   0.234   5.827   6.877  0.6016  1.2660 -0.6872
   77CHL1   H4B 8111   0.405   5.797   6.833  0.2929  1.7283 -1.2081
   77CHL1    C5 8112   0.365   5.800   7.055 -0.5167 -0.4631  0.2153
   77CHL1    C6 8113   0.467   5.719   7.088 -0.7729 -0.2600  0.4268
   77CHL1    H6 8114   0.535   5.670   7.017 -1.2011 -0.0691 -0.1186
   77CHL1    C7 8115   0.490   5.680   7.233  0.5509 -0.3900  0.1087
   77CHL1   H7A 8116   0.532   5.578   7.235  2.6371  0.4248  0.7351
   77CHL1   H7B 8117   0.577   5.742   7.265 -1.4146  2.2869  0.6822
   77CHL1    C8 8118   0.377   5.718   7.330  0.6222  0.3678  0.0882
   77CHL1    H8 8119   0.291   5.650   7.314  0.6901 -0.0839  1.5348
   77CHL1   C14 8120   0.425   5.714   7.471  0.0666  0.3110 -0.0786
   77CHL1   H14 8121   0.515   5.780   7.463 -0.3860  1.0125  0.4804
   77CHL1   C15 8122   0.506   5.591   7.517 -0.4023 -0.6519  0.8440
   77CHL1  H15A 8123   0.442   5.507   7.482  0.1340 -0.4548 -0.6974
   77CHL1  H15B 8124   0.602   5.591   7.460 -0.3479  0.9781  0.8868
   77CHL1   C16 8125   0.516   5.616   7.667  0.0855 -0.9498 -0.3180
   77CHL1  H16A 8126   0.491   5.525   7.726 -0.2277 -0.5967  0.1060
   77CHL1  H16B 8127   0.623   5.633   7.691 -0.2177 -0.5820  0.8689
   77CHL1   C17 8128   0.427   5.738   7.708  0.1453 -0.6162  0.3271
   77CHL1   H17 8129   0.490   5.828   7.694  0.4249 -0.9887 -0.9343
   77CHL1   C13 8130   0.335   5.754   7.587  0.8287  0.6943  0.0813
   77CHL1   C18 8131   0.214   5.648   7.605  0.2674 -0.1758  0.4528
   77CHL1  H18A 8132   0.137   5.668   7.683 -0.1050  0.2076 -0.0034
   77CHL1  H18B 8133   0.171   5.637   7.503  0.6995 -2.0767  0.4393
   77CHL1  H18C 8134   0.262   5.554   7.638 -0.5976 -0.4737  0.9145
   77CHL1   C12 8135   0.293   5.894   7.556  0.7503  0.5940 -0.2487
   77CHL1  H12A 8136   0.212   5.926   7.624 -0.3708  0.4606 -1.4925
   77CHL1  H12B 8137   0.373   5.970   7.565  1.3854  0.1870 -1.9858
   77CHL1   C11 8138   0.233   5.899   7.418  0.4505  0.5060 -0.3498
   77CHL1  H11A 8139   0.145   5.833   7.405  0.9818 -0.1907 -0.4299
   77CHL1  H11B 8140   0.193   6.003   7.410 -2.9118 -0.6636 -0.4273
   77CHL1    C9 8141   0.329   5.858   7.307 -0.0910 -0.1818  0.9341
   77CHL1    H9 8142   0.421   5.918   7.326 -1.0333  0.8371  2.5050
   77CHL1   C10 8143   0.282   5.881   7.162  0.2705 -0.1073 -0.3783
   77CHL1   C19 8144   0.139   5.826   7.151 -0.3670 -0.4596 -0.3333
   77CHL1  H19A 8145   0.101   5.832   7.047 -0.0061 -0.7165 -0.4812
   77CHL1  H19B 8146   0.142   5.723   7.192  1.5953 -0.9636 -1.5897
   77CHL1  H19C 8147   0.065   5.887   7.208 -0.6376 -1.4680  0.4185
   77CHL1    C1 8148   0.284   6.040   7.124  0.4771 -0.5733 -0.4330
   77CHL1   H1A 8149   0.208   6.086   7.190  1.7591  0.7646  0.1548
   77CHL1   H1B 8150   0.379   6.075   7.170  0.5332 -1.9328  0.5549
   77CHL1    C2 8151   0.273   6.084   6.981 -0.5782 -0.1007  0.3863
   77CHL1   H2A 8152   0.293   6.193   6.976  0.1262 -0.1680  1.4507
   77CHL1   H2B 8153   0.170   6.065   6.943 -0.7289  1.8970 -0.3340
   77CHL1   C20 8154   0.387   5.741   7.855 -0.1920 -0.2242  0.2018
   77CHL1   H20 8155   0.313   5.663   7.880  0.0038  0.3367  2.8420
   77CHL1   C21 8156   0.325   5.880   7.880 -0.9326 -1.1978 -0.2296
   77CHL1  H21A 8157   0.301   5.889   7.988  1.0302  2.2870  0.0384
   77CHL1  H21B 8158   0.225   5.897   7.833 -0.8526 -1.3405 -0.4537
   77CHL1  H21C 8159   0.391   5.960   7.841  1.5823 -1.6235  2.7916
   77CHL1   C22 8160   0.505   5.706   7.952 -0.4913 -0.7074  0.6252
   77CHL1  H22A 8161   0.510   5.596   7.961 -0.3574 -0.9637 -1.8895
   77CHL1  H22B 8162   0.597   5.745   7.904 -1.7057 -0.4621 -1.6653
   77CHL1   C23 8163   0.491   5.751   8.094  0.0517 -0.3897 -0.4277
   77CHL1  H23A 8164   0.506   5.860   8.106 -1.7328  0.0813 -2.0236
   77CHL1  H23B 8165   0.384   5.740   8.120 -0.2300  3.4799  0.5599
   77CHL1   C24 8166   0.576   5.668   8.196 -0.5008 -0.2930 -0.2167
   77CHL1  H24A 8167   0.541   5.562   8.201  0.2997 -0.5424  0.4058
   77CHL1  H24B 8168   0.682   5.665   8.160 -0.8938 -1.1572 -1.3771
   77CHL1   C25 8169   0.585   5.716   8.347 -0.2221  0.6338  0.0979
   77CHL1   H25 8170   0.477   5.705   8.373  0.1526 -1.8585  0.8238
   77CHL1   C26 8171   0.665   5.613   8.430  0.3116 -0.3036  0.6811
   77CHL1  H26A 8172   0.679   5.646   8.535  0.8783  2.7608 -0.2539
   77CHL1  H26B 8173   0.622   5.511   8.439  2.8185 -1.3971  1.0691
   77CHL1  H26C 8174   0.763   5.597   8.380  0.5405  3.5535 -0.4094
   77CHL1   C27 8175   0.625   5.858   8.369 -0.6282  0.1992 -0.5333
   77CHL1  H27A 8176   0.628   5.878   8.479  0.2317  0.1893 -0.5510
   77CHL1  H27B 8177   0.731   5.864   8.336 -0.5071 -4.4061 -1.6091
   77CHL1  H27C 8178   0.555   5.933   8.327 -0.7673  1.5567  1.9127
   78CHL1    C3 8179   2.146   1.600   6.639  0.1045 -0.8175 -0.3948
   78CHL1    H3 8180   2.243   1.654   6.647 -0.2387 -0.1695 -0.5366
   78CHL1    O3 8181   2.117   1.581   6.498 -0.5109 -0.1088  0.2744
   78CHL1   H3' 8182   2.021   1.589   6.506 -0.6326 -1.5759  0.5895
   78CHL1    C4 8183   2.138   1.457   6.702 -0.6014 -0.3818 -0.2200
   78CHL1   H4A 8184   2.038   1.415   6.677 -0.4360  0.3446 -2.3065
   78CHL1   H4B 8185   2.226   1.406   6.657  1.0611  0.5575  1.8349
   78CHL1    C5 8186   2.160   1.473   6.854 -0.9975  0.7375  0.1116
   78CHL1    C6 8187   2.256   1.393   6.912 -0.5552 -0.2913  0.0934
   78CHL1    H6 8188   2.314   1.314   6.861 -0.6446 -1.2247  1.4069
   78CHL1    C7 8189   2.268   1.391   7.056 -0.2847 -1.1985  0.2187
   78CHL1   H7A 8190   2.281   1.291   7.104  0.6183 -1.4096 -0.4316
   78CHL1   H7B 8191   2.362   1.447   7.074  1.3889 -3.6855 -0.1696
   78CHL1    C8 8192   2.149   1.457   7.134  0.3684  0.1473  0.4145
   78CHL1    H8 8193   2.061   1.390   7.130  1.9085 -1.9485  0.2332
   78CHL1   C14 8194   2.182   1.494   7.277 -0.2360  1.2120 -0.0095
   78CHL1   H14 8195   2.264   1.570   7.279  2.0233 -1.0780  1.2015
   78CHL1   C15 8196   2.249   1.384   7.364 -0.2466 -0.0684  0.0694
   78CHL1  H15A 8197   2.225   1.280   7.331  0.7473 -0.1815 -0.3349
   78CHL1  H15B 8198   2.357   1.404   7.348 -0.5505  1.1176 -0.6044
   78CHL1   C16 8199   2.212   1.423   7.507 -0.4920 -0.3566  0.3420
   78CHL1  H16A 8200   2.170   1.330   7.551  1.7581 -1.3532  0.5276
   78CHL1  H16B 8201   2.309   1.440   7.559  0.8389 -1.1728 -1.7206
   78CHL1   C17 8202   2.118   1.542   7.500 -0.1500  0.2734  0.1620
   78CHL1   H17 8203   2.171   1.639   7.507 -0.3431  0.2804  2.0017
   78CHL1   C13 8204   2.060   1.541   7.361  0.8322  0.3165  0.1502
   78CHL1   C18 8205   1.947   1.434   7.352 -0.1366  0.0751 -0.4848
   78CHL1  H18A 8206   1.973   1.335   7.395 -1.3421  1.0441  2.7874
   78CHL1  H18B 8207   1.868   1.468   7.423  0.1993  0.7038 -0.4047
   78CHL1  H18C 8208   1.898   1.427   7.253  0.7163  0.0648 -0.9134
   78CHL1   C12 8209   2.023   1.674   7.300  0.5224 -0.5344 -0.1428
   78CHL1  H12A 8210   1.926   1.707   7.344 -0.6308 -2.9276 -0.7082
   78CHL1  H12B 8211   2.099   1.754   7.307 -1.1830  1.0937  0.6676
   78CHL1   C11 8212   1.993   1.662   7.148 -0.4178  0.3354  0.1407
   78CHL1  H11A 8213   1.893   1.614   7.142 -0.0091 -0.8643  2.0664
   78CHL1  H11B 8214   1.968   1.760   7.101 -0.9672  0.4803  0.7158
   78CHL1    C9 8215   2.101   1.588   7.070  0.0899 -0.1294  0.4020
   78CHL1    H9 8216   2.189   1.656   7.071 -0.5227  0.6974  1.7079
   78CHL1   C10 8217   2.063   1.563   6.922  0.1021 -0.0160  0.2398
   78CHL1   C19 8218   1.915   1.515   6.908 -0.3898 -0.3956  0.0391
   78CHL1  H19A 8219   1.892   1.434   6.981 -3.1690 -0.3483 -0.6642
   78CHL1  H19B 8220   1.838   1.593   6.924  1.5910  1.3804  1.5150
   78CHL1  H19C 8221   1.899   1.481   6.803 -0.6505  0.3688 -0.1749
   78CHL1    C1 8222   2.062   1.700   6.854  0.3524 -0.2056 -0.2377
   78CHL1   H1A 8223   1.995   1.775   6.902  0.2465 -0.4406 -0.0191
   78CHL1   H1B 8224   2.162   1.747   6.871 -0.1637  1.0705 -0.5975
   78CHL1    C2 8225   2.048   1.694   6.704 -0.6116  0.7490 -0.0767
   78CHL1   H2A 8226   2.067   1.796   6.662 -0.0324  0.2377 -1.0953
   78CHL1   H2B 8227   1.951   1.652   6.672 -0.0876 -2.1324  1.7764
   78CHL1   C20 8228   2.026   1.546   7.624  0.0647  0.1881 -0.3838
   78CHL1   H20 8229   1.961   1.457   7.613 -1.6806  1.4134 -0.4333
   78CHL1   C21 8230   1.926   1.667   7.623  0.4324 -0.7395  0.0782
   78CHL1  H21A 8231   1.856   1.661   7.710 -0.4984  0.7856 -0.5348
   78CHL1  H21B 8232   1.863   1.666   7.531 -1.5914  0.9466  1.3638
   78CHL1  H21C 8233   1.983   1.761   7.622  1.7984 -1.5453  0.0528
   78CHL1   C22 8234   2.100   1.547   7.765 -0.2195 -1.2359  0.2552
   78CHL1  H22A 8235   2.204   1.507   7.761 -1.1946 -4.2687  1.7935
   78CHL1  H22B 8236   2.084   1.650   7.802 -1.2261 -1.5638  0.7735
   78CHL1   C23 8237   2.016   1.461   7.867 -0.6118 -0.2106 -0.0829
   78CHL1  H23A 8238   1.924   1.516   7.898  1.0563  1.9031  1.4414
   78CHL1  H23B 8239   1.981   1.365   7.824 -1.3771 -0.5424  1.2294
   78CHL1   C24 8240   2.105   1.410   7.984 -0.4529 -0.1334 -0.0881
   78CHL1  H24A 8241   2.043   1.351   8.054  0.9350 -0.0632  1.2416
   78CHL1  H24B 8242   2.181   1.346   7.935 -1.5524 -0.6422 -1.2010
   78CHL1   C25 8243   2.156   1.521   8.073 -0.5249 -0.0909  0.2622
   78CHL1   H25 8244   2.229   1.590   8.025 -0.1188 -0.0405  0.9265
   78CHL1   C26 8245   2.048   1.615   8.120  0.0507  0.1471 -0.0548
   78CHL1  H26A 8246   1.956   1.567   8.160 -0.2657 -0.4203 -1.4065
   78CHL1  H26B 8247   2.084   1.684   8.200  1.2405 -0.1214 -0.3546
   78CHL1  H26C 8248   2.007   1.672   8.034  2.2667  1.7126 -0.1565
   78CHL1   C27 8249   2.239   1.461   8.186 -0.7790  0.5890  0.2226
   78CHL1  H27A 8250   2.328   1.409   8.145  0.1632  0.9936  1.6814
   78CHL1  H27B 8251   2.272   1.541   8.255 -1.2489  0.1874  0.9261
   78CHL1  H27C 8252   2.170   1.380   8.220 -1.1953  0.7374 -0.2573
   79CHL1    C3 8253   5.802   3.120   6.786  0.4472 -0.2337 -0.0791
   79CHL1    H3 8254   5.731   3.035   6.792  1.9094 -1.4556  0.5835
   79CHL1    O3 8255   5.834   3.145   6.647  0.3853  0.4184  0.2638
   79CHL1   H3' 8256   5.877   3.231   6.638 -1.4935  1.4769  0.7893
   79CHL1    C4 8257   5.737   3.248   6.844  0.8144 -0.4346  0.0602
   79CHL1   H4A 8258   5.786   3.340   6.805  0.9010 -0.8110 -0.7329
   79CHL1   H4B 8259   5.637   3.250   6.797  0.1100  0.2228  1.5151
   79CHL1    C5 8260   5.726   3.248   6.997 -0.5426  0.4275 -0.6825
   79CHL1    C6 8261   5.612   3.264   7.067  0.5477  0.8799  0.2371
   79CHL1    H6 8262   5.522   3.271   7.004  0.1240 -2.3966  0.3018
   79CHL1    C7 8263   5.606   3.269   7.214  0.7618  0.2200 -0.4183
   79CHL1   H7A 8264   5.552   3.356   7.256 -1.9818 -1.3259 -0.4713
   79CHL1   H7B 8265   5.554   3.176   7.246  1.7312 -0.2489 -0.1579
   79CHL1    C8 8266   5.740   3.284   7.289 -0.1396 -0.6011  0.0564
   79CHL1    H8 8267   5.766   3.391   7.279  0.1940 -0.5714  1.1563
   79CHL1   C14 8268   5.726   3.246   7.435  0.3468 -0.1349  0.1052
   79CHL1   H14 8269   5.712   3.136   7.434 -1.5123  0.0677 -1.2405
   79CHL1   C15 8270   5.603   3.295   7.512 -0.6646  0.3757 -0.6886
   79CHL1  H15A 8271   5.585   3.405   7.504  2.0355  1.0475  1.0226
   79CHL1  H15B 8272   5.511   3.236   7.496 -0.4873 -0.8758  2.3018
   79CHL1   C16 8273   5.647   3.271   7.653  0.3299 -0.6956  0.2698
   79CHL1  H16A 8274   5.664   3.369   7.702  0.6360 -0.3862 -0.4426
   79CHL1  H16B 8275   5.582   3.214   7.723  1.1499 -2.2582 -0.2039
   79CHL1   C17 8276   5.788   3.214   7.656  0.2697  0.7864  0.1433
   79CHL1   H17 8277   5.779   3.103   7.650 -0.7562  0.8449  0.3157
   79CHL1   C13 8278   5.850   3.259   7.520 -0.3210  0.1539  0.5794
   79CHL1   C18 8279   5.878   3.410   7.520 -0.5674 -0.7983  0.1933
   79CHL1  H18A 8280   5.895   3.461   7.423 -0.2722 -0.8349  0.2242
   79CHL1  H18B 8281   5.788   3.465   7.558  0.2142  0.3464  0.4557
   79CHL1  H18C 8282   5.970   3.427   7.580 -0.2274 -2.5083  0.1808
   79CHL1   C12 8283   5.963   3.174   7.457  0.1246  0.0247  0.5063
   79CHL1  H12A 8284   6.058   3.198   7.509  0.0064 -0.9244  1.1975
   79CHL1  H12B 8285   5.936   3.067   7.471  0.1779 -0.1618 -0.6890
   79CHL1   C11 8286   5.986   3.197   7.303 -0.9128 -0.2104  0.7296
   79CHL1  H11A 8287   6.031   3.299   7.300  1.2296 -1.0532  2.0888
   79CHL1  H11B 8288   6.061   3.119   7.277 -1.2005 -0.6559  1.2149
   79CHL1    C9 8289   5.855   3.209   7.223 -0.3571  0.3840  0.3999
   79CHL1    H9 8290   5.816   3.106   7.239 -1.9847  1.2952  3.0922
   79CHL1   C10 8291   5.868   3.222   7.072 -0.0903 -0.0572 -0.6972
   79CHL1   C19 8292   5.961   3.347   7.040  0.8636  0.5156  0.0805
   79CHL1  H19A 8293   6.062   3.331   7.084  1.3983 -0.7082 -1.5120
   79CHL1  H19B 8294   5.991   3.366   6.935  3.1974 -0.5070  0.4948
   79CHL1  H19C 8295   5.909   3.434   7.085 -0.1570  0.8279 -1.6294
   79CHL1    C1 8296   5.924   3.091   7.020 -0.4842  0.4798 -0.0152
   79CHL1   H1A 8297   6.027   3.068   7.057 -0.9370 -0.2352  0.8430
   79CHL1   H1B 8298   5.865   3.001   7.048  0.8081 -0.4170 -0.0930
   79CHL1    C2 8299   5.932   3.085   6.864  0.5174  0.4631 -0.3077
   79CHL1   H2A 8300   5.960   2.980   6.839 -0.0568  0.5213 -1.2209
   79CHL1   H2B 8301   6.008   3.152   6.818  1.2881 -1.4679 -2.0288
   79CHL1   C20 8302   5.867   3.237   7.788 -0.3624 -0.4104 -0.4503
   79CHL1   H20 8303   5.882   3.347   7.799  0.2962 -0.4202 -1.1904
   79CHL1   C21 8304   6.009   3.177   7.793 -0.4394  0.6535 -0.0523
   79CHL1  H21A 8305   6.063   3.205   7.699  0.1896  1.3686  0.5041
   79CHL1  H21B 8306   6.011   3.066   7.794 -0.6955  0.6534  1.3991
   79CHL1  H21C 8307   6.070   3.211   7.879 -1.3248  1.7958  0.1453
   79CHL1   C22 8308   5.788   3.196   7.916 -0.1812  0.4673 -0.0471
   79CHL1  H22A 8309   5.687   3.241   7.917 -0.0293  0.8031  0.7460
   79CHL1  H22B 8310   5.780   3.085   7.920  0.5173  0.3714 -0.9391
   79CHL1   C23 8311   5.848   3.248   8.048  0.0777  0.3955 -0.1684
   79CHL1  H23A 8312   5.941   3.187   8.053  0.8286  1.1113 -3.1540
   79CHL1  H23B 8313   5.876   3.355   8.045  0.6178  0.3963  2.6044
   79CHL1   C24 8314   5.770   3.224   8.175 -0.1606 -0.1024 -0.7445
   79CHL1  H24A 8315   5.681   3.291   8.171  0.0266  0.0972 -2.3539
   79CHL1  H24B 8316   5.742   3.116   8.181 -0.6960 -0.0428 -1.9009
   79CHL1   C25 8317   5.853   3.246   8.308  0.4765  0.2800 -0.4676
   79CHL1   H25 8318   5.895   3.349   8.302 -1.6131  1.2390  0.5530
   79CHL1   C26 8319   5.763   3.232   8.433 -0.6725  0.0251 -1.1066
   79CHL1  H26A 8320   5.696   3.319   8.448 -3.1717 -2.1151  1.3169
   79CHL1  H26B 8321   5.699   3.141   8.421  1.2182 -2.2451  3.6893
   79CHL1  H26C 8322   5.819   3.198   8.522 -2.4158 -0.8408 -0.2782
   79CHL1   C27 8323   5.984   3.157   8.317  0.1830 -0.0358  0.2103
   79CHL1  H27A 8324   6.047   3.181   8.405  2.6899  0.0302 -1.4992
   79CHL1  H27B 8325   5.955   3.050   8.318 -0.2875  0.0410 -1.8839
   79CHL1  H27C 8326   6.044   3.182   8.227 -1.1729 -0.0158 -0.7181
   80CHL1    C3 8327   2.384   0.933   6.744  0.2215 -0.3139 -0.1640
   80CHL1    H3 8328   2.329   1.029   6.749 -0.7360 -0.6564 -2.8828
   80CHL1    O3 8329   2.418   0.909   6.609 -0.2550 -0.2247  0.6481
   80CHL1   H3' 8330   2.396   0.816   6.604 -2.8419  0.1274  3.0654
   80CHL1    C4 8331   2.509   0.930   6.836  0.8198 -0.0401  0.6140
   80CHL1   H4A 8332   2.567   0.837   6.819  0.8160  0.2175 -0.9519
   80CHL1   H4B 8333   2.581   1.010   6.808  0.4829  0.0248 -0.0744
   80CHL1    C5 8334   2.473   0.957   6.983 -0.2108 -0.5383 -0.0483
   80CHL1    C6 8335   2.526   1.052   7.057 -0.1353  0.6755  0.1612
   80CHL1    H6 8336   2.603   1.121   7.020  1.1750  1.1911  3.4532
   80CHL1    C7 8337   2.485   1.072   7.202  0.3636 -0.3131  0.1087
   80CHL1   H7A 8338   2.565   1.101   7.274 -0.2947 -0.7049  1.0202
   80CHL1   H7B 8339   2.415   1.158   7.196  2.5402  1.5199 -0.4642
   80CHL1    C8 8340   2.420   0.949   7.261 -0.5377  0.3375 -0.1674
   80CHL1    H8 8341   2.494   0.867   7.273  0.3610  1.1232 -0.2523
   80CHL1   C14 8342   2.346   0.992   7.389  0.1052  0.7691  0.1511
   80CHL1   H14 8343   2.275   1.069   7.352 -0.5824 -0.6935 -1.7379
   80CHL1   C15 8344   2.429   1.059   7.501  0.1698  0.0497  0.4844
   80CHL1  H15A 8345   2.535   1.026   7.510  0.1495 -0.1084  0.1603
   80CHL1  H15B 8346   2.429   1.169   7.486  1.4799  0.2717  1.9059
   80CHL1   C16 8347   2.359   1.028   7.632  0.5546  0.1793 -0.4277
   80CHL1  H16A 8348   2.421   0.959   7.693 -1.9506 -3.5362 -1.7435
   80CHL1  H16B 8349   2.340   1.122   7.689 -1.5989 -0.1654 -0.5026
   80CHL1   C17 8350   2.234   0.949   7.595  0.1589  0.4801  0.5336
   80CHL1   H17 8351   2.159   1.029   7.582 -1.3305 -0.8889  0.3022
   80CHL1   C13 8352   2.269   0.882   7.454 -0.2246 -0.4965  0.5206
   80CHL1   C18 8353   2.368   0.763   7.483  0.7591  0.1754 -0.4644
   80CHL1  H18A 8354   2.323   0.682   7.543 -0.0031  0.8965 -0.0533
   80CHL1  H18B 8355   2.396   0.713   7.387 -1.0534 -1.9470  0.0385
   80CHL1  H18C 8356   2.449   0.810   7.543 -0.0675  2.6837 -1.1652
   80CHL1   C12 8357   2.155   0.838   7.357 -0.1734  0.1770 -0.3494
   80CHL1  H12A 8358   2.084   0.759   7.390 -2.2110  1.3566 -1.7160
   80CHL1  H12B 8359   2.089   0.926   7.348 -2.6744 -1.7483 -2.0101
   80CHL1   C11 8360   2.210   0.797   7.221  0.1188 -0.3954 -0.6525
   80CHL1  H11A 8361   2.263   0.700   7.234  0.0031 -0.2815  0.8416
   80CHL1  H11B 8362   2.121   0.781   7.156 -0.8469 -0.6601  0.6753
   80CHL1    C9 8363   2.308   0.904   7.168 -0.2878 -0.5187 -0.2313
   80CHL1    H9 8364   2.242   0.990   7.148 -0.5681 -0.8329 -0.6818
   80CHL1   C10 8365   2.364   0.853   7.034  0.4041  0.2216 -0.1874
   80CHL1   C19 8366   2.439   0.722   7.041 -0.2672  0.3852 -0.2937
   80CHL1  H19A 8367   2.366   0.644   7.073 -2.4102  2.1730 -0.5675
   80CHL1  H19B 8368   2.483   0.694   6.943 -0.2869  1.9315 -0.7639
   80CHL1  H19C 8369   2.523   0.718   7.113 -0.2917  0.4549 -0.2608
   80CHL1    C1 8370   2.244   0.857   6.924 -0.5372  0.2327 -1.0565
   80CHL1   H1A 8371   2.170   0.783   6.959  0.8060  0.3639  2.4558
   80CHL1   H1B 8372   2.194   0.955   6.940 -1.9671 -0.5697 -0.3830
   80CHL1    C2 8373   2.280   0.825   6.779 -0.1719 -0.0125  0.2016
   80CHL1   H2A 8374   2.189   0.834   6.716 -1.4286  1.9741  2.1458
   80CHL1   H2B 8375   2.317   0.721   6.769 -0.9896 -0.2231 -0.8649
   80CHL1   C20 8376   2.197   0.860   7.713 -0.2063  0.2635  0.7438
   80CHL1   H20 8377   2.280   0.788   7.727 -0.1922 -0.4624 -2.4365
   80CHL1   C21 8378   2.074   0.776   7.664 -0.0649  0.3251 -0.4693
   80CHL1  H21A 8379   2.027   0.722   7.749  2.2119 -1.1759 -0.0715
   80CHL1  H21B 8380   2.110   0.692   7.601  0.0250 -0.1581  0.2141
   80CHL1  H21C 8381   1.995   0.841   7.620 -0.2822  0.5938  0.3033
   80CHL1   C22 8382   2.178   0.928   7.852 -0.3323  0.0889 -0.9805
   80CHL1  H22A 8383   2.281   0.962   7.877 -0.6719  1.3456 -1.1974
   80CHL1  H22B 8384   2.121   1.019   7.825  0.0221  0.1657 -1.4990
   80CHL1   C23 8385   2.115   0.836   7.955  0.1311 -0.1299  0.4452
   80CHL1  H23A 8386   2.005   0.835   7.942  0.3545 -0.2144 -1.9396
   80CHL1  H23B 8387   2.176   0.744   7.941 -0.1315  0.0202 -2.4026
   80CHL1   C24 8388   2.137   0.880   8.097  0.2081 -1.0578  0.4322
   80CHL1  H24A 8389   2.152   0.795   8.167  1.1175  0.5533  2.2797
   80CHL1  H24B 8390   2.239   0.924   8.101  0.0185 -0.2042 -2.1045
   80CHL1   C25 8391   2.030   0.980   8.156  0.1089 -0.5678 -0.2648
   80CHL1   H25 8392   2.010   1.057   8.079  1.2981  0.5158  0.4559
   80CHL1   C26 8393   1.897   0.904   8.184  0.2885  0.5079 -0.4455
   80CHL1  H26A 8394   1.809   0.960   8.222 -0.5801  0.4850 -2.3123
   80CHL1  H26B 8395   1.859   0.850   8.095 -0.2200  0.3405 -0.1326
   80CHL1  H26C 8396   1.910   0.812   8.246  0.4968  0.8405  0.0087
   80CHL1   C27 8397   2.082   1.043   8.283 -0.4409 -0.3358 -0.5884
   80CHL1  H27A 8398   1.995   1.093   8.331  0.4679 -0.5908  1.4708
   80CHL1  H27B 8399   2.129   0.977   8.359  0.7995  1.4442  0.2841
   80CHL1  H27C 8400   2.169   1.108   8.260  1.1263 -1.8642  0.7796
   81CHL1    C3 8401   3.523   5.884   6.676 -0.5923 -0.8609 -0.5761
   81CHL1    H3 8402   3.618   5.829   6.686 -0.5180 -0.6110  0.2077
   81CHL1    O3 8403   3.487   5.897   6.541 -0.4794 -0.6460 -0.0859
   81CHL1   H3' 8404   3.487   5.807   6.508 -3.6694 -1.3237  1.3585
   81CHL1    C4 8405   3.405   5.807   6.745 -0.0383 -0.3483  0.7678
   81CHL1   H4A 8406   3.309   5.853   6.713 -0.2209 -1.9251 -1.0935
   81CHL1   H4B 8407   3.404   5.705   6.702 -0.0892 -1.3118  2.9445
   81CHL1    C5 8408   3.414   5.795   6.890  0.1946  0.8428 -0.2763
   81CHL1    C6 8409   3.417   5.680   6.962  1.9271 -0.0845 -0.9288
   81CHL1    H6 8410   3.409   5.583   6.911  1.9737  0.0290 -1.1502
   81CHL1    C7 8411   3.426   5.679   7.112 -0.3177 -0.5709 -1.0431
   81CHL1   H7A 8412   3.371   5.600   7.167 -0.7338  0.4107 -0.0216
   81CHL1   H7B 8413   3.532   5.657   7.139 -0.3892 -1.0463 -1.1349
   81CHL1    C8 8414   3.386   5.815   7.181 -0.3854  0.7458  0.2178
   81CHL1    H8 8415   3.276   5.818   7.166 -0.2884  1.0370 -0.4529
   81CHL1   C14 8416   3.429   5.812   7.330 -0.0496  0.4495  0.0735
   81CHL1   H14 8417   3.540   5.811   7.325 -0.0315  3.0137 -2.3895
   81CHL1   C15 8418   3.387   5.688   7.420 -0.7332 -0.1435  0.6648
   81CHL1  H15A 8419   3.294   5.638   7.386  0.2050 -2.1549  0.8932
   81CHL1  H15B 8420   3.464   5.612   7.394  0.3758  1.0956  0.2628
   81CHL1   C16 8421   3.394   5.739   7.560  0.8425 -0.0938  0.2701
   81CHL1  H16A 8422   3.297   5.721   7.611  1.0738 -1.7853  0.1724
   81CHL1  H16B 8423   3.469   5.685   7.622 -1.2580 -2.1677  1.1762
   81CHL1   C17 8424   3.434   5.892   7.555 -0.1497  0.2138  0.2921
   81CHL1   H17 8425   3.545   5.895   7.558 -0.1498 -0.1046  0.8507
   81CHL1   C13 8426   3.400   5.935   7.408  0.3723  0.2138  0.8435
   81CHL1   C18 8427   3.247   5.950   7.402  0.3881  0.3083 -0.0348
   81CHL1  H18A 8428   3.221   6.051   7.440  1.8471  1.0911 -1.0233
   81CHL1  H18B 8429   3.204   5.945   7.300 -0.4798 -0.5627  0.3643
   81CHL1  H18C 8430   3.206   5.873   7.470  0.9848  0.3628  0.3975
   81CHL1   C12 8431   3.474   6.049   7.347 -0.5869 -0.1244  0.7365
   81CHL1  H12A 8432   3.446   6.150   7.385  0.5041  1.3737 -2.0807
   81CHL1  H12B 8433   3.584   6.040   7.356 -0.0377  2.0180 -2.2318
   81CHL1   C11 8434   3.445   6.063   7.199 -0.0104 -0.2139  0.3548
   81CHL1  H11A 8435   3.337   6.092   7.198 -0.4944 -1.8929  0.6512
   81CHL1  H11B 8436   3.504   6.143   7.149 -1.7633 -0.2758 -2.0399
   81CHL1    C9 8437   3.455   5.934   7.110  0.0310 -0.5056 -0.3416
   81CHL1    H9 8438   3.565   5.919   7.115  0.3164  1.0912 -1.2124
   81CHL1   C10 8439   3.426   5.941   6.956 -0.2257 -0.4563  0.1345
   81CHL1   C19 8440   3.299   6.017   6.942  0.1829 -0.7664  0.7008
   81CHL1  H19A 8441   3.218   5.976   7.007  1.1328 -3.2799  0.4194
   81CHL1  H19B 8442   3.317   6.124   6.967  0.8549 -0.7074 -0.0171
   81CHL1  H19C 8443   3.245   6.005   6.846  0.1029  0.6516  0.5493
   81CHL1    C1 8444   3.547   6.021   6.890 -0.4922 -0.5375 -0.7561
   81CHL1   H1A 8445   3.557   6.125   6.929 -1.7583 -1.0414  1.0280
   81CHL1   H1B 8446   3.646   5.974   6.907  0.3031  1.9222  2.4563
   81CHL1    C2 8447   3.534   6.023   6.736  0.5887  0.2596 -0.1798
   81CHL1   H2A 8448   3.622   6.078   6.697  1.0564  1.3953  2.2984
   81CHL1   H2B 8449   3.443   6.082   6.710 -0.1701 -0.9868 -0.4304
   81CHL1   C20 8450   3.386   5.974   7.682 -0.2724 -0.9378 -0.0711
   81CHL1   H20 8451   3.276   5.988   7.677 -0.0497  0.9395 -0.4602
   81CHL1   C21 8452   3.440   6.113   7.673  0.1701  0.6911 -0.1145
   81CHL1  H21A 8453   3.551   6.118   7.673  0.2928 -1.0478 -1.5631
   81CHL1  H21B 8454   3.405   6.175   7.759 -3.2220 -1.1305  0.0179
   81CHL1  H21C 8455   3.392   6.150   7.580  1.0210 -0.5633 -1.0905
   81CHL1   C22 8456   3.429   5.911   7.813  0.5522  0.0460 -0.2485
   81CHL1  H22A 8457   3.397   5.804   7.820  1.7595 -0.2954  0.3133
   81CHL1  H22B 8458   3.539   5.924   7.822  0.5157  0.4412 -0.3554
   81CHL1   C23 8459   3.374   5.974   7.947 -0.2341  0.2517 -0.0886
   81CHL1  H23A 8460   3.454   5.941   8.016  2.2015  0.3895 -2.6182
   81CHL1  H23B 8461   3.380   6.084   7.931 -0.4685  0.0235 -2.0751
   81CHL1   C24 8462   3.234   5.924   7.981 -0.5500 -0.1132  0.7420
   81CHL1  H24A 8463   3.164   5.938   7.895  0.0884  2.4886  0.5731
   81CHL1  H24B 8464   3.245   5.813   7.984 -1.9473 -0.3100 -0.3318
   81CHL1   C25 8465   3.176   5.963   8.114  0.2649  0.5227  0.3023
   81CHL1   H25 8466   3.071   5.929   8.119  0.8040 -1.3029  0.0513
   81CHL1   C26 8467   3.248   5.885   8.229 -0.2067  0.2320  0.2583
   81CHL1  H26A 8468   3.189   5.908   8.320 -1.9516 -1.1854 -0.4579
   81CHL1  H26B 8469   3.255   5.775   8.217 -0.3244  0.0368  1.8234
   81CHL1  H26C 8470   3.347   5.935   8.244  0.7031  0.2650 -4.3450
   81CHL1   C27 8471   3.169   6.115   8.143 -0.3556  0.3009 -0.0290
   81CHL1  H27A 8472   3.268   6.163   8.135  0.0960  0.3894  4.1322
   81CHL1  H27B 8473   3.087   6.161   8.084 -1.2247 -1.8240 -0.5826
   81CHL1  H27C 8474   3.137   6.122   8.249 -1.1326  2.1807 -0.3507
   82CHL1    C3 8475   4.815   2.258   7.202  0.0068  0.1519  0.3502
   82CHL1    H3 8476   4.754   2.348   7.224 -0.5566  0.7610 -3.1148
   82CHL1    O3 8477   4.875   2.270   7.073  0.2383  0.2159  0.4032
   82CHL1   H3' 8478   4.851   2.199   7.014  0.1489  0.6608 -0.0941
   82CHL1    C4 8479   4.924   2.238   7.316 -0.4786  0.4365  0.4192
   82CHL1   H4A 8480   4.987   2.156   7.275 -0.6311  0.4230  0.2087
   82CHL1   H4B 8481   4.987   2.329   7.308  1.6137 -1.0597 -1.5248
   82CHL1    C5 8482   4.869   2.199   7.451  0.4553  0.3019  0.0719
   82CHL1    C6 8483   4.895   2.275   7.563  0.1158  0.0820 -0.0783
   82CHL1    H6 8484   4.971   2.354   7.561 -0.5387  0.7674  0.9627
   82CHL1    C7 8485   4.834   2.256   7.699  0.3800  0.1799  0.7299
   82CHL1   H7A 8486   4.915   2.269   7.774 -0.9307 -0.9211  2.4265
   82CHL1   H7B 8487   4.753   2.331   7.710 -0.9970 -1.1593  0.0985
   82CHL1    C8 8488   4.776   2.112   7.702  0.5218  0.4945 -0.0615
   82CHL1    H8 8489   4.859   2.038   7.697 -0.3283 -0.4382 -0.6713
   82CHL1   C14 8490   4.697   2.100   7.833  0.3787  0.7520  0.3097
   82CHL1   H14 8491   4.609   2.167   7.822 -1.7552 -2.0123 -0.6690
   82CHL1   C15 8492   4.760   2.145   7.971  0.5369  0.5011 -0.2426
   82CHL1  H15A 8493   4.862   2.104   7.988 -0.1291 -1.1168  0.0361
   82CHL1  H15B 8494   4.745   2.255   7.981  0.6526  0.2795  3.6201
   82CHL1   C16 8495   4.661   2.083   8.072  0.0564  0.6788  0.0408
   82CHL1  H16A 8496   4.712   2.031   8.155 -0.6349  0.9277  0.6356
   82CHL1  H16B 8497   4.595   2.164   8.110 -1.6684 -0.1751 -0.9975
   82CHL1   C17 8498   4.575   1.983   7.994 -0.0863 -0.4511  0.2519
   82CHL1   H17 8499   4.483   2.040   7.971 -0.4757 -1.1694 -0.0218
   82CHL1   C13 8500   4.639   1.960   7.854 -1.0919 -0.9385  0.7545
   82CHL1   C18 8501   4.756   1.848   7.874  0.2032 -0.0276 -0.3884
   82CHL1  H18A 8502   4.806   1.871   7.970 -1.4643 -1.7329  0.9727
   82CHL1  H18B 8503   4.722   1.743   7.866 -0.8222  0.2650 -0.0129
   82CHL1  H18C 8504   4.830   1.860   7.792  0.5726  0.8628  0.0666
   82CHL1   C12 8505   4.549   1.924   7.735  0.4929  0.4552 -0.5534
   82CHL1  H12A 8506   4.505   1.822   7.735 -0.9312  1.0204  1.0057
   82CHL1  H12B 8507   4.467   1.998   7.746 -0.0733 -0.4565  1.9745
   82CHL1   C11 8508   4.627   1.937   7.604  0.6426 -0.5325 -1.1144
   82CHL1  H11A 8509   4.710   1.862   7.607  0.9524 -0.1653  0.9704
   82CHL1  H11B 8510   4.555   1.919   7.522 -0.3113  0.0900 -0.4359
   82CHL1    C9 8511   4.687   2.077   7.581  0.2265 -0.2382  0.5712
   82CHL1    H9 8512   4.602   2.146   7.598  1.3054  0.5505  3.3099
   82CHL1   C10 8513   4.758   2.088   7.443 -0.3101  0.9476 -0.3983
   82CHL1   C19 8514   4.840   1.961   7.415 -0.3978 -0.8399 -0.3842
   82CHL1  H19A 8515   4.882   1.966   7.312  0.0763 -0.4069 -0.1774
   82CHL1  H19B 8516   4.930   1.945   7.478 -0.7891 -2.1529 -0.1441
   82CHL1  H19C 8517   4.783   1.866   7.417 -1.8399 -0.0155 -0.3407
   82CHL1    C1 8518   4.656   2.113   7.338 -0.0051 -0.0535 -0.3597
   82CHL1   H1A 8519   4.596   2.021   7.323 -1.0916  0.5300  0.2151
   82CHL1   H1B 8520   4.574   2.180   7.374  0.7862 -0.2327  1.8517
   82CHL1    C2 8521   4.711   2.148   7.196  0.2720  0.0752  0.3611
   82CHL1   H2A 8522   4.635   2.187   7.125  1.0595 -0.1093 -0.6049
   82CHL1   H2B 8523   4.758   2.058   7.150 -3.4728 -1.3655 -0.9889
   82CHL1   C20 8524   4.541   1.858   8.074 -0.0311 -0.0897 -0.5911
   82CHL1   H20 8525   4.633   1.797   8.089 -0.4716 -0.3912  1.1363
   82CHL1   C21 8526   4.444   1.762   7.997  0.0781 -0.3525  0.0612
   82CHL1  H21A 8527   4.417   1.682   8.070  2.4560 -0.3110  1.0797
   82CHL1  H21B 8528   4.492   1.715   7.908  1.7904  1.5305 -0.0665
   82CHL1  H21C 8529   4.349   1.808   7.962 -0.5542 -1.8706 -0.2941
   82CHL1   C22 8530   4.496   1.877   8.224  0.2012  0.2139 -0.1688
   82CHL1  H22A 8531   4.496   1.777   8.271 -1.7597  0.8025  1.2376
   82CHL1  H22B 8532   4.561   1.941   8.288 -2.6682  1.9191  1.2428
   82CHL1   C23 8533   4.351   1.932   8.252 -0.5824 -0.0550 -0.1000
   82CHL1  H23A 8534   4.357   2.042   8.243  0.7371 -0.2189 -1.6007
   82CHL1  H23B 8535   4.287   1.900   8.167  0.4134  3.7046 -2.5151
   82CHL1   C24 8536   4.298   1.890   8.388  0.4029  0.4141 -0.4622
   82CHL1  H24A 8537   4.294   1.779   8.395 -2.5712  0.5541  2.3707
   82CHL1  H24B 8538   4.368   1.936   8.461 -0.0024  1.2935 -0.6109
   82CHL1   C25 8539   4.159   1.934   8.427  0.1265 -1.1739  0.2671
   82CHL1   H25 8540   4.089   1.877   8.362 -0.2820 -0.5766  0.1743
   82CHL1   C26 8541   4.117   1.910   8.575  0.0883  0.5561  0.4343
   82CHL1  H26A 8542   4.180   1.974   8.639 -0.0622  1.2787 -0.1199
   82CHL1  H26B 8543   4.009   1.932   8.593 -0.3575 -0.8667 -0.2860
   82CHL1  H26C 8544   4.148   1.805   8.595  2.2864  1.1720  0.4718
   82CHL1   C27 8545   4.129   2.081   8.403  0.1430  0.7543 -0.5234
   82CHL1  H27A 8546   4.128   2.109   8.295  0.7725  2.4719 -0.1174
   82CHL1  H27B 8547   4.031   2.114   8.444  1.8603  3.0787  2.0764
   82CHL1  H27C 8548   4.205   2.142   8.456  0.4697  2.0725 -2.3823
   83CHL1    C3 8549   6.396   0.775   6.871 -0.9295 -0.6203 -0.3464
   83CHL1    H3 8550   6.359   0.879   6.869  0.1182 -0.2195  0.4626
   83CHL1    O3 8551   6.474   0.768   6.759 -0.4616  0.5447  0.0147
   83CHL1   H3' 8552   6.511   0.856   6.748  0.1810  0.2786 -0.0127
   83CHL1    C4 8553   6.480   0.741   6.999  0.2875  0.6947  0.2057
   83CHL1   H4A 8554   6.553   0.662   6.973  2.2774  2.5629 -0.1996
   83CHL1   H4B 8555   6.550   0.825   7.021  2.9517 -0.9114 -1.4947
   83CHL1    C5 8556   6.400   0.711   7.121  0.4562 -0.3058 -0.2327
   83CHL1    C6 8557   6.416   0.783   7.233  0.7280 -0.1360  0.0745
   83CHL1    H6 8558   6.496   0.859   7.236  0.6836 -0.0968  0.2903
   83CHL1    C7 8559   6.331   0.767   7.360 -0.4447  0.4118  0.1219
   83CHL1   H7A 8560   6.400   0.769   7.447  0.3292 -0.2120 -0.4634
   83CHL1   H7B 8561   6.265   0.856   7.373  0.9357  1.6657 -1.0794
   83CHL1    C8 8562   6.252   0.633   7.361 -0.8321 -0.1138  0.0818
   83CHL1    H8 8563   6.327   0.553   7.378  0.7084  0.3356 -3.5860
   83CHL1   C14 8564   6.149   0.628   7.476  1.0030 -0.1588  0.7583
   83CHL1   H14 8565   6.087   0.717   7.456  0.7798 -0.6383 -0.9053
   83CHL1   C15 8566   6.194   0.648   7.615 -0.8304 -0.0240 -0.2929
   83CHL1  H15A 8567   6.271   0.573   7.644  1.6982  3.2195  2.0827
   83CHL1  H15B 8568   6.241   0.745   7.640  1.6604 -0.6369 -2.2820
   83CHL1   C16 8569   6.071   0.608   7.698 -0.1857 -0.3097  0.0271
   83CHL1  H16A 8570   6.107   0.557   7.790 -1.0617  0.7902  1.0191
   83CHL1  H16B 8571   6.014   0.695   7.737 -0.1328 -1.1637  2.1780
   83CHL1   C17 8572   5.975   0.523   7.603 -0.4481  0.3942  0.1043
   83CHL1   H17 8573   5.884   0.576   7.570  0.6116 -0.0332 -4.0028
   83CHL1   C13 8574   6.064   0.500   7.474 -0.1026  0.3408 -0.2424
   83CHL1   C18 8575   6.157   0.370   7.502 -0.2603  0.8328  0.8074
   83CHL1  H18A 8576   6.110   0.270   7.491  1.5686 -0.0163  0.3654
   83CHL1  H18B 8577   6.234   0.371   7.422  0.0109 -0.2881  1.0416
   83CHL1  H18C 8578   6.207   0.376   7.600 -0.6975 -0.7270  1.1545
   83CHL1   C12 8579   5.992   0.501   7.342 -0.3345 -0.3002  0.7706
   83CHL1  H12A 8580   5.907   0.430   7.337  1.0246 -1.9167 -0.7040
   83CHL1  H12B 8581   5.943   0.601   7.333  1.2392  0.5791  1.6625
   83CHL1   C11 8582   6.088   0.477   7.223 -0.7498 -0.6320 -0.4669
   83CHL1  H11A 8583   6.132   0.375   7.219 -1.0099 -0.7298 -0.8972
   83CHL1  H11B 8584   6.020   0.472   7.135  2.5766 -2.0704 -3.1784
   83CHL1    C9 8585   6.187   0.598   7.221  0.0470  0.1276 -1.1273
   83CHL1    H9 8586   6.113   0.681   7.215 -2.1252 -1.4390  1.5831
   83CHL1   C10 8587   6.281   0.605   7.099 -0.2968  0.0080  0.2835
   83CHL1   C19 8588   6.344   0.463   7.086  0.4351  0.1123 -0.0563
   83CHL1  H19A 8589   6.276   0.376   7.081 -0.4717  0.7713  0.5831
   83CHL1  H19B 8590   6.410   0.454   6.997 -0.0953  1.4964 -0.6163
   83CHL1  H19C 8591   6.406   0.450   7.177  1.3810  0.3875 -0.6444
   83CHL1    C1 8592   6.197   0.646   6.971  0.0343  0.2550  0.1257
   83CHL1   H1A 8593   6.133   0.556   6.959  2.2627 -1.3214 -0.6636
   83CHL1   H1B 8594   6.138   0.737   6.996 -1.1795 -0.9503  1.8359
   83CHL1    C2 8595   6.290   0.667   6.847 -0.2741 -0.5181 -0.6526
   83CHL1   H2A 8596   6.230   0.680   6.754  1.5648  0.0485 -1.8160
   83CHL1   H2B 8597   6.344   0.571   6.840 -1.3328 -1.1436 -0.4629
   83CHL1   C20 8598   5.918   0.405   7.681 -0.5582 -0.1565 -0.5826
   83CHL1   H20 8599   6.008   0.348   7.713  1.4624  3.9147  1.7369
   83CHL1   C21 8600   5.823   0.321   7.589 -0.3099 -0.5784 -0.1795
   83CHL1  H21A 8601   5.751   0.258   7.646  1.2941 -0.2055  2.4331
   83CHL1  H21B 8602   5.888   0.258   7.525 -0.7900 -0.5376 -0.7087
   83CHL1  H21C 8603   5.774   0.388   7.515 -0.8174 -1.1200 -0.3440
   83CHL1   C22 8604   5.841   0.450   7.813 -0.4021  0.3424 -0.1051
   83CHL1  H22A 8605   5.898   0.527   7.869 -1.7104  0.8606  0.5414
   83CHL1  H22B 8606   5.751   0.509   7.783 -1.4431 -1.1054  0.0562
   83CHL1   C23 8607   5.811   0.334   7.900 -0.6005  0.3124 -0.0213
   83CHL1  H23A 8608   5.792   0.372   8.003  0.4587  0.5494  0.0993
   83CHL1  H23B 8609   5.722   0.276   7.868 -1.8354  3.1871 -2.2681
   83CHL1   C24 8610   5.924   0.230   7.918  0.1684 -0.2582 -0.1869
   83CHL1  H24A 8611   5.876   0.151   7.979 -4.1733  0.9449 -1.7044
   83CHL1  H24B 8612   5.951   0.199   7.814  1.0980  2.2935 -0.7859
   83CHL1   C25 8613   6.061   0.284   7.980  0.0421  0.0555 -0.3299
   83CHL1   H25 8614   6.101   0.369   7.921  1.9266  0.4995  1.4446
   83CHL1   C26 8615   6.038   0.315   8.128  0.1831 -0.1684 -0.5533
   83CHL1  H26A 8616   6.120   0.366   8.182 -0.4693 -0.8815  1.1868
   83CHL1  H26B 8617   5.951   0.383   8.140 -0.0372 -0.0182 -2.5943
   83CHL1  H26C 8618   6.003   0.220   8.173 -0.9666  0.6871  0.4606
   83CHL1   C27 8619   6.164   0.171   7.963 -0.7301 -0.2708 -0.2669
   83CHL1  H27A 8620   6.147   0.124   7.864 -0.4220 -2.0278  0.4765
   83CHL1  H27B 8621   6.261   0.221   7.985 -0.8366 -1.0527  2.2009
   83CHL1  H27C 8622   6.152   0.090   8.038 -1.4184  1.2731  1.3604
   84CHL1    C3 8623   1.967   2.633   7.113  0.2597 -0.9675  0.0930
   84CHL1    H3 8624   1.932   2.546   7.172  1.8411 -1.0866  0.9132
   84CHL1    O3 8625   1.909   2.643   6.982  0.3502  0.1048  0.4188
   84CHL1   H3' 8626   1.963   2.707   6.935 -1.0695  0.4928 -0.7470
   84CHL1    C4 8627   1.950   2.765   7.191 -0.8486  0.0219  0.6078
   84CHL1   H4A 8628   2.004   2.843   7.134 -1.1361 -0.3243 -0.1495
   84CHL1   H4B 8629   1.844   2.798   7.197 -1.1232 -1.0618  4.0566
   84CHL1    C5 8630   2.009   2.755   7.330  0.3167 -0.4099  0.4156
   84CHL1    C6 8631   1.935   2.777   7.439 -0.2483  0.0709 -0.3320
   84CHL1    H6 8632   1.827   2.796   7.426 -0.0697  1.7123  0.3688
   84CHL1    C7 8633   1.999   2.779   7.577  0.7299 -0.1379 -0.3624
   84CHL1   H7A 8634   1.968   2.873   7.627 -0.4644 -1.0317  0.6744
   84CHL1   H7B 8635   1.964   2.699   7.647 -0.0719  0.5947  0.0956
   84CHL1    C8 8636   2.152   2.782   7.579 -0.0374 -0.0707 -0.3579
   84CHL1    H8 8637   2.172   2.889   7.555 -1.3297  0.7714  1.9910
   84CHL1   C14 8638   2.217   2.732   7.712  0.4203 -0.5171  0.5208
   84CHL1   H14 8639   2.190   2.625   7.716  0.0042 -0.4556 -0.4145
   84CHL1   C15 8640   2.155   2.793   7.840 -0.0439  0.1924 -0.6519
   84CHL1  H15A 8641   2.152   2.904   7.828 -1.5506 -0.0132 -2.7059
   84CHL1  H15B 8642   2.049   2.758   7.844 -0.3301  0.9239 -1.4882
   84CHL1   C16 8643   2.243   2.748   7.953 -0.1660 -0.0877 -0.4316
   84CHL1  H16A 8644   2.232   2.823   8.034 -3.0737  1.5818 -2.2154
   84CHL1  H16B 8645   2.195   2.663   8.008  0.2976 -0.1394 -0.0998
   84CHL1   C17 8646   2.383   2.709   7.882  0.3264  0.4359 -0.2252
   84CHL1   H17 8647   2.381   2.598   7.889  0.4672  0.4246 -0.3448
   84CHL1   C13 8648   2.365   2.744   7.727 -0.4482 -0.1949 -0.1823
   84CHL1   C18 8649   2.412   2.889   7.706 -0.1215  0.1439  0.1290
   84CHL1  H18A 8650   2.417   2.928   7.602  3.0621  4.3686  1.5709
   84CHL1  H18B 8651   2.352   2.969   7.752 -1.5085 -1.0027  0.3813
   84CHL1  H18C 8652   2.515   2.906   7.744  0.3557 -2.3295  0.1232
   84CHL1   C12 8653   2.428   2.652   7.619  0.0846 -0.1059 -0.1352
   84CHL1  H12A 8654   2.538   2.664   7.620  0.4897 -3.0755 -0.4559
   84CHL1  H12B 8655   2.402   2.547   7.646  0.4767  0.2813  1.8370
   84CHL1   C11 8656   2.370   2.672   7.478 -0.2399 -0.2082 -0.4263
   84CHL1  H11A 8657   2.424   2.757   7.431  0.5343  0.0119  0.8212
   84CHL1  H11B 8658   2.400   2.580   7.425 -0.4226 -2.4747  3.0752
   84CHL1    C9 8659   2.211   2.686   7.471  0.0730  0.9895 -0.3351
   84CHL1    H9 8660   2.171   2.584   7.492  0.9459  0.8291  0.6400
   84CHL1   C10 8661   2.150   2.716   7.328  0.2949  1.0655 -0.1952
   84CHL1   C19 8662   2.245   2.821   7.259  0.1130 -0.6368 -0.6660
   84CHL1  H19A 8663   2.210   2.842   7.156  4.9819 -0.8253 -2.6082
   84CHL1  H19B 8664   2.257   2.909   7.325  0.2303  0.7840 -2.5395
   84CHL1  H19C 8665   2.348   2.782   7.250  0.3870  0.5010 -3.3995
   84CHL1    C1 8666   2.165   2.583   7.240 -0.8762  0.4125 -0.0108
   84CHL1   H1A 8667   2.271   2.550   7.242 -0.8475  0.5317  0.4952
   84CHL1   H1B 8668   2.117   2.507   7.306 -0.3673  1.5220  1.6902
   84CHL1    C2 8669   2.116   2.600   7.103  0.4848 -0.2632  0.6100
   84CHL1   H2A 8670   2.135   2.523   7.026 -2.5511  0.0976 -0.6546
   84CHL1   H2B 8671   2.179   2.679   7.059 -0.0983  1.7776  3.1434
   84CHL1   C20 8672   2.511   2.750   7.956 -0.0056 -0.6158 -0.1628
   84CHL1   H20 8673   2.528   2.860   7.956  1.0781 -0.7377  1.4718
   84CHL1   C21 8674   2.642   2.698   7.885  0.5345  0.1671  1.4210
   84CHL1  H21A 8675   2.660   2.746   7.787 -1.3872 -0.2080  0.8378
   84CHL1  H21B 8676   2.618   2.591   7.868 -1.0043  0.8231 -1.0685
   84CHL1  H21C 8677   2.731   2.718   7.949  1.8468  1.0345 -0.5864
   84CHL1   C22 8678   2.517   2.711   8.104  0.2977  0.6870 -0.0947
   84CHL1  H22A 8679   2.604   2.760   8.152  0.2090  2.1231 -1.3215
   84CHL1  H22B 8680   2.429   2.747   8.161 -0.4437 -1.2565  0.0875
   84CHL1   C23 8681   2.508   2.554   8.117  0.0147  0.2952  0.2877
   84CHL1  H23A 8682   2.414   2.520   8.067 -0.4218  0.5099  0.9479
   84CHL1  H23B 8683   2.581   2.501   8.053 -0.9959  0.7634 -1.3253
   84CHL1   C24 8684   2.505   2.504   8.260 -0.1138  0.8462  0.1407
   84CHL1  H24A 8685   2.515   2.394   8.264 -2.6858  0.5737  0.9367
   84CHL1  H24B 8686   2.578   2.556   8.326  0.6200 -2.4389  2.1182
   84CHL1   C25 8687   2.369   2.520   8.340  0.3209 -0.5966 -0.5592
   84CHL1   H25 8688   2.361   2.626   8.372 -1.5441 -1.9306  4.0968
   84CHL1   C26 8689   2.235   2.488   8.274 -0.1160  0.2975  0.0636
   84CHL1  H26A 8690   2.148   2.502   8.342  0.7993 -2.2388  1.9197
   84CHL1  H26B 8691   2.231   2.549   8.182  1.8412  0.0060 -0.2553
   84CHL1  H26C 8692   2.235   2.382   8.242  0.5777 -0.5995  2.7619
   84CHL1   C27 8693   2.388   2.443   8.472 -0.5213  0.2010 -0.4671
   84CHL1  H27A 8694   2.303   2.456   8.542 -0.9099  1.4878 -1.1257
   84CHL1  H27B 8695   2.391   2.335   8.448 -2.7832 -0.3717  1.5196
   84CHL1  H27C 8696   2.475   2.476   8.532 -1.3248 -0.2052  0.9532
   85CHL1    C3 8697   1.884   0.528   6.633 -0.2717 -0.1333 -0.3367
   85CHL1    H3 8698   1.788   0.585   6.637  0.7501  1.6955 -0.5725
   85CHL1    O3 8699   1.941   0.553   6.513 -0.4587  0.1518 -0.0540
   85CHL1   H3' 8700   1.892   0.499   6.451 -0.1536  0.1850 -0.3265
   85CHL1    C4 8701   1.986   0.576   6.737  0.5328 -0.0783 -0.2423
   85CHL1   H4A 8702   2.089   0.541   6.716  1.9656  1.6864  3.1073
   85CHL1   H4B 8703   1.993   0.687   6.728  2.7096 -0.2294 -0.9773
   85CHL1    C5 8704   1.949   0.531   6.879 -0.0013 -0.5686 -0.0814
   85CHL1    C6 8705   1.934   0.626   6.974  0.6827 -0.8055 -0.0097
   85CHL1    H6 8706   1.938   0.733   6.948 -3.2121 -0.7603 -1.0367
   85CHL1    C7 8707   1.903   0.592   7.114 -0.1960 -0.4416 -0.2508
   85CHL1   H7A 8708   1.975   0.647   7.179  0.2047 -3.0895  1.7179
   85CHL1   H7B 8709   1.802   0.622   7.148 -0.6003 -3.1883  1.2672
   85CHL1    C8 8710   1.940   0.444   7.142 -0.1465  0.3147  0.6190
   85CHL1    H8 8711   2.051   0.435   7.143 -0.1699 -0.1588 -0.0020
   85CHL1   C14 8712   1.897   0.413   7.289  0.9582  0.3453  0.6485
   85CHL1   H14 8713   1.788   0.433   7.285  1.1658  1.3600 -0.7155
   85CHL1   C15 8714   1.960   0.494   7.408 -0.0450  0.6474  0.4443
   85CHL1  H15A 8715   2.066   0.508   7.379  0.1694 -1.4277  0.0232
   85CHL1  H15B 8716   1.896   0.585   7.413  0.0885  0.7094  0.9927
   85CHL1   C16 8717   1.923   0.395   7.528 -0.5932 -0.2998  0.2110
   85CHL1  H16A 8718   2.007   0.367   7.596 -0.5975 -2.5970 -0.6569
   85CHL1  H16B 8719   1.864   0.455   7.600 -2.3581 -0.4102 -1.0936
   85CHL1   C17 8720   1.853   0.273   7.469 -0.1398  0.2930  0.2902
   85CHL1   H17 8721   1.743   0.294   7.467 -0.1975 -0.0701 -1.0448
   85CHL1   C13 8722   1.892   0.263   7.327  0.1525  0.1886 -0.5775
   85CHL1   C18 8723   2.046   0.224   7.325  0.6631  0.0727  0.4820
   85CHL1  H18A 8724   2.108   0.283   7.397  0.3436  2.8425 -1.3696
   85CHL1  H18B 8725   2.060   0.114   7.334 -0.0475 -0.2190 -1.6515
   85CHL1  H18C 8726   2.096   0.243   7.228 -0.3583  1.6901  0.2426
   85CHL1   C12 8727   1.801   0.188   7.230 -0.6363 -0.3624  0.3114
   85CHL1  H12A 8728   1.781   0.080   7.248 -1.5703 -0.6756 -2.2137
   85CHL1  H12B 8729   1.699   0.233   7.220 -0.6188 -0.6673 -1.4653
   85CHL1   C11 8730   1.861   0.210   7.086  0.8528  0.4432 -0.2573
   85CHL1  H11A 8731   1.963   0.165   7.088  0.3430 -0.7347  0.8878
   85CHL1  H11B 8732   1.796   0.157   7.013  0.6477  0.9411 -0.4404
   85CHL1    C9 8733   1.871   0.358   7.040 -0.1067  0.1935 -0.1428
   85CHL1    H9 8734   1.768   0.396   7.050  0.2487  1.4111 -0.9238
   85CHL1   C10 8735   1.923   0.377   6.898 -0.1991  0.2977  0.4618
   85CHL1   C19 8736   2.055   0.301   6.879 -0.2430  0.2833 -0.1635
   85CHL1  H19A 8737   2.135   0.353   6.935 -0.2621  1.7970 -1.4774
   85CHL1  H19B 8738   2.051   0.193   6.903 -0.9158  0.6944  1.7315
   85CHL1  H19C 8739   2.081   0.304   6.771  0.2215  0.2121 -0.0543
   85CHL1    C1 8740   1.813   0.349   6.790 -0.3053 -0.2869 -0.5607
   85CHL1   H1A 8741   1.790   0.241   6.801 -1.4642  0.1264  1.5907
   85CHL1   H1B 8742   1.725   0.412   6.817  0.2332  0.5651 -0.7548
   85CHL1    C2 8743   1.856   0.373   6.644 -0.4854  0.0175 -0.3048
   85CHL1   H2A 8744   1.772   0.342   6.579 -0.3734 -0.6958 -0.1160
   85CHL1   H2B 8745   1.944   0.315   6.608  1.7049  2.9345 -0.0487
   85CHL1   C20 8746   1.874   0.154   7.563  0.2399 -0.9955 -0.4307
   85CHL1   H20 8747   1.984   0.144   7.567  0.4911  1.1940 -0.2946
   85CHL1   C21 8748   1.809   0.021   7.521  0.3702 -0.3789 -0.0049
   85CHL1  H21A 8749   1.870  -0.006   7.433 -0.8614 -0.5207 -0.8400
   85CHL1  H21B 8750   1.700   0.041   7.506  0.0255 -3.0956 -1.7079
   85CHL1  H21C 8751   1.834  -0.044   7.608  2.4806  2.1155  1.4050
   85CHL1   C22 8752   1.836   0.181   7.715  0.1397 -0.6165  0.0494
   85CHL1  H22A 8753   1.843   0.289   7.741  0.1388 -0.6900  0.3540
   85CHL1  H22B 8754   1.727   0.162   7.716 -0.5471  2.7536  0.3464
   85CHL1   C23 8755   1.912   0.101   7.811 -0.1186  0.0210  0.0503
   85CHL1  H23A 8756   1.894  -0.008   7.798  1.4127 -0.4152  1.2327
   85CHL1  H23B 8757   2.020   0.119   7.792  0.0772  0.6226  1.6104
   85CHL1   C24 8758   1.900   0.142   7.958 -0.2085 -0.8909 -0.2187
   85CHL1  H24A 8759   1.944   0.244   7.960  1.3010 -1.5139 -0.3696
   85CHL1  H24B 8760   1.798   0.136   8.001 -0.0939 -0.0726  0.1846
   85CHL1   C25 8761   1.994   0.062   8.042  0.4940 -0.3036  0.3481
   85CHL1   H25 8762   2.095   0.090   8.004  0.6832  1.0740  1.7824
   85CHL1   C26 8763   1.974   0.113   8.191  0.3157  0.0861 -0.4902
   85CHL1  H26A 8764   2.049   0.076   8.264  0.0029 -1.7819 -1.0649
   85CHL1  H26B 8765   1.983   0.224   8.193  0.3921  0.1216 -1.7934
   85CHL1  H26C 8766   1.883   0.066   8.234  3.0443 -2.4924  2.9918
   85CHL1   C27 8767   1.987  -0.086   8.044 -0.3462 -0.0549 -0.5510
   85CHL1  H27A 8768   1.993  -0.124   7.940 -2.3278  3.1213 -1.9524
   85CHL1  H27B 8769   2.072  -0.136   8.095 -0.3725 -1.8441 -2.1601
   85CHL1  H27C 8770   1.891  -0.125   8.083  0.7669 -1.6409  0.7250
   86CHL1    C3 8771   3.572   4.613   6.593  0.4904  0.1946 -0.3014
   86CHL1    H3 8772   3.566   4.719   6.625  1.1227 -0.6646  3.0948
   86CHL1    O3 8773   3.563   4.607   6.456 -0.4291  0.5458  0.0203
   86CHL1   H3' 8774   3.600   4.523   6.428 -0.5474  0.6015 -0.3055
   86CHL1    C4 8775   3.718   4.557   6.628 -0.0134 -1.2188  0.1166
   86CHL1   H4A 8776   3.750   4.466   6.574  2.5530  0.7427 -1.8949
   86CHL1   H4B 8777   3.786   4.634   6.587 -0.9940 -0.4488 -0.1228
   86CHL1    C5 8778   3.735   4.545   6.781 -0.8537  0.2034 -0.8520
   86CHL1    C6 8779   3.838   4.603   6.849  0.6135  0.6839 -0.0944
   86CHL1    H6 8780   3.915   4.654   6.788  1.4029  0.4140  0.6517
   86CHL1    C7 8781   3.884   4.586   6.980 -0.2101 -0.7727 -0.5222
   86CHL1   H7A 8782   3.993   4.566   6.989 -0.4979 -1.9644  0.7655
   86CHL1   H7B 8783   3.878   4.677   7.044 -1.1567 -1.8966  1.0759
   86CHL1    C8 8784   3.797   4.475   7.046 -0.0312 -0.2633 -0.1512
   86CHL1    H8 8785   3.847   4.381   7.016  0.0364 -0.5717  0.8754
   86CHL1   C14 8786   3.800   4.491   7.190  0.3182  0.1297 -0.5477
   86CHL1   H14 8787   3.736   4.579   7.208 -2.0922 -1.9374  1.9305
   86CHL1   C15 8788   3.924   4.533   7.252 -0.2650  0.4192  0.6759
   86CHL1  H15A 8789   4.014   4.477   7.219  0.3318  1.1947  0.9751
   86CHL1  H15B 8790   3.949   4.639   7.230  0.5477 -0.1704 -1.5490
   86CHL1   C16 8791   3.904   4.510   7.405  0.2483 -0.6028 -0.1542
   86CHL1  H16A 8792   3.977   4.444   7.456  1.4261 -0.2036 -1.2775
   86CHL1  H16B 8793   3.899   4.610   7.452 -2.7352  0.2106 -1.9280
   86CHL1   C17 8794   3.752   4.458   7.419  0.0687  0.0967  0.2267
   86CHL1   H17 8795   3.693   4.551   7.431 -1.8440 -1.2128  1.4633
   86CHL1   C13 8796   3.723   4.390   7.282 -0.3435  0.4674  0.0453
   86CHL1   C18 8797   3.792   4.253   7.277  0.2891 -0.1774  0.5227
   86CHL1  H18A 8798   3.791   4.205   7.177  1.0099 -1.1172  0.9456
   86CHL1  H18B 8799   3.893   4.261   7.325 -0.9844 -0.7074  3.5300
   86CHL1  H18C 8800   3.730   4.180   7.333  3.0122 -2.6225  0.6274
   86CHL1   C12 8801   3.576   4.385   7.235  0.0138  0.0409  0.0169
   86CHL1  H12A 8802   3.525   4.297   7.280  1.1910 -0.1077  1.1051
   86CHL1  H12B 8803   3.521   4.476   7.267 -3.0053 -2.1704  1.6219
   86CHL1   C11 8804   3.562   4.365   7.084  0.3791  0.4031  0.2809
   86CHL1  H11A 8805   3.616   4.270   7.062 -0.5835 -0.2260  0.5314
   86CHL1  H11B 8806   3.453   4.358   7.060  0.0475  0.6047  1.6199
   86CHL1    C9 8807   3.651   4.467   7.001  0.3482 -0.0689 -0.5728
   86CHL1    H9 8808   3.596   4.560   7.026 -0.3686 -0.4362 -0.7453
   86CHL1   C10 8809   3.631   4.462   6.849  1.0518  0.6023  0.2541
   86CHL1   C19 8810   3.661   4.314   6.800 -1.5149 -0.2844 -0.0594
   86CHL1  H19A 8811   3.766   4.283   6.821 -0.9374  0.9192 -1.0520
   86CHL1  H19B 8812   3.601   4.236   6.852 -2.7951  1.4845  1.2352
   86CHL1  H19C 8813   3.632   4.310   6.693 -2.7738 -0.2833  0.2649
   86CHL1    C1 8814   3.489   4.507   6.810  0.2406 -0.7785  0.9422
   86CHL1   H1A 8815   3.415   4.435   6.853 -1.0016  0.4630  0.9326
   86CHL1   H1B 8816   3.468   4.604   6.859  0.9658 -0.8178  1.3509
   86CHL1    C2 8817   3.464   4.525   6.654 -0.5063 -0.1295  0.8385
   86CHL1   H2A 8818   3.368   4.578   6.645 -0.3706  0.1229  0.8689
   86CHL1   H2B 8819   3.453   4.427   6.602 -0.3963 -0.1495  0.8526
   86CHL1   C20 8820   3.708   4.380   7.543  0.4016 -0.9872  0.5484
   86CHL1   H20 8821   3.731   4.271   7.545  2.1686 -0.6618 -0.1292
   86CHL1   C21 8822   3.556   4.385   7.560 -0.4457  0.0832  1.0331
   86CHL1  H21A 8823   3.515   4.486   7.545 -1.7289 -0.6480 -0.6724
   86CHL1  H21B 8824   3.528   4.337   7.657  0.3906 -1.0261  0.7505
   86CHL1  H21C 8825   3.505   4.324   7.482  1.1916 -0.0031 -0.0136
   86CHL1   C22 8826   3.767   4.444   7.679 -1.3112 -0.1578 -0.0146
   86CHL1  H22A 8827   3.877   4.456   7.665 -1.0354 -0.5315  1.6029
   86CHL1  H22B 8828   3.720   4.541   7.707  0.6474  0.2940  2.1377
   86CHL1   C23 8829   3.763   4.332   7.788 -0.0247 -0.2808  0.0339
   86CHL1  H23A 8830   3.679   4.260   7.793  0.8785 -1.3463  0.5560
   86CHL1  H23B 8831   3.849   4.263   7.773 -1.1316 -1.7443  0.3035
   86CHL1   C24 8832   3.772   4.376   7.938  0.1860  0.5206  0.1766
   86CHL1  H24A 8833   3.785   4.285   7.999  0.1291  1.0783  1.0354
   86CHL1  H24B 8834   3.874   4.421   7.939  0.6624 -0.4611 -1.0322
   86CHL1   C25 8835   3.662   4.473   7.985 -0.6341  0.2028  0.2089
   86CHL1   H25 8836   3.678   4.575   7.944  1.6331 -0.0619  0.3345
   86CHL1   C26 8837   3.520   4.426   7.969  0.1636  0.2963 -0.1473
   86CHL1  H26A 8838   3.462   4.513   8.006 -0.6097  0.7914 -2.3805
   86CHL1  H26B 8839   3.488   4.395   7.867  0.8660  2.3852 -1.0435
   86CHL1  H26C 8840   3.504   4.331   8.024 -1.3876 -0.5216 -1.8732
   86CHL1   C27 8841   3.675   4.500   8.134  0.1779  0.1010 -0.0407
   86CHL1  H27A 8842   3.680   4.406   8.194  1.6157  0.2509  0.1064
   86CHL1  H27B 8843   3.771   4.553   8.152 -0.0787  0.5482  0.0207
   86CHL1  H27C 8844   3.597   4.570   8.169 -0.6191 -0.7946  0.0233
   87CHL1    C3 8845   0.037   4.395   6.782 -0.4921  0.6136 -0.0033
   87CHL1    H3 8846   0.048   4.284   6.788  0.6617  0.7591  0.8605
   87CHL1    O3 8847   0.042   4.425   6.645  0.4042 -0.0273  0.0500
   87CHL1   H3' 8848  -0.042   4.389   6.618  0.7368 -1.6133  1.0170
   87CHL1    C4 8849  -0.087   4.451   6.845 -0.4071  0.4602 -0.2500
   87CHL1   H4A 8850  -0.075   4.558   6.819  0.5186  0.3116 -0.4704
   87CHL1   H4B 8851  -0.178   4.414   6.792 -0.2212  1.6824 -1.4729
   87CHL1    C5 8852  -0.101   4.435   6.997 -0.8640  0.1297  0.3961
   87CHL1    C6 8853  -0.205   4.385   7.056 -0.2089  0.0708 -0.1643
   87CHL1    H6 8854  -0.293   4.368   6.992  0.6386  2.8006 -2.2102
   87CHL1    C7 8855  -0.229   4.363   7.205 -0.9031  0.5487 -0.4422
   87CHL1   H7A 8856  -0.316   4.417   7.247 -1.7405 -0.9181 -0.2344
   87CHL1   H7B 8857  -0.253   4.258   7.231 -1.9876  0.9174  0.1115
   87CHL1    C8 8858  -0.110   4.422   7.291  0.9460 -0.4075  0.1267
   87CHL1    H8 8859  -0.134   4.530   7.301  1.2802 -0.1632 -1.4872
   87CHL1   C14 8860  -0.108   4.349   7.424  0.4744  0.2269  0.4075
   87CHL1   H14 8861  -0.087   4.244   7.394  0.0727  0.4297 -0.6319
   87CHL1   C15 8862  -0.234   4.359   7.517  0.0131 -0.4394 -1.0584
   87CHL1  H15A 8863  -0.277   4.461   7.507  0.7927  0.0483  0.2906
   87CHL1  H15B 8864  -0.310   4.286   7.481  0.0402 -0.6518 -0.6882
   87CHL1   C16 8865  -0.183   4.326   7.658 -0.3131  0.2353  0.1882
   87CHL1  H16A 8866  -0.200   4.419   7.717  2.0826  0.7259  0.2179
   87CHL1  H16B 8867  -0.230   4.237   7.705  1.3447  0.2948  2.0658
   87CHL1   C17 8868  -0.024   4.310   7.636  0.6437  0.3960 -0.9955
   87CHL1   H17 8869  -0.001   4.206   7.608  2.2664  0.0871  1.2320
   87CHL1   C13 8870   0.008   4.395   7.513  0.1624 -0.3518 -0.1651
   87CHL1   C18 8871  -0.009   4.544   7.548 -0.4320  0.3977 -0.4336
   87CHL1  H18A 8872   0.048   4.554   7.643 -0.6381 -0.5514 -0.2013
   87CHL1  H18B 8873   0.022   4.614   7.467 -0.0802  1.5155  0.6297
   87CHL1  H18C 8874  -0.115   4.571   7.571 -0.3369 -0.0694  0.5896
   87CHL1   C12 8875   0.148   4.368   7.440 -0.2436 -0.1829 -0.6507
   87CHL1  H12A 8876   0.241   4.399   7.492  0.4932 -1.8381 -0.9338
   87CHL1  H12B 8877   0.153   4.258   7.427 -0.2126 -0.0947 -1.4304
   87CHL1   C11 8878   0.146   4.433   7.305  1.1501 -0.8918  0.1889
   87CHL1  H11A 8879   0.157   4.541   7.326 -0.4950 -0.3595 -1.4324
   87CHL1  H11B 8880   0.241   4.416   7.249  2.1923 -1.1349  1.9500
   87CHL1    C9 8881   0.024   4.398   7.220 -1.0612  0.4488  0.8047
   87CHL1    H9 8882   0.023   4.289   7.199 -0.4311  0.3512  1.2590
   87CHL1   C10 8883   0.032   4.457   7.078 -0.8010 -0.1752 -0.5881
   87CHL1   C19 8884   0.031   4.616   7.096 -0.3099  0.1490  0.3837
   87CHL1  H19A 8885   0.028   4.663   6.995 -0.9303 -0.3256  0.1753
   87CHL1  H19B 8886  -0.060   4.653   7.148  0.3941  0.1613  1.6419
   87CHL1  H19C 8887   0.124   4.649   7.146 -0.3207  2.1890 -0.8160
   87CHL1    C1 8888   0.157   4.412   7.002  0.4229 -0.2963  0.5352
   87CHL1   H1A 8889   0.249   4.456   7.045  0.9046 -1.0838  0.3367
   87CHL1   H1B 8890   0.175   4.307   7.032  2.0705  0.0105  0.6796
   87CHL1    C2 8891   0.155   4.447   6.855  0.0053 -0.3679 -0.0159
   87CHL1   H2A 8892   0.253   4.411   6.816  0.7836 -0.8808  2.2580
   87CHL1   H2B 8893   0.150   4.556   6.834 -3.1905 -0.3703  0.2652
   87CHL1   C20 8894   0.067   4.333   7.760 -0.0599  0.0240  0.0931
   87CHL1   H20 8895   0.154   4.387   7.717  1.6497 -3.7108 -1.5931
   87CHL1   C21 8896   0.102   4.182   7.808  0.2391  0.6157  0.8632
   87CHL1  H21A 8897   0.178   4.186   7.889  1.2887  0.3409 -0.0860
   87CHL1  H21B 8898   0.140   4.121   7.724  0.8831  0.2454  1.4157
   87CHL1  H21C 8899   0.011   4.128   7.842 -1.3889  2.2253 -0.7257
   87CHL1   C22 8900  -0.008   4.396   7.880 -1.1977 -0.2213 -0.3823
   87CHL1  H22A 8901  -0.027   4.502   7.852  1.9220  0.9865  1.5165
   87CHL1  H22B 8902  -0.090   4.331   7.918 -1.5752  0.7991  0.6072
   87CHL1   C23 8903   0.084   4.412   8.009  0.0916 -0.2991  0.4276
   87CHL1  H23A 8904   0.097   4.309   8.050  1.1884 -1.0551 -1.7104
   87CHL1  H23B 8905   0.180   4.452   7.971 -1.3521 -0.3250 -3.7121
   87CHL1   C24 8906   0.035   4.525   8.107  0.4952  0.3484 -0.2514
   87CHL1  H24A 8907   0.131   4.565   8.146  0.3713  0.0774  0.3323
   87CHL1  H24B 8908  -0.017   4.609   8.056  1.6509  1.4130  0.2702
   87CHL1   C25 8909  -0.042   4.471   8.224 -0.0201 -0.0914 -0.4120
   87CHL1   H25 8910   0.006   4.377   8.260  0.3553  0.9414  2.0183
   87CHL1   C26 8911  -0.026   4.563   8.353  0.7104  0.0093  0.5124
   87CHL1  H26A 8912   0.082   4.571   8.378  1.1249 -0.0730 -1.1043
   87CHL1  H26B 8913  -0.068   4.666   8.346 -0.3830 -0.2113  2.7890
   87CHL1  H26C 8914  -0.084   4.518   8.436  0.5863 -0.9114 -0.0657
   87CHL1   C27 8915  -0.182   4.444   8.184  0.3125  0.3988 -0.0800
   87CHL1  H27A 8916  -0.195   4.350   8.125 -1.6369  1.2438 -1.0876
   87CHL1  H27B 8917  -0.253   4.437   8.269 -0.2098  2.8339 -0.2495
   87CHL1  H27C 8918  -0.223   4.524   8.119 -1.0099 -1.3518 -1.5361
   88CHL1    C3 8919   0.493   3.321   7.029  0.0473 -0.5340 -0.1584
   88CHL1    H3 8920   0.556   3.408   7.061 -1.1591  1.1941 -2.2617
   88CHL1    O3 8921   0.477   3.322   6.888 -0.0292  0.1126 -0.0902
   88CHL1   H3' 8922   0.421   3.399   6.875  1.9933  1.5187 -0.9323
   88CHL1    C4 8923   0.562   3.188   7.077 -0.1767 -0.2434  0.1489
   88CHL1   H4A 8924   0.501   3.102   7.043 -0.9094  0.2436  0.2087
   88CHL1   H4B 8925   0.662   3.172   7.031  0.1319 -1.5818  1.2180
   88CHL1    C5 8926   0.583   3.178   7.226  0.1542  0.6676 -0.2467
   88CHL1    C6 8927   0.707   3.154   7.270  0.5621 -0.2603 -0.8332
   88CHL1    H6 8928   0.782   3.143   7.191  1.5490 -1.0119  0.1862
   88CHL1    C7 8929   0.742   3.133   7.412 -0.4319 -0.0531 -0.5687
   88CHL1   H7A 8930   0.798   3.037   7.408  1.3257  0.9358 -0.4320
   88CHL1   H7B 8931   0.807   3.214   7.449  0.1682 -0.8350  0.1332
   88CHL1    C8 8932   0.619   3.108   7.501  0.8095 -0.6200  0.0956
   88CHL1    H8 8933   0.579   3.006   7.482 -0.4003 -0.0315 -0.6548
   88CHL1   C14 8934   0.656   3.136   7.645  0.0881  0.4447 -0.2152
   88CHL1   H14 8935   0.683   3.243   7.657  2.4853 -0.2299  0.9786
   88CHL1   C15 8936   0.766   3.055   7.712  0.3700 -0.2445 -0.4420
   88CHL1  H15A 8937   0.759   2.949   7.678 -0.8386 -0.1375 -0.5609
   88CHL1  H15B 8938   0.872   3.085   7.697  1.1688 -1.7257  1.7898
   88CHL1   C16 8939   0.734   3.067   7.863  0.1596 -0.3321 -0.0616
   88CHL1  H16A 8940   0.736   2.974   7.924 -1.0082  0.1781  0.7858
   88CHL1  H16B 8941   0.800   3.139   7.915 -1.4310 -0.4900  2.3145
   88CHL1   C17 8942   0.595   3.131   7.871 -0.7057  0.4644  0.0907
   88CHL1   H17 8943   0.621   3.239   7.877 -1.3182  0.9820 -3.8855
   88CHL1   C13 8944   0.528   3.122   7.733  0.1246 -0.0377 -0.1750
   88CHL1   C18 8945   0.467   2.986   7.729 -0.1925  0.5412 -0.1681
   88CHL1  H18A 8946   0.392   2.979   7.810  1.1262  0.8217  1.1209
   88CHL1  H18B 8947   0.417   2.974   7.631  1.5829 -1.0904 -0.9524
   88CHL1  H18C 8948   0.545   2.906   7.731 -0.6239  0.1070 -0.3853
   88CHL1   C12 8949   0.422   3.242   7.705  0.3540 -0.6260 -0.3862
   88CHL1  H12A 8950   0.338   3.233   7.777  1.0836  1.5128  0.8027
   88CHL1  H12B 8951   0.489   3.326   7.734  0.0502 -0.7303  0.6773
   88CHL1   C11 8952   0.390   3.243   7.561  0.3728 -0.2179 -0.2496
   88CHL1  H11A 8953   0.320   3.156   7.562  0.3788 -0.2926  2.8811
   88CHL1  H11B 8954   0.340   3.332   7.516  1.5092 -0.3275 -1.8403
   88CHL1    C9 8955   0.512   3.213   7.457 -0.3305 -0.5229 -0.5928
   88CHL1    H9 8956   0.576   3.304   7.457  0.0305 -0.7533  0.7934
   88CHL1   C10 8957   0.461   3.199   7.313 -0.2718 -0.1718 -0.0962
   88CHL1   C19 8958   0.371   3.073   7.297 -0.1052 -0.7053 -0.8352
   88CHL1  H19A 8959   0.330   3.057   7.194  0.2712 -1.0684 -0.9321
   88CHL1  H19B 8960   0.437   2.985   7.311  0.2665 -0.2337  0.4729
   88CHL1  H19C 8961   0.290   3.071   7.373  1.3189 -3.7494  0.7844
   88CHL1    C1 8962   0.390   3.329   7.264 -0.3082 -0.4948 -0.3611
   88CHL1   H1A 8963   0.288   3.331   7.309 -0.4251 -1.2911 -0.5728
   88CHL1   H1B 8964   0.447   3.414   7.307 -2.5971  0.4275  1.0101
   88CHL1    C2 8965   0.359   3.337   7.114  0.7618 -0.8262  0.1466
   88CHL1   H2A 8966   0.303   3.426   7.079 -0.2157 -1.7807 -0.7984
   88CHL1   H2B 8967   0.300   3.247   7.089 -0.3904 -0.8805  2.6990
   88CHL1   C20 8968   0.513   3.099   8.000  0.3521 -0.1856  0.1265
   88CHL1   H20 8969   0.408   3.115   7.968  0.3405  0.4779  0.4728
   88CHL1   C21 8970   0.550   3.196   8.110  0.1651 -0.2020 -0.1304
   88CHL1  H21A 8971   0.521   3.301   8.086 -2.0048 -0.3378  1.5391
   88CHL1  H21B 8972   0.659   3.184   8.127  0.0134 -2.6836 -0.5593
   88CHL1  H21C 8973   0.497   3.170   8.205  0.1572  0.4746  0.0554
   88CHL1   C22 8974   0.516   2.947   8.046 -0.0659  0.9060  0.6204
   88CHL1  H22A 8975   0.525   2.878   7.959 -1.7245 -1.1086  1.9576
   88CHL1  H22B 8976   0.606   2.928   8.108 -1.1795 -0.8412  1.8152
   88CHL1   C23 8977   0.393   2.909   8.138 -0.3126  0.2967  0.4099
   88CHL1  H23A 8978   0.388   2.980   8.224 -1.4137  1.1971 -0.3765
   88CHL1  H23B 8979   0.310   2.924   8.067  0.9610  2.5350 -0.7157
   88CHL1   C24 8980   0.389   2.767   8.183  0.4612 -0.1893  0.2127
   88CHL1  H24A 8981   0.388   2.689   8.105 -0.0476  1.4246 -1.4639
   88CHL1  H24B 8982   0.479   2.750   8.247  0.4884 -1.2044 -0.0849
   88CHL1   C25 8983   0.269   2.735   8.274  0.7727  0.4073  0.1577
   88CHL1   H25 8984   0.173   2.746   8.220  0.3471 -2.1467  0.2854
   88CHL1   C26 8985   0.258   2.583   8.314 -0.1814 -0.2167  0.5254
   88CHL1  H26A 8986   0.261   2.519   8.223 -0.3174  0.8755 -0.2744
   88CHL1  H26B 8987   0.327   2.555   8.396 -0.1140 -0.0514  0.5275
   88CHL1  H26C 8988   0.155   2.592   8.353 -0.8227  3.7842 -1.4686
   88CHL1   C27 8989   0.253   2.814   8.408 -0.1468 -0.1648  0.9315
   88CHL1  H27A 8990   0.337   2.808   8.481  0.6471 -0.8757 -0.0052
   88CHL1  H27B 8991   0.242   2.923   8.390 -0.5943 -0.4597 -0.7391
   88CHL1  H27C 8992   0.159   2.788   8.461 -0.8399 -1.6333 -0.8780
   89CHL1    C3 8993   3.622   2.023   6.763 -0.1873  0.3066  0.7787
   89CHL1    H3 8994   3.516   2.008   6.793 -0.6295  1.3670 -0.1948
   89CHL1    O3 8995   3.637   1.986   6.631 -0.2176  0.0007 -0.2748
   89CHL1   H3' 8996   3.687   2.051   6.581  0.2178 -0.3394 -0.2871
   89CHL1    C4 8997   3.668   2.171   6.776  0.1154  0.9496  0.3969
   89CHL1   H4A 8998   3.776   2.176   6.748  0.2505  2.4805  1.0998
   89CHL1   H4B 8999   3.610   2.234   6.706 -1.9146  1.2675  2.2513
   89CHL1    C5 9000   3.651   2.226   6.919 -0.1657 -0.1738  0.6402
   89CHL1    C6 9001   3.573   2.333   6.945  1.1965  1.6470  1.2357
   89CHL1    H6 9002   3.536   2.391   6.858 -0.5948  0.9545  1.4911
   89CHL1    C7 9003   3.553   2.376   7.085  0.0665 -0.1607 -0.1209
   89CHL1   H7A 9004   3.558   2.485   7.105 -0.2902 -0.7299  4.0148
   89CHL1   H7B 9005   3.456   2.352   7.133  0.2312  0.3121  0.4575
   89CHL1    C8 9006   3.652   2.320   7.189  0.7119 -0.8259  0.2043
   89CHL1    H8 9007   3.744   2.377   7.166 -0.4322  2.1944  2.5783
   89CHL1   C14 9008   3.603   2.340   7.328  0.1102 -0.4205 -0.0861
   89CHL1   H14 9009   3.509   2.281   7.335 -0.6365  0.4217 -2.2548
   89CHL1   C15 9010   3.552   2.482   7.377  0.7560 -1.0177  0.3620
   89CHL1  H15A 9011   3.629   2.557   7.348 -1.4711  0.8854 -0.8911
   89CHL1  H15B 9012   3.450   2.506   7.341  0.7484  0.2168  1.1452
   89CHL1   C16 9013   3.552   2.475   7.535 -0.2465  0.7277 -0.1081
   89CHL1  H16A 9014   3.606   2.556   7.588  0.9501 -0.6281  0.8185
   89CHL1  H16B 9015   3.454   2.466   7.588  0.9399 -1.7881  1.8684
   89CHL1   C17 9016   3.619   2.334   7.568  0.5731 -0.1078  0.6562
   89CHL1   H17 9017   3.529   2.269   7.572  1.6734 -1.6134  2.1477
   89CHL1   C13 9018   3.694   2.285   7.442  0.3140 -0.1075  0.0335
   89CHL1   C18 9019   3.831   2.353   7.426  0.0981 -0.0259  0.0363
   89CHL1  H18A 9020   3.908   2.319   7.499 -0.6955  1.3095  1.5691
   89CHL1  H18B 9021   3.877   2.338   7.326  0.0271 -1.3789  0.1881
   89CHL1  H18C 9022   3.816   2.463   7.421 -0.6120 -0.1736 -1.6735
   89CHL1   C12 9023   3.705   2.134   7.421 -0.7916 -0.5215 -0.0123
   89CHL1  H12A 9024   3.779   2.101   7.496 -0.2672 -2.2601 -1.2376
   89CHL1  H12B 9025   3.603   2.094   7.442 -2.6945  3.8286  0.3419
   89CHL1   C11 9026   3.760   2.102   7.281 -0.4692 -0.4245  0.0776
   89CHL1  H11A 9027   3.867   2.133   7.279 -1.0025  1.5012 -0.7194
   89CHL1  H11B 9028   3.752   1.991   7.281  2.2458 -0.6986  0.6160
   89CHL1    C9 9029   3.678   2.172   7.168  0.9127 -0.1891 -0.3452
   89CHL1    H9 9030   3.575   2.129   7.171 -0.1864  2.3440  0.1418
   89CHL1   C10 9031   3.716   2.135   7.022  0.3355  0.6982 -0.0892
   89CHL1   C19 9032   3.880   2.151   7.003  0.9780 -0.1814  0.2382
   89CHL1  H19A 9033   3.926   2.075   7.069  2.0396 -0.1804 -0.4821
   89CHL1  H19B 9034   3.910   2.133   6.898 -1.9594  1.0366 -0.9078
   89CHL1  H19C 9035   3.914   2.250   7.041  0.5513 -0.5124  1.5542
   89CHL1    C1 9036   3.706   1.980   6.994 -0.3182 -0.1031 -0.7316
   89CHL1   H1A 9037   3.788   1.932   7.051 -0.1192  1.3943  0.2941
   89CHL1   H1B 9038   3.613   1.947   7.045  0.5874 -0.3040  0.8353
   89CHL1    C2 9039   3.713   1.937   6.846  0.1592 -0.8579 -0.0401
   89CHL1   H2A 9040   3.685   1.830   6.848 -0.0599 -0.8213 -0.8561
   89CHL1   H2B 9041   3.818   1.942   6.809  1.1811 -3.8778  2.0890
   89CHL1   C20 9042   3.679   2.313   7.707 -0.5992  0.9905  0.1192
   89CHL1   H20 9043   3.740   2.221   7.699  0.1075  1.4435  0.1915
   89CHL1   C21 9044   3.561   2.305   7.809  0.0187  0.1812 -0.4197
   89CHL1  H21A 9045   3.594   2.307   7.916 -0.7343 -2.3418 -0.0574
   89CHL1  H21B 9046   3.500   2.214   7.795 -0.5741  0.6903 -1.1512
   89CHL1  H21C 9047   3.502   2.398   7.794 -1.2693 -0.7984 -1.6935
   89CHL1   C22 9048   3.778   2.430   7.742 -0.2712  0.1391  0.4353
   89CHL1  H22A 9049   3.828   2.477   7.655 -0.2095  2.8016  1.8035
   89CHL1  H22B 9050   3.709   2.506   7.784  0.7865 -0.3737  3.3701
   89CHL1   C23 9051   3.888   2.391   7.834 -0.1305 -0.4888  0.0272
   89CHL1  H23A 9052   3.933   2.492   7.843 -1.9513  0.8029 -3.4755
   89CHL1  H23B 9053   3.831   2.359   7.924  0.7378  0.5428  0.9763
   89CHL1   C24 9054   3.989   2.293   7.787  0.0109 -1.1514 -0.5610
   89CHL1  H24A 9055   3.941   2.197   7.760 -4.9790  0.9944 -0.3456
   89CHL1  H24B 9056   4.033   2.317   7.688 -1.6167  1.0909 -0.8261
   89CHL1   C25 9057   4.117   2.281   7.879 -0.2525 -0.0699 -0.5742
   89CHL1   H25 9058   4.170   2.377   7.891  2.2076 -1.3000 -0.9700
   89CHL1   C26 9059   4.099   2.230   8.024  0.1369  0.0247 -0.1916
   89CHL1  H26A 9060   4.061   2.125   8.026  0.4503 -0.1694 -2.2288
   89CHL1  H26B 9061   4.196   2.231   8.078  1.4783  4.0765 -2.3023
   89CHL1  H26C 9062   4.032   2.294   8.085  1.7185  1.7470 -0.2004
   89CHL1   C27 9063   4.212   2.190   7.808 -0.1258  0.7125  0.4309
   89CHL1  H27A 9064   4.169   2.087   7.808  1.6498 -0.0678  0.5895
   89CHL1  H27B 9065   4.232   2.221   7.703 -0.9896  0.0319  0.0460
   89CHL1  H27C 9066   4.311   2.172   7.855 -0.3281 -0.1380  0.5566
   90CHL1    C3 9067   3.854   0.564   6.846  0.0429 -0.4703  0.2322
   90CHL1    H3 9068   3.747   0.535   6.856 -0.2617 -0.6051 -2.6716
   90CHL1    O3 9069   3.868   0.608   6.711 -0.0939 -0.1289  0.0680
   90CHL1   H3' 9070   3.962   0.603   6.696  0.4624  4.0205  0.9219
   90CHL1    C4 9071   3.876   0.683   6.944 -0.1045  0.0665 -0.0397
   90CHL1   H4A 9072   3.975   0.731   6.928 -0.2433  0.9108  1.5138
   90CHL1   H4B 9073   3.802   0.758   6.910  0.6151  0.4142 -0.8777
   90CHL1    C5 9074   3.859   0.647   7.089  0.4585  0.1225  0.2785
   90CHL1    C6 9075   3.770   0.707   7.163 -0.8309  0.2124 -0.5548
   90CHL1    H6 9076   3.714   0.791   7.118 -0.3043  2.0681  1.9852
   90CHL1    C7 9077   3.748   0.668   7.310 -0.1158 -0.4300  0.5530
   90CHL1   H7A 9078   3.750   0.764   7.366 -0.5814 -0.4652  0.6289
   90CHL1   H7B 9079   3.647   0.624   7.313  0.2351 -1.2700  0.2067
   90CHL1    C8 9080   3.857   0.583   7.371  0.1721  0.0736 -0.0544
   90CHL1    H8 9081   3.954   0.635   7.387  0.5956 -0.3623 -1.0799
   90CHL1   C14 9082   3.809   0.516   7.496  0.0763  0.5585 -0.1091
   90CHL1   H14 9083   3.723   0.459   7.455 -0.0118  0.7064 -0.1315
   90CHL1   C15 9084   3.747   0.601   7.609  0.3849  0.0207  0.1303
   90CHL1  H15A 9085   3.826   0.676   7.630  0.2261  0.0352  0.6891
   90CHL1  H15B 9086   3.651   0.649   7.581  0.6972 -0.1401 -1.2711
   90CHL1   C16 9087   3.736   0.500   7.724  0.5105 -0.0017 -0.5606
   90CHL1  H16A 9088   3.788   0.542   7.813  0.8451  0.5046 -0.9854
   90CHL1  H16B 9089   3.628   0.479   7.742  0.2877 -0.4419 -2.2656
   90CHL1   C17 9090   3.812   0.370   7.683 -0.6792  0.4119 -0.1821
   90CHL1   H17 9091   3.737   0.304   7.635  1.0732 -0.6344 -1.6348
   90CHL1   C13 9092   3.897   0.412   7.557 -0.4378  0.0650  0.4685
   90CHL1   C18 9093   4.035   0.485   7.603  0.2487 -0.6411  0.0081
   90CHL1  H18A 9094   4.013   0.566   7.676  1.2287  0.6113 -1.0416
   90CHL1  H18B 9095   4.096   0.413   7.662  0.3309  0.5445  1.4398
   90CHL1  H18C 9096   4.089   0.533   7.519  0.4522  1.8731  1.4701
   90CHL1   C12 9097   3.936   0.292   7.463  0.7522  0.6853 -0.0710
   90CHL1  H12A 9098   4.015   0.231   7.513 -0.0557 -0.1785  0.1864
   90CHL1  H12B 9099   3.847   0.225   7.456  0.9604 -0.0104  2.6634
   90CHL1   C11 9100   3.981   0.357   7.328  0.6130 -0.2332 -0.4846
   90CHL1  H11A 9101   4.077   0.408   7.348 -0.2016  0.5627  1.6260
   90CHL1  H11B 9102   4.000   0.277   7.253 -0.2003 -1.3232  0.4307
   90CHL1    C9 9103   3.890   0.470   7.266  0.9737 -0.0572  0.0591
   90CHL1    H9 9104   3.791   0.426   7.240 -0.0391  2.1131  0.0259
   90CHL1   C10 9105   3.941   0.531   7.132 -0.0390 -0.3448 -0.1916
   90CHL1   C19 9106   4.081   0.597   7.151 -0.3444 -0.0720 -0.1189
   90CHL1  H19A 9107   4.122   0.649   7.062 -0.2390  1.4870  0.8055
   90CHL1  H19B 9108   4.092   0.672   7.232  0.7407 -0.6904  0.3381
   90CHL1  H19C 9109   4.157   0.518   7.171 -0.0260  0.3016  0.1581
   90CHL1    C1 9110   3.939   0.421   7.023 -0.8118  0.3889 -0.6570
   90CHL1   H1A 9111   4.019   0.349   7.052 -1.2662  0.5665  1.1098
   90CHL1   H1B 9112   3.844   0.366   7.039 -0.3747 -0.9557 -2.3881
   90CHL1    C2 9113   3.964   0.463   6.879  0.3535  0.4642  0.6227
   90CHL1   H2A 9114   3.949   0.373   6.815 -0.6185 -0.5581  2.2164
   90CHL1   H2B 9115   4.060   0.518   6.877 -1.2277  3.4358  1.2905
   90CHL1   C20 9116   3.867   0.279   7.801 -0.1007 -0.1320  0.6320
   90CHL1   H20 9117   3.951   0.336   7.845  1.5654 -1.7271 -0.3460
   90CHL1   C21 9118   3.931   0.154   7.747  0.0197 -0.5748 -0.2363
   90CHL1  H21A 9119   4.035   0.184   7.721  0.4374 -2.0123 -0.3237
   90CHL1  H21B 9120   3.869   0.112   7.666 -1.7732 -1.7347  1.6435
   90CHL1  H21C 9121   3.942   0.068   7.816  1.5155 -0.4903 -0.3372
   90CHL1   C22 9122   3.752   0.259   7.899 -0.1734 -0.3286 -0.7288
   90CHL1  H22A 9123   3.718   0.358   7.936  0.6270 -0.4756  0.4273
   90CHL1  H22B 9124   3.669   0.221   7.835  0.8919 -2.3031 -1.0290
   90CHL1   C23 9125   3.781   0.166   8.024 -0.2479 -0.4700  0.4667
   90CHL1  H23A 9126   3.786   0.060   7.991  0.2462 -0.4965  0.6193
   90CHL1  H23B 9127   3.877   0.191   8.074 -2.0380  0.3355  3.8198
   90CHL1   C24 9128   3.680   0.202   8.142  0.1752 -0.9882 -0.2601
   90CHL1  H24A 9129   3.701   0.299   8.193  1.0284 -2.1206  1.6401
   90CHL1  H24B 9130   3.574   0.203   8.106  0.0232  1.3089  0.0875
   90CHL1   C25 9131   3.703   0.089   8.244  0.4072 -0.1146 -0.7207
   90CHL1   H25 9132   3.694  -0.008   8.192  0.9503  0.9455 -2.9109
   90CHL1   C26 9133   3.839   0.090   8.314  0.0656 -0.3349 -0.0481
   90CHL1  H26A 9134   3.833   0.007   8.387 -0.8442  0.4268  0.7568
   90CHL1  H26B 9135   3.911   0.067   8.231  0.1107 -1.8648  0.3766
   90CHL1  H26C 9136   3.854   0.186   8.366 -1.7800 -0.4695  0.8029
   90CHL1   C27 9137   3.596   0.096   8.353  0.3037  0.1902 -0.2205
   90CHL1  H27A 9138   3.620   0.169   8.434  0.7329 -0.7726  0.5533
   90CHL1  H27B 9139   3.495   0.101   8.307  0.8661 -1.8554 -1.8068
   90CHL1  H27C 9140   3.607  -0.002   8.405 -0.4837 -0.3984 -1.1252
   91CHL1    C3 9141   6.572   1.493   7.034 -0.2070 -0.6720  0.3910
   91CHL1    H3 9142   6.504   1.576   7.064  1.2266  1.1275 -1.0957
   91CHL1    O3 9143   6.629   1.518   6.910 -0.3393  0.4707  0.4403
   91CHL1   H3' 9144   6.571   1.485   6.842  1.6567 -1.3596 -0.5050
   91CHL1    C4 9145   6.680   1.456   7.130  0.2247  0.3399 -0.6912
   91CHL1   H4A 9146   6.745   1.380   7.082  1.4791  0.1769  1.1373
   91CHL1   H4B 9147   6.737   1.551   7.140 -1.0448  1.0092  0.7554
   91CHL1    C5 9148   6.625   1.405   7.263 -0.1877 -0.3603 -0.4390
   91CHL1    C6 9149   6.656   1.467   7.375 -0.3095  0.0527 -0.3207
   91CHL1    H6 9150   6.730   1.549   7.380  1.3059 -1.2947 -1.0603
   91CHL1    C7 9151   6.610   1.421   7.507  0.3232 -0.5473 -0.6128
   91CHL1   H7A 9152   6.689   1.420   7.586  0.3356 -1.0798 -0.6322
   91CHL1   H7B 9153   6.543   1.501   7.548  0.5064  1.1253 -3.3600
   91CHL1    C8 9154   6.563   1.278   7.501 -0.1001 -0.0090  0.3368
   91CHL1    H8 9155   6.645   1.207   7.481 -1.1011 -0.5978 -2.0561
   91CHL1   C14 9156   6.504   1.240   7.634  0.0566 -0.4336  0.2355
   91CHL1   H14 9157   6.423   1.315   7.647  0.3807 -0.3605  1.9863
   91CHL1   C15 9158   6.591   1.250   7.762 -0.3238  0.4940 -0.5013
   91CHL1  H15A 9159   6.688   1.196   7.761 -0.4485  0.2485  0.3526
   91CHL1  H15B 9160   6.617   1.352   7.799 -0.4283  0.1858  0.4345
   91CHL1   C16 9161   6.495   1.180   7.868 -0.5053 -0.0635 -0.3139
   91CHL1  H16A 9162   6.556   1.118   7.937 -1.9179 -2.9258 -1.4778
   91CHL1  H16B 9163   6.436   1.243   7.938 -0.9097 -1.6623  0.8432
   91CHL1   C17 9164   6.396   1.094   7.783  0.1415 -0.3694  0.4174
   91CHL1   H17 9165   6.305   1.158   7.778  0.8396  0.5771 -0.5997
   91CHL1   C13 9166   6.443   1.096   7.640  0.3574 -0.0939  0.2732
   91CHL1   C18 9167   6.548   0.981   7.629  0.0366 -0.2817  0.0556
   91CHL1  H18A 9168   6.612   0.985   7.720 -1.4569  0.2274  1.1397
   91CHL1  H18B 9169   6.499   0.883   7.611 -1.6975  0.5383  0.1190
   91CHL1  H18C 9170   6.597   1.000   7.532  0.1252  0.8644  0.3017
   91CHL1   C12 9171   6.325   1.091   7.542  0.8228 -0.1967  0.1795
   91CHL1  H12A 9172   6.271   0.994   7.541 -0.5444  0.5279 -1.7364
   91CHL1  H12B 9173   6.257   1.175   7.566  1.6532  0.4786  0.2409
   91CHL1   C11 9174   6.375   1.127   7.399 -0.0197 -0.1355  0.1581
   91CHL1  H11A 9175   6.436   1.042   7.361  0.2801 -0.9701  2.3946
   91CHL1  H11B 9176   6.287   1.138   7.332  0.9922  3.3154 -0.7821
   91CHL1    C9 9177   6.460   1.262   7.393 -0.1881  0.7385  0.1933
   91CHL1    H9 9178   6.380   1.337   7.406  0.0911  0.8107  1.6562
   91CHL1   C10 9179   6.531   1.288   7.256 -0.9660  0.2039 -0.8677
   91CHL1   C19 9180   6.622   1.172   7.213  0.3254  0.3806  0.6923
   91CHL1  H19A 9181   6.706   1.157   7.283  1.6041 -1.8599 -1.1865
   91CHL1  H19B 9182   6.568   1.076   7.202  0.1894  0.3330  1.6851
   91CHL1  H19C 9183   6.671   1.191   7.115  3.0133  2.4527  2.2953
   91CHL1    C1 9184   6.430   1.321   7.154  0.1050 -0.2322  0.9875
   91CHL1   H1A 9185   6.366   1.232   7.136 -0.7541  0.5826 -0.1121
   91CHL1   H1B 9186   6.362   1.398   7.196 -1.9139 -2.3072  1.7864
   91CHL1    C2 9187   6.483   1.366   7.019  0.0227 -0.4561  0.8352
   91CHL1   H2A 9188   6.404   1.387   6.944  1.7079  1.7666 -0.4156
   91CHL1   H2B 9189   6.541   1.290   6.963 -0.4687  0.7035 -1.3376
   91CHL1   C20 9190   6.337   0.966   7.846  0.5635  0.7253 -0.5278
   91CHL1   H20 9191   6.276   0.898   7.783 -0.3716  1.1089 -0.0410
   91CHL1   C21 9192   6.232   1.004   7.960  0.1052 -0.2159 -0.3990
   91CHL1  H21A 9193   6.139   1.050   7.918  0.9548 -0.7006 -3.0229
   91CHL1  H21B 9194   6.277   1.069   8.038 -1.4362  1.2516 -0.6814
   91CHL1  H21C 9195   6.193   0.918   8.018 -1.0745  1.7257  1.8652
   91CHL1   C22 9196   6.441   0.877   7.916  0.2723  0.2181  0.2634
   91CHL1  H22A 9197   6.515   0.842   7.841  1.3584 -0.3116  1.5307
   91CHL1  H22B 9198   6.505   0.928   7.991  1.5936 -1.3239  0.2563
   91CHL1   C23 9199   6.381   0.757   7.989 -0.0364  0.1457  0.1450
   91CHL1  H23A 9200   6.332   0.788   8.084  0.8163  0.4556  0.4980
   91CHL1  H23B 9201   6.293   0.718   7.933  0.4142  0.0814 -0.5263
   91CHL1   C24 9202   6.482   0.639   8.015  0.7384 -0.2021 -0.4974
   91CHL1  H24A 9203   6.508   0.590   7.919 -1.4859 -1.4276 -0.5530
   91CHL1  H24B 9204   6.579   0.671   8.058  0.4290  1.5230 -0.9931
   91CHL1   C25 9205   6.422   0.523   8.108 -0.5833 -0.1586  0.4004
   91CHL1   H25 9206   6.345   0.465   8.053  1.1308 -0.1500 -2.1928
   91CHL1   C26 9207   6.528   0.411   8.118 -1.1574 -0.0021 -0.3254
   91CHL1  H26A 9208   6.560   0.377   8.017  0.1012 -0.2410  0.1322
   91CHL1  H26B 9209   6.618   0.463   8.155 -0.1382 -1.1564 -1.0830
   91CHL1  H26C 9210   6.500   0.326   8.184 -1.1085  0.5344  0.3954
   91CHL1   C27 9211   6.376   0.570   8.251 -0.3103 -0.6974  0.6279
   91CHL1  H27A 9212   6.461   0.620   8.303  0.0411  3.0103 -2.9120
   91CHL1  H27B 9213   6.304   0.654   8.262  0.2285  0.3813 -2.6624
   91CHL1  H27C 9214   6.338   0.486   8.312  0.2377  0.2479  2.3493
   92CHL1    C3 9215   2.493   1.874   6.749  0.0660 -0.7844  0.2013
   92CHL1    H3 9216   2.387   1.856   6.776 -0.1694  0.0423 -0.1295
   92CHL1    O3 9217   2.495   1.944   6.624 -0.1758 -0.9221  0.8148
   92CHL1   H3' 9218   2.587   1.956   6.599 -0.7834  0.8638 -0.7477
   92CHL1    C4 9219   2.565   1.964   6.849  0.3362  1.0340 -0.5384
   92CHL1   H4A 9220   2.662   2.005   6.816  1.8509 -2.8901 -1.5598
   92CHL1   H4B 9221   2.497   2.052   6.856 -2.6545 -1.1608  0.3499
   92CHL1    C5 9222   2.580   1.898   6.986 -0.0998 -0.2860 -1.0699
   92CHL1    C6 9223   2.537   1.962   7.096 -0.0531 -0.4847  0.6026
   92CHL1    H6 9224   2.492   2.061   7.087  0.6132 -0.1926  0.4371
   92CHL1    C7 9225   2.545   1.907   7.236 -0.4268  0.1896 -0.4900
   92CHL1   H7A 9226   2.585   1.978   7.311 -0.7503  1.1709 -1.2254
   92CHL1   H7B 9227   2.442   1.879   7.268  0.2204  0.8751  2.4839
   92CHL1    C8 9228   2.646   1.784   7.242  0.3778  0.5255 -0.0441
   92CHL1    H8 9229   2.747   1.829   7.254  0.3308  0.6267 -0.0270
   92CHL1   C14 9230   2.605   1.700   7.357  0.0960 -0.0260  0.5794
   92CHL1   H14 9231   2.502   1.666   7.334  0.0988  0.7105 -0.5821
   92CHL1   C15 9232   2.592   1.771   7.495  0.0583  0.0276 -0.4969
   92CHL1  H15A 9233   2.675   1.840   7.520  0.6891 -0.1288 -2.0563
   92CHL1  H15B 9234   2.497   1.830   7.499  0.9999  1.6697 -1.1480
   92CHL1   C16 9235   2.587   1.643   7.580  0.5622 -0.2797 -0.1774
   92CHL1  H16A 9236   2.644   1.663   7.674 -0.6814  1.7982  0.2102
   92CHL1  H16B 9237   2.481   1.619   7.604  0.5788 -2.0308 -1.6629
   92CHL1   C17 9238   2.635   1.520   7.507 -0.0264  0.4705 -0.8448
   92CHL1   H17 9239   2.542   1.461   7.489 -0.8454  1.6038 -0.5154
   92CHL1   C13 9240   2.701   1.577   7.379 -0.1998  0.2274 -0.2331
   92CHL1   C18 9241   2.847   1.619   7.408  0.5042 -0.7154 -0.4864
   92CHL1  H18A 9242   2.859   1.712   7.348 -2.6465 -1.6244 -2.8202
   92CHL1  H18B 9243   2.862   1.653   7.513 -0.6248 -1.6940  0.0207
   92CHL1  H18C 9244   2.933   1.551   7.388  1.8020  0.7841 -0.1763
   92CHL1   C12 9245   2.690   1.487   7.259  0.0843 -0.8296 -0.8985
   92CHL1  H12A 9246   2.756   1.400   7.273  2.7171  1.2909  0.8354
   92CHL1  H12B 9247   2.587   1.446   7.251 -0.2309 -0.0813 -0.7809
   92CHL1   C11 9248   2.715   1.558   7.128 -0.7669  0.5521 -0.6039
   92CHL1  H11A 9249   2.824   1.571   7.111 -0.9054  0.0328 -2.0524
   92CHL1  H11B 9250   2.679   1.485   7.053  0.3407 -0.7981  0.1419
   92CHL1    C9 9251   2.634   1.688   7.119 -0.0160  0.0898  0.2556
   92CHL1    H9 9252   2.532   1.647   7.130  0.4645 -1.1341  0.3561
   92CHL1   C10 9253   2.647   1.761   6.982 -0.4933  0.1416 -0.2703
   92CHL1   C19 9254   2.799   1.789   6.952  1.0595  1.2370 -0.3447
   92CHL1  H19A 9255   2.854   1.838   7.035  2.3296  0.1165 -0.4934
   92CHL1  H19B 9256   2.857   1.698   6.925  2.2054  1.5980  0.8064
   92CHL1  H19C 9257   2.809   1.847   6.857  1.0447 -0.4674 -1.4211
   92CHL1    C1 9258   2.591   1.676   6.868  0.0645  0.2339 -0.0036
   92CHL1   H1A 9259   2.660   1.589   6.864  0.1710  0.3278 -0.2511
   92CHL1   H1B 9260   2.490   1.633   6.881  0.2289 -1.6249 -3.5957
   92CHL1    C2 9261   2.571   1.745   6.730  0.1151 -1.0617 -0.1390
   92CHL1   H2A 9262   2.528   1.675   6.655  0.0076  0.8585 -1.9480
   92CHL1   H2B 9263   2.672   1.775   6.694 -0.6507  2.2230  0.1870
   92CHL1   C20 9264   2.715   1.421   7.593 -0.5476 -0.4881  0.6410
   92CHL1   H20 9265   2.810   1.476   7.612  0.2232 -0.9975 -1.4934
   92CHL1   C21 9266   2.761   1.303   7.511 -0.0722  0.6978 -0.3732
   92CHL1  H21A 9267   2.852   1.326   7.451  1.6877 -0.1633  1.8233
   92CHL1  H21B 9268   2.681   1.264   7.445  0.2544 -0.9567  0.1438
   92CHL1  H21C 9269   2.801   1.222   7.576 -0.8512  1.5982  1.2791
   92CHL1   C22 9270   2.669   1.384   7.734 -0.2572 -0.0731 -0.2362
   92CHL1  H22A 9271   2.742   1.309   7.770 -3.0127 -3.8905 -1.8844
   92CHL1  H22B 9272   2.662   1.475   7.797  0.2254 -1.1966  1.5459
   92CHL1   C23 9273   2.541   1.304   7.737 -0.3637 -0.0865 -0.1477
   92CHL1  H23A 9274   2.457   1.364   7.697 -1.5293 -1.8660 -0.5238
   92CHL1  H23B 9275   2.549   1.222   7.663  0.2405 -0.6135  0.4859
   92CHL1   C24 9276   2.497   1.262   7.881  0.4465 -0.2388 -0.7419
   92CHL1  H24A 9277   2.480   1.357   7.937 -1.5504 -0.0605 -1.5910
   92CHL1  H24B 9278   2.404   1.203   7.868  1.1730 -1.3239 -1.1293
   92CHL1   C25 9279   2.590   1.164   7.960  0.0875  0.8666 -0.0044
   92CHL1   H25 9280   2.680   1.227   7.977 -0.1351  1.5712 -1.2732
   92CHL1   C26 9281   2.527   1.148   8.102  0.6476  0.1806 -0.8396
   92CHL1  H26A 9282   2.599   1.079   8.150 -0.5988 -0.9867 -0.5689
   92CHL1  H26B 9283   2.531   1.251   8.143 -0.3672  0.6761 -1.9010
   92CHL1  H26C 9284   2.424   1.109   8.088  0.9294  0.2489 -3.8776
   92CHL1   C27 9285   2.617   1.028   7.882  0.4005  0.1491 -0.1049
   92CHL1  H27A 9286   2.526   0.967   7.902  1.1674 -1.5220 -1.4368
   92CHL1  H27B 9287   2.630   1.056   7.776 -0.9653 -0.1403 -0.3727
   92CHL1  H27C 9288   2.711   0.978   7.913  1.1339  2.6250  2.0593
   93CHL1    C3 9289   2.445   6.167   6.747  0.2932 -0.2733  0.3146
   93CHL1    H3 9290   2.365   6.092   6.732 -1.4127  1.6484 -0.5512
   93CHL1    O3 9291   2.481   6.236   6.633 -0.1806 -0.1896 -0.0593
   93CHL1   H3' 9292   2.503   6.163   6.574  2.3571  0.3833  0.0414
   93CHL1    C4 9293   2.382   6.272   6.834  0.4143  0.1576  0.2622
   93CHL1   H4A 9294   2.451   6.359   6.840 -1.0740  1.4061 -0.1019
   93CHL1   H4B 9295   2.292   6.312   6.784 -0.9950  0.1384  2.6140
   93CHL1    C5 9296   2.344   6.212   6.971  0.0607  0.1715 -0.4942
   93CHL1    C6 9297   2.221   6.226   7.018  0.1925 -0.4502  0.0607
   93CHL1    H6 9298   2.148   6.286   6.961 -0.9882 -2.6552 -0.8932
   93CHL1    C7 9299   2.183   6.171   7.152 -0.0967 -0.6492 -0.2662
   93CHL1   H7A 9300   2.128   6.248   7.211  0.9122 -0.8003  0.9052
   93CHL1   H7B 9301   2.110   6.087   7.140  0.3195 -1.0391 -0.0634
   93CHL1    C8 9302   2.301   6.113   7.234  0.2922 -0.2620  0.8841
   93CHL1    H8 9303   2.362   6.195   7.277  0.1082  0.5762 -0.3867
   93CHL1   C14 9304   2.246   6.020   7.339  0.4787 -0.2104 -0.5634
   93CHL1   H14 9305   2.202   5.931   7.290  0.5499 -0.6640  0.1758
   93CHL1   C15 9306   2.120   6.067   7.418 -0.3424  0.1078  0.4412
   93CHL1  H15A 9307   2.132   6.174   7.444 -1.6606  0.2946  0.3362
   93CHL1  H15B 9308   2.029   6.059   7.355 -0.5563  0.6041  0.6842
   93CHL1   C16 9309   2.125   5.988   7.547 -0.6660 -0.3642  0.0202
   93CHL1  H16A 9310   2.162   6.055   7.628 -1.6439  0.1946  0.0301
   93CHL1  H16B 9311   2.029   5.941   7.578 -0.9291 -1.5975 -2.4919
   93CHL1   C17 9312   2.248   5.896   7.537 -0.2188  0.4279 -0.4692
   93CHL1   H17 9313   2.212   5.802   7.490 -1.2228  0.5645 -0.0050
   93CHL1   C13 9314   2.348   5.967   7.440 -0.4574  0.3692  0.8640
   93CHL1   C18 9315   2.428   6.093   7.504 -0.4047  0.6549  0.4129
   93CHL1  H18A 9316   2.488   6.149   7.429  1.7859  0.0705  1.6170
   93CHL1  H18B 9317   2.362   6.165   7.556  0.6489  1.7305  0.3137
   93CHL1  H18C 9318   2.501   6.051   7.577  1.2546  0.4833 -1.2803
   93CHL1   C12 9319   2.445   5.879   7.358  0.3898 -0.0806  0.2227
   93CHL1  H12A 9320   2.527   5.838   7.421  1.0635  0.5843 -0.1943
   93CHL1  H12B 9321   2.393   5.788   7.322 -1.7048  1.3534 -0.5518
   93CHL1   C11 9322   2.511   5.963   7.240  0.0865  0.5774  0.0522
   93CHL1  H11A 9323   2.579   6.037   7.287 -1.0132  0.1049  2.5505
   93CHL1  H11B 9324   2.578   5.896   7.183  1.1057  2.2744 -0.8288
   93CHL1    C9 9325   2.406   6.038   7.147 -0.0439 -0.2256  0.0440
   93CHL1    H9 9326   2.350   5.953   7.102  2.5792 -2.5239  0.8641
   93CHL1   C10 9327   2.465   6.133   7.036  0.1640 -0.4705 -0.9284
   93CHL1   C19 9328   2.559   6.227   7.101  0.5053 -0.1482 -0.2612
   93CHL1  H19A 9329   2.635   6.170   7.158  1.4396  1.0901 -0.2096
   93CHL1  H19B 9330   2.625   6.278   7.026  1.4378 -2.3657 -1.0285
   93CHL1  H19C 9331   2.507   6.295   7.172  1.2672  1.1038 -0.8585
   93CHL1    C1 9332   2.531   6.040   6.932  0.9669 -0.1910  0.3721
   93CHL1   H1A 9333   2.623   6.005   6.984  0.2511 -0.8495  1.2204
   93CHL1   H1B 9334   2.457   5.958   6.917 -0.9234  1.3750  0.7954
   93CHL1    C2 9335   2.568   6.103   6.809 -0.2132  0.0730  0.2437
   93CHL1   H2A 9336   2.609   6.025   6.741  0.2509 -0.4472  1.0978
   93CHL1   H2B 9337   2.639   6.186   6.828  0.1883 -0.0903 -0.4940
   93CHL1   C20 9338   2.309   5.848   7.676  0.9849 -0.1977 -0.2969
   93CHL1   H20 9339   2.350   5.947   7.705  3.5499 -0.6491 -2.0396
   93CHL1   C21 9340   2.411   5.737   7.667  0.0051  0.2001  0.1292
   93CHL1  H21A 9341   2.434   5.696   7.768 -1.2412 -0.5030  0.1485
   93CHL1  H21B 9342   2.505   5.776   7.622  1.6416  0.5045  3.5345
   93CHL1  H21C 9343   2.371   5.656   7.603  0.7606  0.4854 -0.7319
   93CHL1   C22 9344   2.205   5.808   7.788  0.1212  0.3967  0.7355
   93CHL1  H22A 9345   2.264   5.784   7.879  2.1265 -3.4703 -1.3509
   93CHL1  H22B 9346   2.132   5.890   7.805 -0.1132  0.4037 -0.2601
   93CHL1   C23 9347   2.140   5.673   7.762 -0.1579 -0.2666 -0.6446
   93CHL1  H23A 9348   2.095   5.679   7.661  0.0180  0.4847 -0.6843
   93CHL1  H23B 9349   2.209   5.586   7.772 -3.2699 -2.9035 -0.2201
   93CHL1   C24 9350   2.020   5.658   7.856  0.5247 -0.1573  0.0714
   93CHL1  H24A 9351   2.050   5.649   7.963  0.8792 -0.1827 -0.0293
   93CHL1  H24B 9352   1.970   5.756   7.855  2.1238  0.6934  0.2489
   93CHL1   C25 9353   1.917   5.552   7.816  0.7442 -0.3778  0.3824
   93CHL1   H25 9354   1.889   5.563   7.709  0.4598 -1.2771  0.3495
   93CHL1   C26 9355   1.991   5.418   7.821  0.6847 -0.2626 -0.8609
   93CHL1  H26A 9356   2.092   5.427   7.776 -0.3041  2.1479 -2.8422
   93CHL1  H26B 9357   2.007   5.370   7.920 -2.0170 -1.7465 -1.0391
   93CHL1  H26C 9358   1.935   5.337   7.769 -2.7646  1.2447  0.2155
   93CHL1   C27 9359   1.793   5.561   7.897  0.6197 -0.5692 -1.0145
   93CHL1  H27A 9360   1.712   5.490   7.871 -0.6566  1.5513 -3.3170
   93CHL1  H27B 9361   1.805   5.556   8.007  0.0927  0.9811 -0.8587
   93CHL1  H27C 9362   1.750   5.663   7.885  1.6381 -0.1205 -0.9799
   94CHL1    C3 9363   5.381   4.816   6.705  0.3382 -0.1017  0.4714
   94CHL1    H3 9364   5.484   4.833   6.744  0.1503  1.4341  0.3485
   94CHL1    O3 9365   5.386   4.776   6.571 -0.3291 -0.2911  0.3682
   94CHL1   H3' 9366   5.296   4.768   6.539 -0.1056 -1.1859 -0.0477
   94CHL1    C4 9367   5.310   4.702   6.779 -0.6338 -0.0349  0.6005
   94CHL1   H4A 9368   5.220   4.668   6.722  1.8045 -2.9410 -1.8792
   94CHL1   H4B 9369   5.382   4.619   6.762  0.1038  0.5607  0.7720
   94CHL1    C5 9370   5.289   4.733   6.923 -0.0448  0.2638 -0.3802
   94CHL1    C6 9371   5.333   4.650   7.018  0.1945  0.7112 -0.7049
   94CHL1    H6 9372   5.382   4.556   6.988 -0.8839  0.0526 -0.4421
   94CHL1    C7 9373   5.332   4.680   7.171  0.4608  0.2653 -0.4843
   94CHL1   H7A 9374   5.286   4.594   7.225 -1.9601  1.2126 -0.9134
   94CHL1   H7B 9375   5.437   4.689   7.206  1.2830  0.2809 -2.8178
   94CHL1    C8 9376   5.241   4.800   7.206  0.6620 -0.2625  0.2929
   94CHL1    H8 9377   5.134   4.773   7.190  0.5355  0.7806 -0.8185
   94CHL1   C14 9378   5.268   4.841   7.348 -0.2197 -0.4109 -0.3427
   94CHL1   H14 9379   5.375   4.866   7.365 -0.2227 -0.6356  0.0292
   94CHL1   C15 9380   5.244   4.740   7.461  0.2652  0.1343 -0.6441
   94CHL1  H15A 9381   5.147   4.692   7.435 -0.7682  1.5539  0.4148
   94CHL1  H15B 9382   5.324   4.664   7.473 -2.2579 -2.4569  1.1720
   94CHL1   C16 9383   5.215   4.827   7.585  0.2683  0.3621 -0.4650
   94CHL1  H16A 9384   5.123   4.801   7.641  0.6855  1.7728  0.9591
   94CHL1  H16B 9385   5.304   4.801   7.647 -0.2075  1.2940  0.6529
   94CHL1   C17 9386   5.211   4.972   7.536  0.0577 -0.0659  0.3399
   94CHL1   H17 9387   5.319   4.999   7.539  1.1327 -3.8866  0.4906
   94CHL1   C13 9388   5.179   4.963   7.391  0.3660 -0.6077  0.7421
   94CHL1   C18 9389   5.028   4.944   7.363 -0.7376 -0.6687  0.5031
   94CHL1  H18A 9390   4.987   4.867   7.432 -1.3542 -1.2193 -0.4463
   94CHL1  H18B 9391   4.976   5.041   7.379  2.0291  0.7665  1.4503
   94CHL1  H18C 9392   5.014   4.911   7.258 -3.2528  0.9935  0.2498
   94CHL1   C12 9393   5.231   5.075   7.311  0.1975 -0.2054 -0.2390
   94CHL1  H12A 9394   5.164   5.161   7.336 -0.2105 -1.3047  2.9110
   94CHL1  H12B 9395   5.336   5.094   7.340 -0.1310  0.0813  0.8201
   94CHL1   C11 9396   5.207   5.048   7.159 -0.4096  0.7641  0.0612
   94CHL1  H11A 9397   5.098   5.050   7.139 -0.9593 -0.7260  2.4411
   94CHL1  H11B 9398   5.252   5.134   7.104 -1.6432  1.9101  0.7834
   94CHL1    C9 9399   5.271   4.917   7.111  0.1904  0.0022  0.3716
   94CHL1    H9 9400   5.381   4.930   7.111  0.0948  1.0281 -1.0225
   94CHL1   C10 9401   5.239   4.879   6.959  0.1040  0.1118  0.1543
   94CHL1   C19 9402   5.084   4.875   6.932  0.0772  0.5785 -0.8310
   94CHL1  H19A 9403   5.072   4.855   6.823 -0.3907 -4.0990 -0.1174
   94CHL1  H19B 9404   5.017   4.794   6.967  1.4982 -0.7092 -0.9960
   94CHL1  H19C 9405   5.039   4.975   6.954  3.0672  1.9515 -0.3734
   94CHL1    C1 9406   5.310   4.983   6.874 -0.7665 -0.5366 -0.2239
   94CHL1   H1A 9407   5.265   5.083   6.889  1.2652  0.3430  0.2828
   94CHL1   H1B 9408   5.415   5.003   6.903 -0.7364 -2.1670  0.9275
   94CHL1    C2 9409   5.307   4.952   6.727 -0.2543 -0.6368  0.2062
   94CHL1   H2A 9410   5.367   5.028   6.674 -0.2562 -1.0404 -0.3886
   94CHL1   H2B 9411   5.203   4.965   6.691 -0.8176 -0.7272  1.7153
   94CHL1   C20 9412   5.134   5.078   7.612 -0.2071 -0.4235  0.2471
   94CHL1   H20 9413   5.088   5.158   7.551  3.3773  1.7708  0.1155
   94CHL1   C21 9414   5.237   5.159   7.699 -0.5532  0.0683  0.0072
   94CHL1  H21A 9415   5.310   5.087   7.743 -1.8084  0.2315  2.5590
   94CHL1  H21B 9416   5.189   5.222   7.777  1.5077 -0.4704  1.7927
   94CHL1  H21C 9417   5.281   5.231   7.627 -2.3870  1.2733  0.0282
   94CHL1   C22 9418   5.037   5.027   7.718  0.2750  0.0756 -0.6188
   94CHL1  H22A 9419   4.961   4.967   7.664  0.0629  0.7358 -1.0639
   94CHL1  H22B 9420   5.082   4.955   7.790 -1.4073  0.7774  1.2440
   94CHL1   C23 9421   4.950   5.138   7.794  0.0303 -0.0342 -0.1924
   94CHL1  H23A 9422   5.011   5.195   7.867  1.1544 -1.3775 -0.0451
   94CHL1  H23B 9423   4.904   5.205   7.719 -0.6496  0.1966  0.4217
   94CHL1   C24 9424   4.837   5.060   7.869  0.6262 -0.0006 -0.1364
   94CHL1  H24A 9425   4.776   4.999   7.798 -0.9593  3.0470 -1.5943
   94CHL1  H24B 9426   4.897   4.995   7.937  0.1183  0.9901  1.3039
   94CHL1   C25 9427   4.752   5.156   7.948  0.0628  0.1155 -0.4186
   94CHL1   H25 9428   4.745   5.254   7.896 -2.2440  0.4582  0.4148
   94CHL1   C26 9429   4.618   5.094   7.971 -0.4193 -0.0497 -0.9920
   94CHL1  H26A 9430   4.615   5.012   8.046 -1.0161  2.3168  1.7808
   94CHL1  H26B 9431   4.539   5.157   8.018 -1.5249 -1.8572 -0.3364
   94CHL1  H26C 9432   4.578   5.054   7.876 -2.4038  0.5737 -0.4552
   94CHL1   C27 9433   4.815   5.190   8.080  0.2888 -0.4211 -1.0943
   94CHL1  H27A 9434   4.778   5.284   8.127  1.2512  0.4861 -2.0828
   94CHL1  H27B 9435   4.803   5.110   8.156 -0.7264 -0.2815 -1.0841
   94CHL1  H27C 9436   4.922   5.211   8.061  0.1617 -1.1809 -2.8629
   95CHL1    C3 9437   4.873   3.782   6.639  0.4596  0.4951  0.1426
   95CHL1    H3 9438   4.762   3.780   6.650  0.5657  1.4015  1.7880
   95CHL1    O3 9439   4.903   3.773   6.499 -0.2111 -1.0011  0.1216
   95CHL1   H3' 9440   4.909   3.682   6.468  1.4267 -0.6105 -0.8262
   95CHL1    C4 9441   4.928   3.911   6.703 -0.0761 -0.0207 -0.3601
   95CHL1   H4A 9442   5.036   3.910   6.681  0.5987 -1.4195  2.5057
   95CHL1   H4B 9443   4.884   4.001   6.654 -2.5522  0.6953  2.8068
   95CHL1    C5 9444   4.913   3.923   6.854  0.1734  0.7453 -0.1838
   95CHL1    C6 9445   4.851   4.022   6.911  0.1196 -0.4361 -0.2061
   95CHL1    H6 9446   4.807   4.108   6.858 -0.2420  0.4831  1.5060
   95CHL1    C7 9447   4.832   4.023   7.059 -0.3919  0.2864  0.2850
   95CHL1   H7A 9448   4.845   4.125   7.099  0.8410  0.6943 -1.0792
   95CHL1   H7B 9449   4.725   3.993   7.072 -0.6464  1.4059  0.8738
   95CHL1    C8 9450   4.917   3.925   7.143 -0.5075 -0.3714 -0.7940
   95CHL1    H8 9451   5.015   3.976   7.152 -2.0249  2.3292  2.9836
   95CHL1   C14 9452   4.841   3.907   7.276 -0.2026 -0.9409 -0.2377
   95CHL1   H14 9453   4.748   3.855   7.243 -0.0266  0.0378 -2.4697
   95CHL1   C15 9454   4.779   4.027   7.352  0.8387  0.1219  0.0994
   95CHL1  H15A 9455   4.854   4.108   7.365  1.9236 -0.8841  0.3111
   95CHL1  H15B 9456   4.685   4.063   7.305  1.0096  0.1177 -0.2406
   95CHL1   C16 9457   4.738   3.960   7.483  0.4616 -0.5500 -0.0935
   95CHL1  H16A 9458   4.776   4.027   7.562  1.8012  0.8045 -1.8234
   95CHL1  H16B 9459   4.627   3.954   7.491  0.5455  0.8266  4.0724
   95CHL1   C17 9460   4.808   3.817   7.486  0.3965  0.2329  0.4015
   95CHL1   H17 9461   4.725   3.751   7.453 -0.8248  1.6229  0.6281
   95CHL1   C13 9462   4.915   3.816   7.376  0.5286  0.2178  0.3902
   95CHL1   C18 9463   5.054   3.877   7.414  0.1556  0.9434  0.2231
   95CHL1  H18A 9464   5.042   3.966   7.480 -0.2791  1.1591 -0.1435
   95CHL1  H18B 9465   5.089   3.795   7.480 -4.9130 -0.7412  1.3203
   95CHL1  H18C 9466   5.123   3.892   7.329 -1.2657 -2.3042 -1.6812
   95CHL1   C12 9467   4.937   3.679   7.304  0.6868  0.0968 -0.0002
   95CHL1  H12A 9468   5.010   3.618   7.363  0.6074  0.4208  0.4369
   95CHL1  H12B 9469   4.847   3.615   7.296 -0.2462  1.5489 -1.7330
   95CHL1   C11 9470   5.002   3.693   7.164 -0.4016  0.1875  0.0356
   95CHL1  H11A 9471   5.107   3.725   7.183  0.1068 -1.2777 -0.1903
   95CHL1  H11B 9472   5.018   3.593   7.118 -0.4136  0.3785 -0.3888
   95CHL1    C9 9473   4.926   3.791   7.072 -0.1338  0.0687 -0.7074
   95CHL1    H9 9474   4.823   3.750   7.080 -0.4413  1.2206  2.8557
   95CHL1   C10 9475   4.966   3.798   6.925  0.1606 -0.0255 -0.5989
   95CHL1   C19 9476   5.119   3.820   6.917  0.7224 -0.1901 -0.1490
   95CHL1  H19A 9477   5.156   3.828   6.813 -0.1775  0.1684 -0.4522
   95CHL1  H19B 9478   5.143   3.916   6.967  0.9340 -0.7024  0.7661
   95CHL1  H19C 9479   5.170   3.738   6.973 -1.8831 -1.4870  0.4691
   95CHL1    C1 9480   4.927   3.661   6.858  0.1475 -0.0824  0.3065
   95CHL1   H1A 9481   4.987   3.575   6.893 -0.9364 -0.5699  1.0227
   95CHL1   H1B 9482   4.823   3.630   6.882  0.3312 -0.2677  0.8918
   95CHL1    C2 9483   4.948   3.663   6.705  0.0234 -0.2237 -0.3363
   95CHL1   H2A 9484   4.925   3.571   6.648  3.6815  0.1927 -2.8204
   95CHL1   H2B 9485   5.054   3.666   6.672 -0.0376 -3.1229 -1.0223
   95CHL1   C20 9486   4.853   3.769   7.628  0.2503 -0.3069 -0.5535
   95CHL1   H20 9487   4.930   3.833   7.674 -1.2337  0.8320  0.4552
   95CHL1   C21 9488   4.917   3.634   7.621 -0.2961  0.3140 -0.0796
   95CHL1  H21A 9489   4.928   3.601   7.726 -2.7173 -2.2980 -0.5253
   95CHL1  H21B 9490   5.017   3.621   7.576 -0.4669 -0.8871 -0.1502
   95CHL1  H21C 9491   4.849   3.558   7.576 -0.5283  0.8729 -0.6930
   95CHL1   C22 9492   4.721   3.767   7.705  0.0923  0.5565 -0.6897
   95CHL1  H22A 9493   4.690   3.874   7.714 -1.4737  0.0162  0.8715
   95CHL1  H22B 9494   4.643   3.706   7.655  0.3939 -0.5387  0.1456
   95CHL1   C23 9495   4.733   3.723   7.852 -0.4285  0.0981  0.1294
   95CHL1  H23A 9496   4.769   3.618   7.859 -1.6266 -0.3767 -0.5201
   95CHL1  H23B 9497   4.813   3.792   7.886 -2.2752  3.0816 -1.1733
   95CHL1   C24 9498   4.601   3.739   7.925  0.2838 -0.4175 -0.0130
   95CHL1  H24A 9499   4.559   3.841   7.912 -1.2664 -0.9377  0.5795
   95CHL1  H24B 9500   4.527   3.670   7.879 -1.3586  0.7135  0.8191
   95CHL1   C25 9501   4.598   3.720   8.079 -0.5830 -0.9637  0.4900
   95CHL1   H25 9502   4.495   3.741   8.112 -0.6129 -1.5788  0.8086
   95CHL1   C26 9503   4.615   3.570   8.118 -0.5121  0.6585  0.1712
   95CHL1  H26A 9504   4.718   3.533   8.135 -0.6479 -1.4731 -2.8439
   95CHL1  H26B 9505   4.548   3.543   8.203 -0.7039  1.8996  0.4359
   95CHL1  H26C 9506   4.572   3.511   8.034  0.1562  0.6626 -0.1796
   95CHL1   C27 9507   4.688   3.832   8.153  0.4133 -0.5735 -0.2827
   95CHL1  H27A 9508   4.648   3.936   8.148  0.2172 -0.6999 -2.9183
   95CHL1  H27B 9509   4.693   3.801   8.260  2.1740  1.1247  0.1729
   95CHL1  H27C 9510   4.791   3.832   8.111  1.3650 -0.4131  1.9011
   96CHL1    C3 9511   3.064   2.030   6.691  0.0734  0.8338  1.0745
   96CHL1    H3 9512   2.989   1.949   6.701  1.5793 -0.5683  1.2961
   96CHL1    O3 9513   3.057   2.064   6.551  0.3318  0.1352 -0.7111
   96CHL1   H3' 9514   3.026   1.983   6.509 -1.5720 -2.0280  4.1173
   96CHL1    C4 9515   3.031   2.148   6.782 -0.0482 -0.0782  0.4632
   96CHL1   H4A 9516   3.099   2.235   6.775 -1.0662  0.7765  1.0068
   96CHL1   H4B 9517   2.933   2.190   6.752  0.2796  0.1737 -0.2653
   96CHL1    C5 9518   3.035   2.105   6.927  0.6673  0.5190 -0.3652
   96CHL1    C6 9519   2.927   2.139   7.006 -0.3665 -0.1387  1.2283
   96CHL1    H6 9520   2.851   2.211   6.973  0.1071  0.2773  1.0403
   96CHL1    C7 9521   2.923   2.094   7.149  0.5613 -0.3320  0.6440
   96CHL1   H7A 9522   2.883   2.182   7.203 -2.6928 -1.5807  0.4862
   96CHL1   H7B 9523   2.855   2.007   7.159  1.9326 -1.7092 -1.2181
   96CHL1    C8 9524   3.063   2.050   7.206  1.0305  0.2530  0.0221
   96CHL1    H8 9525   3.125   2.140   7.223  0.9554  0.2531  0.3089
   96CHL1   C14 9526   3.038   1.978   7.335 -0.1799 -0.4098  0.0087
   96CHL1   H14 9527   2.990   1.883   7.306 -3.1838  0.8673  0.4420
   96CHL1   C15 9528   2.945   2.060   7.428 -0.8929  0.0037  0.1532
   96CHL1  H15A 9529   2.977   2.166   7.443  0.9882 -0.7020  1.5028
   96CHL1  H15B 9530   2.837   2.057   7.405 -1.7525 -0.4243  3.6913
   96CHL1   C16 9531   2.971   1.986   7.561  0.2406 -0.0195  0.3390
   96CHL1  H16A 9532   3.017   2.058   7.632  0.9045 -1.7785  1.7847
   96CHL1  H16B 9533   2.877   1.945   7.602 -0.8912  2.8303  0.8208
   96CHL1   C17 9534   3.090   1.883   7.538  0.0920  0.4518  0.4245
   96CHL1   H17 9535   3.044   1.785   7.514  0.4355  0.0256  1.4235
   96CHL1   C13 9536   3.158   1.941   7.416 -0.1347  0.3598  0.2869
   96CHL1   C18 9537   3.250   2.058   7.465 -0.2282  0.4362  0.0851
   96CHL1  H18A 9538   3.193   2.121   7.537 -1.0627  1.4116 -1.3970
   96CHL1  H18B 9539   3.349   2.042   7.514 -1.0370  1.7200  2.3100
   96CHL1  H18C 9540   3.278   2.126   7.382 -1.5187 -1.3393 -1.9027
   96CHL1   C12 9541   3.234   1.838   7.331  0.4776 -0.0544  1.1482
   96CHL1  H12A 9542   3.328   1.815   7.386  0.1320  1.6511  2.5439
   96CHL1  H12B 9543   3.164   1.752   7.321  0.3923  0.2474 -1.6775
   96CHL1   C11 9544   3.260   1.904   7.189 -0.4787 -0.2808 -0.0218
   96CHL1  H11A 9545   3.329   1.990   7.203 -0.0374 -0.8645  1.6238
   96CHL1  H11B 9546   3.316   1.823   7.136 -0.0901  0.2238 -0.3929
   96CHL1    C9 9547   3.136   1.952   7.116 -0.2473  0.3074  0.6124
   96CHL1    H9 9548   3.063   1.869   7.106 -0.0864 -0.0163  1.9222
   96CHL1   C10 9549   3.155   2.017   6.976  0.2700  0.5999  0.1769
   96CHL1   C19 9550   3.273   2.121   6.977  0.1585  0.3926  0.2830
   96CHL1  H19A 9551   3.367   2.068   7.002 -0.8857 -0.8324  1.7843
   96CHL1  H19B 9552   3.295   2.166   6.878  0.1554 -1.2203 -0.4868
   96CHL1  H19C 9553   3.266   2.199   7.055  0.6549 -0.7689  1.5301
   96CHL1    C1 9554   3.177   1.903   6.872  0.4673  0.4324 -0.3797
   96CHL1   H1A 9555   3.267   1.846   6.904  0.9914  1.1050 -0.6435
   96CHL1   H1B 9556   3.091   1.835   6.852 -0.1432  1.8034 -2.8140
   96CHL1    C2 9557   3.195   1.960   6.728  0.1687  0.0989  0.1954
   96CHL1   H2A 9558   3.213   1.878   6.655  1.0920  0.8963 -0.5052
   96CHL1   H2B 9559   3.280   2.032   6.729 -0.3077  0.9015  4.4303
   96CHL1   C20 9560   3.169   1.850   7.664 -0.7267  0.3068  0.3030
   96CHL1   H20 9561   3.223   1.943   7.693  1.2284 -0.7517  0.2187
   96CHL1   C21 9562   3.276   1.752   7.630  0.5595  0.7082 -0.4571
   96CHL1  H21A 9563   3.312   1.690   7.715  0.3470  2.6257  1.1001
   96CHL1  H21B 9564   3.368   1.796   7.587 -1.0857  2.0888 -2.7658
   96CHL1  H21C 9565   3.237   1.682   7.553 -1.6307  1.1589  0.1586
   96CHL1   C22 9566   3.078   1.792   7.775  0.3773  0.0599 -1.1385
   96CHL1  H22A 9567   2.974   1.831   7.773  0.1787 -0.4710 -1.2497
   96CHL1  H22B 9568   3.074   1.682   7.760  1.4006 -0.0646 -0.6254
   96CHL1   C23 9569   3.134   1.819   7.920 -0.1318 -0.0695  0.8085
   96CHL1  H23A 9570   3.240   1.785   7.925  1.1204  3.3736 -0.0913
   96CHL1  H23B 9571   3.127   1.926   7.947 -2.1206 -0.2815  1.2829
   96CHL1   C24 9572   3.046   1.750   8.031  0.2707  0.1355  0.4882
   96CHL1  H24A 9573   2.941   1.782   8.010  0.1112 -0.5542  0.1994
   96CHL1  H24B 9574   3.045   1.639   8.020 -1.0427  0.0481  1.2518
   96CHL1   C25 9575   3.091   1.792   8.169 -0.6632  0.1450 -0.1785
   96CHL1   H25 9576   3.076   1.902   8.166  1.6146  0.4595 -1.6019
   96CHL1   C26 9577   2.998   1.731   8.272  0.0698 -0.3561 -0.0395
   96CHL1  H26A 9578   3.024   1.749   8.378 -0.8223 -2.2930  0.5608
   96CHL1  H26B 9579   2.895   1.767   8.251 -0.4183 -0.8358  1.4161
   96CHL1  H26C 9580   2.995   1.621   8.254  0.5119 -0.2818 -0.5790
   96CHL1   C27 9581   3.239   1.753   8.185 -0.2517 -0.8735 -0.1002
   96CHL1  H27A 9582   3.268   1.653   8.144 -0.6979  0.0358 -2.8127
   96CHL1  H27B 9583   3.290   1.836   8.133  0.9976 -1.4638  0.1434
   96CHL1  H27C 9584   3.272   1.761   8.291 -0.4309 -0.0289 -0.1023
   97OSM      N 9585   0.920   4.897  11.199 -0.5631 -0.4006 -0.7368
   97OSM    C15 9586   0.832   5.010  11.159  0.3776  0.3845 -0.0879
   97OSM   H15A 9587   0.855   5.046  11.059  0.1874 -1.5129 -0.8524
   97OSM   H15B 9588   0.831   5.090  11.232  0.7366 -1.4008  1.9558
   97OSM   H15C 9589   0.729   4.980  11.169 -0.1918  2.4910  0.8671
   97OSM    C14 9590   1.062   4.946  11.181  0.5238  0.1863  0.1990
   97OSM   H14A 9591   1.135   4.870  11.205 -0.4010 -0.5832  0.6472
   97OSM   H14B 9592   1.084   5.030  11.245  1.0647  0.2948 -0.1250
   97OSM   H14C 9593   1.080   4.964  11.076  2.3326 -2.9125 -0.1375
   97OSM    C13 9594   0.891   4.858  11.334 -0.3755  0.1435 -0.2045
   97OSM   H13A 9595   0.783   4.850  11.342 -0.4560 -0.9646 -2.0954
   97OSM   H13B 9596   0.924   4.929  11.409  0.8992 -0.2619 -0.3605
   97OSM   H13C 9597   0.936   4.766  11.368 -0.7816  0.3250  0.9012
   97OSM    C12 9598   0.900   4.782  11.106  0.0008 -0.0994  0.9096
   97OSM   H12A 9599   0.977   4.709  11.128 -0.6760 -0.5810  1.7527
   97OSM   H12B 9600   0.914   4.820  11.005 -2.0699 -0.0468  0.6017
   97OSM    C11 9601   0.757   4.728  11.097 -0.1465  0.1466  0.6901
   97OSM   H11A 9602   0.721   4.701  11.198  1.1854 -2.7071  0.5157
   97OSM   H11B 9603   0.751   4.636  11.034 -1.2157 -0.0310  1.0324
   97OSM      P 9604   0.535   4.782  10.997  0.0233 -0.0407  0.3959
   97OSM    O13 9605   0.500   4.675  11.084  0.3964  0.4611 -0.5094
   97OSM    O14 9606   0.450   4.897  10.990  0.1668 -0.6274  0.1928
   97OSM    O11 9607   0.550   4.726  10.850 -0.2741 -0.4297  0.2932
   97OSM    O12 9608   0.682   4.826  11.017  0.1998 -0.0543 -0.2540
   97OSM    C1S 9609   0.643   4.776  10.751  0.5280  0.2501 -0.0293
   97OSM    H1S 9610   0.736   4.715  10.748  1.4758  1.5714  1.2255
   97OSM    H1T 9611   0.676   4.881  10.769  1.2249  0.1638 -0.7765
   97OSM     NF 9612   0.691   4.773  10.508  0.4756 -0.7322  0.2097
   97OSM    HNF 9613   0.706   4.858  10.458 -1.6145 -1.2543 -1.4319
   97OSM    C2S 9614   0.585   4.770  10.603  0.6709  0.2870  0.2280
   97OSM    H2S 9615   0.532   4.672  10.603 -1.3734  1.3244  0.6559
   97OSM    C3S 9616   0.479   4.884  10.582 -0.2914 -0.8499  0.0367
   97OSM    H3S 9617   0.526   4.982  10.607 -0.1735 -0.8293 -0.2717
   97OSM     O3 9618   0.378   4.880  10.677  0.3964  0.5180 -0.2097
   97OSM    HO3 9619   0.413   4.825  10.747  0.3651 -0.7081 -1.1257
   97OSM    C4S 9620   0.433   4.891  10.435 -0.1462  0.5692  0.9395
   97OSM    H4S 9621   0.504   4.953  10.378 -1.6961 -0.4445 -2.3464
   97OSM    C5S 9622   0.327   4.833  10.369  0.4711 -0.2169  0.1468
   97OSM    H5S 9623   0.253   4.775  10.424 -0.1497 -1.1664 -1.6034
   97OSM    C6S 9624   0.296   4.834  10.224 -0.0206  0.0516 -0.1282
   97OSM    H6S 9625   0.268   4.937  10.193 -3.0597 -0.4209  0.6655
   97OSM    H6T 9626   0.206   4.773  10.199 -0.5813  0.1983  1.4088
   97OSM    C7S 9627   0.412   4.799  10.127  0.1252 -0.4448  0.6152
   97OSM    H7S 9628   0.441   4.694  10.149 -0.5775 -1.0203 -1.0218
   97OSM    H7T 9629   0.495   4.865  10.162  1.0223 -1.0387 -0.3233
   97OSM    C8S 9630   0.376   4.839   9.986  0.2464 -0.3447 -0.0763
   97OSM    H8S 9631   0.387   4.948   9.971  1.2839 -0.0503  2.3954
   97OSM    H8T 9632   0.266   4.831   9.972  0.0327 -1.1616  1.7276
   97OSM    C9S 9633   0.457   4.767   9.881 -0.2808  0.8495 -0.3436
   97OSM    H9S 9634   0.429   4.660   9.892 -1.0119  1.1612  0.9924
   97OSM    H9T 9635   0.564   4.748   9.907 -1.0071 -5.3526 -0.3569
   97OSM   C10S 9636   0.448   4.800   9.727  0.7871 -0.6182 -0.7240
   97OSM   H10S 9637   0.501   4.896   9.709  1.1607 -0.4039  1.2801
   97OSM   H10T 9638   0.337   4.810   9.718  0.2091 -2.7829  2.4402
   97OSM   C11S 9639   0.491   4.686   9.636  0.2996  0.2038 -0.3085
   97OSM   H11S 9640   0.439   4.590   9.661 -0.1439  0.3196 -0.7734
   97OSM   H11T 9641   0.598   4.661   9.647  0.2272 -0.1329 -0.3255
   97OSM   C12S 9642   0.470   4.724   9.486  0.1384 -0.0795  0.8464
   97OSM   H12S 9643   0.540   4.807   9.462  0.9021 -1.4837 -2.4064
   97OSM   H12T 9644   0.367   4.745   9.449  1.0341 -0.2789 -2.0611
   97OSM   C13S 9645   0.523   4.611   9.390 -0.6685 -0.0159 -0.0036
   97OSM   H13S 9646   0.465   4.520   9.418 -0.1783 -1.1254 -2.3592
   97OSM   H13T 9647   0.627   4.584   9.417 -1.0472 -0.9779  0.5549
   97OSM   C14S 9648   0.511   4.637   9.236  0.1506 -0.0960  0.2002
   97OSM   H14S 9649   0.547   4.548   9.181 -3.8396 -1.6928 -0.2172
   97OSM   H14T 9650   0.570   4.726   9.206  1.0061 -1.0513 -1.0327
   97OSM   C15S 9651   0.363   4.651   9.186 -0.1158 -0.3441 -0.4000
   97OSM   H15S 9652   0.317   4.747   9.220  1.4267  0.7402 -1.2382
   97OSM   H15T 9653   0.311   4.560   9.224  1.2416  0.1786  3.0502
   97OSM   C16S 9654   0.362   4.668   9.037  0.3734 -0.6816  1.3259
   97OSM   H16S 9655   0.434   4.594   8.997 -2.5074 -3.3357  0.6633
   97OSM   H16T 9656   0.399   4.772   9.024 -0.6979 -0.3636  0.6525
   97OSM   C17S 9657   0.219   4.659   8.966  0.1556  0.6833 -0.3555
   97OSM   H17S 9658   0.144   4.710   9.030 -2.4767 -2.9894 -0.1724
   97OSM   H17T 9659   0.184   4.553   8.970  0.1735  0.7174  1.2700
   97OSM   C18S 9660   0.207   4.717   8.823 -0.3848 -0.2958 -0.3007
   97OSM   H18S 9661   0.283   4.688   8.748  0.1987  1.4420 -0.4181
   97OSM   H18T 9662   0.227   4.826   8.832  0.1915 -0.5608  3.1068
   97OSM   H18U 9663   0.103   4.702   8.787 -1.3245 -0.3718  2.2266
   97OSM    C1F 9664   0.760   4.660  10.491  0.0984  0.3236  0.2580
   97OSM     OF 9665   0.723   4.551  10.535 -0.4004  0.4089 -0.4934
   97OSM    C2F 9666   0.889   4.679  10.415  0.4493  0.0127 -0.0229
   97OSM    H2F 9667   0.974   4.636  10.474  1.9328  2.7596  0.0239
   97OSM    H2G 9668   0.915   4.787  10.406 -0.9304  0.1690 -3.0278
   97OSM    C3F 9669   0.886   4.619  10.273  0.4437  0.1389 -0.2731
   97OSM    H3F 9670   0.843   4.517  10.263  0.5374  0.2454 -2.1002
   97OSM    H3G 9671   0.993   4.600  10.249  1.1976  1.4643  1.8392
   97OSM    C4F 9672   0.815   4.705  10.170 -0.0178 -0.2840  0.1461
   97OSM    H4F 9673   0.714   4.735  10.204 -0.8456 -1.8188 -0.8527
   97OSM    H4G 9674   0.789   4.647  10.079 -2.0235  0.3161  0.3076
   97OSM    C5F 9675   0.899   4.828  10.125 -0.5102  1.0403  0.0404
   97OSM    H5F 9676   1.001   4.805  10.086 -0.7471  0.8101 -0.4499
   97OSM    H5G 9677   0.916   4.891  10.215  0.6533 -1.4232  1.6863
   97OSM    C6F 9678   0.837   4.908  10.019 -0.1525 -0.0946 -0.0153
   97OSM    H6F 9679   0.906   4.994  10.010  2.0766 -1.7589  0.2828
   97OSM    H6G 9680   0.733   4.940  10.043 -0.1784  0.3146 -0.6732
   97OSM    C7F 9681   0.833   4.849   9.868  0.1081  0.1561 -0.3458
   97OSM    H7F 9682   0.786   4.750   9.881 -2.9013  1.5698  0.3160
   97OSM    H7G 9683   0.940   4.847   9.836  1.6390 -0.6470  4.0657
   97OSM    C8F 9684   0.747   4.922   9.769  0.3983 -0.6377  0.0873
   97OSM    H8F 9685   0.651   4.947   9.819  0.0083 -1.3921 -0.2828
   97OSM    H8G 9686   0.725   4.859   9.681 -0.0767 -1.0464  0.4932
   97OSM    C9F 9687   0.809   5.055   9.721  0.5488 -0.0329 -0.2858
   97OSM    H9F 9688   0.833   5.136   9.792  0.1262  0.4788 -0.7286
   97OSM   C10F 9689   0.844   5.080   9.596 -0.0733  0.1521  0.1030
   97OSM   H10F 9690   0.886   5.180   9.579  2.0926 -1.0611 -2.4274
   97OSM   C11F 9691   0.841   4.997   9.468 -0.2325  0.4001 -0.7075
   97OSM   H11F 9692   0.790   4.899   9.479  1.1414 -0.3924 -1.2194
   97OSM   H11G 9693   0.948   4.978   9.445  0.2728  2.3975 -0.2205
   97OSM   C12F 9694   0.774   5.078   9.359 -0.7352 -0.2403  0.4194
   97OSM   H12F 9695   0.820   5.177   9.338 -3.1628  0.4216 -2.4528
   97OSM   H12G 9696   0.672   5.102   9.394 -0.6832  1.3154 -0.4227
   97OSM   C13F 9697   0.770   5.005   9.223 -0.1432 -0.0920 -0.1326
   97OSM   H13F 9698   0.711   4.915   9.249 -2.0011  1.3062  0.7477
   97OSM   H13G 9699   0.873   4.978   9.193 -0.0641  0.6070 -0.5160
   97OSM   C14F 9700   0.687   5.079   9.119 -0.2864  0.3107  0.2540
   97OSM   H14F 9701   0.703   5.014   9.031  1.7503 -0.7809  1.3642
   97OSM   H14G 9702   0.721   5.183   9.103  1.9364  0.4520  4.4254
   97OSM   C15F 9703   0.537   5.077   9.157 -0.2419 -0.0639 -0.2999
   97OSM   H15F 9704   0.520   5.135   9.250  0.0406  1.3073 -1.0658
   97OSM   H15G 9705   0.506   4.971   9.160 -0.2328 -0.0574  1.9513
   97OSM   C16F 9706   0.448   5.152   9.047  0.4797  0.6002 -0.4618
   97OSM   H16F 9707   0.449   5.095   8.952 -1.3043  0.8232 -0.6452
   97OSM   H16G 9708   0.485   5.255   9.029  0.1843  0.3136 -3.2488
   97OSM   C17F 9709   0.294   5.143   9.077 -0.5747 -0.3783  0.0812
   97OSM   H17F 9710   0.238   5.186   8.991  1.3948  1.3074 -0.4705
   97OSM   H17G 9711   0.286   5.202   9.171 -1.2775  0.7320 -0.6580
   97OSM   C18F 9712   0.232   5.011   9.101  0.6200  0.0394 -0.4057
   97OSM   H18F 9713   0.254   4.943   9.015  1.8662  2.2971 -1.9791
   97OSM   H18G 9714   0.121   5.015   9.103  0.5423 -1.2237 -1.2292
   97OSM   H18H 9715   0.267   4.972   9.199 -2.4665  2.3276  1.8011
   98OSM      N 9716   1.383   4.298  10.969  0.0047  0.3068 -0.2014
   98OSM    C15 9717   1.272   4.349  10.875  0.6193 -0.6659  0.5925
   98OSM   H15A 9718   1.284   4.305  10.777  2.3061  1.0039 -0.0220
   98OSM   H15B 9719   1.274   4.457  10.874  0.2788 -0.6322 -1.7831
   98OSM   H15C 9720   1.173   4.329  10.913 -0.6195  1.7276 -1.1143
   98OSM    C14 9721   1.515   4.345  10.911  0.1753  0.3941 -0.2943
   98OSM   H14A 9722   1.598   4.309  10.970 -0.7180 -0.4156  0.4886
   98OSM   H14B 9723   1.503   4.452  10.920 -2.8774  0.0845  0.2552
   98OSM   H14C 9724   1.537   4.314  10.810  2.0001 -0.0073  0.1814
   98OSM    C13 9725   1.370   4.359  11.102 -0.0279 -0.5012 -0.4644
   98OSM   H13A 9726   1.444   4.316  11.167  0.9828  0.9486 -0.6031
   98OSM   H13B 9727   1.273   4.345  11.148  0.9123 -1.9552  1.2052
   98OSM   H13C 9728   1.391   4.463  11.087 -0.5572 -0.6401 -2.5395
   98OSM    C12 9729   1.367   4.146  10.970  0.4928 -0.2565  0.2022
   98OSM   H12A 9730   1.261   4.125  10.982  0.0921  1.0635 -0.7609
   98OSM   H12B 9731   1.412   4.107  11.060 -1.8592  1.4222  2.2446
   98OSM    C11 9732   1.430   4.072  10.846 -0.6510 -0.4400 -0.0572
   98OSM   H11A 9733   1.418   3.963  10.863 -0.4346 -0.5875 -0.8018
   98OSM   H11B 9734   1.538   4.097  10.846  0.2102 -3.6944  0.3458
   98OSM      P 9735   1.257   4.020  10.652  0.1508 -0.3908 -0.0955
   98OSM    O13 9736   1.313   3.896  10.593  0.1227 -0.0328 -0.2582
   98OSM    O14 9737   1.141   4.007  10.743  0.7467 -0.3089  0.5764
   98OSM    O11 9738   1.222   4.111  10.535  0.0069  0.4659 -0.0425
   98OSM    O12 9739   1.371   4.112  10.720 -0.4373 -0.6235 -0.2366
   98OSM    C1S 9740   1.322   4.180  10.458  0.1387  0.0403  0.3126
   98OSM    H1S 9741   1.423   4.134  10.467  1.6808  1.8919 -4.4648
   98OSM    H1T 9742   1.342   4.282  10.497 -0.7335 -0.1044  1.1597
   98OSM     NF 9743   1.376   4.231  10.222  0.1785  0.3979  0.3736
   98OSM    HNF 9744   1.385   4.324  10.187  3.0433  0.1510  0.2522
   98OSM    C2S 9745   1.270   4.199  10.314 -0.5860  0.2288 -0.6192
   98OSM    H2S 9746   1.228   4.101  10.284 -1.2419 -0.2576  1.6669
   98OSM    C3S 9747   1.155   4.304  10.306  0.2999  0.0394 -0.1081
   98OSM    H3S 9748   1.207   4.398  10.334 -0.8279 -0.2828  3.6366
   98OSM     O3 9749   1.050   4.285  10.402  0.0644 -0.1251  0.6101
   98OSM    HO3 9750   1.086   4.212  10.454  2.8376 -0.0701 -1.0287
   98OSM    C4S 9751   1.101   4.304  10.164  0.0902  0.3507 -0.5031
   98OSM    H4S 9752   1.159   4.367  10.094  0.3999 -2.4579 -2.9851
   98OSM    C5S 9753   0.991   4.243  10.115  0.4043  0.0496  0.0017
   98OSM    H5S 9754   0.925   4.189  10.184 -2.6738  1.8041 -1.3361
   98OSM    C6S 9755   0.942   4.251   9.969 -0.3941  0.1780  0.0644
   98OSM    H6S 9756   0.836   4.284   9.962 -0.6733  0.2224  3.2040
   98OSM    H6T 9757   0.948   4.150   9.923 -2.2477 -0.1020  0.3569
   98OSM    C7S 9758   1.013   4.362   9.880  0.2582 -0.2199 -0.5096
   98OSM    H7S 9759   1.120   4.339   9.861  0.0143 -1.3281 -0.5641
   98OSM    H7T 9760   1.009   4.458   9.936 -0.7412 -0.7990  0.4565
   98OSM    C8S 9761   0.937   4.378   9.751  0.0651 -0.3149 -0.3783
   98OSM    H8S 9762   0.830   4.395   9.770  0.1732  1.8398 -1.3670
   98OSM    H8T 9763   0.943   4.286   9.687 -2.0019  1.4222 -3.3426
   98OSM    C9S 9764   0.989   4.484   9.657 -0.3129 -0.1395  0.0804
   98OSM    H9S 9765   1.097   4.457   9.643  0.2243  1.8077  0.2033
   98OSM    H9T 9766   0.995   4.584   9.704 -1.2087  1.4975 -3.0023
   98OSM   C10S 9767   0.918   4.495   9.518 -0.1528 -0.4717  0.4790
   98OSM   H10S 9768   0.821   4.549   9.533 -1.2757 -1.9158 -1.2395
   98OSM   H10T 9769   0.906   4.392   9.479 -1.2798 -0.3838  0.5468
   98OSM   C11S 9770   1.003   4.574   9.420 -0.3295  0.2660 -0.0214
   98OSM   H11S 9771   1.105   4.534   9.442 -0.9009 -1.2369  0.0162
   98OSM   H11T 9772   1.001   4.682   9.445  1.4107  1.0872 -2.9721
   98OSM   C12S 9773   0.967   4.560   9.274  0.3310  0.7903 -0.3610
   98OSM   H12S 9774   0.881   4.627   9.254  0.8145  1.8080  0.8307
   98OSM   H12T 9775   0.945   4.455   9.247  2.2204 -0.0963  1.3313
   98OSM   C13S 9776   1.080   4.602   9.175 -0.5571  0.1406 -0.1431
   98OSM   H13S 9777   1.154   4.526   9.209 -1.0858 -0.3529 -0.0899
   98OSM   H13T 9778   1.129   4.700   9.197  1.6224 -1.0406  0.6479
   98OSM   C14S 9779   1.044   4.575   9.030  0.0772 -0.4479 -0.6274
   98OSM   H14S 9780   0.994   4.478   9.011 -3.0861  1.0960 -0.8978
   98OSM   H14T 9781   1.135   4.581   8.967  0.6120  2.2112  0.2530
   98OSM   C15S 9782   0.944   4.680   8.970 -0.5585 -0.4108  0.0476
   98OSM   H15S 9783   0.985   4.777   9.005  0.8482 -1.2746  0.9500
   98OSM   H15T 9784   0.848   4.668   9.024 -1.1140 -2.3041 -1.2865
   98OSM   C16S 9785   0.946   4.656   8.819 -0.0976 -0.1453 -0.6211
   98OSM   H16S 9786   0.926   4.547   8.810  0.5039 -0.9730  4.5939
   98OSM   H16T 9787   1.046   4.689   8.785 -1.0012 -0.0649 -3.4095
   98OSM   C17S 9788   0.831   4.722   8.744  0.1729 -1.7720 -0.0733
   98OSM   H17S 9789   0.846   4.708   8.635 -0.3446 -1.3884 -0.1989
   98OSM   H17T 9790   0.824   4.831   8.765  2.1539 -1.4789 -0.7290
   98OSM   C18S 9791   0.694   4.670   8.786 -0.0951 -0.1363  0.1364
   98OSM   H18S 9792   0.676   4.561   8.778 -2.4621  0.1440  0.8809
   98OSM   H18T 9793   0.612   4.725   8.735  0.5826 -0.6231 -1.5232
   98OSM   H18U 9794   0.669   4.705   8.889  1.1857  1.7826 -0.1455
   98OSM    C1F 9795   1.483   4.150  10.212  0.3231  0.4254 -0.0866
   98OSM     OF 9796   1.481   4.039  10.262  0.0102  0.3976  0.1027
   98OSM    C2F 9797   1.596   4.203  10.142 -0.9191 -0.7203  0.5400
   98OSM    H2F 9798   1.636   4.289  10.200  0.8861  1.1559 -3.1750
   98OSM    H2G 9799   1.566   4.244  10.044  1.1208  1.4702  0.7235
   98OSM    C3F 9800   1.704   4.103  10.089 -0.8228 -0.0447 -0.1973
   98OSM    H3F 9801   1.654   4.016  10.042 -1.9122 -1.3673  3.1561
   98OSM    H3G 9802   1.756   4.070  10.181  1.3202  1.2572 -0.8541
   98OSM    C4F 9803   1.805   4.168   9.988 -0.7248 -0.6599 -0.2861
   98OSM    H4F 9804   1.885   4.092   9.976  0.1252  0.0552  0.6372
   98OSM    H4G 9805   1.843   4.254  10.047 -1.7295 -0.6780  0.4106
   98OSM    C5F 9806   1.754   4.214   9.852  0.5346  0.5596  0.4240
   98OSM    H5F 9807   1.677   4.291   9.876  0.1920 -0.4680  2.9202
   98OSM    H5G 9808   1.701   4.127   9.807  1.5767  0.8765 -1.5539
   98OSM    C6F 9809   1.856   4.278   9.750  0.1781 -0.3988 -0.2258
   98OSM    H6F 9810   1.944   4.212   9.732  1.3887  0.9483  0.5722
   98OSM    H6G 9811   1.893   4.375   9.788 -2.4340  1.4288 -2.0368
   98OSM    C7F 9812   1.788   4.319   9.619 -0.3830  0.5097  1.2680
   98OSM    H7F 9813   1.845   4.398   9.565  1.2714 -1.7780 -0.4981
   98OSM    H7G 9814   1.700   4.380   9.648  0.2817  2.5458 -0.7096
   98OSM    C8F 9815   1.735   4.208   9.531 -0.3532 -0.7249  0.0559
   98OSM    H8F 9816   1.669   4.258   9.456 -0.6882 -3.0592 -1.3082
   98OSM    H8G 9817   1.679   4.135   9.594  0.5551 -2.4292 -1.0326
   98OSM    C9F 9818   1.842   4.136   9.452  0.3902 -0.0394 -0.3071
   98OSM    H9F 9819   1.919   4.089   9.515 -1.5202  0.1366  2.3053
   98OSM   C10F 9820   1.828   4.106   9.320  0.5869 -0.4093 -0.1333
   98OSM   H10F 9821   1.909   4.048   9.273 -0.7425 -2.0259 -0.5432
   98OSM   C11F 9822   1.721   4.139   9.220  0.4510  0.4682  0.0929
   98OSM   H11F 9823   1.752   4.209   9.139 -0.4893  0.0136 -0.6855
   98OSM   H11G 9824   1.634   4.193   9.264 -0.3787 -2.2895  2.1465
   98OSM   C12F 9825   1.670   4.011   9.157 -0.8179  0.0312 -0.6188
   98OSM   H12F 9826   1.649   3.938   9.238 -0.1529  0.1665 -0.3179
   98OSM   H12G 9827   1.757   3.982   9.095  1.1046  2.4532  0.7926
   98OSM   C13F 9828   1.546   4.034   9.069 -0.8440 -0.0101  0.1059
   98OSM   H13F 9829   1.569   4.112   8.994 -2.0260  0.7681  0.5173
   98OSM   H13G 9830   1.471   4.070   9.143 -0.8166 -1.4095  0.8595
   98OSM   C14F 9831   1.497   3.908   8.999 -1.1272  0.1607  0.3147
   98OSM   H14F 9832   1.388   3.926   8.989 -1.2525 -0.3765  0.6226
   98OSM   H14G 9833   1.514   3.820   9.065  0.0442 -0.1093 -0.3172
   98OSM   C15F 9834   1.573   3.894   8.864  0.0798 -0.0789 -0.0511
   98OSM   H15F 9835   1.681   3.877   8.887  0.2324  0.0575 -0.6517
   98OSM   H15G 9836   1.546   3.978   8.796 -2.2467 -1.3577 -0.8117
   98OSM   C16F 9837   1.531   3.770   8.782  0.3512  0.3086 -0.3566
   98OSM   H16F 9838   1.517   3.686   8.854 -0.2621  0.4487 -0.3044
   98OSM   H16G 9839   1.612   3.738   8.713  0.6059 -2.1250  0.9592
   98OSM   C17F 9840   1.405   3.790   8.693 -0.4372  0.1108 -0.3395
   98OSM   H17F 9841   1.413   3.881   8.630 -2.2595 -0.6917 -1.8389
   98OSM   H17G 9842   1.318   3.797   8.762 -1.1649 -0.5026 -1.1707
   98OSM   C18F 9843   1.370   3.662   8.607  0.5546 -0.4371 -0.5363
   98OSM   H18F 9844   1.297   3.678   8.525  1.2981 -0.6599 -1.2468
   98OSM   H18G 9845   1.326   3.588   8.678  1.8325 -1.0776 -0.3872
   98OSM   H18H 9846   1.460   3.614   8.564  0.3603 -1.1676 -0.1399
   99OSM      N 9847   0.321   3.520  10.692  0.1201  0.1239  0.8280
   99OSM    C15 9848   0.374   3.473  10.825 -0.5518 -0.2435  0.2182
   99OSM   H15A 9849   0.302   3.475  10.906 -1.6855  0.2964 -0.7698
   99OSM   H15B 9850   0.454   3.543  10.846 -0.0786 -0.6624 -0.1669
   99OSM   H15C 9851   0.421   3.376  10.828  1.2993  0.6292  0.6705
   99OSM    C14 9852   0.235   3.404  10.630  0.4368  0.4867  0.6116
   99OSM   H14A 9853   0.169   3.366  10.707  0.5850  0.7509  0.8732
   99OSM   H14B 9854   0.306   3.326  10.604  1.8313  1.9935 -0.2677
   99OSM   H14C 9855   0.177   3.433  10.544  0.6416  3.5930  1.4111
   99OSM    C13 9856   0.229   3.631  10.720 -0.5259 -0.0995 -0.1066
   99OSM   H13A 9857   0.166   3.654  10.636 -0.7876 -0.1195  0.0846
   99OSM   H13B 9858   0.285   3.717  10.755 -0.9522 -0.6827  2.1507
   99OSM   H13C 9859   0.158   3.616  10.800 -1.2796 -0.0478 -0.7547
   99OSM    C12 9860   0.434   3.557  10.594 -1.0727  0.0261 -0.7122
   99OSM   H12A 9861   0.387   3.576  10.499 -0.3469  1.7876 -0.7452
   99OSM   H12B 9862   0.501   3.472  10.593 -1.7137 -0.5395  0.8901
   99OSM    C11 9863   0.522   3.683  10.621  0.1036 -0.3165  0.0855
   99OSM   H11A 9864   0.451   3.768  10.630  2.0535  1.5148 -1.1882
   99OSM   H11B 9865   0.584   3.722  10.538 -0.1114 -1.1045 -0.4631
   99OSM      P 9866   0.730   3.576  10.728 -0.3101 -0.3844  0.4197
   99OSM    O13 9867   0.755   3.534  10.867  0.5800 -0.5204  0.0362
   99OSM    O14 9868   0.716   3.469  10.631  0.4160 -0.0377 -0.3618
   99OSM    O11 9869   0.838   3.684  10.683  0.3088 -0.0083 -0.6066
   99OSM    O12 9870   0.595   3.665  10.738 -0.5586 -0.6814 -0.1568
   99OSM    C1S 9871   0.959   3.640  10.631  0.2928 -0.5308 -0.3149
   99OSM    H1S 9872   0.984   3.533  10.649  1.0626 -0.7030 -2.1723
   99OSM    H1T 9873   1.037   3.694  10.689 -1.3986  1.8886 -0.1597
   99OSM     NF 9874   1.114   3.603  10.451 -0.1501  0.9454 -0.4009
   99OSM    HNF 9875   1.188   3.664  10.423  1.4398 -0.7248 -0.0459
   99OSM    C2S 9876   0.981   3.663  10.480 -0.2578 -0.1581  0.2942
   99OSM    H2S 9877   0.901   3.613  10.422 -1.5861  0.8821  1.1617
   99OSM    C3S 9878   0.970   3.815  10.453  0.5427  0.2296  0.5669
   99OSM    H3S 9879   1.041   3.874  10.515  0.2338  0.3194  0.8386
   99OSM     O3 9880   0.841   3.867  10.484  0.0761  0.1796 -0.4254
   99OSM    HO3 9881   0.809   3.792  10.535 -0.0461  0.6516  0.1948
   99OSM    C4S 9882   1.012   3.845  10.313 -0.5032 -0.4949 -0.2936
   99OSM    H4S 9883   1.117   3.876  10.303 -0.2853 -0.8834  0.7052
   99OSM    C5S 9884   0.943   3.826  10.197 -0.6325  0.3295  0.0361
   99OSM    H5S 9885   0.840   3.791  10.214  0.3065 -1.3445  2.9385
   99OSM    C6S 9886   0.996   3.860  10.061 -0.7900 -0.2564 -0.5493
   99OSM    H6S 9887   0.921   3.922  10.007  1.5724  2.5506 -0.8869
   99OSM    H6T 9888   1.013   3.772   9.996 -3.0126 -1.4224  0.3360
   99OSM    C7S 9889   1.126   3.941  10.060  0.4140 -0.3067  0.0108
   99OSM    H7S 9890   1.202   3.885  10.118  0.7448 -0.1003 -0.2228
   99OSM    H7T 9891   1.121   4.043  10.103 -1.4371 -0.3134 -0.1085
   99OSM    C8S 9892   1.166   3.962   9.913  1.0388  0.6387 -0.1833
   99OSM    H8S 9893   1.080   4.006   9.858  2.6280  0.9632 -2.6023
   99OSM    H8T 9894   1.187   3.865   9.863  0.8083  0.6307 -0.2661
   99OSM    C9S 9895   1.284   4.058   9.892  0.2074  0.4744 -0.2744
   99OSM    H9S 9896   1.373   4.038   9.955 -0.0331  0.0406 -0.0659
   99OSM    H9T 9897   1.238   4.153   9.926 -0.2334  0.2197 -0.1414
   99OSM   C10S 9898   1.325   4.059   9.741  0.3264  0.1707  0.0049
   99OSM   H10S 9899   1.362   3.961   9.703  2.9764  1.9159 -2.2605
   99OSM   H10T 9900   1.423   4.112   9.739  0.4025  0.0952  0.9981
   99OSM   C11S 9901   1.216   4.117   9.644 -0.1721  0.0558  1.0071
   99OSM   H11S 9902   1.198   4.223   9.672  0.4192  0.4785 -0.1708
   99OSM   H11T 9903   1.130   4.049   9.664  1.1090 -1.6974  0.8772
   99OSM   C12S 9904   1.244   4.116   9.500  0.0183  0.0440 -0.5970
   99OSM   H12S 9905   1.326   4.187   9.476 -0.8620  0.8621 -1.2592
   99OSM   H12T 9906   1.262   4.014   9.461 -0.5544 -0.5191  0.5523
   99OSM   C13S 9907   1.122   4.182   9.431 -0.1978  0.0820 -0.2888
   99OSM   H13S 9908   1.098   4.274   9.489 -1.7467 -0.3915 -0.1354
   99OSM   H13T 9909   1.034   4.116   9.440  0.7938 -1.1257  1.0832
   99OSM   C14S 9910   1.141   4.221   9.284 -0.1659 -0.4989 -0.0259
   99OSM   H14S 9911   1.214   4.303   9.266 -2.7732  1.3194 -3.3931
   99OSM   H14T 9912   1.044   4.270   9.262 -1.1074 -1.8304  0.9746
   99OSM   C15S 9913   1.167   4.106   9.185  0.7196  0.2420  0.6046
   99OSM   H15S 9914   1.081   4.036   9.193  1.0816 -0.7185 -2.6094
   99OSM   H15T 9915   1.254   4.044   9.216 -0.6301 -1.7753  0.5661
   99OSM   C16S 9916   1.173   4.142   9.035  0.2495 -0.0100  0.0480
   99OSM   H16S 9917   1.278   4.146   8.997 -0.0983  0.5994 -0.8785
   99OSM   H16T 9918   1.123   4.241   9.026  0.6117  0.3022  1.2450
   99OSM   C17S 9919   1.106   4.046   8.940  0.9357  0.1518  0.5114
   99OSM   H17S 9920   1.000   4.057   8.972  1.2222  4.6346  0.5829
   99OSM   H17T 9921   1.148   3.948   8.969 -0.7912 -0.6588  0.3996
   99OSM   C18S 9922   1.103   4.073   8.794 -0.1598 -1.0010  0.1440
   99OSM   H18S 9923   1.082   3.977   8.741  0.4047 -0.0215 -1.9434
   99OSM   H18T 9924   1.207   4.098   8.765 -0.5008 -0.9707 -1.1125
   99OSM   H18U 9925   1.022   4.144   8.767 -0.9609 -1.9541 -0.0158
   99OSM    C1F 9926   1.152   3.479  10.448  0.1734  0.1117  0.4647
   99OSM     OF 9927   1.077   3.384  10.469 -0.1780  0.8303  0.1504
   99OSM    C2F 9928   1.305   3.461  10.431  0.1351 -0.6499  0.2588
   99OSM    H2F 9929   1.361   3.460  10.527 -0.3432 -0.7139  0.5365
   99OSM    H2G 9930   1.343   3.560  10.396  0.8841 -0.9440  0.2250
   99OSM    C3F 9931   1.351   3.363  10.332  0.8403  1.0316  0.0033
   99OSM    H3F 9932   1.461   3.367  10.320  0.8392 -1.5406 -1.5084
   99OSM    H3G 9933   1.326   3.266  10.381  1.2686  1.0074  0.1843
   99OSM    C4F 9934   1.291   3.380  10.189 -0.6418 -0.0830  0.4388
   99OSM    H4F 9935   1.280   3.489  10.173 -0.2629  0.0016  0.7546
   99OSM    H4G 9936   1.187   3.341  10.181 -0.5135 -0.4936  0.7705
   99OSM    C5F 9937   1.382   3.317  10.068 -0.1841 -0.8365  0.1161
   99OSM    H5F 9938   1.364   3.209  10.088  0.8753 -0.3316  4.6914
   99OSM    H5G 9939   1.487   3.348  10.082 -0.6297 -0.1716  2.3363
   99OSM    C6F 9940   1.336   3.357   9.923  0.4928 -0.1125 -0.1449
   99OSM    H6F 9941   1.329   3.468   9.916 -0.1273 -0.1290  0.1161
   99OSM    H6G 9942   1.237   3.316   9.894  0.5674  1.1608 -2.4940
   99OSM    C7F 9943   1.436   3.332   9.809 -0.8039 -0.6414  0.2121
   99OSM    H7F 9944   1.477   3.230   9.792  1.0934  0.4317 -2.3964
   99OSM    H7G 9945   1.530   3.387   9.832 -0.0726 -1.4616 -0.7370
   99OSM    C8F 9946   1.381   3.381   9.668 -0.5578 -0.3634 -0.3391
   99OSM    H8F 9947   1.467   3.429   9.616  0.0861  1.7554  2.4232
   99OSM    H8G 9948   1.312   3.465   9.692 -0.4772 -0.6462  1.0110
   99OSM    C9F 9949   1.311   3.277   9.585  0.3870 -0.1541  0.0700
   99OSM    H9F 9950   1.230   3.224   9.637 -0.8449 -1.6973 -3.1558
   99OSM   C10F 9951   1.327   3.239   9.459  0.2499  1.1238 -0.3169
   99OSM   H10F 9952   1.269   3.157   9.412  1.8896 -0.5930  0.5577
   99OSM   C11F 9953   1.427   3.288   9.364 -0.7736  0.2312  0.7432
   99OSM   H11F 9954   1.492   3.204   9.331 -1.6917 -0.3850  0.4709
   99OSM   H11G 9955   1.495   3.368   9.400 -2.8990  0.9407  3.4770
   99OSM   C12F 9956   1.355   3.348   9.227  0.4430  0.3759 -0.1875
   99OSM   H12F 9957   1.429   3.426   9.198  0.4477 -0.1805 -1.7564
   99OSM   H12G 9958   1.270   3.412   9.258 -0.4681  1.0608 -3.6288
   99OSM   C13F 9959   1.308   3.255   9.114 -0.0767 -0.2802  0.5561
   99OSM   H13F 9960   1.235   3.186   9.159 -2.1991  1.8439  0.5658
   99OSM   H13G 9961   1.393   3.190   9.085 -0.2588 -1.0236  1.6481
   99OSM   C14F 9962   1.242   3.318   8.993  0.2092 -0.6710 -0.4448
   99OSM   H14F 9963   1.316   3.372   8.930 -0.1621  0.5166  0.1125
   99OSM   H14G 9964   1.171   3.394   9.032  1.6959  1.3225 -1.4359
   99OSM   C15F 9965   1.163   3.229   8.899  0.0657  0.2758  0.4608
   99OSM   H15F 9966   1.080   3.176   8.949 -0.8967 -1.2257 -2.4830
   99OSM   H15G 9967   1.221   3.155   8.840 -1.2747 -0.4262 -0.0117
   99OSM   C16F 9968   1.098   3.317   8.788 -0.5547 -0.2996  0.5138
   99OSM   H16F 9969   1.179   3.367   8.730  0.2361 -0.3329  1.5427
   99OSM   H16G 9970   1.033   3.395   8.835  0.8413  0.4982  1.2040
   99OSM   C17F 9971   1.010   3.238   8.684 -0.2522 -0.1568 -0.4000
   99OSM   H17F 9972   0.918   3.202   8.735  0.6341 -0.7517  0.8088
   99OSM   H17G 9973   1.072   3.149   8.660 -0.0248 -0.9394  2.7223
   99OSM   C18F 9974   0.968   3.325   8.563  0.4610  0.2536 -0.5973
   99OSM   H18F 9975   0.887   3.277   8.504 -0.5879  0.0216  0.9695
   99OSM   H18G 9976   1.054   3.337   8.494  0.4165 -1.4105 -0.9742
   99OSM   H18H 9977   0.937   3.425   8.601 -0.2156  1.0634 -3.0944
  100OSM      N 9978   4.566   4.333  10.789 -0.1859  0.3546  0.3551
  100OSM    C15 9979   4.434   4.394  10.832  0.4224  0.9234 -0.0538
  100OSM   H15A 9980   4.397   4.352  10.924  0.5696  1.6757  0.3576
  100OSM   H15B 9981   4.354   4.395  10.759  1.3430 -1.0269 -1.1384
  100OSM   H15C 9982   4.446   4.501  10.844 -2.6118  1.4825 -1.0677
  100OSM    C14 9983   4.669   4.418  10.852 -0.8582 -0.1299 -0.0249
  100OSM   H14A 9984   4.632   4.485  10.928 -1.3341  1.5465 -1.6714
  100OSM   H14B 9985   4.706   4.484  10.775  0.7032 -1.5943 -0.5782
  100OSM   H14C 9986   4.762   4.373  10.885  0.5233  1.2873 -1.8169
  100OSM    C13 9987   4.569   4.192  10.843  0.7823  0.5655 -0.2262
  100OSM   H13A 9988   4.669   4.149  10.845  1.1686  1.4286 -0.4589
  100OSM   H13B 9989   4.507   4.126  10.785  0.3394  0.8883 -0.1194
  100OSM   H13C 9990   4.534   4.205  10.944  1.5655  2.5636 -0.1537
  100OSM    C12 9991   4.579   4.333  10.638  0.6342  0.1335 -0.6639
  100OSM   H12A 9992   4.504   4.281  10.580  1.0225 -2.1005  0.7232
  100OSM   H12B 9993   4.671   4.278  10.623  0.8421  0.3954 -0.3515
  100OSM    C11 9994   4.615   4.468  10.581  0.4486  0.4243  0.6060
  100OSM   H11A 9995   4.550   4.552  10.613 -0.3445 -0.5429  1.6072
  100OSM   H11B 9996   4.599   4.466  10.471  3.1240  1.3955  0.1286
  100OSM      P 9997   4.871   4.417  10.539 -0.1309  0.1350  0.5714
  100OSM    O13 9998   5.001   4.482  10.569 -0.4576  0.0112  0.2223
  100OSM    O14 9999   4.859   4.274  10.574  0.2469 -0.2467 -0.0183
  100OSM    O1110000   4.840   4.432  10.386  0.6479  0.1576  0.1450
  100OSM    O1210001   4.755   4.500  10.607  0.0796 -0.0113  0.1432
  100OSM    C1S10002   4.837   4.559  10.314  0.2625 -0.2484  0.3694
  100OSM    H1S10003   4.931   4.617  10.327  1.2281 -1.8767  1.1025
  100OSM    H1T10004   4.757   4.630  10.343  0.1003  0.9915 -2.7286
  100OSM     NF10005   4.805   4.665  10.098  0.4905 -0.4422  0.1205
  100OSM    HNF10006   4.710   4.694  10.089  0.5686 -0.1882  0.1156
  100OSM    C2S10007   4.814   4.541  10.158 -0.3645  0.4980 -0.0076
  100OSM    H2S10008   4.910   4.494  10.126  0.7122  2.1118  0.6789
  100OSM    C3S10009   4.698   4.445  10.122 -0.9664 -0.3093  0.2526
  100OSM    H3S10010   4.607   4.508  10.124  0.3649  1.6743  1.3122
  100OSM     O310011   4.676   4.328  10.204 -0.0792 -0.1071 -0.1531
  100OSM    HO310012   4.740   4.346  10.273 -0.6807 -0.8406  0.6166
  100OSM    C4S10013   4.714   4.403   9.978  1.5884 -0.3646 -0.2799
  100OSM    H4S10014   4.650   4.468   9.916  1.4488  0.5935  0.8347
  100OSM    C5S10015   4.786   4.302   9.925 -0.3276  0.3535 -0.2305
  100OSM    H5S10016   4.838   4.235   9.995 -0.5486  0.2861 -0.1292
  100OSM    C6S10017   4.787   4.260   9.778 -0.1388 -0.2116 -0.4057
  100OSM    H6S10018   4.720   4.172   9.768 -1.7900  0.6301  2.3132
  100OSM    H6T10019   4.890   4.245   9.739  0.3894 -0.9600  1.2107
  100OSM    C7S10020   4.731   4.364   9.677 -1.0235 -0.1681 -0.0230
  100OSM    H7S10021   4.798   4.452   9.677  1.0062 -1.5219  2.8965
  100OSM    H7T10022   4.627   4.398   9.693 -0.7192 -0.4004  2.9541
  100OSM    C8S10023   4.752   4.299   9.538  0.1749 -0.6357 -0.2527
  100OSM    H8S10024   4.713   4.195   9.542 -0.4897 -0.4050 -0.4915
  100OSM    H8T10025   4.860   4.297   9.513  0.2086  2.4815 -0.8055
  100OSM    C9S10026   4.676   4.368   9.426 -0.0743  0.1171  1.1245
  100OSM    H9S10027   4.742   4.452   9.395  0.1055 -0.9351 -1.6042
  100OSM    H9T10028   4.579   4.413   9.454  0.3358  2.5210 -0.9936
  100OSM   C10S10029   4.678   4.266   9.306  0.1617  0.4300  0.0803
  100OSM   H10S10030   4.591   4.197   9.314  1.0862 -0.6620  1.1834
  100OSM   H10T10031   4.767   4.198   9.307 -0.0489  0.1580  0.7794
  100OSM   C11S10032   4.674   4.340   9.173 -0.5264 -1.0235 -0.4058
  100OSM   H11S10033   4.755   4.414   9.156  1.1307 -3.2043 -2.7603
  100OSM   H11T10034   4.582   4.403   9.170  0.3280  0.2271 -1.4865
  100OSM   C12S10035   4.671   4.259   9.050 -0.1592 -0.1582  0.1050
  100OSM   H12S10036   4.583   4.193   9.036 -0.5639  0.1092  1.2553
  100OSM   H12T10037   4.759   4.193   9.061 -0.6172 -0.7659  0.1338
  100OSM   C13S10038   4.698   4.346   8.926  0.0682 -0.1537 -0.2532
  100OSM   H13S10039   4.786   4.413   8.936 -0.6949  0.9610 -0.7731
  100OSM   H13T10040   4.613   4.417   8.917  0.1628 -0.0962 -0.7034
  100OSM   C14S10041   4.712   4.265   8.800 -0.0092 -0.6665  0.7361
  100OSM   H14S10042   4.629   4.191   8.806  0.1587 -0.9104  0.1408
  100OSM   H14T10043   4.804   4.203   8.806 -2.1885 -4.1986  0.5118
  100OSM   C15S10044   4.685   4.356   8.684 -0.9785 -0.1766 -0.2834
  100OSM   H15S10045   4.747   4.448   8.688 -1.1381 -0.1052  1.5008
  100OSM   H15T10046   4.576   4.379   8.681 -0.9167  0.1175 -0.3745
  100OSM   C16S10047   4.695   4.286   8.549  0.2925  0.5715  0.4241
  100OSM   H16S10048   4.625   4.199   8.557 -1.6261  1.9207 -0.8485
  100OSM   H16T10049   4.794   4.249   8.516 -0.3228  0.7397 -1.7616
  100OSM   C17S10050   4.650   4.363   8.432 -0.0794  0.0701  0.0245
  100OSM   H17S10051   4.725   4.442   8.411 -0.3616  0.4465  0.4046
  100OSM   H17T10052   4.552   4.410   8.454 -0.6159 -0.9821 -0.0688
  100OSM   C18S10053   4.644   4.275   8.311  0.5330 -0.2521  0.0044
  100OSM   H18S10054   4.597   4.328   8.226 -3.0668 -0.6515  1.5895
  100OSM   H18T10055   4.572   4.192   8.326  0.1579  0.1885  0.6970
  100OSM   H18U10056   4.744   4.233   8.284  1.6778  1.4466  1.3554
  100OSM    C1F10057   4.907   4.741  10.061 -0.2908  0.0485 -0.0336
  100OSM     OF10058   5.019   4.697  10.053 -0.6431  0.1892 -0.2477
  100OSM    C2F10059   4.885   4.886  10.046  0.5390 -0.4569  0.2670
  100OSM    H2F10060   4.859   4.910  10.152  1.0838  0.2971  0.2407
  100OSM    H2G10061   4.804   4.915   9.976  1.7303  0.6486 -0.7087
  100OSM    C3F10062   5.018   4.972  10.023  0.2995  0.3790 -0.2966
  100OSM    H3F10063   5.103   4.933  10.082  0.0894 -0.0631 -0.2810
  100OSM    H3G10064   5.001   5.078  10.052 -0.0714  0.4559 -0.7760
  100OSM    C4F10065   5.051   4.970   9.875  0.4014 -0.4839  0.2910
  100OSM    H4F10066   4.969   5.029   9.829 -1.8962 -1.1289  3.2628
  100OSM    H4G10067   5.048   4.868   9.832 -0.7039 -1.0369  1.5641
  100OSM    C5F10068   5.183   5.039   9.837  0.1519  0.3172  0.6278
  100OSM    H5F10069   5.255   4.964   9.877  0.0096  0.0680  0.4140
  100OSM    H5G10070   5.189   5.130   9.900 -2.3637  0.3580  0.8936
  100OSM    C6F10071   5.200   5.061   9.686 -0.3256  0.3303 -0.0966
  100OSM    H6F10072   5.179   5.168   9.663 -0.2287  0.4882  0.5449
  100OSM    H6G10073   5.119   5.003   9.635 -0.7074  1.8062 -1.2681
  100OSM    C7F10074   5.336   5.034   9.631  0.4307 -0.0839 -0.3969
  100OSM    H7F10075   5.367   4.932   9.665 -0.0903 -0.6168 -1.4551
  100OSM    H7G10076   5.416   5.104   9.663  1.4910 -1.0902 -0.7735
  100OSM    C8F10077   5.335   5.062   9.478 -0.5553  0.1255 -0.5005
  100OSM    H8F10078   5.439   5.082   9.447 -0.7568  1.4541 -0.3569
  100OSM    H8G10079   5.288   5.162   9.465  4.2690  3.0016  1.6490
  100OSM    C9F10080   5.258   4.955   9.408  0.1063 -0.3412 -0.1292
  100OSM    H9F10081   5.211   4.876   9.469  0.4452 -0.8960 -0.5737
  100OSM   C10F10082   5.217   4.944   9.280 -0.5653  0.1148  0.1551
  100OSM   H10F10083   5.138   4.873   9.252 -0.5607 -0.3120  1.1580
  100OSM   C11F10084   5.245   5.046   9.176 -0.1979 -0.0349 -0.1024
  100OSM   H11F10085   5.300   5.136   9.210 -0.4638  2.0225 -4.4834
  100OSM   H11G10086   5.150   5.093   9.144 -0.8826 -1.6454 -0.5656
  100OSM   C12F10087   5.314   4.989   9.049  0.1779  0.5904 -1.0967
  100OSM   H12F10088   5.245   4.915   9.002  1.0975 -0.7366 -0.4222
  100OSM   H12G10089   5.406   4.936   9.082 -1.3327 -1.1972  0.4583
  100OSM   C13F10090   5.351   5.100   8.951 -0.1759 -0.2360 -0.5074
  100OSM   H13F10091   5.400   5.184   9.004  0.1407 -0.0341 -1.1179
  100OSM   H13G10092   5.253   5.141   8.918 -0.8939 -1.5371 -0.0502
  100OSM   C14F10093   5.436   5.051   8.825  0.3984 -0.6584 -0.1409
  100OSM   H14F10094   5.378   4.973   8.771 -1.9424  0.6484  0.3835
  100OSM   H14G10095   5.540   5.023   8.854  0.2792 -0.1014  0.8787
  100OSM   C15F10096   5.450   5.170   8.728 -0.3913 -0.2236  0.6770
  100OSM   H15F10097   5.504   5.252   8.779 -1.4739 -0.1723  1.7900
  100OSM   H15G10098   5.349   5.211   8.708  1.1798  2.9903 -1.5141
  100OSM   C16F10099   5.520   5.137   8.597  0.0793  0.4086  0.0738
  100OSM   H16F10100   5.446   5.074   8.542  0.1976  0.3303  0.0037
  100OSM   H16G10101   5.613   5.079   8.615  0.0751  0.3056 -0.2344
  100OSM   C17F10102   5.567   5.257   8.513  0.9262 -0.4757 -0.5957
  100OSM   H17F10103   5.647   5.307   8.572 -0.2870 -0.1737  0.8763
  100OSM   H17G10104   5.489   5.332   8.490 -2.2428 -3.4446 -0.3657
  100OSM   C18F10105   5.639   5.212   8.384  0.2164 -0.2625  0.1569
  100OSM   H18F10106   5.702   5.296   8.349  2.4679 -1.9968 -0.1585
  100OSM   H18G10107   5.556   5.183   8.315 -0.8671  0.5489  1.0905
  100OSM   H18H10108   5.706   5.126   8.405  3.0613  1.4436 -1.3504
  101OSM      N10109   0.782   6.480  10.928  0.1123 -0.1425 -0.4883
  101OSM    C1510110   0.903   6.570  10.936  0.4166 -0.1422  0.2644
  101OSM   H15A10111   0.970   6.546  11.017  3.0690  2.4334 -0.9434
  101OSM   H15B10112   0.871   6.673  10.938 -0.4117 -0.2719 -2.2959
  101OSM   H15C10113   0.965   6.568  10.847 -0.1039 -0.2439 -0.0983
  101OSM    C1410114   0.701   6.507  10.805  0.1229 -0.0412  0.0702
  101OSM   H14A10115   0.774   6.515  10.725 -0.9108  0.4307 -0.8591
  101OSM   H14B10116   0.649   6.602  10.811  0.0846  0.1070 -1.9245
  101OSM   H14C10117   0.627   6.431  10.782 -0.1014  0.1792  0.0581
  101OSM    C1310118   0.834   6.336  10.940 -0.4176  0.9067  0.3884
  101OSM   H13A10119   0.869   6.312  10.841 -1.6330  0.4617  0.0437
  101OSM   H13B10120   0.761   6.260  10.966  2.6440 -2.0393  1.0328
  101OSM   H13C10121   0.921   6.321  11.002 -1.4112 -0.9011  1.4563
  101OSM    C1210122   0.698   6.503  11.053 -0.3464 -0.4716  0.5179
  101OSM   H12A10123   0.671   6.607  11.060 -0.0045 -0.0071 -3.2927
  101OSM   H12B10124   0.743   6.463  11.144 -0.8249 -0.8837  0.5744
  101OSM    C1110125   0.560   6.428  11.058  0.1846 -0.1694  0.2850
  101OSM   H11A10126   0.491   6.464  10.978 -1.0246 -1.6528  0.6102
  101OSM   H11B10127   0.508   6.457  11.152  1.9118 -0.7121  1.4542
  101OSM      P10128   0.472   6.198  10.982 -0.1421 -0.2680  0.1022
  101OSM    O1310129   0.507   6.059  11.024  0.2877 -0.0959  0.0312
  101OSM    O1410130   0.334   6.249  11.014  0.2739 -1.1331  0.2518
  101OSM    O1110131   0.495   6.204  10.825  0.3800  0.6702 -0.3491
  101OSM    O1210132   0.586   6.290  11.043  0.5485  0.3455  0.7989
  101OSM    C1S10133   0.455   6.104  10.734 -0.0010  0.0026  0.2798
  101OSM    H1S10134   0.344   6.115  10.739  0.0228  0.0879  0.6214
  101OSM    H1T10135   0.468   6.002  10.775 -0.9972 -1.0276 -1.8083
  101OSM     NF10136   0.468   6.030  10.496  0.3842  0.2295 -0.1454
  101OSM    HNF10137   0.514   5.943  10.482  1.3154  0.9364 -1.8134
  101OSM    C2S10138   0.525   6.116  10.597  0.0964 -0.5107  0.2957
  101OSM    H2S10139   0.522   6.219  10.557  0.8086 -0.8089 -0.5727
  101OSM    C3S10140   0.676   6.082  10.612 -0.1255 -0.2180 -0.2516
  101OSM    H3S10141   0.680   5.972  10.618  0.7978 -0.1231  1.8152
  101OSM     O310142   0.742   6.119  10.727 -0.1171 -0.3665 -0.3127
  101OSM    HO310143   0.671   6.145  10.786 -0.8556 -4.0582  0.6804
  101OSM    C4S10144   0.751   6.121  10.487  0.4876  0.0174  0.2687
  101OSM    H4S10145   0.758   6.037  10.416  1.8060  0.6117 -0.3329
  101OSM    C5S10146   0.828   6.227  10.459  0.5183 -0.1860  0.2020
  101OSM    H5S10147   0.842   6.300  10.540  0.0210 -0.2488  0.3491
  101OSM    C6S10148   0.898   6.239  10.318 -0.1179  0.4454 -0.2398
  101OSM    H6S10149   0.904   6.146  10.257 -2.2984 -0.1575  0.3720
  101OSM    H6T10150   1.008   6.256  10.326  0.1898 -1.8109  1.3892
  101OSM    C7S10151   0.842   6.350  10.235  0.3013  0.2914  0.3452
  101OSM    H7S10152   0.920   6.369  10.159  0.1915  2.0968  0.6516
  101OSM    H7T10153   0.844   6.438  10.303  0.9259 -0.3222  1.1471
  101OSM    C8S10154   0.701   6.321  10.184  0.3748  0.0171  0.5936
  101OSM    H8S10155   0.671   6.401  10.113  1.5192  0.0358  0.1175
  101OSM    H8T10156   0.634   6.340  10.271  0.1132 -0.1435  0.4262
  101OSM    C9S10157   0.668   6.189  10.128 -0.0385  0.0925  0.2498
  101OSM    H9S10158   0.649   6.113  10.207  0.6082 -0.4448 -0.0946
  101OSM    H9T10159   0.758   6.155  10.072 -0.2948  0.9992 -0.7353
  101OSM   C10S10160   0.541   6.196  10.034 -0.2653 -0.1792  0.7863
  101OSM   H10S10161   0.555   6.111   9.963  0.9935 -0.0675  0.8808
  101OSM   H10T10162   0.534   6.285   9.968  0.0532 -0.9438 -0.3098
  101OSM   C11S10163   0.411   6.194  10.109  0.1273  0.0445 -0.7057
  101OSM   H11S10164   0.399   6.260  10.197 -1.2768 -0.3625 -0.5665
  101OSM   H11T10165   0.390   6.098  10.161 -0.1089  1.2100  1.4754
  101OSM   C12S10166   0.283   6.219  10.019  0.1937  0.1823  0.4872
  101OSM   H12S10167   0.311   6.186   9.917 -1.3033 -0.6405  0.3315
  101OSM   H12T10168   0.262   6.328  10.011 -2.4780 -0.1031  2.3755
  101OSM   C13S10169   0.152   6.152  10.064  0.0344 -0.1998  0.0940
  101OSM   H13S10170   0.138   6.190  10.168  0.7574 -1.7841  0.7996
  101OSM   H13T10171   0.173   6.044  10.078 -1.0665 -0.7518 -2.0496
  101OSM   C14S10172   0.027   6.170   9.981  0.2093  0.7620  0.0319
  101OSM   H14S10173   0.002   6.278   9.974 -0.3725  0.6553  0.3778
  101OSM   H14T10174  -0.060   6.122  10.031 -0.5414  2.1464  0.1090
  101OSM   C15S10175   0.026   6.104   9.838 -0.4839  0.3632  0.4844
  101OSM   H15S10176   0.042   5.994   9.845  1.4029  0.6043  0.5261
  101OSM   H15T10177   0.116   6.154   9.795 -1.2182  1.1267 -0.1843
  101OSM   C16S10178  -0.096   6.143   9.752  0.0946 -0.2052  0.0673
  101OSM   H16S10179  -0.141   6.239   9.785 -3.1925 -1.2293 -1.0354
  101OSM   H16T10180  -0.165   6.059   9.778  1.0950 -0.7561  1.0234
  101OSM   C17S10181  -0.055   6.149   9.607 -0.0329 -0.6565  0.7085
  101OSM   H17S10182  -0.017   6.248   9.572  1.0726 -1.3906 -0.2461
  101OSM   H17T10183  -0.154   6.133   9.560 -0.7383  0.8697  1.6032
  101OSM   C18S10184   0.037   6.044   9.564 -0.8060 -0.2882 -0.5279
  101OSM   H18S10185   0.011   5.937   9.577  3.1647 -1.6422 -2.2770
  101OSM   H18T10186   0.140   6.038   9.606 -1.1034  0.8955  0.4356
  101OSM   H18U10187   0.046   6.048   9.453  0.2846 -1.2448 -0.4887
  101OSM    C1F10188   0.346   6.058  10.456 -0.4359 -0.2371  1.0743
  101OSM     OF10189   0.301   6.170  10.475  0.5401  0.6063  0.2569
  101OSM    C2F10190   0.272   5.943  10.390 -0.1626 -0.3542 -0.3337
  101OSM    H2F10191   0.337   5.856  10.409 -1.3174 -0.9403  1.1890
  101OSM    H2G10192   0.261   5.954  10.280 -0.2843 -1.5833 -0.4524
  101OSM    C3F10193   0.134   5.938  10.461  0.3212  0.2532 -0.9151
  101OSM    H3F10194   0.055   5.996  10.409  0.4453  1.8949  0.6548
  101OSM    H3G10195   0.146   5.962  10.568  0.1846 -0.2092 -0.7936
  101OSM    C4F10196   0.092   5.786  10.461 -0.1101 -0.5334 -0.8142
  101OSM    H4F10197  -0.001   5.784  10.521 -0.0234 -1.5612 -0.7025
  101OSM    H4G10198   0.172   5.727  10.511  0.6375 -0.0141 -1.3768
  101OSM    C5F10199   0.058   5.741  10.312  0.7949 -0.1920  0.0460
  101OSM    H5F10200   0.144   5.745  10.242  0.0589  0.1452 -0.8632
  101OSM    H5G10201  -0.021   5.808  10.271 -0.1202 -1.9283 -1.1384
  101OSM    C6F10202  -0.006   5.599  10.310  0.3995 -0.0593 -0.5463
  101OSM    H6F10203   0.075   5.527  10.333  0.3844  0.3210  0.7944
  101OSM    H6G10204  -0.090   5.584  10.381  0.9863  2.0944  0.6803
  101OSM    C7F10205  -0.070   5.565  10.174 -0.2886 -0.6191  0.3364
  101OSM    H7F10206  -0.171   5.611  10.172 -0.1001 -0.2138  0.0638
  101OSM    H7G10207  -0.082   5.455  10.176 -2.4529 -0.4189  1.8257
  101OSM    C8F10208   0.010   5.602  10.054 -0.1960  0.2951  0.4058
  101OSM    H8F10209   0.020   5.711  10.034 -2.6896  0.3512 -1.0139
  101OSM    H8G10210  -0.058   5.566   9.973  3.5149 -3.1410 -1.5415
  101OSM    C9F10211   0.147   5.531  10.046  0.1342  0.1042 -0.1398
  101OSM    H9F10212   0.191   5.497  10.141  1.6332  0.2568 -0.7504
  101OSM   C10F10213   0.211   5.513   9.926  0.7579 -0.4128 -0.5503
  101OSM   H10F10214   0.300   5.449   9.929  1.2580  0.3141  1.0887
  101OSM   C11F10215   0.162   5.561   9.794  0.2066 -0.1940 -0.0831
  101OSM   H11F10216   0.116   5.661   9.810  0.5267 -0.1594  0.6744
  101OSM   H11G10217   0.088   5.489   9.754 -0.5499  0.8963 -0.6959
  101OSM   C12F10218   0.273   5.578   9.692  0.0013  0.6906  0.5388
  101OSM   H12F10219   0.315   5.477   9.670  1.3360  1.4528 -0.6414
  101OSM   H12G10220   0.353   5.640   9.738 -0.0341  1.3390 -0.2413
  101OSM   C13F10221   0.229   5.660   9.570  0.5321 -0.4331  0.1044
  101OSM   H13F10222   0.200   5.764   9.598  0.2843 -0.0844 -1.3260
  101OSM   H13G10223   0.155   5.609   9.505  0.6543  0.7310 -1.0092
  101OSM   C14F10224   0.344   5.672   9.463  0.1061 -0.2313 -0.0942
  101OSM   H14F10225   0.371   5.569   9.434 -0.5397 -0.9655  1.7482
  101OSM   H14G10226   0.425   5.727   9.515  0.4253 -0.4472 -0.3575
  101OSM   C15F10227   0.290   5.742   9.335 -0.2445 -0.1356  0.0020
  101OSM   H15F10228   0.269   5.850   9.348 -1.0576  0.0910 -2.5598
  101OSM   H15G10229   0.197   5.689   9.305 -1.4135  0.7496  1.9352
  101OSM   C16F10230   0.384   5.728   9.212 -0.1296  0.2621 -0.0862
  101OSM   H16F10231   0.387   5.619   9.191  0.1777 -0.1344  1.8615
  101OSM   H16G10232   0.489   5.755   9.237 -0.1500  1.2026 -0.9180
  101OSM   C17F10233   0.347   5.803   9.087 -0.4816 -0.2292 -0.4347
  101OSM   H17F10234   0.370   5.912   9.097  2.5068 -0.6167 -1.9745
  101OSM   H17G10235   0.240   5.778   9.066 -0.2019 -1.6938 -0.1853
  101OSM   C18F10236   0.422   5.769   8.960  0.0240  0.5360  0.7282
  101OSM   H18F10237   0.432   5.659   8.947  0.4270  0.5415  0.9832
  101OSM   H18G10238   0.527   5.803   8.956 -0.1215  0.9020 -0.2104
  101OSM   H18H10239   0.354   5.804   8.879 -2.1171  0.8476  2.5688
  102OSM      N10240   4.771   4.935  10.586 -0.2061 -0.0377  0.2385
  102OSM    C1510241   4.884   4.901  10.683  0.4133  0.0148  0.4409
  102OSM   H15A10242   4.847   4.859  10.776 -2.7147  0.9921 -0.2319
  102OSM   H15B10243   4.928   4.988  10.728 -1.3363 -0.5268  3.5492
  102OSM   H15C10244   4.960   4.834  10.647  2.4757  1.9782  0.9149
  102OSM    C1410245   4.836   5.007  10.475  0.0555  0.0060  0.4474
  102OSM   H14A10246   4.897   5.090  10.509 -0.2724  0.3759  0.1360
  102OSM   H14B10247   4.767   5.049  10.404  0.0048 -1.2367 -0.2611
  102OSM   H14C10248   4.911   4.941  10.433 -0.3321 -0.4655  0.4878
  102OSM    C1310249   4.714   4.799  10.536 -0.1843 -0.6951 -0.4637
  102OSM   H13A10250   4.645   4.772  10.615  1.6225  0.6819  1.6926
  102OSM   H13B10251   4.789   4.722  10.525 -0.4408 -1.3865  2.0363
  102OSM   H13C10252   4.665   4.811  10.440 -2.1246 -1.0095  0.4340
  102OSM    C1210253   4.664   5.009  10.654 -0.3502  0.0909 -0.4808
  102OSM   H12A10254   4.709   5.103  10.681 -0.0224 -0.2055  0.0320
  102OSM   H12B10255   4.648   4.961  10.750  0.4807 -0.4390 -0.5975
  102OSM    C1110256   4.550   5.046  10.563  0.4824  0.1409 -0.8026
  102OSM   H11A10257   4.452   5.059  10.613  1.6303 -0.7191  1.8122
  102OSM   H11B10258   4.526   4.959  10.497  1.8911 -1.2219  0.4121
  102OSM      P10259   4.557   5.309  10.546 -0.3292  0.3393  0.1828
  102OSM    O1310260   4.431   5.309  10.613 -0.0098  0.3424  0.0199
  102OSM    O1410261   4.678   5.365  10.617  0.0887  0.1408  0.3296
  102OSM    O1110262   4.540   5.397  10.421 -0.0638  0.1500  0.1547
  102OSM    O1210263   4.580   5.160  10.488  0.4983  0.3609  0.2025
  102OSM    C1S10264   4.646   5.405  10.323 -0.9531 -0.1291 -0.3761
  102OSM    H1S10265   4.702   5.311  10.301  0.7106  1.3280 -2.8943
  102OSM    H1T10266   4.705   5.493  10.355 -1.4703 -0.7613  2.5568
  102OSM     NF10267   4.696   5.427  10.089 -0.0110  0.4371 -0.2903
  102OSM    HNF10268   4.747   5.513  10.088 -0.0281  0.4488 -0.1699
  102OSM    C2S10269   4.589   5.435  10.187  0.1092 -0.2003  0.3049
  102OSM    H2S10270   4.517   5.359  10.148  1.8704 -1.3486 -0.8967
  102OSM    C3S10271   4.514   5.573  10.186 -0.1735 -0.0225  0.3173
  102OSM    H3S10272   4.583   5.653  10.220  0.9435  0.5280 -2.9243
  102OSM     O310273   4.405   5.578  10.281  0.1354  0.0038 -0.1872
  102OSM    HO310274   4.431   5.510  10.343 -2.5008 -0.4683  0.5178
  102OSM    C4S10275   4.474   5.601  10.045 -0.2900 -0.2223  0.2217
  102OSM    H4S10276   4.533   5.676   9.990 -0.1565  0.4748  1.2687
  102OSM    C5S10277   4.361   5.544   9.996 -0.6198 -0.4810 -0.0005
  102OSM    H5S10278   4.290   5.492  10.063  1.0514  0.6801  2.8452
  102OSM    C6S10279   4.324   5.553   9.849  0.0068  0.2156  0.4685
  102OSM    H6S10280   4.321   5.644   9.785 -2.1709 -0.7847 -0.9901
  102OSM    H6T10281   4.222   5.509   9.843 -0.1636  0.6477  0.1197
  102OSM    C7S10282   4.426   5.456   9.778  0.3900  0.5061  0.1064
  102OSM    H7S10283   4.457   5.367   9.836 -0.6056  1.9508  3.0645
  102OSM    H7T10284   4.515   5.520   9.758  0.5079 -0.2151 -1.9374
  102OSM    C8S10285   4.366   5.426   9.640  0.0399  0.0460 -0.2430
  102OSM    H8S10286   4.326   5.521   9.598 -2.3882 -0.8713 -0.1442
  102OSM    H8T10287   4.280   5.359   9.659  0.8517 -0.9216  0.1261
  102OSM    C9S10288   4.464   5.357   9.541  0.1587  0.1285  0.3557
  102OSM    H9S10289   4.491   5.263   9.593  0.0723  1.0316  2.0924
  102OSM    H9T10290   4.558   5.411   9.514  1.3637 -1.3300  1.4611
  102OSM   C10S10291   4.399   5.303   9.412  0.3492  0.2092  0.3294
  102OSM   H10S10292   4.475   5.285   9.333 -0.5182  0.3146 -0.5499
  102OSM   H10T10293   4.335   5.390   9.383  2.3723  1.8628  0.6470
  102OSM   C11S10294   4.310   5.178   9.428  0.4756  0.6626 -0.7331
  102OSM   H11S10295   4.236   5.183   9.511 -0.2233  1.7494 -1.3967
  102OSM   H11T10296   4.377   5.092   9.450  0.4764 -0.0557 -3.2021
  102OSM   C12S10297   4.232   5.137   9.295  0.1728 -0.0689  0.8010
  102OSM   H12S10298   4.161   5.217   9.265 -0.1524 -0.6229  0.0494
  102OSM   H12T10299   4.166   5.052   9.323 -0.5064  0.7655  1.7954
  102OSM   C13S10300   4.340   5.089   9.192  0.4374 -0.3120  0.7980
  102OSM   H13S10301   4.399   5.017   9.252  0.6880 -0.3463  0.5148
  102OSM   H13T10302   4.404   5.172   9.153  1.0561 -0.4889  1.4121
  102OSM   C14S10303   4.280   5.011   9.070  0.0239  0.1972 -0.1782
  102OSM   H14S10304   4.215   5.089   9.027  1.2315  1.4511  0.1854
  102OSM   H14T10305   4.217   4.928   9.109  1.1161  0.6938  2.9506
  102OSM   C15S10306   4.379   4.941   8.969  1.0568  0.0876 -0.0347
  102OSM   H15S10307   4.454   4.884   9.027  1.6228  0.7791 -0.0640
  102OSM   H15T10308   4.439   5.014   8.910  0.3285 -0.5908 -1.6941
  102OSM   C16S10309   4.297   4.850   8.876 -0.2698  0.4269  0.1769
  102OSM   H16S10310   4.206   4.912   8.862 -1.5804 -1.5317 -0.3628
  102OSM   H16T10311   4.259   4.766   8.939  1.7700  0.0529  0.9922
  102OSM   C17S10312   4.364   4.804   8.750 -0.0257  0.7702  0.6494
  102OSM   H17S10313   4.418   4.882   8.693 -0.5148 -0.0998 -1.0641
  102OSM   H17T10314   4.283   4.761   8.687 -0.5992 -0.0436  1.9002
  102OSM   C18S10315   4.460   4.692   8.776  0.1237 -0.0565 -0.1940
  102OSM   H18S10316   4.550   4.732   8.826 -0.9369  2.1866  0.0312
  102OSM   H18T10317   4.482   4.639   8.680  0.6583  0.2315 -0.2312
  102OSM   H18U10318   4.412   4.620   8.846 -1.6705 -0.3907 -1.6815
  102OSM    C1F10319   4.747   5.320  10.023  0.3856  0.4154  0.3174
  102OSM     OF10320   4.725   5.209  10.074  0.1725 -0.5612  0.2630
  102OSM    C2F10321   4.832   5.336   9.906  0.2720  0.2549  0.0999
  102OSM    H2F10322   4.937   5.307   9.927  0.3381  1.2339  1.1720
  102OSM    H2G10323   4.839   5.444   9.879  0.5291  0.2159  0.0069
  102OSM    C3F10324   4.780   5.252   9.782 -0.1469  0.4669 -0.0109
  102OSM    H3F10325   4.673   5.274   9.763 -0.8114 -1.8267  0.6757
  102OSM    H3G10326   4.794   5.151   9.826  2.1725 -0.6786 -3.0600
  102OSM    C4F10327   4.871   5.268   9.655  0.3936  0.1788 -0.1702
  102OSM    H4F10328   4.979   5.257   9.681  0.2491  1.3164  0.9580
  102OSM    H4G10329   4.853   5.369   9.613 -2.9283  0.7467  2.2517
  102OSM    C5F10330   4.829   5.170   9.548  0.7524 -0.2445  0.2967
  102OSM    H5F10331   4.724   5.194   9.522  0.5989 -0.9609  0.2339
  102OSM    H5G10332   4.842   5.071   9.596  1.8145 -0.3375 -0.1479
  102OSM    C6F10333   4.929   5.161   9.426 -0.0785 -0.1477 -0.3563
  102OSM    H6F10334   4.901   5.079   9.357  0.1871 -0.3543 -0.2214
  102OSM    H6G10335   5.031   5.136   9.463  0.3621  0.6920 -0.9601
  102OSM    C7F10336   4.938   5.295   9.341 -0.2417 -0.1229 -0.3768
  102OSM    H7F10337   5.020   5.297   9.267  1.1235  1.8615  1.1097
  102OSM    H7G10338   4.962   5.374   9.415 -1.0543  0.3362 -0.5804
  102OSM    C8F10339   4.801   5.338   9.290  0.0548 -0.1476  0.0845
  102OSM    H8F10340   4.808   5.436   9.238 -0.4694  0.0737  0.4263
  102OSM    H8G10341   4.731   5.355   9.374  0.7576  1.8928  0.3129
  102OSM    C9F10342   4.747   5.223   9.196  0.1701  0.3817 -1.0368
  102OSM    H9F10343   4.666   5.161   9.238  1.0031 -0.1299 -0.1542
  102OSM   C10F10344   4.771   5.213   9.068  0.1825  0.5651  0.2003
  102OSM   H10F10345   4.730   5.130   9.008 -1.3329  2.5678 -1.6731
  102OSM   C11F10346   4.842   5.305   8.978  0.5060 -0.5059  0.1587
  102OSM   H11F10347   4.929   5.242   8.950  2.0036  0.6456  2.0124
  102OSM   H11G10348   4.891   5.390   9.031 -1.8415  1.1498 -0.1396
  102OSM   C12F10349   4.768   5.359   8.854  0.1307 -0.0827  0.2079
  102OSM   H12F10350   4.838   5.432   8.809 -0.6050 -0.2239 -1.2212
  102OSM   H12G10351   4.678   5.413   8.890 -1.2074 -1.3403 -1.1095
  102OSM   C13F10352   4.730   5.249   8.758  0.4487 -0.2210  0.0614
  102OSM   H13F10353   4.671   5.182   8.824  0.1778  1.1756  1.2691
  102OSM   H13G10354   4.820   5.198   8.716  2.4754  2.4742  0.8524
  102OSM   C14F10355   4.641   5.314   8.647 -0.0346  0.5350  0.0127
  102OSM   H14F10356   4.703   5.383   8.586  2.1330 -0.1246  1.3781
  102OSM   H14G10357   4.539   5.346   8.678 -0.0351  2.3528 -1.6743
  102OSM   C15F10358   4.611   5.200   8.546  0.4829 -0.0593  0.2129
  102OSM   H15F10359   4.560   5.121   8.606 -0.8853 -0.5522 -1.5110
  102OSM   H15G10360   4.706   5.149   8.517 -0.2773 -0.2103 -2.2735
  102OSM   C16F10361   4.533   5.237   8.419 -0.0192  0.4876 -0.3421
  102OSM   H16F10362   4.580   5.315   8.356  0.4819  0.6993  0.2723
  102OSM   H16G10363   4.434   5.276   8.449 -0.7210 -1.8623  0.6435
  102OSM   C17F10364   4.508   5.109   8.327  0.1261 -0.7790  0.0088
  102OSM   H17F10365   4.605   5.065   8.295  0.4454 -0.5578  0.6443
  102OSM   H17G10366   4.466   5.151   8.233  1.2187 -0.2616 -0.2609
  102OSM   C18F10367   4.407   5.006   8.386 -0.0900 -0.7513 -0.2340
  102OSM   H18F10368   4.456   4.947   8.466 -0.9470  1.8839  2.3992
  102OSM   H18G10369   4.382   4.930   8.308  1.3943 -0.1412 -1.3596
  102OSM   H18H10370   4.308   5.042   8.420 -0.0783 -1.3237  0.4201
  103OSM      N10371   2.561   1.798  10.712  0.0969  0.1986  0.1329
  103OSM    C1510372   2.675   1.899  10.736  0.2884 -0.2141 -0.5836
  103OSM   H15A10373   2.739   1.846  10.806 -0.0996 -1.0444 -0.8463
  103OSM   H15B10374   2.638   1.990  10.780  0.6610 -1.5605  2.8653
  103OSM   H15C10375   2.712   1.920  10.637 -1.7066 -1.5309 -1.6902
  103OSM    C1410376   2.621   1.680  10.641 -0.2458  0.2828  0.0264
  103OSM   H14A10377   2.699   1.626  10.692 -0.0279  2.1765  1.8723
  103OSM   H14B10378   2.642   1.717  10.542 -0.2904  0.2628  0.0094
  103OSM   H14C10379   2.545   1.604  10.626 -1.0297  1.2852 -1.3102
  103OSM    C1310380   2.498   1.757  10.840 -0.9924  0.0431  0.4452
  103OSM   H13A10381   2.572   1.702  10.896 -0.9091 -0.8989 -0.5417
  103OSM   H13B10382   2.418   1.687  10.820 -0.4866 -0.8785  1.5317
  103OSM   H13C10383   2.458   1.844  10.889 -2.7264 -0.8311  0.6911
  103OSM    C1210384   2.456   1.857  10.619 -0.3036 -0.2395 -0.3856
  103OSM   H12A10385   2.396   1.770  10.595  1.3785 -1.7130  0.5119
  103OSM   H12B10386   2.495   1.902  10.529 -0.7782  0.9200 -0.0328
  103OSM    C1110387   2.365   1.967  10.673 -0.0779 -1.3783 -0.0392
  103OSM   H11A10388   2.315   1.950  10.770  0.5601  0.3918  0.6235
  103OSM   H11B10389   2.294   1.972  10.587  1.4723  0.0441 -1.3188
  103OSM      P10390   2.364   2.223  10.710 -0.2147 -0.2745  0.1876
  103OSM    O1310391   2.218   2.196  10.694 -0.4525  0.1756  0.8741
  103OSM    O1410392   2.408   2.289  10.836  0.3152  0.4050  0.5243
  103OSM    O1110393   2.411   2.309  10.587  0.3438 -0.2032 -0.6095
  103OSM    O1210394   2.443   2.087  10.686 -0.3160  0.2329  0.5715
  103OSM    C1S10395   2.537   2.300  10.529  0.0133 -0.3467  0.1055
  103OSM    H1S10396   2.565   2.200  10.490 -0.8141 -0.2551 -0.7546
  103OSM    H1T10397   2.616   2.353  10.587 -0.4575 -1.8000  2.2007
  103OSM     NF10398   2.670   2.359  10.321 -0.0484 -0.2218  0.3760
  103OSM    HNF10399   2.745   2.421  10.345 -0.4495  0.9358 -1.1607
  103OSM    C2S10400   2.545   2.375  10.392 -0.4192 -0.6383 -0.3089
  103OSM    H2S10401   2.461   2.331  10.334 -2.5553  1.8951  0.6441
  103OSM    C3S10402   2.513   2.529  10.414 -0.5605  0.8056 -0.1232
  103OSM    H3S10403   2.585   2.564  10.490 -0.7192  1.5668 -0.3122
  103OSM     O310404   2.386   2.554  10.459 -0.0438  0.0050  0.4456
  103OSM    HO310405   2.364   2.478  10.513 -1.2168  0.2705  0.3467
  103OSM    C4S10406   2.538   2.607  10.276  0.0063 -0.3749 -0.2543
  103OSM    H4S10407   2.643   2.624  10.246 -0.3885  0.7193 -1.0367
  103OSM    C5S10408   2.460   2.652  10.180  0.5236  0.1406  0.4181
  103OSM    H5S10409   2.350   2.651  10.188  0.2350  0.8559 -2.3531
  103OSM    C6S10410   2.501   2.725  10.060 -0.1559 -0.0309  0.1315
  103OSM    H6S10411   2.574   2.804  10.085 -1.2676  0.0735  3.5802
  103OSM    H6T10412   2.410   2.775  10.020 -1.9072 -2.9539  0.1154
  103OSM    C7S10413   2.552   2.626   9.949  0.3278 -0.8806 -0.8192
  103OSM    H7S10414   2.471   2.550   9.950 -0.9658  0.3108  3.3057
  103OSM    H7T10415   2.644   2.583   9.992 -0.6493 -1.1540  1.0934
  103OSM    C8S10416   2.575   2.696   9.811 -0.6157  0.3483 -0.3421
  103OSM    H8S10417   2.652   2.776   9.814  2.1786 -2.1347 -0.4946
  103OSM    H8T10418   2.475   2.742   9.794 -1.3589 -1.2478 -0.4959
  103OSM    C9S10419   2.607   2.588   9.704  0.2452  0.1254 -0.5358
  103OSM    H9S10420   2.540   2.500   9.704  0.9091 -0.4083 -2.1342
  103OSM    H9T10421   2.713   2.553   9.709 -0.0815 -1.1624 -1.9772
  103OSM   C10S10422   2.608   2.643   9.556  0.0642 -0.1153 -0.4371
  103OSM   H10S10423   2.649   2.550   9.511 -0.0906 -0.8847  0.9219
  103OSM   H10T10424   2.677   2.727   9.535 -1.0772  0.2400 -3.1569
  103OSM   C11S10425   2.470   2.666   9.500 -0.8460 -0.1665 -0.5776
  103OSM   H11S10426   2.416   2.740   9.563 -0.1763  0.3266 -0.5717
  103OSM   H11T10427   2.408   2.574   9.508  0.8182 -1.5006 -2.0618
  103OSM   C12S10428   2.482   2.700   9.354 -0.0481  0.5344  0.4049
  103OSM   H12S10429   2.523   2.613   9.299  0.6602  0.2307  1.3869
  103OSM   H12T10430   2.553   2.784   9.339  0.6503 -0.3810 -1.7301
  103OSM   C13S10431   2.343   2.725   9.308 -0.7586  0.4906  0.4099
  103OSM   H13S10432   2.275   2.782   9.374 -1.5464  0.0614 -0.0158
  103OSM   H13T10433   2.284   2.631   9.305 -2.2289  1.2139  3.0953
  103OSM   C14S10434   2.328   2.798   9.172  0.5821 -0.4246 -0.0405
  103OSM   H14S10435   2.406   2.873   9.145  1.3842 -1.3037 -0.2152
  103OSM   H14T10436   2.235   2.858   9.169  0.6555 -0.2761  0.5251
  103OSM   C15S10437   2.326   2.708   9.050  0.2090  0.0129  0.0564
  103OSM   H15S10438   2.251   2.627   9.062 -0.6909  0.8556  0.3475
  103OSM   H15T10439   2.416   2.646   9.032 -1.1185 -1.6897 -1.0309
  103OSM   C16S10440   2.297   2.787   8.917 -0.1573  0.4483 -1.0170
  103OSM   H16S10441   2.383   2.856   8.899  2.0278 -2.3408 -2.0527
  103OSM   H16T10442   2.215   2.858   8.940 -0.1606 -0.1476  0.9475
  103OSM   C17S10443   2.273   2.700   8.796 -0.3022  0.1583  0.0974
  103OSM   H17S10444   2.197   2.623   8.823  0.1899 -0.0992  0.7681
  103OSM   H17T10445   2.371   2.651   8.777 -0.2280  1.3573 -3.5741
  103OSM   C18S10446   2.224   2.769   8.674  0.4746  0.2477 -0.0330
  103OSM   H18S10447   2.255   2.873   8.652  1.0509  0.5613  2.0874
  103OSM   H18T10448   2.113   2.755   8.674  0.7374 -2.2827 -0.2989
  103OSM   H18U10449   2.267   2.721   8.583 -0.1280 -1.4452  0.5361
  103OSM    C1F10450   2.708   2.259  10.242  0.3681  0.4295 -0.3269
  103OSM     OF10451   2.623   2.173  10.214 -0.8880  0.6635  0.3293
  103OSM    C2F10452   2.850   2.251  10.209  0.1745  0.0913 -0.0628
  103OSM    H2F10453   2.896   2.182  10.283  1.0014  0.4209 -0.2532
  103OSM    H2G10454   2.890   2.354  10.217 -1.3207  0.5697  1.8687
  103OSM    C3F10455   2.886   2.196  10.063  0.2540  0.7172  0.3273
  103OSM    H3F10456   2.822   2.110  10.035 -0.8836  1.7491 -0.3691
  103OSM    H3G10457   2.988   2.152  10.064 -0.6083 -1.7378 -3.1324
  103OSM    C4F10458   2.889   2.311   9.961  0.7817  0.0875  0.7349
  103OSM    H4F10459   2.983   2.365   9.988 -0.6792  2.7925  0.7210
  103OSM    H4G10460   2.807   2.383   9.980  0.7211  0.2345 -0.0892
  103OSM    C5F10461   2.897   2.281   9.808  0.0294  0.7758  0.2724
  103OSM    H5F10462   2.988   2.222   9.783 -1.3179 -1.7676  0.9305
  103OSM    H5G10463   2.897   2.371   9.743 -1.0681  1.0904  0.6880
  103OSM    C6F10464   2.784   2.186   9.757 -0.1449 -0.0469 -0.6621
  103OSM    H6F10465   2.693   2.248   9.771  0.4036  0.2260  2.0696
  103OSM    H6G10466   2.779   2.093   9.818  0.8903 -0.2981 -0.9319
  103OSM    C7F10467   2.793   2.152   9.605  0.3423 -0.2269  0.3774
  103OSM    H7F10468   2.839   2.053   9.588 -0.6550 -0.5621 -0.4903
  103OSM    H7G10469   2.856   2.231   9.558  0.6475 -0.5941  0.1707
  103OSM    C8F10470   2.653   2.156   9.528 -0.0371  0.7671  0.3939
  103OSM    H8F10471   2.611   2.257   9.552  1.1519  1.6561 -1.0953
  103OSM    H8G10472   2.587   2.090   9.588 -1.1384  0.5643 -1.0055
  103OSM    C9F10473   2.665   2.119   9.384  0.2418 -0.1357  0.2845
  103OSM    H9F10474   2.718   2.025   9.365  1.1056  0.3033  0.4581
  103OSM   C10F10475   2.610   2.181   9.275 -0.1588 -0.4981  0.2457
  103OSM   H10F10476   2.651   2.147   9.178  0.5330  3.1326 -0.8733
  103OSM   C11F10477   2.522   2.299   9.262 -0.6945 -0.3737 -0.9612
  103OSM   H11F10478   2.555   2.383   9.328 -2.2698  0.9493 -1.7909
  103OSM   H11G10479   2.425   2.277   9.311 -1.1738  0.4421 -1.5131
  103OSM   C12F10480   2.487   2.347   9.119 -0.3609  0.3842  0.7211
  103OSM   H12F10481   2.584   2.376   9.073  0.9798  2.7845  4.5491
  103OSM   H12G10482   2.435   2.445   9.124  1.2391  1.2051  3.4384
  103OSM   C13F10483   2.406   2.246   9.039  0.4284 -0.6564 -0.1639
  103OSM   H13F10484   2.447   2.143   9.039  1.6266 -0.2053  0.8660
  103OSM   H13G10485   2.404   2.292   8.938  0.5490  1.2635  0.6593
  103OSM   C14F10486   2.260   2.245   9.091 -0.2740  0.3196  0.0094
  103OSM   H14F10487   2.229   2.351   9.087 -2.3063 -0.1755  0.9429
  103OSM   H14G10488   2.263   2.221   9.200 -0.3451 -1.7572 -0.3927
  103OSM   C15F10489   2.156   2.155   9.009 -0.0053  0.0935 -0.4762
  103OSM   H15F10490   2.057   2.185   9.049  1.0389  1.6190  1.1373
  103OSM   H15G10491   2.164   2.047   9.034  0.0928  0.7776  2.8623
  103OSM   C16F10492   2.179   2.173   8.860 -0.1145  0.1149  0.3116
  103OSM   H16F10493   2.116   2.110   8.794  0.8280 -0.5968  0.0704
  103OSM   H16G10494   2.281   2.155   8.819 -0.8029  0.0733 -1.4645
  103OSM   C17F10495   2.153   2.320   8.813  0.3917  0.3241  0.0966
  103OSM   H17F10496   2.177   2.330   8.705 -0.2363  1.2550  0.0398
  103OSM   H17G10497   2.217   2.399   8.856 -1.2498  1.8113 -0.1089
  103OSM   C18F10498   2.017   2.378   8.823  0.8079 -0.4958  0.3924
  103OSM   H18F10499   1.975   2.386   8.925  0.1575 -0.6065  0.1360
  103OSM   H18G10500   1.944   2.313   8.771 -0.7259  0.9674  0.6221
  103OSM   H18H10501   2.017   2.484   8.787  3.9501  0.3041  2.3758
  104OSM      N10502   3.106   2.385  10.818  0.3428 -0.3708  0.3177
  104OSM    C1510503   3.157   2.247  10.790  0.3408 -0.0163  0.3295
  104OSM   H15A10504   3.261   2.232  10.814  0.8564  1.6343 -0.6827
  104OSM   H15B10505   3.134   2.206  10.693  3.1441 -1.8398  0.3316
  104OSM   H15C10506   3.113   2.177  10.858 -2.2845  0.5674 -0.6361
  104OSM    C1410507   2.958   2.400  10.793 -0.2809 -0.1890 -0.5902
  104OSM   H14A10508   2.929   2.379  10.691  0.1636 -0.3137 -0.6931
  104OSM   H14B10509   2.932   2.505  10.800  0.1854 -0.1214  0.2231
  104OSM   H14C10510   2.907   2.348  10.873 -0.1243  2.8171  1.6272
  104OSM    C1310511   3.120   2.406  10.965  0.5208  0.0122 -0.2210
  104OSM   H13A10512   3.070   2.494  11.003  0.8342 -1.0015  2.8980
  104OSM   H13B10513   3.225   2.409  10.993 -0.0337  0.3682  2.0297
  104OSM   H13C10514   3.075   2.321  11.015 -3.2174 -0.1822 -3.4864
  104OSM    C1210515   3.186   2.476  10.725 -0.3044 -0.3342 -0.1268
  104OSM   H12A10516   3.162   2.457  10.621 -0.9261  0.7861 -0.2036
  104OSM   H12B10517   3.292   2.466  10.746 -0.7771 -2.2240  1.7178
  104OSM    C1110518   3.150   2.630  10.760 -0.2090 -0.2799 -0.1298
  104OSM   H11A10519   3.231   2.691  10.715 -1.0117 -0.0287 -1.2593
  104OSM   H11B10520   3.143   2.654  10.869 -2.3215 -0.7416 -0.1194
  104OSM      P10521   2.981   2.822  10.736 -0.1909  0.2338  0.1630
  104OSM    O1310522   2.835   2.825  10.722  0.6793 -0.2590 -0.0038
  104OSM    O1410523   3.040   2.880  10.857 -0.6201 -0.1144 -0.1275
  104OSM    O1110524   3.046   2.891  10.613 -0.3795  0.3411  0.6462
  104OSM    O1210525   3.020   2.672  10.711  0.3475  0.0671  0.7423
  104OSM    C1S10526   3.056   2.813  10.492 -0.1172 -0.4275  0.4242
  104OSM    H1S10527   2.969   2.749  10.467  0.5978 -0.9130 -0.9678
  104OSM    H1T10528   3.144   2.745  10.494  0.8286  0.6033 -1.9056
  104OSM     NF10529   3.051   2.826  10.243 -0.0046  0.5101  0.8527
  104OSM    HNF10530   3.123   2.773  10.200 -2.2122 -2.1430  0.1626
  104OSM    C2S10531   3.078   2.908  10.366 -0.6952  0.5371 -0.8433
  104OSM    H2S10532   3.015   2.998  10.377  0.8629  1.5278  0.4141
  104OSM    C3S10533   3.229   2.978  10.379  0.2705 -0.3293 -0.4647
  104OSM    H3S10534   3.297   2.890  10.375  1.8518  0.8799 -1.0788
  104OSM     O310535   3.255   3.039  10.506  0.0375  1.0682 -0.1989
  104OSM    HO310536   3.184   3.002  10.559 -0.9721  0.4711 -1.9079
  104OSM    C4S10537   3.248   3.073  10.263  0.0853  0.2647  0.0170
  104OSM    H4S10538   3.324   3.037  10.193 -1.6826  0.2361 -1.9714
  104OSM    C5S10539   3.192   3.196  10.253  0.7452  0.2200  0.3593
  104OSM    H5S10540   3.122   3.238  10.327 -0.5524  1.9222 -1.6935
  104OSM    C6S10541   3.218   3.282  10.132  0.2448 -0.3434 -0.1703
  104OSM    H6S10542   3.280   3.371  10.155  1.5197 -1.3486  0.4516
  104OSM    H6T10543   3.125   3.329  10.093  1.2220  1.9130  0.0848
  104OSM    C7S10544   3.268   3.215  10.003  0.4459  0.0586  0.0229
  104OSM    H7S10545   3.355   3.147  10.013  0.4049  0.0539  0.3496
  104OSM    H7T10546   3.291   3.290   9.924  2.9385 -1.2504 -0.5855
  104OSM    C8S10547   3.165   3.121   9.945  0.3158  0.3786  0.1793
  104OSM    H8S10548   3.072   3.179   9.928  1.3735  2.2055  0.4388
  104OSM    H8T10549   3.150   3.035  10.015  0.6469 -0.5483 -0.8606
  104OSM    C9S10550   3.188   3.064   9.802  0.3404  0.2465 -0.5106
  104OSM    H9S10551   3.102   2.996   9.785 -0.2838  0.7349  0.5431
  104OSM    H9T10552   3.284   3.007   9.798 -0.4039 -1.0267 -0.7872
  104OSM   C10S10553   3.201   3.183   9.711  0.0568 -0.1054  0.1348
  104OSM   H10S10554   3.302   3.226   9.728 -0.0567  0.6070 -0.9081
  104OSM   H10T10555   3.126   3.265   9.713 -3.6930 -3.2354  0.1716
  104OSM   C11S10556   3.202   3.125   9.563  0.1219 -0.2003 -0.4189
  104OSM   H11S10557   3.118   3.053   9.550  0.0020  0.0795 -1.1949
  104OSM   H11T10558   3.296   3.067   9.553  1.0076  0.8964  1.0597
  104OSM   C12S10559   3.202   3.234   9.454 -0.0184 -0.5231  1.3664
  104OSM   H12S10560   3.291   3.298   9.474 -1.1292  0.9887  1.6934
  104OSM   H12T10561   3.120   3.307   9.467 -0.1345 -0.1799 -0.8338
  104OSM   C13S10562   3.215   3.179   9.312 -0.0248 -0.2881  0.2459
  104OSM   H13S10563   3.134   3.108   9.286 -0.8959  0.8537 -0.2574
  104OSM   H13T10564   3.311   3.123   9.312  0.6867  0.9049  0.6035
  104OSM   C14S10565   3.217   3.279   9.193  0.4939  0.4250  0.0957
  104OSM   H14S10566   3.299   3.347   9.223 -0.9154  2.5060 -0.5296
  104OSM   H14T10567   3.116   3.323   9.209  0.8498  0.4074  2.8420
  104OSM   C15S10568   3.238   3.208   9.053 -0.1354  0.0569  0.1567
  104OSM   H15S10569   3.143   3.156   9.031 -1.8042  2.0865  2.0356
  104OSM   H15T10570   3.328   3.145   9.066  0.9433  1.3003 -0.9608
  104OSM   C16S10571   3.269   3.296   8.935 -0.1576  0.0678 -0.7935
  104OSM   H16S10572   3.359   3.360   8.946  0.4631 -0.9415  0.1100
  104OSM   H16T10573   3.185   3.368   8.920  0.0391 -0.1181 -3.3313
  104OSM   C17S10574   3.253   3.227   8.796 -0.3579  0.3755  0.1783
  104OSM   H17S10575   3.148   3.190   8.789  0.2586 -1.0990 -3.0242
  104OSM   H17T10576   3.319   3.139   8.804  2.6383  2.4743  0.1775
  104OSM   C18S10577   3.272   3.304   8.668  0.3875 -0.2756  0.4548
  104OSM   H18S10578   3.205   3.390   8.647  0.3298 -0.9705 -2.7599
  104OSM   H18T10579   3.247   3.234   8.585  1.7778  0.3049 -0.4851
  104OSM   H18U10580   3.373   3.347   8.655  0.4541 -0.7806 -0.8030
  104OSM    C1F10581   2.926   2.791  10.215  0.6832 -0.5743  0.6534
  104OSM     OF10582   2.827   2.824  10.283  0.4767  0.4874 -0.1084
  104OSM    C2F10583   2.918   2.704  10.094 -0.0004  0.3100 -0.6914
  104OSM    H2F10584   2.811   2.697  10.064 -0.1193  0.0311 -0.2238
  104OSM    H2G10585   2.944   2.599  10.122 -1.7265  0.7241  2.9899
  104OSM    C3F10586   2.993   2.758   9.969 -0.2853 -0.0961  0.0124
  104OSM    H3F10587   3.098   2.789   9.987  0.0449 -1.9824  1.7779
  104OSM    H3G10588   2.936   2.851   9.951  2.0622  2.1473  3.0947
  104OSM    C4F10589   2.991   2.658   9.850  0.2387  0.5789  0.2000
  104OSM    H4F10590   2.886   2.631   9.826  0.6938 -0.5862 -0.5513
  104OSM    H4G10591   3.053   2.576   9.893 -0.0226  1.0434  1.4914
  104OSM    C5F10592   3.057   2.714   9.723 -0.1557 -0.1741 -0.5044
  104OSM    H5F10593   3.166   2.730   9.735 -0.1988  1.6472 -2.1426
  104OSM    H5G10594   2.999   2.808   9.708 -2.1111 -1.3784 -0.9849
  104OSM    C6F10595   3.026   2.641   9.595 -0.2941  0.4700 -0.1362
  104OSM    H6F10596   2.936   2.575   9.602 -0.0094  0.1662  0.8850
  104OSM    H6G10597   3.110   2.573   9.568 -3.2853 -2.8253 -2.0313
  104OSM    C7F10598   3.012   2.743   9.477  0.7817 -0.5328  0.3618
  104OSM    H7F10599   3.105   2.803   9.482  1.1753 -0.9441 -1.4237
  104OSM    H7G10600   2.926   2.813   9.492  0.7380 -0.7794  1.3291
  104OSM    C8F10601   3.014   2.682   9.338  0.6184  0.3469  0.1645
  104OSM    H8F10602   3.090   2.601   9.342 -0.6560 -0.8331  2.0018
  104OSM    H8G10603   3.045   2.753   9.258 -2.4347  1.9483  0.2299
  104OSM    C9F10604   2.875   2.634   9.290  1.2472  0.4711  0.7935
  104OSM    H9F10605   2.791   2.649   9.359  0.9602  0.1675  0.5128
  104OSM   C10F10606   2.860   2.558   9.183  0.7289  0.5031 -0.6515
  104OSM   H10F10607   2.758   2.541   9.145 -0.2793 -0.1674  2.1093
  104OSM   C11F10608   2.966   2.509   9.091  0.6028 -0.4755 -0.1870
  104OSM   H11F10609   3.055   2.572   9.113 -1.0076  1.9538 -0.2794
  104OSM   H11G10610   2.944   2.529   8.984  1.2210  6.1485  0.4716
  104OSM   C12F10611   3.007   2.370   9.103 -0.5780 -0.2748 -0.0292
  104OSM   H12F10612   3.019   2.346   9.211  0.7163 -3.3322 -0.7406
  104OSM   H12G10613   3.107   2.359   9.056  0.3689  3.1798  0.8651
  104OSM   C13F10614   2.912   2.270   9.034 -0.3509 -0.2633  0.5368
  104OSM   H13F10615   2.891   2.305   8.931 -2.7214  0.7550  1.2879
  104OSM   H13G10616   2.816   2.277   9.091 -0.9097 -1.7182 -0.1994
  104OSM   C14F10617   2.968   2.127   9.029  0.0257  0.4252 -0.1379
  104OSM   H14F10618   2.887   2.061   9.065 -1.4003  2.0340 -0.2887
  104OSM   H14G10619   3.047   2.128   9.107 -0.2130  0.9802  0.1041
  104OSM   C15F10620   3.040   2.098   8.892  0.2707  0.6387 -0.6761
  104OSM   H15F10621   3.134   2.154   8.876  1.1795  0.7382  3.6011
  104OSM   H15G10622   2.964   2.129   8.817  0.9124 -0.1983 -1.6967
  104OSM   C16F10623   3.063   1.950   8.874  0.3431 -0.4674  0.5352
  104OSM   H16F10624   2.985   1.902   8.938  1.4037  0.7422  2.8474
  104OSM   H16G10625   3.153   1.907   8.922 -1.0278 -3.6435  0.5525
  104OSM   C17F10626   3.058   1.902   8.720 -0.3083  0.0377  0.3428
  104OSM   H17F10627   2.965   1.948   8.679  0.1701 -1.5414 -2.8689
  104OSM   H17G10628   3.038   1.793   8.720  0.8147 -0.1867 -0.2876
  104OSM   C18F10629   3.184   1.949   8.645  0.7324  0.4656 -0.0589
  104OSM   H18F10630   3.223   2.049   8.674  1.3291  0.1130  0.3978
  104OSM   H18G10631   3.170   1.922   8.538  0.8326  0.3771 -0.0505
  104OSM   H18H10632   3.260   1.873   8.676  0.0214 -0.3645 -0.3191
  105OSM      N10633   6.480   5.713  11.149 -0.6524 -0.3397  0.3213
  105OSM    C1510634   6.584   5.807  11.212  0.2920  0.7087 -0.5218
  105OSM   H15A10635   6.555   5.853  11.305 -0.7282 -0.3957 -0.2723
  105OSM   H15B10636   6.612   5.880  11.137  1.2777 -0.4366 -1.3192
  105OSM   H15C10637   6.671   5.747  11.237 -0.6884 -0.8122 -0.6159
  105OSM    C1410638   6.469   5.585  11.232  0.1208 -0.6566 -0.2754
  105OSM   H14A10639   6.436   5.605  11.333 -1.0776 -1.6261 -0.4372
  105OSM   H14B10640   6.558   5.525  11.230  0.7814  0.3171 -0.5123
  105OSM   H14C10641   6.389   5.517  11.205 -1.2349  0.1017  1.5742
  105OSM    C1310642   6.350   5.788  11.154 -0.3682  0.1796  0.0763
  105OSM   H13A10643   6.278   5.739  11.090 -0.5201 -0.9394  1.0667
  105OSM   H13B10644   6.363   5.889  11.118 -0.8184 -0.6078 -2.5018
  105OSM   H13C10645   6.311   5.776  11.254 -0.8916 -0.4811 -0.1975
  105OSM    C1210646   6.520   5.679  11.013 -0.1613 -0.0314  0.5071
  105OSM   H12A10647   6.456   5.603  10.971 -0.3136 -0.2152  1.0672
  105OSM   H12B10648   6.622   5.646  10.999 -0.6158 -1.6238  0.7532
  105OSM    C1110649   6.486   5.797  10.911 -0.0594  0.0860  0.4636
  105OSM   H11A10650   6.378   5.822  10.911  0.0075  0.9345 -3.0271
  105OSM   H11B10651   6.504   5.763  10.806 -0.8723  1.8327 -0.2726
  105OSM      P10652   6.705   5.938  10.887 -0.1003  0.4355  0.5265
  105OSM    O1310653   6.759   6.071  10.921 -0.0374 -0.4034 -0.4648
  105OSM    O1410654   6.788   5.817  10.918 -0.2597  0.0415 -0.2009
  105OSM    O1110655   6.686   5.920  10.729  0.0406 -0.0003 -0.0833
  105OSM    O1210656   6.558   5.916  10.941 -0.0198  0.0138  0.0840
  105OSM    C1S10657   6.610   6.025  10.670  0.3208 -0.4444 -0.6490
  105OSM    H1S10658   6.667   6.119  10.689 -2.1475  0.7430  1.4278
  105OSM    H1T10659   6.506   6.041  10.704  1.2500  0.2285  2.1002
  105OSM     NF10660   6.553   6.122  10.444  0.7876 -0.1775  0.2448
  105OSM    HNF10661   6.453   6.119  10.437  0.7032 -0.5370  1.4552
  105OSM    C2S10662   6.599   6.000  10.514 -0.7296  0.1729 -0.5603
  105OSM    H2S10663   6.697   5.961  10.478 -0.3003 -0.1403  0.8957
  105OSM    C3S10664   6.510   5.874  10.485  0.6582  0.1296 -0.0315
  105OSM    H3S10665   6.406   5.894  10.519  1.3981  1.1548  1.7809
  105OSM     O310666   6.543   5.741  10.534 -0.1206 -0.3716  0.7794
  105OSM    HO310667   6.604   5.760  10.606 -0.9554  0.1060  1.3830
  105OSM    C4S10668   6.516   5.849  10.335 -0.1964  0.4253 -0.4775
  105OSM    H4S10669   6.620   5.853  10.297  0.0414  0.9746  0.2161
  105OSM    C5S10670   6.420   5.842  10.241 -0.0135 -0.6816 -0.8366
  105OSM    H5S10671   6.315   5.866  10.262  0.7572  0.6792  1.8699
  105OSM    C6S10672   6.453   5.834  10.093  0.4915  0.5034  0.3860
  105OSM    H6S10673   6.379   5.767  10.044 -0.0803  2.1260 -1.0722
  105OSM    H6T10674   6.558   5.805  10.071 -0.3780 -2.1742 -0.7027
  105OSM    C7S10675   6.434   5.971  10.023 -0.7511 -0.7091  0.1009
  105OSM    H7S10676   6.507   6.042  10.068 -0.7923 -0.4065 -0.3025
  105OSM    H7T10677   6.336   6.020  10.046 -1.0365  0.1029 -2.5144
  105OSM    C8S10678   6.432   5.975   9.870 -1.0107  0.3580 -0.7540
  105OSM    H8S10679   6.519   5.926   9.823 -2.8172  0.1110 -4.1290
  105OSM    H8T10680   6.433   6.082   9.839 -2.3925  0.0483 -1.9514
  105OSM    C9S10681   6.297   5.916   9.812  0.4106 -0.6948 -0.6989
  105OSM    H9S10682   6.212   5.948   9.876  0.1869 -1.9930 -0.3086
  105OSM    H9T10683   6.298   5.805   9.810  3.8483 -0.8191  0.8631
  105OSM   C10S10684   6.289   5.975   9.666  0.2886 -1.4395 -0.6177
  105OSM   H10S10685   6.380   5.947   9.609  0.0221 -0.5085 -1.5115
  105OSM   H10T10686   6.281   6.085   9.679  0.8377 -1.3076 -1.3453
  105OSM   C11S10687   6.170   5.912   9.595 -0.4695 -0.7704  0.3769
  105OSM   H11S10688   6.073   5.924   9.647 -0.4742 -1.9105  0.6637
  105OSM   H11T10689   6.189   5.803   9.589  0.4344 -0.5679 -0.9736
  105OSM   C12S10690   6.145   5.952   9.448  0.0155 -0.0589 -0.6611
  105OSM   H12S10691   6.127   6.062   9.439 -0.0598 -0.0227 -0.0835
  105OSM   H12T10692   6.054   5.899   9.414  0.0055 -0.9541  0.6852
  105OSM   C13S10693   6.260   5.913   9.356 -0.1304  0.2095  0.0269
  105OSM   H13S10694   6.294   5.809   9.375  1.4601  0.3169 -1.9590
  105OSM   H13T10695   6.349   5.977   9.372 -0.8412  0.6462  2.6693
  105OSM   C14S10696   6.218   5.920   9.209  0.7359  0.5787  0.5032
  105OSM   H14S10697   6.127   5.861   9.183  0.7909  0.3645  0.7864
  105OSM   H14T10698   6.294   5.865   9.150  2.1507  1.0785  1.8004
  105OSM   C15S10699   6.216   6.056   9.149  0.1408  0.1208  0.6924
  105OSM   H15S10700   6.321   6.090   9.152 -0.0359  1.0605 -1.4617
  105OSM   H15T10701   6.157   6.115   9.223 -3.0576  0.6852 -2.0384
  105OSM   C16S10702   6.143   6.069   9.011 -0.1442  0.5448  0.7411
  105OSM   H16S10703   6.142   6.177   8.983 -0.2426  0.4142  0.2363
  105OSM   H16T10704   6.033   6.054   9.020 -0.6096  2.8955 -0.3005
  105OSM   C17S10705   6.195   5.975   8.899 -1.0347 -0.5020  0.1402
  105OSM   H17S10706   6.198   5.871   8.939 -0.4413  0.2924  2.3081
  105OSM   H17T10707   6.301   6.004   8.883 -1.0273 -1.5197 -1.9830
  105OSM   C18S10708   6.104   5.979   8.779  0.1912 -0.1518 -0.0140
  105OSM   H18S10709   6.067   6.083   8.763  2.0288  0.7376  1.1523
  105OSM   H18T10710   6.017   5.913   8.801  0.7088 -0.2769  1.8166
  105OSM   H18U10711   6.147   5.942   8.683 -0.8112 -0.0372 -0.5191
  105OSM    C1F10712   6.633   6.223  10.415 -0.4264 -0.4420 -0.3772
  105OSM     OF10713   6.755   6.211  10.430  0.4621  0.2343 -0.3369
  105OSM    C2F10714   6.578   6.345  10.358 -0.2464 -0.1333  0.4227
  105OSM    H2F10715   6.600   6.429  10.427  1.6544  2.3982 -2.9307
  105OSM    H2G10716   6.468   6.325  10.355 -0.1817 -0.4826  0.3954
  105OSM    C3F10717   6.628   6.384  10.214  0.2856  0.1482 -0.1437
  105OSM    H3F10718   6.597   6.310  10.137  0.8880 -1.6067  1.2500
  105OSM    H3G10719   6.739   6.396  10.210  0.2386  1.4519  1.4589
  105OSM    C4F10720   6.556   6.512  10.168  0.1020 -0.4337  0.7284
  105OSM    H4F10721   6.597   6.600  10.221 -2.3638  2.0207 -1.1764
  105OSM    H4G10722   6.447   6.506  10.186 -0.2944  0.9616 -1.0068
  105OSM    C5F10723   6.581   6.539  10.021  0.2511 -0.1698  0.3189
  105OSM    H5F10724   6.682   6.497  10.001  1.3836  3.2293 -1.9810
  105OSM    H5G10725   6.596   6.648  10.011  1.1662 -0.3262 -0.1962
  105OSM    C6F10726   6.483   6.493   9.919  0.7005  1.2663  0.0096
  105OSM    H6F10727   6.383   6.538   9.939  1.2096  1.5455  2.1795
  105OSM    H6G10728   6.465   6.384   9.920  0.7614  1.2540 -0.2054
  105OSM    C7F10729   6.532   6.530   9.777 -0.3400  0.6927 -0.4713
  105OSM    H7F10730   6.627   6.478   9.756 -1.4693 -2.5056  1.5543
  105OSM    H7G10731   6.562   6.636   9.783  0.4293  0.3935  1.6625
  105OSM    C8F10732   6.428   6.509   9.669  0.3227 -1.4048 -0.3707
  105OSM    H8F10733   6.462   6.564   9.579  0.5962  1.0748  1.1447
  105OSM    H8G10734   6.333   6.555   9.704 -0.5630 -2.0811 -1.8010
  105OSM    C9F10735   6.397   6.372   9.625  0.1645 -0.4353  0.0747
  105OSM    H9F10736   6.353   6.302   9.697 -0.4256  2.1837  2.4336
  105OSM   C10F10737   6.421   6.315   9.508  0.2845  0.6914  0.2856
  105OSM   H10F10738   6.384   6.215   9.478  2.8796  0.2864 -2.0405
  105OSM   C11F10739   6.488   6.386   9.388  0.8810 -0.3231 -0.6509
  105OSM   H11F10740   6.594   6.355   9.391  0.6408 -1.3223 -1.6952
  105OSM   H11G10741   6.493   6.496   9.402  1.2353 -0.5622  1.3926
  105OSM   C12F10742   6.433   6.344   9.250 -0.7343  0.2179 -0.4951
  105OSM   H12F10743   6.335   6.395   9.237 -1.9452 -0.9875  2.8322
  105OSM   H12G10744   6.415   6.235   9.261 -0.7438  0.3243  0.7172
  105OSM   C13F10745   6.537   6.372   9.142  0.0167 -0.3422  0.7057
  105OSM   H13F10746   6.505   6.319   9.050 -0.7192  1.4767 -0.1432
  105OSM   H13G10747   6.644   6.345   9.157 -0.0389 -0.5164  0.7855
  105OSM   C14F10748   6.541   6.525   9.097 -0.7079  0.9075 -0.1237
  105OSM   H14F10749   6.562   6.587   9.188 -0.1096  1.6996 -0.7832
  105OSM   H14G10750   6.447   6.566   9.055 -1.9409  1.4063  2.8386
  105OSM   C15F10751   6.651   6.551   8.994  0.3755 -0.6632  0.1049
  105OSM   H15F10752   6.748   6.497   9.002  1.9535  1.5421 -2.3534
  105OSM   H15G10753   6.668   6.661   9.003  0.9315 -0.6231 -1.2845
  105OSM   C16F10754   6.595   6.520   8.853 -0.4336 -0.1650  0.4312
  105OSM   H16F10755   6.500   6.576   8.840 -1.0645 -1.1260  0.8732
  105OSM   H16G10756   6.566   6.414   8.842  0.4445 -0.3826  0.1661
  105OSM   C17F10757   6.679   6.558   8.730  0.2414  0.3872 -0.2699
  105OSM   H17F10758   6.619   6.532   8.640  0.9495  0.3451 -0.7323
  105OSM   H17G10759   6.764   6.487   8.727 -0.1035 -0.0934  0.7386
  105OSM   C18F10760   6.727   6.699   8.723  0.4718  0.8316  0.3144
  105OSM   H18F10761   6.815   6.721   8.786  1.0783  3.1278 -1.2321
  105OSM   H18G10762   6.636   6.756   8.751 -1.4825 -0.7229 -2.3991
  105OSM   H18H10763   6.749   6.733   8.620  0.8361  0.1386  0.1546
  106OSM      N10764   6.148   3.328  10.735  0.3290  0.2354  0.2703
  106OSM    C1510765   6.294   3.315  10.752  0.2295  0.4030  0.2826
  106OSM   H15A10766   6.317   3.304  10.857 -1.5890  1.2899  0.8201
  106OSM   H15B10767   6.338   3.403  10.709 -1.0129  0.1405 -1.6544
  106OSM   H15C10768   6.326   3.231  10.693  0.1842  1.7243 -1.7321
  106OSM    C1410769   6.080   3.215  10.806 -1.2128 -0.8271 -0.1768
  106OSM   H14A10770   5.975   3.208  10.781 -1.1364  0.3555 -0.8865
  106OSM   H14B10771   6.086   3.239  10.911  2.9244  1.3391 -0.7144
  106OSM   H14C10772   6.129   3.123  10.781 -2.0366 -1.5100  0.6171
  106OSM    C1310773   6.094   3.453  10.793 -0.2420  0.0200 -0.7357
  106OSM   H13A10774   6.106   3.454  10.900 -1.6619 -3.2598 -0.4128
  106OSM   H13B10775   5.988   3.469  10.776 -0.9552  0.6344  3.3067
  106OSM   H13C10776   6.145   3.540  10.755 -0.2045 -0.2811 -1.3868
  106OSM    C1210777   6.124   3.319  10.581  0.0077 -0.2183 -0.7465
  106OSM   H12A10778   6.166   3.227  10.542  1.7293 -0.6054  1.7757
  106OSM   H12B10779   6.180   3.405  10.548 -0.2603  0.7914  1.2790
  106OSM    C1110780   5.983   3.350  10.519 -0.5000 -0.4188 -0.1001
  106OSM   H11A10781   5.989   3.352  10.408  1.8597  1.8847 -0.0503
  106OSM   H11B10782   5.964   3.456  10.548 -0.1003 -0.1893 -0.6448
  106OSM      P10783   5.742   3.282  10.556 -0.0979  0.4867 -0.1869
  106OSM    O1310784   5.663   3.178  10.629  0.8716  0.2616  0.3638
  106OSM    O1410785   5.706   3.423  10.585 -1.0411  0.0198 -0.3230
  106OSM    O1110786   5.729   3.257  10.401 -0.0030  0.1388 -0.9159
  106OSM    O1210787   5.885   3.258  10.575 -0.7453 -0.2847  0.1676
  106OSM    C1S10788   5.603   3.297  10.343 -0.0096 -0.1574 -0.2685
  106OSM    H1S10789   5.607   3.408  10.343 -0.0608 -0.1562 -0.4930
  106OSM    H1T10790   5.522   3.250  10.402  0.8283 -2.0650 -0.5675
  106OSM     NF10791   5.468   3.290  10.132 -0.1183  0.0035 -0.0209
  106OSM    HNF10792   5.406   3.214  10.111  1.3136 -1.2884  0.2338
  106OSM    C2S10793   5.590   3.246  10.192  0.5654 -0.1372 -0.3708
  106OSM    H2S10794   5.672   3.290  10.131 -0.2206  0.6328 -0.8850
  106OSM    C3S10795   5.609   3.097  10.175  0.5116  0.9544 -0.4728
  106OSM    H3S10796   5.527   3.051  10.235  0.4027 -0.4431 -1.6406
  106OSM     O310797   5.726   3.049  10.233  0.6742 -0.4475  0.3837
  106OSM    HO310798   5.728   3.121  10.296  1.7460  1.4245 -1.6581
  106OSM    C4S10799   5.591   3.044  10.034  0.2692 -0.8172 -0.0819
  106OSM    H4S10800   5.679   3.073   9.974  1.4327 -0.8836  1.5065
  106OSM    C5S10801   5.482   2.987   9.974  0.3500  1.0093  0.1484
  106OSM    H5S10802   5.381   2.985  10.016  0.7407  0.1761  1.0648
  106OSM    C6S10803   5.489   2.952   9.827 -1.1054 -0.7227  0.2979
  106OSM    H6S10804   5.400   2.999   9.781 -0.9101 -0.9709 -0.3349
  106OSM    H6T10805   5.473   2.844   9.808 -0.3918 -0.6613 -0.6803
  106OSM    C7S10806   5.616   2.975   9.735  1.3140  0.4921  0.3272
  106OSM    H7S10807   5.704   2.918   9.773  0.3248 -1.1761  0.2325
  106OSM    H7T10808   5.636   3.084   9.733  1.2579  0.5066 -1.0879
  106OSM    C8S10809   5.583   2.923   9.593 -0.5355  0.2613  0.1016
  106OSM    H8S10810   5.502   2.978   9.541  1.0642  2.0031 -0.6659
  106OSM    H8T10811   5.556   2.815   9.599  1.5256 -0.3322 -0.3935
  106OSM    C9S10812   5.715   2.920   9.506  0.3501 -0.0950  0.0357
  106OSM    H9S10813   5.811   2.879   9.543  0.0066 -1.2974 -0.3777
  106OSM    H9T10814   5.726   3.030   9.497 -0.2755  0.0852  1.2722
  106OSM   C10S10815   5.694   2.865   9.370 -0.2404  0.6303 -0.1983
  106OSM   H10S10816   5.766   2.916   9.303 -0.3601  1.8252  0.5633
  106OSM   H10T10817   5.599   2.897   9.321  0.5422  1.5680 -1.1435
  106OSM   C11S10818   5.695   2.713   9.358  0.0350 -0.6793 -0.3169
  106OSM   H11S10819   5.625   2.672   9.434 -1.0300  0.4929 -0.6164
  106OSM   H11T10820   5.800   2.678   9.364  0.6181  0.9860 -0.4473
  106OSM   C12S10821   5.627   2.668   9.227 -0.3221 -0.5063  0.2255
  106OSM   H12S10822   5.656   2.562   9.215  0.6365 -0.1704 -0.5454
  106OSM   H12T10823   5.668   2.729   9.143  0.9811  1.7906  2.3739
  106OSM   C13S10824   5.476   2.682   9.216 -0.2732  0.3851  0.4545
  106OSM   H13S10825   5.445   2.789   9.214  0.3728  0.5604 -0.4646
  106OSM   H13T10826   5.431   2.626   9.301  0.8160 -0.3346  0.5845
  106OSM   C14S10827   5.432   2.597   9.090 -0.1679  0.0790 -0.0413
  106OSM   H14S10828   5.436   2.493   9.128  2.1739  0.2872  0.4214
  106OSM   H14T10829   5.505   2.616   9.009  0.8135  0.4807  0.9013
  106OSM   C15S10830   5.288   2.630   9.054 -0.2982 -0.1221  0.9344
  106OSM   H15S10831   5.287   2.730   9.006  1.4884  0.0102  1.1283
  106OSM   H15T10832   5.231   2.643   9.149  0.8769 -1.3020  1.8306
  106OSM   C16S10833   5.211   2.534   8.956 -0.0550 -0.1705  0.5507
  106OSM   H16S10834   5.107   2.565   8.932  0.4579  2.3718  1.2885
  106OSM   H16T10835   5.183   2.443   9.014 -2.8439  0.5471  0.5018
  106OSM   C17S10836   5.283   2.490   8.830  0.1941 -0.9723 -0.9797
  106OSM   H17S10837   5.375   2.439   8.863  1.0715  0.9433 -0.3099
  106OSM   H17T10838   5.312   2.581   8.773  0.3480 -0.7086 -0.4909
  106OSM   C18S10839   5.207   2.393   8.736 -0.6751 -0.6520  0.0855
  106OSM   H18S10840   5.143   2.329   8.801 -2.4659  1.3694  0.4633
  106OSM   H18T10841   5.280   2.346   8.667 -0.7946 -2.5058  1.1672
  106OSM   H18U10842   5.139   2.455   8.673 -0.8471 -2.1089 -1.2040
  106OSM    C1F10843   5.442   3.417  10.104  0.2513  0.1971  0.2550
  106OSM     OF10844   5.524   3.505  10.110  0.1891  0.2368  0.3625
  106OSM    C2F10845   5.306   3.445  10.054 -0.0246 -0.1671  0.2889
  106OSM    H2F10846   5.254   3.524  10.112 -0.1967  0.4042 -0.6275
  106OSM    H2G10847   5.246   3.353  10.072 -0.8911  0.4329  0.4733
  106OSM    C3F10848   5.296   3.470   9.901 -0.2623 -0.4013  1.1476
  106OSM    H3F10849   5.359   3.556   9.870 -1.8839  0.4297 -0.0025
  106OSM    H3G10850   5.190   3.499   9.884  0.0460  0.8408  1.2243
  106OSM    C4F10851   5.333   3.349   9.811  0.4829 -0.1105 -0.0318
  106OSM    H4F10852   5.263   3.267   9.840 -0.9649  1.7811  2.1924
  106OSM    H4G10853   5.437   3.319   9.833  0.2856 -0.0804  0.9985
  106OSM    C5F10854   5.309   3.374   9.660 -0.1568  0.1936  0.2966
  106OSM    H5F10855   5.379   3.456   9.631 -1.4855  1.5564  0.8148
  106OSM    H5G10856   5.207   3.417   9.649  0.3924  1.8320  1.2098
  106OSM    C6F10857   5.328   3.258   9.567 -0.4283 -0.0710 -0.1888
  106OSM    H6F10858   5.278   3.173   9.618 -1.3660  0.5645 -0.0322
  106OSM    H6G10859   5.439   3.246   9.560 -0.4879 -0.0204 -1.3624
  106OSM    C7F10860   5.262   3.268   9.430 -0.1509  0.0913  0.2854
  106OSM    H7F10861   5.311   3.355   9.382  0.3646 -0.7683 -0.7936
  106OSM    H7G10862   5.152   3.262   9.444 -0.2171  1.5729  0.4840
  106OSM    C8F10863   5.292   3.154   9.339  0.3784  0.3696 -0.5528
  106OSM    H8F10864   5.401   3.151   9.319  0.1558 -2.6288 -1.8066
  106OSM    H8G10865   5.238   3.171   9.243  1.3592 -1.2040 -1.4151
  106OSM    C9F10866   5.244   3.014   9.392  0.2748 -0.6143 -0.2346
  106OSM    H9F10867   5.317   2.954   9.448  1.6351  1.1585  0.0032
  106OSM   C10F10868   5.118   2.954   9.380  0.3936  0.1961  0.0141
  106OSM   H10F10869   5.108   2.862   9.438  1.3424 -1.5065 -2.3516
  106OSM   C11F10870   5.001   3.012   9.309 -0.1055  0.2512 -0.5148
  106OSM   H11F10871   5.032   3.110   9.268 -0.6890 -0.1329 -1.9165
  106OSM   H11G10872   4.920   3.037   9.381 -2.9771  2.1290 -4.0850
  106OSM   C12F10873   4.947   2.926   9.192  0.1528  0.6724 -0.0300
  106OSM   H12F10874   4.842   2.958   9.179  0.1059  1.5745  2.0857
  106OSM   H12G10875   4.954   2.816   9.204 -1.0407  0.5071 -0.7130
  106OSM   C13F10876   5.024   2.950   9.057 -0.4684  0.0817 -0.8111
  106OSM   H13F10877   5.127   2.912   9.068  0.2587  1.9569 -0.6812
  106OSM   H13G10878   5.035   3.059   9.039  0.0650  0.4890  1.6345
  106OSM   C14F10879   4.963   2.890   8.939 -0.1757  0.6033 -0.3396
  106OSM   H14F10880   4.957   2.779   8.943 -0.4886  0.6375  0.6139
  106OSM   H14G10881   5.023   2.914   8.849 -0.5106 -1.3132 -1.1189
  106OSM   C15F10882   4.821   2.936   8.901 -0.1878  0.1331  0.4286
  106OSM   H15F10883   4.819   3.045   8.880  1.4942 -0.2675 -2.1910
  106OSM   H15G10884   4.748   2.929   8.986  0.1726  0.1119  0.7381
  106OSM   C16F10885   4.766   2.871   8.766  0.3937  0.0083  0.6228
  106OSM   H16F10886   4.685   2.938   8.729  0.2611  0.9562  2.5153
  106OSM   H16G10887   4.719   2.773   8.789  1.8615 -0.5495  1.3676
  106OSM   C17F10888   4.875   2.864   8.652  0.1824  0.4449 -0.1297
  106OSM   H17F10889   4.952   2.794   8.692  0.1672 -0.3796 -1.4878
  106OSM   H17G10890   4.932   2.959   8.642  1.2646 -0.0745  0.7707
  106OSM   C18F10891   4.813   2.813   8.523 -0.2080  0.0703 -0.4219
  106OSM   H18F10892   4.739   2.883   8.480 -2.2139 -1.6240  0.0920
  106OSM   H18G10893   4.770   2.713   8.547 -3.0490  1.1926 -0.3772
  106OSM   H18H10894   4.898   2.812   8.452  0.8959  0.5250  0.8546
  107OSM      N10895   1.815   0.326  10.909 -0.3254  0.3504  0.1550
  107OSM    C1510896   1.735   0.252  10.811 -0.3472  0.2113 -0.6128
  107OSM   H15A10897   1.631   0.267  10.837  0.1934  2.7257  0.4168
  107OSM   H15B10898   1.752   0.145  10.816 -0.4770  0.2035 -0.2831
  107OSM   H15C10899   1.760   0.282  10.710 -0.0454 -0.2882 -0.6918
  107OSM    C1410900   1.761   0.295  11.045 -0.4440 -0.0699 -0.0127
  107OSM   H14A10901   1.754   0.189  11.062  0.4430 -0.3546 -1.2946
  107OSM   H14B10902   1.661   0.333  11.059 -1.1459 -0.9807 -2.2528
  107OSM   H14C10903   1.822   0.347  11.119 -0.8162 -1.0153  0.9842
  107OSM    C1310904   1.957   0.270  10.905  0.4050 -0.1283 -0.3233
  107OSM   H13A10905   1.959   0.162  10.908  0.4175 -0.2648 -3.0165
  107OSM   H13B10906   2.016   0.318  10.981  0.9267  1.1990 -1.5172
  107OSM   H13C10907   2.003   0.299  10.811 -0.2880  0.6219 -0.4391
  107OSM    C1210908   1.813   0.473  10.880 -0.0697 -0.7020  0.0672
  107OSM   H12A10909   1.890   0.527  10.932 -1.3579 -1.2563  2.7356
  107OSM   H12B10910   1.724   0.523  10.917  0.3372 -0.3534  0.5982
  107OSM    C1110911   1.812   0.511  10.731 -0.8635 -0.5099  0.4364
  107OSM   H11A10912   1.812   0.622  10.722  0.4302 -0.5646 -0.5302
  107OSM   H11B10913   1.724   0.482  10.670 -0.5113 -2.4081  0.7706
  107OSM      P10914   2.072   0.536  10.679 -0.2009 -0.1984 -0.3218
  107OSM    O1310915   2.062   0.665  10.758 -0.1634 -0.0977  0.1662
  107OSM    O1410916   2.173   0.445  10.740 -0.0229 -0.1859  0.8236
  107OSM    O1110917   2.126   0.564  10.533 -0.3450  0.1247  0.4157
  107OSM    O1210918   1.931   0.460  10.664  0.3315 -0.6743 -0.2308
  107OSM    C1S10919   2.034   0.618  10.436 -0.9182 -0.6189  0.5826
  107OSM    H1S10920   2.007   0.722  10.466  0.5289 -0.3474  0.9937
  107OSM    H1T10921   1.937   0.564  10.425 -1.1803  0.0126 -0.4941
  107OSM     NF10922   1.972   0.663  10.210 -0.8028  0.0289 -0.8923
  107OSM    HNF10923   1.928   0.587  10.163 -1.6624  1.2622 -2.1429
  107OSM    C2S10924   2.089   0.627  10.291  0.9526  0.3159 -0.5758
  107OSM    H2S10925   2.166   0.707  10.288  1.5509 -0.1972 -4.1687
  107OSM    C3S10926   2.159   0.497  10.255 -0.5123  0.3977 -0.0018
  107OSM    H3S10927   2.081   0.419  10.265 -0.3046  0.0399 -1.0333
  107OSM     O310928   2.270   0.452  10.333  0.6833  0.1561  0.5641
  107OSM    HO310929   2.255   0.485  10.422 -0.0161 -1.0195  0.9120
  107OSM    C4S10930   2.198   0.500  10.115 -0.3171 -0.0909 -0.3792
  107OSM    H4S10931   2.277   0.575  10.100 -0.0661 -0.2729  0.0266
  107OSM    C5S10932   2.159   0.418  10.010 -0.4896  0.7701 -0.3303
  107OSM    H5S10933   2.087   0.336  10.023  0.9727 -0.2024  2.8225
  107OSM    C6S10934   2.211   0.426   9.869 -1.1222 -0.0412 -0.7093
  107OSM    H6S10935   2.291   0.349   9.862  0.0700  0.9773  0.7812
  107OSM    H6T10936   2.266   0.520   9.843 -1.1591  0.2725  0.3019
  107OSM    C7S10937   2.109   0.400   9.752 -0.9111  0.1444 -0.4145
  107OSM    H7S10938   2.009   0.447   9.767 -0.9980 -0.4663  1.0736
  107OSM    H7T10939   2.085   0.292   9.754  2.9790 -0.8379  0.2734
  107OSM    C8S10940   2.163   0.419   9.613 -0.8193 -0.0151  0.1323
  107OSM    H8S10941   2.086   0.377   9.546 -0.2763 -1.6630  0.5023
  107OSM    H8T10942   2.248   0.347   9.616  1.3011  2.3621  2.6901
  107OSM    C9S10943   2.213   0.554   9.566 -0.5011  0.0906  0.2857
  107OSM    H9S10944   2.297   0.591   9.629  0.3539  0.7058 -1.1557
  107OSM    H9T10945   2.136   0.634   9.575 -1.6613 -1.0065  0.3863
  107OSM   C10S10946   2.265   0.533   9.425 -0.9991 -1.2696  0.2013
  107OSM   H10S10947   2.194   0.476   9.362 -2.6286  3.1548 -2.3689
  107OSM   H10T10948   2.353   0.465   9.428  0.8433  0.6635 -3.5123
  107OSM   C11S10949   2.297   0.669   9.357 -0.1256  0.1873  0.1243
  107OSM   H11S10950   2.386   0.711   9.408  0.5245  0.9422 -1.5676
  107OSM   H11T10951   2.217   0.745   9.361  0.8626  1.3066 -0.7250
  107OSM   C12S10952   2.347   0.664   9.217  0.5409  0.1491 -0.3128
  107OSM   H12S10953   2.415   0.577   9.208  0.2490  0.0562 -1.8064
  107OSM   H12T10954   2.407   0.755   9.196 -2.1456  1.7575 -1.6136
  107OSM   C13S10955   2.236   0.651   9.106  0.5303  0.4695  0.0150
  107OSM   H13S10956   2.181   0.747   9.112 -0.7490 -0.1557 -1.1667
  107OSM   H13T10957   2.156   0.581   9.139  1.7480 -0.7044  0.5659
  107OSM   C14S10958   2.287   0.599   8.978 -0.6592  0.2408  0.9901
  107OSM   H14S10959   2.314   0.492   8.980 -0.6706  0.1864 -0.4402
  107OSM   H14T10960   2.383   0.648   8.951 -0.6017 -1.6625 -2.9995
  107OSM   C15S10961   2.196   0.618   8.861  0.0654 -0.0236 -0.3106
  107OSM   H15S10962   2.199   0.716   8.809  0.2362  0.5139  0.6780
  107OSM   H15T10963   2.097   0.636   8.907  0.3781 -0.3659  0.5213
  107OSM   C16S10964   2.195   0.509   8.751 -0.8804  0.7893  0.1273
  107OSM   H16S10965   2.203   0.412   8.805  1.1714 -0.1120 -1.6313
  107OSM   H16T10966   2.298   0.515   8.709 -0.3582  0.7580  1.3652
  107OSM   C17S10967   2.078   0.530   8.660  0.4142 -0.5056  0.5195
  107OSM   H17S10968   2.074   0.637   8.630  0.4558 -0.2219  1.5030
  107OSM   H17T10969   1.984   0.519   8.719  0.9385 -2.3945  1.0863
  107OSM   C18S10970   2.070   0.438   8.541 -0.6435 -0.5094 -0.3036
  107OSM   H18S10971   2.084   0.334   8.576  3.7874 -0.5279 -1.5717
  107OSM   H18T10972   2.165   0.450   8.485 -0.1047  2.4052  1.0189
  107OSM   H18U10973   1.984   0.464   8.475 -0.9202 -0.9926 -0.1438
  107OSM    C1F10974   1.927   0.787  10.201 -0.2773 -0.0103 -0.7746
  107OSM     OF10975   2.004   0.879  10.224 -0.2536  0.0847  0.2950
  107OSM    C2F10976   1.783   0.809  10.162  0.9290 -0.0731 -0.2169
  107OSM    H2F10977   1.730   0.872  10.238  1.4667  0.6689 -0.4449
  107OSM    H2G10978   1.735   0.709  10.168 -0.0329  0.2290 -2.2810
  107OSM    C3F10979   1.771   0.863  10.019  0.5090  0.5814  0.4033
  107OSM    H3F10980   1.835   0.952  10.002 -0.1900  0.9649 -0.2989
  107OSM    H3G10981   1.670   0.908  10.021  0.4786  0.4850  2.0204
  107OSM    C4F10982   1.802   0.757   9.906 -0.0602  0.1092  0.9977
  107OSM    H4F10983   1.723   0.680   9.898  0.2514 -0.1076 -0.2378
  107OSM    H4G10984   1.897   0.704   9.927  0.8428  1.5426  0.7221
  107OSM    C5F10985   1.815   0.817   9.764 -0.1551 -0.5869  0.0266
  107OSM    H5F10986   1.896   0.892   9.774  0.5879 -1.3311 -0.3045
  107OSM    H5G10987   1.725   0.882   9.759  0.1786 -0.1956 -1.2819
  107OSM    C6F10988   1.857   0.728   9.644 -0.0227  0.2392 -0.8194
  107OSM    H6F10989   1.790   0.639   9.644  0.6941 -0.3125 -1.4758
  107OSM    H6G10990   1.955   0.677   9.653 -0.8442 -1.1600  0.7708
  107OSM    C7F10991   1.854   0.804   9.511 -0.1711 -0.8405 -0.0068
  107OSM    H7F10992   1.917   0.892   9.533 -3.5216  1.3425  1.7510
  107OSM    H7G10993   1.754   0.850   9.495 -0.4061 -0.8837  1.2369
  107OSM    C8F10994   1.896   0.727   9.384 -1.1098  0.3737  0.7681
  107OSM    H8F10995   2.007   0.725   9.390 -0.9892 -1.3495 -1.0328
  107OSM    H8G10996   1.878   0.801   9.304  0.0475 -0.0996  0.0393
  107OSM    C9F10997   1.832   0.590   9.364 -0.0898  0.6929 -0.4059
  107OSM    H9F10998   1.818   0.535   9.459  0.7410  1.2029  0.0226
  107OSM   C10F10999   1.789   0.538   9.244 -0.0984 -0.4939 -0.8031
  107OSM   H10F11000   1.760   0.432   9.233  1.0428 -0.8865 -0.2041
  107OSM   C11F11001   1.805   0.609   9.114  0.6720  0.7170  0.1083
  107OSM   H11F11002   1.841   0.538   9.036  1.8622 -0.2794  1.5010
  107OSM   H11G11003   1.882   0.689   9.112  0.7365  0.6684  0.5478
  107OSM   C12F11004   1.674   0.669   9.046  0.0510  0.0494  0.3029
  107OSM   H12F11005   1.642   0.760   9.102 -0.1732  0.2649 -0.1732
  107OSM   H12G11006   1.593   0.595   9.065 -0.6664  0.0317 -2.4873
  107OSM   C13F11007   1.696   0.688   8.898  0.3545  0.2322  0.2113
  107OSM   H13F11008   1.690   0.587   8.852 -0.3638 -0.9020  2.6469
  107OSM   H13G11009   1.798   0.731   8.882  0.6141  0.0947  1.4189
  107OSM   C14F11010   1.591   0.780   8.831  0.8627  0.3063  0.4100
  107OSM   H14F11011   1.623   0.882   8.859  1.1665 -0.0910  1.5708
  107OSM   H14G11012   1.489   0.757   8.868 -0.1765  2.3976 -0.9432
  107OSM   C15F11013   1.592   0.760   8.682  0.5482 -0.5671  0.5466
  107OSM   H15F11014   1.697   0.747   8.648 -0.6749 -1.8460 -3.2280
  107OSM   H15G11015   1.556   0.858   8.643  1.3974 -0.4521  0.0086
  107OSM   C16F11016   1.494   0.650   8.630  0.3440 -0.6301  0.1780
  107OSM   H16F11017   1.415   0.643   8.707 -0.7020  0.8778 -0.7107
  107OSM   H16G11018   1.562   0.562   8.632 -2.1254 -2.6416 -0.5138
  107OSM   C17F11019   1.448   0.682   8.487  0.6705  0.0404 -0.3989
  107OSM   H17F11020   1.396   0.781   8.488 -0.6337 -0.6243  1.1019
  107OSM   H17G11021   1.386   0.594   8.461  0.8949 -0.9707  2.1781
  107OSM   C18F11022   1.568   0.682   8.390 -0.0415  0.6253 -0.0291
  107OSM   H18F11023   1.612   0.782   8.413 -1.1243  1.0932  0.0865
  107OSM   H18G11024   1.534   0.672   8.285  0.2848 -1.8100  0.0496
  107OSM   H18H11025   1.640   0.598   8.401 -2.7547 -1.9544 -0.9464
  108OSM      N11026   4.247   3.623  10.947 -0.4252 -0.4539  0.0991
  108OSM    C1511027   4.178   3.663  11.075 -0.4959  0.1197  0.4613
  108OSM   H15A11028   4.076   3.696  11.066  0.3193  2.4679 -1.2981
  108OSM   H15B11029   4.231   3.746  11.120  0.1488  0.9033 -1.6513
  108OSM   H15C11030   4.174   3.577  11.140  2.9918 -0.7563 -0.2755
  108OSM    C1411031   4.390   3.604  10.970 -0.4808 -0.5613 -0.2265
  108OSM   H14A11032   4.447   3.696  10.977 -1.9339  0.5869 -2.2642
  108OSM   H14B11033   4.439   3.551  10.890  2.4980 -1.2343  1.8752
  108OSM   H14C11034   4.416   3.549  11.059 -1.5191  0.8314  0.9895
  108OSM    C1311035   4.180   3.485  10.904  0.1834 -0.1946 -0.6968
  108OSM   H13A11036   4.081   3.512  10.871 -0.4187  0.6360  1.6013
  108OSM   H13B11037   4.186   3.418  10.988  1.8251 -0.0091 -0.6305
  108OSM   H13C11038   4.237   3.446  10.821  1.4557  0.3197 -0.0923
  108OSM    C1211039   4.227   3.722  10.834 -0.4569  0.0733  0.6941
  108OSM   H12A11040   4.122   3.730  10.810 -0.2886 -0.2621 -0.1813
  108OSM   H12B11041   4.263   3.672  10.746  0.7844  1.9597  0.0695
  108OSM    C1111042   4.295   3.864  10.847  0.3290  0.1465  0.1633
  108OSM   H11A11043   4.277   3.914  10.944 -0.5510  0.0951  0.0334
  108OSM   H11B11044   4.252   3.926  10.765  1.1868  1.6608  0.8168
  108OSM      P11045   4.505   3.833  10.697  0.3118  0.2204 -0.1719
  108OSM    O1311046   4.600   3.942  10.691  0.1123  0.5623  0.4046
  108OSM    O1411047   4.555   3.694  10.683  0.6591  0.2368 -0.0341
  108OSM    O1111048   4.402   3.864  10.579  0.5365 -0.5172 -0.2101
  108OSM    O1211049   4.434   3.849  10.835 -0.1590  0.0623  0.0276
  108OSM    C1S11050   4.437   3.842  10.446  0.5826 -0.3008  0.2962
  108OSM    H1S11051   4.508   3.758  10.427  1.7177  0.5719  0.5882
  108OSM    H1T11052   4.486   3.930  10.400 -1.7663  1.6373  1.2886
  108OSM     NF11053   4.343   3.768  10.232 -0.0439  0.5183 -0.9870
  108OSM    HNF11054   4.339   3.818  10.145  1.0812 -3.2582 -3.4588
  108OSM    C2S11055   4.311   3.828  10.361 -0.4096 -0.1228 -0.2932
  108OSM    H2S11056   4.237   3.755  10.400  0.5936 -1.2352 -0.4255
  108OSM    C3S11057   4.241   3.964  10.360  0.0126 -0.5511 -0.6461
  108OSM    H3S11058   4.305   4.034  10.303  0.0246 -1.7204 -2.1198
  108OSM     O311059   4.212   4.027  10.486 -0.3560  0.4103 -0.2476
  108OSM    HO311060   4.258   3.963  10.541 -1.4100 -1.4622 -1.4251
  108OSM    C4S11061   4.113   3.954  10.285 -0.6854  0.4372 -0.3731
  108OSM    H4S11062   4.054   3.864  10.308  1.3250 -1.1474 -1.0757
  108OSM    C5S11063   4.071   4.040  10.192 -0.5200  0.2528 -0.4761
  108OSM    H5S11064   4.136   4.120  10.154 -1.7357  1.0899 -0.8656
  108OSM    C6S11065   3.949   4.044  10.103 -0.5474  0.3235 -0.9393
  108OSM    H6S11066   3.968   4.112  10.018  0.3952  0.8391 -0.3399
  108OSM    H6T11067   3.866   4.096  10.156  0.5955  2.9921 -1.6196
  108OSM    C7S11068   3.892   3.903  10.063  0.3713 -0.8578  0.4100
  108OSM    H7S11069   3.861   3.846  10.153  3.0768 -0.5155  1.6361
  108OSM    H7T11070   3.970   3.837  10.019  1.6660  0.0545  1.2886
  108OSM    C8S11071   3.789   3.919   9.946  0.2643  0.5069 -0.5265
  108OSM    H8S11072   3.726   4.008   9.963 -1.6029 -0.7459 -0.5586
  108OSM    H8T11073   3.720   3.831   9.944  1.8259 -0.7606 -0.7923
  108OSM    C9S11074   3.861   3.924   9.811 -0.4185 -0.1537 -0.7852
  108OSM    H9S11075   3.878   3.818   9.780  0.7535 -0.5393  1.0120
  108OSM    H9T11076   3.960   3.974   9.826 -0.1657 -1.0339  0.8213
  108OSM   C10S11077   3.767   3.981   9.703  0.0987 -0.1261 -0.2995
  108OSM   H10S11078   3.743   4.089   9.712  0.6170  0.0661 -1.1347
  108OSM   H10T11079   3.668   3.929   9.699  0.9870 -1.9151 -0.1133
  108OSM   C11S11080   3.834   3.957   9.568 -0.1453 -0.4683  0.2176
  108OSM   H11S11081   3.880   3.856   9.568 -0.0943 -0.4489  0.6657
  108OSM   H11T11082   3.912   4.035   9.552 -0.9663  0.8389  2.2465
  108OSM   C12S11083   3.728   3.971   9.461 -0.3072 -0.0415 -0.3784
  108OSM   H12S11084   3.678   4.068   9.483  1.0318  0.3409  1.2433
  108OSM   H12T11085   3.650   3.893   9.462  0.8673 -1.2511  0.7530
  108OSM   C13S11086   3.789   3.997   9.324 -0.3266  0.2148 -0.2790
  108OSM   H13S11087   3.865   3.916   9.317  0.3183  0.6887  0.8406
  108OSM   H13T11088   3.825   4.102   9.328 -0.2300  0.1729  3.2448
  108OSM   C14S11089   3.690   3.990   9.205 -0.2532  0.0870  0.4191
  108OSM   H14S11090   3.600   4.051   9.223 -1.0591 -0.0510 -2.6018
  108OSM   H14T11091   3.673   3.880   9.200  3.1871 -0.5020 -1.4221
  108OSM   C15S11092   3.752   4.048   9.079  0.0359  0.2970 -0.0124
  108OSM   H15S11093   3.855   4.006   9.071 -0.3716 -1.0241  1.3109
  108OSM   H15T11094   3.748   4.159   9.087 -2.0555  0.2949 -0.5189
  108OSM   C16S11095   3.663   4.019   8.953 -0.3523  0.1816  0.3276
  108OSM   H16S11096   3.553   4.022   8.964 -0.4853 -1.2398 -0.4324
  108OSM   H16T11097   3.688   3.913   8.928 -0.1177 -0.2405  2.1787
  108OSM   C17S11098   3.700   4.105   8.834  0.1327  0.4024 -0.0745
  108OSM   H17S11099   3.646   4.202   8.843 -1.0190 -0.0745 -1.4787
  108OSM   H17T11100   3.654   4.059   8.744 -1.3367  0.0272  0.8201
  108OSM   C18S11101   3.853   4.117   8.809 -0.0542 -0.0691 -0.5889
  108OSM   H18S11102   3.916   4.026   8.819 -0.2299 -0.2662 -1.2488
  108OSM   H18T11103   3.887   4.190   8.886  0.2330 -0.9513  0.1402
  108OSM   H18U11104   3.878   4.162   8.711  4.8012  0.1591  0.4885
  108OSM    C1F11105   4.346   3.637  10.223 -0.4597 -0.4310 -0.4891
  108OSM     OF11106   4.369   3.574  10.326 -0.3310  1.0982 -0.4427
  108OSM    C2F11107   4.320   3.567  10.089 -0.3437 -0.3839 -1.1512
  108OSM    H2F11108   4.344   3.461  10.111  1.5391 -0.0158 -1.2551
  108OSM    H2G11109   4.390   3.610  10.014 -1.2668  1.3380 -1.0717
  108OSM    C3F11110   4.174   3.605  10.043 -0.0837  0.0224  0.5259
  108OSM    H3F11111   4.174   3.714  10.022 -0.3160 -0.1476 -0.3585
  108OSM    H3G11112   4.101   3.577  10.122  1.0376 -4.1660  0.3432
  108OSM    C4F11113   4.136   3.521   9.928  0.1465  0.5454 -0.2085
  108OSM    H4F11114   4.096   3.425   9.965 -0.5927  1.1936  0.7262
  108OSM    H4G11115   4.217   3.497   9.855 -0.0456 -1.8920  0.2910
  108OSM    C5F11116   4.045   3.595   9.828  1.1349 -0.2386 -0.3665
  108OSM    H5F11117   4.089   3.689   9.788  0.3329  0.3881  0.2027
  108OSM    H5G11118   3.951   3.613   9.885 -0.0267 -0.6432 -2.0582
  108OSM    C6F11119   4.008   3.503   9.710 -0.4529  0.0934 -0.0620
  108OSM    H6F11120   3.916   3.547   9.665 -0.6806  0.2330  0.5181
  108OSM    H6G11121   3.980   3.402   9.746 -0.9299  0.9065  2.0659
  108OSM    C7F11122   4.118   3.490   9.609 -0.2289 -0.1392 -0.1187
  108OSM    H7F11123   4.212   3.450   9.652 -0.7439 -0.8442  0.3702
  108OSM    H7G11124   4.141   3.587   9.560 -0.8324  1.1046  1.9301
  108OSM    C8F11125   4.082   3.378   9.509 -0.2582 -0.8373  0.5190
  108OSM    H8F11126   4.047   3.282   9.552 -1.1860 -0.5482  0.4239
  108OSM    H8G11127   4.184   3.363   9.467 -0.4443 -0.6775 -0.0081
  108OSM    C9F11128   3.976   3.436   9.419 -1.0202 -0.1183  1.0579
  108OSM    H9F11129   3.877   3.457   9.462 -1.1646  2.2056 -0.1894
  108OSM   C10F11130   4.002   3.461   9.285 -0.2704 -0.2868 -0.0684
  108OSM   H10F11131   3.920   3.505   9.228 -1.3857  0.1637  1.7780
  108OSM   C11F11132   4.130   3.426   9.218 -0.0705 -0.0533  1.2668
  108OSM   H11F11133   4.138   3.316   9.214  0.4209 -0.0257 -2.7696
  108OSM   H11G11134   4.206   3.465   9.288  1.1932  0.2309 -0.2060
  108OSM   C12F11135   4.164   3.487   9.084  1.0499 -0.0147  0.3299
  108OSM   H12F11136   4.272   3.483   9.059  0.7367 -1.2168 -0.9450
  108OSM   H12G11137   4.149   3.597   9.091  0.8036  0.0990 -1.4274
  108OSM   C13F11138   4.077   3.414   8.981 -0.3654  0.2017 -0.3429
  108OSM   H13F11139   3.970   3.428   9.005 -0.4671 -1.0934  0.0662
  108OSM   H13G11140   4.087   3.303   8.985 -1.1084  0.0204 -2.2531
  108OSM   C14F11141   4.084   3.458   8.835 -0.1342  0.2529  0.0550
  108OSM   H14F11142   4.008   3.399   8.780  1.4497 -1.1254 -0.7332
  108OSM   H14G11143   4.186   3.444   8.793 -1.0517  2.2906 -3.1771
  108OSM   C15F11144   4.062   3.615   8.815 -0.4811  0.9115 -0.4011
  108OSM   H15F11145   4.155   3.668   8.844 -1.7783  2.2371  1.6011
  108OSM   H15G11146   3.980   3.638   8.886  1.1801 -1.0244  2.3207
  108OSM   C16F11147   4.018   3.648   8.670  0.2450  0.4509 -0.5472
  108OSM   H16F11148   3.992   3.755   8.657  0.4863  0.5061 -0.5928
  108OSM   H16G11149   3.930   3.589   8.640  0.2488  0.5849 -0.8203
  108OSM   C17F11150   4.131   3.615   8.562  0.2617 -0.4811  0.1194
  108OSM   H17F11151   4.165   3.512   8.586 -1.1274 -0.2913  3.5269
  108OSM   H17G11152   4.209   3.690   8.587 -1.7917  1.7091  0.2573
  108OSM   C18F11153   4.083   3.631   8.421  0.1327 -0.7345 -0.5131
  108OSM   H18F11154   4.006   3.554   8.396  1.0892 -2.1727  0.7518
  108OSM   H18G11155   4.159   3.585   8.354 -0.8968 -2.9443 -0.2633
  108OSM   H18H11156   4.066   3.735   8.387 -0.1184 -0.2982  0.9164
  109OSM      N11157   5.374   2.987  10.746 -0.0918  0.3403 -0.0968
  109OSM    C1511158   5.374   3.138  10.700 -0.3854 -0.2305 -0.9454
  109OSM   H15A11159   5.315   3.192  10.772 -1.0914 -2.9094  0.6258
  109OSM   H15B11160   5.330   3.149  10.602 -1.1370  0.4051 -0.5452
  109OSM   H15C11161   5.473   3.181  10.688 -0.9877  1.1882 -1.0617
  109OSM    C1411162   5.227   2.947  10.739 -0.3234 -0.1484 -0.1343
  109OSM   H14A11163   5.212   2.841  10.726 -2.4939 -0.2253  2.2291
  109OSM   H14B11164   5.175   2.989  10.654 -1.3981  0.0703  0.6125
  109OSM   H14C11165   5.175   2.981  10.827 -2.4423 -3.0754 -0.0968
  109OSM    C1311166   5.446   2.910  10.635 -0.0860  0.3248 -0.0905
  109OSM   H13A11167   5.478   2.813  10.670 -0.4673  0.1600 -0.2028
  109OSM   H13B11168   5.534   2.963  10.600 -0.3447 -0.4478 -2.0042
  109OSM   H13C11169   5.392   2.900  10.542  2.2214 -0.9217 -1.4151
  109OSM    C1211170   5.429   2.951  10.885 -0.5702 -0.5772 -0.5623
  109OSM   H12A11171   5.379   3.002  10.966 -0.0465  0.8746 -1.1172
  109OSM   H12B11172   5.527   2.992  10.906 -1.4479  1.0876  0.5631
  109OSM    C1111173   5.425   2.800  10.926  0.4424  0.6692  0.6720
  109OSM   H11A11174   5.325   2.762  10.895  1.2662 -0.8224 -0.3072
  109OSM   H11B11175   5.436   2.790  11.036 -1.2497 -0.0556  0.8087
  109OSM      P11176   5.687   2.750  10.880  0.1240 -0.2490  0.0602
  109OSM    O1311177   5.721   2.889  10.922 -0.0024  0.1192 -0.6444
  109OSM    O1411178   5.723   2.642  10.975  0.4877 -0.4447 -0.0395
  109OSM    O1111179   5.747   2.722  10.734  0.3292 -0.2980 -0.2877
  109OSM    O1211180   5.531   2.733  10.848  0.3334  0.3692  0.1748
  109OSM    C1S11181   5.803   2.822  10.644 -1.2030  0.4769 -0.0821
  109OSM    H1S11182   5.894   2.869  10.688 -0.9885 -0.3389  0.3491
  109OSM    H1T11183   5.733   2.908  10.631  0.9382  2.5987  1.5428
  109OSM     NF11184   5.918   2.849  10.437 -0.0981 -0.1052  0.2938
  109OSM    HNF11185   5.869   2.880  10.356 -0.0473  0.7319  0.5785
  109OSM    C2S11186   5.846   2.751  10.512 -0.0266 -0.4184 -0.6157
  109OSM    H2S11187   5.911   2.669  10.550 -1.0312 -1.1838 -0.5154
  109OSM    C3S11188   5.728   2.690  10.433 -0.8258 -0.4025 -0.1167
  109OSM    H3S11189   5.645   2.763  10.419 -1.1737 -0.2788  2.2492
  109OSM     O311190   5.674   2.576  10.497  0.8047 -0.6637  0.4939
  109OSM    HO311191   5.726   2.568  10.577  0.6395 -1.6326  0.5107
  109OSM    C4S11192   5.787   2.648  10.306  0.0525  0.6897 -0.9524
  109OSM    H4S11193   5.823   2.544  10.301  0.1930  0.7192 -0.5771
  109OSM    C5S11194   5.793   2.715  10.192  0.2454  0.0158 -0.0545
  109OSM    H5S11195   5.762   2.821  10.196 -1.7545 -0.5180 -0.4491
  109OSM    C6S11196   5.850   2.666  10.061 -0.6362  0.1954  0.6570
  109OSM    H6S11197   5.896   2.565  10.068  1.9622  1.3988  2.5247
  109OSM    H6T11198   5.932   2.731  10.025 -2.2056  0.9000 -1.8548
  109OSM    C7S11199   5.744   2.663   9.951 -0.7745  0.1202 -0.1202
  109OSM    H7S11200   5.699   2.763   9.935  0.4109  0.9336  1.3960
  109OSM    H7T11201   5.661   2.595   9.979  0.1235 -1.8247 -1.8920
  109OSM    C8S11202   5.798   2.613   9.817 -0.0771 -0.6874  0.3882
  109OSM    H8S11203   5.868   2.527   9.830  2.3529  0.7175 -2.2385
  109OSM    H8T11204   5.861   2.695   9.777  1.9338 -0.4716  3.6074
  109OSM    C9S11205   5.703   2.563   9.701 -0.4174 -0.6575 -0.8094
  109OSM    H9S11206   5.777   2.540   9.621 -1.5232 -1.4626 -1.6422
  109OSM    H9T11207   5.646   2.655   9.675  0.7615 -0.0824 -1.4281
  109OSM   C10S11208   5.601   2.450   9.721  0.1356  0.2663 -0.2832
  109OSM   H10S11209   5.508   2.482   9.773 -0.9635 -3.0100  0.0183
  109OSM   H10T11210   5.633   2.351   9.762  0.7721  1.1789  1.5181
  109OSM   C11S11211   5.552   2.392   9.586 -0.1971 -0.5289 -0.3796
  109OSM   H11S11212   5.651   2.378   9.537  0.4418 -1.5148  1.1058
  109OSM   H11T11213   5.489   2.467   9.533 -2.1022 -1.7461  0.0586
  109OSM   C12S11214   5.471   2.261   9.588 -0.2462  0.0351  1.0164
  109OSM   H12S11215   5.370   2.285   9.627 -0.7542  0.4343 -0.4970
  109OSM   H12T11216   5.509   2.170   9.640  0.0210 -0.6706 -0.3791
  109OSM   C13S11217   5.449   2.232   9.438 -0.7375 -0.4058 -0.1640
  109OSM   H13S11218   5.544   2.242   9.381  0.5723 -0.9421  1.8233
  109OSM   H13T11219   5.376   2.303   9.396  0.5452  1.3463  0.4504
  109OSM   C14S11220   5.415   2.086   9.407  0.6545 -0.3506  0.6138
  109OSM   H14S11221   5.352   2.047   9.490  0.5850 -1.6451 -0.0175
  109OSM   H14T11222   5.504   2.021   9.406  0.7900 -0.1756 -0.6847
  109OSM   C15S11223   5.329   2.075   9.278 -0.8314  0.6438  0.3736
  109OSM   H15S11224   5.351   1.981   9.224 -2.7742  0.1277  0.4291
  109OSM   H15T11225   5.358   2.159   9.211  0.1962 -0.9249 -1.2474
  109OSM   C16S11226   5.174   2.075   9.300  0.1978 -0.3071  0.4157
  109OSM   H16S11227   5.147   2.180   9.324  3.5570  0.5038  1.1753
  109OSM   H16T11228   5.154   2.015   9.391  2.0453 -1.5105  0.0818
  109OSM   C17S11229   5.083   2.026   9.181 -0.0843  0.7824 -0.7087
  109OSM   H17S11230   4.975   2.050   9.196 -0.0862  0.2211  0.3116
  109OSM   H17T11231   5.091   1.915   9.179 -0.0959  0.6887  1.3957
  109OSM   C18S11232   5.143   2.074   9.042 -0.2654  0.2966 -0.1447
  109OSM   H18S11233   5.160   2.183   9.031  1.0065  0.2202  0.8477
  109OSM   H18T11234   5.061   2.051   8.971  2.2802 -0.6210 -2.9936
  109OSM   H18U11235   5.238   2.022   9.017 -1.4680 -0.7743 -2.7851
  109OSM    C1F11236   6.041   2.892  10.479  0.1576  0.9045 -0.1118
  109OSM     OF11237   6.097   2.847  10.579  0.2163 -0.6524  0.5611
  109OSM    C2F11238   6.105   3.002  10.405 -0.4830 -0.1753  0.1854
  109OSM    H2F11239   6.216   3.000  10.418 -0.0991 -3.1156 -2.3021
  109OSM    H2G11240   6.061   3.098  10.440 -0.0253  0.0013  0.2878
  109OSM    C3F11241   6.089   3.008  10.253  0.8640 -0.5531 -0.8962
  109OSM    H3F11242   5.983   3.024  10.223  0.0184  0.2725  2.1925
  109OSM    H3G11243   6.118   2.912  10.207  3.5878 -1.1925  1.8572
  109OSM    C4F11244   6.174   3.118  10.188  0.0272 -0.2561  0.3498
  109OSM    H4F11245   6.278   3.079  10.186  0.5868  1.1999  0.3316
  109OSM    H4G11246   6.164   3.211  10.247  1.5921  0.2097 -0.0767
  109OSM    C5F11247   6.124   3.144  10.037 -0.3500  0.5381  0.2084
  109OSM    H5F11248   6.203   3.208   9.991  1.8653 -2.9661 -1.3131
  109OSM    H5G11249   6.022   3.187  10.034 -1.2265 -1.4534 -1.8510
  109OSM    C6F11250   6.132   3.020   9.934  0.7484  0.3797  0.2559
  109OSM    H6F11251   6.091   2.933   9.991  1.3178 -0.2163 -0.2260
  109OSM    H6G11252   6.234   2.989   9.904  0.4408  0.3676 -0.8166
  109OSM    C7F11253   6.048   3.053   9.811 -1.2735 -0.6215 -0.0903
  109OSM    H7F11254   6.105   3.139   9.770  1.1079 -2.6038 -1.2088
  109OSM    H7G11255   5.944   3.082   9.835 -0.6639  0.7182  1.0982
  109OSM    C8F11256   6.046   2.936   9.710 -0.5282  0.3210  0.7061
  109OSM    H8F11257   5.963   2.956   9.639 -0.2899 -2.2216 -0.4296
  109OSM    H8G11258   6.023   2.844   9.768  1.5831 -0.4487  0.4353
  109OSM    C9F11259   6.182   2.941   9.636 -0.3640  0.0742 -0.5166
  109OSM    H9F11260   6.262   2.912   9.706 -1.6291  0.2782  1.0723
  109OSM   C10F11261   6.206   2.983   9.513  0.1830  0.0608  0.5374
  109OSM   H10F11262   6.310   2.984   9.478  0.4946 -0.8983  1.3979
  109OSM   C11F11263   6.108   3.051   9.414 -1.0011  0.3875 -0.1868
  109OSM   H11F11264   6.166   3.134   9.368 -0.3523 -0.3962 -0.8139
  109OSM   H11G11265   6.018   3.093   9.463 -1.1064 -0.4364  0.3564
  109OSM   C12F11266   6.064   2.958   9.302  0.1314 -0.2167 -0.6211
  109OSM   H12F11267   6.006   2.869   9.337  1.0210 -0.2037  0.9921
  109OSM   H12G11268   6.161   2.912   9.275  1.2158  0.8109  1.2922
  109OSM   C13F11269   6.007   3.029   9.185 -0.2999  0.5770  0.2175
  109OSM   H13F11270   6.069   3.119   9.168 -1.3037  1.2740  0.1689
  109OSM   H13G11271   5.908   3.073   9.208 -1.3384 -1.7024  0.4044
  109OSM   C14F11272   6.007   2.943   9.057 -0.2715  0.0226 -0.0922
  109OSM   H14F11273   5.932   2.864   9.074  0.5300 -0.4250  1.5280
  109OSM   H14G11274   6.110   2.904   9.044 -0.1956 -1.0118  2.9127
  109OSM   C15F11275   5.949   3.025   8.943 -0.4266 -0.3706  0.2083
  109OSM   H15F11276   6.004   3.121   8.952 -0.4472 -0.2888 -0.5078
  109OSM   H15G11277   5.846   3.057   8.966 -0.5131 -1.1701  1.0156
  109OSM   C16F11278   5.965   2.956   8.803 -0.1741 -0.2706 -0.4229
  109OSM   H16F11279   5.969   3.035   8.725  1.5573  0.2535  0.1423
  109OSM   H16G11280   5.880   2.886   8.793  1.4536 -2.2056 -1.5661
  109OSM   C17F11281   6.096   2.884   8.780 -0.7683 -0.1744  0.1259
  109OSM   H17F11282   6.111   2.794   8.844  0.5249  1.7490  2.7109
  109OSM   H17G11283   6.172   2.962   8.802 -0.6669  0.2034 -1.4586
  109OSM   C18F11284   6.098   2.824   8.634  0.4242  0.1862 -0.3346
  109OSM   H18F11285   6.199   2.793   8.601  0.2135 -0.8093 -0.0466
  109OSM   H18G11286   6.061   2.898   8.559 -1.4580 -0.4959 -0.1277
  109OSM   H18H11287   6.026   2.740   8.633 -1.5812  1.8053 -0.1332
  110OSM      N11288   4.044   6.699  10.970 -0.2028  0.1963 -0.1587
  110OSM    C1511289   4.110   6.575  11.033  0.2947  0.5926  0.1624
  110OSM   H15A11290   4.043   6.492  11.049  0.3397  0.0607 -1.9930
  110OSM   H15B11291   4.165   6.601  11.122 -0.9075 -0.7900  1.3430
  110OSM   H15C11292   4.184   6.547  10.960 -0.6565 -0.6993 -0.3264
  110OSM    C1411293   3.926   6.748  11.058 -0.3751 -0.3215  0.3383
  110OSM   H14A11294   3.943   6.726  11.163  0.4110  1.9435  0.7476
  110OSM   H14B11295   3.839   6.696  11.020 -1.0265 -1.2747  2.9291
  110OSM   H14C11296   3.911   6.855  11.063 -2.7502 -0.6226  1.6878
  110OSM    C1311297   4.135   6.814  10.957 -0.3722 -0.7037 -0.3561
  110OSM   H13A11298   4.215   6.785  10.890  0.5836 -0.5671  0.6853
  110OSM   H13B11299   4.182   6.839  11.052 -0.9512 -0.0735 -0.2298
  110OSM   H13C11300   4.098   6.903  10.908  1.9356 -0.3953 -1.7110
  110OSM    C1211301   3.991   6.670  10.833  0.2075  0.1925 -0.3439
  110OSM   H12A11302   3.953   6.766  10.802  1.1756  0.2885 -1.3394
  110OSM   H12B11303   3.920   6.589  10.838  1.6710 -1.1401 -0.3966
  110OSM    C1111304   4.099   6.634  10.716  0.4487  0.4220 -0.7025
  110OSM   H11A11305   4.142   6.730  10.680  0.9734 -1.2069 -4.9348
  110OSM   H11B11306   4.038   6.590  10.635  0.1674 -0.3824 -0.0711
  110OSM      P11307   4.330   6.524  10.664  0.1287  0.2416 -0.2690
  110OSM    O1311308   4.440   6.577  10.743 -0.5077 -0.3538  0.6100
  110OSM    O1411309   4.343   6.385  10.615 -0.0857  0.1702 -0.1970
  110OSM    O1111310   4.314   6.615  10.536 -0.4122 -0.4234 -0.2529
  110OSM    O1211311   4.198   6.546  10.757 -0.2946  1.0395 -0.6392
  110OSM    C1S11312   4.424   6.647  10.446 -0.1956  0.4667  0.4444
  110OSM    H1S11313   4.498   6.565  10.449  0.6645  0.8717 -3.4607
  110OSM    H1T11314   4.469   6.747  10.459  0.6654  0.2739 -0.8753
  110OSM     NF11315   4.472   6.664  10.208  0.5210 -0.1619  0.3192
  110OSM    HNF11316   4.467   6.751  10.159 -0.2605 -0.4377 -0.1228
  110OSM    C2S11317   4.365   6.647  10.305 -0.0087  0.8218  0.4039
  110OSM    H2S11318   4.317   6.550  10.282  1.9304  0.0432 -0.5574
  110OSM    C3S11319   4.253   6.760  10.291 -0.2435  0.3760 -0.1990
  110OSM    H3S11320   4.301   6.859  10.305 -1.1239  0.5598  1.9730
  110OSM     O311321   4.150   6.749  10.395 -0.1675 -0.7055  0.2137
  110OSM    HO311322   4.190   6.693  10.462 -0.2042 -0.5629  0.3548
  110OSM    C4S11323   4.200   6.754  10.143 -0.0246 -0.5032 -0.2160
  110OSM    H4S11324   4.244   6.827  10.074 -0.3884  0.0999  0.1797
  110OSM    C5S11325   4.105   6.663  10.103 -0.4858  0.0256  0.6676
  110OSM    H5S11326   4.060   6.587  10.169 -3.0797 -1.3691 -2.4603
  110OSM    C6S11327   4.059   6.653   9.957 -0.0471  0.1235 -0.8670
  110OSM    H6S11328   3.971   6.720   9.943 -0.6184 -0.5738 -0.6993
  110OSM    H6T11329   4.034   6.545   9.942 -1.1828 -0.1196  2.0595
  110OSM    C7S11330   4.164   6.687   9.851 -0.2234  0.2348 -0.4229
  110OSM    H7S11331   4.247   6.614   9.862  0.8554  1.2666 -1.3791
  110OSM    H7T11332   4.215   6.785   9.866  1.4664  0.0519 -4.0467
  110OSM    C8S11333   4.107   6.695   9.708  0.2518  0.1810  0.3099
  110OSM    H8S11334   4.034   6.779   9.711 -0.4811 -0.2355 -2.7536
  110OSM    H8T11335   4.062   6.593   9.699 -0.1123  0.2960  0.7993
  110OSM    C9S11336   4.212   6.732   9.605 -0.3775  0.7732  0.0077
  110OSM    H9S11337   4.302   6.668   9.611  1.4238  2.9978 -1.5812
  110OSM    H9T11338   4.240   6.838   9.618 -0.0113  0.9572 -1.9186
  110OSM   C10S11339   4.161   6.710   9.470  0.2895  0.1312 -0.9202
  110OSM   H10S11340   4.079   6.785   9.458  0.3725  0.0946 -1.7717
  110OSM   H10T11341   4.123   6.606   9.461 -0.1190  0.2549 -0.6606
  110OSM   C11S11342   4.264   6.738   9.363 -0.2284  0.7776 -0.5601
  110OSM   H11S11343   4.348   6.666   9.372  0.5725  1.7658  0.1422
  110OSM   H11T11344   4.303   6.841   9.375 -2.5256  1.6360 -0.0584
  110OSM   C12S11345   4.193   6.727   9.226  0.7119  0.9196 -0.1105
  110OSM   H12S11346   4.161   6.828   9.191  2.0970  1.1665 -0.7159
  110OSM   H12T11347   4.105   6.659   9.227  2.3153 -1.2559 -0.6865
  110OSM   C13S11348   4.283   6.657   9.125  0.1301 -0.3636 -0.4308
  110OSM   H13S11349   4.330   6.568   9.171 -0.8199 -0.7375 -0.1784
  110OSM   H13T11350   4.362   6.730   9.095  0.1964  0.0725  0.7469
  110OSM   C14S11351   4.202   6.623   9.002 -0.6534 -0.1429  0.1086
  110OSM   H14S11352   4.153   6.712   8.957 -1.4516  0.6839  2.4298
  110OSM   H14T11353   4.123   6.554   9.040  0.2334 -1.7737 -0.8781
  110OSM   C15S11354   4.287   6.541   8.896  0.2382  0.4765 -0.4005
  110OSM   H15S11355   4.219   6.472   8.840  2.3814  0.1730 -2.8266
  110OSM   H15T11356   4.351   6.471   8.955  0.3394  0.9508  0.0577
  110OSM   C16S11357   4.372   6.630   8.809 -0.0775  0.0675  0.2303
  110OSM   H16S11358   4.452   6.691   8.856 -0.2616  0.3799  0.1413
  110OSM   H16T11359   4.314   6.709   8.757 -0.1907  0.7666  1.3754
  110OSM   C17S11360   4.451   6.540   8.700  0.5136  0.6906 -0.9677
  110OSM   H17S11361   4.365   6.502   8.641 -0.2257  2.6454 -1.2412
  110OSM   H17T11362   4.513   6.464   8.751 -1.0449 -2.4058 -3.3419
  110OSM   C18S11363   4.540   6.631   8.617  0.4047  0.2922 -0.0915
  110OSM   H18S11364   4.579   6.581   8.526  0.2958  0.9075 -0.4862
  110OSM   H18T11365   4.626   6.668   8.677 -0.3892  1.2084  0.5149
  110OSM   H18U11366   4.492   6.722   8.575  0.7095  2.0298  3.0265
  110OSM    C1F11367   4.557   6.575  10.171 -0.3679  0.3325  0.5272
  110OSM     OF11368   4.574   6.470  10.235  0.2432  0.4639  0.1158
  110OSM    C2F11369   4.637   6.594  10.052  0.5900 -0.3783  0.1276
  110OSM    H2F11370   4.718   6.518  10.054 -0.2374 -1.2929  2.1408
  110OSM    H2G11371   4.696   6.688  10.054  0.5206 -0.3400  0.4814
  110OSM    C3F11372   4.547   6.604   9.924 -0.4611  0.2814 -0.4339
  110OSM    H3F11373   4.446   6.647   9.941 -0.3791  1.3400 -2.4031
  110OSM    H3G11374   4.525   6.497   9.902  2.6291 -0.2715 -1.2808
  110OSM    C4F11375   4.616   6.660   9.796 -0.0125 -0.3234  0.0177
  110OSM    H4F11376   4.634   6.768   9.814  1.4194 -0.1417 -2.1053
  110OSM    H4G11377   4.540   6.658   9.715 -0.5516  0.5266  0.4879
  110OSM    C5F11378   4.744   6.590   9.746  0.0528  0.3642  0.4921
  110OSM    H5F11379   4.733   6.480   9.734  0.6234  0.2587  0.8847
  110OSM    H5G11380   4.820   6.607   9.826  2.0358  1.1909 -1.4541
  110OSM    C6F11381   4.816   6.654   9.625 -0.0236  0.2446  0.0446
  110OSM    H6F11382   4.911   6.598   9.611  0.3004  1.0117 -0.9038
  110OSM    H6G11383   4.847   6.756   9.658 -0.5377  0.4327 -0.0498
  110OSM    C7F11384   4.723   6.664   9.503 -0.5831 -0.1495 -0.4209
  110OSM    H7F11385   4.631   6.715   9.539  0.1387  1.6990 -1.0677
  110OSM    H7G11386   4.715   6.561   9.462  0.7570 -1.7005  2.8466
  110OSM    C8F11387   4.785   6.746   9.383  0.1231 -0.0551 -0.4235
  110OSM    H8F11388   4.888   6.708   9.366  1.2578  1.6136  2.1657
  110OSM    H8G11389   4.783   6.842   9.438  0.6276 -1.3381  1.9445
  110OSM    C9F11390   4.704   6.745   9.258  0.9799 -0.3914  0.1331
  110OSM    H9F11391   4.598   6.770   9.277  0.5632 -1.7034 -0.3797
  110OSM   C10F11392   4.735   6.726   9.131  0.1752  0.4797  0.3228
  110OSM   H10F11393   4.650   6.725   9.061 -1.2155 -3.0560  1.8452
  110OSM   C11F11394   4.869   6.694   9.061 -0.9323  0.6606 -0.6133
  110OSM   H11F11395   4.944   6.761   9.108 -0.3802  0.8452 -1.7406
  110OSM   H11G11396   4.873   6.730   8.956  0.3739  0.8987 -0.4917
  110OSM   C12F11397   4.911   6.542   9.067 -0.5521 -0.2304 -0.4559
  110OSM   H12F11398   4.887   6.517   9.173  0.9536  1.9673  0.4826
  110OSM   H12G11399   5.020   6.520   9.068 -0.9333 -2.3316  0.9062
  110OSM   C13F11400   4.840   6.442   8.971 -0.1488  0.1557 -0.7436
  110OSM   H13F11401   4.733   6.439   8.999 -0.4962  0.0040 -1.9929
  110OSM   H13G11402   4.881   6.339   8.983  1.1153  0.7905  0.6404
  110OSM   C14F11403   4.863   6.487   8.825  0.4185  0.2021 -0.5195
  110OSM   H14F11404   4.968   6.513   8.801  0.9955 -1.1747  0.3456
  110OSM   H14G11405   4.803   6.579   8.818 -2.0256 -1.1083  1.4736
  110OSM   C15F11406   4.811   6.386   8.723  0.3137  0.3967 -0.7138
  110OSM   H15F11407   4.816   6.424   8.619  0.5102  0.0823 -0.8197
  110OSM   H15G11408   4.705   6.360   8.742  0.4131  0.8967  0.6906
  110OSM   C16F11409   4.890   6.260   8.713  0.6719  0.7423  0.3632
  110OSM   H16F11410   4.869   6.195   8.801 -1.1645  0.9103  0.0897
  110OSM   H16G11411   4.999   6.283   8.710  0.3482  2.4646  0.7614
  110OSM   C17F11412   4.862   6.172   8.586  0.1338 -0.5698  0.1451
  110OSM   H17F11413   4.751   6.171   8.582 -0.1125  0.9624  3.3183
  110OSM   H17G11414   4.899   6.069   8.605 -3.0618 -2.4682 -2.7910
  110OSM   C18F11415   4.913   6.224   8.450 -0.5185 -0.3135  0.2088
  110OSM   H18F11416   4.899   6.148   8.370  1.4588 -0.3353 -0.1549
  110OSM   H18G11417   5.020   6.251   8.465 -0.3601 -1.1214  0.5772
  110OSM   H18H11418   4.870   6.322   8.420  0.6926 -0.4837 -2.3334
  111OSM      N11419   0.145   6.407  10.694 -0.3222  0.4585  0.1505
  111OSM    C1511420   0.169   6.444  10.835 -0.0845  0.2304 -0.2932
  111OSM   H15A11421   0.192   6.549  10.845 -1.6846  0.6706 -0.8634
  111OSM   H15B11422   0.250   6.396  10.888  0.4914  2.7873  1.3479
  111OSM   H15C11423   0.088   6.411  10.899  0.6995  1.1998  1.2639
  111OSM    C1411424   0.098   6.265  10.689  0.2630 -0.3226 -0.5422
  111OSM   H14A11425   0.153   6.205  10.759 -0.3459 -0.4647 -0.1734
  111OSM   H14B11426   0.099   6.230  10.587 -1.8710  0.5881 -0.9255
  111OSM   H14C11427  -0.008   6.268  10.713  0.4232  0.4989  0.1224
  111OSM    C1311428   0.029   6.489  10.653  0.1233 -0.7687 -0.1206
  111OSM   H13A11429  -0.061   6.449  10.699 -0.9638  1.5215 -0.0983
  111OSM   H13B11430   0.030   6.487  10.545 -1.1962  0.6998 -0.1947
  111OSM   H13C11431   0.033   6.593  10.682 -1.1848 -0.4094 -1.1296
  111OSM    C1211432   0.270   6.437  10.614 -0.3842  0.6391  0.1158
  111OSM   H12A11433   0.256   6.411  10.510  0.1737  1.1370 -0.0907
  111OSM   H12B11434   0.349   6.381  10.663 -0.5144  1.5761  1.4362
  111OSM    C1111435   0.313   6.583  10.617  0.0090  0.2135  0.4207
  111OSM   H11A11436   0.225   6.645  10.585 -1.0781 -1.4801  0.0163
  111OSM   H11B11437   0.388   6.598  10.537 -0.8285 -2.1595 -0.9036
  111OSM      P11438   0.408   6.772  10.764 -0.1196  0.0846  0.0576
  111OSM    O1311439   0.337   6.828  10.886 -0.1661 -0.2752  0.3996
  111OSM    O1411440   0.558   6.769  10.769  0.1376  0.0914 -0.1126
  111OSM    O1111441   0.351   6.851  10.637  0.3783 -0.8406 -0.4537
  111OSM    O1211442   0.359   6.626  10.744 -0.5651 -0.3146 -0.1433
  111OSM    C1S11443   0.393   6.990  10.621 -0.6695 -0.2889  0.2159
  111OSM    H1S11444   0.494   7.006  10.664 -1.0985  0.1765  1.0769
  111OSM    H1T11445   0.313   7.056  10.661 -2.6590 -2.4871  0.1061
  111OSM     NF11446   0.454   7.161  10.448  0.2624  0.5100 -0.2942
  111OSM    HNF11447   0.391   7.237  10.437  0.8047  1.0104  0.0302
  111OSM    C2S11448   0.399   7.033  10.468  0.2479  0.3176 -0.6015
  111OSM    H2S11449   0.467   6.954  10.429 -0.8222 -1.5312  1.0658
  111OSM    C3S11450   0.255   7.008  10.414  0.2424 -0.1840  1.0554
  111OSM    H3S11451   0.193   7.090  10.456 -0.6781  0.0597 -0.6771
  111OSM     O311452   0.194   6.883  10.440  0.2641 -0.1147 -0.2067
  111OSM    HO311453   0.240   6.857  10.520 -0.1715  0.1077  0.1274
  111OSM    C4S11454   0.253   6.998  10.265 -0.5673 -0.4314  0.6131
  111OSM    H4S11455   0.269   6.900  10.219  1.4519  0.2683 -0.3200
  111OSM    C5S11456   0.223   7.097  10.178  0.4611  0.7541  0.0280
  111OSM    H5S11457   0.187   7.189  10.227 -0.7695 -0.7922  2.1561
  111OSM    C6S11458   0.223   7.095  10.024  0.4222  0.0785  0.0967
  111OSM    H6S11459   0.301   7.027   9.984 -0.5361 -0.5726 -0.7242
  111OSM    H6T11460   0.270   7.190   9.993  1.3434 -0.0793  0.9507
  111OSM    C7S11461   0.081   7.094   9.957 -0.2762 -0.5665  0.3252
  111OSM    H7S11462   0.104   7.125   9.853  1.9554  1.1196  1.2530
  111OSM    H7T11463   0.020   7.176  10.000 -0.9497 -0.4071 -0.8930
  111OSM    C8S11464   0.009   6.962   9.958 -0.0400  0.9201 -0.3430
  111OSM    H8S11465  -0.025   6.939  10.062 -0.3841  0.1055 -0.6324
  111OSM    H8T11466   0.074   6.879   9.924  0.8417  1.3469  0.2366
  111OSM    C9S11467  -0.119   6.959   9.869 -0.1281 -0.0749 -0.2085
  111OSM    H9S11468  -0.198   7.020   9.917 -0.2474  1.2282 -1.9412
  111OSM    H9T11469  -0.162   6.857   9.863  0.1948 -0.3288  1.3308
  111OSM   C10S11470  -0.097   6.999   9.725  0.3161  1.0666 -0.4178
  111OSM   H10S11471  -0.041   7.095   9.721 -0.8684  1.8050  0.1892
  111OSM   H10T11472  -0.195   7.033   9.684  1.9227  0.8515 -5.0958
  111OSM   C11S11473  -0.036   6.884   9.643 -0.3908 -0.8858  0.0896
  111OSM   H11S11474  -0.116   6.818   9.602 -1.0956  0.0166 -0.0322
  111OSM   H11T11475   0.020   6.822   9.716 -1.4280  0.3424  2.0052
  111OSM   C12S11476   0.058   6.934   9.531  0.2120 -0.5974 -0.2531
  111OSM   H12S11477   0.122   6.852   9.491  1.7583  0.8188 -0.7927
  111OSM   H12T11478   0.134   7.002   9.572 -0.8789 -0.0187  0.8665
  111OSM   C13S11479  -0.034   6.976   9.412 -0.2302  0.3712 -0.0332
  111OSM   H13S11480  -0.046   7.087   9.407  2.3470  0.6739 -1.6370
  111OSM   H13T11481  -0.129   6.921   9.428  0.2623 -0.1253  1.2889
  111OSM   C14S11482   0.035   6.928   9.277 -0.4395 -0.1825 -0.2902
  111OSM   H14S11483   0.096   6.837   9.295  0.0843  0.6254  2.5350
  111OSM   H14T11484   0.111   7.005   9.251  0.0813  0.4158  2.6520
  111OSM   C15S11485  -0.064   6.900   9.166 -0.0238  0.1953  0.4562
  111OSM   H15S11486  -0.142   6.979   9.151  2.7946  3.0234 -0.5150
  111OSM   H15T11487  -0.101   6.797   9.184  1.6090 -0.6530 -0.8073
  111OSM   C16S11488   0.006   6.885   9.029  0.4667  0.2333  0.4058
  111OSM   H16S11489  -0.074   6.860   8.955 -2.4262  1.5213  2.8603
  111OSM   H16T11490   0.082   6.805   9.031  0.4204 -0.0987 -3.3275
  111OSM   C17S11491   0.064   7.014   8.971 -0.1792 -0.2940  0.2360
  111OSM   H17S11492   0.171   7.020   9.001  0.3616  0.8921 -1.7376
  111OSM   H17T11493   0.009   7.104   9.008 -0.3500 -0.4776  0.4291
  111OSM   C18S11494   0.072   7.007   8.814  0.1508 -0.8598 -0.3120
  111OSM   H18S11495   0.126   7.096   8.776 -1.5220  1.6547  2.7031
  111OSM   H18T11496  -0.026   6.997   8.763 -1.3057  0.2082  2.1057
  111OSM   H18U11497   0.122   6.915   8.779  1.8671  0.4446 -1.4291
  111OSM    C1F11498   0.580   7.190  10.473 -0.3297  0.2237 -0.1366
  111OSM     OF11499   0.658   7.106  10.520  0.3422 -0.5664  0.1379
  111OSM    C2F11500   0.630   7.334  10.439  0.6408  0.2999 -0.0547
  111OSM    H2F11501   0.713   7.353  10.511 -0.6743 -0.4661  1.7236
  111OSM    H2G11502   0.550   7.406  10.468  0.3450 -0.4078  0.9147
  111OSM    C3F11503   0.688   7.340  10.297  0.3981 -0.1509 -0.5406
  111OSM    H3F11504   0.775   7.272  10.287  1.4825  0.4324  3.1643
  111OSM    H3G11505   0.739   7.438  10.286 -0.1621  0.3214  0.8471
  111OSM    C4F11506   0.593   7.305  10.178 -0.6264  0.0993  0.2865
  111OSM    H4F11507   0.506   7.373  10.186  0.8753  2.3568 -1.0893
  111OSM    H4G11508   0.557   7.201  10.187 -0.5065 -0.1165 -1.3694
  111OSM    C5F11509   0.653   7.340  10.042  0.8315  0.4521 -0.8204
  111OSM    H5F11510   0.760   7.311  10.041  1.2955  1.9984 -2.4139
  111OSM    H5G11511   0.669   7.450  10.042  2.8592  0.1827 -1.1247
  111OSM    C6F11512   0.568   7.290   9.933 -0.7031  0.1835 -0.8295
  111OSM    H6F11513   0.475   7.349   9.929 -1.4522 -0.7960  0.9600
  111OSM    H6G11514   0.528   7.187   9.945 -0.4204 -0.1964 -2.7681
  111OSM    C7F11515   0.642   7.296   9.803  0.0129  0.3993  0.3847
  111OSM    H7F11516   0.728   7.227   9.817 -0.5772 -0.3756  0.2520
  111OSM    H7G11517   0.689   7.397   9.799 -3.5806  2.2777  1.6725
  111OSM    C8F11518   0.539   7.256   9.694 -0.0030  0.4598  0.2725
  111OSM    H8F11519   0.458   7.331   9.689 -1.2026 -0.7224  1.3606
  111OSM    H8G11520   0.498   7.157   9.721  0.1099  0.6300  1.0714
  111OSM    C9F11521   0.617   7.243   9.558 -0.0028 -0.2625 -0.1231
  111OSM    H9F11522   0.657   7.339   9.521 -0.9599  1.1741  2.2845
  111OSM   C10F11523   0.607   7.139   9.475 -0.7065 -0.0344 -0.0521
  111OSM   H10F11524   0.657   7.139   9.377 -1.1325 -0.1010 -0.2716
  111OSM   C11F11525   0.521   7.017   9.488  0.0294  0.4802  0.0578
  111OSM   H11F11526   0.423   7.044   9.532  0.2075  1.9102 -0.3596
  111OSM   H11G11527   0.570   6.948   9.560  0.4668  1.7733  1.0685
  111OSM   C12F11528   0.505   6.930   9.359 -0.5775 -0.7497  0.2267
  111OSM   H12F11529   0.467   6.832   9.394 -3.6069  0.5531  0.9479
  111OSM   H12G11530   0.608   6.916   9.320 -0.4815  0.5087 -0.0140
  111OSM   C13F11531   0.420   6.984   9.245  0.2582  1.1653  0.8088
  111OSM   H13F11532   0.444   7.090   9.222 -0.8274  0.8937 -1.9458
  111OSM   H13G11533   0.316   6.989   9.285  0.6421  0.9639  1.8609
  111OSM   C14F11534   0.434   6.909   9.116  0.0651  0.6916  0.0269
  111OSM   H14F11535   0.541   6.909   9.088  0.4566 -0.2427  1.4122
  111OSM   H14G11536   0.367   6.958   9.041 -2.0420 -1.2621  0.5035
  111OSM   C15F11537   0.400   6.757   9.139 -0.1670  0.3144 -0.1481
  111OSM   H15F11538   0.297   6.745   9.178  0.8289 -4.2467  1.6911
  111OSM   H15G11539   0.472   6.711   9.209  0.9722  1.2543 -0.6676
  111OSM   C16F11540   0.424   6.679   9.008 -0.1334 -0.0644 -0.0989
  111OSM   H16F11541   0.413   6.570   9.030  0.4534 -0.1220 -0.0738
  111OSM   H16G11542   0.528   6.686   8.969 -0.4917 -0.0866 -1.0812
  111OSM   C17F11543   0.320   6.695   8.902 -0.3522  0.4436 -0.2168
  111OSM   H17F11544   0.299   6.804   8.892 -0.4657  0.5106  0.6674
  111OSM   H17G11545   0.223   6.644   8.924 -0.1246  0.9500  2.2475
  111OSM   C18F11546   0.367   6.637   8.771  0.4111  0.0376  0.7474
  111OSM   H18F11547   0.301   6.666   8.686  1.0209 -2.1145 -0.5464
  111OSM   H18G11548   0.379   6.527   8.771 -0.9348 -0.1261  1.2539
  111OSM   H18H11549   0.463   6.686   8.741 -0.1272 -1.1577 -3.5473
  112OSM      N11550   4.836   3.681  10.423 -0.7509  0.2891 -0.0918
  112OSM    C1511551   4.827   3.819  10.481 -0.2663  0.1179  0.1216
  112OSM   H15A11552   4.894   3.832  10.565  2.5181  0.8174 -2.0804
  112OSM   H15B11553   4.727   3.858  10.495  0.1806  1.1965  0.3948
  112OSM   H15C11554   4.868   3.881  10.404 -2.3032  0.6079 -0.6302
  112OSM    C1411555   4.793   3.587  10.529 -0.7508  0.3691 -0.0855
  112OSM   H14A11556   4.848   3.593  10.621 -0.2259 -0.8083 -0.3053
  112OSM   H14B11557   4.807   3.486  10.494  3.1110  0.9393 -0.5951
  112OSM   H14C11558   4.689   3.593  10.557 -1.1567 -2.8646 -0.4578
  112OSM    C1311559   4.752   3.675  10.308 -0.3924  1.2696 -0.6778
  112OSM   H13A11560   4.648   3.701  10.325 -0.6928 -0.5676  0.5392
  112OSM   H13B11561   4.755   3.581  10.255  1.0588  1.0433 -0.2285
  112OSM   H13C11562   4.789   3.742  10.231  2.1729  3.1126  1.9757
  112OSM    C1211563   4.984   3.668  10.390 -0.6659  0.0460 -0.6369
  112OSM   H12A11564   5.031   3.699  10.483 -0.8812  0.5955 -0.7047
  112OSM   H12B11565   5.013   3.735  10.311  1.1493 -0.3181 -0.3268
  112OSM    C1111566   5.043   3.532  10.346 -0.4228 -0.6259  0.6039
  112OSM   H11A11567   5.153   3.549  10.333 -0.6897  1.0592  0.3767
  112OSM   H11B11568   5.007   3.503  10.245  0.9517  0.1714 -0.1537
  112OSM      P11569   5.131   3.381  10.531  0.1507 -0.2350  0.1252
  112OSM    O1311570   5.260   3.451  10.506  0.0843  0.9261  0.1916
  112OSM    O1411571   5.086   3.383  10.676 -0.4138  0.5604  0.6820
  112OSM    O1111572   5.137   3.228  10.491  0.3240  0.2453  0.4286
  112OSM    O1211573   5.018   3.432  10.443  0.0182  0.6398  0.2358
  112OSM    C1S11574   5.027   3.150  10.454  0.5304 -0.6929  0.0851
  112OSM    H1S11575   4.938   3.174  10.517  0.0548  1.3291 -1.2527
  112OSM    H1T11576   5.046   3.042  10.468 -2.0064 -1.2846 -0.5016
  112OSM     NF11577   4.859   3.091  10.281 -0.3127  0.4497  0.1867
  112OSM    HNF11578   4.857   3.001  10.237  3.0658  0.0361  0.6910
  112OSM    C2S11579   4.984   3.159  10.304 -0.4782 -0.0725 -0.2442
  112OSM    H2S11580   4.970   3.263  10.266  2.8138 -0.3809 -2.7980
  112OSM    C3S11581   5.099   3.107  10.216 -0.4861  0.2631  0.0013
  112OSM    H3S11582   5.113   2.997  10.230 -0.7165  0.1005 -0.9401
  112OSM     O311583   5.220   3.167  10.241 -0.0880  0.4568 -0.1199
  112OSM    HO311584   5.232   3.174  10.336  2.6605 -0.4826 -0.2945
  112OSM    C4S11585   5.068   3.127  10.074 -0.2715  0.6151  0.1642
  112OSM    H4S11586   5.064   3.232  10.042  0.8770  0.6022 -0.0980
  112OSM    C5S11587   5.039   3.031   9.991  0.0333 -0.6984  0.9230
  112OSM    H5S11588   5.032   2.928  10.028  0.5037 -1.3934 -0.8158
  112OSM    C6S11589   5.014   3.058   9.842 -0.4625  0.8715  0.8422
  112OSM    H6S11590   5.094   3.005   9.787 -3.3664 -0.0893 -2.9151
  112OSM    H6T11591   5.021   3.164   9.808 -0.7496  0.3520 -0.9633
  112OSM    C7S11592   4.881   2.997   9.799  0.1124 -0.2772 -0.0006
  112OSM    H7S11593   4.800   3.046   9.858  0.6661  1.5343 -0.6919
  112OSM    H7T11594   4.882   2.889   9.825 -2.6249 -0.2430  0.5515
  112OSM    C8S11595   4.838   3.008   9.651  0.1599 -0.0094  0.0439
  112OSM    H8S11596   4.915   2.952   9.593 -0.7340 -0.9119 -0.2959
  112OSM    H8T11597   4.840   3.117   9.630 -1.8383  0.2092  0.7327
  112OSM    C9S11598   4.705   2.935   9.608 -0.1005 -0.1411  0.0056
  112OSM    H9S11599   4.615   2.993   9.636 -1.8927 -2.0953 -1.2860
  112OSM    H9T11600   4.685   2.844   9.668 -2.1382  0.7540  0.7729
  112OSM   C10S11601   4.700   2.918   9.455 -0.0866 -0.0348  0.1668
  112OSM   H10S11602   4.793   2.868   9.420  0.0828  0.3580  0.0460
  112OSM   H10T11603   4.689   3.018   9.409 -0.0259  0.3581  0.9895
  112OSM   C11S11604   4.592   2.822   9.404 -0.2402  0.7055  0.0541
  112OSM   H11S11605   4.489   2.850   9.435 -0.3997 -1.8937  2.3138
  112OSM   H11T11606   4.621   2.730   9.460  0.1848  0.8045  0.0034
  112OSM   C12S11607   4.599   2.797   9.259  0.3565 -0.1027 -0.0882
  112OSM   H12S11608   4.700   2.757   9.236  1.5071  1.8384  1.2578
  112OSM   H12T11609   4.603   2.898   9.212  0.6649 -0.4725 -0.8658
  112OSM   C13S11610   4.492   2.707   9.205 -0.1342  0.4473 -0.2476
  112OSM   H13S11611   4.395   2.741   9.247  0.4972  1.1145  0.6938
  112OSM   H13T11612   4.512   2.606   9.247 -1.3959 -0.4232 -1.6632
  112OSM   C14S11613   4.476   2.699   9.052  0.4925 -0.0630 -0.5191
  112OSM   H14S11614   4.418   2.608   9.026 -2.3578  2.0054 -2.0037
  112OSM   H14T11615   4.580   2.695   9.013  0.4541  2.3086 -1.0027
  112OSM   C15S11616   4.406   2.821   8.994 -0.6621 -0.3231 -0.4956
  112OSM   H15S11617   4.479   2.895   8.956 -2.6460  1.0144 -1.8739
  112OSM   H15T11618   4.344   2.873   9.071  1.7817  2.7809 -0.4142
  112OSM   C16S11619   4.322   2.796   8.872  0.1324 -0.3493  0.2135
  112OSM   H16S11620   4.268   2.888   8.840  0.8049  0.0986  0.3423
  112OSM   H16T11621   4.251   2.718   8.906  1.7320 -1.3727  1.3765
  112OSM   C17S11622   4.395   2.742   8.754 -0.2589  0.0357 -0.7648
  112OSM   H17S11623   4.430   2.638   8.772  0.1609 -0.0885 -2.1407
  112OSM   H17T11624   4.481   2.811   8.742 -1.6320  1.4021 -3.5611
  112OSM   C18S11625   4.319   2.741   8.620  0.4131  0.2924 -0.1204
  112OSM   H18S11626   4.214   2.708   8.638  0.0275  1.5658  0.1162
  112OSM   H18T11627   4.374   2.673   8.552  1.0646  0.1939  0.4906
  112OSM   H18U11628   4.317   2.845   8.582 -1.0202  0.2266 -0.2902
  112OSM    C1F11629   4.750   3.132  10.342 -0.3324  0.9373  0.0289
  112OSM     OF11630   4.735   3.252  10.372 -0.0010  0.3755 -0.1925
  112OSM    C2F11631   4.644   3.032  10.370 -0.0087 -0.5280 -0.6578
  112OSM    H2F11632   4.605   3.048  10.472  0.9217 -0.2383 -0.3379
  112OSM    H2G11633   4.686   2.929  10.367  1.7864  0.0185  2.1503
  112OSM    C3F11634   4.533   3.044  10.266  0.1031  0.0729  0.2953
  112OSM    H3F11635   4.505   3.150  10.244 -0.8590 -0.3031 -0.3458
  112OSM    H3G11636   4.444   2.992  10.307 -0.3171  2.4098  2.6198
  112OSM    C4F11637   4.564   2.965  10.141 -0.3118 -0.2128  0.6973
  112OSM    H4F11638   4.565   2.859  10.174 -0.7189  0.1226  1.8362
  112OSM    H4G11639   4.662   2.994  10.098  0.2171  0.6650  2.3958
  112OSM    C5F11640   4.456   2.985  10.029 -0.1338  0.4979  0.8336
  112OSM    H5F11641   4.487   3.069   9.963 -0.5941 -0.2537 -0.3697
  112OSM    H5G11642   4.358   2.995  10.082 -0.0542  4.3248  0.5290
  112OSM    C6F11643   4.455   2.863   9.938  0.3221 -0.2974 -0.8169
  112OSM    H6F11644   4.479   2.768   9.990  0.1651  0.0031 -0.1733
  112OSM    H6G11645   4.525   2.873   9.853  0.8054  2.9333 -0.1688
  112OSM    C7F11646   4.303   2.845   9.886 -0.3382 -0.2915 -0.4412
  112OSM    H7F11647   4.244   2.829   9.979  1.0340  0.4607  0.5975
  112OSM    H7G11648   4.295   2.753   9.824 -0.9880 -1.3756  1.1877
  112OSM    C8F11649   4.231   2.963   9.818 -0.3725  0.1501  0.9526
  112OSM    H8F11650   4.226   3.044   9.895 -2.4059 -0.7270  1.8040
  112OSM    H8G11651   4.125   2.945   9.792  0.5000 -1.6008 -1.8086
  112OSM    C9F11652   4.306   2.997   9.692 -0.1853 -0.2390  0.6659
  112OSM    H9F11653   4.401   3.048   9.715 -0.0038 -0.8600  1.3148
  112OSM   C10F11654   4.272   2.967   9.563 -0.3593 -0.3098 -0.2006
  112OSM   H10F11655   4.344   2.996   9.485  1.2799 -1.3990  0.8555
  112OSM   C11F11656   4.153   2.895   9.504 -0.3333  0.3580 -0.3456
  112OSM   H11F11657   4.096   2.843   9.584  0.4753  2.0013  1.3595
  112OSM   H11G11658   4.190   2.817   9.434 -0.5545 -1.5562  1.5632
  112OSM   C12F11659   4.058   2.990   9.435 -0.4141 -0.1209 -0.3129
  112OSM   H12F11660   4.103   3.046   9.350 -1.4769 -0.2635 -0.9853
  112OSM   H12G11661   4.030   3.077   9.498  1.2425  0.0589  0.2314
  112OSM   C13F11662   3.938   2.910   9.380  0.4780 -0.2189 -0.3904
  112OSM   H13F11663   3.904   2.859   9.473  2.2487 -0.8903 -0.0863
  112OSM   H13G11664   3.970   2.833   9.307 -1.3149 -1.1309 -0.2854
  112OSM   C14F11665   3.825   2.991   9.316 -0.1055 -0.1598 -0.3767
  112OSM   H14F11666   3.791   3.071   9.384  1.4036  0.0605  0.1496
  112OSM   H14G11667   3.729   2.935   9.306  0.7373 -1.8579  0.6147
  112OSM   C15F11668   3.866   3.051   9.176 -0.0036  0.9163  0.3781
  112OSM   H15F11669   3.925   2.972   9.125 -0.9513  1.4708 -1.6667
  112OSM   H15G11670   3.939   3.130   9.202  0.8304  0.3369 -0.1441
  112OSM   C16F11671   3.750   3.092   9.086 -0.2770  0.1273 -0.1677
  112OSM   H16F11672   3.778   3.163   9.005 -0.0227  0.1902 -0.0256
  112OSM   H16G11673   3.689   3.159   9.150 -1.7293 -0.4657 -0.8935
  112OSM   C17F11674   3.675   2.973   9.034  0.2106  0.3046  0.1133
  112OSM   H17F11675   3.614   2.942   9.121  0.7370  0.2247  0.4540
  112OSM   H17G11676   3.750   2.893   9.018 -1.4246 -1.5916  1.4319
  112OSM   C18F11677   3.584   2.997   8.914 -0.1056 -0.4182 -0.1915
  112OSM   H18F11678   3.516   3.081   8.940 -0.4321 -1.5252  2.9555
  112OSM   H18G11679   3.523   2.910   8.882 -1.7451  1.4540 -2.4216
  112OSM   H18H11680   3.649   3.028   8.829  0.7746  1.5259  1.1133
  113OSM      N11681   5.547   0.793  10.879 -0.0815 -0.4077  0.9472
  113OSM    C1511682   5.413   0.747  10.826 -0.3228  0.4581 -0.8364
  113OSM   H15A11683   5.443   0.654  10.780  1.4868  0.9927 -0.8255
  113OSM   H15B11684   5.369   0.811  10.750  1.7296  0.5125 -2.0386
  113OSM   H15C11685   5.339   0.727  10.902  0.0070 -0.1765 -0.6755
  113OSM    C1411686   5.590   0.710  10.997 -0.4136 -0.3087  0.4105
  113OSM   H14A11687   5.677   0.753  11.044  1.2866  0.8163 -3.3562
  113OSM   H14B11688   5.613   0.607  10.972 -0.8340 -0.8001  1.9112
  113OSM   H14C11689   5.517   0.703  11.077 -0.5960  0.8274  0.3614
  113OSM    C1311690   5.648   0.769  10.769 -0.2156 -0.0184 -0.1246
  113OSM   H13A11691   5.623   0.796  10.668  1.4348 -1.1396 -0.8750
  113OSM   H13B11692   5.669   0.665  10.749  0.4113 -0.2933  1.7617
  113OSM   H13C11693   5.741   0.820  10.790  0.3728 -1.2186  0.2943
  113OSM    C1211694   5.534   0.935  10.922  0.2657  0.0119 -0.6597
  113OSM   H12A11695   5.618   0.962  10.984  0.4322 -1.2916 -0.2939
  113OSM   H12B11696   5.445   0.966  10.976 -0.3786  0.2275 -1.7967
  113OSM    C1111697   5.520   1.042  10.805 -0.0956  0.1534 -0.2988
  113OSM   H11A11698   5.594   1.023  10.724  0.6771 -1.1749  0.6651
  113OSM   H11B11699   5.548   1.140  10.848  0.2765  0.4299 -1.1487
  113OSM      P11700   5.265   1.108  10.805  0.2151  0.2674 -0.0761
  113OSM    O1311701   5.152   1.084  10.720  0.3660  0.1930  0.5104
  113OSM    O1411702   5.242   1.084  10.948  0.3970  0.1124 -0.4069
  113OSM    O1111703   5.306   1.258  10.793 -0.5066  0.0588  0.0917
  113OSM    O1211704   5.396   1.033  10.744  0.1343 -0.3072  0.1483
  113OSM    C1S11705   5.355   1.305  10.661  0.5949 -0.0707 -0.1787
  113OSM    H1S11706   5.422   1.230  10.614  2.1990  1.7202 -0.8753
  113OSM    H1T11707   5.421   1.393  10.676 -2.0332  1.8091  1.1047
  113OSM     NF11708   5.318   1.385  10.444 -0.1811 -0.1434  0.3399
  113OSM    HNF11709   5.345   1.481  10.431  1.5360 -0.8593 -2.2848
  113OSM    C2S11710   5.245   1.337  10.560  0.4470  0.2735  0.0526
  113OSM    H2S11711   5.183   1.250  10.531 -0.1377  1.4012 -2.2588
  113OSM    C3S11712   5.145   1.434  10.615  0.2663 -0.2480  0.5554
  113OSM    H3S11713   5.202   1.527  10.636 -0.6754  0.2272  1.0634
  113OSM     O311714   5.071   1.395  10.730 -0.2040 -0.0149  0.2610
  113OSM    HO311715   5.109   1.311  10.756  2.3019  0.9834  0.1413
  113OSM    C4S11716   5.048   1.468  10.499  0.5676  0.5195  0.4911
  113OSM    H4S11717   5.081   1.550  10.434  0.5154  0.6921  0.6799
  113OSM    C5S11718   4.934   1.407  10.471 -0.2358 -0.3977  0.0987
  113OSM    H5S11719   4.901   1.323  10.535  0.5964 -0.0994  0.9361
  113OSM    C6S11720   4.855   1.432  10.347  0.1353 -0.2430  0.2562
  113OSM    H6S11721   4.753   1.469  10.375 -0.6936 -2.3744  0.2515
  113OSM    H6T11722   4.828   1.337  10.295 -0.3224  0.8904 -1.6737
  113OSM    C7S11723   4.932   1.506  10.233 -0.3445 -0.0427 -0.6045
  113OSM    H7S11724   5.036   1.472  10.216 -0.1066  0.8052 -0.9044
  113OSM    H7T11725   4.931   1.612  10.265  0.3317  0.0192 -0.7804
  113OSM    C8S11726   4.863   1.495  10.098 -0.0387 -0.2119  0.5626
  113OSM    H8S11727   4.763   1.539  10.115 -0.4115 -0.9130  0.2457
  113OSM    H8T11728   4.865   1.389  10.064 -0.6939 -0.5573  1.5631
  113OSM    C9S11729   4.942   1.589   9.998  0.3811 -0.2413 -0.1205
  113OSM    H9S11730   5.047   1.553   9.996 -0.2223 -2.1913  0.4449
  113OSM    H9T11731   4.934   1.693  10.035  1.2629 -0.9984  2.3908
  113OSM   C10S11732   4.894   1.584   9.854  0.2039 -0.2311  0.5894
  113OSM   H10S11733   4.931   1.671   9.796  1.1623 -1.9936 -1.6340
  113OSM   H10T11734   4.784   1.578   9.837 -0.1018 -0.8272  2.5547
  113OSM   C11S11735   4.962   1.479   9.761 -0.1464 -0.4622 -0.5336
  113OSM   H11S11736   4.932   1.374   9.781  1.2685 -0.9816 -1.0007
  113OSM   H11T11737   5.071   1.482   9.782  0.1795 -1.0590 -1.9966
  113OSM   C12S11738   4.938   1.498   9.606 -0.0501  0.7817 -0.4424
  113OSM   H12S11739   4.828   1.509   9.593 -0.2930 -0.2574  0.5627
  113OSM   H12T11740   4.971   1.397   9.573  0.0229  1.0024 -1.0682
  113OSM   C13S11741   5.008   1.617   9.545 -0.2617  0.0734  0.2136
  113OSM   H13S11742   5.110   1.614   9.589 -0.8073 -0.0060  1.4900
  113OSM   H13T11743   4.964   1.718   9.561 -1.9013 -0.4139 -0.9868
  113OSM   C14S11744   5.026   1.594   9.401  0.0348  0.2911  0.6978
  113OSM   H14S11745   5.076   1.497   9.378 -0.8967 -0.2198  0.7469
  113OSM   H14T11746   5.092   1.673   9.362 -0.7441 -0.5742 -2.7310
  113OSM   C15S11747   4.897   1.601   9.313 -0.5826 -0.1363 -0.2350
  113OSM   H15S11748   4.850   1.701   9.321 -0.9635 -0.1646 -1.6633
  113OSM   H15T11749   4.828   1.520   9.347  2.1421 -2.2368  0.6461
  113OSM   C16S11750   4.930   1.571   9.164  0.8356  0.0832  0.6185
  113OSM   H16S11751   4.992   1.480   9.152 -0.4025 -0.9334  1.5615
  113OSM   H16T11752   5.003   1.652   9.143 -0.3037  0.8872 -0.4388
  113OSM   C17S11753   4.825   1.584   9.056  0.5925 -0.3986  0.0478
  113OSM   H17S11754   4.756   1.667   9.084  1.1733  0.4775 -1.0691
  113OSM   H17T11755   4.776   1.484   9.058  1.6870 -1.0128 -1.8414
  113OSM   C18S11756   4.893   1.609   8.922  0.3750  0.4988  0.6451
  113OSM   H18S11757   4.967   1.529   8.903 -0.2595  0.0138  0.1508
  113OSM   H18T11758   4.950   1.704   8.920  2.4341 -0.5808  2.7932
  113OSM   H18U11759   4.832   1.606   8.829  1.6063 -2.3694 -0.1920
  113OSM    C1F11760   5.371   1.301  10.349  0.0435  0.7128 -0.2477
  113OSM     OF11761   5.378   1.178  10.363 -0.6027  0.2193  0.1277
  113OSM    C2F11762   5.420   1.360  10.221 -0.5510  0.4726 -0.2681
  113OSM    H2F11763   5.529   1.348  10.204 -1.1796 -2.4774 -3.2831
  113OSM    H2G11764   5.377   1.463  10.216 -1.7322  0.0897  1.2717
  113OSM    C3F11765   5.373   1.290  10.096  0.7662  0.4798  0.3426
  113OSM    H3F11766   5.264   1.301  10.077  0.7443  2.9359  1.6235
  113OSM    H3G11767   5.402   1.182  10.095  0.0475  0.2795  0.4929
  113OSM    C4F11768   5.443   1.338   9.970 -0.5891 -0.3061  0.5714
  113OSM    H4F11769   5.545   1.295   9.969  0.0711  1.0660 -2.1002
  113OSM    H4G11770   5.441   1.449   9.965  0.2350 -0.3298 -1.1337
  113OSM    C5F11771   5.381   1.289   9.836  0.7884 -0.4803 -0.5231
  113OSM    H5F11772   5.283   1.340   9.852  1.2049 -0.4927  2.6587
  113OSM    H5G11773   5.377   1.178   9.842  2.7475 -0.5187  1.3304
  113OSM    C6F11774   5.438   1.355   9.707  0.0630 -0.0211 -0.7035
  113OSM    H6F11775   5.547   1.334   9.701  0.2074  0.9133 -1.8052
  113OSM    H6G11776   5.414   1.463   9.716 -0.9468 -0.2223 -0.9065
  113OSM    C7F11777   5.379   1.290   9.581  0.1552  0.2361 -0.2568
  113OSM    H7F11778   5.272   1.312   9.560  0.5143  0.1985 -2.3106
  113OSM    H7G11779   5.380   1.179   9.593  0.3955  0.1818 -0.7858
  113OSM    C8F11780   5.462   1.334   9.454  0.2390 -0.1197 -0.1772
  113OSM    H8F11781   5.570   1.325   9.478  0.3500  2.7095  0.7795
  113OSM    H8G11782   5.441   1.443   9.451  0.6949 -0.0298 -0.2376
  113OSM    C9F11783   5.418   1.256   9.338 -0.4715 -0.4196  0.2702
  113OSM    H9F11784   5.438   1.150   9.360  3.7482  0.8920  4.3637
  113OSM   C10F11785   5.350   1.304   9.225 -0.1770  0.1408  0.0687
  113OSM   H10F11786   5.304   1.235   9.151  0.9790 -0.6570  0.0731
  113OSM   C11F11787   5.317   1.450   9.202 -0.3754  0.5997  0.0020
  113OSM   H11F11788   5.371   1.518   9.272  1.1371 -0.2556 -0.2834
  113OSM   H11G11789   5.207   1.466   9.207 -0.5614 -0.1764 -1.1295
  113OSM   C12F11790   5.349   1.507   9.055 -0.6690 -0.1111  0.4204
  113OSM   H12F11791   5.272   1.475   8.982  1.5506  0.5586 -2.3855
  113OSM   H12G11792   5.442   1.461   9.016 -0.3924  1.0343 -0.2934
  113OSM   C13F11793   5.351   1.661   9.060  0.2337 -0.4422  0.0979
  113OSM   H13F11794   5.433   1.697   9.127 -0.9359 -2.9095  3.1102
  113OSM   H13G11795   5.261   1.698   9.114  0.4536  0.6097 -0.2179
  113OSM   C14F11796   5.360   1.729   8.915  0.5256  0.9471 -1.4281
  113OSM   H14F11797   5.456   1.691   8.875  1.6458 -0.3979  2.1151
  113OSM   H14G11798   5.382   1.835   8.937  2.7097  0.1658  0.6308
  113OSM   C15F11799   5.237   1.704   8.822 -0.5845 -0.0199  0.3098
  113OSM   H15F11800   5.153   1.746   8.881 -2.1161 -2.3913 -0.0759
  113OSM   H15G11801   5.222   1.596   8.803  0.0188 -0.1843  0.7349
  113OSM   C16F11802   5.234   1.787   8.693 -0.0467  0.0668  0.3571
  113OSM   H16F11803   5.251   1.894   8.717 -3.1435  0.3151  1.9347
  113OSM   H16G11804   5.127   1.778   8.665  0.1417  0.5489 -0.5330
  113OSM   C17F11805   5.329   1.724   8.595  1.1039  0.3787  0.0350
  113OSM   H17F11806   5.328   1.613   8.598  1.6641  0.2874 -1.8211
  113OSM   H17G11807   5.432   1.745   8.629  0.9780  1.6011 -0.3081
  113OSM   C18F11808   5.311   1.764   8.445 -0.4868 -0.0598 -0.5521
  113OSM   H18F11809   5.317   1.875   8.443  0.0518 -0.0820 -0.3425
  113OSM   H18G11810   5.211   1.733   8.410 -0.2641  0.4068 -1.6556
  113OSM   H18H11811   5.393   1.728   8.379  0.7215  0.4709  0.6098
  114OSM      N11812   1.268   2.010  11.086  0.3626 -0.5492  0.2444
  114OSM    C1511813   1.345   1.970  10.965 -0.0600  0.1844  0.0328
  114OSM   H15A11814   1.280   1.973  10.878 -1.0461 -0.0180  0.7411
  114OSM   H15B11815   1.384   1.870  10.978  0.2498  0.2021 -0.6925
  114OSM   H15C11816   1.430   2.033  10.947 -0.2259  0.3742 -0.0931
  114OSM    C1411817   1.172   1.901  11.123 -0.2765  1.0569  0.8345
  114OSM   H14A11818   1.125   1.911  11.220  1.5983 -1.7140  2.1675
  114OSM   H14B11819   1.217   1.803  11.128  1.0438  1.5555 -0.5726
  114OSM   H14C11820   1.101   1.902  11.042  2.2421  0.9151 -1.5204
  114OSM    C1311821   1.360   2.037  11.197  0.2830  0.1113  0.0457
  114OSM   H13A11822   1.412   1.954  11.242 -0.1588 -1.1173 -1.6308
  114OSM   H13B11823   1.302   2.093  11.268  1.4239  2.1261 -0.5156
  114OSM   H13C11824   1.436   2.104  11.157  1.0993 -1.2031 -0.6991
  114OSM    C1211825   1.182   2.131  11.044 -0.0431  0.5937 -0.7745
  114OSM   H12A11826   1.112   2.088  10.974 -1.9966  0.9877  0.8277
  114OSM   H12B11827   1.247   2.197  10.988 -0.0765  0.0298 -1.4862
  114OSM    C1111828   1.103   2.210  11.156  0.2776 -0.1277  0.2106
  114OSM   H11A11829   1.077   2.309  11.112 -2.2177 -0.3448  1.0499
  114OSM   H11B11830   1.176   2.235  11.236 -1.7867  1.1912  1.7964
  114OSM      P11831   0.847   2.138  11.153  0.0845  0.0223 -0.0063
  114OSM    O1311832   0.767   2.020  11.184 -0.2441  0.0150 -0.3351
  114OSM    O1411833   0.791   2.269  11.199 -0.0147  0.5858 -0.1532
  114OSM    O1111834   0.868   2.148  10.998  0.3072 -0.1789 -0.1685
  114OSM    O1211835   0.992   2.136  11.215 -0.3677  0.0637 -0.1415
  114OSM    C1S11836   0.756   2.143  10.904  0.7738  0.2694  0.5361
  114OSM    H1S11837   0.661   2.183  10.943 -0.1751 -1.0826 -0.2897
  114OSM    H1T11838   0.736   2.038  10.873 -0.2282  0.4697  0.4944
  114OSM     NF11839   0.671   2.197  10.682 -0.0281  0.6301 -0.9772
  114OSM    HNF11840   0.666   2.121  10.618  1.1182 -1.0784  0.8331
  114OSM    C2S11841   0.789   2.214  10.768  0.5874  0.4192 -0.7151
  114OSM    H2S11842   0.807   2.319  10.798 -2.6296  0.1323  3.0237
  114OSM    C3S11843   0.922   2.155  10.704  0.1305  0.5138 -0.3640
  114OSM    H3S11844   0.908   2.048  10.676  1.4979  0.0716  0.5224
  114OSM     O311845   1.025   2.148  10.801  0.1961 -0.1156  0.0987
  114OSM    HO311846   0.981   2.174  10.882 -1.0549 -0.2835 -0.5065
  114OSM    C4S11847   0.954   2.243  10.581  0.7922  0.3492 -0.8943
  114OSM    H4S11848   0.934   2.191  10.486 -1.9850 -1.4085  0.5306
  114OSM    C5S11849   1.002   2.366  10.584  0.3918  0.0512  0.4983
  114OSM    H5S11850   1.015   2.417  10.680 -0.0481  1.5244 -0.2009
  114OSM    C6S11851   1.028   2.464  10.474  0.3142 -0.2695  0.4321
  114OSM    H6S11852   1.121   2.520  10.501 -0.1011  0.7129 -0.1438
  114OSM    H6T11853   0.957   2.549  10.468 -1.5206 -1.8671 -2.0593
  114OSM    C7S11854   1.043   2.406  10.328 -0.4957  0.0871  0.0578
  114OSM    H7S11855   0.949   2.357  10.295 -0.2058  0.1275 -0.8763
  114OSM    H7T11856   1.128   2.334  10.329 -0.4764  0.1166  0.7931
  114OSM    C8S11857   1.059   2.520  10.219  0.3812  0.0973 -0.3220
  114OSM    H8S11858   1.140   2.589  10.247  1.0860 -0.0004 -1.9893
  114OSM    H8T11859   0.967   2.579  10.198 -0.1510 -0.4885  0.3394
  114OSM    C9S11860   1.105   2.448  10.087  0.7179  0.8040 -0.3421
  114OSM    H9S11861   1.046   2.354  10.089  0.8235  0.7431  0.3366
  114OSM    H9T11862   1.212   2.420  10.089  0.2304 -1.1617  0.9123
  114OSM   C10S11863   1.069   2.531   9.967  0.1597  0.2310  0.0390
  114OSM   H10S11864   1.114   2.632   9.982 -0.9115  0.5834  1.0166
  114OSM   H10T11865   0.959   2.537   9.981  0.2265 -1.5483  1.7296
  114OSM   C11S11866   1.100   2.471   9.834 -0.5554  0.0446 -0.4836
  114OSM   H11S11867   1.065   2.366   9.817  0.8547 -0.2730 -1.5882
  114OSM   H11T11868   1.210   2.475   9.823 -0.5666 -0.0809 -0.6426
  114OSM   C12S11869   1.033   2.552   9.722  0.2289 -0.0228 -0.3063
  114OSM   H12S11870   1.071   2.656   9.721 -1.3101  0.5700 -0.2153
  114OSM   H12T11871   0.923   2.562   9.736  0.2312 -0.0871 -0.2427
  114OSM   C13S11872   1.044   2.480   9.588  0.3898  1.2337 -0.2902
  114OSM   H13S11873   1.002   2.379   9.605 -0.4855  1.7546  0.7830
  114OSM   H13T11874   1.155   2.479   9.576  0.8203 -0.9333  2.6256
  114OSM   C14S11875   0.975   2.549   9.473  0.0881 -0.8110  0.3019
  114OSM   H14S11876   1.019   2.651   9.468  1.0984 -1.2698 -0.5633
  114OSM   H14T11877   0.865   2.552   9.489 -0.2280  1.1022 -1.6999
  114OSM   C15S11878   0.990   2.482   9.341  0.3671  0.2379 -0.0148
  114OSM   H15S11879   0.967   2.373   9.336 -0.8594  0.5317 -1.9665
  114OSM   H15T11880   1.099   2.489   9.321  0.5460  0.4610  1.0071
  114OSM   C16S11881   0.921   2.552   9.227  0.5283 -0.7983 -0.1307
  114OSM   H16S11882   0.960   2.651   9.197  0.7281 -1.6045 -2.7874
  114OSM   H16T11883   0.814   2.568   9.254  0.9074  1.5653  0.2250
  114OSM   C17S11884   0.920   2.487   9.085  0.2661  1.0313  0.5383
  114OSM   H17S11885   1.026   2.491   9.054  0.2337 -2.7716 -0.5897
  114OSM   H17T11886   0.857   2.545   9.014  0.2021 -1.1490 -1.3041
  114OSM   C18S11887   0.875   2.341   9.074  0.1508 -0.0301  0.1173
  114OSM   H18S11888   0.896   2.320   8.967  3.0620 -0.1062  0.6494
  114OSM   H18T11889   0.767   2.336   9.101  0.5116  2.3198  2.3678
  114OSM   H18U11890   0.929   2.279   9.147 -0.2822 -2.4110 -1.4771
  114OSM    C1F11891   0.552   2.249  10.709  0.4125 -0.7722  0.2181
  114OSM     OF11892   0.538   2.325  10.804 -0.5316 -0.4723 -0.5932
  114OSM    C2F11893   0.431   2.211  10.627 -0.4561 -0.3491  0.7494
  114OSM    H2F11894   0.345   2.200  10.697 -0.8744  0.8953  0.4636
  114OSM    H2G11895   0.459   2.109  10.592 -2.9736 -1.2744  1.1539
  114OSM    C3F11896   0.402   2.310  10.512 -0.3120 -0.4922 -0.0057
  114OSM    H3F11897   0.487   2.302  10.440 -1.8328 -4.1675 -1.6443
  114OSM    H3G11898   0.389   2.409  10.561 -0.1131 -0.3858 -0.1641
  114OSM    C4F11899   0.274   2.267  10.441 -0.1628  0.0944 -0.7721
  114OSM    H4F11900   0.206   2.265  10.528  2.4170 -1.8188  1.3832
  114OSM    H4G11901   0.274   2.166  10.395 -2.1773  0.7608 -2.3759
  114OSM    C5F11902   0.247   2.373  10.332 -0.1192 -0.4974 -0.0497
  114OSM    H5F11903   0.337   2.370  10.268  0.4390 -3.1579  0.7330
  114OSM    H5G11904   0.234   2.472  10.380 -1.9791 -1.2688  1.1827
  114OSM    C6F11905   0.123   2.344  10.249  0.3094  0.4127 -0.0278
  114OSM    H6F11906   0.040   2.349  10.322  1.5963 -2.0011  1.7459
  114OSM    H6G11907   0.133   2.238  10.219  3.6222  0.4639  0.5076
  114OSM    C7F11908   0.114   2.423  10.122 -0.5305  0.6136 -0.0931
  114OSM    H7F11909   0.210   2.397  10.073  0.7663 -0.3731  2.7766
  114OSM    H7G11910   0.107   2.532  10.142  0.0712  0.9305 -1.4599
  114OSM    C8F11911  -0.014   2.387  10.042 -0.0165  0.3030 -0.0397
  114OSM    H8F11912  -0.059   2.478   9.996 -3.6700 -1.1667  0.3219
  114OSM    H8G11913  -0.096   2.363  10.113  0.7888 -3.3160 -0.1702
  114OSM    C9F11914   0.003   2.269   9.953 -0.5331  0.6242  0.3080
  114OSM    H9F11915   0.105   2.231   9.937 -1.2246 -0.1912 -2.8408
  114OSM   C10F11916  -0.096   2.205   9.896  0.2634 -0.1207  0.3070
  114OSM   H10F11917  -0.078   2.138   9.810 -3.4912  0.4963 -1.1503
  114OSM   C11F11918  -0.243   2.220   9.907  0.0710  0.0070 -0.0078
  114OSM   H11F11919  -0.266   2.306   9.972  0.9041  1.2392 -1.2807
  114OSM   H11G11920  -0.275   2.125   9.955  0.3664  1.2611  2.8121
  114OSM   C12F11921  -0.321   2.251   9.778 -0.6947  0.0288 -0.3630
  114OSM   H12F11922  -0.271   2.344   9.743 -2.0458  0.9958  0.1934
  114OSM   H12G11923  -0.428   2.269   9.800 -0.8468 -0.7837 -0.3997
  114OSM   C13F11924  -0.304   2.143   9.668  0.1088  0.7003  0.8594
  114OSM   H13F11925  -0.316   2.044   9.717  1.6999  1.0756  2.0622
  114OSM   H13G11926  -0.201   2.139   9.627 -0.4955 -0.9134 -0.6677
  114OSM   C14F11927  -0.394   2.161   9.547 -0.3500  0.6698 -0.2997
  114OSM   H14F11928  -0.371   2.261   9.504  1.1922  0.4201 -0.1162
  114OSM   H14G11929  -0.497   2.171   9.586  0.7697  0.9778  2.8752
  114OSM   C15F11930  -0.373   2.042   9.450 -0.5638  0.4177  0.6633
  114OSM   H15F11931  -0.378   1.943   9.502 -0.6566 -0.1597 -0.4212
  114OSM   H15G11932  -0.264   2.048   9.430 -0.2740 -0.2307  1.9295
  114OSM   C16F11933  -0.454   2.051   9.327 -0.5400  0.4101  0.5361
  114OSM   H16F11934  -0.561   2.051   9.356 -0.1984  2.1634  1.9628
  114OSM   H16G11935  -0.451   1.962   9.260 -3.6452  1.6405 -1.5129
  114OSM   C17F11936  -0.411   2.169   9.242  0.1667  0.2001 -0.1461
  114OSM   H17F11937  -0.303   2.153   9.222  0.0369  0.9179 -1.5091
  114OSM   H17G11938  -0.431   2.263   9.297 -0.5664  1.9837 -3.1980
  114OSM   C18F11939  -0.481   2.171   9.104 -0.3864  0.3850 -0.2145
  114OSM   H18F11940  -0.582   2.216   9.115 -0.0486  1.7294 -2.0737
  114OSM   H18G11941  -0.489   2.067   9.065  0.4880  0.6164 -1.0547
  114OSM   H18H11942  -0.424   2.234   9.032 -1.2074 -0.5888 -1.7777
  115OSM      N11943   6.851   6.228   6.238  0.0636  0.0881 -0.4358
  115OSM    C1511944   6.973   6.211   6.330 -0.6092  0.0023 -0.0411
  115OSM   H15A11945   7.056   6.179   6.269 -1.0989 -0.2983 -0.5665
  115OSM   H15B11946   6.962   6.142   6.413  0.1916 -1.7288 -1.3186
  115OSM   H15C11947   6.989   6.303   6.383  1.5490 -0.0025 -0.5849
  115OSM    C1411948   6.882   6.326   6.134  0.6018 -0.4000 -0.7217
  115OSM   H14A11949   6.897   6.428   6.166 -2.5466 -0.0576 -0.0582
  115OSM   H14B11950   6.800   6.339   6.065 -1.5183 -3.1953  1.1021
  115OSM   H14C11951   6.977   6.307   6.086  0.5750  0.3786 -1.0999
  115OSM    C1311952   6.816   6.098   6.165 -0.0177 -0.0929 -0.1491
  115OSM   H13A11953   6.894   6.072   6.095 -0.2972 -2.7366  0.4508
  115OSM   H13B11954   6.724   6.098   6.108 -0.3161 -0.4302  0.3300
  115OSM   H13C11955   6.817   6.013   6.230  1.4606 -1.1247 -1.4483
  115OSM    C1211956   6.731   6.270   6.328  0.4928  0.2138  0.0974
  115OSM   H12A11957   6.761   6.364   6.373  0.1954 -0.0132  0.7953
  115OSM   H12B11958   6.722   6.207   6.415 -0.5202 -0.8873 -0.7689
  115OSM    C1111959   6.587   6.279   6.261 -0.2829 -0.3928 -0.2260
  115OSM   H11A11960   6.521   6.286   6.351  0.4187  2.1395  0.1691
  115OSM   H11B11961   6.561   6.191   6.198  0.5114 -0.8603  0.0886
  115OSM      P11962   6.567   6.547   6.233 -0.3867 -0.6500  0.2275
  115OSM    O1311963   6.682   6.615   6.172  0.0506 -0.7453 -0.2053
  115OSM    O1411964   6.434   6.605   6.197  0.0350  0.2691 -0.0130
  115OSM    O1111965   6.593   6.551   6.389 -0.0554 -0.9914 -0.6822
  115OSM    O1211966   6.566   6.394   6.177  0.3284  0.2798 -0.7035
  115OSM    C1S11967   6.574   6.658   6.473 -0.4902  0.1944  0.2001
  115OSM    H1S11968   6.464   6.677   6.476 -0.6418 -0.3985 -1.0178
  115OSM    H1T11969   6.639   6.744   6.447 -1.3932  1.5609  2.1441
  115OSM     NF11970   6.587   6.754   6.696  0.6265  0.3340 -0.0826
  115OSM    HNF11971   6.652   6.830   6.691 -1.4707  2.2785  0.5873
  115OSM    C2S11972   6.617   6.637   6.621 -0.5689  0.3005 -0.3830
  115OSM    H2S11973   6.568   6.546   6.662  0.8077  0.2245  1.2034
  115OSM    C3S11974   6.770   6.594   6.624  0.6090 -0.7654 -0.1212
  115OSM    H3S11975   6.823   6.683   6.584 -1.4375  0.3380 -0.5478
  115OSM     O311976   6.808   6.488   6.538 -0.6774 -0.2470  0.1718
  115OSM    HO311977   6.738   6.494   6.472 -0.8726 -0.4422  0.3598
  115OSM    C4S11978   6.817   6.566   6.769 -0.0145 -0.2188  0.5282
  115OSM    H4S11979   6.851   6.659   6.817  0.0160  0.0486 -0.0032
  115OSM    C5S11980   6.820   6.444   6.827 -0.8283 -0.0329 -0.3319
  115OSM    H5S11981   6.785   6.355   6.772 -2.5027  0.9118 -0.8680
  115OSM    C6S11982   6.868   6.413   6.967 -0.0400  0.2115  0.8790
  115OSM    H6S11983   6.964   6.365   6.939 -0.7969 -0.5421 -0.5116
  115OSM    H6T11984   6.798   6.344   7.017 -1.5597  1.6891  0.8920
  115OSM    C7S11985   6.898   6.530   7.070 -0.2860  1.0405  0.8170
  115OSM    H7S11986   6.979   6.590   7.023 -2.8909  1.7811 -3.1968
  115OSM    H7T11987   6.942   6.472   7.154 -1.1572 -4.0553 -1.8082
  115OSM    C8S11988   6.782   6.616   7.112  1.0331  0.0568 -0.1659
  115OSM    H8S11989   6.699   6.550   7.145  1.0796  0.2470  0.3525
  115OSM    H8T11990   6.748   6.664   7.018  2.6581  1.9449  0.1396
  115OSM    C9S11991   6.800   6.730   7.211 -0.3968 -0.3531  0.1097
  115OSM    H9S11992   6.715   6.801   7.207  0.0276  0.4636  3.2310
  115OSM    H9T11993   6.893   6.782   7.180  1.5304 -3.3496  0.3939
  115OSM   C10S11994   6.835   6.690   7.356  0.0286  0.4779 -0.4115
  115OSM   H10S11995   6.921   6.620   7.359  0.5429  1.1284  0.6102
  115OSM   H10T11996   6.758   6.635   7.415  0.4625 -0.0463 -0.3325
  115OSM   C11S11997   6.884   6.806   7.440 -1.0608  0.2654  0.1623
  115OSM   H11S11998   6.811   6.890   7.428  0.2068  1.3213 -0.3686
  115OSM   H11T11999   6.979   6.844   7.397 -2.1733  2.1263 -0.8050
  115OSM   C12S12000   6.913   6.767   7.586 -0.2447 -0.0267  0.7359
  115OSM   H12S12001   6.997   6.694   7.580 -0.6691 -0.4280 -0.8011
  115OSM   H12T12002   6.819   6.727   7.629 -0.3372 -0.3118  0.2840
  115OSM   C13S12003   6.968   6.889   7.659 -0.2225 -0.1151  0.5936
  115OSM   H13S12004   6.908   6.976   7.625  0.0434 -0.5430 -1.0393
  115OSM   H13T12005   7.075   6.891   7.627 -0.5602  0.7352 -0.5614
  115OSM   C14S12006   6.962   6.892   7.810  0.1156  1.1600 -0.6605
  115OSM   H14S12007   6.855   6.879   7.839  0.7661 -1.2692  1.0169
  115OSM   H14T12008   6.984   6.993   7.850  1.2774  1.2139 -1.4019
  115OSM   C15S12009   7.043   6.776   7.876  0.1366 -0.4822 -0.6429
  115OSM   H15S12010   7.005   6.683   7.828 -0.8122  0.8548 -2.6152
  115OSM   H15T12011   7.010   6.786   7.982  2.0993 -0.0022 -0.0477
  115OSM   C16S12012   7.193   6.788   7.860  0.4584 -0.2006  0.7148
  115OSM   H16S12013   7.241   6.888   7.873  0.7673 -0.0166 -1.5417
  115OSM   H16T12014   7.222   6.765   7.756  1.9121  1.6374  0.6565
  115OSM   C17S12015   7.269   6.700   7.950 -0.7293 -0.1568  0.6192
  115OSM   H17S12016   7.244   6.592   7.944  0.6590 -0.4244 -1.0949
  115OSM   H17T12017   7.249   6.734   8.054 -0.6834  1.3914  0.1519
  115OSM   C18S12018   7.426   6.703   7.940  0.7226  0.0492  0.2408
  115OSM   H18S12019   7.456   6.722   7.835  0.5812  1.1655  0.3918
  115OSM   H18T12020   7.480   6.619   7.988  0.0590  0.1666  1.2373
  115OSM   H18U12021   7.473   6.795   7.982  1.7884  0.3368 -1.4574
  115OSM    C1F12022   6.460   6.772   6.733 -0.9954 -0.0532  0.0801
  115OSM     OF12023   6.374   6.694   6.694 -0.0820 -0.2589 -0.0276
  115OSM    C2F12024   6.433   6.907   6.806 -0.2937 -0.4169  0.2867
  115OSM    H2F12025   6.382   6.977   6.736  0.8549  0.0295 -0.1243
  115OSM    H2G12026   6.525   6.962   6.837  0.2236 -1.3462  0.4381
  115OSM    C3F12027   6.339   6.890   6.930 -0.2301  0.7806  0.3673
  115OSM    H3F12028   6.260   6.814   6.915  0.3487 -0.2714  2.3460
  115OSM    H3G12029   6.282   6.985   6.936  0.5803  1.5034 -2.2360
  115OSM    C4F12030   6.410   6.858   7.062 -0.1396  0.0302  0.0911
  115OSM    H4F12031   6.486   6.939   7.071 -0.5612  0.3189  1.1418
  115OSM    H4G12032   6.454   6.757   7.051 -0.8592 -0.3663  0.7796
  115OSM    C5F12033   6.324   6.860   7.194 -0.0312  0.5886 -0.2688
  115OSM    H5F12034   6.245   6.782   7.181  1.4735 -0.9841 -0.4461
  115OSM    H5G12035   6.273   6.957   7.206 -2.2833 -0.6353  0.7002
  115OSM    C6F12036   6.415   6.825   7.316  0.3561  0.4088  0.3151
  115OSM    H6F12037   6.483   6.911   7.335 -1.6733  1.9738  0.7226
  115OSM    H6G12038   6.460   6.725   7.297 -1.9675 -0.4449 -1.0992
  115OSM    C7F12039   6.335   6.814   7.447  0.2468  0.1792  0.8270
  115OSM    H7F12040   6.264   6.732   7.425  1.1449 -0.3261 -0.2689
  115OSM    H7G12041   6.271   6.904   7.459  0.2658  0.6835 -1.9615
  115OSM    C8F12042   6.419   6.772   7.571  0.1980  0.3853  0.2747
  115OSM    H8F12043   6.513   6.833   7.576  2.5995 -2.9146 -1.3308
  115OSM    H8G12044   6.465   6.673   7.555  0.4752  0.5523  0.0227
  115OSM    C9F12045   6.345   6.774   7.703 -0.1621 -0.2649  1.0343
  115OSM    H9F12046   6.255   6.714   7.683  0.4953 -0.8347 -0.3455
  115OSM   C10F12047   6.381   6.814   7.825 -0.7228 -0.2432 -0.0479
  115OSM   H10F12048   6.306   6.811   7.905 -1.2051 -2.0957 -0.5119
  115OSM   C11F12049   6.513   6.867   7.883  0.7280  0.6430  0.0398
  115OSM   H11F12050   6.499   6.956   7.948  1.7910  1.4443 -0.7686
  115OSM   H11G12051   6.595   6.887   7.810  2.5045 -1.3768  1.3236
  115OSM   C12F12052   6.581   6.753   7.962 -0.5550 -0.6042 -0.2029
  115OSM   H12F12053   6.619   6.673   7.896 -2.5419 -1.0529 -0.8688
  115OSM   H12G12054   6.512   6.708   8.037 -1.7905  0.3400 -0.7269
  115OSM   C13F12055   6.689   6.817   8.054 -0.3750 -0.6127 -0.0161
  115OSM   H13F12056   6.641   6.885   8.127 -0.2209 -1.2194  0.6708
  115OSM   H13G12057   6.759   6.885   8.002 -0.1435  1.1169  2.3894
  115OSM   C14F12058   6.769   6.711   8.131 -0.1812  0.1109 -0.3559
  115OSM   H14F12059   6.815   6.644   8.055 -1.3352 -1.5151  0.3083
  115OSM   H14G12060   6.700   6.644   8.186 -1.4932  1.8511  0.2184
  115OSM   C15F12061   6.860   6.779   8.233 -0.3296  0.3463  0.3580
  115OSM   H15F12062   6.796   6.777   8.323 -1.2348 -0.2688 -0.2861
  115OSM   H15G12063   6.870   6.885   8.200 -1.1121 -0.3802 -2.5737
  115OSM   C16F12064   6.990   6.714   8.270 -0.4705  0.1744 -0.5840
  115OSM   H16F12065   7.051   6.684   8.182  0.7222  0.7820  0.0073
  115OSM   H16G12066   6.969   6.616   8.316  2.9039 -0.1195  0.5467
  115OSM   C17F12067   7.081   6.795   8.367 -0.2872  0.1473 -0.1727
  115OSM   H17F12068   7.020   6.807   8.459  1.6517  0.4322  1.1485
  115OSM   H17G12069   7.100   6.898   8.329 -2.0007 -0.5316 -3.1037
  115OSM   C18F12070   7.208   6.725   8.409  0.5460 -0.0942 -0.1198
  115OSM   H18F12071   7.255   6.690   8.315  0.3947 -1.9261  0.4428
  115OSM   H18G12072   7.179   6.637   8.470  0.2560  0.0891  0.0106
  115OSM   H18H12073   7.283   6.793   8.455  0.2208 -0.9833  1.8702
  116OSM      N12074   2.822   1.431   6.121 -0.0355  0.4007  0.1484
  116OSM    C1512075   2.703   1.336   6.143  0.2225 -0.8526  0.4467
  116OSM   H15A12076   2.637   1.331   6.057 -1.1859 -1.8788  1.5405
  116OSM   H15B12077   2.638   1.366   6.224 -0.9447  0.3337 -0.8768
  116OSM   H15C12078   2.736   1.234   6.155  0.6006 -0.6257  1.3710
  116OSM    C1412079   2.899   1.377   6.004  0.3870  0.4425 -0.4092
  116OSM   H14A12080   2.951   1.286   6.027 -1.1465 -0.2543  0.4082
  116OSM   H14B12081   2.972   1.450   5.972  1.4952  0.0740  1.1644
  116OSM   H14C12082   2.834   1.342   5.925  0.0076  0.7579 -0.2426
  116OSM    C1312083   2.772   1.569   6.091 -0.3915 -0.0781  0.4852
  116OSM   H13A12084   2.701   1.584   6.171  0.4197  1.1037  0.9965
  116OSM   H13B12085   2.734   1.572   5.990  1.3438 -2.6813 -0.3546
  116OSM   H13C12086   2.847   1.645   6.099 -0.6949  0.1212  1.7085
  116OSM    C1212087   2.910   1.425   6.244 -0.4422 -0.2858 -0.0585
  116OSM   H12A12088   3.001   1.480   6.227  0.6304 -1.8956  0.2484
  116OSM   H12B12089   2.938   1.321   6.256 -0.5541 -0.1239  1.9717
  116OSM    C1112090   2.856   1.478   6.379  0.3337 -0.3511 -0.6431
  116OSM   H11A12091   2.919   1.442   6.464 -0.8553 -0.4413  0.2255
  116OSM   H11B12092   2.756   1.436   6.403 -0.3819  1.1632 -0.8524
  116OSM      P12093   2.973   1.707   6.413  0.1351 -0.0217 -0.4614
  116OSM    O1312094   3.066   1.688   6.302  0.4469  0.1733 -0.3637
  116OSM    O1412095   2.934   1.849   6.438 -0.3728  0.1868 -0.3743
  116OSM    O1112096   3.025   1.649   6.546  0.5719 -0.5872 -0.1539
  116OSM    O1212097   2.843   1.620   6.384 -0.2152 -0.0942  0.5797
  116OSM    C1S12098   3.136   1.568   6.544 -0.4852 -0.0155 -0.1559
  116OSM    H1S12099   3.225   1.615   6.497  0.0587 -2.2957 -1.5978
  116OSM    H1T12100   3.112   1.474   6.490 -0.4325 -0.1985  0.1437
  116OSM     NF12101   3.317   1.485   6.712  0.3308  0.0343  0.6594
  116OSM    HNF12102   3.322   1.389   6.741  0.0433  0.4137  2.0343
  116OSM    C2S12103   3.180   1.534   6.696  0.2546 -0.2054  0.3129
  116OSM    H2S12104   3.181   1.634   6.744 -0.1067  0.2591 -0.6257
  116OSM    C3S12105   3.079   1.441   6.763 -0.2067 -1.2268 -0.2699
  116OSM    H3S12106   3.075   1.347   6.704  1.4305 -2.2250  1.1286
  116OSM     O312107   2.948   1.497   6.753 -0.1592 -0.4049 -0.2389
  116OSM    HO312108   2.949   1.580   6.705 -0.5145  1.7762  3.2086
  116OSM    C4S12109   3.118   1.411   6.910  0.0000  0.4488  0.1426
  116OSM    H4S12110   3.165   1.313   6.929 -1.3935 -0.2634  0.0744
  116OSM    C5S12111   3.077   1.491   7.019  0.1457 -0.0029  0.9204
  116OSM    H5S12112   3.018   1.583   7.004  2.4564  1.5601  0.9251
  116OSM    C6S12113   3.115   1.463   7.157 -0.2788  0.1664 -0.6046
  116OSM    H6S12114   3.026   1.424   7.210 -1.1391  3.4776  0.6637
  116OSM    H6T12115   3.125   1.551   7.224  1.3372 -2.1065  2.3567
  116OSM    C7S12116   3.249   1.372   7.172  0.2747 -0.8654  0.1284
  116OSM    H7S12117   3.322   1.412   7.099  0.3165  0.8808  1.0843
  116OSM    H7T12118   3.229   1.265   7.150  4.3467 -1.8942  0.6172
  116OSM    C8S12119   3.297   1.370   7.318  0.0059  0.1326  0.4229
  116OSM    H8S12120   3.332   1.475   7.330  0.6459 -0.0385  0.0837
  116OSM    H8T12121   3.388   1.307   7.331  1.2496  1.4188 -1.4635
  116OSM    C9S12122   3.196   1.310   7.416 -0.2987 -0.5461  0.2489
  116OSM    H9S12123   3.175   1.203   7.393  0.4134 -1.1398  2.1922
  116OSM    H9T12124   3.096   1.359   7.411 -0.3798 -0.4906  1.8448
  116OSM   C10S12125   3.237   1.336   7.559  0.2075 -0.1703  0.1481
  116OSM   H10S12126   3.253   1.446   7.550 -2.0527  0.1801 -0.3591
  116OSM   H10T12127   3.333   1.282   7.573 -0.6441 -1.6847  0.3559
  116OSM   C11S12128   3.134   1.291   7.664 -0.0759 -0.7934 -0.1553
  116OSM   H11S12129   3.112   1.183   7.645  0.7120 -1.0475  0.3435
  116OSM   H11T12130   3.042   1.352   7.654 -0.2330 -0.8877  0.6599
  116OSM   C12S12131   3.185   1.309   7.805  0.9171 -0.7307 -0.3572
  116OSM   H12S12132   3.234   1.409   7.810  0.4846 -0.4512 -1.4436
  116OSM   H12T12133   3.250   1.225   7.836  2.2640  1.0276  1.8965
  116OSM   C13S12134   3.068   1.312   7.912 -0.5920 -0.3714  0.2857
  116OSM   H13S12135   3.013   1.408   7.903  0.6841  0.2474 -1.6164
  116OSM   H13T12136   3.113   1.298   8.013  1.3144  0.7097 -0.3590
  116OSM   C14S12137   2.977   1.184   7.913  0.5117  0.3710  0.0059
  116OSM   H14S12138   2.929   1.176   7.813 -1.2622 -0.4501  0.8749
  116OSM   H14T12139   2.901   1.189   7.993 -0.8854 -1.3916 -1.1268
  116OSM   C15S12140   3.051   1.041   7.931  0.2867 -0.0084  0.5287
  116OSM   H15S12141   3.130   1.029   7.854  0.1277 -0.7571  0.4747
  116OSM   H15T12142   2.972   0.966   7.909  0.7001 -1.0863  2.5045
  116OSM   C16S12143   3.091   1.022   8.073 -0.8243  0.1738  0.3099
  116OSM   H16S12144   3.161   1.102   8.105  0.2451 -0.0572 -1.3593
  116OSM   H16T12145   3.154   0.930   8.078 -0.1838  0.6715  2.1283
  116OSM   C17S12146   2.978   0.998   8.177  0.1587  0.2390 -0.0908
  116OSM   H17S12147   2.908   0.926   8.129  0.9714 -0.8316  0.2883
  116OSM   H17T12148   2.927   1.096   8.178  1.0701  0.7666 -1.6377
  116OSM   C18S12149   3.019   0.957   8.319 -0.0402 -0.5348  0.0637
  116OSM   H18S12150   2.936   0.980   8.390 -0.3604 -0.2944 -0.3788
  116OSM   H18T12151   3.110   1.011   8.351 -0.3613  0.5520 -0.7953
  116OSM   H18U12152   3.053   0.852   8.323  0.3929 -0.3861  0.3293
  116OSM    C1F12153   3.431   1.539   6.677 -0.2867 -0.8661  0.1140
  116OSM     OF12154   3.434   1.659   6.655  0.0868  0.4535 -0.2347
  116OSM    C2F12155   3.555   1.458   6.678  0.1226  0.0623  0.6191
  116OSM    H2F12156   3.609   1.470   6.582 -0.7349  0.6006  0.1971
  116OSM    H2G12157   3.520   1.353   6.681 -0.7667  0.3379  0.1255
  116OSM    C3F12158   3.662   1.493   6.786  0.7788 -0.3653  1.0124
  116OSM    H3F12159   3.709   1.593   6.774 -0.1276 -0.1328 -1.0693
  116OSM    H3G12160   3.736   1.412   6.767  1.3451  0.9781 -3.8319
  116OSM    C4F12161   3.601   1.462   6.928  0.1570 -0.4590  0.4016
  116OSM    H4F12162   3.541   1.369   6.932 -0.2474 -0.1588  1.5372
  116OSM    H4G12163   3.529   1.545   6.945  0.2023  0.2118 -2.2621
  116OSM    C5F12164   3.707   1.458   7.037 -0.4905  0.6526  0.2538
  116OSM    H5F12165   3.774   1.546   7.044  1.8887 -1.1031  0.7925
  116OSM    H5G12166   3.763   1.365   7.010 -3.1210 -0.3624 -2.2891
  116OSM    C6F12167   3.640   1.451   7.174 -0.2748 -0.3668  0.4759
  116OSM    H6F12168   3.604   1.346   7.184  0.5023 -0.5865  1.0303
  116OSM    H6G12169   3.554   1.520   7.188 -1.6355 -1.6051 -1.2703
  116OSM    C7F12170   3.749   1.461   7.289  0.5786 -0.0514 -1.3293
  116OSM    H7F12171   3.795   1.562   7.293  0.7327 -0.0884  3.3549
  116OSM    H7G12172   3.820   1.385   7.248  2.2151  1.4260 -1.3905
  116OSM    C8F12173   3.705   1.431   7.439 -0.2373  0.2808  0.5766
  116OSM    H8F12174   3.626   1.353   7.433  1.1052 -1.2142  1.5363
  116OSM    H8G12175   3.666   1.525   7.482  1.1255  1.9196 -1.5589
  116OSM    C9F12176   3.817   1.387   7.529 -0.2903 -0.2409  0.2688
  116OSM    H9F12177   3.917   1.417   7.495 -0.9713  1.2479 -0.5239
  116OSM   C10F12178   3.805   1.292   7.629 -0.2068 -0.2539  0.1351
  116OSM   H10F12179   3.894   1.274   7.690 -1.0070  4.1098  2.9532
  116OSM   C11F12180   3.679   1.226   7.681 -0.3257  0.3945  0.0087
  116OSM   H11F12181   3.685   1.115   7.674  1.6387  0.5745 -2.6001
  116OSM   H11G12182   3.591   1.255   7.620 -0.0605 -3.8950 -2.8462
  116OSM   C12F12183   3.644   1.274   7.824  0.2733  0.1562  0.3398
  116OSM   H12F12184   3.713   1.225   7.896  0.5161  0.3102  0.2133
  116OSM   H12G12185   3.545   1.231   7.852  0.5304 -1.2542 -0.8036
  116OSM   C13F12186   3.628   1.429   7.843 -0.3499  0.1259  0.2725
  116OSM   H13F12187   3.574   1.473   7.756 -1.4004 -0.6128  0.5249
  116OSM   H13G12188   3.717   1.495   7.840  0.8330 -1.3735  0.7045
  116OSM   C14F12189   3.552   1.476   7.974  0.2180  0.2653 -0.3168
  116OSM   H14F12190   3.461   1.413   7.986  0.0870  0.7434  1.4403
  116OSM   H14G12191   3.519   1.579   7.949 -0.3469  0.2270  0.2346
  116OSM   C15F12192   3.631   1.479   8.101  0.4569 -0.5903  0.1320
  116OSM   H15F12193   3.621   1.385   8.158  1.8055 -0.6415  0.3357
  116OSM   H15G12194   3.576   1.561   8.152  0.9166  0.2176 -0.6275
  116OSM   C16F12195   3.770   1.536   8.083  0.1020 -0.1107 -0.1261
  116OSM   H16F12196   3.758   1.625   8.018 -0.1111  0.1111  0.2089
  116OSM   H16G12197   3.827   1.462   8.024  0.2849  0.8304 -1.1492
  116OSM   C17F12198   3.851   1.566   8.205  0.6439  0.0012  0.2083
  116OSM   H17F12199   3.919   1.485   8.236  0.5739 -1.5406 -3.2277
  116OSM   H17G12200   3.784   1.583   8.292 -0.8496 -0.6659 -0.7758
  116OSM   C18F12201   3.933   1.697   8.198  0.2843  0.3168  0.4762
  116OSM   H18F12202   3.863   1.783   8.202 -0.0143  0.0604  0.9405
  116OSM   H18G12203   3.990   1.688   8.103  2.2364 -0.7174  1.6763
  116OSM   H18H12204   4.017   1.715   8.269  3.7234  0.5925 -3.3147
  117OSM      N12205   6.122   6.441   6.386  0.6499  0.1946 -0.3268
  117OSM    C1512206   6.176   6.527   6.497  0.0251  0.4238 -0.1759
  117OSM   H15A12207   6.236   6.467   6.564  1.1495  0.9382 -0.7016
  117OSM   H15B12208   6.098   6.572   6.557 -0.3495 -1.2749  0.6840
  117OSM   H15C12209   6.235   6.608   6.457  1.0251  0.6100  1.6042
  117OSM    C1412210   6.031   6.520   6.304 -0.9059  0.3865 -0.0382
  117OSM   H14A12211   5.979   6.455   6.235  0.3199  0.2270 -0.8374
  117OSM   H14B12212   6.084   6.594   6.246  0.7843 -1.6449 -1.2366
  117OSM   H14C12213   5.946   6.555   6.360 -2.3415 -2.5267 -0.2051
  117OSM    C1312214   6.239   6.392   6.307 -0.3050 -0.2382 -0.5658
  117OSM   H13A12215   6.276   6.308   6.363 -0.1818  0.3747  0.2764
  117OSM   H13B12216   6.311   6.470   6.288  0.8018 -0.5629  1.9262
  117OSM   H13C12217   6.207   6.349   6.212  1.4394  3.8715 -3.2785
  117OSM    C1212218   6.037   6.327   6.438  1.0372 -0.7506  0.6621
  117OSM   H12A12219   5.997   6.272   6.354 -3.0771  2.2587  0.3615
  117OSM   H12B12220   5.942   6.350   6.485  1.3398 -0.9614  1.3898
  117OSM    C1112221   6.101   6.214   6.518  0.4616 -0.3835 -0.0456
  117OSM   H11A12222   6.031   6.134   6.549  0.9771 -0.9816 -0.3782
  117OSM   H11B12223   6.146   6.259   6.609 -0.9012  2.7288 -0.7963
  117OSM      P12224   6.235   6.007   6.416 -0.0709  0.1341  0.1041
  117OSM    O1312225   6.145   5.938   6.323  0.5472  0.0039  0.2598
  117OSM    O1412226   6.373   6.014   6.366  0.0184  0.0639 -0.0042
  117OSM    O1112227   6.225   5.941   6.562  0.2824 -0.1717  0.2104
  117OSM    O1212228   6.200   6.156   6.442 -0.5961  0.0799 -0.9688
  117OSM    C1S12229   6.339   5.944   6.649 -0.2634  0.5975  0.1920
  117OSM    H1S12230   6.382   6.047   6.656  2.2691 -0.3625 -0.1091
  117OSM    H1T12231   6.409   5.872   6.601 -0.4550  0.8880 -0.5454
  117OSM     NF12232   6.447   5.913   6.866  0.6136 -0.2912  0.6773
  117OSM    HNF12233   6.495   5.834   6.904  0.0643 -0.9371  0.0669
  117OSM    C2S12234   6.327   5.893   6.795 -0.0567  0.0897 -0.0925
  117OSM    H2S12235   6.245   5.957   6.835  0.9073  1.5313 -0.3144
  117OSM    C3S12236   6.282   5.742   6.788 -0.2247  0.6597  0.0386
  117OSM    H3S12237   6.371   5.692   6.745 -1.3333 -0.1170 -1.4712
  117OSM     O312238   6.179   5.706   6.687  0.7879 -0.2964 -0.2052
  117OSM    HO312239   6.174   5.793   6.646  0.4047 -0.0324  0.3890
  117OSM    C4S12240   6.245   5.691   6.924 -0.4571 -0.1679  0.4419
  117OSM    H4S12241   6.330   5.640   6.973 -1.4291 -0.8196  1.5138
  117OSM    C5S12242   6.130   5.698   6.992  0.0891 -0.6852  0.7818
  117OSM    H5S12243   6.046   5.756   6.950 -0.2712 -1.3122  0.6259
  117OSM    C6S12244   6.126   5.646   7.132 -0.4123  0.6918 -0.5180
  117OSM    H6S12245   6.111   5.536   7.132  0.9698  0.4854  0.3647
  117OSM    H6T12246   6.035   5.675   7.188 -0.6740 -1.2624  0.1423
  117OSM    C7S12247   6.236   5.686   7.226 -0.3606  0.1495 -0.4501
  117OSM    H7S12248   6.229   5.792   7.260  1.1036 -0.5542  2.4109
  117OSM    H7T12249   6.339   5.676   7.186  0.2257  1.7810  0.5005
  117OSM    C8S12250   6.216   5.611   7.364 -0.2585 -0.0275  0.6043
  117OSM    H8S12251   6.244   5.504   7.355  4.3729  1.0746 -1.0891
  117OSM    H8T12252   6.107   5.615   7.386 -0.1217  0.2298  1.2696
  117OSM    C9S12253   6.287   5.676   7.475  0.2147 -0.5780 -1.1908
  117OSM    H9S12254   6.258   5.783   7.481  0.8158 -0.4768  0.8662
  117OSM    H9T12255   6.398   5.677   7.468  0.5780 -1.6073  2.3521
  117OSM   C10S12256   6.236   5.617   7.612  0.6785  0.4610  0.1388
  117OSM   H10S12257   6.246   5.508   7.592  1.9402  0.7762 -1.2196
  117OSM   H10T12258   6.128   5.643   7.619  0.9200  2.1883 -1.4271
  117OSM   C11S12259   6.312   5.667   7.733 -0.3331  0.0948 -0.8477
  117OSM   H11S12260   6.330   5.776   7.727 -0.3706  0.2672  1.5495
  117OSM   H11T12261   6.411   5.617   7.738  0.1340  1.0252 -0.4704
  117OSM   C12S12262   6.247   5.637   7.868 -0.6841  0.0559 -0.1765
  117OSM   H12S12263   6.221   5.529   7.876 -0.0945 -0.1366 -0.6897
  117OSM   H12T12264   6.150   5.690   7.864  0.0473  2.0954  3.9983
  117OSM   C13S12265   6.334   5.696   7.974  0.3973 -0.5585 -0.2148
  117OSM   H13S12266   6.369   5.797   7.944 -2.1046  1.0239  1.7554
  117OSM   H13T12267   6.433   5.646   7.966 -0.7095 -2.6195 -2.2809
  117OSM   C14S12268   6.275   5.670   8.111 -0.1961 -0.1720  0.9405
  117OSM   H14S12269   6.268   5.561   8.132 -1.0312  0.0494  1.9080
  117OSM   H14T12270   6.169   5.704   8.109 -0.2162 -0.2359  0.9114
  117OSM   C15S12271   6.351   5.738   8.224 -0.4010 -0.6519  0.5019
  117OSM   H15S12272   6.331   5.847   8.217 -0.3228 -0.7123 -0.9735
  117OSM   H15T12273   6.459   5.725   8.202 -0.6240 -0.2375 -0.9342
  117OSM   C16S12274   6.312   5.666   8.357  0.1377 -0.3067  0.5443
  117OSM   H16S12275   6.346   5.561   8.346 -0.2935 -0.2449 -2.0517
  117OSM   H16T12276   6.201   5.664   8.367 -0.1244 -0.9678 -1.8159
  117OSM   C17S12277   6.372   5.715   8.486 -0.3059  0.4119  0.4923
  117OSM   H17S12278   6.338   5.659   8.576  2.2770 -0.6807  0.8946
  117OSM   H17T12279   6.345   5.821   8.504 -1.2765  0.5789 -1.6768
  117OSM   C18S12280   6.519   5.699   8.497 -0.5115 -0.3837 -0.1069
  117OSM   H18S12281   6.569   5.741   8.407  0.3097 -1.0209  0.0350
  117OSM   H18T12282   6.553   5.594   8.502  0.2744 -0.1749 -0.8325
  117OSM   H18U12283   6.563   5.769   8.572 -1.0317  1.6129 -1.5588
  117OSM    C1F12284   6.490   6.037   6.890  0.0140 -0.1743 -0.4860
  117OSM     OF12285   6.408   6.123   6.872 -0.0633 -0.0259  0.1305
  117OSM    C2F12286   6.627   6.067   6.949 -0.5755 -0.4464 -0.2142
  117OSM    H2F12287   6.626   6.176   6.970 -0.9810 -0.4677 -0.1257
  117OSM    H2G12288   6.713   6.051   6.880  1.7914  0.2630  2.3834
  117OSM    C3F12289   6.658   5.996   7.080  0.0531 -0.0213  0.7123
  117OSM    H3F12290   6.756   6.038   7.112 -0.6398  1.4797  0.9966
  117OSM    H3G12291   6.660   5.887   7.062  0.4602 -0.2290  1.9232
  117OSM    C4F12292   6.559   6.018   7.195 -0.2642  0.5071 -0.4642
  117OSM    H4F12293   6.453   5.993   7.171 -0.4288  0.4549  0.2823
  117OSM    H4G12294   6.564   6.119   7.240  0.8868 -0.3174  1.3602
  117OSM    C5F12295   6.607   5.935   7.317  0.5201  0.2982  0.2787
  117OSM    H5F12296   6.717   5.944   7.324  0.4350  0.9801  0.8969
  117OSM    H5G12297   6.584   5.828   7.298  0.0928  0.4095  0.1564
  117OSM    C6F12298   6.555   5.974   7.454 -0.3348  0.3249 -0.6516
  117OSM    H6F12299   6.447   5.948   7.462 -0.4884  1.3659  1.4012
  117OSM    H6G12300   6.586   6.080   7.466  5.9646 -1.1067 -1.1992
  117OSM    C7F12301   6.620   5.892   7.561 -0.6158 -0.2849 -0.2535
  117OSM    H7F12302   6.651   5.795   7.516  2.9146  0.5130  0.1374
  117OSM    H7G12303   6.536   5.873   7.632  0.5977 -1.1451  1.0090
  117OSM    C8F12304   6.727   5.967   7.640 -0.2567  0.0709 -0.3950
  117OSM    H8F12305   6.670   6.047   7.693 -0.1653 -0.3266  0.2990
  117OSM    H8G12306   6.800   6.006   7.565  0.1682  0.3313  0.1500
  117OSM    C9F12307   6.786   5.859   7.723 -0.8939 -1.0367  0.1910
  117OSM    H9F12308   6.851   5.798   7.658  0.9725  2.5304 -1.5422
  117OSM   C10F12309   6.785   5.840   7.854  0.5402  0.1936 -0.9407
  117OSM   H10F12310   6.830   5.754   7.906 -1.4368 -1.7254 -2.2246
  117OSM   C11F12311   6.720   5.932   7.955  0.5963  0.1398  0.2747
  117OSM   H11F12312   6.621   5.894   7.990  0.7124 -0.4046  0.0334
  117OSM   H11G12313   6.694   6.025   7.900  2.7075  0.0246 -1.0553
  117OSM   C12F12314   6.801   5.964   8.080 -0.5847 -0.0579  0.0407
  117OSM   H12F12315   6.761   6.062   8.111 -1.0458  0.1095 -1.0490
  117OSM   H12G12316   6.911   5.964   8.059 -0.0791 -1.5981  2.2627
  117OSM   C13F12317   6.777   5.859   8.190  0.0939  0.0055 -0.1018
  117OSM   H13F12318   6.783   5.757   8.145 -0.9282  0.1994 -0.7187
  117OSM   H13G12319   6.678   5.872   8.239 -0.6823 -1.1893 -1.2625
  117OSM   C14F12320   6.886   5.863   8.298 -0.3860 -0.2744 -0.6600
  117OSM   H14F12321   6.879   5.962   8.348  3.4047  0.2448 -0.8900
  117OSM   H14G12322   6.990   5.858   8.258 -0.5452  0.1181 -1.1274
  117OSM   C15F12323   6.861   5.757   8.415  0.1164 -0.2596  0.8323
  117OSM   H15F12324   6.761   5.774   8.459 -0.8641 -0.6383 -1.1614
  117OSM   H15G12325   6.941   5.779   8.490  2.0708  1.8506 -1.6799
  117OSM   C16F12326   6.868   5.613   8.369  0.9955  0.0253  0.3069
  117OSM   H16F12327   6.935   5.600   8.281 -2.9006  2.4667 -3.3914
  117OSM   H16G12328   6.766   5.587   8.334  0.3083  0.6351  1.7866
  117OSM   C17F12329   6.902   5.510   8.477 -0.4801 -0.1974  0.3676
  117OSM   H17F12330   6.826   5.520   8.557 -1.6981 -1.4984 -0.5757
  117OSM   H17G12331   6.887   5.411   8.430 -1.5584 -0.5398  1.3651
  117OSM   C18F12332   7.050   5.528   8.525  1.3990  0.3680  1.0895
  117OSM   H18F12333   7.085   5.628   8.493 -0.8245  0.6889 -0.6397
  117OSM   H18G12334   7.120   5.449   8.490  1.9047  1.4700 -0.4833
  117OSM   H18H12335   7.052   5.533   8.636  3.2071 -2.3381  1.2742
  118OSM      N12336   3.017   2.743   6.076  0.1210 -0.5941  0.2280
  118OSM    C1512337   2.961   2.624   6.142  0.1323  0.0728  0.7949
  118OSM   H15A12338   3.021   2.582   6.221  0.5860 -1.0875 -0.1392
  118OSM   H15B12339   2.946   2.540   6.076 -0.5064  1.2936 -0.6686
  118OSM   H15C12340   2.871   2.642   6.199 -0.3293  0.1588  0.0564
  118OSM    C1412341   3.124   2.689   5.981  0.0444 -0.0055  0.1585
  118OSM   H14A12342   3.185   2.615   6.030  0.3492 -0.9014 -1.5108
  118OSM   H14B12343   3.192   2.764   5.944  0.4571  1.5961  3.7202
  118OSM   H14C12344   3.077   2.625   5.908 -1.5118 -0.1635  1.2519
  118OSM    C1312345   2.908   2.812   5.996 -0.3868  0.4205  0.9308
  118OSM   H13A12346   2.834   2.854   6.062 -1.6659 -1.2098  0.6057
  118OSM   H13B12347   2.841   2.746   5.943 -3.3784  1.9448  2.5531
  118OSM   H13C12348   2.955   2.886   5.932  0.1593  0.8649  1.8347
  118OSM    C1212349   3.074   2.839   6.174 -0.2383  0.2027  0.2197
  118OSM   H12A12350   3.114   2.919   6.113 -0.8772  0.6638  0.3991
  118OSM   H12B12351   3.159   2.797   6.226  0.3518  0.0552 -0.8410
  118OSM    C1112352   2.986   2.898   6.280 -1.0926 -0.1081  0.2931
  118OSM   H11A12353   3.046   2.957   6.353  0.4713 -1.5882  0.2577
  118OSM   H11B12354   2.932   2.820   6.338 -0.5404 -0.2741  0.5897
  118OSM      P12355   2.920   3.147   6.220 -0.0090  0.2123 -0.4954
  118OSM    O1312356   3.053   3.153   6.161 -0.5437  0.2051 -0.6952
  118OSM    O1412357   2.812   3.206   6.140  0.2001 -0.8367 -0.0437
  118OSM    O1112358   2.927   3.209   6.372  0.2796  0.0053 -0.4358
  118OSM    O1212359   2.885   2.991   6.227 -0.2504  0.8724 -0.6946
  118OSM    C1S12360   2.829   3.179   6.469  0.9669  0.2365 -0.4087
  118OSM    H1S12361   2.828   3.069   6.484 -1.4733  0.0930 -1.1948
  118OSM    H1T12362   2.727   3.195   6.429  0.6499 -1.9301 -0.5727
  118OSM     NF12363   2.751   3.182   6.711  0.3443 -0.6712 -0.0077
  118OSM    HNF12364   2.668   3.231   6.736  2.0116  2.4902 -0.1773
  118OSM    C2S12365   2.838   3.251   6.609  0.2673 -0.4566 -0.4312
  118OSM    H2S12366   2.941   3.231   6.644  0.8328  0.0798 -1.7247
  118OSM    C3S12367   2.827   3.407   6.599 -0.0574 -0.3836  0.1743
  118OSM    H3S12368   2.722   3.430   6.570 -0.0807 -0.0578  0.5134
  118OSM     O312369   2.912   3.467   6.504  0.0596  0.5345  0.1135
  118OSM    HO312370   2.950   3.388   6.465 -0.4749 -0.2072  1.0599
  118OSM    C4S12371   2.863   3.471   6.731  0.5075  0.0371  0.3594
  118OSM    H4S12372   2.948   3.415   6.773  0.9984 -1.2805 -2.2197
  118OSM    C5S12373   2.789   3.572   6.788 -0.4793 -0.6121 -0.0543
  118OSM    H5S12374   2.710   3.610   6.722  0.0508 -0.5408 -0.6538
  118OSM    C6S12375   2.813   3.653   6.914  0.6091 -1.1745 -0.3481
  118OSM    H6S12376   2.735   3.626   6.989 -1.3929  1.5515 -1.2964
  118OSM    H6T12377   2.800   3.759   6.883  1.2492 -0.8021  0.5700
  118OSM    C7S12378   2.952   3.623   6.975  0.1358  0.7522 -0.5950
  118OSM    H7S12379   3.036   3.651   6.908  1.7472  0.2690  1.1419
  118OSM    H7T12380   2.953   3.513   6.992  2.4042  1.2581  4.1808
  118OSM    C8S12381   2.981   3.682   7.111  0.3689 -0.0614 -0.1739
  118OSM    H8S12382   3.087   3.656   7.132  0.2152  0.2839  1.0932
  118OSM    H8T12383   2.917   3.640   7.192 -0.6116 -1.0498 -1.4237
  118OSM    C9S12384   2.965   3.837   7.104 -0.0044  0.0205 -0.9152
  118OSM    H9S12385   2.857   3.860   7.120  0.1479 -1.6684  4.5407
  118OSM    H9T12386   3.012   3.879   7.012  0.2672 -1.0288 -1.2690
  118OSM   C10S12387   3.032   3.906   7.226  0.3202 -0.6745 -0.6840
  118OSM   H10S12388   2.997   4.011   7.224 -3.2457 -1.6390  1.6772
  118OSM   H10T12389   3.141   3.914   7.206  0.3305 -1.0957 -0.8140
  118OSM   C11S12390   3.012   3.859   7.368  0.0144  0.7460 -0.5444
  118OSM   H11S12391   2.906   3.831   7.381  0.1984 -1.1615 -2.5533
  118OSM   H11T12392   3.037   3.940   7.440  2.1277 -0.4774  0.1890
  118OSM   C12S12393   3.102   3.744   7.416  0.1685  0.0530 -0.6219
  118OSM   H12S12394   3.210   3.764   7.398  0.2838  0.0547  0.0311
  118OSM   H12T12395   3.080   3.648   7.364  1.1907 -0.3123 -0.4086
  118OSM   C13S12396   3.094   3.710   7.565  0.1821 -0.3340 -0.0218
  118OSM   H13S12397   2.993   3.670   7.591 -0.8141  1.6777 -0.5284
  118OSM   H13T12398   3.110   3.802   7.626  0.9842  0.5713 -1.5477
  118OSM   C14S12399   3.197   3.598   7.607 -0.7202  0.4747 -0.0746
  118OSM   H14S12400   3.283   3.588   7.538 -0.5225 -1.0155  0.3564
  118OSM   H14T12401   3.148   3.504   7.577 -2.2310  1.2916 -0.2410
  118OSM   C15S12402   3.250   3.606   7.752 -0.2297  0.7688  0.2916
  118OSM   H15S12403   3.246   3.715   7.775  0.6880  1.2827 -1.7700
  118OSM   H15T12404   3.351   3.560   7.759 -0.5523 -0.2657 -1.3311
  118OSM   C16S12405   3.153   3.539   7.847 -0.3473  0.4030 -0.8450
  118OSM   H16S12406   3.212   3.485   7.924  0.9668  0.1597 -1.9919
  118OSM   H16T12407   3.081   3.463   7.810 -0.6792 -0.2017  0.9451
  118OSM   C17S12408   3.077   3.650   7.925  0.2588  0.1746  0.1652
  118OSM   H17S12409   3.009   3.702   7.854  1.5044  1.7355  0.0786
  118OSM   H17T12410   3.151   3.724   7.961 -0.1297  0.6288  0.0356
  118OSM   C18S12411   3.006   3.592   8.051  0.9699  0.0629  0.1691
  118OSM   H18S12412   2.990   3.684   8.111  1.9933 -0.5056  1.3479
  118OSM   H18T12413   3.060   3.515   8.110  0.6359 -0.2419  0.0845
  118OSM   H18U12414   2.902   3.558   8.029  0.8053  0.9225 -0.4386
  118OSM    C1F12415   2.770   3.062   6.758  0.1589  0.3839 -0.0598
  118OSM     OF12416   2.879   3.017   6.749 -0.0426  0.2457 -0.1856
  118OSM    C2F12417   2.653   2.993   6.828  0.1539  0.1123  0.7491
  118OSM    H2F12418   2.600   2.918   6.766 -1.4731  1.6953  0.1239
  118OSM    H2G12419   2.585   3.078   6.849 -1.0938  0.0846 -2.5610
  118OSM    C3F12420   2.697   2.924   6.956 -0.3530  0.0828 -0.1281
  118OSM    H3F12421   2.718   3.004   7.030 -1.2874 -0.4506  0.7569
  118OSM    H3G12422   2.787   2.861   6.940 -0.2645  0.4887 -1.2711
  118OSM    C4F12423   2.590   2.838   7.010 -0.2187  0.3785 -0.4983
  118OSM    H4F12424   2.542   2.780   6.928  1.9275 -1.2385 -0.7021
  118OSM    H4G12425   2.513   2.904   7.056 -0.2419  0.7309 -1.0289
  118OSM    C5F12426   2.634   2.734   7.110  0.0126 -0.5013 -0.4564
  118OSM    H5F12427   2.704   2.659   7.068 -0.9533 -1.5903 -0.1842
  118OSM    H5G12428   2.540   2.679   7.135 -2.1053  1.3116 -3.7379
  118OSM    C6F12429   2.697   2.803   7.235  0.6174  0.3833 -0.1989
  118OSM    H6F12430   2.630   2.889   7.257 -3.5609 -1.4054 -4.2198
  118OSM    H6G12431   2.793   2.845   7.199  1.1818 -1.1367 -0.5241
  118OSM    C7F12432   2.716   2.713   7.356  0.1993  0.0340 -0.2748
  118OSM    H7F12433   2.801   2.643   7.340 -0.5842 -1.4160  1.5331
  118OSM    H7G12434   2.628   2.657   7.393  1.1743  0.0993  2.4018
  118OSM    C8F12435   2.761   2.798   7.481 -0.0092 -0.3912  0.6302
  118OSM    H8F12436   2.806   2.731   7.557 -2.2389 -2.6401  0.0914
  118OSM    H8G12437   2.662   2.819   7.527 -1.1768 -1.3280 -1.3275
  118OSM    C9F12438   2.841   2.924   7.469  0.8294 -0.0491  0.1068
  118OSM    H9F12439   2.877   2.951   7.369 -2.4089  0.4805 -1.0136
  118OSM   C10F12440   2.851   3.021   7.562 -0.3884 -0.0261 -0.2957
  118OSM   H10F12441   2.907   3.115   7.545 -0.1669  0.3093  1.9562
  118OSM   C11F12442   2.787   3.026   7.700 -0.2487 -0.0975  0.0671
  118OSM   H11F12443   2.873   3.038   7.769  0.4377 -0.4930 -0.6907
  118OSM   H11G12444   2.736   2.930   7.724 -1.7679  0.0603 -2.1475
  118OSM   C12F12445   2.674   3.130   7.701  0.3257  0.0620  0.4396
  118OSM   H12F12446   2.618   3.111   7.795  1.6406  0.6245  1.3574
  118OSM   H12G12447   2.603   3.099   7.622  0.6539 -0.1273  0.2158
  118OSM   C13F12448   2.716   3.276   7.684  0.0495  0.2768 -0.2586
  118OSM   H13F12449   2.798   3.290   7.610 -1.4722  1.8778 -1.7455
  118OSM   H13G12450   2.748   3.325   7.778  1.0835  0.0893 -0.5068
  118OSM   C14F12451   2.595   3.359   7.616 -0.2538  0.6868 -0.5754
  118OSM   H14F12452   2.513   3.357   7.690 -0.1523 -1.4300 -0.4587
  118OSM   H14G12453   2.545   3.317   7.527 -1.3130  1.9241 -0.5959
  118OSM   C15F12454   2.637   3.508   7.608  0.2105 -0.5168  0.4938
  118OSM   H15F12455   2.740   3.510   7.566 -0.2704 -1.6563 -0.7931
  118OSM   H15G12456   2.652   3.547   7.712  0.2414 -0.4611  0.4685
  118OSM   C16F12457   2.552   3.601   7.521 -0.7329  0.2892  0.5760
  118OSM   H16F12458   2.544   3.559   7.419  1.1701 -0.7443  0.8014
  118OSM   H16G12459   2.600   3.700   7.508  0.0999 -0.2650 -0.8259
  118OSM   C17F12460   2.405   3.633   7.562  0.0460 -0.5057 -0.6782
  118OSM   H17F12461   2.414   3.670   7.666  2.6824  1.6426 -1.5554
  118OSM   H17G12462   2.343   3.540   7.565 -1.0989  0.2476  2.1459
  118OSM   C18F12463   2.333   3.733   7.478  0.4271  0.2499  0.0415
  118OSM   H18F12464   2.240   3.764   7.530  1.1191 -0.7212  1.9622
  118OSM   H18G12465   2.292   3.699   7.381 -0.0164  0.4430  0.1585
  118OSM   H18H12466   2.387   3.829   7.458 -0.4120  1.0993  1.6613
  119OSM      N12467   1.208   6.799   5.740  0.5134  0.3755  0.1941
  119OSM    C1512468   1.338   6.848   5.679  0.0295 -0.4213  1.0756
  119OSM   H15A12469   1.326   6.927   5.607  0.6517  0.4447  1.8911
  119OSM   H15B12470   1.400   6.770   5.636  1.8641  0.6373  1.6659
  119OSM   H15C12471   1.406   6.891   5.752  1.5891 -2.0845  0.6904
  119OSM    C1412472   1.149   6.909   5.821 -0.4243 -0.7664 -0.3200
  119OSM   H14A12473   1.162   6.998   5.762 -1.2461 -1.2820 -1.3069
  119OSM   H14B12474   1.207   6.928   5.911  2.3139 -1.7247 -1.7519
  119OSM   H14C12475   1.047   6.896   5.854  0.3134 -0.1815  2.4298
  119OSM    C1312476   1.116   6.779   5.625 -0.6646 -0.3720  0.2295
  119OSM   H13A12477   1.018   6.751   5.662 -0.5731  0.7488  1.4149
  119OSM   H13B12478   1.147   6.698   5.561 -0.0753 -1.2609  1.6014
  119OSM   H13C12479   1.093   6.863   5.561 -1.2472 -1.4419 -1.0142
  119OSM    C1212480   1.220   6.669   5.820 -0.6050 -0.0724 -0.5841
  119OSM   H12A12481   1.130   6.650   5.877 -0.2278  2.2713  0.9479
  119OSM   H12B12482   1.298   6.676   5.894 -0.3898  0.6496 -0.8760
  119OSM    C1112483   1.279   6.535   5.748  0.1807 -0.2481  0.1201
  119OSM   H11A12484   1.198   6.506   5.677  0.6277  2.0568 -1.4655
  119OSM   H11B12485   1.278   6.449   5.818 -2.0758 -1.2578 -1.0204
  119OSM      P12486   1.531   6.553   5.803  0.2118  0.4531 -0.0774
  119OSM    O1312487   1.660   6.561   5.731 -0.2533 -0.1120  0.4997
  119OSM    O1412488   1.500   6.649   5.913  0.3666 -0.3650 -0.1146
  119OSM    O1112489   1.523   6.404   5.855  0.3309 -0.9670 -0.0451
  119OSM    O1212490   1.413   6.555   5.695  0.5205  0.5252 -0.0698
  119OSM    C1S12491   1.626   6.360   5.941  0.7969 -0.7479 -0.2270
  119OSM    H1S12492   1.730   6.396   5.928  1.6435 -2.0342  2.2946
  119OSM    H1T12493   1.634   6.251   5.922 -0.0882 -0.9027  0.2226
  119OSM     NF12494   1.706   6.330   6.164 -0.6499 -0.5198  0.8685
  119OSM    HNF12495   1.700   6.243   6.213  0.8427 -2.6123 -2.2735
  119OSM    C2S12496   1.592   6.374   6.089  0.3076  0.4290 -0.0164
  119OSM    H2S12497   1.571   6.479   6.118  0.6940  0.6978 -0.6881
  119OSM    C3S12498   1.456   6.302   6.122 -1.1832  0.0524 -0.1848
  119OSM    H3S12499   1.461   6.198   6.084 -2.2365 -0.4920  1.1059
  119OSM     O312500   1.348   6.347   6.052 -0.1083  0.3472 -0.3520
  119OSM    HO312501   1.391   6.383   5.974  2.2808 -2.1481 -0.3337
  119OSM    C4S12502   1.435   6.295   6.268 -0.0814 -0.4163  0.0221
  119OSM    H4S12503   1.454   6.192   6.304 -2.4233 -1.5563 -1.6932
  119OSM    C5S12504   1.385   6.394   6.344  0.8210  0.3163  0.2048
  119OSM    H5S12505   1.381   6.492   6.295 -0.2843  1.0909  1.7863
  119OSM    C6S12506   1.343   6.391   6.490 -0.4722  0.1275 -0.0830
  119OSM    H6S12507   1.273   6.476   6.509 -0.0758  0.6539 -0.8959
  119OSM    H6T12508   1.432   6.397   6.555  0.3660 -2.0101 -0.9622
  119OSM    C7S12509   1.278   6.249   6.516  0.1606  0.2373  0.3377
  119OSM    H7S12510   1.361   6.176   6.513  1.1056  1.2963 -2.4652
  119OSM    H7T12511   1.194   6.215   6.452 -1.1534  1.5491  1.2905
  119OSM    C8S12512   1.210   6.253   6.652  0.0068 -0.6089  0.0640
  119OSM    H8S12513   1.116   6.311   6.649  0.4788  0.1318 -2.1955
  119OSM    H8T12514   1.281   6.294   6.727  0.4762 -2.1563  0.5057
  119OSM    C9S12515   1.175   6.108   6.709 -0.4698 -0.4505  0.3304
  119OSM    H9S12516   1.121   6.059   6.625 -1.2915 -1.5043  1.4545
  119OSM    H9T12517   1.097   6.114   6.787 -0.5121  0.1454  0.2470
  119OSM   C10S12518   1.288   6.014   6.746  0.3201 -0.1595  0.1947
  119OSM   H10S12519   1.357   5.996   6.660  0.0214  0.6640 -0.2354
  119OSM   H10T12520   1.254   5.914   6.780  2.7707 -1.4835 -0.9484
  119OSM   C11S12521   1.385   6.066   6.852  0.1560 -0.0009 -0.1885
  119OSM   H11S12522   1.400   6.171   6.820 -0.7374  0.6195  1.3074
  119OSM   H11T12523   1.478   6.004   6.849  1.7226  2.2743 -1.1061
  119OSM   C12S12524   1.333   6.048   6.998  0.6676  0.0668  0.5856
  119OSM   H12S12525   1.225   6.076   6.996  0.8139  0.5938 -0.6379
  119OSM   H12T12526   1.386   6.125   7.058  0.2755 -0.3193  1.4500
  119OSM   C13S12527   1.354   5.904   7.054 -1.0858 -0.0609 -0.2939
  119OSM   H13S12528   1.448   5.866   7.009 -1.0140 -0.0355 -0.1677
  119OSM   H13T12529   1.267   5.846   7.019 -2.1017  1.8338 -1.0545
  119OSM   C14S12530   1.371   5.910   7.205 -0.2199  0.5896 -0.0101
  119OSM   H14S12531   1.278   5.960   7.240 -1.0547  0.0928 -1.4527
  119OSM   H14T12532   1.454   5.979   7.233 -2.0421  2.3071  1.4790
  119OSM   C15S12533   1.406   5.772   7.267 -0.1340  0.1969  0.7511
  119OSM   H15S12534   1.515   5.755   7.251  0.0790  0.5294  1.8012
  119OSM   H15T12535   1.357   5.691   7.210  1.4970 -1.3609  1.4615
  119OSM   C16S12536   1.369   5.768   7.416 -0.0126 -0.0152  1.3165
  119OSM   H16S12537   1.259   5.775   7.412 -0.0781 -1.2080 -1.0808
  119OSM   H16T12538   1.407   5.851   7.478 -1.0540 -1.4068  3.9457
  119OSM   C17S12539   1.413   5.644   7.488 -0.4125  0.9594  0.2057
  119OSM   H17S12540   1.389   5.547   7.439  1.1158  0.9911 -0.6534
  119OSM   H17T12541   1.360   5.653   7.585  1.5086  0.0418  1.3849
  119OSM   C18S12542   1.565   5.637   7.507 -0.2929 -0.1815 -0.9614
  119OSM   H18S12543   1.616   5.731   7.536  0.4709 -0.6839 -0.6523
  119OSM   H18T12544   1.616   5.604   7.414  1.4200  1.1242 -0.5226
  119OSM   H18U12545   1.596   5.561   7.582  0.3991 -0.7056 -1.7634
  119OSM    C1F12546   1.817   6.410   6.164 -0.0404  0.3067  0.2706
  119OSM     OF12547   1.810   6.527   6.120 -0.2152 -0.0743  0.0161
  119OSM    C2F12548   1.953   6.360   6.199  0.7228 -0.4552 -0.0379
  119OSM    H2F12549   2.001   6.332   6.103 -0.5547 -2.1689 -0.2322
  119OSM    H2G12550   1.936   6.262   6.248  0.6120  1.1803  3.4817
  119OSM    C3F12551   2.020   6.461   6.293  0.1518 -0.6704 -0.3555
  119OSM    H3F12552   1.954   6.490   6.378  0.4153 -1.4388  0.1170
  119OSM    H3G12553   2.047   6.553   6.236  2.1607 -2.2575 -2.1394
  119OSM    C4F12554   2.149   6.406   6.357 -0.0985  0.6829 -0.1533
  119OSM    H4F12555   2.200   6.486   6.415  0.4418  1.0736 -1.1579
  119OSM    H4G12556   2.215   6.370   6.276  2.1923 -0.6887  2.1367
  119OSM    C5F12557   2.133   6.282   6.458  0.0162 -0.7183  1.1450
  119OSM    H5F12558   2.219   6.269   6.527  0.3187  1.6674  1.3118
  119OSM    H5G12559   2.124   6.188   6.400 -1.4109 -0.6206  1.1551
  119OSM    C6F12560   2.015   6.299   6.552 -0.3415  0.8468  0.2400
  119OSM    H6F12561   1.921   6.308   6.494 -0.0840  2.1628 -0.0079
  119OSM    H6G12562   2.030   6.384   6.622 -2.3541  0.3497  1.3533
  119OSM    C7F12563   2.006   6.166   6.628 -0.7899 -0.4518 -0.1320
  119OSM    H7F12564   2.059   6.178   6.725  1.4097 -1.0711 -1.1843
  119OSM    H7G12565   2.051   6.076   6.581 -2.1794 -1.2826  0.0816
  119OSM    C8F12566   1.856   6.123   6.652  0.3130 -0.2160  0.0556
  119OSM    H8F12567   1.858   6.026   6.706 -0.6302  1.2211  2.8741
  119OSM    H8G12568   1.807   6.105   6.554  0.9849  0.3796 -0.4043
  119OSM    C9F12569   1.784   6.217   6.737 -0.2373  0.1012 -0.0813
  119OSM    H9F12570   1.765   6.320   6.704  0.0346  0.2213  0.1435
  119OSM   C10F12571   1.728   6.189   6.861  0.0392  0.3147  0.6338
  119OSM   H10F12572   1.666   6.265   6.911 -2.5962 -0.2113 -1.6046
  119OSM   C11F12573   1.723   6.050   6.931  0.0881  0.0475  0.4510
  119OSM   H11F12574   1.697   5.964   6.865  0.6379 -3.1373  4.0645
  119OSM   H11G12575   1.639   6.052   7.004 -0.3113 -2.5774  0.1438
  119OSM   C12F12576   1.853   6.007   7.002 -0.1355 -0.3177 -0.0236
  119OSM   H12F12577   1.870   6.073   7.089  2.9369  0.4800 -1.1209
  119OSM   H12G12578   1.942   6.020   6.937  0.3134  2.4239  0.9971
  119OSM   C13F12579   1.841   5.863   7.062 -0.1058  0.6422 -0.3893
  119OSM   H13F12580   1.859   5.786   6.985  0.1131  1.9660 -1.7160
  119OSM   H13G12581   1.737   5.860   7.100 -0.2112 -0.6913 -0.7299
  119OSM   C14F12582   1.937   5.833   7.183  0.6526  0.2783  0.3660
  119OSM   H14F12583   1.934   5.917   7.255 -3.8167 -0.0937  0.9521
  119OSM   H14G12584   2.035   5.821   7.134 -0.1889  1.4742 -1.7415
  119OSM   C15F12585   1.898   5.710   7.261  0.1298 -0.1047 -1.3038
  119OSM   H15F12586   1.874   5.643   7.176 -1.0679  0.7998 -1.7018
  119OSM   H15G12587   1.809   5.749   7.314  0.2199 -0.5347 -0.8280
  119OSM   C16F12588   2.003   5.650   7.357 -0.1864 -0.5908  0.5657
  119OSM   H16F12589   2.032   5.726   7.432  1.2197  1.5368 -1.9840
  119OSM   H16G12590   2.089   5.614   7.297 -1.2036 -0.5596 -0.9643
  119OSM   C17F12591   1.944   5.527   7.434  0.0092  0.2090 -0.3597
  119OSM   H17F12592   1.848   5.555   7.482 -0.6572 -2.7862  0.3101
  119OSM   H17G12593   2.024   5.500   7.506  0.4523  0.6819 -0.6705
  119OSM   C18F12594   1.914   5.403   7.343  0.3879  0.4142 -0.2156
  119OSM   H18F12595   2.006   5.373   7.288 -0.2618 -2.9164  0.3321
  119OSM   H18G12596   1.838   5.430   7.267  0.7066 -1.2823 -1.1856
  119OSM   H18H12597   1.880   5.312   7.397  1.3208  0.9030  1.2758
  120OSM      N12598   6.193   3.024   6.009 -0.4509 -0.7317 -0.7857
  120OSM    C1512599   6.325   3.065   6.074 -0.6869 -0.1761 -0.1364
  120OSM   H15A12600   6.368   3.141   6.011 -2.8510  0.7734 -0.5693
  120OSM   H15B12601   6.392   2.981   6.065 -0.2696  0.0822  0.5207
  120OSM   H15C12602   6.320   3.093   6.178  2.5295  0.0451  0.0626
  120OSM    C1412603   6.079   3.109   6.062 -0.6633  0.0155 -0.4706
  120OSM   H14A12604   5.986   3.108   6.007 -0.6319 -3.4616 -0.6760
  120OSM   H14B12605   6.098   3.215   6.064 -1.4166  0.1559 -0.4825
  120OSM   H14C12606   6.040   3.080   6.158 -1.8349 -0.6804 -1.1226
  120OSM    C1312607   6.197   3.052   5.865 -0.1882 -0.3754  0.3693
  120OSM   H13A12608   6.104   3.028   5.815 -0.0408 -0.4680  0.1338
  120OSM   H13B12609   6.284   3.007   5.820 -0.0983  1.1180 -1.0681
  120OSM   H13C12610   6.223   3.156   5.852 -1.5721 -0.2103 -1.5355
  120OSM    C1212611   6.158   2.879   6.038  0.0161  0.8333 -0.0592
  120OSM   H12A12612   6.064   2.851   5.993 -0.0272 -0.7362  0.9253
  120OSM   H12B12613   6.137   2.861   6.142 -0.5223 -0.2181 -0.3337
  120OSM    C1112614   6.264   2.775   5.991  0.5010  0.2038  0.1174
  120OSM   H11A12615   6.276   2.784   5.880  2.3547 -1.8615  0.0735
  120OSM   H11B12616   6.224   2.674   6.011  0.8042  0.2701  1.1020
  120OSM      P12617   6.407   2.715   6.200  0.2365 -0.3951  0.0778
  120OSM    O1312618   6.449   2.580   6.179 -0.3506 -0.1673  0.0474
  120OSM    O1412619   6.501   2.795   6.275  0.2833 -0.7088 -0.0192
  120OSM    O1112620   6.260   2.720   6.267 -0.0677  0.1854  0.3650
  120OSM    O1212621   6.390   2.782   6.054 -0.3741 -0.0291 -0.0212
  120OSM    C1S12622   6.238   2.640   6.391  0.2000  0.3201  0.4755
  120OSM    H1S12623   6.268   2.534   6.379  0.4102  0.3467  0.7433
  120OSM    H1T12624   6.129   2.635   6.409  0.3940 -3.4278  1.4950
  120OSM     NF12625   6.288   2.627   6.639 -0.4663 -0.3775  0.1772
  120OSM    HNF12626   6.215   2.657   6.699  0.9390  1.6816  0.9474
  120OSM    C2S12627   6.298   2.707   6.521  0.0130 -0.2631  0.0910
  120OSM    H2S12628   6.407   2.718   6.502  0.2135 -3.5474 -1.1163
  120OSM    C3S12629   6.237   2.849   6.549 -0.1953 -0.0771  1.1723
  120OSM    H3S12630   6.138   2.829   6.594 -1.9294 -0.8330 -2.6043
  120OSM     O312631   6.212   2.927   6.429 -0.6672  0.3238  0.0641
  120OSM    HO312632   6.237   2.867   6.359  1.4549 -0.3311  1.3283
  120OSM    C4S12633   6.318   2.935   6.655  0.3332  0.1010  0.5568
  120OSM    H4S12634   6.417   2.969   6.620  0.1464 -1.5352 -1.8278
  120OSM    C5S12635   6.283   2.970   6.776 -0.9117 -0.3637  0.2862
  120OSM    H5S12636   6.181   2.950   6.812 -1.0103 -0.6319 -0.1386
  120OSM    C6S12637   6.368   3.055   6.872  0.1342  0.4941  0.5631
  120OSM    H6S12638   6.319   3.150   6.903 -3.2505 -0.6347 -0.8769
  120OSM    H6T12639   6.465   3.069   6.819  0.9302  1.6824  2.2528
  120OSM    C7S12640   6.407   2.969   6.995  0.3879 -0.1573  0.1902
  120OSM    H7S12641   6.504   2.997   7.042  0.9946 -2.0655  0.1441
  120OSM    H7T12642   6.406   2.859   6.977 -0.6337  0.0217 -1.0374
  120OSM    C8S12643   6.292   2.983   7.105  0.1224  0.3486 -0.3662
  120OSM    H8S12644   6.210   2.918   7.070  1.6859 -1.8664 -0.0986
  120OSM    H8T12645   6.260   3.088   7.120  1.1493  0.9645 -2.1444
  120OSM    C9S12646   6.348   2.920   7.238 -0.4934  0.1337 -0.5610
  120OSM    H9S12647   6.453   2.944   7.265 -0.8514 -2.1107  3.8991
  120OSM    H9T12648   6.363   2.812   7.216 -1.3883 -0.3280  0.9155
  120OSM   C10S12649   6.266   2.948   7.367  0.0609  0.3484  0.8769
  120OSM   H10S12650   6.174   2.887   7.352  1.7101 -1.9880 -0.4614
  120OSM   H10T12651   6.231   3.051   7.389  1.9628  0.9058  1.4062
  120OSM   C11S12652   6.328   2.913   7.504  0.3825  0.2463 -0.1417
  120OSM   H11S12653   6.350   2.804   7.501  1.1725  0.3995 -0.0250
  120OSM   H11T12654   6.251   2.922   7.584 -0.6441 -4.0202 -0.3728
  120OSM   C12S12655   6.455   2.989   7.538  0.2166  0.4030 -0.2948
  120OSM   H12S12656   6.449   3.096   7.509 -0.2028  0.8211  1.2282
  120OSM   H12T12657   6.542   2.955   7.477  0.7948 -0.2891  0.8647
  120OSM   C13S12658   6.483   2.988   7.687 -0.1701  0.5401  0.0573
  120OSM   H13S12659   6.582   3.032   7.712 -0.1860  1.5671 -1.5736
  120OSM   H13T12660   6.497   2.881   7.715  0.6229 -0.1807 -2.7622
  120OSM   C14S12661   6.378   3.037   7.789  0.2980 -0.1846 -1.0011
  120OSM   H14S12662   6.291   2.974   7.760  0.5395 -0.4335 -1.1797
  120OSM   H14T12663   6.354   3.145   7.779  2.5930  0.2783 -2.0177
  120OSM   C15S12664   6.415   3.002   7.934  0.6321  0.2643  0.6319
  120OSM   H15S12665   6.484   3.077   7.977  0.7144 -0.2438  1.4128
  120OSM   H15T12666   6.462   2.901   7.932 -1.6476 -0.8575 -0.1946
  120OSM   C16S12667   6.289   2.993   8.031 -0.1352 -0.1393 -0.0728
  120OSM   H16S12668   6.220   2.918   7.987  0.4650  0.3009 -1.8681
  120OSM   H16T12669   6.243   3.090   8.057 -1.3006 -0.4901 -0.7434
  120OSM   C17S12670   6.336   2.957   8.179 -0.2878  0.4615  0.1178
  120OSM   H17S12671   6.349   3.055   8.229  1.9984  0.8799 -1.1703
  120OSM   H17T12672   6.439   2.916   8.178 -0.3073  0.3458  1.4399
  120OSM   C18S12673   6.248   2.864   8.262  0.1353  0.4444  0.0032
  120OSM   H18S12674   6.289   2.854   8.365 -1.1358  2.1947  0.7366
  120OSM   H18T12675   6.228   2.762   8.223 -1.5637  0.5100  0.6060
  120OSM   H18U12676   6.154   2.920   8.284  0.8891  1.6315  0.3177
  120OSM    C1F12677   6.358   2.523   6.660  0.4293  0.0472 -0.6084
  120OSM     OF12678   6.429   2.473   6.574  0.0129  0.2509  0.4587
  120OSM    C2F12679   6.346   2.471   6.798  0.2576 -0.0644 -0.3980
  120OSM    H2F12680   6.281   2.381   6.790  0.2574  0.0904 -2.8432
  120OSM    H2G12681   6.278   2.540   6.852 -1.5021 -0.2199 -2.2832
  120OSM    C3F12682   6.482   2.460   6.864  0.5319  0.1701 -0.2514
  120OSM    H3F12683   6.527   2.562   6.871  0.4546  0.3347 -1.8051
  120OSM    H3G12684   6.547   2.397   6.800 -0.7486 -0.7298 -0.7029
  120OSM    C4F12685   6.472   2.402   7.010  0.7976 -0.2677  1.0323
  120OSM    H4F12686   6.578   2.378   7.032  2.0663  0.1601 -3.5597
  120OSM    H4G12687   6.418   2.305   7.013  0.8398 -0.3775 -0.7714
  120OSM    C5F12688   6.414   2.497   7.114 -0.2404 -0.7662 -0.5467
  120OSM    H5F12689   6.320   2.537   7.071 -0.9356  0.7411  2.1682
  120OSM    H5G12690   6.481   2.586   7.118  0.1513 -0.9749 -1.8427
  120OSM    C6F12691   6.402   2.434   7.255  0.6725 -0.2990 -1.0298
  120OSM    H6F12692   6.497   2.381   7.279  0.9530 -0.7748 -3.0574
  120OSM    H6G12693   6.319   2.361   7.250 -2.1482  2.5360  0.3884
  120OSM    C7F12694   6.371   2.540   7.360 -0.1212  0.1461 -0.8360
  120OSM    H7F12695   6.304   2.617   7.315 -0.2297  0.2356 -0.5210
  120OSM    H7G12696   6.472   2.580   7.387 -0.6500  1.5492 -0.8263
  120OSM    C8F12697   6.278   2.475   7.469 -0.0524 -0.3028 -0.1407
  120OSM    H8F12698   6.322   2.379   7.502  1.2109  1.2949  3.4395
  120OSM    H8G12699   6.179   2.454   7.425 -0.1617 -0.9827  0.4254
  120OSM    C9F12700   6.277   2.555   7.595  0.6985  0.2240 -0.1446
  120OSM    H9F12701   6.203   2.637   7.592 -0.1493 -0.5053  0.2979
  120OSM   C10F12702   6.344   2.550   7.707 -0.1180  0.2516  0.1808
  120OSM   H10F12703   6.317   2.626   7.782 -1.2451  0.9146 -0.8673
  120OSM   C11F12704   6.448   2.444   7.740 -0.5860 -0.3814  0.7780
  120OSM   H11F12705   6.526   2.487   7.806  0.2645 -0.1997 -0.3076
  120OSM   H11G12706   6.504   2.406   7.652  0.1544 -1.5046  1.7129
  120OSM   C12F12707   6.377   2.315   7.788 -0.1959 -0.2488  0.0918
  120OSM   H12F12708   6.453   2.234   7.789  0.7506  0.6222  0.2107
  120OSM   H12G12709   6.313   2.285   7.702  0.5958  1.8695 -1.3075
  120OSM   C13F12710   6.298   2.325   7.916  0.5326  0.1643 -0.5080
  120OSM   H13F12711   6.245   2.229   7.929 -1.2673  1.2018  0.1762
  120OSM   H13G12712   6.216   2.399   7.904 -1.6371 -1.9979  0.1469
  120OSM   C14F12713   6.388   2.336   8.039  0.2615 -0.1114 -0.1150
  120OSM   H14F12714   6.449   2.429   8.030  1.0062 -0.4876  0.9209
  120OSM   H14G12715   6.457   2.251   8.056 -1.0581 -1.2295 -0.1334
  120OSM   C15F12716   6.308   2.343   8.169  0.4563 -0.5278 -0.5898
  120OSM   H15F12717   6.281   2.239   8.198 -0.9235 -0.0438 -0.0421
  120OSM   H15G12718   6.220   2.408   8.151  0.9699  1.2269  2.5290
  120OSM   C16F12719   6.377   2.418   8.283  0.9509 -0.3240 -0.6931
  120OSM   H16F12720   6.407   2.518   8.246 -1.4177  0.0365 -1.7834
  120OSM   H16G12721   6.469   2.367   8.320  1.0461  0.5632  0.3591
  120OSM   C17F12722   6.285   2.443   8.413 -0.0339 -0.2677  0.8543
  120OSM   H17F12723   6.249   2.347   8.455 -0.4461  0.1902  1.5565
  120OSM   H17G12724   6.194   2.500   8.386  0.5778 -0.3081 -1.5356
  120OSM   C18F12725   6.351   2.523   8.525 -0.1236  0.4648 -0.2573
  120OSM   H18F12726   6.270   2.546   8.597  0.3625  0.9385  0.1505
  120OSM   H18G12727   6.386   2.621   8.487  1.2003  0.5336  1.0700
  120OSM   H18H12728   6.438   2.475   8.575  0.4572  2.0334  0.2977
  121OSM      N12729   2.525   4.619   5.748  0.1509  0.3355  0.3208
  121OSM    C1512730   2.488   4.478   5.712 -0.1184 -0.0662  0.0298
  121OSM   H15A12731   2.448   4.479   5.611 -0.9327  2.3080  0.3076
  121OSM   H15B12732   2.422   4.428   5.780  0.5930 -1.1411 -0.0471
  121OSM   H15C12733   2.573   4.413   5.700 -1.3741 -1.5133 -1.5543
  121OSM    C1412734   2.621   4.681   5.648 -0.6068 -0.3151  0.1039
  121OSM   H14A12735   2.588   4.664   5.547  0.0105  0.5699 -0.2539
  121OSM   H14B12736   2.723   4.647   5.654 -0.4735  0.1322  0.5306
  121OSM   H14C12737   2.641   4.787   5.650  2.8250 -0.5745 -4.4138
  121OSM    C1312738   2.397   4.699   5.730 -0.3673 -0.2212 -0.0076
  121OSM   H13A12739   2.407   4.800   5.767 -0.8315  0.3370 -1.3471
  121OSM   H13B12740   2.314   4.649   5.778  0.1776 -0.0944  1.0986
  121OSM   H13C12741   2.370   4.707   5.626  2.4584  1.4841 -0.7172
  121OSM    C1212742   2.582   4.637   5.889  0.1288  0.2364 -1.0770
  121OSM   H12A12743   2.590   4.743   5.911 -0.4195  0.1860 -0.6087
  121OSM   H12B12744   2.677   4.586   5.896  0.7376  1.3434 -0.9488
  121OSM    C1112745   2.494   4.587   6.007 -0.1056  0.0572 -0.4414
  121OSM   H11A12746   2.540   4.628   6.099  0.3992 -0.6663 -0.3648
  121OSM   H11B12747   2.502   4.477   6.015 -1.8753 -0.1031 -0.4646
  121OSM      P12748   2.247   4.576   6.090 -0.1175  0.7742 -0.2578
  121OSM    O1312749   2.118   4.636   6.060  0.4082 -0.0129  0.2209
  121OSM    O1412750   2.256   4.433   6.053 -0.2740 -0.4394 -0.7997
  121OSM    O1112751   2.283   4.594   6.245  0.0282  1.2356  0.2131
  121OSM    O1212752   2.358   4.651   6.016 -0.7955 -0.3063  0.0205
  121OSM    C1S12753   2.204   4.668   6.340 -0.2449 -0.0303 -0.4067
  121OSM    H1S12754   2.104   4.620   6.347 -0.9200  1.4725  0.9993
  121OSM    H1T12755   2.193   4.770   6.299  0.1272  0.0738 -0.2548
  121OSM     NF12756   2.197   4.730   6.575  0.1877 -0.2230 -0.6821
  121OSM    HNF12757   2.207   4.826   6.603 -1.0591 -0.2797  0.0599
  121OSM    C2S12758   2.288   4.677   6.473 -0.2935 -0.6895  0.0845
  121OSM    H2S12759   2.318   4.572   6.491 -1.7273 -1.0293  0.6147
  121OSM    C3S12760   2.419   4.756   6.456  0.0933  0.3879  0.3293
  121OSM    H3S12761   2.385   4.858   6.427 -0.0128  0.1603 -0.3502
  121OSM     O312762   2.500   4.735   6.343  0.4960 -0.3213 -0.4167
  121OSM    HO312763   2.435   4.684   6.294  0.8867 -0.6306 -0.6102
  121OSM    C4S12764   2.487   4.755   6.590  0.2214 -0.1632  0.4580
  121OSM    H4S12765   2.450   4.833   6.658  0.2345 -0.3994  0.7362
  121OSM    C5S12766   2.575   4.667   6.631 -0.6300  0.0339  0.0100
  121OSM    H5S12767   2.596   4.578   6.568  2.6587  0.0373  0.9000
  121OSM    C6S12768   2.639   4.666   6.767  0.4815  0.6365 -0.2654
  121OSM    H6S12769   2.692   4.570   6.787  1.3738  0.8622 -1.3918
  121OSM    H6T12770   2.562   4.675   6.845 -0.1940 -0.6817 -0.7490
  121OSM    C7S12771   2.728   4.789   6.772 -0.0652 -0.1905 -0.5370
  121OSM    H7S12772   2.664   4.880   6.769 -1.0981 -0.7840  1.3647
  121OSM    H7T12773   2.810   4.783   6.698  0.3435 -0.9359 -0.0362
  121OSM    C8S12774   2.803   4.794   6.904  0.3197  0.3128  0.0446
  121OSM    H8S12775   2.856   4.890   6.887 -0.4003  0.4594 -1.5803
  121OSM    H8T12776   2.864   4.702   6.901 -2.9598 -2.0194 -1.5810
  121OSM    C9S12777   2.717   4.797   7.026  0.4061  0.3828 -0.0295
  121OSM    H9S12778   2.636   4.722   7.031  1.1395 -0.4817 -0.7701
  121OSM    H9T12779   2.667   4.896   7.022  0.2983  0.3175 -0.2531
  121OSM   C10S12780   2.806   4.800   7.147 -0.5810 -0.2587 -0.6308
  121OSM   H10S12781   2.866   4.893   7.153  1.0698 -1.3646  0.8668
  121OSM   H10T12782   2.884   4.722   7.140  2.0105  2.1320 -0.0993
  121OSM   C11S12783   2.743   4.787   7.283 -0.3647 -0.2237  0.1138
  121OSM   H11S12784   2.680   4.695   7.276 -0.5150 -0.0083 -1.9427
  121OSM   H11T12785   2.678   4.877   7.290  2.1779  1.8754 -1.3605
  121OSM   C12S12786   2.856   4.796   7.392 -0.1958  0.4078  0.5069
  121OSM   H12S12787   2.898   4.896   7.370 -1.0294  0.5298 -0.6407
  121OSM   H12T12788   2.920   4.709   7.368 -0.7650  0.0898  0.1179
  121OSM   C13S12789   2.821   4.803   7.538  0.3813 -0.1756 -0.0337
  121OSM   H13S12790   2.720   4.849   7.545  0.8172  0.8748 -0.3700
  121OSM   H13T12791   2.890   4.873   7.589  0.0163  0.3187 -0.2128
  121OSM   C14S12792   2.823   4.671   7.615 -0.2536 -0.0648 -0.1700
  121OSM   H14S12793   2.926   4.632   7.627 -0.1947  0.2652  0.4797
  121OSM   H14T12794   2.764   4.597   7.557 -1.2629  0.1856  0.4978
  121OSM   C15S12795   2.757   4.661   7.750 -0.0648  0.3141  0.0553
  121OSM   H15S12796   2.658   4.711   7.758 -0.2960 -0.2775  1.1421
  121OSM   H15T12797   2.826   4.712   7.821 -0.0151  2.4667 -1.4653
  121OSM   C16S12798   2.745   4.520   7.802  0.0162  0.3183  0.5809
  121OSM   H16S12799   2.845   4.490   7.838 -0.2341 -1.9015 -0.3851
  121OSM   H16T12800   2.708   4.462   7.715 -1.5114  5.4536 -2.6165
  121OSM   C17S12801   2.660   4.506   7.928 -0.4049  0.3275  0.0144
  121OSM   H17S12802   2.552   4.528   7.917 -0.7260 -1.2581 -0.3149
  121OSM   H17T12803   2.705   4.582   7.995  0.9404  0.7465 -1.3038
  121OSM   C18S12804   2.668   4.372   7.998  0.8482  0.5764  0.0392
  121OSM   H18S12805   2.604   4.292   7.955  1.0288  0.5890 -0.2528
  121OSM   H18T12806   2.632   4.383   8.103 -0.7932 -0.4107 -0.3955
  121OSM   H18U12807   2.770   4.327   8.008  0.0699 -1.3552 -0.2250
  121OSM    C1F12808   2.087   4.671   6.630  0.5778  0.8837  0.7555
  121OSM     OF12809   2.074   4.550   6.632  0.2918 -0.0651 -0.0890
  121OSM    C2F12810   1.986   4.760   6.674  0.1473  0.3356  0.1443
  121OSM    H2F12811   1.915   4.775   6.591 -1.2530  0.6612  1.3576
  121OSM    H2G12812   2.027   4.847   6.730  0.2094 -0.1626  0.9045
  121OSM    C3F12813   1.889   4.706   6.784  0.6939  0.3685  0.4565
  121OSM    H3F12814   1.850   4.609   6.746  2.6097 -0.3811  0.2698
  121OSM    H3G12815   1.814   4.787   6.796  1.1757  1.3962 -2.5716
  121OSM    C4F12816   1.949   4.690   6.928 -0.0741 -0.1034 -0.1216
  121OSM    H4F12817   2.021   4.774   6.943  0.2069 -0.0252 -1.6976
  121OSM    H4G12818   2.016   4.602   6.923 -0.9497 -0.9318  1.9630
  121OSM    C5F12819   1.845   4.683   7.041  0.1707 -0.2110 -0.0244
  121OSM    H5F12820   1.780   4.602   7.002  0.9582 -1.4979  1.2263
  121OSM    H5G12821   1.790   4.778   7.057 -2.0688 -1.4282 -0.1117
  121OSM    C6F12822   1.903   4.644   7.183  0.6727 -0.4900 -0.4932
  121OSM    H6F12823   2.005   4.600   7.183  2.5022  3.2876 -2.0376
  121OSM    H6G12824   1.824   4.578   7.225 -0.4751  1.5164  0.6246
  121OSM    C7F12825   1.911   4.769   7.273  0.2292 -0.0572  0.3484
  121OSM    H7F12826   1.820   4.833   7.273  1.3964  1.6642  0.8786
  121OSM    H7G12827   1.987   4.835   7.225 -1.1456  0.5918 -1.0358
  121OSM    C8F12828   1.939   4.741   7.417 -0.0441 -0.2017 -0.3752
  121OSM    H8F12829   1.840   4.711   7.459  0.4607 -2.2852 -0.5668
  121OSM    H8G12830   1.979   4.836   7.459  3.1310 -0.0888 -3.2182
  121OSM    C9F12831   2.040   4.624   7.439  0.2169 -0.5791  0.2169
  121OSM    H9F12832   2.119   4.621   7.363  0.5260  2.7566  0.2937
  121OSM   C10F12833   2.021   4.521   7.525  0.0810 -0.3707 -0.0559
  121OSM   H10F12834   2.096   4.443   7.543  1.1136  0.4674 -0.6009
  121OSM   C11F12835   1.904   4.511   7.622  0.4270  0.3187  0.5093
  121OSM   H11F12836   1.863   4.408   7.630  1.8071 -0.1497  2.2407
  121OSM   H11G12837   1.815   4.573   7.600 -0.5331 -1.6353 -1.4293
  121OSM   C12F12838   1.933   4.548   7.772 -0.0956 -0.1900 -0.1212
  121OSM   H12F12839   1.917   4.657   7.782  3.8299  0.3657  1.8328
  121OSM   H12G12840   2.040   4.524   7.785  0.5947  1.0338 -2.7750
  121OSM   C13F12841   1.843   4.487   7.877 -0.2298 -0.1700 -0.2205
  121OSM   H13F12842   1.739   4.484   7.837  0.5401 -1.4863 -2.2782
  121OSM   H13G12843   1.854   4.541   7.974 -1.1359  0.0312 -0.2164
  121OSM   C14F12844   1.876   4.344   7.907 -0.2360 -0.6167 -0.9176
  121OSM   H14F12845   1.977   4.336   7.952 -0.9013  0.2349  0.8101
  121OSM   H14G12846   1.876   4.273   7.821  0.3684 -1.5138 -0.2007
  121OSM   C15F12847   1.773   4.292   8.003 -0.5300 -0.5765  0.1622
  121OSM   H15F12848   1.678   4.308   7.949  0.0610  0.3682 -0.6356
  121OSM   H15G12849   1.780   4.357   8.093 -1.7861  4.6743 -3.0906
  121OSM   C16F12850   1.797   4.148   8.053 -0.0269  0.7050  0.2633
  121OSM   H16F12851   1.771   4.074   7.974 -2.1445  0.9763  0.6586
  121OSM   H16G12852   1.733   4.133   8.143  2.4401  1.8635  2.3351
  121OSM   C17F12853   1.941   4.101   8.102 -0.5423  0.4693 -0.3613
  121OSM   H17F12854   1.963   4.187   8.169  0.9412  0.4203 -0.7477
  121OSM   H17G12855   2.016   4.105   8.020  0.9526 -0.0331  0.9454
  121OSM   C18F12856   1.944   3.976   8.181  0.7306  1.3080 -0.3306
  121OSM   H18F12857   2.049   3.953   8.210  0.5566 -0.2639 -0.8286
  121OSM   H18G12858   1.907   3.888   8.124  3.3745 -0.4314  0.4473
  121OSM   H18H12859   1.871   3.980   8.265 -1.3842 -0.5843 -1.9296
  122OSM      N12860   0.662   6.071   5.734 -0.8550 -0.7697 -0.6202
  122OSM    C1512861   0.547   5.981   5.754  0.8901  0.3424 -0.3631
  122OSM   H15A12862   0.507   5.997   5.853 -1.5202 -3.3286 -0.5366
  122OSM   H15B12863   0.558   5.874   5.750 -1.2381  0.0125  0.9226
  122OSM   H15C12864   0.466   6.014   5.690  0.5548  0.9183  0.3431
  122OSM    C1412865   0.777   6.001   5.805 -0.7632 -0.0148 -0.0825
  122OSM   H14A12866   0.781   5.893   5.794  0.2266 -0.0093  0.1371
  122OSM   H14B12867   0.777   6.029   5.909  0.6143 -0.3247  0.0246
  122OSM   H14C12868   0.870   6.039   5.766 -0.5761 -0.3404  0.0390
  122OSM    C1312869   0.695   6.083   5.586 -1.0517  0.5915  0.6506
  122OSM   H13A12870   0.795   6.120   5.572  0.8018 -3.4491  1.6183
  122OSM   H13B12871   0.619   6.140   5.535 -1.4502 -0.9202 -0.5585
  122OSM   H13C12872   0.689   5.987   5.536  1.4258  0.6564  0.1099
  122OSM    C1212873   0.639   6.209   5.803 -0.2655 -0.2726  0.6099
  122OSM   H12A12874   0.558   6.265   5.757  1.6800  0.5932 -1.9675
  122OSM   H12B12875   0.722   6.270   5.772 -0.9890 -0.5442 -2.2027
  122OSM    C1112876   0.635   6.230   5.959  0.2409 -0.7143  0.5560
  122OSM   H11A12877   0.628   6.339   5.981 -0.6187 -0.9846  1.6961
  122OSM   H11B12878   0.739   6.211   5.993  0.7035 -1.1035 -1.0137
  122OSM      P12879   0.390   6.212   6.047  0.0549  0.2575 -0.0880
  122OSM    O1312880   0.352   6.306   5.939  0.2110  0.1902  0.3374
  122OSM    O1412881   0.300   6.101   6.074  0.8964 -0.3594 -0.6816
  122OSM    O1112882   0.418   6.291   6.186  0.6700 -0.3861  0.1763
  122OSM    O1212883   0.531   6.148   6.026  0.0064 -0.1025  0.3714
  122OSM    C1S12884   0.479   6.229   6.295 -1.0045  0.8693 -1.3841
  122OSM    H1S12885   0.570   6.172   6.268 -1.2723  0.1835 -0.8872
  122OSM    H1T12886   0.407   6.152   6.331  0.2638  0.5421  0.6135
  122OSM     NF12887   0.552   6.238   6.514  0.7143 -0.3533  0.3840
  122OSM    HNF12888   0.476   6.199   6.564  1.2939 -1.5441  0.3627
  122OSM    C2S12889   0.510   6.323   6.414  0.7896  0.4491  0.6890
  122OSM    H2S12890   0.602   6.377   6.382  1.4533 -2.5484 -3.2342
  122OSM    C3S12891   0.388   6.419   6.443  0.0728 -0.3796 -0.7409
  122OSM    H3S12892   0.309   6.347   6.475  0.3808 -0.3575  0.0884
  122OSM     O312893   0.342   6.496   6.335  0.4909  0.1070  0.0107
  122OSM    HO312894   0.387   6.460   6.259  1.9570  1.4083  0.2151
  122OSM    C4S12895   0.432   6.518   6.556  0.3332  0.3061  0.2540
  122OSM    H4S12896   0.522   6.574   6.528  1.1992 -1.2044 -0.1365
  122OSM    C5S12897   0.372   6.531   6.679 -0.3492  1.0822  0.0676
  122OSM    H5S12898   0.300   6.454   6.709 -0.0467  1.5181  1.9905
  122OSM    C6S12899   0.433   6.613   6.792  0.2994 -0.4827  0.4567
  122OSM    H6S12900   0.376   6.576   6.880  2.0571 -1.7554  1.1134
  122OSM    H6T12901   0.407   6.718   6.770 -0.1590 -1.3353 -4.4261
  122OSM    C7S12902   0.588   6.605   6.815  0.2794  0.7728 -0.7731
  122OSM    H7S12903   0.610   6.681   6.894 -1.5832  1.7514 -1.1325
  122OSM    H7T12904   0.650   6.641   6.730 -0.6046  1.6242 -1.0855
  122OSM    C8S12905   0.632   6.471   6.872  0.5535  0.8263 -0.3059
  122OSM    H8S12906   0.742   6.451   6.869  0.2561 -1.2051  0.6846
  122OSM    H8T12907   0.591   6.398   6.800 -1.8958 -1.4286  3.0609
  122OSM    C9S12908   0.595   6.441   7.017  0.6464  0.0892  0.0443
  122OSM    H9S12909   0.485   6.425   7.027  0.5074  1.0379  0.1505
  122OSM    H9T12910   0.624   6.525   7.083  0.0467  0.2077  0.1598
  122OSM   C10S12911   0.663   6.314   7.067  0.5714 -0.0373 -0.0209
  122OSM   H10S12912   0.773   6.316   7.054  0.7077 -3.4179 -0.1841
  122OSM   H10T12913   0.628   6.227   7.007 -2.3192 -0.0050  1.4353
  122OSM   C11S12914   0.632   6.268   7.207 -0.7779 -0.9746 -0.0501
  122OSM   H11S12915   0.523   6.272   7.228 -1.3182  0.7536 -2.6964
  122OSM   H11T12916   0.680   6.347   7.268 -0.6850  0.5757 -2.0331
  122OSM   C12S12917   0.676   6.125   7.248 -0.3099 -0.4992 -0.1462
  122OSM   H12S12918   0.784   6.105   7.226 -0.6179 -0.8671 -1.4281
  122OSM   H12T12919   0.631   6.050   7.180  2.5684 -1.8032 -0.7898
  122OSM   C13S12920   0.664   6.102   7.400  0.0178 -0.4271 -0.3385
  122OSM   H13S12921   0.560   6.083   7.433 -0.9080  0.4703 -2.5584
  122OSM   H13T12922   0.686   6.198   7.452 -1.3479 -0.1985 -0.1323
  122OSM   C14S12923   0.766   6.005   7.458 -0.7967  0.2108 -0.0837
  122OSM   H14S12924   0.864   6.029   7.413  0.2339 -0.0286  1.9059
  122OSM   H14T12925   0.729   5.905   7.428 -2.0260  0.5170  0.3327
  122OSM   C15S12926   0.781   6.010   7.607  0.2691  0.3765 -0.0441
  122OSM   H15S12927   0.679   6.001   7.650  0.3296  0.3866  0.1045
  122OSM   H15T12928   0.833   6.102   7.643 -0.9841  0.2632  2.2410
  122OSM   C16S12929   0.856   5.890   7.666  0.1065 -0.8568 -0.0989
  122OSM   H16S12930   0.964   5.885   7.642  0.7619 -0.6573  2.5847
  122OSM   H16T12931   0.809   5.798   7.625 -2.9171 -0.5452  2.3075
  122OSM   C17S12932   0.853   5.885   7.825  0.3092 -0.0602  0.4062
  122OSM   H17S12933   0.749   5.908   7.857  0.7118 -0.7283  2.3363
  122OSM   H17T12934   0.922   5.955   7.876 -0.9625  0.4591  1.4495
  122OSM   C18S12935   0.888   5.747   7.876 -0.2435 -0.0381  0.1147
  122OSM   H18S12936   0.805   5.674   7.867 -0.2549 -0.0896  0.6139
  122OSM   H18T12937   0.931   5.743   7.979  2.7088 -3.0778 -1.0604
  122OSM   H18U12938   0.974   5.707   7.818  0.0900 -0.9246  1.1944
  122OSM    C1F12939   0.666   6.174   6.526  0.4762  0.1316  0.7569
  122OSM     OF12940   0.751   6.186   6.439 -0.0849 -0.0866 -0.0669
  122OSM    C2F12941   0.684   6.080   6.640  0.1841  0.2439 -0.3175
  122OSM    H2F12942   0.628   5.992   6.601  0.0491  0.1083  0.1809
  122OSM    H2G12943   0.642   6.126   6.732 -0.6611  0.7611 -0.9431
  122OSM    C3F12944   0.833   6.039   6.670  0.9482  0.3438  0.3043
  122OSM    H3F12945   0.868   6.122   6.735 -1.7035  1.6950  0.1360
  122OSM    H3G12946   0.884   6.035   6.571  3.0742 -4.1275  1.3323
  122OSM    C4F12947   0.859   5.910   6.754 -0.5168 -0.2163 -0.4186
  122OSM    H4F12948   0.967   5.904   6.778 -0.5390  1.6569  0.2483
  122OSM    H4G12949   0.829   5.815   6.705 -0.4525 -0.0462 -0.7920
  122OSM    C5F12950   0.782   5.927   6.886 -0.2503  0.1312  0.4082
  122OSM    H5F12951   0.675   5.920   6.858 -0.2818 -0.4283  0.6555
  122OSM    H5G12952   0.797   6.024   6.937 -1.5200  0.8031 -0.4449
  122OSM    C6F12953   0.817   5.814   6.984 -0.2176  0.4885 -0.3204
  122OSM    H6F12954   0.787   5.710   6.959  1.2682 -0.0360 -0.0278
  122OSM    H6G12955   0.756   5.835   7.075  3.0781 -1.0655  2.4993
  122OSM    C7F12956   0.967   5.815   7.028  0.2200 -0.4109  0.0689
  122OSM    H7F12957   0.995   5.921   7.049  1.2926 -0.8271  0.7882
  122OSM    H7G12958   1.022   5.778   6.940  1.3461 -4.4076  2.2171
  122OSM    C8F12959   1.009   5.725   7.146  0.6727 -0.2031 -0.4038
  122OSM    H8F12960   1.116   5.746   7.168  0.2685  1.3440  0.2148
  122OSM    H8G12961   1.010   5.618   7.115  2.3923 -0.1761 -0.5066
  122OSM    C9F12962   0.928   5.741   7.274 -0.1594 -0.5622  0.1655
  122OSM    H9F12963   0.863   5.829   7.266  1.1630  0.5509  1.2062
  122OSM   C10F12964   0.912   5.659   7.380  0.1082  0.5266 -0.0892
  122OSM   H10F12965   0.859   5.709   7.463  0.3180  1.9345 -0.7762
  122OSM   C11F12966   0.997   5.530   7.404  0.4654 -0.4055  0.0569
  122OSM   H11F12967   1.099   5.528   7.359  0.4147 -4.2472 -0.1930
  122OSM   H11G12968   0.941   5.447   7.356 -0.5193  0.1318  0.2477
  122OSM   C12F12969   1.007   5.498   7.551 -0.0037  0.0610 -0.6196
  122OSM   H12F12970   1.055   5.583   7.603  1.8251 -1.0086 -0.4677
  122OSM   H12G12971   1.074   5.410   7.562 -1.1608 -0.5191  2.9288
  122OSM   C13F12972   0.878   5.466   7.624 -0.6791  0.6112  0.8034
  122OSM   H13F12973   0.829   5.387   7.564  0.8496 -1.8933  2.6479
  122OSM   H13G12974   0.812   5.555   7.625 -0.8793  0.5215 -1.2055
  122OSM   C14F12975   0.921   5.409   7.764  0.0401  0.0657 -0.0528
  122OSM   H14F12976   0.975   5.490   7.818  1.7650 -0.2470 -1.1923
  122OSM   H14G12977   0.999   5.331   7.750  0.3118  0.2863  0.2227
  122OSM   C15F12978   0.810   5.333   7.837  0.4116 -0.4350 -0.2694
  122OSM   H15F12979   0.712   5.351   7.788 -0.1685 -0.7845  0.7332
  122OSM   H15G12980   0.793   5.366   7.942 -2.4865  0.5395 -0.9528
  122OSM   C16F12981   0.819   5.182   7.822  0.0448 -0.4183 -0.3839
  122OSM   H16F12982   0.911   5.138   7.867  0.1016 -2.0577 -2.0217
  122OSM   H16G12983   0.819   5.147   7.717 -1.1001  0.7755 -0.8168
  122OSM   C17F12984   0.702   5.113   7.890 -0.0056 -0.3835 -0.2340
  122OSM   H17F12985   0.698   5.003   7.876  0.1136 -0.3893 -0.2266
  122OSM   H17G12986   0.605   5.156   7.857 -0.8333 -2.4866 -0.7092
  122OSM   C18F12987   0.703   5.140   8.038  0.9608  0.2380 -0.1729
  122OSM   H18F12988   0.632   5.065   8.080  0.5431 -0.7965 -2.5229
  122OSM   H18G12989   0.688   5.242   8.078  0.3788 -0.1835  0.7140
  122OSM   H18H12990   0.799   5.106   8.082 -0.4460 -3.2393  0.5735
  123OSM      N12991   5.461   2.048   6.534 -0.7827 -0.0004 -0.0762
  123OSM    C1512992   5.399   2.104   6.660  0.1889 -0.0006  0.0006
  123OSM   H15A12993   5.292   2.093   6.656  0.1441 -0.6757  2.1717
  123OSM   H15B12994   5.405   2.212   6.663 -0.7161  0.0316  1.3114
  123OSM   H15C12995   5.441   2.070   6.753  0.5012  2.9507  1.0463
  123OSM    C1412996   5.414   2.126   6.415 -0.6404 -0.2785 -1.1148
  123OSM   H14A12997   5.467   2.098   6.325  0.8742  0.4222 -0.4819
  123OSM   H14B12998   5.453   2.225   6.429  1.2681 -1.1650  0.4377
  123OSM   H14C12999   5.306   2.123   6.410 -0.6900 -0.4446 -0.1755
  123OSM    C1313000   5.618   2.064   6.554  0.5316  0.0226  0.4878
  123OSM   H13A13001   5.637   2.168   6.574 -1.0775  1.0133 -2.4178
  123OSM   H13B13002   5.670   2.040   6.463 -0.5059 -1.1880  0.1772
  123OSM   H13C13003   5.657   2.009   6.638 -2.7886 -2.0405  0.8939
  123OSM    C1213004   5.433   1.900   6.518 -0.3067  0.2750  1.4565
  123OSM   H12A13005   5.328   1.882   6.533 -0.4759 -1.0274 -0.8887
  123OSM   H12B13006   5.483   1.851   6.600 -0.9404  0.5916  2.0441
  123OSM    C1113007   5.473   1.830   6.388 -0.5115 -0.4203 -0.1983
  123OSM   H11A13008   5.430   1.879   6.298 -0.1606  0.9893  0.3729
  123OSM   H11B13009   5.426   1.729   6.382 -0.3200 -0.5794  0.8526
  123OSM      P13010   5.702   1.690   6.435  0.3597  0.0781 -0.1571
  123OSM    O1313011   5.682   1.573   6.353  0.3730  0.5390  0.6418
  123OSM    O1413012   5.844   1.731   6.455  0.0000  0.1745  0.9460
  123OSM    O1113013   5.629   1.665   6.574  0.4846  0.6987  0.5911
  123OSM    O1213014   5.619   1.807   6.368 -0.2970  0.2858 -0.6112
  123OSM    C1S13015   5.718   1.680   6.690 -0.0576  0.2240  0.6056
  123OSM    H1S13016   5.781   1.771   6.681 -0.6675  0.4931 -1.8308
  123OSM    H1T13017   5.790   1.596   6.698  1.4959  1.4300 -0.1501
  123OSM     NF13018   5.691   1.744   6.920 -0.6051 -0.3409  0.2721
  123OSM    HNF13019   5.735   1.688   6.991 -0.0034  2.1495  1.9799
  123OSM    C2S13020   5.621   1.684   6.808  0.7502 -0.7844 -0.7251
  123OSM    H2S13021   5.536   1.750   6.780  1.9684  1.4914  0.5866
  123OSM    C3S13022   5.578   1.543   6.821  0.0131  0.6261 -0.1347
  123OSM    H3S13023   5.669   1.480   6.828 -0.6131 -0.2395  0.5928
  123OSM     O313024   5.504   1.491   6.710 -0.1701 -0.1705 -0.2474
  123OSM    HO313025   5.549   1.540   6.641  0.7821 -0.2123  0.3261
  123OSM    C4S13026   5.503   1.517   6.948  0.3667  0.1402  0.2798
  123OSM    H4S13027   5.414   1.581   6.951  1.4991  1.7882  3.4868
  123OSM    C5S13028   5.516   1.414   7.030  0.2691 -0.3529 -0.0227
  123OSM    H5S13029   5.602   1.346   7.019  1.3285  0.6219  1.7425
  123OSM    C6S13030   5.432   1.382   7.149  0.2384 -0.3627  0.0694
  123OSM    H6S13031   5.375   1.288   7.135 -2.7605  1.0725  1.6282
  123OSM    H6T13032   5.359   1.465   7.166 -0.8268 -0.9433 -1.4611
  123OSM    C7S13033   5.512   1.363   7.276  0.1944  0.4159  0.0906
  123OSM    H7S13034   5.565   1.458   7.301  1.8250 -0.6082  0.7031
  123OSM    H7T13035   5.585   1.283   7.253 -1.8171 -0.2113 -5.5305
  123OSM    C8S13036   5.417   1.322   7.388 -0.2613 -0.0108  0.0214
  123OSM    H8S13037   5.395   1.215   7.369  0.9505 -0.2277 -0.2406
  123OSM    H8T13038   5.336   1.398   7.383 -1.1006 -0.9839 -2.2606
  123OSM    C9S13039   5.482   1.351   7.528 -0.0662  0.5906  0.0833
  123OSM    H9S13040   5.481   1.462   7.532  0.1718  0.5747  0.6758
  123OSM    H9T13041   5.585   1.309   7.535 -0.0208  0.9809  3.7227
  123OSM   C10S13042   5.396   1.304   7.647 -0.1599  0.6745  0.1659
  123OSM   H10S13043   5.385   1.195   7.627  1.1223  0.4252  0.7015
  123OSM   H10T13044   5.299   1.359   7.644 -0.7848 -0.3778  0.4781
  123OSM   C11S13045   5.469   1.319   7.782 -0.2071 -0.2682  0.1096
  123OSM   H11S13046   5.534   1.409   7.787  0.2234 -0.5615 -0.1765
  123OSM   H11T13047   5.539   1.233   7.788 -0.6522 -0.6309  0.1453
  123OSM   C12S13048   5.380   1.308   7.906  0.8176 -0.4872  0.4627
  123OSM   H12S13049   5.311   1.223   7.887  2.0580 -1.4838  0.3067
  123OSM   H12T13050   5.316   1.398   7.917  1.2646 -0.1170  0.0819
  123OSM   C13S13051   5.456   1.272   8.037  0.0291 -0.1558 -0.3410
  123OSM   H13S13052   5.381   1.254   8.116  1.0721 -0.8783  0.5116
  123OSM   H13T13053   5.512   1.361   8.075  0.8325 -0.5550 -0.5649
  123OSM   C14S13054   5.534   1.139   8.027  0.1570 -1.0391  0.6839
  123OSM   H14S13055   5.620   1.161   7.960 -1.3276  0.7524 -0.7561
  123OSM   H14T13056   5.468   1.065   7.977 -0.4512  0.2559 -0.4812
  123OSM   C15S13057   5.600   1.091   8.159  0.8087  0.3558 -0.0552
  123OSM   H15S13058   5.656   0.998   8.135 -0.4916 -0.5263  0.2136
  123OSM   H15T13059   5.532   1.063   8.242 -0.0715  0.4545 -0.7192
  123OSM   C16S13060   5.695   1.191   8.224 -0.3300 -1.0428 -0.2053
  123OSM   H16S13061   5.638   1.277   8.266  0.5951 -0.7240  0.4347
  123OSM   H16T13062   5.764   1.222   8.142  0.0814 -1.8461 -0.1712
  123OSM   C17S13063   5.784   1.127   8.327  0.6405 -0.2268  0.0328
  123OSM   H17S13064   5.849   1.056   8.270  1.8928  0.5175  0.4849
  123OSM   H17T13065   5.720   1.071   8.398  0.8505  1.1835  1.3884
  123OSM   C18S13066   5.867   1.222   8.410  0.2570 -0.1652  0.0173
  123OSM   H18S13067   5.932   1.164   8.480  0.7105  1.0932  0.6748
  123OSM   H18T13068   5.810   1.295   8.471  0.7453  0.5465 -0.3636
  123OSM   H18U13069   5.939   1.276   8.344  1.6943 -0.1393  1.5186
  123OSM    C1F13070   5.720   1.877   6.929  0.1550  0.4216  0.7194
  123OSM     OF13071   5.646   1.958   6.868  0.8062 -0.3198  0.0168
  123OSM    C2F13072   5.831   1.921   7.018  0.3829 -0.1509  0.6036
  123OSM    H2F13073   5.914   1.956   6.954 -0.4682  0.0504 -0.4195
  123OSM    H2G13074   5.873   1.830   7.067  2.3671 -0.6461 -1.8141
  123OSM    C3F13075   5.781   2.013   7.130 -0.0528  0.0804  0.7748
  123OSM    H3F13076   5.683   1.968   7.159 -0.0341 -2.5241 -2.5311
  123OSM    H3G13077   5.759   2.109   7.078 -2.1200 -0.6169  0.2553
  123OSM    C4F13078   5.879   2.010   7.255  0.2260 -0.2285 -0.0083
  123OSM    H4F13079   5.974   2.056   7.220  0.3324 -2.0054 -2.2418
  123OSM    H4G13080   5.907   1.906   7.279  1.4011  0.3115  1.1208
  123OSM    C5F13081   5.826   2.084   7.374  0.6139 -0.7950  1.0424
  123OSM    H5F13082   5.733   2.032   7.405  0.8001 -1.5912  0.3337
  123OSM    H5G13083   5.809   2.187   7.336  1.8911 -0.5201  1.1728
  123OSM    C6F13084   5.934   2.099   7.483  0.7231 -0.0279 -0.4567
  123OSM    H6F13085   6.028   2.150   7.450  0.8150  0.2301  0.1961
  123OSM    H6G13086   5.958   1.998   7.523 -2.5828 -0.0023  1.9430
  123OSM    C7F13087   5.882   2.173   7.619  0.3017  0.2444  0.0728
  123OSM    H7F13088   5.782   2.136   7.649 -1.1993  3.2051 -0.8303
  123OSM    H7G13089   5.874   2.279   7.588 -1.5843  0.0483 -0.2416
  123OSM    C8F13090   5.986   2.156   7.731  0.7047  0.3492 -0.4112
  123OSM    H8F13091   5.981   2.245   7.798  0.0139 -0.0984  0.1368
  123OSM    H8G13092   6.078   2.156   7.669  0.5219  1.7331 -0.7173
  123OSM    C9F13093   5.979   2.017   7.802  0.4993 -0.8101 -0.4542
  123OSM    H9F13094   6.021   1.931   7.747  0.3035 -1.7555  0.8262
  123OSM   C10F13095   5.953   1.982   7.930  0.8476 -0.3659  0.1896
  123OSM   H10F13096   5.946   1.876   7.959 -2.4463  0.0944  1.4932
  123OSM   C11F13097   5.906   2.077   8.040  0.4104  0.9056  0.1852
  123OSM   H11F13098   5.800   2.049   8.061  0.8526 -0.1310  1.1508
  123OSM   H11G13099   5.908   2.185   8.014  1.7009  0.9060  0.2418
  123OSM   C12F13100   5.982   2.051   8.165  0.2160 -0.2630 -0.2089
  123OSM   H12F13101   6.087   2.086   8.156 -0.1655  0.6254 -1.5590
  123OSM   H12G13102   5.980   1.941   8.182 -0.0781  0.1751  3.4042
  123OSM   C13F13103   5.905   2.108   8.287  0.1130 -0.9142 -0.8637
  123OSM   H13F13104   5.795   2.097   8.277 -0.1581 -0.6330  1.2450
  123OSM   H13G13105   5.914   2.218   8.273  0.7824 -0.9097 -0.4478
  123OSM   C14F13106   5.954   2.046   8.417 -0.2626  0.9251 -0.0245
  123OSM   H14F13107   5.915   1.943   8.433  0.7708  0.8053  1.9817
  123OSM   H14G13108   5.912   2.114   8.494 -0.5171  2.3044 -1.3305
  123OSM   C15F13109   6.111   2.047   8.425 -0.3057  0.3844 -0.5025
  123OSM   H15F13110   6.150   2.139   8.377 -0.4414  1.5171  1.4380
  123OSM   H15G13111   6.144   1.955   8.371  0.8562  0.6019 -0.1734
  123OSM   C16F13112   6.176   2.034   8.564 -0.0702 -0.0734  0.6819
  123OSM   H16F13113   6.129   1.950   8.619  1.7227 -0.5158  1.5971
  123OSM   H16G13114   6.146   2.121   8.627  0.4927 -0.5182  1.5856
  123OSM   C17F13115   6.321   2.025   8.567 -1.0186 -0.1052 -0.8206
  123OSM   H17F13116   6.369   2.114   8.523 -0.0375 -0.3465 -0.2643
  123OSM   H17G13117   6.357   1.933   8.515  1.7283 -1.3846  2.8837
  123OSM   C18F13118   6.361   2.001   8.713  0.4470  0.4504 -0.2200
  123OSM   H18F13119   6.467   1.976   8.732  0.8156  1.1802 -1.2510
  123OSM   H18G13120   6.301   1.918   8.758 -2.8448  2.5678 -0.3600
  123OSM   H18H13121   6.338   2.088   8.778  1.0457  0.7661 -0.4284
  124OSM      N13122   5.938   5.117   5.981 -0.0162 -0.4533  0.3943
  124OSM    C1513123   5.788   5.138   6.002  0.4810 -0.1169  0.3436
  124OSM   H15A13124   5.727   5.064   6.050 -0.0170 -1.1773 -1.7855
  124OSM   H15B13125   5.751   5.149   5.901 -2.1470  0.3034  1.2871
  124OSM   H15C13126   5.778   5.237   6.044 -1.1514 -1.1540  2.6153
  124OSM    C1413127   6.022   5.127   6.104 -0.0781  0.5224 -0.4048
  124OSM   H14A13128   5.973   5.070   6.182  0.6838 -0.4505 -0.6187
  124OSM   H14B13129   6.029   5.231   6.132 -0.2339  0.5192 -0.3516
  124OSM   H14C13130   6.118   5.081   6.086 -0.0311  0.5088 -0.1288
  124OSM    C1313131   5.952   4.974   5.941 -0.7198  0.0451 -0.0972
  124OSM   H13A13132   5.918   4.963   5.839  0.6106 -1.8084 -0.3951
  124OSM   H13B13133   5.907   4.905   6.010  1.7434 -0.0917  1.4785
  124OSM   H13C13134   6.056   4.951   5.927 -0.5320  0.4137  0.6526
  124OSM    C1213135   5.984   5.222   5.880 -0.4534  0.8600 -0.2059
  124OSM   H12A13136   5.936   5.206   5.785  0.4213 -0.6264 -0.4284
  124OSM   H12B13137   6.089   5.198   5.869 -1.0519 -1.2670 -1.7646
  124OSM    C1113138   5.969   5.369   5.916 -0.3403  0.1344 -0.4493
  124OSM   H11A13139   5.860   5.375   5.938 -0.0817 -0.2117  1.0564
  124OSM   H11B13140   5.993   5.437   5.832  0.1889 -0.4586 -0.7832
  124OSM      P13141   6.196   5.437   6.019  0.3495  0.0431 -0.0255
  124OSM    O1313142   6.265   5.305   6.015 -0.1848 -0.0308  0.3075
  124OSM    O1413143   6.211   5.525   5.904  0.1058  0.0518  0.1182
  124OSM    O1113144   6.232   5.509   6.153  0.0837  0.1373  0.2516
  124OSM    O1213145   6.040   5.407   6.033  0.3734 -0.0982 -0.3848
  124OSM    C1S13146   6.138   5.565   6.251 -0.4319  0.1440  0.7369
  124OSM    H1S13147   6.041   5.570   6.198  1.2263 -0.9565 -2.6804
  124OSM    H1T13148   6.172   5.663   6.290 -1.6201  0.6542  0.5338
  124OSM     NF13149   6.052   5.548   6.478 -0.2106 -0.3546  0.0097
  124OSM    HNF13150   6.105   5.600   6.544  0.8501  0.0878 -1.1436
  124OSM    C2S13151   6.127   5.475   6.372  0.2383 -0.2404  1.0740
  124OSM    H2S13152   6.071   5.389   6.329  1.3406 -0.2617 -0.4325
  124OSM    C3S13153   6.273   5.428   6.425  0.3159 -0.1826 -0.2062
  124OSM    H3S13154   6.328   5.520   6.452  1.2468 -1.0363  0.9031
  124OSM     O313155   6.361   5.364   6.331 -0.1849 -0.0044  0.2903
  124OSM    HO313156   6.321   5.382   6.245  1.0577 -0.0899 -0.3242
  124OSM    C4S13157   6.254   5.354   6.558 -0.1978 -0.3795 -0.4887
  124OSM    H4S13158   6.257   5.430   6.637  0.3918  0.2686 -1.1215
  124OSM    C5S13159   6.261   5.222   6.591  0.3427 -0.8680  0.0939
  124OSM    H5S13160   6.280   5.149   6.511  1.2292  2.6336 -3.1881
  124OSM    C6S13161   6.251   5.173   6.735  0.1735  0.1681 -0.3062
  124OSM    H6S13162   6.343   5.118   6.766  0.5649  0.5803 -0.7138
  124OSM    H6T13163   6.167   5.102   6.749  1.9330 -2.2908 -1.3531
  124OSM    C7S13164   6.232   5.285   6.847  0.2558  0.0864 -0.0919
  124OSM    H7S13165   6.128   5.319   6.830 -0.1478 -0.5228  1.0732
  124OSM    H7T13166   6.288   5.377   6.820  1.6725 -1.1251 -1.5126
  124OSM    C8S13167   6.267   5.237   6.985  0.1739 -0.2976  0.0620
  124OSM    H8S13168   6.247   5.311   7.065 -0.9006 -1.6877  1.1539
  124OSM    H8T13169   6.373   5.207   6.997  0.8397  1.6096 -0.7786
  124OSM    C9S13170   6.180   5.116   7.026 -0.4375  0.1583 -0.0913
  124OSM    H9S13171   6.200   5.027   6.963  1.1685  1.3124 -1.3092
  124OSM    H9T13172   6.073   5.146   7.018  0.0450  1.8745 -0.6167
  124OSM   C10S13173   6.210   5.074   7.173 -0.4963  0.0913  0.0550
  124OSM   H10S13174   6.320   5.057   7.171 -0.1892  1.7057 -2.8096
  124OSM   H10T13175   6.162   4.976   7.190 -0.9266  0.4017  0.6532
  124OSM   C11S13176   6.161   5.161   7.284  0.1278  0.3858 -0.4680
  124OSM   H11S13177   6.051   5.156   7.296  0.3117  0.3989  1.7655
  124OSM   H11T13178   6.181   5.269   7.268  0.8171  0.2258 -0.7196
  124OSM   C12S13179   6.222   5.117   7.421  0.2870 -0.0710 -0.4960
  124OSM   H12S13180   6.333   5.111   7.412  0.4523 -2.8197  1.8639
  124OSM   H12T13181   6.178   5.019   7.449  0.3140  0.5143  1.7548
  124OSM   C13S13182   6.193   5.211   7.539  0.0089 -0.3275  0.3245
  124OSM   H13S13183   6.084   5.236   7.540  0.4977  2.2853 -1.3675
  124OSM   H13T13184   6.244   5.307   7.516  0.4261 -1.1088 -2.2586
  124OSM   C14S13185   6.240   5.156   7.669  0.1221  0.2875 -0.5634
  124OSM   H14S13186   6.350   5.141   7.659 -0.3592 -3.0970 -2.6290
  124OSM   H14T13187   6.187   5.059   7.683  0.0696  0.3512 -0.3182
  124OSM   C15S13188   6.220   5.242   7.788  0.4962  0.7826 -0.9103
  124OSM   H15S13189   6.113   5.274   7.788 -0.1064 -1.0278 -2.3155
  124OSM   H15T13190   6.278   5.337   7.787  2.9821 -0.6610 -1.1351
  124OSM   C16S13191   6.249   5.160   7.910  0.0942 -0.0175 -0.6444
  124OSM   H16S13192   6.354   5.126   7.900 -0.1883 -0.8849 -0.7252
  124OSM   H16T13193   6.178   5.074   7.908  0.6715 -0.5422  0.5251
  124OSM   C17S13194   6.235   5.216   8.049 -0.5093 -0.0372 -0.2541
  124OSM   H17S13195   6.295   5.309   8.062 -0.0517 -0.3087 -0.3889
  124OSM   H17T13196   6.275   5.141   8.120 -0.1541  2.0573  1.8814
  124OSM   C18S13197   6.088   5.248   8.101 -0.1086  0.0618  0.1069
  124OSM   H18S13198   6.096   5.291   8.203 -0.2342  0.4999 -0.0662
  124OSM   H18T13199   6.027   5.155   8.105  0.8214 -0.5320  0.9209
  124OSM   H18U13200   6.036   5.319   8.032  0.5084 -0.4037 -0.8614
  124OSM    C1F13201   5.920   5.562   6.474 -0.3536  0.2919 -0.7610
  124OSM     OF13202   5.862   5.489   6.390 -0.2449 -0.1719 -0.5842
  124OSM    C2F13203   5.857   5.645   6.587 -0.1109  0.4942 -0.4205
  124OSM    H2F13204   5.889   5.751   6.579  0.3120  0.4621  0.7562
  124OSM    H2G13205   5.894   5.603   6.683 -1.3851 -1.4384 -0.7108
  124OSM    C3F13206   5.705   5.653   6.584 -0.1337  0.2428 -0.2050
  124OSM    H3F13207   5.675   5.547   6.601 -1.8027  0.9222  1.5620
  124OSM    H3G13208   5.665   5.690   6.487  0.8183  0.2885 -0.5845
  124OSM    C4F13209   5.636   5.733   6.694 -0.2343 -0.2878  0.0857
  124OSM    H4F13210   5.674   5.838   6.690 -1.6412  0.2476  0.2605
  124OSM    H4G13211   5.664   5.700   6.796  0.6531  0.6579  0.1670
  124OSM    C5F13212   5.491   5.722   6.695 -0.5052 -0.4096  0.3869
  124OSM    H5F13213   5.456   5.626   6.739 -0.1208 -0.0182  1.5699
  124OSM    H5G13214   5.456   5.724   6.589 -1.0405  0.2582  0.5683
  124OSM    C6F13215   5.415   5.839   6.767 -0.8817  0.7758  0.4182
  124OSM    H6F13216   5.449   5.859   6.871 -3.3636  1.4990  1.1603
  124OSM    H6G13217   5.313   5.805   6.793 -1.1970  0.6768 -0.9066
  124OSM    C7F13218   5.418   5.966   6.684 -0.4371 -0.3078 -0.4078
  124OSM    H7F13219   5.357   5.939   6.595  1.8372 -3.4749 -1.2072
  124OSM    H7G13220   5.522   5.985   6.649 -0.9902  1.8777 -1.0167
  124OSM    C8F13221   5.362   6.098   6.753 -0.3056  0.1829 -0.2026
  124OSM    H8F13222   5.257   6.064   6.761  0.0383 -0.5889  1.2341
  124OSM    H8G13223   5.371   6.179   6.676 -1.9832 -0.4597 -1.1323
  124OSM    C9F13224   5.426   6.139   6.882 -0.3068  0.3263 -0.1058
  124OSM    H9F13225   5.506   6.213   6.866 -0.1962  0.1590 -0.3478
  124OSM   C10F13226   5.386   6.103   7.008  0.3558 -0.1574  0.9792
  124OSM   H10F13227   5.440   6.145   7.094  0.2643 -0.5375  1.2251
  124OSM   C11F13228   5.273   6.015   7.054 -0.2534  1.0490  0.1803
  124OSM   H11F13229   5.224   5.967   6.967 -3.1537  0.9070  1.7844
  124OSM   H11G13230   5.196   6.075   7.106 -0.6240 -0.4593  1.4551
  124OSM   C12F13231   5.319   5.906   7.156  0.7993 -0.5305  0.4196
  124OSM   H12F13232   5.391   5.832   7.116 -1.2128 -1.9003 -0.8263
  124OSM   H12G13233   5.237   5.836   7.183  1.0068 -0.6438  0.7639
  124OSM   C13F13234   5.373   5.984   7.275 -0.5767  0.4354  0.1968
  124OSM   H13F13235   5.295   6.055   7.308 -0.2398  1.2465 -0.7264
  124OSM   H13G13236   5.461   6.045   7.244  1.3507 -0.6113  3.0723
  124OSM   C14F13237   5.423   5.887   7.383  0.7410 -0.2629  0.4117
  124OSM   H14F13238   5.522   5.914   7.426 -0.6829  0.9585  3.1273
  124OSM   H14G13239   5.443   5.787   7.339  2.1199  0.5441 -0.9346
  124OSM   C15F13240   5.321   5.879   7.499  0.7836 -0.5805  0.4136
  124OSM   H15F13241   5.269   5.781   7.496 -1.1246  0.3885 -0.1353
  124OSM   H15G13242   5.243   5.956   7.482  0.5681 -0.9782 -0.4420
  124OSM   C16F13243   5.388   5.907   7.630  0.0602 -0.2443  0.2996
  124OSM   H16F13244   5.417   6.015   7.629 -1.1060  0.0987  1.1461
  124OSM   H16G13245   5.480   5.846   7.635  0.7063  0.6706 -0.1195
  124OSM   C17F13246   5.308   5.872   7.756 -0.8015 -0.1036 -0.6267
  124OSM   H17F13247   5.261   5.773   7.743 -0.2864 -0.6455  1.2917
  124OSM   H17G13248   5.232   5.951   7.769 -1.1073 -0.6565  1.1716
  124OSM   C18F13249   5.410   5.857   7.870 -0.7060 -0.8454 -0.1684
  124OSM   H18F13250   5.468   5.950   7.888 -2.8938  0.5420  0.1128
  124OSM   H18G13251   5.494   5.785   7.865 -0.1675 -0.2347 -0.0006
  124OSM   H18H13252   5.363   5.838   7.969 -1.6617  2.8241  0.2320
  125OSM      N13253   3.196   4.362   6.010 -0.2276 -0.1061 -0.7144
  125OSM    C1513254   3.327   4.400   5.955 -0.0183 -0.3197 -0.0243
  125OSM   H15A13255   3.359   4.322   5.887 -1.4479  0.6153 -1.8561
  125OSM   H15B13256   3.388   4.424   6.041 -0.5093 -0.7452  0.4467
  125OSM   H15C13257   3.323   4.489   5.895 -0.2002  0.3022  0.9006
  125OSM    C1413258   3.157   4.483   6.096  0.0120  0.4789 -0.6926
  125OSM   H14A13259   3.230   4.509   6.172  0.4881  0.3360 -1.1009
  125OSM   H14B13260   3.068   4.464   6.154 -0.3579  0.0977 -1.3901
  125OSM   H14C13261   3.140   4.573   6.039  3.0003  0.8089 -1.2578
  125OSM    C1313262   3.085   4.349   5.904  0.7043 -0.0978 -0.0409
  125OSM   H13A13263   3.088   4.446   5.857 -1.1860  0.9298  1.8304
  125OSM   H13B13264   2.988   4.337   5.949  0.0762  0.0805 -1.3292
  125OSM   H13C13265   3.109   4.277   5.827 -2.3597 -0.5745 -0.6755
  125OSM    C1213266   3.195   4.233   6.100  0.7727  0.5233  0.4581
  125OSM   H12A13267   3.098   4.213   6.144  0.5921 -0.2868 -0.2841
  125OSM   H12B13268   3.257   4.254   6.186  1.2956  0.2480  0.1501
  125OSM    C1113269   3.238   4.092   6.038  0.1336  0.0594 -0.7372
  125OSM   H11A13270   3.172   4.074   5.950  1.5361 -1.7209 -1.4746
  125OSM   H11B13271   3.215   4.019   6.118  1.2382  2.1340  1.5854
  125OSM      P13272   3.502   4.129   6.084  0.1914  0.0562 -0.0026
  125OSM    O1313273   3.621   4.128   6.002  0.7945  0.6342 -0.2161
  125OSM    O1413274   3.471   4.240   6.176 -0.5249 -0.1611 -0.1687
  125OSM    O1113275   3.493   4.003   6.174  0.2111  0.1136 -0.5970
  125OSM    O1213276   3.374   4.100   5.994 -0.3539 -0.3655  0.2978
  125OSM    C1S13277   3.582   3.962   6.271 -0.1847  0.4443 -0.0654
  125OSM    H1S13278   3.684   3.998   6.248  0.5386 -1.8970 -0.7936
  125OSM    H1T13279   3.591   3.852   6.274  1.5367  0.5754  0.9959
  125OSM     NF13280   3.670   3.985   6.510  0.4574  0.0085 -0.1175
  125OSM    HNF13281   3.668   3.898   6.559 -0.3372 -0.6412 -1.2705
  125OSM    C2S13282   3.551   4.001   6.419  0.6687 -0.1373  0.3764
  125OSM    H2S13283   3.526   4.109   6.409  1.0256 -0.1772 -1.2410
  125OSM    C3S13284   3.415   3.927   6.465  0.2561  0.1306 -0.1732
  125OSM    H3S13285   3.433   3.818   6.469 -1.6586 -0.1933  1.1088
  125OSM     O313286   3.300   3.968   6.387 -0.1885  0.3632  0.4172
  125OSM    HO313287   3.336   4.007   6.307 -0.8191  0.9773  0.4214
  125OSM    C4S13288   3.390   3.960   6.610  0.0895  0.1186 -0.5645
  125OSM    H4S13289   3.429   3.887   6.682  1.4990  1.5889  0.2430
  125OSM    C5S13290   3.328   4.068   6.661 -0.2811 -0.4431  0.6623
  125OSM    H5S13291   3.282   4.141   6.593 -0.2370 -0.1176  0.9816
  125OSM    C6S13292   3.310   4.100   6.807  0.0624 -0.3126  0.4897
  125OSM    H6S13293   3.203   4.090   6.832  0.0829 -3.8302 -0.2912
  125OSM    H6T13294   3.335   4.206   6.826 -1.9737  0.1380  0.8952
  125OSM    C7S13295   3.392   4.013   6.907  0.2295  0.0423  0.2936
  125OSM    H7S13296   3.500   4.001   6.884  0.4892  0.3407  1.2800
  125OSM    H7T13297   3.352   3.909   6.901 -1.0562  0.5905 -1.4371
  125OSM    C8S13298   3.364   4.051   7.055  0.4805  0.2057  1.2389
  125OSM    H8S13299   3.253   4.052   7.059  0.3684 -2.4481  0.6726
  125OSM    H8T13300   3.394   4.156   7.071 -0.1654  1.0562 -2.2988
  125OSM    C9S13301   3.443   3.958   7.154 -0.0389 -0.3861  0.0500
  125OSM    H9S13302   3.549   3.948   7.125  0.2680 -0.1875  1.0496
  125OSM    H9T13303   3.394   3.858   7.153 -1.1505  0.1372 -0.5725
  125OSM   C10S13304   3.428   4.004   7.302 -0.0877 -0.0402  0.6094
  125OSM   H10S13305   3.321   3.986   7.325 -0.8247 -2.4626 -3.6434
  125OSM   H10T13306   3.451   4.111   7.318 -0.0475  0.0486 -0.0150
  125OSM   C11S13307   3.513   3.927   7.407 -0.5289 -0.1191 -0.1557
  125OSM   H11S13308   3.620   3.942   7.380 -0.2925 -1.4491 -0.0255
  125OSM   H11T13309   3.495   3.818   7.401 -1.3992  0.0491 -0.8087
  125OSM   C12S13310   3.480   3.976   7.551 -0.8936 -0.1059  0.1407
  125OSM   H12S13311   3.370   3.964   7.559 -1.0502  0.3431 -1.1809
  125OSM   H12T13312   3.495   4.085   7.566 -0.6039  0.0117 -0.9468
  125OSM   C13S13313   3.534   3.883   7.656 -0.1207  0.6570 -0.4639
  125OSM   H13S13314   3.636   3.853   7.621  0.0198  0.0051  0.4736
  125OSM   H13T13315   3.476   3.789   7.648  1.5951 -0.5495  0.5570
  125OSM   C14S13316   3.551   3.941   7.797 -0.0383  0.0606 -0.2046
  125OSM   H14S13317   3.451   3.976   7.829 -0.7532 -0.8389 -1.3642
  125OSM   H14T13318   3.620   4.028   7.795 -0.3809  0.4362  2.0001
  125OSM   C15S13319   3.611   3.842   7.888 -0.6503 -0.2322 -0.4889
  125OSM   H15S13320   3.712   3.823   7.846 -0.1188  1.0904  0.1372
  125OSM   H15T13321   3.554   3.747   7.882 -3.6414  1.3432  1.0446
  125OSM   C16S13322   3.618   3.892   8.034  0.1256 -0.4697  0.2594
  125OSM   H16S13323   3.523   3.929   8.077  0.1231 -0.5445  0.3188
  125OSM   H16T13324   3.691   3.975   8.041  0.4881 -0.6646 -1.0476
  125OSM   C17S13325   3.685   3.798   8.136 -0.1495  0.2307  0.7491
  125OSM   H17S13326   3.682   3.858   8.230  2.0771  1.5011  0.1013
  125OSM   H17T13327   3.792   3.786   8.107 -0.7650 -0.3905 -1.3790
  125OSM   C18S13328   3.621   3.665   8.144  0.1875  0.3331  0.4267
  125OSM   H18S13329   3.512   3.689   8.141  0.6405  2.4824 -0.7017
  125OSM   H18T13330   3.637   3.613   8.241 -2.8920 -1.9963 -0.1556
  125OSM   H18U13331   3.650   3.606   8.055 -0.3564  1.1429 -0.2958
  125OSM    C1F13332   3.776   4.071   6.514  0.6928 -0.2157 -0.7722
  125OSM     OF13333   3.773   4.177   6.455  0.1593 -0.0999 -0.1027
  125OSM    C2F13334   3.884   4.023   6.597 -0.1575 -0.3386  0.1485
  125OSM    H2F13335   3.942   3.939   6.552 -1.4574 -0.6129 -1.0715
  125OSM    H2G13336   3.835   3.977   6.685  1.5534 -2.3531  0.1500
  125OSM    C3F13337   3.988   4.131   6.629 -0.2825 -0.4863  0.2355
  125OSM    H3F13338   3.942   4.230   6.654  1.0571 -0.2774  2.0809
  125OSM    H3G13339   4.052   4.151   6.540 -3.6789 -0.4387 -2.4160
  125OSM    C4F13340   4.065   4.097   6.763  0.1150 -0.2737  0.0686
  125OSM    H4F13341   4.116   4.004   6.729  1.7394  0.7095 -0.2929
  125OSM    H4G13342   4.000   4.081   6.851  3.0601  2.4050  3.0372
  125OSM    C5F13343   4.155   4.211   6.806 -0.2524 -0.3748 -0.1702
  125OSM    H5F13344   4.091   4.301   6.812  1.9228  1.2263  0.0183
  125OSM    H5G13345   4.231   4.232   6.727  0.8981 -2.9160  0.1504
  125OSM    C6F13346   4.221   4.179   6.944 -0.2393  0.0614  0.5552
  125OSM    H6F13347   4.272   4.081   6.936 -0.1552  0.1804 -0.5469
  125OSM    H6G13348   4.140   4.164   7.018  0.1154  0.0732  0.9503
  125OSM    C7F13349   4.312   4.288   6.993  0.2040  0.9232  0.8610
  125OSM    H7F13350   4.264   4.388   6.998 -1.7838  0.0089  1.0394
  125OSM    H7G13351   4.402   4.287   6.927 -0.8949 -1.9404 -0.7793
  125OSM    C8F13352   4.364   4.255   7.132 -0.0509 -0.9761  0.1205
  125OSM    H8F13353   4.439   4.330   7.165 -1.9124  0.2387  1.8646
  125OSM    H8G13354   4.414   4.156   7.121 -0.2156 -1.1373  0.7441
  125OSM    C9F13355   4.249   4.256   7.232 -0.6374  0.3856 -1.1859
  125OSM    H9F13356   4.150   4.277   7.190 -1.5064 -2.6059 -0.8218
  125OSM   C10F13357   4.269   4.234   7.362 -0.8191 -0.1847 -0.3000
  125OSM   H10F13358   4.190   4.243   7.439 -2.4973 -2.0827 -1.6942
  125OSM   C11F13359   4.409   4.206   7.418  0.4226  0.5017 -0.1292
  125OSM   H11F13360   4.484   4.177   7.341 -2.7754 -0.7490 -3.0605
  125OSM   H11G13361   4.403   4.106   7.467  0.6626 -0.6500 -2.3181
  125OSM   C12F13362   4.450   4.322   7.516 -0.4387  0.1245  0.9396
  125OSM   H12F13363   4.365   4.336   7.587 -1.3265 -1.3540  0.2187
  125OSM   H12G13364   4.458   4.420   7.464 -1.1453  0.5315  1.5771
  125OSM   C13F13365   4.582   4.296   7.593 -0.3649  0.0491 -0.0969
  125OSM   H13F13366   4.591   4.396   7.640 -2.6218 -0.2374  1.1074
  125OSM   H13G13367   4.668   4.266   7.530  0.7651 -0.5521  1.6351
  125OSM   C14F13368   4.561   4.202   7.708 -0.6488 -0.0518 -0.5133
  125OSM   H14F13369   4.542   4.098   7.673  1.0428 -0.7650  0.5689
  125OSM   H14G13370   4.482   4.241   7.775  0.7096  1.7637  0.1021
  125OSM   C15F13371   4.691   4.192   7.796 -0.2862 -0.1273  0.3284
  125OSM   H15F13372   4.727   4.296   7.812 -0.1736 -0.3022  1.2681
  125OSM   H15G13373   4.765   4.151   7.723 -1.0920 -0.6082 -0.2300
  125OSM   C16F13374   4.689   4.110   7.924 -0.2157  0.3216  0.4080
  125OSM   H16F13375   4.681   4.005   7.891 -1.1475  0.3905  0.3788
  125OSM   H16G13376   4.594   4.128   7.979  0.7354  0.3942  2.0884
  125OSM   C17F13377   4.825   4.133   7.995  0.7359 -0.3960 -0.1554
  125OSM   H17F13378   4.806   4.084   8.093 -1.3297  1.2234  0.3349
  125OSM   H17G13379   4.835   4.241   8.019 -1.3411 -0.7162  2.7323
  125OSM   C18F13380   4.951   4.085   7.923 -0.4350 -0.6471 -0.7286
  125OSM   H18F13381   4.933   3.995   7.860  0.5941 -2.1921  1.0867
  125OSM   H18G13382   5.035   4.060   7.991 -1.4801 -1.3879  0.3322
  125OSM   H18H13383   4.986   4.168   7.857 -0.2584 -0.5549 -0.5201
  126OSM      N13384   0.403   0.752   6.236  0.2794 -0.1253  0.3362
  126OSM    C1513385   0.282   0.686   6.299  0.1507 -0.5546  0.5460
  126OSM   H15A13386   0.222   0.644   6.219  2.2501 -1.4374 -0.6496
  126OSM   H15B13387   0.233   0.763   6.357 -0.7669 -1.4022  0.9146
  126OSM   H15C13388   0.313   0.608   6.367 -1.5007  0.0582  2.0788
  126OSM    C1413389   0.470   0.634   6.160  0.7179  0.2897  1.1925
  126OSM   H14A13390   0.507   0.560   6.229 -0.3054 -0.2014  1.2245
  126OSM   H14B13391   0.563   0.663   6.114  2.0100 -1.2765  2.6923
  126OSM   H14C13392   0.405   0.595   6.083  1.9545  0.4508  0.0388
  126OSM    C1313393   0.340   0.843   6.138 -0.1407  0.3657  0.0468
  126OSM   H13A13394   0.297   0.927   6.191  0.2161  0.2294  0.5664
  126OSM   H13B13395   0.263   0.792   6.083  0.8685  0.3167 -1.3651
  126OSM   H13C13396   0.405   0.877   6.060 -0.4339  0.9498  0.0516
  126OSM    C1213397   0.493   0.828   6.335  0.5553 -0.3323 -0.2665
  126OSM   H12A13398   0.564   0.872   6.267 -2.7577  0.4917 -3.5814
  126OSM   H12B13399   0.547   0.762   6.401 -0.1628  1.0433  1.7785
  126OSM    C1113400   0.427   0.934   6.433 -0.1602 -0.2190  0.4644
  126OSM   H11A13401   0.497   0.967   6.513  2.1660  0.7546 -1.8089
  126OSM   H11B13402   0.345   0.881   6.486  0.0351 -2.1681 -1.0532
  126OSM      P13403   0.304   1.165   6.402 -0.1332 -0.3255 -0.2986
  126OSM    O1313404   0.320   1.272   6.299  0.1764 -0.1584 -0.3348
  126OSM    O1413405   0.163   1.128   6.432 -0.0290 -0.6053  0.3799
  126OSM    O1113406   0.381   1.195   6.536  0.2693  0.2094  0.4596
  126OSM    O1213407   0.382   1.040   6.353  0.3133  0.2138 -0.3012
  126OSM    C1S13408   0.366   1.322   6.594 -0.1189 -0.8048 -0.3565
  126OSM    H1S13409   0.259   1.350   6.590 -0.3472 -1.3191  1.3385
  126OSM    H1T13410   0.415   1.407   6.540 -0.3368 -0.8721 -0.6638
  126OSM     NF13411   0.386   1.442   6.823 -0.2441 -0.3062  0.4563
  126OSM    HNF13412   0.450   1.510   6.858  0.9505 -0.9368 -0.4557
  126OSM    C2S13413   0.425   1.324   6.740  0.1411  0.1158  0.9648
  126OSM    H2S13414   0.368   1.241   6.788  0.1152 -0.2814  0.2617
  126OSM    C3S13415   0.569   1.291   6.748 -0.4734 -0.0987 -0.4105
  126OSM    H3S13416   0.629   1.373   6.702  2.0856 -1.7966 -0.3212
  126OSM     O313417   0.609   1.175   6.669 -0.3740 -0.4880  0.4969
  126OSM    HO313418   0.523   1.143   6.638 -1.1340  1.3205  0.6565
  126OSM    C4S13419   0.622   1.277   6.887  0.4996  0.4489  0.5685
  126OSM    H4S13420   0.652   1.377   6.923  2.1992 -0.0895  0.7563
  126OSM    C5S13421   0.633   1.174   6.973  0.3941 -0.6893  0.4606
  126OSM    H5S13422   0.602   1.074   6.940 -0.7402 -1.1063  2.5994
  126OSM    C6S13423   0.693   1.184   7.111 -0.5502 -0.0321 -0.2002
  126OSM    H6S13424   0.636   1.242   7.187 -0.0313 -1.0275  0.9815
  126OSM    H6T13425   0.794   1.228   7.117 -1.4715  2.0386  1.6893
  126OSM    C7S13426   0.697   1.044   7.180 -0.9075 -0.0765 -0.3191
  126OSM    H7S13427   0.756   0.972   7.121 -1.4704 -0.4606 -0.4228
  126OSM    H7T13428   0.592   1.009   7.193 -1.0145  1.2163  4.3327
  126OSM    C8S13429   0.767   1.039   7.315  0.7894  0.0589  0.5076
  126OSM    H8S13430   0.720   1.116   7.380  1.9874 -0.5800  2.1966
  126OSM    H8T13431   0.873   1.068   7.297  0.1169  1.0306 -2.5069
  126OSM    C9S13432   0.761   0.909   7.395  0.5557  0.2827 -0.5164
  126OSM    H9S13433   0.814   0.827   7.342  1.0396  0.5853 -0.5087
  126OSM    H9T13434   0.656   0.878   7.413  0.7681 -0.6443 -0.7935
  126OSM   C10S13435   0.827   0.929   7.531 -0.3695 -0.9994  0.3311
  126OSM   H10S13436   0.771   1.014   7.576 -2.1853 -1.6385 -0.6379
  126OSM   H10T13437   0.936   0.941   7.516 -0.0331 -3.8049  0.0556
  126OSM   C11S13438   0.813   0.815   7.639 -0.3993 -0.0061  0.7648
  126OSM   H11S13439   0.829   0.718   7.587 -0.1681 -0.2148  1.2161
  126OSM   H11T13440   0.707   0.819   7.675 -1.5796 -2.8280 -1.9349
  126OSM   C12S13441   0.921   0.834   7.749  0.0973 -0.0586  0.4889
  126OSM   H12S13442   0.879   0.920   7.807  0.1213  1.2129 -1.2921
  126OSM   H12T13443   1.020   0.857   7.705 -0.4026 -0.3040 -0.8085
  126OSM   C13S13444   0.938   0.706   7.832 -0.0613 -0.3565 -0.5828
  126OSM   H13S13445   0.978   0.621   7.773 -0.9642 -1.5628  0.4974
  126OSM   H13T13446   0.845   0.683   7.888 -1.0059  1.1398 -1.4906
  126OSM   C14S13447   1.035   0.732   7.943 -1.1690 -0.9144 -0.1575
  126OSM   H14S13448   0.996   0.810   8.011  2.5742 -0.9528  2.2977
  126OSM   H14T13449   1.136   0.762   7.908  1.1254 -3.6851  3.3445
  126OSM   C15S13450   1.065   0.618   8.039  0.0517 -0.1800 -0.2077
  126OSM   H15S13451   1.091   0.531   7.976  0.8251  0.0355 -0.2015
  126OSM   H15T13452   0.970   0.603   8.094  0.9097 -0.2750  1.3270
  126OSM   C16S13453   1.173   0.649   8.140 -0.2411  0.1189 -0.1428
  126OSM   H16S13454   1.131   0.717   8.217 -0.2947 -0.2580  0.1602
  126OSM   H16T13455   1.257   0.702   8.090  2.0077 -2.8884  0.1648
  126OSM   C17S13456   1.232   0.525   8.213  0.2333 -0.0315  0.2943
  126OSM   H17S13457   1.317   0.550   8.279  0.7766 -1.2041  0.0524
  126OSM   H17T13458   1.274   0.449   8.144 -0.4337 -0.6483  0.5614
  126OSM   C18S13459   1.128   0.441   8.284 -0.9209 -1.1444  0.5433
  126OSM   H18S13460   1.047   0.415   8.212  1.4222 -0.8803 -2.3614
  126OSM   H18T13461   1.076   0.509   8.356 -0.0717 -1.1053  1.1399
  126OSM   H18U13462   1.168   0.360   8.349 -0.2522 -0.2250  1.3277
  126OSM    C1F13463   0.256   1.465   6.853  0.2299  0.2730  0.0905
  126OSM     OF13464   0.170   1.382   6.808  0.3523  0.1583 -0.2370
  126OSM    C2F13465   0.229   1.588   6.928 -0.4862  0.2256 -0.9660
  126OSM    H2F13466   0.147   1.644   6.879 -0.5737  0.2787 -0.7609
  126OSM    H2G13467   0.312   1.661   6.940 -1.2015  0.8535  0.3433
  126OSM    C3F13468   0.171   1.566   7.075 -0.1752 -0.0445 -0.5627
  126OSM    H3F13469   0.082   1.502   7.054 -0.3822 -0.0804  0.3861
  126OSM    H3G13470   0.139   1.658   7.127  3.0970 -0.7464  3.1684
  126OSM    C4F13471   0.265   1.494   7.166  0.0415 -0.4523 -0.3451
  126OSM    H4F13472   0.297   1.396   7.125  0.1490 -0.8480  0.6517
  126OSM    H4G13473   0.205   1.455   7.251 -1.1532  0.0307 -0.9399
  126OSM    C5F13474   0.385   1.581   7.222 -0.3930  0.9277 -0.4088
  126OSM    H5F13475   0.349   1.673   7.272  2.3702  1.6344  0.4490
  126OSM    H5G13476   0.456   1.605   7.140  1.6499 -1.8686  0.3801
  126OSM    C6F13477   0.461   1.509   7.341  0.0456 -0.0993  0.1905
  126OSM    H6F13478   0.477   1.402   7.313 -2.4632 -0.4259 -0.1938
  126OSM    H6G13479   0.381   1.500   7.418 -1.6108  1.1697 -1.2998
  126OSM    C7F13480   0.595   1.570   7.378 -0.1416  0.0640 -0.0112
  126OSM    H7F13481   0.573   1.668   7.426 -1.0270  1.1316 -2.4358
  126OSM    H7G13482   0.662   1.582   7.291  1.5275 -1.3140  1.0432
  126OSM    C8F13483   0.664   1.483   7.485  0.5560 -0.3565 -0.1506
  126OSM    H8F13484   0.679   1.387   7.432  0.8729 -1.7229  2.2687
  126OSM    H8G13485   0.593   1.463   7.568 -0.2017  1.1332 -0.4087
  126OSM    C9F13486   0.793   1.536   7.546  0.2126 -0.2823 -0.0720
  126OSM    H9F13487   0.779   1.637   7.589 -0.6516  0.0389 -1.0814
  126OSM   C10F13488   0.899   1.461   7.566 -0.1010 -0.1518 -0.4742
  126OSM   H10F13489   0.984   1.506   7.621  0.8700 -3.4380  1.0134
  126OSM   C11F13490   0.929   1.323   7.527 -0.3366 -0.1950  0.3237
  126OSM   H11F13491   1.012   1.324   7.452 -1.6024  0.0364 -1.1303
  126OSM   H11G13492   0.843   1.280   7.472  0.3135  1.5555 -2.2973
  126OSM   C12F13493   0.975   1.240   7.650  0.0126  0.0057 -0.7472
  126OSM   H12F13494   0.986   1.140   7.605  1.1873 -1.3461  2.2357
  126OSM   H12G13495   0.891   1.243   7.723 -0.2521  0.8205 -1.0724
  126OSM   C13F13496   1.103   1.264   7.722 -0.0478  0.2014 -0.0720
  126OSM   H13F13497   1.103   1.365   7.767 -0.1352  0.0746  0.2122
  126OSM   H13G13498   1.185   1.255   7.648  1.3001  0.0281  1.4061
  126OSM   C14F13499   1.122   1.160   7.838  0.1351 -0.4307  0.7732
  126OSM   H14F13500   1.118   1.060   7.791  0.3804 -0.8251  1.5625
  126OSM   H14G13501   1.033   1.173   7.904  0.4026  1.0462  0.8859
  126OSM   C15F13502   1.259   1.181   7.909  0.1013 -0.1455  0.1806
  126OSM   H15F13503   1.271   1.289   7.931  0.0488  0.1044 -0.9771
  126OSM   H15G13504   1.342   1.145   7.844  0.4274  0.0291  0.4934
  126OSM   C16F13505   1.280   1.090   8.033  0.3292  0.7937  0.1280
  126OSM   H16F13506   1.249   0.985   8.018 -0.6135  0.9785  0.6405
  126OSM   H16G13507   1.205   1.132   8.104  0.4741  0.0707  0.7107
  126OSM   C17F13508   1.423   1.094   8.078 -0.4905 -0.5339  0.0520
  126OSM   H17F13509   1.468   1.193   8.100 -0.1756 -0.0352 -2.4997
  126OSM   H17G13510   1.480   1.046   7.995  0.0533  1.3293 -0.7038
  126OSM   C18F13511   1.440   0.999   8.196  1.1231  0.3791  0.5868
  126OSM   H18F13512   1.519   1.030   8.268  0.2481  3.4834  0.3389
  126OSM   H18G13513   1.436   0.893   8.162  1.2951  0.8690 -1.0190
  126OSM   H18H13514   1.354   1.004   8.266  1.6838  1.7086  1.2295
  127OSM      N13515   3.798   1.641   5.775  0.6503  0.7845  0.0513
  127OSM    C1513516   3.852   1.554   5.669  0.0093 -0.3442  0.3097
  127OSM   H15A13517   3.863   1.452   5.702 -2.6949 -0.6768  0.3660
  127OSM   H15B13518   3.950   1.586   5.637 -0.3300 -0.7655 -1.2217
  127OSM   H15C13519   3.781   1.530   5.592 -0.1036 -1.6874  0.8120
  127OSM    C1413520   3.796   1.775   5.731  0.7965 -0.0506  0.8297
  127OSM   H14A13521   3.734   1.775   5.643  0.3193  1.5684  1.1318
  127OSM   H14B13522   3.897   1.802   5.704 -0.2954  2.7975 -0.8690
  127OSM   H14C13523   3.754   1.849   5.799  1.1145 -0.1058  1.0914
  127OSM    C1313524   3.650   1.606   5.794  0.3096 -0.3258 -0.8049
  127OSM   H13A13525   3.593   1.599   5.703 -0.2180 -3.1350 -0.3307
  127OSM   H13B13526   3.606   1.678   5.861 -1.0353 -1.4155 -0.4728
  127OSM   H13C13527   3.650   1.508   5.840  1.3311 -1.3719 -2.8707
  127OSM    C1213528   3.869   1.623   5.907 -0.8871 -0.0013  0.2439
  127OSM   H12A13529   3.968   1.665   5.900 -1.0456  0.7290  1.8299
  127OSM   H12B13530   3.893   1.520   5.927 -0.3011 -0.1804 -1.2526
  127OSM    C1113531   3.807   1.686   6.037  0.2259 -0.2617  0.0524
  127OSM   H11A13532   3.877   1.655   6.117  0.7263 -0.1660 -0.3416
  127OSM   H11B13533   3.708   1.636   6.046  0.8426 -1.5908 -0.2624
  127OSM      P13534   3.918   1.919   6.076 -0.3076  0.2200  0.0705
  127OSM    O1313535   4.046   1.874   6.019  0.1607 -0.2229  0.1087
  127OSM    O1413536   3.888   2.066   6.072 -0.3070 -0.4799 -0.3944
  127OSM    O1113537   3.925   1.881   6.227 -0.0421  0.1818  0.1221
  127OSM    O1213538   3.796   1.829   6.018 -0.1791 -0.7361  0.0469
  127OSM    C1S13539   4.029   1.921   6.320  0.2044  0.5318  0.1835
  127OSM    H1S13540   4.048   2.031   6.319  1.0691  0.4635  2.6952
  127OSM    H1T13541   4.119   1.862   6.298 -1.6421 -2.2707 -0.3424
  127OSM     NF13542   4.074   1.971   6.557 -0.3383 -1.2846 -0.1492
  127OSM    HNF13543   4.158   1.918   6.571 -1.0918 -2.1740  1.1333
  127OSM    C2S13544   3.984   1.899   6.468  0.0938  0.2525 -0.7176
  127OSM    H2S13545   3.885   1.949   6.468 -0.4931 -0.8945 -0.8215
  127OSM    C3S13546   3.972   1.752   6.485 -0.1960 -1.0885 -0.2101
  127OSM    H3S13547   4.072   1.715   6.453 -0.3327 -2.0214  0.4078
  127OSM     O313548   3.875   1.683   6.399 -0.4357  0.2120 -0.0575
  127OSM    HO313549   3.863   1.747   6.329 -1.0524  0.6238  0.4009
  127OSM    C4S13550   3.941   1.719   6.629  0.2876 -1.4097  0.3775
  127OSM    H4S13551   3.834   1.733   6.653  0.4472 -1.4980  1.1549
  127OSM    C5S13552   4.037   1.682   6.718  0.1940 -0.4228  0.5863
  127OSM    H5S13553   4.134   1.654   6.675  0.9890  0.3215  1.8441
  127OSM    C6S13554   4.015   1.652   6.864 -0.2968  0.2827  0.0260
  127OSM    H6S13555   3.999   1.543   6.881 -0.2156 -0.0059 -1.6087
  127OSM    H6T13556   3.924   1.700   6.905 -0.0875  1.0154 -0.3472
  127OSM    C7S13557   4.134   1.693   6.956  0.7477 -0.8842 -0.4056
  127OSM    H7S13558   4.156   1.801   6.939  2.1675 -1.1065 -0.0759
  127OSM    H7T13559   4.220   1.626   6.937  0.6385 -1.2311  0.3095
  127OSM    C8S13560   4.111   1.698   7.105 -0.2708 -0.8346 -0.2105
  127OSM    H8S13561   4.016   1.750   7.132 -0.0935 -1.4570  1.7154
  127OSM    H8T13562   4.201   1.741   7.153 -0.3429  1.6444 -2.0577
  127OSM    C9S13563   4.099   1.556   7.150 -0.4987 -0.8165 -0.1542
  127OSM    H9S13564   4.188   1.501   7.113  0.1216 -0.0302  0.1316
  127OSM    H9T13565   4.010   1.511   7.102 -0.2485 -0.6024 -0.8300
  127OSM   C10S13566   4.100   1.540   7.300  0.4603  0.8228  0.0178
  127OSM   H10S13567   4.092   1.432   7.327  2.6820  0.7084  0.3592
  127OSM   H10T13568   4.014   1.596   7.343 -0.9689 -0.3036 -1.2423
  127OSM   C11S13569   4.232   1.584   7.367 -0.2544  0.1428 -0.4636
  127OSM   H11S13570   4.249   1.692   7.386  2.1944 -0.3174  0.4069
  127OSM   H11T13571   4.313   1.548   7.300  0.6475 -0.2756  0.8125
  127OSM   C12S13572   4.245   1.514   7.501  0.1905 -0.2944 -0.4358
  127OSM   H12S13573   4.349   1.506   7.541 -0.1155 -0.5258  0.3383
  127OSM   H12T13574   4.227   1.406   7.483  2.1316 -0.7038 -0.1903
  127OSM   C13S13575   4.162   1.559   7.619  0.0941 -0.8650  0.1340
  127OSM   H13S13576   4.054   1.559   7.592  0.1070 -1.9987  0.0418
  127OSM   H13T13577   4.193   1.665   7.629 -1.2895 -0.4114 -0.1962
  127OSM   C14S13578   4.182   1.472   7.745 -0.0274  0.4100  0.4868
  127OSM   H14S13579   4.285   1.431   7.752 -0.8483 -2.1290 -1.1864
  127OSM   H14T13580   4.127   1.376   7.738  1.3017 -0.3036 -0.9545
  127OSM   C15S13581   4.145   1.551   7.867 -0.1724  0.1169 -0.3564
  127OSM   H15S13582   4.034   1.558   7.869 -0.3109 -1.6044 -0.3430
  127OSM   H15T13583   4.195   1.649   7.857 -0.3089  0.0478 -2.1793
  127OSM   C16S13584   4.196   1.488   7.993 -0.2437 -0.1417 -0.4041
  127OSM   H16S13585   4.189   1.558   8.080  3.2905 -0.9882  0.7481
  127OSM   H16T13586   4.305   1.479   7.971 -0.1448  2.1657 -1.1935
  127OSM   C17S13587   4.125   1.359   8.027  0.5826  0.0451 -0.0836
  127OSM   H17S13588   4.152   1.288   7.946 -1.2006 -0.8525  0.0540
  127OSM   H17T13589   4.016   1.380   8.022  0.6621  0.9357  1.2613
  127OSM   C18S13590   4.147   1.294   8.164 -0.3786 -0.2255 -0.2575
  127OSM   H18S13591   4.084   1.203   8.171  1.9167 -1.8175  1.5688
  127OSM   H18T13592   4.120   1.370   8.241  1.0264 -0.7243  0.7841
  127OSM   H18U13593   4.255   1.266   8.170 -0.9799 -2.6303  0.2132
  127OSM    C1F13594   4.065   2.102   6.590 -0.2679  0.3214  0.1605
  127OSM     OF13595   3.979   2.174   6.545  0.1790 -0.1065 -0.5080
  127OSM    C2F13596   4.163   2.153   6.682  0.0876  0.4334 -0.5363
  127OSM    H2F13597   4.108   2.237   6.730 -2.8089 -0.4418 -2.0827
  127OSM    H2G13598   4.249   2.196   6.625  1.9891 -2.9975 -0.5509
  127OSM    C3F13599   4.201   2.062   6.800 -0.2132  0.8261 -0.0440
  127OSM    H3F13600   4.269   1.983   6.762 -1.7368 -1.4402  1.6923
  127OSM    H3G13601   4.111   2.007   6.834  0.5234 -0.5174 -0.2081
  127OSM    C4F13602   4.248   2.149   6.920 -0.1996  0.8057  0.3775
  127OSM    H4F13603   4.168   2.216   6.957  1.2255  2.8064  0.0562
  127OSM    H4G13604   4.327   2.215   6.877 -0.1822 -0.2765 -1.3632
  127OSM    C5F13605   4.313   2.062   7.029  0.0894  0.2806 -0.2952
  127OSM    H5F13606   4.415   2.030   6.998  0.1681  1.0557 -0.8675
  127OSM    H5G13607   4.255   1.969   7.047 -0.1130  0.7581  1.7428
  127OSM    C6F13608   4.318   2.125   7.164  0.4182  0.7376  0.5773
  127OSM    H6F13609   4.351   2.231   7.156 -1.3501  1.2231 -1.4399
  127OSM    H6G13610   4.376   2.051   7.223 -1.1634 -1.2162 -0.1993
  127OSM    C7F13611   4.174   2.127   7.230 -0.4496 -0.5592 -0.7349
  127OSM    H7F13612   4.128   2.026   7.228 -3.2751  0.6268 -0.2078
  127OSM    H7G13613   4.108   2.191   7.168  1.0406 -0.3322 -2.1702
  127OSM    C8F13614   4.169   2.185   7.376  0.2128  0.1655  0.4310
  127OSM    H8F13615   4.067   2.219   7.404  0.6489  0.9594  1.0971
  127OSM    H8G13616   4.232   2.277   7.380  0.4046  0.0315  0.4929
  127OSM    C9F13617   4.226   2.090   7.474 -0.2396  0.6870 -0.2411
  127OSM    H9F13618   4.331   2.109   7.504 -0.5852  0.4929  1.1733
  127OSM   C10F13619   4.175   1.971   7.512  0.7004  0.4812  0.1767
  127OSM   H10F13620   4.230   1.926   7.596 -1.8879 -2.8290  0.2698
  127OSM   C11F13621   4.044   1.913   7.463 -0.2587 -0.2308 -0.2958
  127OSM   H11F13622   4.078   1.819   7.414  0.0040 -0.9739  1.2703
  127OSM   H11G13623   3.985   1.981   7.398 -0.7451  1.3464  1.6898
  127OSM   C12F13624   3.949   1.874   7.587  0.7313  0.1138 -0.8706
  127OSM   H12F13625   3.917   1.968   7.636  1.5715 -0.9136  1.8490
  127OSM   H12G13626   4.019   1.822   7.655 -2.1386  0.8785  2.9936
  127OSM   C13F13627   3.829   1.789   7.542  0.5119 -0.0070 -0.0177
  127OSM   H13F13628   3.870   1.689   7.514 -2.6206 -1.6993  0.9562
  127OSM   H13G13629   3.778   1.829   7.452 -1.3630  1.1713  1.4845
  127OSM   C14F13630   3.714   1.769   7.646 -0.1628  0.3880  0.4853
  127OSM   H14F13631   3.758   1.743   7.744 -1.2114  2.7786  1.6779
  127OSM   H14G13632   3.624   1.710   7.618  0.1207  0.1375  0.0802
  127OSM   C15F13633   3.640   1.896   7.690  0.5675 -0.9214  0.8226
  127OSM   H15F13634   3.565   1.917   7.611  1.5817 -1.7632 -0.4106
  127OSM   H15G13635   3.710   1.982   7.686 -0.9863  0.3263 -1.1728
  127OSM   C16F13636   3.565   1.865   7.819  0.6108 -0.2427 -0.1348
  127OSM   H16F13637   3.518   1.765   7.822  1.4828 -0.8505 -3.1879
  127OSM   H16G13638   3.475   1.931   7.826  2.2845  2.0234  1.2547
  127OSM   C17F13639   3.652   1.881   7.944  0.0468  0.0591  0.0159
  127OSM   H17F13640   3.727   1.799   7.945  0.0547  0.0552  1.2711
  127OSM   H17G13641   3.580   1.863   8.027 -1.0131  0.3529 -0.8194
  127OSM   C18F13642   3.728   2.014   7.975 -0.7418  0.3334 -0.3896
  127OSM   H18F13643   3.778   2.060   7.887  3.5722  2.3171  2.7647
  127OSM   H18G13644   3.816   2.001   8.042  0.5754  2.2742 -1.6196
  127OSM   H18H13645   3.662   2.089   8.022  1.4615  1.1147  1.6223
  128OSM      N13646   3.234   0.648   5.926 -0.3818  0.7102 -0.1665
  128OSM    C1513647   3.280   0.781   5.873  0.3301  0.6388 -0.2972
  128OSM   H15A13648   3.211   0.802   5.793  2.1579  2.3776 -1.5056
  128OSM   H15B13649   3.373   0.761   5.822  0.4860  4.3627 -1.7916
  128OSM   H15C13650   3.286   0.863   5.944  0.3541 -0.3520  0.8767
  128OSM    C1413651   3.098   0.663   5.986  0.0045 -0.5714 -0.1886
  128OSM   H14A13652   3.047   0.572   6.013 -1.2882  0.2954  0.4550
  128OSM   H14B13653   3.031   0.722   5.925 -4.6898 -4.4182  0.6723
  128OSM   H14C13654   3.096   0.723   6.076 -2.0682  2.0263 -1.7980
  128OSM    C1313655   3.240   0.546   5.813 -0.5337 -1.2951 -0.3942
  128OSM   H13A13656   3.184   0.585   5.729  0.3618 -1.0253 -0.8859
  128OSM   H13B13657   3.207   0.448   5.844 -2.0315 -1.9304 -3.5994
  128OSM   H13C13658   3.344   0.540   5.785 -0.1592  2.4935 -0.3656
  128OSM    C1213659   3.312   0.604   6.043 -0.2047  0.2139  0.5799
  128OSM   H12A13660   3.266   0.512   6.076  0.0785 -0.3345 -0.5232
  128OSM   H12B13661   3.304   0.671   6.127 -0.7423  1.2829 -0.2981
  128OSM    C1113662   3.464   0.570   6.024 -0.2063 -0.0888 -0.0570
  128OSM   H11A13663   3.481   0.495   5.944 -1.7605 -2.1200  1.4018
  128OSM   H11B13664   3.493   0.518   6.117  1.3906 -0.6941 -0.8567
  128OSM      P13665   3.568   0.793   6.111 -0.0980  0.1473 -0.2273
  128OSM    O1313666   3.651   0.906   6.057 -0.0046 -0.2423  0.4494
  128OSM    O1413667   3.442   0.828   6.182  0.3209  0.6687 -0.0274
  128OSM    O1113668   3.655   0.711   6.209 -0.0781 -0.1004 -0.7726
  128OSM    O1213669   3.542   0.688   5.993  0.3673 -0.0232  0.4341
  128OSM    C1S13670   3.718   0.768   6.327 -0.3869 -0.0110  0.8921
  128OSM    H1S13671   3.764   0.865   6.298  0.0339 -0.1601  1.0452
  128OSM    H1T13672   3.792   0.687   6.344  0.1409 -0.3069 -2.1316
  128OSM     NF13673   3.698   0.824   6.553 -1.1725  0.7431 -0.2346
  128OSM    HNF13674   3.736   0.763   6.622 -1.0594  0.8409 -0.2102
  128OSM    C2S13675   3.626   0.766   6.446 -0.7832 -0.0187 -0.1315
  128OSM    H2S13676   3.537   0.831   6.429 -0.8371  0.1374  0.6935
  128OSM    C3S13677   3.582   0.625   6.481  0.2667  0.0090  0.0423
  128OSM    H3S13678   3.668   0.557   6.500 -0.4923 -1.4262 -1.4449
  128OSM     O313679   3.508   0.560   6.373  0.1466  0.7732  0.3038
  128OSM    HO313680   3.526   0.614   6.296 -1.0344 -0.6999 -1.0858
  128OSM    C4S13681   3.503   0.608   6.612 -0.0299  0.3362  0.1660
  128OSM    H4S13682   3.550   0.610   6.711  0.6811 -0.1529 -0.1542
  128OSM    C5S13683   3.362   0.610   6.607 -0.3048 -0.4530  0.0130
  128OSM    H5S13684   3.315   0.616   6.508  0.7340 -0.9156 -0.5333
  128OSM    C6S13685   3.269   0.602   6.726  0.0896  0.5496  0.1068
  128OSM    H6S13686   3.202   0.514   6.723  2.2335 -1.2219  1.3681
  128OSM    H6T13687   3.201   0.690   6.729 -2.0652 -1.0442  0.4816
  128OSM    C7S13688   3.341   0.594   6.868  0.0878 -0.3260 -0.2426
  128OSM    H7S13689   3.399   0.688   6.877 -0.4288  0.1517 -1.6828
  128OSM    H7T13690   3.407   0.504   6.871  0.8009  0.2073  1.3012
  128OSM    C8S13691   3.239   0.603   6.978 -0.4341 -0.1550 -0.1082
  128OSM    H8S13692   3.185   0.508   6.955 -0.7895  0.5375 -2.4013
  128OSM    H8T13693   3.167   0.687   6.966 -0.5181 -0.3904 -1.3624
  128OSM    C9S13694   3.315   0.596   7.109  0.0637 -0.2648  0.3497
  128OSM    H9S13695   3.360   0.696   7.128 -1.9473  0.9558 -0.9639
  128OSM    H9T13696   3.392   0.517   7.094  0.1125  0.0018 -0.8216
  128OSM   C10S13697   3.227   0.555   7.228 -0.9369 -0.3558 -0.5754
  128OSM   H10S13698   3.190   0.451   7.216 -0.5596 -0.3666 -1.8111
  128OSM   H10T13699   3.146   0.629   7.243  0.6864  1.0803  1.7770
  128OSM   C11S13700   3.312   0.557   7.360  0.6710 -0.2512  0.3264
  128OSM   H11S13701   3.365   0.654   7.359  0.7894 -0.3212 -0.4301
  128OSM   H11T13702   3.390   0.479   7.347 -1.4638 -2.6183  0.8528
  128OSM   C12S13703   3.223   0.521   7.477  0.0431 -0.3428  0.6481
  128OSM   H12S13704   3.185   0.418   7.466  0.7870 -0.5024 -0.5179
  128OSM   H12T13705   3.130   0.581   7.470  0.2761 -0.0130  0.3727
  128OSM   C13S13706   3.280   0.546   7.613  0.8158  0.0645 -0.5686
  128OSM   H13S13707   3.311   0.653   7.621 -1.8738  0.7974  2.0807
  128OSM   H13T13708   3.367   0.483   7.643  0.6561 -1.0969 -2.3989
  128OSM   C14S13709   3.172   0.517   7.723  0.1315  0.3249 -0.5803
  128OSM   H14S13710   3.131   0.414   7.716 -1.9802  1.0835  0.0758
  128OSM   H14T13711   3.085   0.583   7.705  1.8845  3.1950  0.7587
  128OSM   C15S13712   3.219   0.553   7.863 -0.1209  0.0337 -0.0468
  128OSM   H15S13713   3.279   0.646   7.851 -1.6020  0.8838 -1.4227
  128OSM   H15T13714   3.302   0.483   7.884 -1.1647 -0.7518  1.6988
  128OSM   C16S13715   3.109   0.550   7.970  0.5299  0.5105  0.2952
  128OSM   H16S13716   3.069   0.447   7.964  1.7887  0.0812 -2.2633
  128OSM   H16T13717   3.040   0.634   7.947  2.0113  1.5268 -0.6755
  128OSM   C17S13718   3.160   0.567   8.112  0.2214  0.3999  0.4492
  128OSM   H17S13719   3.206   0.668   8.123 -0.0909  0.3973  2.0932
  128OSM   H17T13720   3.241   0.493   8.130  0.8257  0.5942 -1.2986
  128OSM   C18S13721   3.056   0.558   8.220  0.4162  0.6226 -0.7809
  128OSM   H18S13722   3.088   0.618   8.309  1.1706  0.1111 -0.6895
  128OSM   H18T13723   3.030   0.454   8.251 -0.9467  1.0742 -0.3543
  128OSM   H18U13724   2.969   0.605   8.170 -1.6652 -0.7254  1.3309
  128OSM    C1F13725   3.738   0.950   6.567 -0.4284  0.3206  0.6339
  128OSM     OF13726   3.685   1.040   6.503  0.2780  1.1124  0.6622
  128OSM    C2F13727   3.851   0.984   6.661 -0.1786  1.1453 -0.3272
  128OSM    H2F13728   3.947   0.999   6.607 -1.0708 -0.8923 -2.7333
  128OSM    H2G13729   3.867   0.894   6.723 -1.7264 -0.6895 -2.4034
  128OSM    C3F13730   3.814   1.103   6.757 -0.3437 -0.9444 -0.1179
  128OSM    H3F13731   3.714   1.083   6.803  0.2290 -2.5135  0.5293
  128OSM    H3G13732   3.812   1.196   6.697  0.9021 -0.1731  0.9752
  128OSM    C4F13733   3.911   1.126   6.878  0.3060  0.7253  0.5695
  128OSM    H4F13734   3.929   1.235   6.890  0.1970  0.7248  0.7374
  128OSM    H4G13735   4.005   1.083   6.837 -0.0415  2.0028 -1.7450
  128OSM    C5F13736   3.856   1.084   7.016 -0.3419 -0.5379  0.9997
  128OSM    H5F13737   3.841   0.974   7.026 -0.4884 -0.3769  2.9862
  128OSM    H5G13738   3.758   1.131   7.041 -0.3292 -1.6653  3.5356
  128OSM    C6F13739   3.951   1.102   7.132  0.6403  0.2035  0.0049
  128OSM    H6F13740   3.994   1.204   7.143  0.3585  0.0871  3.0979
  128OSM    H6G13741   4.034   1.030   7.120  0.8350  0.7336 -2.3928
  128OSM    C7F13742   3.882   1.070   7.267 -1.0463 -0.5288 -0.1871
  128OSM    H7F13743   3.838   0.969   7.264 -1.8668 -0.1592 -0.8161
  128OSM    H7G13744   3.798   1.141   7.282 -0.0016  0.7667 -0.2236
  128OSM    C8F13745   3.979   1.084   7.399  0.8217 -0.1017 -0.3709
  128OSM    H8F13746   3.916   1.110   7.487  1.4527 -0.7808  0.2926
  128OSM    H8G13747   4.048   1.170   7.394  1.1031 -0.0702  2.5710
  128OSM    C9F13748   4.051   0.954   7.428 -0.0001  0.4136  0.5306
  128OSM    H9F13749   4.059   0.877   7.351 -0.1177  0.2853  0.6467
  128OSM   C10F13750   4.122   0.931   7.541  0.3833  0.7602 -0.0959
  128OSM   H10F13751   4.189   0.844   7.550 -0.6359 -0.0235  0.0335
  128OSM   C11F13752   4.134   1.038   7.651 -0.0867 -0.0827  0.3380
  128OSM   H11F13753   4.088   1.135   7.621  1.5426  0.9428  0.9739
  128OSM   H11G13754   4.241   1.068   7.658 -0.4507  1.5706 -0.7458
  128OSM   C12F13755   4.075   0.993   7.792 -0.4896 -0.0014 -0.1734
  128OSM   H12F13756   3.972   0.954   7.778 -0.0119 -1.5009  0.3685
  128OSM   H12G13757   4.078   1.085   7.855  1.2418 -0.9279  1.1642
  128OSM   C13F13758   4.148   0.861   7.840  0.3081  0.4541 -0.0466
  128OSM   H13F13759   4.253   0.896   7.839  1.0972 -1.7926 -0.1758
  128OSM   H13G13760   4.135   0.774   7.773 -2.6003  2.4850 -2.3847
  128OSM   C14F13761   4.117   0.826   7.981 -0.5439  0.0559 -0.6465
  128OSM   H14F13762   4.123   0.924   8.034 -0.1887  1.1134 -2.5488
  128OSM   H14G13763   4.203   0.773   8.027 -0.1065  1.8368  0.7129
  128OSM   C15F13764   3.987   0.753   8.004 -0.3593  0.1080 -0.4941
  128OSM   H15F13765   3.964   0.660   7.948 -0.8472 -0.7002  0.9747
  128OSM   H15G13766   3.915   0.832   7.974  0.7720  2.1598  1.8893
  128OSM   C16F13767   3.962   0.715   8.158 -0.5084 -0.2432  0.3705
  128OSM   H16F13768   3.861   0.668   8.154 -0.4688 -0.3439 -4.1935
  128OSM   H16G13769   3.950   0.814   8.206  2.1815  0.1628  0.3278
  128OSM   C17F13770   4.063   0.621   8.227  0.3082 -0.0400 -0.4201
  128OSM   H17F13771   4.042   0.615   8.336 -0.9926 -3.8105 -0.7107
  128OSM   H17G13772   4.170   0.649   8.215  0.1319  0.7215 -0.2258
  128OSM   C18F13773   4.034   0.477   8.174 -0.2415 -0.4561 -0.7539
  128OSM   H18F13774   4.075   0.464   8.072  0.9169  1.0173 -0.5125
  128OSM   H18G13775   3.924   0.459   8.175 -0.3799  0.2935 -1.2660
  128OSM   H18H13776   4.089   0.407   8.240 -1.5622 -0.1971  0.7007
  129OSM      N13777   2.428   0.513   5.674 -0.2380  0.0777  0.4183
  129OSM    C1513778   2.553   0.491   5.756 -0.0327  0.5123  0.8248
  129OSM   H15A13779   2.606   0.579   5.788  0.9140  0.2130  0.1472
  129OSM   H15B13780   2.617   0.419   5.707 -4.2012 -0.5886 -3.8981
  129OSM   H15C13781   2.527   0.442   5.848 -1.1329 -0.1876  0.1726
  129OSM    C1413782   2.478   0.574   5.545 -0.6216 -0.2928  0.2716
  129OSM   H14A13783   2.531   0.668   5.552 -1.5328  0.1328  2.4894
  129OSM   H14B13784   2.389   0.593   5.486  0.4663 -2.3040 -2.1850
  129OSM   H14C13785   2.541   0.503   5.494 -0.6850  0.6899 -1.2679
  129OSM    C1313786   2.355   0.383   5.652 -0.3617  0.5514 -0.5145
  129OSM   H13A13787   2.264   0.395   5.596 -1.5912  0.7052  1.4131
  129OSM   H13B13788   2.326   0.335   5.745  2.2950 -0.2343 -0.0129
  129OSM   H13C13789   2.426   0.311   5.613 -0.9454 -1.0487  1.2125
  129OSM    C1213790   2.342   0.615   5.734 -0.4503  0.0342  0.0902
  129OSM   H12A13791   2.259   0.625   5.665 -0.3137 -2.0200 -0.4401
  129OSM   H12B13792   2.394   0.709   5.745 -0.0937 -0.1374 -0.0977
  129OSM    C1113793   2.294   0.593   5.880 -0.6319 -0.1459  0.1252
  129OSM   H11A13794   2.244   0.493   5.876  3.3596 -2.3549  0.3303
  129OSM   H11B13795   2.216   0.670   5.898  0.1151  0.5672  0.3612
  129OSM      P13796   2.452   0.744   6.029  0.6473 -0.0535  0.5947
  129OSM    O1313797   2.580   0.731   6.095  0.0493  0.3682 -0.0202
  129OSM    O1413798   2.456   0.849   5.921 -0.1635  0.2528  0.3791
  129OSM    O1113799   2.341   0.778   6.134 -0.5668  0.0998 -0.0576
  129OSM    O1213800   2.403   0.603   5.972  0.3671 -0.4625  0.1498
  129OSM    C1S13801   2.293   0.673   6.222  0.3465  0.1504 -0.3753
  129OSM    H1S13802   2.373   0.604   6.256  0.0281  0.7038  1.6395
  129OSM    H1T13803   2.221   0.609   6.167 -0.5636 -0.3719  1.3295
  129OSM     NF13804   2.223   0.649   6.452  0.0646  0.9234  0.4296
  129OSM    HNF13805   2.137   0.600   6.458  0.9738 -0.7952 -0.0558
  129OSM    C2S13806   2.233   0.740   6.348  0.2901 -0.8419  0.3192
  129OSM    H2S13807   2.304   0.820   6.379  0.3962 -1.0664  0.6520
  129OSM    C3S13808   2.097   0.813   6.299 -0.3002  0.0451  0.0012
  129OSM    H3S13809   2.031   0.734   6.256  1.0377 -0.2232 -1.6917
  129OSM     O313810   2.126   0.911   6.193  0.4817 -0.3588  0.1610
  129OSM    HO313811   2.202   0.881   6.144  0.7376  1.6151 -0.7543
  129OSM    C4S13812   2.019   0.869   6.419 -0.3076 -0.4306  0.3776
  129OSM    H4S13813   1.985   0.790   6.486 -2.7250 -0.4006 -0.7214
  129OSM    C5S13814   1.981   0.996   6.442  0.2254  0.0382 -0.0842
  129OSM    H5S13815   2.006   1.073   6.368  0.6467 -0.0646 -0.0517
  129OSM    C6S13816   1.901   1.047   6.558 -1.1222 -0.0710  0.2895
  129OSM    H6S13817   1.852   0.958   6.602 -2.0262 -0.3463 -1.2094
  129OSM    H6T13818   1.824   1.116   6.518 -0.2899 -0.2774 -1.7986
  129OSM    C7S13819   2.002   1.117   6.650  0.3326 -0.1233 -0.1553
  129OSM    H7S13820   2.044   1.192   6.579  0.6720  1.4364  1.6325
  129OSM    H7T13821   2.079   1.042   6.679 -1.0312 -1.5353 -0.0577
  129OSM    C8S13822   1.934   1.173   6.775 -0.0174  0.2376  0.4052
  129OSM    H8S13823   1.849   1.242   6.754  0.7963  0.8226 -1.1520
  129OSM    H8T13824   2.003   1.229   6.841 -0.7092  2.0867 -0.3625
  129OSM    C9S13825   1.880   1.059   6.876 -0.4568  0.0818 -0.2022
  129OSM    H9S13826   1.960   0.986   6.898  1.7442  2.8681  1.8810
  129OSM    H9T13827   1.798   1.003   6.826  0.0691 -0.4827 -0.4392
  129OSM   C10S13828   1.825   1.105   7.011  0.1974  0.0146 -0.2390
  129OSM   H10S13829   1.727   1.157   7.001 -0.6927 -1.2709  1.2997
  129OSM   H10T13830   1.900   1.172   7.058  0.7505 -0.7589  0.0056
  129OSM   C11S13831   1.822   0.981   7.101 -1.4445 -0.5829  1.1562
  129OSM   H11S13832   1.929   0.957   7.118 -0.8372  0.1882 -1.2480
  129OSM   H11T13833   1.765   0.903   7.046  1.6418 -1.6437 -0.8274
  129OSM   C12S13834   1.749   1.011   7.236 -0.5792  0.0306 -0.5878
  129OSM   H12S13835   1.641   1.018   7.210 -0.4491 -2.6415 -2.1314
  129OSM   H12T13836   1.797   1.094   7.293 -1.0439 -1.1568  1.6318
  129OSM   C13S13837   1.757   0.891   7.327  0.0074 -0.0322 -0.2927
  129OSM   H13S13838   1.865   0.882   7.354  0.0034 -0.2396 -0.3413
  129OSM   H13T13839   1.738   0.792   7.279  2.3154 -0.8862  0.3644
  129OSM   C14S13840   1.682   0.919   7.458 -0.0834  0.0625 -0.5008
  129OSM   H14S13841   1.698   0.831   7.524 -1.1824 -1.2247 -1.8846
  129OSM   H14T13842   1.573   0.920   7.437 -0.3933 -1.6703  0.8302
  129OSM   C15S13843   1.737   1.038   7.540 -0.3118  0.2558 -0.1115
  129OSM   H15S13844   1.709   1.129   7.484  1.3191  0.1611 -1.1288
  129OSM   H15T13845   1.847   1.034   7.546 -0.3195  0.2257  0.0142
  129OSM   C16S13846   1.685   1.032   7.692 -0.1794 -0.4154 -0.0581
  129OSM   H16S13847   1.690   0.926   7.724 -1.6260 -0.8088 -0.9848
  129OSM   H16T13848   1.592   1.092   7.702  1.0256  1.4961  0.2610
  129OSM   C17S13849   1.789   1.106   7.768  0.4153 -0.0229  0.0557
  129OSM   H17S13850   1.793   1.207   7.724 -0.1531  0.2217  0.5626
  129OSM   H17T13851   1.890   1.060   7.755  0.7945  0.6207  0.6502
  129OSM   C18S13852   1.749   1.119   7.914  0.6967 -0.1552  0.4675
  129OSM   H18S13853   1.763   1.020   7.964  1.0635 -0.2229  0.2402
  129OSM   H18T13854   1.645   1.154   7.924  0.9706  0.6398  0.5683
  129OSM   H18U13855   1.814   1.196   7.962 -0.9254  0.4333  1.7904
  129OSM    C1F13856   2.320   0.585   6.513 -0.1200  0.2707 -0.5979
  129OSM     OF13857   2.420   0.643   6.545 -0.1812 -0.5685  0.0723
  129OSM    C2F13858   2.301   0.445   6.533 -0.2457 -0.3428 -0.8619
  129OSM    H2F13859   2.311   0.390   6.437  0.6240  0.6702 -1.3642
  129OSM    H2G13860   2.195   0.428   6.564  0.3339  0.4929  1.9452
  129OSM    C3F13861   2.397   0.391   6.639 -0.3937 -0.0303  0.9120
  129OSM    H3F13862   2.391   0.457   6.729 -0.7824 -0.5453  1.2657
  129OSM    H3G13863   2.498   0.413   6.598  0.2636 -0.8897  2.0295
  129OSM    C4F13864   2.375   0.240   6.674 -0.3644 -0.5229 -0.6508
  129OSM    H4F13865   2.394   0.181   6.582  0.5713 -1.0652 -0.1199
  129OSM    H4G13866   2.274   0.216   6.712 -1.3044 -0.4990 -2.9415
  129OSM    C5F13867   2.481   0.204   6.780 -0.7654  1.0243 -0.0269
  129OSM    H5F13868   2.584   0.223   6.745 -1.9658  1.4024 -3.7975
  129OSM    H5G13869   2.470   0.094   6.770  0.9716  0.7802  0.4949
  129OSM    C6F13870   2.443   0.250   6.922  0.3909 -0.4176  0.3766
  129OSM    H6F13871   2.333   0.247   6.936  0.3226  0.7645  0.2040
  129OSM    H6G13872   2.477   0.354   6.938  0.4177  0.1529 -2.7651
  129OSM    C7F13873   2.500   0.165   7.033 -0.3295  0.3325 -0.4033
  129OSM    H7F13874   2.609   0.177   7.049 -0.1578  0.7958 -1.8608
  129OSM    H7G13875   2.490   0.057   7.007  2.2865  0.2785 -1.4456
  129OSM    C8F13876   2.424   0.191   7.170 -0.4342  0.0857 -0.0280
  129OSM    H8F13877   2.437   0.099   7.230  1.5631 -0.8764 -1.7904
  129OSM    H8G13878   2.315   0.193   7.147 -0.0081 -0.5668 -2.3779
  129OSM    C9F13879   2.446   0.325   7.233  0.0119  0.3427 -0.3359
  129OSM    H9F13880   2.416   0.414   7.176 -1.2178 -0.2571 -0.6494
  129OSM   C10F13881   2.497   0.347   7.357  0.2837 -0.2903  0.3332
  129OSM   H10F13882   2.504   0.452   7.389 -0.2604  0.2033 -1.1041
  129OSM   C11F13883   2.537   0.243   7.452 -0.1289  0.4544  0.5826
  129OSM   H11F13884   2.628   0.272   7.510  1.6188  0.6541 -2.0774
  129OSM   H11G13885   2.575   0.159   7.391 -3.0076 -1.8411  1.7507
  129OSM   C12F13886   2.430   0.186   7.546  0.2439  0.0760  0.0395
  129OSM   H12F13887   2.475   0.114   7.618  1.1117 -0.3412 -0.9041
  129OSM   H12G13888   2.361   0.121   7.489  0.0077  0.5681 -0.2445
  129OSM   C13F13889   2.345   0.294   7.624 -0.2660  0.3022  0.1026
  129OSM   H13F13890   2.266   0.241   7.681 -0.5533  0.5533 -0.0562
  129OSM   H13G13891   2.291   0.376   7.572  2.0602  2.9774  1.6350
  129OSM   C14F13892   2.427   0.353   7.737  0.0587  0.1884  0.7513
  129OSM   H14F13893   2.512   0.406   7.688  0.3948  0.4027  1.5419
  129OSM   H14G13894   2.485   0.278   7.795  3.6581  1.0168 -1.4938
  129OSM   C15F13895   2.353   0.461   7.820  0.0802  0.4595  0.7259
  129OSM   H15F13896   2.323   0.534   7.741  3.0233  2.5459  1.3416
  129OSM   H15G13897   2.422   0.520   7.885  2.2181  2.1959 -2.7589
  129OSM   C16F13898   2.227   0.416   7.907 -0.3988  0.2537  0.1388
  129OSM   H16F13899   2.153   0.367   7.840  0.8591  0.3089 -1.3467
  129OSM   H16G13900   2.175   0.511   7.933 -0.2718  0.2699  0.3288
  129OSM   C17F13901   2.249   0.335   8.039  0.6007 -0.7960 -0.1574
  129OSM   H17F13902   2.329   0.260   8.023 -0.1965 -2.0550  1.4721
  129OSM   H17G13903   2.159   0.274   8.065  2.0701 -2.9017  0.2877
  129OSM   C18F13904   2.291   0.419   8.163  0.0796  0.8758  0.0984
  129OSM   H18F13905   2.211   0.493   8.183  0.2889  0.9031  0.8386
  129OSM   H18G13906   2.386   0.473   8.146 -0.2908  0.7045 -3.2857
  129OSM   H18H13907   2.287   0.350   8.250  0.2047 -1.3958 -1.5977
  130OSM      N13908   3.949   0.580   6.017  0.3358 -0.1282  0.3505
  130OSM    C1513909   3.878   0.491   6.110 -0.0606 -0.5663 -0.3752
  130OSM   H15A13910   3.950   0.458   6.183  1.2772 -0.6776 -1.7037
  130OSM   H15B13911   3.829   0.415   6.052  1.3884  0.4562 -3.1069
  130OSM   H15C13912   3.804   0.551   6.161  2.7671  2.1711  0.8699
  130OSM    C1413913   3.853   0.650   5.922  0.7512  0.0122  0.0306
  130OSM   H14A13914   3.809   0.573   5.860  0.7226  1.1857 -1.4646
  130OSM   H14B13915   3.900   0.718   5.854  0.3959 -1.4285 -1.7302
  130OSM   H14C13916   3.775   0.705   5.974  1.0918  2.1969 -1.6461
  130OSM    C1313917   4.018   0.690   6.097  0.6753  0.0877  0.5026
  130OSM   H13A13918   4.073   0.667   6.187  2.1792  2.1226  0.1628
  130OSM   H13B13919   3.934   0.749   6.128 -1.0422  0.0038 -3.3703
  130OSM   H13C13920   4.091   0.742   6.036  1.6148 -0.5991  1.0045
  130OSM    C1213921   4.048   0.502   5.928  0.7505  0.2563  0.2731
  130OSM   H12A13922   4.088   0.565   5.849  1.9302 -0.0225  0.6316
  130OSM   H12B13923   4.000   0.426   5.867  1.0336 -1.0579  1.6409
  130OSM    C1113924   4.179   0.443   6.003 -0.1599  0.6807 -0.3404
  130OSM   H11A13925   4.233   0.525   6.055  0.6451 -0.8845  1.4042
  130OSM   H11B13926   4.244   0.396   5.926  3.6969  3.9519  0.5344
  130OSM      P13927   4.251   0.294   6.189  0.0542 -0.0657 -0.2851
  130OSM    O1313928   4.363   0.226   6.122  0.2884  0.3677 -0.1428
  130OSM    O1413929   4.272   0.418   6.268 -0.8329  0.0553  0.2466
  130OSM    O1113930   4.177   0.186   6.267 -0.8247 -0.0352 -0.0699
  130OSM    O1213931   4.136   0.338   6.090  0.1335 -0.3040 -0.0018
  130OSM    C1S13932   4.192   0.172   6.407  0.0801  0.0130  0.5183
  130OSM    H1S13933   4.293   0.202   6.444 -0.1238  0.9272  0.3627
  130OSM    H1T13934   4.196   0.064   6.433  1.8162 -0.8526 -2.7592
  130OSM     NF13935   4.117   0.226   6.645  0.7531 -0.5014 -0.4037
  130OSM    HNF13936   4.058   0.167   6.699  0.4646  1.9396  2.1588
  130OSM    C2S13937   4.082   0.246   6.499 -1.0234  0.0743 -0.6203
  130OSM    H2S13938   4.073   0.355   6.479 -1.8774 -0.2741 -2.2387
  130OSM    C3S13939   3.939   0.206   6.454  0.4757  0.7827 -0.8817
  130OSM    H3S13940   3.935   0.096   6.467  0.0397  0.9492  0.6456
  130OSM     O313941   3.908   0.247   6.317  0.4498  0.1497 -0.3603
  130OSM    HO313942   3.992   0.226   6.276  1.6550 -0.2160  2.1160
  130OSM    C4S13943   3.840   0.268   6.543  0.9467  0.2558 -0.4214
  130OSM    H4S13944   3.822   0.376   6.537 -1.0280  0.0554  0.8816
  130OSM    C5S13945   3.768   0.201   6.635  0.4922 -0.7291  0.6555
  130OSM    H5S13946   3.779   0.092   6.626  0.9626 -0.6314  0.0054
  130OSM    C6S13947   3.668   0.251   6.736  0.1712  0.0821 -0.1529
  130OSM    H6S13948   3.567   0.240   6.692  1.2403 -3.8723 -2.0425
  130OSM    H6T13949   3.676   0.361   6.748 -1.2837  0.5024 -2.4395
  130OSM    C7S13950   3.689   0.181   6.873  0.0726  0.0653 -0.2412
  130OSM    H7S13951   3.798   0.174   6.897  0.4937 -0.9274 -2.1879
  130OSM    H7T13952   3.647   0.079   6.866  0.2945 -0.0811  0.4737
  130OSM    C8S13953   3.596   0.237   6.979  0.0976 -0.1144 -0.1393
  130OSM    H8S13954   3.494   0.240   6.936  0.1315  0.5380 -0.1881
  130OSM    H8T13955   3.625   0.344   6.993 -0.0383 -0.2639  1.5807
  130OSM    C9S13956   3.611   0.176   7.116 -0.7052  0.4882 -0.1897
  130OSM    H9S13957   3.719   0.157   7.135 -0.2816  1.6759 -1.2393
  130OSM    H9T13958   3.575   0.072   7.105  1.0950 -0.1082 -0.8334
  130OSM   C10S13959   3.551   0.254   7.232  0.0848  0.7466 -0.5707
  130OSM   H10S13960   3.445   0.281   7.210  0.4774  2.7407 -0.2761
  130OSM   H10T13961   3.604   0.349   7.254 -0.2010  0.2976  2.3720
  130OSM   C11S13962   3.556   0.175   7.364  0.1410 -0.5808 -0.1756
  130OSM   H11S13963   3.663   0.170   7.396 -0.2519  0.6597  1.4499
  130OSM   H11T13964   3.514   0.075   7.340  0.0565 -0.3468 -1.0522
  130OSM   C12S13965   3.469   0.233   7.473 -0.2943 -0.0145  0.0096
  130OSM   H12S13966   3.369   0.252   7.428 -1.3795 -1.5379  1.6514
  130OSM   H12T13967   3.503   0.329   7.516 -1.2707  0.0278  0.7037
  130OSM   C13S13968   3.460   0.142   7.591 -0.2296 -0.2272 -0.1210
  130OSM   H13S13969   3.561   0.100   7.609 -1.0842 -1.9138  0.9447
  130OSM   H13T13970   3.382   0.065   7.570  0.5319 -0.9294 -0.4315
  130OSM   C14S13971   3.409   0.217   7.713  0.7929  0.1930 -0.9051
  130OSM   H14S13972   3.312   0.264   7.684  0.6496  1.6376  1.5539
  130OSM   H14T13973   3.478   0.299   7.744  2.5182 -1.9317  1.2124
  130OSM   C15S13974   3.368   0.134   7.840  0.3215 -0.2378  0.0862
  130OSM   H15S13975   3.457   0.072   7.864  0.7215  0.1415 -0.4005
  130OSM   H15T13976   3.290   0.059   7.816  0.0038 -0.2916  1.2116
  130OSM   C16S13977   3.321   0.216   7.958  0.4653 -0.0230 -0.3193
  130OSM   H16S13978   3.232   0.271   7.920  1.7797  0.3963 -3.0344
  130OSM   H16T13979   3.400   0.292   7.979  2.5161 -1.2398 -2.9431
  130OSM   C17S13980   3.292   0.134   8.075 -0.5302 -0.7041 -1.3211
  130OSM   H17S13981   3.394   0.092   8.091 -0.4176 -0.0414 -0.2289
  130OSM   H17T13982   3.226   0.046   8.058  1.3031 -2.6721  0.9302
  130OSM   C18S13983   3.239   0.209   8.201 -0.1228 -0.1454 -0.6872
  130OSM   H18S13984   3.184   0.163   8.286 -1.3337  0.3849 -1.1502
  130OSM   H18T13985   3.156   0.273   8.163 -0.4758  1.4092  2.3894
  130OSM   H18U13986   3.314   0.280   8.241 -1.7649  0.9902  0.5181
  130OSM    C1F13987   4.219   0.278   6.714 -0.1171 -0.1288  0.0002
  130OSM     OF13988   4.289   0.359   6.656  0.1157  0.2039 -0.6962
  130OSM    C2F13989   4.233   0.238   6.857 -0.8607 -0.0695 -1.6002
  130OSM    H2F13990   4.290   0.142   6.853  0.5197  0.6858 -0.9160
  130OSM    H2G13991   4.133   0.220   6.900  0.2405 -2.9873  0.0282
  130OSM    C3F13992   4.314   0.337   6.947  0.6884  0.2454 -0.0871
  130OSM    H3F13993   4.254   0.418   6.994  0.5835  0.5252 -0.6856
  130OSM    H3G13994   4.386   0.383   6.876 -0.6344  0.9458 -1.0242
  130OSM    C4F13995   4.389   0.271   7.057 -0.4373  1.2366 -0.0366
  130OSM    H4F13996   4.467   0.341   7.095  1.8158  0.7747 -3.4232
  130OSM    H4G13997   4.457   0.195   7.013 -1.2158  1.3500 -1.4647
  130OSM    C5F13998   4.313   0.219   7.180  0.4513  0.3659  0.1745
  130OSM    H5F13999   4.245   0.135   7.153 -1.0832  0.8509  2.2802
  130OSM    H5G14000   4.241   0.298   7.207  0.9324  0.5128  1.0606
  130OSM    C6F14001   4.393   0.181   7.302  0.6128  0.4407 -0.7106
  130OSM    H6F14002   4.449   0.271   7.336 -2.5480  2.3564 -0.0700
  130OSM    H6G14003   4.453   0.088   7.294  2.0532  1.3118 -0.3716
  130OSM    C7F14004   4.308   0.169   7.438 -0.4316  0.1824  0.8351
  130OSM    H7F14005   4.227   0.095   7.419 -1.5685  1.7715 -0.8094
  130OSM    H7G14006   4.259   0.268   7.440  2.5229  1.8589 -1.9239
  130OSM    C8F14007   4.391   0.144   7.567 -0.1909  0.3067 -0.9480
  130OSM    H8F14008   4.324   0.136   7.655 -0.8733 -1.2935 -1.5670
  130OSM    H8G14009   4.452   0.234   7.586  0.2784  0.4714 -2.9661
  130OSM    C9F14010   4.472   0.019   7.560  0.0073  0.2772 -0.7786
  130OSM    H9F14011   4.566   0.028   7.503 -1.8793  2.0710 -3.9220
  130OSM   C10F14012   4.433  -0.104   7.611 -0.0693 -0.2978 -0.1790
  130OSM   H10F14013   4.495  -0.194   7.604  1.2715  0.4476  1.5468
  130OSM   C11F14014   4.293  -0.128   7.666 -0.0324  0.0232 -0.3469
  130OSM   H11F14015   4.217  -0.049   7.648 -0.7781 -0.2075  1.6055
  130OSM   H11G14016   4.306  -0.123   7.776 -0.1965  0.8063 -0.3585
  130OSM   C12F14017   4.223  -0.262   7.624  0.3966 -0.0984  0.4524
  130OSM   H12F14018   4.133  -0.272   7.689 -0.4449 -0.7714 -0.7653
  130OSM   H12G14019   4.292  -0.347   7.645  0.6612  0.3722  1.5272
  130OSM   C13F14020   4.183  -0.258   7.474  0.4763  0.3786 -0.2606
  130OSM   H13F14021   4.246  -0.195   7.407  0.0216  0.8283 -0.2709
  130OSM   H13G14022   4.080  -0.216   7.472  1.0004  1.7774  0.5440
  130OSM   C14F14023   4.188  -0.396   7.405  0.0028  0.4922 -0.5669
  130OSM   H14F14024   4.133  -0.472   7.465 -1.7137  2.6777  0.7525
  130OSM   H14G14025   4.293  -0.425   7.384 -0.4579 -2.6805  0.9493
  130OSM   C15F14026   4.119  -0.406   7.267 -0.3734  0.1297 -0.3644
  130OSM   H15F14027   4.127  -0.304   7.223 -1.5365  0.3461 -0.1117
  130OSM   H15G14028   4.011  -0.434   7.268 -0.4249  0.1046 -2.4484
  130OSM   C16F14029   4.192  -0.503   7.170 -0.0401  0.2476 -0.5073
  130OSM   H16F14030   4.177  -0.609   7.200 -0.8807  0.3069 -0.6973
  130OSM   H16G14031   4.298  -0.470   7.168 -0.6278  2.2426 -0.6118
  130OSM   C17F14032   4.148  -0.490   7.024 -0.1158 -0.1827 -0.0639
  130OSM   H17F14033   4.206  -0.562   6.963 -0.9235  0.5019 -1.7139
  130OSM   H17G14034   4.174  -0.394   6.975 -0.0339 -0.9018 -1.4922
  130OSM   C18F14035   4.001  -0.527   7.000  0.0459 -0.2857  0.8198
  130OSM   H18F14036   3.981  -0.637   7.003 -0.3147 -0.3177 -1.1485
  130OSM   H18G14037   3.964  -0.504   6.898 -1.6773 -1.6450  1.0779
  130OSM   H18H14038   3.943  -0.470   7.075 -0.2118  0.6049 -0.0442
  131OSM      N14039   4.505   3.842   6.066  0.2234  0.4489 -0.3953
  131OSM    C1514040   4.467   3.730   5.976  0.3483  0.8086  0.7933
  131OSM   H15A14041   4.392   3.759   5.904 -0.0877 -0.4589  0.7184
  131OSM   H15B14042   4.419   3.658   6.040 -0.0035 -0.5086 -0.8789
  131OSM   H15C14043   4.550   3.693   5.917 -1.4384  1.7246 -2.5636
  131OSM    C1414044   4.564   3.957   5.982  0.1332 -0.1577  0.0278
  131OSM   H14A14045   4.590   4.038   6.050 -1.1533 -0.0226  0.3827
  131OSM   H14B14046   4.497   4.004   5.911  0.6386 -0.2446 -0.5068
  131OSM   H14C14047   4.647   3.919   5.925 -1.7229  0.4128 -3.3397
  131OSM    C1314048   4.389   3.880   6.146 -0.0695 -0.2018  0.3920
  131OSM   H13A14049   4.320   3.941   6.089  0.4182  0.2318  0.2635
  131OSM   H13B14050   4.411   3.933   6.238  1.3215 -1.0478  0.5761
  131OSM   H13C14051   4.332   3.791   6.173 -1.2141 -0.0273 -1.2877
  131OSM    C1214052   4.620   3.792   6.158 -0.4828 -0.0106 -0.0062
  131OSM   H12A14053   4.668   3.875   6.208  0.3735 -1.0891  1.0202
  131OSM   H12B14054   4.694   3.749   6.092 -0.2602  0.4414 -0.0534
  131OSM    C1114055   4.597   3.686   6.265  1.1120  0.9135 -0.8355
  131OSM   H11A14056   4.526   3.724   6.341  0.5084 -0.4865 -0.6521
  131OSM   H11B14057   4.692   3.671   6.320  1.3444  1.2923 -1.1333
  131OSM      P14058   4.628   3.438   6.174 -0.0482  0.5478  0.2276
  131OSM    O1314059   4.566   3.353   6.070  0.3320 -0.2532  0.5269
  131OSM    O1414060   4.770   3.488   6.140  0.3803  0.3158  0.0028
  131OSM    O1114061   4.644   3.333   6.296  0.5894 -0.4823  0.1861
  131OSM    O1214062   4.539   3.567   6.207  0.0144 -0.4688 -0.0341
  131OSM    C1S14063   4.533   3.282   6.367 -0.0851 -0.4050  0.1191
  131OSM    H1S14064   4.505   3.186   6.319 -1.6636 -1.3089  2.6551
  131OSM    H1T14065   4.454   3.359   6.363 -0.0199 -0.3668 -0.8441
  131OSM     NF14066   4.492   3.156   6.587 -0.5156  0.0246 -0.1266
  131OSM    HNF14067   4.440   3.191   6.664  0.0274  0.9053 -0.1428
  131OSM    C2S14068   4.569   3.263   6.527  0.1092 -0.1101 -0.1891
  131OSM    H2S14069   4.672   3.221   6.517  0.6337  0.0659  3.4244
  131OSM    C3S14070   4.572   3.400   6.595 -0.2097 -0.0483  0.2234
  131OSM    H3S14071   4.474   3.446   6.618 -0.4032  0.5149 -1.5699
  131OSM     O314072   4.647   3.498   6.525 -0.3969  0.2260 -0.3878
  131OSM    HO314073   4.681   3.452   6.448 -0.8196  1.3793 -1.3064
  131OSM    C4S14074   4.630   3.379   6.732 -0.4549  1.1984 -0.2896
  131OSM    H4S14075   4.571   3.424   6.813 -0.7437 -0.4437  0.4458
  131OSM    C5S14076   4.757   3.329   6.759  0.1434 -0.1048  0.4419
  131OSM    H5S14077   4.829   3.331   6.677  2.0020  1.1861  2.0085
  131OSM    C6S14078   4.818   3.314   6.896  0.9208  0.5338  0.7793
  131OSM    H6S14079   4.878   3.401   6.929  0.5054  1.5049 -0.8725
  131OSM    H6T14080   4.884   3.225   6.898 -1.0308 -1.1046 -1.4391
  131OSM    C7S14081   4.724   3.271   7.019  0.0419  0.0977  0.0481
  131OSM    H7S14082   4.668   3.177   6.997 -0.8368  1.1942 -2.7292
  131OSM    H7T14083   4.650   3.354   7.022  1.2365  1.3406 -2.2365
  131OSM    C8S14084   4.808   3.247   7.142 -0.5296  0.3110 -0.4529
  131OSM    H8S14085   4.855   3.344   7.170 -1.6327  0.3502  1.4199
  131OSM    H8T14086   4.887   3.173   7.113  2.1765  2.6384  0.4926
  131OSM    C9S14087   4.719   3.204   7.265  0.5447  0.7714  0.2185
  131OSM    H9S14088   4.661   3.288   7.308 -0.3461  0.7696 -0.9296
  131OSM    H9T14089   4.795   3.179   7.342 -1.6187 -0.0514  2.1662
  131OSM   C10S14090   4.636   3.079   7.239  0.2875  0.2380 -0.2816
  131OSM   H10S14091   4.624   3.029   7.337 -0.1955  1.1635  0.1383
  131OSM   H10T14092   4.680   3.007   7.167 -3.9640 -1.1460 -1.8314
  131OSM   C11S14093   4.490   3.108   7.186 -0.1950  0.0097  0.2342
  131OSM   H11S14094   4.493   3.134   7.078  2.1836 -0.6934  0.0593
  131OSM   H11T14095   4.454   3.197   7.241 -1.1465 -0.0511 -0.2695
  131OSM   C12S14096   4.400   2.990   7.204  0.4684 -0.0224  0.1193
  131OSM   H12S14097   4.294   3.021   7.214  0.3812 -0.8960  2.4222
  131OSM   H12T14098   4.433   2.940   7.297  0.2955  3.0462  1.9594
  131OSM   C13S14099   4.418   2.887   7.090 -0.3549  0.1494  0.2373
  131OSM   H13S14100   4.520   2.895   7.046  0.5952 -1.5422  1.9709
  131OSM   H13T14101   4.343   2.901   7.009  0.9153  2.8498 -0.5665
  131OSM   C14S14102   4.406   2.741   7.150 -0.4098 -0.2813  0.2714
  131OSM   H14S14103   4.310   2.730   7.206 -1.1734  2.7071 -0.2698
  131OSM   H14T14104   4.494   2.716   7.213  0.2476  2.9850  0.8282
  131OSM   C15S14105   4.397   2.621   7.048 -0.5345  0.1268 -0.7174
  131OSM   H15S14106   4.328   2.659   6.970  1.8718  1.0248 -2.5494
  131OSM   H15T14107   4.356   2.527   7.091 -0.8021 -0.1087 -1.4730
  131OSM   C16S14108   4.534   2.601   6.978 -0.1695 -0.2588  0.0420
  131OSM   H16S14109   4.609   2.599   7.059 -0.4958  1.2945  0.4168
  131OSM   H16T14110   4.549   2.693   6.917 -2.2613 -0.2674 -0.5923
  131OSM   C17S14111   4.541   2.483   6.875 -0.1308  0.7251  0.4415
  131OSM   H17S14112   4.457   2.493   6.803  0.7451  0.7994 -0.5922
  131OSM   H17T14113   4.525   2.388   6.931 -0.5503 -0.3940 -1.4761
  131OSM   C18S14114   4.677   2.448   6.806 -0.1646 -0.7631 -0.2009
  131OSM   H18S14115   4.665   2.341   6.778  1.0188 -1.1049  0.5586
  131OSM   H18T14116   4.753   2.460   6.886  0.0866 -3.0697 -0.0355
  131OSM   H18U14117   4.693   2.516   6.719 -2.7571  2.0644  1.3164
  131OSM    C1F14118   4.477   3.027   6.555 -0.2189 -0.0525 -0.0470
  131OSM     OF14119   4.516   2.989   6.447  1.2270 -0.2782  0.1229
  131OSM    C2F14120   4.415   2.933   6.646 -0.4167  0.4478  0.1339
  131OSM    H2F14121   4.330   2.975   6.705  0.5313  0.1819  1.7754
  131OSM    H2G14122   4.486   2.908   6.729  0.3107 -1.5125 -1.0202
  131OSM    C3F14123   4.360   2.802   6.577 -0.2423 -0.6179 -0.0689
  131OSM    H3F14124   4.439   2.736   6.535 -1.2811 -1.1062 -1.3021
  131OSM    H3G14125   4.296   2.825   6.490  0.2300  2.2742  0.2288
  131OSM    C4F14126   4.281   2.710   6.678  0.1550 -0.5910  0.0147
  131OSM    H4F14127   4.208   2.768   6.739  0.3026 -1.1059  0.6942
  131OSM    H4G14128   4.359   2.676   6.750  0.0318  0.7866  0.8485
  131OSM    C5F14129   4.210   2.592   6.613 -0.1009 -0.3234  0.3001
  131OSM    H5F14130   4.282   2.534   6.552 -0.6593  0.3664 -1.0460
  131OSM    H5G14131   4.126   2.628   6.551 -0.4906  0.4260  1.2327
  131OSM    C6F14132   4.142   2.505   6.722 -0.3000  0.3302  0.3737
  131OSM    H6F14133   4.211   2.461   6.797 -0.8455  1.7606  1.7896
  131OSM    H6G14134   4.111   2.417   6.662  1.4316 -0.5384  0.6935
  131OSM    C7F14135   4.022   2.576   6.791 -0.5583 -0.2239 -0.3321
  131OSM    H7F14136   3.973   2.621   6.702  0.0342  3.1839  0.9009
  131OSM    H7G14137   4.062   2.653   6.860 -0.2345 -1.9834  1.5596
  131OSM    C8F14138   3.936   2.484   6.876 -0.4659 -0.4713 -0.0367
  131OSM    H8F14139   4.003   2.428   6.944 -1.9747  0.1680  2.0720
  131OSM    H8G14140   3.899   2.406   6.805 -1.8712  1.8103 -1.9767
  131OSM    C9F14141   3.826   2.555   6.951  0.7321  0.0990 -0.3032
  131OSM    H9F14142   3.733   2.557   6.892  0.0158  0.5994  0.8073
  131OSM   C10F14143   3.828   2.604   7.077  0.3070 -0.8378 -1.0809
  131OSM   H10F14144   3.743   2.658   7.121  1.9980  1.0103  0.0855
  131OSM   C11F14145   3.951   2.601   7.169  0.1936  0.1118  0.4942
  131OSM   H11F14146   4.032   2.638   7.104  0.2693 -0.6500  0.1401
  131OSM   H11G14147   3.976   2.505   7.219  1.0960 -0.0412 -0.2307
  131OSM   C12F14148   3.919   2.690   7.292  0.0595 -0.4166 -0.4681
  131OSM   H12F14149   3.835   2.648   7.351  1.1414  1.0305  2.2892
  131OSM   H12G14150   3.889   2.790   7.254 -0.2692 -0.0704  0.6452
  131OSM   C13F14151   4.033   2.712   7.391 -0.0519 -1.1383  0.7166
  131OSM   H13F14152   3.986   2.777   7.468 -0.4827 -1.4252  0.6966
  131OSM   H13G14153   4.112   2.774   7.344 -0.9113 -0.0759  0.6314
  131OSM   C14F14154   4.102   2.589   7.448  0.3544 -0.0052  0.3879
  131OSM   H14F14155   4.158   2.542   7.365 -1.3010  0.2977 -0.9776
  131OSM   H14G14156   4.028   2.513   7.480 -0.8634  0.7077 -0.6140
  131OSM   C15F14157   4.194   2.625   7.567 -0.4733  0.5355 -0.3146
  131OSM   H15F14158   4.242   2.530   7.601 -3.0675 -1.2401 -1.3129
  131OSM   H15G14159   4.126   2.654   7.650 -1.9077 -4.2491  0.5047
  131OSM   C16F14160   4.303   2.721   7.532 -0.4078  0.2218  0.4105
  131OSM   H16F14161   4.269   2.817   7.489 -0.3594 -1.2233 -3.1637
  131OSM   H16G14162   4.369   2.681   7.452  0.9288  0.8337  1.1686
  131OSM   C17F14163   4.397   2.730   7.656  0.2656 -0.6721  0.4461
  131OSM   H17F14164   4.443   2.631   7.677 -0.2799 -0.8753  0.6900
  131OSM   H17G14165   4.339   2.757   7.746 -0.5770 -2.9941  0.6708
  131OSM   C18F14166   4.509   2.836   7.632  0.8774  0.2633 -0.0837
  131OSM   H18F14167   4.580   2.832   7.718  0.6870  1.0800  0.1214
  131OSM   H18G14168   4.467   2.937   7.610 -1.9656 -0.4704  1.4502
  131OSM   H18H14169   4.565   2.812   7.539 -0.2838  1.5711 -1.1738
  132OSM      N14170   5.260   1.306   5.887 -0.0162  0.1855 -0.0073
  132OSM    C1514171   5.148   1.377   5.947  0.3583 -0.4054  0.0390
  132OSM   H15A14172   5.153   1.481   5.918 -1.9812 -0.5851 -1.2765
  132OSM   H15B14173   5.147   1.370   6.055  0.0661 -0.8731  0.0060
  132OSM   H15C14174   5.048   1.349   5.919  0.1661 -2.3817  2.4351
  132OSM    C1414175   5.235   1.294   5.743  0.2493 -0.7810  0.1778
  132OSM   H14A14176   5.321   1.247   5.697  1.6247  0.4425  1.4162
  132OSM   H14B14177   5.230   1.388   5.690  1.1746  0.2004  1.7700
  132OSM   H14C14178   5.153   1.230   5.713 -0.8088  0.1457  0.9938
  132OSM    C1314179   5.384   1.369   5.933  0.5401  0.1531  0.6907
  132OSM   H13A14180   5.377   1.377   6.040 -1.8635 -0.6367  0.6325
  132OSM   H13B14181   5.392   1.467   5.887  2.9656 -0.8838 -1.3566
  132OSM   H13C14182   5.471   1.312   5.902  2.9572  3.5051  0.7173
  132OSM    C1214183   5.239   1.164   5.938 -0.5123 -0.2441  0.0684
  132OSM   H12A14184   5.304   1.102   5.877  0.5363  0.7168  0.1600
  132OSM   H12B14185   5.139   1.145   5.903 -0.1415  0.2040 -1.2917
  132OSM    C1114186   5.269   1.137   6.081  0.5296  0.1273 -0.5707
  132OSM   H11A14187   5.373   1.172   6.098 -0.4337  2.3793  1.3018
  132OSM   H11B14188   5.261   1.030   6.107 -1.4718  0.6904  1.3845
  132OSM      P14189   5.048   1.163   6.209 -0.2651 -0.0197 -0.4019
  132OSM    O1314190   4.976   1.282   6.263 -0.0843  0.5693  0.8294
  132OSM    O1414191   4.974   1.097   6.099 -0.5555 -0.0620 -0.2637
  132OSM    O1114192   5.079   1.072   6.329 -0.1288  0.3799  0.0644
  132OSM    O1214193   5.194   1.218   6.174  0.3671  0.2679  0.4813
  132OSM    C1S14194   5.150   1.119   6.447 -0.0039 -0.4739  0.0655
  132OSM    H1S14195   5.131   1.226   6.474  0.7324 -0.6429  1.3315
  132OSM    H1T14196   5.258   1.099   6.427 -0.4613 -1.8761 -1.2048
  132OSM     NF14197   5.167   1.091   6.683 -0.6660 -0.2996 -0.4152
  132OSM    HNF14198   5.265   1.084   6.698 -0.8911 -0.7675  1.0465
  132OSM    C2S14199   5.120   1.024   6.564 -0.1136 -1.0357  0.1120
  132OSM    H2S14200   5.010   1.008   6.563 -0.4823  0.2402  3.8723
  132OSM    C3S14201   5.172   0.884   6.542 -0.4286  0.4704  0.4112
  132OSM    H3S14202   5.281   0.893   6.529 -0.6941  2.6882 -0.7875
  132OSM     O314203   5.131   0.831   6.419  0.2623  0.5884 -0.4043
  132OSM    HO314204   5.114   0.904   6.358 -0.0006 -0.1361 -1.2265
  132OSM    C4S14205   5.146   0.793   6.653 -0.0931 -0.5521 -0.6427
  132OSM    H4S14206   5.205   0.807   6.745 -2.8536  1.2374  0.9847
  132OSM    C5S14207   5.042   0.702   6.659 -0.3227  0.1454  0.8130
  132OSM    H5S14208   4.969   0.696   6.577 -0.0007 -2.0817  0.6244
  132OSM    C6S14209   5.021   0.605   6.766 -0.3535  0.4190  0.1931
  132OSM    H6S14210   5.043   0.499   6.741 -0.9015  0.4359 -0.3782
  132OSM    H6T14211   4.922   0.600   6.816  0.4081 -0.3879  1.7198
  132OSM    C7S14212   5.098   0.622   6.898 -0.4865  0.1728  0.4011
  132OSM    H7S14213   5.072   0.726   6.928 -0.9973  0.0390  0.4273
  132OSM    H7T14214   5.208   0.616   6.887 -0.6159  0.4948 -1.5165
  132OSM    C8S14215   5.056   0.524   7.006 -0.1052  0.9624 -0.7677
  132OSM    H8S14216   5.069   0.418   6.977  1.9035  0.8951  0.1861
  132OSM    H8T14217   4.951   0.535   7.041 -0.6233 -0.1766 -1.8804
  132OSM    C9S14218   5.139   0.537   7.135 -0.1506 -0.1905  0.3047
  132OSM    H9S14219   5.139   0.643   7.170  0.0120  0.9795 -2.8339
  132OSM    H9T14220   5.245   0.517   7.111  0.4242  2.8980 -0.1422
  132OSM   C10S14221   5.099   0.436   7.241  0.2794  0.1745 -0.5074
  132OSM   H10S14222   5.120   0.338   7.193  2.2373  0.5786 -0.5644
  132OSM   H10T14223   4.989   0.440   7.254  0.3125  1.6385 -0.5688
  132OSM   C11S14224   5.171   0.447   7.372 -0.1435 -0.1074 -0.2547
  132OSM   H11S14225   5.141   0.547   7.409  2.3001  0.3789  0.6338
  132OSM   H11T14226   5.281   0.462   7.363 -0.3043  0.2166 -2.2075
  132OSM   C12S14227   5.125   0.344   7.478  0.2575 -0.0596  0.6998
  132OSM   H12S14228   5.184   0.252   7.463 -0.5800 -0.4971  0.0363
  132OSM   H12T14229   5.025   0.305   7.449 -0.6367  3.4186 -1.4741
  132OSM   C13S14230   5.134   0.389   7.623  1.1372 -0.3685 -0.3769
  132OSM   H13S14231   5.100   0.302   7.682  0.5791  0.1075  0.0230
  132OSM   H13T14232   5.060   0.471   7.640 -0.7882 -2.0448 -0.3442
  132OSM   C14S14233   5.275   0.435   7.658 -0.2909  0.2419 -0.1238
  132OSM   H14S14234   5.305   0.521   7.594  0.1747 -0.1336 -0.4191
  132OSM   H14T14235   5.347   0.353   7.637 -0.4121 -0.2324  1.2264
  132OSM   C15S14236   5.288   0.478   7.803 -0.4599 -0.2688 -0.5484
  132OSM   H15S14237   5.250   0.400   7.873  1.7102 -0.7296  0.1829
  132OSM   H15T14238   5.220   0.563   7.829 -2.4780 -2.4837  2.0972
  132OSM   C16S14239   5.439   0.496   7.838 -0.2565  0.4342  0.6551
  132OSM   H16S14240   5.471   0.591   7.789 -1.2144 -0.2989 -1.5529
  132OSM   H16T14241   5.510   0.423   7.794 -2.0432 -0.6657 -0.5528
  132OSM   C17S14242   5.472   0.502   7.985  0.2551  1.0289 -0.4684
  132OSM   H17S14243   5.404   0.564   8.047 -0.9124 -0.4356 -0.2215
  132OSM   H17T14244   5.572   0.550   7.990  0.2070  1.7132 -3.9042
  132OSM   C18S14245   5.486   0.360   8.055  0.0425 -0.1768 -0.4247
  132OSM   H18S14246   5.443   0.282   7.988 -0.2591 -1.2490  0.9761
  132OSM   H18T14247   5.429   0.358   8.150 -0.0658  4.2227 -0.2122
  132OSM   H18U14248   5.594   0.339   8.071  0.5104  2.0400 -0.3674
  132OSM    C1F14249   5.093   1.174   6.759  0.1943 -0.8264 -0.0914
  132OSM     OF14250   4.974   1.190   6.728  0.0221 -0.0606  0.4174
  132OSM    C2F14251   5.165   1.256   6.861  0.0857  0.7459  0.1034
  132OSM    H2F14252   5.227   1.336   6.815  2.7346 -0.6962  0.8940
  132OSM    H2G14253   5.246   1.190   6.900 -1.4492 -2.2163 -1.4147
  132OSM    C3F14254   5.084   1.300   6.981  0.3960 -0.6946  0.5621
  132OSM    H3F14255   5.023   1.386   6.948  0.7690 -1.3183 -2.0393
  132OSM    H3G14256   5.161   1.352   7.042  0.6531  1.3544 -1.3587
  132OSM    C4F14257   4.998   1.186   7.036 -0.4066 -1.0958  0.6107
  132OSM    H4F14258   4.919   1.158   6.963  0.3427  1.6067 -1.3659
  132OSM    H4G14259   4.950   1.215   7.133 -2.7178 -0.0512 -0.7459
  132OSM    C5F14260   5.078   1.065   7.071  0.8998  0.0856 -0.5215
  132OSM    H5F14261   5.170   1.094   7.126  0.4286  0.0101  0.3365
  132OSM    H5G14262   5.111   1.012   6.979 -0.6833  0.8560 -1.5861
  132OSM    C6F14263   5.002   0.962   7.168  0.4003 -0.1695  0.2473
  132OSM    H6F14264   5.047   0.861   7.173 -0.0290 -0.3642  0.2377
  132OSM    H6G14265   4.893   0.952   7.149  0.3302  1.0982 -0.1028
  132OSM    C7F14266   5.013   0.996   7.316 -0.1501  0.1469  0.2019
  132OSM    H7F14267   5.002   1.106   7.327  2.1157  0.3897  0.6483
  132OSM    H7G14268   5.117   0.975   7.348 -0.6811 -3.0931  0.0572
  132OSM    C8F14269   4.910   0.936   7.402  0.6671  0.5308  0.3499
  132OSM    H8F14270   4.810   0.955   7.358 -0.4511 -0.1617  2.4568
  132OSM    H8G14271   4.899   0.999   7.492 -0.1150  0.2846  0.4373
  132OSM    C9F14272   4.910   0.793   7.436 -0.8839 -0.1697  0.0047
  132OSM    H9F14273   4.929   0.725   7.351  1.6079  0.3990  0.0337
  132OSM   C10F14274   4.911   0.741   7.560 -0.1801 -0.4134  0.4323
  132OSM   H10F14275   4.905   0.632   7.569 -0.6301 -0.4736 -0.4844
  132OSM   C11F14276   4.905   0.807   7.697 -0.9963 -0.8596 -0.0122
  132OSM   H11F14277   4.945   0.911   7.695 -1.0294 -0.8458  0.0361
  132OSM   H11G14278   4.975   0.761   7.770 -1.1079  0.1260  0.7469
  132OSM   C12F14279   4.762   0.812   7.759  0.0315 -0.0412  0.2602
  132OSM   H12F14280   4.726   0.708   7.773  0.7330 -0.3961 -0.5096
  132OSM   H12G14281   4.690   0.862   7.691  0.6494 -0.9524 -1.0941
  132OSM   C13F14282   4.749   0.883   7.890 -1.1031  0.4013  0.2375
  132OSM   H13F14283   4.813   0.973   7.898 -1.2680  0.5476 -0.1058
  132OSM   H13G14284   4.796   0.816   7.966 -0.1980 -0.8310 -1.3558
  132OSM   C14F14285   4.600   0.889   7.939 -0.2033  0.0436  0.2000
  132OSM   H14F14286   4.572   0.782   7.947  4.4597 -1.5447 -1.3274
  132OSM   H14G14287   4.544   0.920   7.848  1.3705  1.6246 -0.2946
  132OSM   C15F14288   4.578   0.967   8.067 -0.8242 -0.2540  1.1241
  132OSM   H15F14289   4.591   1.075   8.044 -0.8038 -0.0287  2.1679
  132OSM   H15G14290   4.659   0.950   8.140 -0.9994  1.1090  1.6604
  132OSM   C16F14291   4.442   0.935   8.132  0.3596  0.6054 -0.5525
  132OSM   H16F14292   4.442   0.825   8.149  2.8078  0.7384  0.7444
  132OSM   H16G14293   4.347   0.952   8.077  0.0821  0.0621 -0.2455
  132OSM   C17F14294   4.424   0.991   8.272  0.6818  0.0110 -0.1166
  132OSM   H17F14295   4.416   1.102   8.272 -1.3486 -0.0621  1.6755
  132OSM   H17G14296   4.501   0.969   8.349 -0.4465 -0.5269  0.8920
  132OSM   C18F14297   4.291   0.949   8.349  0.7474  0.0858 -0.0218
  132OSM   H18F14298   4.277   1.027   8.427  1.0987 -0.2643  0.3983
  132OSM   H18G14299   4.296   0.845   8.388  1.3608 -0.7132 -2.1254
  132OSM   H18H14300   4.206   0.959   8.278  0.7367  3.2410  0.2693
  133SAPE     N14301   5.318   5.670  10.526  0.2258  0.2415 -0.0323
  133SAPE   HN114302   5.366   5.578  10.516  0.1988  0.3735 -1.6455
  133SAPE   HN214303   5.356   5.731  10.601 -2.3939  0.7781  0.9661
  133SAPE   HN314304   5.216   5.659  10.544 -0.1637 -1.6810 -2.6913
  133SAPE   C1214305   5.329   5.730  10.395  0.3146 -0.4288  0.0941
  133SAPE  H12A14306   5.289   5.834  10.393  0.6682 -0.1613  2.7184
  133SAPE  H12B14307   5.269   5.675  10.320 -0.3520 -1.3792  1.2955
  133SAPE   C1114308   5.479   5.733  10.351  0.1575 -0.7992 -0.6666
  133SAPE  H11A14309   5.485   5.786  10.254 -0.0863 -0.0894 -0.3035
  133SAPE  H11B14310   5.505   5.627  10.333  0.0840 -0.3991 -3.7114
  133SAPE     P14311   5.684   5.887  10.421  0.3610 -0.3163  0.1984
  133SAPE   O1314312   5.636   6.030  10.445  0.5956 -0.7446 -0.1794
  133SAPE   O1414313   5.799   5.841  10.497 -0.5506 -0.3158 -0.2884
  133SAPE   O1214314   5.565   5.789  10.455  0.2668 -0.2366  0.0168
  133SAPE   O1114315   5.717   5.875  10.268 -0.0908 -0.0200 -0.3410
  133SAPE    C114316   5.789   5.980  10.202 -0.7273 -0.1481  0.2517
  133SAPE    HA14317   5.710   6.054  10.177 -0.0065  0.1886 -1.1530
  133SAPE    HB14318   5.864   6.029  10.268 -2.2122  0.8392  1.2680
  133SAPE    C214319   5.872   5.921  10.082  0.3847  0.0300 -0.4636
  133SAPE    HS14320   5.908   6.006  10.020  0.1944 -1.2625 -2.4076
  133SAPE   O2114321   5.797   5.832  10.005 -0.0082 -0.0693  0.2523
  133SAPE   C2114322   5.719   5.885   9.913 -0.4403  0.2710 -0.4244
  133SAPE   O2214323   5.719   5.997   9.874  0.2123 -0.0418  0.0396
  133SAPE   C2214324   5.634   5.770   9.855  0.3418  0.4694  0.4916
  133SAPE   H2R14325   5.604   5.698   9.935 -2.7269 -0.5430 -1.3834
  133SAPE   H2S14326   5.546   5.822   9.812  1.0585  0.3845 -1.1289
  133SAPE    C314327   5.989   5.836  10.137 -0.1659  0.2987 -0.4249
  133SAPE    HX14328   5.938   5.762  10.202 -0.8250 -0.1357 -1.4068
  133SAPE    HY14329   6.044   5.906  10.203 -0.7303 -0.6551  1.1244
  133SAPE   O3114330   6.073   5.772  10.037 -0.7590 -0.3311  0.1696
  133SAPE   C3114331   6.043   5.647  10.003 -0.8645 -0.7843  0.5490
  133SAPE   O3214332   5.957   5.584  10.062 -0.2456 -0.1338  0.2630
  133SAPE   C3214333   6.113   5.609   9.867 -0.2901  0.3769  0.2131
  133SAPE   H2X14334   6.220   5.601   9.893 -0.5608 -0.7430  1.0709
  133SAPE   H2Y14335   6.097   5.686   9.788  0.9848  1.7678  1.2489
  133SAPE   C2314336   5.704   5.708   9.734  0.0481 -0.2834  0.2929
  133SAPE   H3R14337   5.690   5.598   9.728  2.8201 -0.6899 -0.1457
  133SAPE   H3S14338   5.813   5.728   9.740  0.0695 -0.7899  2.7345
  133SAPE   C2414339   5.649   5.766   9.603 -0.5081  0.2941  0.3855
  133SAPE   H4R14340   5.541   5.745   9.584 -1.0441  3.2823 -0.3662
  133SAPE   H4S14341   5.699   5.702   9.528  0.4718 -0.0734  1.3204
  133SAPE   C2514342   5.670   5.913   9.568  0.1747  0.0340 -0.2086
  133SAPE   H5R14343   5.650   5.990   9.644  1.2208  1.0010 -0.8770
  133SAPE   C2614344   5.713   5.948   9.446  0.0273 -0.5547 -0.1035
  133SAPE   H6R14345   5.725   6.055   9.423 -2.5839 -0.2196 -0.2789
  133SAPE   C2714346   5.744   5.860   9.329  0.6842  0.0232 -1.0957
  133SAPE   H7R14347   5.657   5.793   9.313  1.5045 -0.9467 -1.6513
  133SAPE   H7S14348   5.824   5.793   9.368 -0.0488  0.9503  2.2922
  133SAPE   C2814349   5.794   5.931   9.199 -0.7500  0.3010  0.2128
  133SAPE   H8R14350   5.858   6.015   9.231  0.3975 -0.8535  1.0562
  133SAPE   C2914351   5.764   5.911   9.073  0.0621 -0.1012  1.2091
  133SAPE   H9R14352   5.820   5.969   8.997 -0.2714  0.2249  1.2104
  133SAPE  C21014353   5.664   5.806   9.021 -0.5087  0.0188  0.7566
  133SAPE  H10R14354   5.607   5.758   9.104 -0.3648 -0.2759  0.6863
  133SAPE  H10S14355   5.722   5.722   8.978 -0.7074  0.1848  0.1531
  133SAPE  C21114356   5.553   5.853   8.928  0.0439 -0.4743  0.4510
  133SAPE  H11R14357   5.506   5.949   8.953 -2.9376 -1.5742 -0.4373
  133SAPE  C21214358   5.496   5.786   8.823  0.4169 -0.3206 -0.6051
  133SAPE  H12R14359   5.414   5.833   8.766  2.3024  1.3400 -2.0524
  133SAPE  C21314360   5.542   5.647   8.780  0.3260 -0.1118  0.4021
  133SAPE  H13R14361   5.544   5.587   8.874  0.0075 -0.5246  0.1489
  133SAPE  H13S14362   5.644   5.637   8.736  0.7000  1.6224  0.8134
  133SAPE  C21414363   5.434   5.580   8.684  0.5881 -0.2512 -0.0596
  133SAPE  H14R14364   5.457   5.583   8.576  1.7744 -2.2042  0.0869
  133SAPE  C21514365   5.316   5.514   8.720 -0.3780 -0.5728 -0.5921
  133SAPE  H15R14366   5.248   5.484   8.639  1.8911 -0.8214 -2.5324
  133SAPE  C21614367   5.258   5.482   8.855 -0.7272  0.0668 -0.2121
  133SAPE  H16R14368   5.344   5.447   8.916  0.9151  2.3696 -1.0389
  133SAPE  H16S14369   5.177   5.407   8.846 -0.1340 -0.5191 -0.8618
  133SAPE  C21714370   5.188   5.607   8.912  0.5265 -0.0124  0.5331
  133SAPE  H17R14371   5.094   5.633   8.859  1.3674  0.1955 -0.9030
  133SAPE  H17S14372   5.255   5.696   8.905 -0.8076  0.8938 -4.0471
  133SAPE  C21814373   5.162   5.591   9.059 -0.6168 -0.4576 -0.2844
  133SAPE  H18R14374   5.257   5.563   9.110 -0.1512  1.9727  0.3060
  133SAPE  H18S14375   5.100   5.499   9.061  0.2224 -1.1704 -2.8167
  133SAPE  C21914376   5.091   5.713   9.125  0.1500  0.1808  0.1922
  133SAPE  H19R14377   4.993   5.729   9.076 -1.1826  0.8144  2.8867
  133SAPE  H19S14378   5.145   5.810   9.123  0.1728  0.1644  0.0109
  133SAPE  C22014379   5.068   5.669   9.274 -0.4111 -0.2115 -0.1658
  133SAPE  H20R14380   5.003   5.738   9.333 -2.5965 -2.5438  0.3229
  133SAPE  H20S14381   5.171   5.660   9.313 -0.8780  0.0686  1.1856
  133SAPE  H20T14382   5.018   5.570   9.277  1.6862 -1.3319 -0.6338
  133SAPE   C3314383   6.057   5.469   9.809  0.5890  0.1120  0.6157
  133SAPE   H3X14384   5.948   5.481   9.796  0.9908  1.7938 -1.9837
  133SAPE   H3Y14385   6.068   5.383   9.879 -0.2986 -2.0801 -1.7813
  133SAPE   C3414386   6.115   5.432   9.670  1.4132 -0.0674 -0.7674
  133SAPE   H4X14387   6.097   5.324   9.651 -0.6593  0.5311 -2.5309
  133SAPE   H4Y14388   6.223   5.454   9.682  1.2926  0.5991 -0.8662
  133SAPE   C3514389   6.065   5.510   9.546 -0.3772  0.2905 -0.2786
  133SAPE   H5X14390   6.081   5.616   9.575 -0.8700 -0.1320  1.6797
  133SAPE   H5Y14391   5.955   5.496   9.538 -0.1803 -0.4280 -2.6393
  133SAPE   C3614392   6.136   5.464   9.423  0.4467  0.7693  0.7935
  133SAPE   H6X14393   6.126   5.353   9.418 -0.6069  0.8906 -0.2208
  133SAPE   H6Y14394   6.245   5.479   9.437  0.3341  0.5346  2.1088
  133SAPE   C3714395   6.086   5.538   9.288 -1.1520  0.2125  0.2113
  133SAPE   H7X14396   6.084   5.649   9.289  1.8688  0.3386  0.2212
  133SAPE   H7Y14397   5.982   5.504   9.267 -0.9047 -0.1633 -0.4475
  133SAPE   C3814398   6.181   5.505   9.171 -0.3465  1.0314 -0.4848
  133SAPE   H8X14399   6.193   5.395   9.165  2.7804  1.1720  0.9468
  133SAPE   H8Y14400   6.280   5.553   9.190 -1.4160  2.2856  2.7670
  133SAPE   C3914401   6.123   5.552   9.037 -0.1265 -0.8900 -0.2641
  133SAPE   H9X14402   6.070   5.647   9.057  1.3966  0.0081 -0.3659
  133SAPE   H9Y14403   6.045   5.481   9.002 -0.5701 -0.7031  0.3342
  133SAPE  C31014404   6.233   5.564   8.930 -0.1241 -0.5626  0.4362
  133SAPE  H10X14405   6.308   5.638   8.964 -0.3962 -0.2191  0.2935
  133SAPE  H10Y14406   6.181   5.594   8.836  3.5371 -0.0232 -1.5976
  133SAPE  C31114407   6.309   5.437   8.900  0.7888 -0.4011 -0.3238
  133SAPE  H11X14408   6.243   5.362   8.853  1.7353 -0.6244 -1.3224
  133SAPE  H11Y14409   6.346   5.382   8.989 -1.3810 -2.4578 -0.5904
  133SAPE  C31214410   6.420   5.461   8.805 -0.8892 -0.2878 -0.1370
  133SAPE  H12X14411   6.480   5.549   8.836 -1.5670  0.2779 -0.4176
  133SAPE  H12Y14412   6.384   5.486   8.703  0.3955  0.2550 -0.4865
  133SAPE  C31314413   6.510   5.340   8.798  0.2076  0.3365 -0.5417
  133SAPE  H13X14414   6.460   5.258   8.742 -3.4867  0.5981  2.0327
  133SAPE  H13Y14415   6.516   5.291   8.898 -1.9332 -0.1742 -0.6261
  133SAPE  C31414416   6.651   5.355   8.755  0.1420 -0.1434  0.5504
  133SAPE  H14X14417   6.646   5.403   8.654  0.4230  1.1936  1.1521
  133SAPE  H14Y14418   6.694   5.255   8.733 -0.9898 -0.0532 -2.6841
  133SAPE  C31514419   6.738   5.433   8.852 -0.4070  0.1573  0.5424
  133SAPE  H15X14420   6.684   5.396   8.942 -1.2215 -1.0568 -0.3971
  133SAPE  H15Y14421   6.731   5.541   8.829 -2.7277 -0.6186 -3.3087
  133SAPE  C31614422   6.879   5.386   8.852 -0.3697  0.3446  0.2239
  133SAPE  H16X14423   6.926   5.378   8.752  1.9875 -1.8835  1.3967
  133SAPE  H16Y14424   6.880   5.286   8.900 -1.3105  0.4953  0.5885
  133SAPE  C31714425   6.977   5.473   8.943  0.4823  1.0213 -0.1738
  133SAPE  H17X14426   6.972   5.582   8.924 -1.1601  0.7830 -1.3421
  133SAPE  H17Y14427   7.079   5.438   8.914  0.1182 -0.6962  0.5022
  133SAPE  C31814428   6.941   5.449   9.089 -0.0335  0.1414 -0.8993
  133SAPE  H18X14429   6.957   5.342   9.113  1.9804  1.2475  3.7278
  133SAPE  H18Y14430   6.839   5.483   9.116 -0.1916 -0.9909 -0.0258
  133SAPE  H18Z14431   7.003   5.516   9.151  0.4358 -1.2337  0.1601
  134SAPE     N14432   1.561   5.376  10.844 -0.0764  0.3181  0.4449
  134SAPE   HN114433   1.491   5.372  10.921  0.2769 -1.3746  0.7280
  134SAPE   HN214434   1.649   5.408  10.891  0.3491  0.7207 -0.6058
  134SAPE   HN314435   1.530   5.453  10.781 -0.1703 -1.4018 -1.7037
  134SAPE   C1214436   1.579   5.243  10.765  0.3806 -0.9220 -0.6998
  134SAPE  H12A14437   1.471   5.225  10.744  0.1761 -1.2431  0.5654
  134SAPE  H12B14438   1.619   5.168  10.836  0.3966 -0.7468 -0.5231
  134SAPE   C1114439   1.668   5.266  10.646  0.0156 -0.3659  0.5681
  134SAPE  H11A14440   1.687   5.166  10.603  0.1184  0.2518 -0.8989
  134SAPE  H11B14441   1.765   5.306  10.682 -0.6414  2.9035 -0.8788
  134SAPE     P14442   1.714   5.427  10.451  0.1745  0.1203  0.0939
  134SAPE   O1314443   1.640   5.527  10.372 -0.4769 -0.4856 -0.8985
  134SAPE   O1414444   1.842   5.468  10.521 -0.5326 -0.2233  0.2360
  134SAPE   O1214445   1.614   5.355  10.547  0.3985  0.2883 -0.0738
  134SAPE   O1114446   1.751   5.313  10.359  0.0620  0.3473 -0.1357
  134SAPE    C114447   1.674   5.208  10.299  0.3686  0.6433 -0.2116
  134SAPE    HA14448   1.716   5.110  10.330 -1.2660 -0.4319 -1.2429
  134SAPE    HB14449   1.569   5.220  10.335 -0.2213  1.9592 -2.2217
  134SAPE    C214450   1.674   5.212  10.141  0.7704  0.3222 -0.7024
  134SAPE    HS14451   1.628   5.120  10.100 -1.8330  0.3195  1.8997
  134SAPE   O2114452   1.798   5.239  10.085 -0.1658 -0.8170 -0.2748
  134SAPE   C2114453   1.873   5.134  10.052 -0.4652 -0.2541  0.5296
  134SAPE   O2214454   1.849   5.018  10.080 -0.1257  0.1867 -0.1028
  134SAPE   C2214455   2.005   5.186  10.010  0.2249  0.0428  0.4373
  134SAPE   H2R14456   1.992   5.293   9.982 -1.1547 -0.5516 -1.3908
  134SAPE   H2S14457   2.079   5.181  10.092  1.7283 -0.5977 -0.8878
  134SAPE    C314458   1.584   5.335  10.110  0.0005 -0.1055  0.5007
  134SAPE    HX14459   1.621   5.434  10.145 -0.2161  0.4332 -0.7699
  134SAPE    HY14460   1.486   5.317  10.159 -1.9150  1.5134 -2.4394
  134SAPE   O3114461   1.553   5.342   9.969  0.4938 -0.4283  0.0345
  134SAPE   C3114462   1.634   5.417   9.899 -0.4747  0.3785 -0.6547
  134SAPE   O3214463   1.720   5.487   9.939 -0.6918  0.4489  0.5176
  134SAPE   C3214464   1.614   5.383   9.751 -0.0107 -0.1148 -0.0982
  134SAPE   H2X14465   1.591   5.485   9.713  1.5535  0.3069  0.0069
  134SAPE   H2Y14466   1.517   5.329   9.741  0.7144 -2.2615  2.9847
  134SAPE   C2314467   2.064   5.111   9.882 -0.0150 -0.0519  0.0995
  134SAPE   H3R14468   1.986   5.084   9.808 -1.1956  0.1281  1.2272
  134SAPE   H3S14469   2.092   5.012   9.925 -0.3827 -0.4316 -0.5270
  134SAPE   C2414470   2.187   5.182   9.827  0.3386  0.8795  0.5305
  134SAPE   H4R14471   2.218   5.105   9.753 -0.0228  1.0708  0.1741
  134SAPE   H4S14472   2.264   5.196   9.906  2.4843  1.6924 -1.5932
  134SAPE   C2514473   2.155   5.310   9.749 -0.4572  0.3593 -0.3226
  134SAPE   H5R14474   2.084   5.378   9.798  0.0092  0.0223  0.8610
  134SAPE   C2614475   2.191   5.333   9.623  0.5990 -0.3610 -0.0620
  134SAPE   H6R14476   2.165   5.432   9.581 -1.0142  0.1862  2.0236
  134SAPE   C2714477   2.266   5.235   9.536  0.3000  0.5678 -0.7541
  134SAPE   H7R14478   2.204   5.145   9.520  1.2572 -0.0646 -0.9954
  134SAPE   H7S14479   2.350   5.190   9.592 -0.0383 -0.7959 -1.2984
  134SAPE   C2814480   2.312   5.285   9.402  0.6517 -0.2993  0.3259
  134SAPE   H8R14481   2.421   5.302   9.396  0.7694 -1.1248 -0.0274
  134SAPE   C2914482   2.231   5.308   9.293 -0.7259 -0.8431 -0.4674
  134SAPE   H9R14483   2.278   5.326   9.195 -2.5639  0.6791 -1.1326
  134SAPE  C21014484   2.084   5.295   9.277  0.0839  0.2903  0.3960
  134SAPE  H10R14485   2.035   5.292   9.377  1.1190  1.4227  0.9579
  134SAPE  H10S14486   2.070   5.197   9.227 -2.7771  0.7285  0.1210
  134SAPE  C21114487   2.011   5.397   9.196  0.7140  0.1558 -0.1009
  134SAPE  H11R14488   1.971   5.480   9.256  1.0466  0.1824  0.0869
  134SAPE  C21214489   1.999   5.399   9.059  0.2941  0.3258 -0.7260
  134SAPE  H12R14490   1.964   5.494   9.016 -0.4034 -0.5030 -2.0471
  134SAPE  C21314491   2.066   5.298   8.968 -0.2771 -0.2309  0.8131
  134SAPE  H13R14492   1.997   5.212   8.951 -0.6059  0.2847 -0.5344
  134SAPE  H13S14493   2.154   5.248   9.014 -0.4023 -2.2872 -1.0019
  134SAPE  C21414494   2.112   5.358   8.836 -0.1111 -0.0783 -0.5696
  134SAPE  H14R14495   2.221   5.366   8.824  0.3298 -0.6092  2.2434
  134SAPE  C21514496   2.033   5.377   8.727  0.7455 -0.0825  0.3880
  134SAPE  H15R14497   2.090   5.416   8.641  2.1303 -4.3318 -0.8604
  134SAPE  C21614498   1.885   5.348   8.706  0.3765 -0.6716  0.5619
  134SAPE  H16R14499   1.832   5.445   8.698  0.7551 -0.5113 -0.0195
  134SAPE  H16S14500   1.830   5.297   8.789 -2.6619  1.0067 -0.2581
  134SAPE  C21714501   1.857   5.266   8.570  0.1669  0.2719  0.5988
  134SAPE  H17R14502   1.747   5.273   8.556  0.1316  0.3840  0.9201
  134SAPE  H17S14503   1.888   5.160   8.584  1.0514  0.1943 -1.5908
  134SAPE  C21814504   1.934   5.331   8.455 -0.1855 -0.0539  0.2877
  134SAPE  H18R14505   2.041   5.305   8.470 -0.0777 -1.2316 -2.0552
  134SAPE  H18S14506   1.934   5.442   8.466 -2.4673  0.2862 -2.2064
  134SAPE  C21914507   1.877   5.301   8.318  0.0452  0.7507  0.2314
  134SAPE  H19R14508   1.782   5.352   8.292 -2.2601 -3.5560 -0.8099
  134SAPE  H19S14509   1.850   5.193   8.310 -0.2255  0.9261 -1.7650
  134SAPE  C22014510   1.969   5.326   8.199 -0.3514 -0.5040  0.2783
  134SAPE  H20R14511   2.028   5.417   8.218 -1.8618  0.5515  0.0914
  134SAPE  H20S14512   1.913   5.331   8.103  1.2819 -0.2404 -0.6974
  134SAPE  H20T14513   2.043   5.244   8.189  0.5295  0.3294 -0.1431
  134SAPE   C3314514   1.724   5.294   9.690 -0.5274 -0.0440  0.1732
  134SAPE   H3X14515   1.742   5.200   9.747 -1.1499 -2.0632 -2.7184
  134SAPE   H3Y14516   1.820   5.348   9.677 -0.1922  0.1357  2.8613
  134SAPE   C3414517   1.703   5.226   9.550  0.2434 -0.9978  0.1975
  134SAPE   H4X14518   1.621   5.151   9.550 -3.2568  2.5114  1.1137
  134SAPE   H4Y14519   1.799   5.173   9.534  1.4318 -0.2886  3.9969
  134SAPE   C3514520   1.683   5.334   9.435 -0.5875 -0.3009 -0.0423
  134SAPE   H5X14521   1.773   5.397   9.419 -0.5192 -0.7396 -1.5348
  134SAPE   H5Y14522   1.597   5.396   9.468 -0.2597  0.8309 -1.2295
  134SAPE   C3614523   1.653   5.263   9.303 -0.0995 -0.9074  0.8095
  134SAPE   H6X14524   1.562   5.204   9.326 -2.4679  3.1815  2.9636
  134SAPE   H6Y14525   1.741   5.199   9.279  1.7774  2.0380 -0.6880
  134SAPE   C3714526   1.632   5.365   9.185 -0.1377  0.4038  0.5869
  134SAPE   H7X14527   1.727   5.374   9.128 -0.2250 -1.1536  0.1367
  134SAPE   H7Y14528   1.620   5.467   9.227 -0.5702  0.0349  1.3848
  134SAPE   C3814529   1.524   5.332   9.085 -0.1631  0.7090  0.6514
  134SAPE   H8X14530   1.419   5.345   9.118 -1.0227 -2.4805 -0.4043
  134SAPE   H8Y14531   1.524   5.225   9.052  1.5404  1.4013 -1.8774
  134SAPE   C3914532   1.538   5.409   8.948  0.7435 -0.5005 -0.2287
  134SAPE   H9X14533   1.622   5.361   8.894  1.3635  1.7857 -1.4159
  134SAPE   H9Y14534   1.567   5.516   8.942 -0.6621 -0.1765 -2.4398
  134SAPE  C31014535   1.410   5.383   8.866 -0.2569  0.3082 -0.1196
  134SAPE  H10X14536   1.319   5.428   8.911 -1.2550  0.0506 -1.8035
  134SAPE  H10Y14537   1.392   5.273   8.871 -0.5072  0.4016  1.8031
  134SAPE  C31114538   1.411   5.428   8.718 -0.2346  0.0843  0.1636
  134SAPE  H11X14539   1.468   5.524   8.714 -2.3840  1.5436  1.8657
  134SAPE  H11Y14540   1.306   5.456   8.697  0.1179  0.8707 -0.6191
  134SAPE  C31214541   1.470   5.334   8.620  0.1171  0.2131  0.0860
  134SAPE  H12X14542   1.415   5.237   8.622 -1.0883  0.8785  1.0402
  134SAPE  H12Y14543   1.575   5.313   8.650  0.1868  1.3774  0.7299
  134SAPE  C31314544   1.466   5.394   8.481 -0.4641  0.5272 -0.0753
  134SAPE  H13X14545   1.543   5.471   8.459  1.3908 -1.3568 -0.5358
  134SAPE  H13Y14546   1.366   5.437   8.460 -0.0125  1.4717 -0.3552
  134SAPE  C31414547   1.496   5.277   8.381  0.3013 -0.1703 -0.0696
  134SAPE  H14X14548   1.416   5.200   8.385  1.1828 -1.1803 -1.2211
  134SAPE  H14Y14549   1.592   5.240   8.422 -0.0486 -0.1558  0.7770
  134SAPE  C31514550   1.522   5.337   8.240 -0.1542  0.1701 -0.0588
  134SAPE  H15X14551   1.575   5.257   8.185  0.4464  1.4433 -1.4043
  134SAPE  H15Y14552   1.588   5.425   8.252 -0.6143  0.6219 -0.7555
  134SAPE  C31614553   1.393   5.372   8.157 -0.2809 -0.3238 -0.4726
  134SAPE  H16X14554   1.312   5.382   8.233  2.6904  1.9745  2.7487
  134SAPE  H16Y14555   1.379   5.286   8.089  1.1797 -0.0322 -1.1770
  134SAPE  C31714556   1.397   5.497   8.075  0.2323  0.0943 -0.4719
  134SAPE  H17X14557   1.465   5.482   7.989 -0.4113 -3.5854 -0.4821
  134SAPE  H17Y14558   1.412   5.592   8.132 -3.3870 -1.3942  3.5873
  134SAPE  C31814559   1.259   5.501   8.006 -0.7158  0.1217 -0.1461
  134SAPE  H18X14560   1.185   5.517   8.088  0.3853 -1.5144  1.2412
  134SAPE  H18Y14561   1.236   5.411   7.946  0.9304  0.3860 -1.2310
  134SAPE  H18Z14562   1.256   5.585   7.933 -2.4095  1.7680  1.6594
  135SAPE     N14563   5.796   3.668  10.522  0.2258  0.3670 -0.5871
  135SAPE   HN114564   5.762   3.579  10.565 -0.8547  0.5365 -1.0627
  135SAPE   HN214565   5.841   3.655  10.429  4.5847  0.0270  1.2895
  135SAPE   HN314566   5.847   3.728  10.589 -0.2937 -0.8683  0.9882
  135SAPE   C1214567   5.658   3.728  10.511 -0.5767 -0.4693 -0.3944
  135SAPE  H12A14568   5.621   3.720  10.615  0.1709 -1.2371 -0.1702
  135SAPE  H12B14569   5.600   3.663  10.443  0.4643 -1.2875 -0.5348
  135SAPE   C1114570   5.663   3.872  10.466  0.3472  0.5866 -0.3839
  135SAPE  H11A14571   5.562   3.918  10.476 -0.1454 -0.6811  0.6127
  135SAPE  H11B14572   5.685   3.866  10.357 -0.6786 -3.0163 -0.4908
  135SAPE     P14573   5.776   4.094  10.524 -0.0514 -0.3505 -0.0472
  135SAPE   O1314574   5.765   4.112  10.380 -0.0657 -0.0716 -0.5525
  135SAPE   O1414575   5.686   4.177  10.610 -0.2335  0.3534  0.6706
  135SAPE   O1214576   5.752   3.944  10.551 -0.1333 -0.1734 -0.4413
  135SAPE   O1114577   5.924   4.118  10.569 -0.0396 -0.4690  0.1779
  135SAPE    C114578   6.018   4.015  10.601 -0.8019  0.3072  0.3796
  135SAPE    HA14579   6.088   4.057  10.676 -1.1182  0.6822  0.4691
  135SAPE    HB14580   5.965   3.926  10.641  2.8801 -2.3176 -0.0115
  135SAPE    C214581   6.114   3.981  10.482  0.9607  0.9410  0.4446
  135SAPE    HS14582   6.048   3.914  10.422 -0.3351  1.1830  1.5582
  135SAPE   O2114583   6.220   3.902  10.528  0.2903  0.4022 -0.5565
  135SAPE   C2114584   6.204   3.786  10.584  0.1052  0.1337 -0.7944
  135SAPE   O2214585   6.100   3.720  10.590  0.2906 -0.0787 -1.2775
  135SAPE   C2214586   6.347   3.735  10.630  0.3330  0.0518  0.4111
  135SAPE   H2R14587   6.391   3.816  10.691 -1.1670  2.6406 -1.7439
  135SAPE   H2S14588   6.329   3.666  10.716 -0.4126  1.3913  1.3713
  135SAPE    C314589   6.162   4.103  10.409  0.4575  0.4761  0.8744
  135SAPE    HX14590   6.225   4.155  10.485  1.0184  0.2586  0.5695
  135SAPE    HY14591   6.075   4.165  10.379 -0.6137 -1.5345 -0.4126
  135SAPE   O3114592   6.240   4.070  10.298  0.0635 -0.0751 -0.0281
  135SAPE   C3114593   6.186   3.990  10.205  0.6268  0.5643 -0.1298
  135SAPE   O3214594   6.077   3.939  10.202  0.4715  0.2979 -0.1570
  135SAPE   C3214595   6.291   3.976  10.096 -0.3332 -0.0027 -0.9397
  135SAPE   H2X14596   6.337   3.882  10.134 -1.7422 -0.7228 -0.9613
  135SAPE   H2Y14597   6.370   4.054  10.101  0.8902 -1.2272 -0.0887
  135SAPE   C2314598   6.442   3.694  10.519 -0.3836 -0.1551 -0.0056
  135SAPE   H3R14599   6.546   3.680  10.555  0.1028  0.6203 -1.0625
  135SAPE   H3S14600   6.441   3.786  10.457  0.2500  0.3137  0.6598
  135SAPE   C2414601   6.402   3.582  10.420  0.2486 -0.1239 -0.1066
  135SAPE   H4R14602   6.373   3.488  10.473 -0.8750  0.7615  0.9098
  135SAPE   H4S14603   6.495   3.538  10.378 -1.9365 -3.9666 -1.4167
  135SAPE   C2514604   6.302   3.612  10.314  0.0348 -0.8609 -0.3987
  135SAPE   H5R14605   6.210   3.642  10.367  0.7678  1.3759 -0.2988
  135SAPE   C2614606   6.311   3.610  10.183  0.5148 -0.7687  0.3200
  135SAPE   H6R14607   6.221   3.642  10.129  1.4876 -0.6600 -1.2926
  135SAPE   C2714608   6.430   3.587  10.085 -0.7457  0.1077 -0.5377
  135SAPE   H7R14609   6.530   3.590  10.133 -0.6379 -0.8299 -0.6772
  135SAPE   H7S14610   6.438   3.678  10.022  0.7778  2.4901  2.7876
  135SAPE   C2814611   6.420   3.462  10.002  0.1451 -0.0963 -0.2310
  135SAPE   H8R14612   6.421   3.373  10.066  0.2129  0.2933  0.3126
  135SAPE   C2914613   6.419   3.444   9.868  0.1700 -0.0787 -0.2459
  135SAPE   H9R14614   6.388   3.344   9.833  0.8054  0.7524 -3.5561
  135SAPE  C21014615   6.421   3.547   9.751 -0.4413  0.6450  0.1968
  135SAPE  H10R14616   6.493   3.512   9.674  1.0548 -0.6303  2.0679
  135SAPE  H10S14617   6.470   3.636   9.796  1.2665 -0.4916  0.6997
  135SAPE  C21114618   6.284   3.586   9.702 -0.8085  0.3245 -1.2516
  135SAPE  H11R14619   6.205   3.602   9.777  0.1250 -2.5843  0.5242
  135SAPE  C21214620   6.245   3.585   9.577 -0.3359  0.4630 -0.3120
  135SAPE  H12R14621   6.140   3.612   9.558 -0.2361 -0.6061 -2.7287
  135SAPE  C21314622   6.328   3.548   9.452  0.0981 -0.1891  0.6538
  135SAPE  H13R14623   6.434   3.519   9.467  0.7482  1.2591 -0.7858
  135SAPE  H13S14624   6.331   3.631   9.379  1.2262 -0.2558  0.6083
  135SAPE  C21414625   6.266   3.425   9.395  0.0497 -0.8487 -0.0099
  135SAPE  H14R14626   6.265   3.335   9.457 -1.3592 -0.3938  0.6758
  135SAPE  C21514627   6.223   3.404   9.266  0.8190  0.2823  0.7676
  135SAPE  H15R14628   6.185   3.303   9.248  1.7229 -1.1762  5.4512
  135SAPE  C21614629   6.222   3.519   9.167  0.6114 -0.2750  0.2691
  135SAPE  H16R14630   6.326   3.555   9.151 -0.2157  1.1122 -2.5702
  135SAPE  H16S14631   6.165   3.602   9.213 -0.7197 -0.0976 -1.5531
  135SAPE  C21714632   6.153   3.488   9.032 -0.8523 -0.6709  0.2405
  135SAPE  H17R14633   6.164   3.575   8.963 -0.0613 -2.6429 -2.2708
  135SAPE  H17S14634   6.043   3.496   9.047 -1.3256 -1.3722 -2.3675
  135SAPE  C21814635   6.191   3.356   8.962 -0.5601 -0.4184 -0.2615
  135SAPE  H18R14636   6.174   3.262   9.020 -2.3325  0.1881  0.2552
  135SAPE  H18S14637   6.299   3.358   8.935 -0.1528 -0.0423  1.3240
  135SAPE  C21914638   6.118   3.342   8.827  0.3475  0.1789  0.1584
  135SAPE  H19R14639   6.008   3.361   8.825  0.1900 -0.3544  2.1473
  135SAPE  H19S14640   6.117   3.238   8.788 -3.7208 -0.5609  1.6482
  135SAPE  C22014641   6.166   3.441   8.713  0.2348  0.6798 -1.4002
  135SAPE  H20R14642   6.186   3.542   8.754  0.1775 -0.2536  1.0808
  135SAPE  H20S14643   6.102   3.452   8.623 -0.3279  0.7192 -1.0013
  135SAPE  H20T14644   6.268   3.418   8.676  1.2294  2.0316  0.3739
  135SAPE   C3314645   6.230   3.953   9.950 -0.2943  0.1427 -0.0298
  135SAPE   H3X14646   6.148   3.879   9.957  1.1087 -1.3263  2.0959
  135SAPE   H3Y14647   6.312   3.927   9.879  1.2403  1.2697  1.2352
  135SAPE   C3414648   6.170   4.087   9.900 -0.1928 -0.5494 -0.5153
  135SAPE   H4X14649   6.247   4.167   9.904 -1.2060  0.5803 -2.0598
  135SAPE   H4Y14650   6.094   4.121   9.974  1.0455  0.9008  0.1386
  135SAPE   C3514651   6.116   4.089   9.758 -0.4251 -0.0393  0.6378
  135SAPE   H5X14652   6.081   4.193   9.741  1.1165  0.1798 -1.5139
  135SAPE   H5Y14653   6.018   4.036   9.759 -0.7848  0.6051  0.2654
  135SAPE   C3614654   6.212   4.044   9.639  0.5154  0.0471  0.8304
  135SAPE   H6X14655   6.235   3.939   9.663  1.8353  0.1858  0.2502
  135SAPE   H6Y14656   6.308   4.098   9.648  1.1775 -1.1198  0.9463
  135SAPE   C3714657   6.157   4.064   9.500  0.0891  0.4014 -0.6871
  135SAPE   H7X14658   6.179   4.169   9.470 -0.4614  0.7419  0.0621
  135SAPE   H7Y14659   6.046   4.061   9.499  0.0778  0.3719 -2.6852
  135SAPE   C3814660   6.211   3.968   9.391 -0.3480  0.0316 -0.2584
  135SAPE   H8X14661   6.212   3.864   9.430  0.1115 -0.4531 -1.4934
  135SAPE   H8Y14662   6.315   3.987   9.358 -0.9173  0.9053 -1.6344
  135SAPE   C3914663   6.112   3.960   9.276 -0.4201  0.1864  0.6656
  135SAPE   H9X14664   6.007   3.981   9.305 -0.4571  2.2052 -0.7155
  135SAPE   H9Y14665   6.122   3.857   9.235 -1.8640 -1.1301  3.3672
  135SAPE  C31014666   6.137   4.075   9.168  0.0273  0.1154 -0.5759
  135SAPE  H10X14667   6.247   4.077   9.150  0.0867  0.6651 -0.1831
  135SAPE  H10Y14668   6.119   4.173   9.217  2.3153  0.5073 -0.3922
  135SAPE  C31114669   6.069   4.067   9.036  0.0620 -0.4908  0.0961
  135SAPE  H11X14670   6.112   4.139   8.963 -2.2572  0.2810 -0.6116
  135SAPE  H11Y14671   5.961   4.092   9.036  0.6170  2.3109  1.2604
  135SAPE  C31214672   6.084   3.932   8.955  0.1850  0.3597 -0.7696
  135SAPE  H12X14673   6.024   3.854   9.007 -2.1484  0.9714 -2.3630
  135SAPE  H12Y14674   6.194   3.917   8.953  0.8073  3.9452 -0.0543
  135SAPE  C31314675   6.009   3.942   8.821 -0.0184  0.3855  0.0507
  135SAPE  H13X14676   6.053   4.031   8.771 -0.6187  0.7591  0.1850
  135SAPE  H13Y14677   5.900   3.951   8.838  0.0047 -0.6674  0.8804
  135SAPE  C31414678   6.039   3.813   8.739 -1.0235 -0.1107 -0.2635
  135SAPE  H14X14679   5.990   3.727   8.790  0.3989 -0.3418  0.7723
  135SAPE  H14Y14680   6.146   3.791   8.719 -1.3062  0.2303 -2.4807
  135SAPE  C31514681   5.974   3.836   8.598 -0.3893  0.3658  0.8956
  135SAPE  H15X14682   6.046   3.897   8.539  1.0711 -1.3841  0.7698
  135SAPE  H15Y14683   5.880   3.894   8.605  1.2077  3.1040  1.2842
  135SAPE  C31614684   5.935   3.711   8.525  0.0887  0.1111 -0.5955
  135SAPE  H16X14685   5.882   3.655   8.605 -1.9972  0.7505 -1.4642
  135SAPE  H16Y14686   6.019   3.643   8.496 -1.5237 -1.6930 -1.2669
  135SAPE  C31714687   5.863   3.735   8.391 -0.2215 -0.4925  0.2851
  135SAPE  H17X14688   5.915   3.788   8.309 -1.6579 -0.1706 -0.4447
  135SAPE  H17Y14689   5.775   3.798   8.414  1.2375  1.6774  0.2018
  135SAPE  C31814690   5.815   3.596   8.341  0.1090 -0.3542  0.1327
  135SAPE  H18X14691   5.745   3.619   8.259  0.6649 -1.1880 -0.5971
  135SAPE  H18Y14692   5.771   3.539   8.426 -1.7539  1.9779  0.8122
  135SAPE  H18Z14693   5.903   3.542   8.300  1.4998  1.8372  0.1126
  136SAPE     N14694   5.973   2.165  11.133 -0.2972 -0.3069 -0.1619
  136SAPE   HN114695   6.062   2.204  11.170 -0.6047  0.5626 -0.3066
  136SAPE   HN214696   5.893   2.195  11.192  0.9380 -0.3088  1.6060
  136SAPE   HN314697   5.979   2.061  11.127 -0.7348 -0.2769 -1.6336
  136SAPE   C1214698   5.940   2.219  10.996 -0.0776  1.2411 -0.5948
  136SAPE  H12A14699   5.894   2.319  11.015 -1.2268  0.7726 -0.8494
  136SAPE  H12B14700   5.870   2.145  10.952 -0.3265  0.6927  0.6928
  136SAPE   C1114701   6.062   2.256  10.918 -0.5154 -0.6317 -0.1670
  136SAPE  H11A14702   6.116   2.334  10.976  1.4263 -1.3338 -0.9709
  136SAPE  H11B14703   6.020   2.299  10.825  1.8779  0.3895 -0.8465
  136SAPE     P14704   6.132   2.052  10.766 -0.0331  0.1259  0.2511
  136SAPE   O1314705   6.238   1.949  10.784 -0.6787  0.6150  0.3951
  136SAPE   O1414706   5.991   2.000  10.758 -0.2697 -0.0781 -0.3731
  136SAPE   O1214707   6.143   2.145  10.891 -0.3364 -0.8548 -0.1108
  136SAPE   O1114708   6.160   2.147  10.641  0.0783 -0.4973  1.3013
  136SAPE    C114709   6.290   2.186  10.600  0.7762 -0.2370  0.0992
  136SAPE    HA14710   6.290   2.295  10.580  0.4921 -0.6060 -2.1378
  136SAPE    HB14711   6.369   2.163  10.675 -1.6295  1.3126  3.3595
  136SAPE    C214712   6.331   2.120  10.457  0.1428  0.3899  1.0151
  136SAPE    HS14713   6.434   2.158  10.441  0.7984 -0.6517  2.5844
  136SAPE   O2114714   6.226   2.144  10.360  0.7699  0.1616  0.2171
  136SAPE   C2114715   6.266   2.162  10.235  0.3470 -0.4580 -0.4528
  136SAPE   O2214716   6.382   2.161  10.198  0.4171  0.1545  0.2030
  136SAPE   C2214717   6.140   2.189  10.147 -0.3374 -0.1112 -0.1635
  136SAPE   H2R14718   6.061   2.122  10.186  0.1041 -0.2847  0.4642
  136SAPE   H2S14719   6.096   2.289  10.167 -1.6449 -0.6416 -0.3008
  136SAPE    C314720   6.337   1.965  10.472  0.0749 -1.0167 -0.3551
  136SAPE    HX14721   6.235   1.939  10.507  0.1699 -2.9034 -1.3321
  136SAPE    HY14722   6.407   1.930  10.551  0.4125 -3.2374 -1.5443
  136SAPE   O3114723   6.371   1.893  10.348  0.0045 -0.2553  0.0045
  136SAPE   C3114724   6.363   1.766  10.341 -0.1398  0.4898 -1.0689
  136SAPE   O3214725   6.311   1.690  10.422 -0.3637 -0.4361  0.6294
  136SAPE   C3214726   6.401   1.726  10.210  0.6419 -0.5046  0.8518
  136SAPE   H2X14727   6.348   1.631  10.188  1.5036 -0.4651 -1.6897
  136SAPE   H2Y14728   6.507   1.691  10.213  2.0361  3.1303  5.0661
  136SAPE   C2314729   6.165   2.163   9.993  0.0902  0.5354  0.7193
  136SAPE   H3R14730   6.214   2.065   9.976 -0.6398  0.3024 -0.1159
  136SAPE   H3S14731   6.241   2.237   9.960 -0.9750  0.3904 -2.3879
  136SAPE   C2414732   6.050   2.180   9.899 -0.1369 -0.4089  0.1588
  136SAPE   H4R14733   6.097   2.179   9.799  0.1684  1.8049  0.2269
  136SAPE   H4S14734   6.007   2.283   9.902  0.2234 -0.1258 -2.5079
  136SAPE   C2514735   5.957   2.069   9.919 -0.2063  0.3886 -0.1933
  136SAPE   H5R14736   5.998   1.969   9.896  2.8799  1.4047  0.4350
  136SAPE   C2614737   5.828   2.094   9.946 -0.1880  0.4938 -1.1687
  136SAPE   H6R14738   5.764   2.005   9.953 -0.6670  0.9157  0.2851
  136SAPE   C2714739   5.766   2.228   9.976  0.2873  0.5670  1.2381
  136SAPE   H7R14740   5.658   2.226   9.953  0.4116  2.0528  0.4533
  136SAPE   H7S14741   5.807   2.293   9.896  1.7378 -2.2940 -0.5313
  136SAPE   C2814742   5.800   2.280  10.109 -0.5290  0.3983 -0.7287
  136SAPE   H8R14743   5.903   2.312  10.131 -1.2073  0.3292  3.3057
  136SAPE   C2914744   5.715   2.288  10.217 -0.5860  0.5257 -0.0700
  136SAPE   H9R14745   5.747   2.331  10.313 -0.0347 -0.9784  0.4447
  136SAPE  C21014746   5.569   2.240  10.206 -0.3674  0.0317  0.2769
  136SAPE  H10R14747   5.533   2.198  10.110 -0.5061 -0.0919  0.3839
  136SAPE  H10S14748   5.504   2.326  10.229  0.2400 -0.1060  2.7260
  136SAPE  C21114749   5.527   2.140  10.315 -0.1754 -1.1441  0.8920
  136SAPE  H11R14750   5.536   2.178  10.417  0.3409  1.9149 -0.1775
  136SAPE  C21214751   5.483   2.012  10.301 -0.4585 -0.1739  0.5178
  136SAPE  H12R14752   5.450   1.964  10.394 -1.5433  0.2141  0.3547
  136SAPE  C21314753   5.461   1.936  10.163 -0.1689 -0.4790  0.4096
  136SAPE  H13R14754   5.512   2.005  10.093  0.5115 -0.2332  1.1246
  136SAPE  H13S14755   5.353   1.932  10.136  0.6018 -0.6462 -3.0490
  136SAPE  C21414756   5.508   1.796  10.162 -0.3167 -0.0865  0.0386
  136SAPE  H14R14757   5.553   1.753  10.252  0.1617 -1.5367 -0.8591
  136SAPE  C21514758   5.503   1.723  10.052  0.1636 -0.0154 -0.1659
  136SAPE  H15R14759   5.561   1.632  10.074  0.1298  0.6395  3.1420
  136SAPE  C21614760   5.457   1.767   9.916 -0.3058 -0.5890 -0.1553
  136SAPE  H16R14761   5.405   1.865   9.911  0.0607 -0.4509 -3.2346
  136SAPE  H16S14762   5.389   1.694   9.867  0.7072  0.0642 -2.6998
  136SAPE  C21714763   5.565   1.771   9.813  0.0878  0.7468 -0.3649
  136SAPE  H17R14764   5.616   1.672   9.809 -0.2592  0.3884  2.2251
  136SAPE  H17S14765   5.638   1.841   9.860  0.3083 -0.4400  1.1471
  136SAPE  C21814766   5.523   1.824   9.675 -0.2497  0.3674  0.1349
  136SAPE  H18R14767   5.614   1.858   9.620 -0.2734  0.7098  0.2999
  136SAPE  H18S14768   5.462   1.917   9.684 -2.5980 -0.8826 -1.7452
  136SAPE  C21914769   5.444   1.713   9.604  0.3272 -0.0887  0.0192
  136SAPE  H19R14770   5.371   1.678   9.680  0.5928  2.5800  1.6209
  136SAPE  H19S14771   5.515   1.628   9.596 -0.0526 -0.4196  0.1227
  136SAPE  C22014772   5.393   1.743   9.463  0.7946 -0.2015 -0.6988
  136SAPE  H20R14773   5.322   1.828   9.468  4.0452  2.8367 -1.7501
  136SAPE  H20S14774   5.344   1.652   9.420 -0.3735  0.4530 -0.7846
  136SAPE  H20T14775   5.476   1.768   9.393  0.7683 -0.3192 -0.7714
  136SAPE   C3314776   6.385   1.828  10.093  0.0368 -0.3090  0.5950
  136SAPE   H3X14777   6.453   1.916  10.105  0.1855 -0.2190 -0.7726
  136SAPE   H3Y14778   6.284   1.875  10.099 -0.7332 -1.8353 -0.0135
  136SAPE   C3414779   6.422   1.763   9.955 -0.0380  0.4453 -0.5591
  136SAPE   H4X14780   6.370   1.665   9.963  0.1678  0.3720 -0.0575
  136SAPE   H4Y14781   6.531   1.744   9.949 -0.1093  0.0821 -0.8129
  136SAPE   C3514782   6.387   1.855   9.844 -0.1464  0.7317 -0.5375
  136SAPE   H5X14783   6.459   1.848   9.760 -0.6273  0.1966 -0.9112
  136SAPE   H5Y14784   6.398   1.958   9.883 -1.5100  0.9895 -0.8016
  136SAPE   C3614785   6.243   1.846   9.802 -0.5125 -0.2761  0.2055
  136SAPE   H6X14786   6.179   1.887   9.883 -0.0309  1.2605 -0.1443
  136SAPE   H6Y14787   6.206   1.744   9.781 -0.4022 -0.1241 -0.7392
  136SAPE   C3714788   6.213   1.916   9.667 -0.2820 -0.2553 -0.5126
  136SAPE   H7X14789   6.272   1.875   9.582 -1.3288 -0.3199 -1.2239
  136SAPE   H7Y14790   6.224   2.024   9.690  0.2340 -0.1242 -1.2941
  136SAPE   C3814791   6.068   1.883   9.621 -0.3995  0.6589  0.4640
  136SAPE   H8X14792   5.986   1.921   9.684 -3.2393 -1.6513 -1.5480
  136SAPE   H8Y14793   6.054   1.773   9.632 -0.4082  0.3075 -2.2555
  136SAPE   C3914794   6.045   1.916   9.473 -0.4940 -0.5843  0.4900
  136SAPE   H9X14795   5.943   1.885   9.441 -1.5203  3.1906 -0.3944
  136SAPE   H9Y14796   6.125   1.866   9.414  0.4588  1.1825  0.2443
  136SAPE  C31014797   6.053   2.070   9.434 -0.1317  0.2357  0.6833
  136SAPE  H10X14798   6.093   2.075   9.330  0.9990 -4.9443  0.5786
  136SAPE  H10Y14799   6.126   2.126   9.496 -0.4858  0.7430  0.6438
  136SAPE  C31114800   5.919   2.143   9.432 -0.6834 -0.0109  0.2974
  136SAPE  H11X14801   5.863   2.131   9.526  0.9854 -2.7786  1.0516
  136SAPE  H11Y14802   5.851   2.102   9.354 -1.1348  0.4100  0.4680
  136SAPE  C31214803   5.927   2.295   9.402 -0.2347 -0.5472 -0.6966
  136SAPE  H12X14804   5.996   2.342   9.476 -1.4738  2.1320 -1.1418
  136SAPE  H12Y14805   5.830   2.348   9.403  1.7335  3.5345  1.8574
  136SAPE  C31314806   5.986   2.332   9.268 -0.3793  0.6095 -0.6365
  136SAPE  H13X14807   5.951   2.275   9.179  1.6979 -1.3617 -0.2882
  136SAPE  H13Y14808   6.096   2.315   9.263 -0.4214 -0.4809  1.3380
  136SAPE  C31414809   5.957   2.476   9.235  0.0825 -0.3088 -0.0604
  136SAPE  H14X14810   6.000   2.543   9.312  0.6671  0.1654 -0.7873
  136SAPE  H14Y14811   5.848   2.497   9.231 -0.0164 -0.2416  2.1094
  136SAPE  C31514812   6.018   2.516   9.098 -0.3179  0.2808 -0.3921
  136SAPE  H15X14813   6.127   2.506   9.115 -0.4028 -0.7853 -0.3871
  136SAPE  H15Y14814   5.990   2.622   9.077  0.2066  0.9654  2.1005
  136SAPE  C31614815   5.974   2.438   8.976  0.3817  0.9988  0.2114
  136SAPE  H16X14816   5.871   2.454   8.937 -0.2244  0.3453  1.4611
  136SAPE  H16Y14817   5.991   2.329   8.990  1.9704  0.9274 -1.8227
  136SAPE  C31714818   6.065   2.474   8.854  0.2397  0.0227 -0.0795
  136SAPE  H17X14819   6.163   2.463   8.905  0.6856  2.1340 -0.3782
  136SAPE  H17Y14820   6.046   2.582   8.836 -2.5179 -0.2713  0.5946
  136SAPE  C31814821   6.047   2.406   8.719 -0.7405  0.8931  0.0188
  136SAPE  H18X14822   5.989   2.467   8.647 -0.7753 -1.7506 -2.3791
  136SAPE  H18Y14823   6.006   2.303   8.720 -0.4206  0.7307  2.7262
  136SAPE  H18Z14824   6.150   2.400   8.677 -1.7161 -1.6417 -2.3468
  137SAPE     N14825   0.155   5.017  10.806 -0.2003 -0.4281  0.0290
  137SAPE   HN114826   0.229   4.995  10.737  0.2296  1.3748 -0.1189
  137SAPE   HN214827   0.165   4.965  10.896  2.1366  1.7686  1.1640
  137SAPE   HN314828   0.060   4.997  10.769 -1.3844 -0.0228  2.5770
  137SAPE   C1214829   0.184   5.159  10.839  0.6809 -0.2085 -0.7096
  137SAPE  H12A14830   0.152   5.216  10.749  0.8734  0.4799 -0.3488
  137SAPE  H12B14831   0.294   5.166  10.852  1.0159 -0.6605 -2.9147
  137SAPE   C1114832   0.107   5.205  10.965  0.0290  0.1623 -0.1147
  137SAPE  H11A14833   0.145   5.310  10.962  0.7362 -0.0759  0.2428
  137SAPE  H11B14834   0.126   5.162  11.066  0.3735  0.9508  0.1722
  137SAPE     P14835  -0.131   5.307  10.999  0.2886  0.1743 -0.2261
  137SAPE   O1314836  -0.158   5.273  11.139  0.3954  0.0543  0.0712
  137SAPE   O1414837  -0.082   5.443  10.968 -0.2139  0.8038 -0.2243
  137SAPE   O1214838  -0.033   5.200  10.934 -0.4894  0.2918  0.2016
  137SAPE   O1114839  -0.269   5.285  10.912  0.3974 -0.0457  0.0381
  137SAPE    C114840  -0.304   5.165  10.853  0.1604  0.5520 -0.0088
  137SAPE    HA14841  -0.267   5.077  10.911  1.1729  0.1805 -1.1768
  137SAPE    HB14842  -0.415   5.166  10.856  0.0644 -2.4171  0.8730
  137SAPE    C214843  -0.261   5.158  10.700 -0.2415  0.5078 -0.0982
  137SAPE    HS14844  -0.155   5.192  10.695 -0.6343  1.6108 -1.6930
  137SAPE   O2114845  -0.356   5.237  10.624 -0.2328  0.2040  0.2137
  137SAPE   C2114846  -0.310   5.282  10.509  0.7480 -0.3938 -0.8786
  137SAPE   O2214847  -0.197   5.279  10.476  0.1296  0.1951  0.1486
  137SAPE   C2214848  -0.427   5.343  10.428  0.0288  0.0266  0.4284
  137SAPE   H2R14849  -0.473   5.256  10.375  0.6959 -0.7022  1.0117
  137SAPE   H2S14850  -0.498   5.389  10.500  1.7244  3.6497 -0.0106
  137SAPE    C314851  -0.259   5.011  10.641 -0.0043  0.4903 -0.1961
  137SAPE    HX14852  -0.363   4.976  10.656  0.2203 -0.0099  0.2293
  137SAPE    HY14853  -0.205   4.935  10.702 -3.4006 -2.3847 -0.4426
  137SAPE   O3114854  -0.215   5.005  10.506 -0.1978  0.4607 -0.0520
  137SAPE   C3114855  -0.079   5.019  10.497  0.6676 -0.4275 -0.1496
  137SAPE   O3214856  -0.001   5.021  10.589 -0.0191 -0.2234 -0.4574
  137SAPE   C3214857  -0.039   5.051  10.356 -0.4560  0.1801  0.8847
  137SAPE   H2X14858   0.048   4.985  10.336 -1.1894 -0.9771  1.4341
  137SAPE   H2Y14859  -0.008   5.158  10.355  0.9084 -0.2045  0.0347
  137SAPE   C2314860  -0.381   5.445  10.322 -0.4432 -0.1696 -0.1561
  137SAPE   H3R14861  -0.292   5.419  10.260 -0.1556 -0.1675  0.2539
  137SAPE   H3S14862  -0.363   5.541  10.375 -2.2741  0.4859 -0.6267
  137SAPE   C2414863  -0.496   5.493  10.224  0.1556  0.3975 -0.2318
  137SAPE   H4R14864  -0.463   5.580  10.163 -0.2369  0.6529 -0.0801
  137SAPE   H4S14865  -0.580   5.529  10.286  1.5064  0.4216  1.6850
  137SAPE   C2514866  -0.549   5.378  10.142  0.8849  0.1967 -0.4944
  137SAPE   H5R14867  -0.632   5.320  10.183  3.0368 -2.3716  0.5259
  137SAPE   C2614868  -0.508   5.333  10.018  0.4759 -0.1614 -0.5593
  137SAPE   H6R14869  -0.561   5.251   9.967  1.6405 -0.5430 -1.1670
  137SAPE   C2714870  -0.398   5.405   9.946  0.3776 -0.0114  0.2661
  137SAPE   H7R14871  -0.312   5.421  10.014  1.2237 -1.4071 -0.4308
  137SAPE   H7S14872  -0.444   5.502   9.915 -0.5223 -0.6585 -0.4718
  137SAPE   C2814873  -0.354   5.322   9.827  1.1456  0.3968 -0.2154
  137SAPE   H8R14874  -0.388   5.218   9.827 -1.0739  1.0307  1.9073
  137SAPE   C2914875  -0.290   5.372   9.724  0.6344  0.7933  0.1288
  137SAPE   H9R14876  -0.270   5.302   9.641 -2.8740  0.7736 -0.8474
  137SAPE  C21014877  -0.242   5.515   9.702 -0.3386  0.4455  0.9564
  137SAPE  H10R14878  -0.150   5.513   9.640 -1.1672 -4.3967 -0.5735
  137SAPE  H10S14879  -0.195   5.562   9.790  2.0759  1.1686 -0.6372
  137SAPE  C21114880  -0.351   5.592   9.631 -0.7781  0.9840 -0.8902
  137SAPE  H11R14881  -0.452   5.566   9.666 -0.5823  0.1583 -0.9330
  137SAPE  C21214882  -0.334   5.694   9.550 -0.4385  0.2058  0.0919
  137SAPE  H12R14883  -0.428   5.738   9.514 -0.6894  0.6659  1.2412
  137SAPE  C21314884  -0.208   5.755   9.492 -0.5565  0.2301  0.7084
  137SAPE  H13R14885  -0.120   5.733   9.557 -0.1007  1.0141  0.3621
  137SAPE  H13S14886  -0.230   5.863   9.485  0.0057  0.2119 -3.5881
  137SAPE  C21414887  -0.190   5.706   9.352 -0.1236 -0.6781  0.1111
  137SAPE  H14R14888  -0.180   5.597   9.346 -1.8438 -0.9754  1.5181
  137SAPE  C21514889  -0.196   5.773   9.235 -0.9157 -0.0533 -0.1089
  137SAPE  H15R14890  -0.173   5.713   9.146 -2.8717 -0.8229 -0.1422
  137SAPE  C21614891  -0.219   5.920   9.225  0.1075 -0.9457 -0.1227
  137SAPE  H16R14892  -0.189   5.973   9.318 -0.5017 -2.1085  0.7662
  137SAPE  H16S14893  -0.322   5.960   9.216  0.5058 -0.0865 -1.1577
  137SAPE  C21714894  -0.131   5.982   9.110  0.4756  0.2390  0.2712
  137SAPE  H17R14895  -0.031   5.933   9.105  0.3513 -0.0530  0.5673
  137SAPE  H17S14896  -0.098   6.085   9.135  2.7604 -0.0899 -1.1380
  137SAPE  C21814897  -0.203   5.979   8.977  0.2130  0.5214  0.1277
  137SAPE  H18R14898  -0.291   6.047   8.982  1.6150  2.3531  2.4250
  137SAPE  H18S14899  -0.246   5.879   8.954 -0.4309  0.4294  1.6115
  137SAPE  C21914900  -0.101   6.006   8.867 -0.3931 -0.9429  1.0167
  137SAPE  H19R14901  -0.039   5.915   8.856 -0.0849 -0.6172 -0.0142
  137SAPE  H19S14902  -0.040   6.093   8.899 -1.5115  0.4541 -0.4739
  137SAPE  C22014903  -0.166   6.027   8.729 -0.1519 -0.0908  0.2425
  137SAPE  H20R14904  -0.081   6.030   8.657 -0.4386  1.4887 -0.0764
  137SAPE  H20S14905  -0.234   6.115   8.731  0.5330  0.4446  0.1692
  137SAPE  H20T14906  -0.224   5.943   8.685 -0.0112  0.3206 -0.7579
  137SAPE   C3314907  -0.142   5.031  10.237 -0.5331  0.3204  0.0676
  137SAPE   H3X14908  -0.185   5.133  10.228 -0.2699  0.2702 -3.5048
  137SAPE   H3Y14909  -0.223   4.959  10.263  0.9906 -1.7947 -0.7476
  137SAPE   C3414910  -0.085   4.995  10.103  0.4373 -0.0423  0.9330
  137SAPE   H4X14911  -0.034   4.897  10.114  0.8127  0.1197  0.6524
  137SAPE   H4Y14912   0.004   5.059  10.084  0.5476 -0.7742 -1.2664
  137SAPE   C3514913  -0.205   5.015   9.996 -0.3756  0.5142  0.3073
  137SAPE   H5X14914  -0.251   5.114  10.016  1.0629  0.9684  1.6435
  137SAPE   H5Y14915  -0.274   4.929   9.994  0.2281  0.0308 -2.1800
  137SAPE   C3614916  -0.135   5.031   9.857  0.0141  0.2886  0.4757
  137SAPE   H6X14917  -0.036   5.079   9.869  1.0115 -0.7599 -2.6078
  137SAPE   H6Y14918  -0.198   5.092   9.789  0.0846 -0.3734 -0.2043
  137SAPE   C3714919  -0.119   4.892   9.806 -0.2095 -0.1200 -0.5900
  137SAPE   H7X14920  -0.215   4.837   9.810  0.4022 -1.1548  0.6250
  137SAPE   H7Y14921  -0.050   4.834   9.871  0.6555  0.6414 -0.8129
  137SAPE   C3814922  -0.072   4.884   9.659 -0.1277  0.2311  0.3296
  137SAPE   H8X14923   0.030   4.928   9.656  0.8649 -1.7795  1.9480
  137SAPE   H8Y14924  -0.147   4.944   9.602  1.2672 -0.2013 -2.1188
  137SAPE   C3914925  -0.074   4.746   9.602  0.9385  0.1104  0.4151
  137SAPE   H9X14926  -0.175   4.702   9.590  0.9290  0.2359  0.0097
  137SAPE   H9Y14927  -0.014   4.682   9.670  0.4660 -1.3868 -0.5138
  137SAPE  C31014928   0.000   4.737   9.471  0.1694  0.3123 -0.4666
  137SAPE  H10X14929   0.006   4.629   9.444  0.2563  0.4952 -1.2150
  137SAPE  H10Y14930   0.108   4.759   9.484  0.3440 -1.0327  0.5852
  137SAPE  C31114931  -0.072   4.799   9.352  0.6311  0.3702  0.4900
  137SAPE  H11X14932  -0.007   4.886   9.326  0.2332  0.2509 -0.9565
  137SAPE  H11Y14933  -0.176   4.829   9.374  1.0202  2.1574  0.1132
  137SAPE  C31214934  -0.065   4.691   9.236  0.3009 -0.4127  0.1047
  137SAPE  H12X14935  -0.122   4.600   9.264  1.2927 -1.4864 -1.2236
  137SAPE  H12Y14936   0.033   4.644   9.211 -0.3447 -1.2642 -0.9440
  137SAPE  C31314937  -0.120   4.748   9.104  0.2453 -0.2968  0.4874
  137SAPE  H13X14938  -0.048   4.827   9.073  1.6959 -0.7016  2.6262
  137SAPE  H13Y14939  -0.215   4.797   9.137  0.4243 -0.4098  1.1850
  137SAPE  C31414940  -0.145   4.651   8.981 -0.0137 -0.9257 -0.1758
  137SAPE  H14X14941  -0.169   4.555   9.031  4.0440 -0.9947  2.0831
  137SAPE  H14Y14942  -0.044   4.642   8.936 -1.1466  0.3589 -3.2387
  137SAPE  C31514943  -0.243   4.685   8.874  0.4628  0.0217  0.1014
  137SAPE  H15X14944  -0.236   4.609   8.793 -0.3227  0.1335 -0.0743
  137SAPE  H15Y14945  -0.212   4.774   8.815  1.7234  0.7988  1.8402
  137SAPE  C31614946  -0.389   4.698   8.923 -0.0973 -0.0004 -0.5688
  137SAPE  H16X14947  -0.395   4.725   9.030 -1.4605 -0.6705 -0.4581
  137SAPE  H16Y14948  -0.439   4.603   8.893  0.1228 -0.2729 -0.0779
  137SAPE  C31714949  -0.452   4.823   8.867 -0.6591 -0.3440  0.3276
  137SAPE  H17X14950  -0.556   4.838   8.903  0.3447  1.3981  2.7786
  137SAPE  H17Y14951  -0.451   4.824   8.756 -1.1361  1.4443  0.2973
  137SAPE  C31814952  -0.382   4.958   8.917 -0.9947 -0.1915  0.4714
  137SAPE  H18X14953  -0.276   4.961   8.884 -0.4580 -2.4973  1.7520
  137SAPE  H18Y14954  -0.369   4.955   9.027  1.3215  0.4716  0.2722
  137SAPE  H18Z14955  -0.431   5.049   8.876  1.3345  0.3840 -1.2485
  138SAPE     N14956   2.693   0.370  10.446 -0.2774 -0.3309 -0.3142
  138SAPE   HN114957   2.678   0.458  10.498 -1.4008 -0.6205 -0.1272
  138SAPE   HN214958   2.764   0.387  10.371  0.3974 -1.4394  0.0413
  138SAPE   HN314959   2.602   0.360  10.397 -0.7322 -0.9978  0.6429
  138SAPE   C1214960   2.722   0.256  10.535 -0.1440  0.5924  0.4475
  138SAPE  H12A14961   2.701   0.165  10.475  1.3591  0.5861 -0.1062
  138SAPE  H12B14962   2.649   0.258  10.618 -0.0159  1.7494  0.5431
  138SAPE   C1114963   2.866   0.267  10.579 -0.3574  1.2438  0.0611
  138SAPE  H11A14964   2.942   0.275  10.499  3.0652  1.8256  3.1196
  138SAPE  H11B14965   2.888   0.174  10.635 -2.9270 -1.0383 -2.4090
  138SAPE     P14966   2.990   0.483  10.662  0.2966 -0.0745 -0.4393
  138SAPE   O1314967   2.934   0.602  10.734  0.0641  0.2255  0.2791
  138SAPE   O1414968   3.119   0.434  10.701 -0.0018 -0.0739  0.0394
  138SAPE   O1214969   2.882   0.368  10.681 -0.1344 -0.3000  0.2898
  138SAPE   O1114970   3.004   0.514  10.509  1.0126  0.0817 -0.5583
  138SAPE    C114971   2.978   0.647  10.459  0.1915 -1.1448 -0.2319
  138SAPE    HA14972   2.901   0.706  10.512  1.6993  0.7821 -0.0999
  138SAPE    HB14973   3.067   0.711  10.471 -0.3893 -0.8508  3.7485
  138SAPE    C214974   2.926   0.654  10.316  0.0835  0.2561 -0.3809
  138SAPE    HS14975   2.825   0.607  10.306  0.3085 -0.4181  0.3797
  138SAPE   O2114976   3.015   0.585  10.233 -0.1496 -0.3753 -0.1524
  138SAPE   C2114977   3.009   0.458  10.218 -0.1481  0.3287 -0.3829
  138SAPE   O2214978   2.932   0.384  10.277  0.2413 -0.4787 -0.5354
  138SAPE   C2214979   3.108   0.421  10.104  0.5568 -0.3246 -0.0810
  138SAPE   H2R14980   3.072   0.489  10.024 -1.5591  0.6023  1.5542
  138SAPE   H2S14981   3.209   0.436  10.147  0.4739 -0.0786  0.0301
  138SAPE    C314982   2.909   0.800  10.262 -0.0755  0.6770  0.4368
  138SAPE    HX14983   3.002   0.844  10.304  1.7862 -2.0695 -0.5701
  138SAPE    HY14984   2.813   0.841  10.301 -0.3025 -0.7779  1.5061
  138SAPE   O3114985   2.899   0.801  10.122 -0.7230  0.3633  0.1233
  138SAPE   C3114986   3.001   0.858  10.055 -0.2221  0.9607 -0.2915
  138SAPE   O3214987   3.103   0.902  10.104 -0.0429  0.0891  0.0222
  138SAPE   C3214988   2.963   0.859   9.906 -0.2834 -0.4521 -0.0723
  138SAPE   H2X14989   2.946   0.968   9.889 -0.7075 -0.3702  0.8303
  138SAPE   H2Y14990   2.878   0.799   9.869 -1.1140  2.3163 -3.1869
  138SAPE   C2314991   3.108   0.275  10.067  0.1515 -0.4541 -0.2122
  138SAPE   H3R14992   3.005   0.236  10.051 -0.3572  0.2440  1.1675
  138SAPE   H3S14993   3.152   0.219  10.152  0.0053 -0.4761 -0.1491
  138SAPE   C2414994   3.177   0.242   9.940  0.8281  0.4603  0.1471
  138SAPE   H4R14995   3.141   0.312   9.861  0.0846 -2.1930 -2.0062
  138SAPE   H4S14996   3.143   0.142   9.908 -2.3688  0.1986  3.6476
  138SAPE   C2514997   3.322   0.247   9.954 -0.1061  0.2451  0.2207
  138SAPE   H5R14998   3.365   0.161  10.007 -1.0605  0.3480  1.1974
  138SAPE   C2614999   3.403   0.335   9.895  0.3837 -0.3651 -0.6531
  138SAPE   H6R15000   3.509   0.311   9.911 -0.0785 -1.6574  0.6681
  138SAPE   C2715001   3.354   0.444   9.805 -0.2675  0.0856  0.1257
  138SAPE   H7R15002   3.307   0.528   9.860  0.7686  0.3264  0.6711
  138SAPE   H7S15003   3.287   0.408   9.724  0.1943  1.5718 -0.9659
  138SAPE   C2815004   3.461   0.516   9.727 -0.9000 -0.4269 -0.0861
  138SAPE   H8R15005   3.510   0.603   9.773 -2.2440  0.6091 -0.5342
  138SAPE   C2915006   3.515   0.462   9.618 -0.4661 -0.5650 -0.5683
  138SAPE   H9R15007   3.605   0.511   9.576 -0.1098 -1.6592 -1.1176
  138SAPE  C21015008   3.474   0.336   9.558  0.0717 -0.6347  0.0015
  138SAPE  H10R15009   3.443   0.263   9.636  2.0380 -2.3984 -0.7475
  138SAPE  H10S15010   3.562   0.281   9.518  0.1128  0.4815 -1.5297
  138SAPE  C21115011   3.377   0.321   9.439 -0.2205  0.0794 -0.5588
  138SAPE  H11R15012   3.279   0.279   9.467  0.0787 -0.0420  0.3416
  138SAPE  C21215013   3.406   0.333   9.307  0.2730  0.0371  0.6190
  138SAPE  H12R15014   3.326   0.320   9.232  1.1418  0.4772 -0.4118
  138SAPE  C21315015   3.532   0.369   9.246  0.1397  0.3628  1.0626
  138SAPE  H13R15016   3.568   0.280   9.188  1.2923  1.0499  0.6797
  138SAPE  H13S15017   3.616   0.387   9.316  1.4821  0.7479 -0.5697
  138SAPE  C21415018   3.513   0.490   9.166  0.6142  0.0118 -0.2379
  138SAPE  H14R15019   3.487   0.576   9.229 -2.4075 -0.0650 -1.2339
  138SAPE  C21515020   3.536   0.512   9.039 -0.6441 -0.7251  0.0148
  138SAPE  H15R15021   3.521   0.617   9.008  0.5775  0.0518  1.8745
  138SAPE  C21615022   3.593   0.422   8.938  0.2689  1.3942 -0.0050
  138SAPE  H16R15023   3.633   0.336   8.995 -0.5996  0.8314 -0.2172
  138SAPE  H16S15024   3.679   0.462   8.880  0.8485  0.1962 -0.0129
  138SAPE  C21715025   3.494   0.358   8.838 -0.6549 -0.0072 -0.5274
  138SAPE  H17R15026   3.545   0.293   8.764 -1.1365 -1.2043  0.1642
  138SAPE  H17S15027   3.447   0.440   8.780  0.6416  0.5963 -0.7620
  138SAPE  C21815028   3.383   0.279   8.911 -0.0953  0.0965  0.7933
  138SAPE  H18R15029   3.330   0.355   8.973 -1.0706  2.3529 -2.5186
  138SAPE  H18S15030   3.433   0.198   8.969 -0.0701 -0.9075 -0.6008
  138SAPE  C21915031   3.296   0.212   8.801  0.3032 -0.7528  0.1282
  138SAPE  H19R15032   3.260   0.291   8.732  1.6590  1.2463  1.5840
  138SAPE  H19S15033   3.200   0.174   8.842 -0.0497 -0.3901 -0.3572
  138SAPE  C22015034   3.358   0.099   8.724 -0.4469 -0.2441 -0.3986
  138SAPE  H20R15035   3.460   0.124   8.687  0.6397 -1.2538  1.7353
  138SAPE  H20S15036   3.284   0.051   8.656  1.1685 -0.2357 -2.2538
  138SAPE  H20T15037   3.389   0.025   8.800  1.2978  0.8984  0.0600
  138SAPE   C3315038   3.094   0.833   9.831 -0.7633  0.0546  0.6276
  138SAPE   H3X15039   3.120   0.732   9.868  1.0526  0.9723  2.0390
  138SAPE   H3Y15040   3.182   0.898   9.853  1.8909 -1.8096 -3.3373
  138SAPE   C3415041   3.074   0.843   9.679 -1.1235  0.4706 -0.3069
  138SAPE   H4X15042   3.039   0.948   9.668  0.1403  1.1291  1.4300
  138SAPE   H4Y15043   2.989   0.787   9.636 -1.0674  1.0748 -1.2393
  138SAPE   C3515044   3.209   0.815   9.601  0.2380  0.2342 -0.3130
  138SAPE   H5X15045   3.223   0.705   9.604 -0.9560  0.0482  3.0160
  138SAPE   H5Y15046   3.287   0.866   9.661  0.5216 -0.2420 -0.2712
  138SAPE   C3615047   3.203   0.879   9.465  0.5636 -0.4111  0.4492
  138SAPE   H6X15048   3.162   0.981   9.479  1.0288  0.0458 -1.3608
  138SAPE   H6Y15049   3.133   0.827   9.396  3.2918 -2.3165 -1.0560
  138SAPE   C3715050   3.331   0.898   9.389 -0.6033  0.2920  0.4163
  138SAPE   H7X15051   3.386   0.802   9.397 -1.0438  0.1968  4.2880
  138SAPE   H7Y15052   3.399   0.962   9.449  0.4441  0.8543 -1.2978
  138SAPE   C3815053   3.318   0.961   9.251  0.2136  0.0867  0.1987
  138SAPE   H8X15054   3.262   1.057   9.259  2.4260  1.4512  0.2406
  138SAPE   H8Y15055   3.256   0.889   9.194 -0.7431 -1.6912  3.2555
  138SAPE   C3915056   3.443   0.997   9.185 -0.3834 -0.2365  0.3650
  138SAPE   H9X15057   3.495   0.901   9.165  0.6509  0.6719 -1.7371
  138SAPE   H9Y15058   3.492   1.065   9.258 -0.4101 -1.7650  1.8491
  138SAPE  C31015059   3.420   1.061   9.044  0.5509 -0.6585 -0.0643
  138SAPE  H10X15060   3.326   1.118   9.057  0.0350 -1.9422  2.8030
  138SAPE  H10Y15061   3.418   0.990   8.959  0.6937  1.0865 -1.5654
  138SAPE  C31115062   3.550   1.142   8.999  0.0952  1.2995  0.3464
  138SAPE  H11X15063   3.631   1.065   8.999 -0.2823  0.8867  0.9087
  138SAPE  H11Y15064   3.568   1.223   9.073 -2.5447  0.6849  1.7624
  138SAPE  C31215065   3.537   1.197   8.856 -0.3736  0.4319 -0.6384
  138SAPE  H12X15066   3.529   1.305   8.880  1.0478 -0.1021  2.8634
  138SAPE  H12Y15067   3.447   1.161   8.802  0.6585 -0.1470 -2.0151
  138SAPE  C31315068   3.674   1.177   8.776 -0.2322  0.0290  0.3884
  138SAPE  H13X15069   3.696   1.070   8.759  0.7522  0.1693  0.7557
  138SAPE  H13Y15070   3.749   1.214   8.849 -1.2607  0.3016  1.3344
  138SAPE  C31415071   3.680   1.236   8.633 -0.2707 -0.0671 -0.3416
  138SAPE  H14X15072   3.657   1.344   8.646 -3.3191 -0.6222 -0.2342
  138SAPE  H14Y15073   3.621   1.189   8.551  0.5302  0.7505 -1.4252
  138SAPE  C31515074   3.821   1.213   8.587 -0.0951 -0.3819 -0.2959
  138SAPE  H15X15075   3.846   1.105   8.574 -1.3561 -0.5962 -1.0376
  138SAPE  H15Y15076   3.879   1.254   8.672 -1.5771  0.3483  0.3992
  138SAPE  C31615077   3.851   1.298   8.460 -0.6412 -0.3181 -0.1434
  138SAPE  H16X15078   3.962   1.310   8.461 -0.8931  2.8056  0.1836
  138SAPE  H16Y15079   3.804   1.397   8.477 -0.7079 -0.6365  1.6455
  138SAPE  C31715080   3.814   1.221   8.328 -0.1703  0.0449  0.2105
  138SAPE  H17X15081   3.831   1.286   8.240  2.1887  0.8769  1.1987
  138SAPE  H17Y15082   3.704   1.217   8.316 -0.3897  1.0055  1.6419
  138SAPE  C31815083   3.870   1.080   8.315 -0.7206 -0.1629  0.3597
  138SAPE  H18X15084   3.979   1.069   8.336 -0.7283 -1.5722 -0.2040
  138SAPE  H18Y15085   3.868   1.062   8.205  0.8256 -0.8119  0.4115
  138SAPE  H18Z15086   3.820   0.998   8.371 -0.1509 -0.3155  0.6571
  139SAPE     N15087   1.797   6.658  10.616  0.3772 -0.4575 -0.7553
  139SAPE   HN115088   1.757   6.578  10.669 -0.4930  0.2798 -0.2720
  139SAPE   HN215089   1.850   6.723  10.677 -1.2368 -0.9604  1.2772
  139SAPE   HN315090   1.719   6.724  10.595  1.5743  1.0911 -0.5005
  139SAPE   C1215091   1.867   6.610  10.498  0.3251  0.3349  1.0331
  139SAPE  H12A15092   1.947   6.540  10.531 -1.8982 -1.1922  3.5016
  139SAPE  H12B15093   1.920   6.696  10.450 -1.1982  1.4750  1.3432
  139SAPE   C1115094   1.773   6.526  10.406  0.0204 -0.0477 -0.4170
  139SAPE  H11A15095   1.830   6.494  10.316  2.6596 -1.0318  1.4507
  139SAPE  H11B15096   1.689   6.593  10.380  0.5851  1.4655  1.4083
  139SAPE     P15097   1.799   6.273  10.486  0.4517 -0.4916  0.7129
  139SAPE   O1315098   1.942   6.299  10.478 -0.4022 -0.1187 -0.0538
  139SAPE   O1415099   1.751   6.181  10.593 -0.4350  0.1532 -0.0946
  139SAPE   O1215100   1.725   6.416  10.483  0.6458  0.2252  0.1636
  139SAPE   O1115101   1.760   6.215  10.341  0.0180 -0.1601  0.2183
  139SAPE    C115102   1.631   6.203  10.290  0.1007  0.2070  0.4117
  139SAPE    HA15103   1.563   6.176  10.373 -0.1078  0.8715  0.4587
  139SAPE    HB15104   1.593   6.302  10.258 -1.8350 -0.4227  0.6252
  139SAPE    C215105   1.636   6.109  10.170 -0.1716  0.7200  0.6316
  139SAPE    HS15106   1.700   6.021  10.196  0.7648  1.5932  1.3647
  139SAPE   O2115107   1.675   6.176  10.052  0.0826  0.2209 -0.1527
  139SAPE   C2115108   1.797   6.187  10.027 -0.1754  0.0890  0.3365
  139SAPE   O2215109   1.893   6.147  10.092 -0.1152 -0.1494 -0.1677
  139SAPE   C2215110   1.801   6.276   9.904  0.0333  0.3117  0.1090
  139SAPE   H2R15111   1.797   6.203   9.820  0.9777 -2.5275  2.3636
  139SAPE   H2S15112   1.705   6.330   9.895  1.5429  3.1719  0.1210
  139SAPE    C315113   1.499   6.037  10.141 -0.5994  0.5700  0.4091
  139SAPE    HX15114   1.415   6.092  10.187 -0.8581  0.6038 -0.0990
  139SAPE    HY15115   1.513   5.945  10.202  4.3628 -0.7523 -2.1182
  139SAPE   O3115116   1.477   5.991  10.007  0.2745  1.0398  0.3914
  139SAPE   C3115117   1.418   6.077   9.925 -0.0756 -0.2613  0.5352
  139SAPE   O3215118   1.361   6.176   9.965 -0.0700 -0.2056  0.8996
  139SAPE   C3215119   1.428   6.014   9.782  0.2021  0.4706 -1.3565
  139SAPE   H2X15120   1.356   5.929   9.786 -0.9627  1.4626  2.3137
  139SAPE   H2Y15121   1.536   5.991   9.771  0.0975 -1.4565  0.8574
  139SAPE   C2315122   1.915   6.385   9.892  0.4113 -0.2415 -0.0913
  139SAPE   H3R15123   1.902   6.450   9.980 -3.1396  1.6644 -1.7887
  139SAPE   H3S15124   1.894   6.456   9.809 -0.4374 -0.0517  0.2837
  139SAPE   C2415125   2.050   6.319   9.880  0.1425 -0.7867 -0.9786
  139SAPE   H4R15126   2.065   6.253   9.969 -0.4116  0.6149  0.1890
  139SAPE   H4S15127   2.127   6.398   9.883 -0.7545  0.0800  0.4427
  139SAPE   C2515128   2.070   6.235   9.754 -0.2293  0.1382 -0.3631
  139SAPE   H5R15129   2.092   6.128   9.767 -0.3959 -0.1443 -2.1470
  139SAPE   C2615130   2.086   6.294   9.635  0.2085  0.6835 -0.6555
  139SAPE   H6R15131   2.116   6.224   9.556 -0.7002 -0.4564 -0.0091
  139SAPE   C2715132   2.078   6.440   9.597 -0.5617  0.2675 -0.4225
  139SAPE   H7R15133   2.036   6.509   9.672  0.2084 -0.2366  0.4915
  139SAPE   H7S15134   2.008   6.455   9.512  2.4713  2.2679 -2.8072
  139SAPE   C2815135   2.215   6.494   9.553  0.6529 -0.1931 -0.2205
  139SAPE   H8R15136   2.293   6.482   9.629 -0.1421 -0.5702  0.5604
  139SAPE   C2915137   2.249   6.530   9.428  0.3165  0.1993  0.7143
  139SAPE   H9R15138   2.349   6.570   9.404 -0.4231  0.5511 -2.1785
  139SAPE  C21015139   2.169   6.522   9.297 -0.5434 -0.1561  0.6435
  139SAPE  H10R15140   2.130   6.418   9.286  1.3285 -0.8732  0.3914
  139SAPE  H10S15141   2.247   6.529   9.219 -0.5076  2.5996  0.8505
  139SAPE  C21115142   2.058   6.629   9.272 -0.0170  0.2905 -0.3227
  139SAPE  H11R15143   2.043   6.712   9.343 -1.1792  0.8321 -1.1728
  139SAPE  C21215144   1.976   6.619   9.168  0.1514  0.3009 -0.0313
  139SAPE  H12R15145   1.897   6.693   9.149 -1.8577 -1.3498  1.4789
  139SAPE  C21315146   1.964   6.519   9.060  0.0136  0.0919  0.1254
  139SAPE  H13R15147   1.870   6.522   9.001 -0.1350 -0.0364  0.3558
  139SAPE  H13S15148   1.971   6.420   9.109 -1.2892  0.6733  1.5602
  139SAPE  C21415149   2.085   6.523   8.961  0.5785 -0.0328 -0.2752
  139SAPE  H14R15150   2.152   6.609   8.975 -1.5742  2.2791 -3.1123
  139SAPE  C21515151   2.112   6.431   8.863  1.0911  0.1252 -0.6192
  139SAPE  H15R15152   2.202   6.449   8.802  2.0683 -0.8234  0.4966
  139SAPE  C21615153   2.045   6.304   8.817  0.0286 -0.4807  0.0072
  139SAPE  H16R15154   1.937   6.315   8.839  0.4076 -0.3986  2.0681
  139SAPE  H16S15155   2.070   6.229   8.896 -1.6300  1.2152  2.2969
  139SAPE  C21715156   2.066   6.264   8.675  0.3241 -0.2048 -0.8326
  139SAPE  H17R15157   2.028   6.161   8.662 -0.6043  0.0229 -0.0271
  139SAPE  H17S15158   2.175   6.250   8.659  1.1695  1.8027  2.2329
  139SAPE  C21815159   2.015   6.361   8.563  0.3793  0.1528 -0.8911
  139SAPE  H18R15160   2.077   6.452   8.550  0.2560  0.0186 -2.5616
  139SAPE  H18S15161   1.913   6.401   8.584 -0.1657 -1.6793  0.2846
  139SAPE  C21915162   2.002   6.276   8.434 -0.0155  1.2190 -0.2438
  139SAPE  H19R15163   1.926   6.196   8.448  0.0565  1.1759 -0.0950
  139SAPE  H19S15164   2.100   6.224   8.424 -0.9383 -0.9600  1.2110
  139SAPE  C22015165   1.954   6.369   8.321 -0.0628 -0.2168 -0.2354
  139SAPE  H20R15166   1.847   6.393   8.338 -0.2723 -1.0830 -0.2771
  139SAPE  H20S15167   1.945   6.296   8.237 -2.9532 -1.9571  1.4400
  139SAPE  H20T15168   2.022   6.454   8.300 -2.2801  1.1235 -2.3275
  139SAPE   C3315169   1.382   6.116   9.673  0.3761  0.0902  0.3855
  139SAPE   H3X15170   1.460   6.195   9.660 -0.2087  0.5522 -0.3975
  139SAPE   H3Y15171   1.297   6.179   9.704 -1.4912 -2.7994  1.5703
  139SAPE   C3415172   1.361   6.049   9.533  0.5092  0.4351  0.6464
  139SAPE   H4X15173   1.296   5.959   9.538  0.5586  0.2533 -1.1565
  139SAPE   H4Y15174   1.461   6.024   9.491 -0.5191 -0.0721 -1.6326
  139SAPE   C3515175   1.292   6.136   9.420  0.0115 -0.3900 -0.8286
  139SAPE   H5X15176   1.331   6.240   9.422 -0.9825  0.0049  1.0627
  139SAPE   H5Y15177   1.182   6.139   9.437  0.0138  2.1059 -0.8063
  139SAPE   C3615178   1.319   6.091   9.278  0.9043  0.5459  0.8043
  139SAPE   H6X15179   1.273   5.993   9.254  2.9902 -1.0336  2.7396
  139SAPE   H6Y15180   1.428   6.089   9.254  0.6623  1.4375 -0.4441
  139SAPE   C3715181   1.253   6.179   9.178 -0.0061  0.4401 -0.3133
  139SAPE   H7X15182   1.261   6.289   9.189  1.2767  0.1884  1.7594
  139SAPE   H7Y15183   1.143   6.160   9.176 -0.0365  0.5549  0.1448
  139SAPE   C3815184   1.291   6.141   9.035 -0.5449 -0.0836  0.1351
  139SAPE   H8X15185   1.293   6.030   9.025  1.3022 -0.1535  0.8522
  139SAPE   H8Y15186   1.397   6.169   9.016  0.1437  0.4354  3.9506
  139SAPE   C3915187   1.193   6.192   8.926 -0.1409  0.4137 -0.1327
  139SAPE   H9X15188   1.200   6.303   8.926  0.7584  0.3627 -0.2852
  139SAPE   H9Y15189   1.091   6.161   8.959 -0.2158  0.5172 -0.2691
  139SAPE  C31015190   1.222   6.140   8.789 -0.7060  0.2587 -0.0610
  139SAPE  H10X15191   1.207   6.030   8.789 -2.6505  0.4820 -1.2181
  139SAPE  H10Y15192   1.331   6.154   8.773  0.2000 -2.1326  2.8780
  139SAPE  C31115193   1.145   6.196   8.674  0.1638 -1.0020  0.3339
  139SAPE  H11X15194   1.157   6.306   8.673 -0.9069 -0.8555  1.2862
  139SAPE  H11Y15195   1.036   6.188   8.695 -0.0175 -2.3542 -0.9031
  139SAPE  C31215196   1.181   6.134   8.540  0.2192  0.0352 -1.1852
  139SAPE  H12X15197   1.210   6.030   8.567 -2.8959 -0.6516 -0.0402
  139SAPE  H12Y15198   1.270   6.184   8.496  2.0121 -2.7774 -1.0058
  139SAPE  C31315199   1.071   6.112   8.438 -0.0760 -0.1241  0.1277
  139SAPE  H13X15200   1.026   6.209   8.404 -0.1759 -0.0476  0.4720
  139SAPE  H13Y15201   0.988   6.062   8.493 -1.0978  0.9598 -0.3586
  139SAPE  C31415202   1.107   6.030   8.314  0.0495 -0.0842  0.5184
  139SAPE  H14X15203   1.177   6.096   8.259  0.7148 -1.0244  0.2018
  139SAPE  H14Y15204   1.024   6.005   8.244  0.9986  1.4377 -1.2513
  139SAPE  C31515205   1.175   5.898   8.337  0.1147  0.7239 -0.5021
  139SAPE  H15X15206   1.257   5.918   8.410 -0.2573 -2.8548  1.0802
  139SAPE  H15Y15207   1.222   5.853   8.247  2.0487 -2.0083  1.7236
  139SAPE  C31615208   1.095   5.778   8.409  0.1492 -0.0468  0.6617
  139SAPE  H16X15209   1.087   5.805   8.517  1.8562  1.6547  0.4089
  139SAPE  H16Y15210   0.996   5.781   8.358  0.1298 -1.4926  0.5656
  139SAPE  C31715211   1.157   5.650   8.385  0.0449  0.0363 -0.2468
  139SAPE  H17X15212   1.267   5.653   8.401  0.6806  0.6576 -3.7450
  139SAPE  H17Y15213   1.142   5.626   8.277 -1.0500 -1.5761  0.2242
  139SAPE  C31815214   1.078   5.538   8.458  0.1136 -0.0852 -0.3760
  139SAPE  H18X15215   1.066   5.555   8.567  0.9098 -2.0602  0.0546
  139SAPE  H18Y15216   1.138   5.445   8.446 -1.5442 -1.2399 -0.1089
  139SAPE  H18Z15217   0.979   5.522   8.409  0.4605 -0.0226 -1.1135
  140SAPE     N15218   5.354   1.445  10.962  0.4268 -0.1415 -0.1519
  140SAPE   HN115219   5.395   1.528  10.914 -1.5637  1.1345  0.2227
  140SAPE   HN215220   5.420   1.389  11.019  0.1660 -0.0445  0.2479
  140SAPE   HN315221   5.324   1.378  10.888 -0.5445  0.1645 -0.0564
  140SAPE   C1215222   5.235   1.509  11.040  0.0113  0.9321  0.2572
  140SAPE  H12A15223   5.263   1.539  11.143  0.5020 -0.3875  0.5338
  140SAPE  H12B15224   5.160   1.427  11.046  2.0001 -1.1041 -0.9702
  140SAPE   C1115225   5.163   1.628  10.971 -0.5139  0.0796  0.0943
  140SAPE  H11A15226   5.072   1.648  11.032 -1.8647 -0.2371 -1.7359
  140SAPE  H11B15227   5.117   1.597  10.875 -0.9281 -1.4693  0.7514
  140SAPE     P15228   5.319   1.801  10.845 -0.3978 -0.4670  0.1143
  140SAPE   O1315229   5.385   1.926  10.881  0.0228 -0.9752 -0.5078
  140SAPE   O1415230   5.396   1.684  10.804 -0.7198  0.3116 -0.0096
  140SAPE   O1215231   5.238   1.755  10.972  0.2865  0.0323 -0.2379
  140SAPE   O1115232   5.204   1.820  10.740 -0.1549 -0.7635 -0.3387
  140SAPE    C115233   5.089   1.891  10.768  0.4154 -0.6518  0.0579
  140SAPE    HA15234   5.000   1.840  10.724  0.0630 -0.4992  0.5797
  140SAPE    HB15235   5.071   1.921  10.873  0.2587  2.6918 -0.8112
  140SAPE    C215236   5.097   2.038  10.694  0.2897  0.2515 -0.4800
  140SAPE    HS15237   5.176   2.091  10.751 -0.7770  0.5129  0.8029
  140SAPE   O2115238   4.971   2.104  10.704 -0.2243  0.1906 -0.3582
  140SAPE   C2115239   4.976   2.236  10.724  0.2846 -0.0207 -0.5971
  140SAPE   O2215240   5.070   2.309  10.744 -0.3974 -1.2029  0.0932
  140SAPE   C2215241   4.833   2.302  10.734 -0.3810 -0.3897  0.3446
  140SAPE   H2R15242   4.759   2.226  10.700 -0.9861  0.4866 -0.3463
  140SAPE   H2S15243   4.794   2.321  10.836 -1.6435  2.7150 -0.6008
  140SAPE    C315244   5.154   2.022  10.553 -0.4249  0.2447 -0.4600
  140SAPE    HX15245   5.125   1.919  10.521  0.2115 -0.0314 -0.1702
  140SAPE    HY15246   5.264   2.011  10.551 -0.2265  1.7550  0.8307
  140SAPE   O3115247   5.110   2.110  10.452 -0.6469  0.4304  0.1673
  140SAPE   C3115248   5.181   2.212  10.414 -0.2029 -0.4146  0.2036
  140SAPE   O3215249   5.271   2.259  10.477 -0.0592 -0.1666 -0.2493
  140SAPE   C3215250   5.127   2.272  10.282 -0.0407  0.1892  0.7641
  140SAPE   H2X15251   5.186   2.362  10.256  0.0956  0.2668  1.3308
  140SAPE   H2Y15252   5.022   2.294  10.314 -0.7186 -3.2418  1.2548
  140SAPE   C2315253   4.814   2.434  10.655  0.1817  0.6055 -0.2546
  140SAPE   H3R15254   4.826   2.406  10.548 -0.4545 -1.3033  0.1440
  140SAPE   H3S15255   4.888   2.513  10.679 -0.9920  2.3832 -2.1650
  140SAPE   C2415256   4.673   2.494  10.680 -0.1845 -0.2144 -0.0351
  140SAPE   H4R15257   4.664   2.587  10.620 -1.8097  0.6351  1.4410
  140SAPE   H4S15258   4.676   2.536  10.783 -1.6114 -0.2176  0.0387
  140SAPE   C2515259   4.552   2.406  10.666 -0.2145 -1.4642  0.3163
  140SAPE   H5R15260   4.517   2.363  10.761  0.4919  2.0871  2.4108
  140SAPE   C2615261   4.484   2.388  10.551 -0.5963  0.0314  0.1817
  140SAPE   H6R15262   4.403   2.315  10.561 -1.2426  0.7174  0.0231
  140SAPE   C2715263   4.515   2.451  10.409 -0.3382  0.0940  0.5719
  140SAPE   H7R15264   4.532   2.366  10.339 -0.8234 -2.8614  3.7640
  140SAPE   H7S15265   4.601   2.520  10.418 -2.0738  2.8052 -1.7898
  140SAPE   C2815266   4.406   2.551  10.373 -0.2739  0.7351  0.5137
  140SAPE   H8R15267   4.384   2.635  10.440 -3.0946  0.2789  0.2801
  140SAPE   C2915268   4.327   2.530  10.268 -0.9522  0.0915  0.6220
  140SAPE   H9R15269   4.261   2.614  10.241  0.4002  0.8989 -0.3268
  140SAPE  C21015270   4.332   2.422  10.162  0.3654 -0.3844 -0.0147
  140SAPE  H10R15271   4.441   2.412  10.147  0.3298 -3.0147  0.9046
  140SAPE  H10S15272   4.296   2.467  10.067 -0.8527 -1.3673 -0.0523
  140SAPE  C21115273   4.266   2.290  10.194  0.9498  0.0048  0.4776
  140SAPE  H11R15274   4.260   2.263  10.300 -0.3266 -0.3776  0.3266
  140SAPE  C21215275   4.231   2.206  10.097 -0.0315 -0.2847  0.2948
  140SAPE  H12R15276   4.179   2.110  10.110 -2.2888  0.7214 -0.8633
  140SAPE  C21315277   4.246   2.235   9.949  0.3068 -0.5496 -0.4190
  140SAPE  H13R15278   4.286   2.338   9.936 -0.4759  0.0017  1.2014
  140SAPE  H13S15279   4.143   2.232   9.907 -0.5974 -2.9756  1.6851
  140SAPE  C21415280   4.336   2.123   9.891 -0.2552 -0.2105  0.0621
  140SAPE  H14R15281   4.425   2.097   9.949 -0.6788 -1.8493  0.0171
  140SAPE  C21515282   4.320   2.048   9.785 -0.1467  0.5888  0.3900
  140SAPE  H15R15283   4.402   1.975   9.770  1.2702  2.3070 -0.5196
  140SAPE  C21615284   4.213   2.051   9.684 -0.1961 -0.7656 -0.0603
  140SAPE  H16R15285   4.260   2.086   9.590 -1.2547  1.9258  0.3110
  140SAPE  H16S15286   4.151   2.141   9.704  0.2999 -0.0895 -1.4531
  140SAPE  C21715287   4.128   1.924   9.655 -0.1523 -0.4581 -0.7220
  140SAPE  H17R15288   4.101   1.869   9.748 -0.8902  1.9097  0.5456
  140SAPE  H17S15289   4.199   1.855   9.604  0.9218  1.3122 -1.6944
  140SAPE  C21815290   4.011   1.962   9.564  0.2466 -0.4595 -0.3293
  140SAPE  H18R15291   4.030   2.034   9.482  1.3075  2.7127  2.4609
  140SAPE  H18S15292   3.941   2.016   9.632  0.3515  0.3319 -0.8487
  140SAPE  C21915293   3.953   1.834   9.507 -0.1015  0.4805 -0.0600
  140SAPE  H19R15294   3.917   1.773   9.592  1.2736 -1.8723 -1.0781
  140SAPE  H19S15295   4.030   1.774   9.453  0.7274  1.9782 -0.6116
  140SAPE  C22015296   3.834   1.866   9.412 -0.7012 -0.0935 -0.1756
  140SAPE  H20R15297   3.770   1.940   9.466  0.0386 -1.0259  2.1120
  140SAPE  H20S15298   3.771   1.783   9.374 -1.9444  0.1146  1.3380
  140SAPE  H20T15299   3.881   1.908   9.321  0.2105  0.5976  0.5951
  140SAPE   C3315300   5.147   2.182  10.155 -0.1636  1.2021  0.1234
  140SAPE   H3X15301   5.095   2.086  10.174 -0.5820  1.7604  2.0143
  140SAPE   H3Y15302   5.257   2.175  10.141  0.4162  2.2615  3.3693
  140SAPE   C3415303   5.083   2.244  10.027 -0.6480  0.1379  0.3577
  140SAPE   H4X15304   5.145   2.333  10.005 -0.3469  0.0316  0.7443
  140SAPE   H4Y15305   4.979   2.281  10.030 -0.7719  0.3137 -3.0009
  140SAPE   C3515306   5.083   2.146   9.907 -0.3095  0.2418 -1.1668
  140SAPE   H5X15307   4.994   2.081   9.919  0.1918 -0.0647  1.6539
  140SAPE   H5Y15308   5.180   2.093   9.918 -0.0915  0.6933 -0.9306
  140SAPE   C3615309   5.088   2.227   9.786 -0.3993  0.3073  0.5695
  140SAPE   H6X15310   5.187   2.275   9.773 -0.0031  0.2379  2.9261
  140SAPE   H6Y15311   5.008   2.303   9.771  0.6964  1.0530 -2.0125
  140SAPE   C3715312   5.082   2.136   9.660 -0.3925  0.0875  0.2547
  140SAPE   H7X15313   5.171   2.069   9.659  0.2216  0.8877 -0.3207
  140SAPE   H7Y15314   5.087   2.196   9.567 -0.6034 -1.0641 -0.5114
  140SAPE   C3815315   4.953   2.054   9.645  0.9427 -0.0966  0.3759
  140SAPE   H8X15316   4.937   1.979   9.725  2.9618  0.4354  1.3405
  140SAPE   H8Y15317   4.970   1.998   9.550  0.8540  0.3853  0.0700
  140SAPE   C3915318   4.822   2.136   9.638  0.0078 -0.0398  0.4334
  140SAPE   H9X15319   4.828   2.217   9.562  1.4176 -2.5192 -2.2965
  140SAPE   H9Y15320   4.812   2.180   9.740  0.2237  0.3480  0.2883
  140SAPE  C31015321   4.695   2.051   9.618  0.0084  0.0429  0.8363
  140SAPE  H10X15322   4.611   2.124   9.623  1.5617  1.9127  0.8371
  140SAPE  H10Y15323   4.683   1.976   9.699  2.2713 -0.6016  0.6399
  140SAPE  C31115324   4.698   1.966   9.487 -0.4048 -0.0996  0.2597
  140SAPE  H11X15325   4.595   1.923   9.494  0.1436 -1.2757  2.0538
  140SAPE  H11Y15326   4.762   1.876   9.499 -0.6892 -0.6546 -2.0556
  140SAPE  C31215327   4.729   2.042   9.359  0.1984  0.0759  0.0399
  140SAPE  H12X15328   4.838   2.059   9.366  0.1994 -0.1428  0.6573
  140SAPE  H12Y15329   4.681   2.142   9.352  1.3560  0.6143 -0.3870
  140SAPE  C31315330   4.679   1.961   9.236 -0.3962  0.5925 -0.1627
  140SAPE  H13X15331   4.571   1.942   9.246 -0.6110  0.8190 -1.7013
  140SAPE  H13Y15332   4.735   1.865   9.232 -2.4948 -0.7675  1.2664
  140SAPE  C31415333   4.694   2.033   9.102 -0.3623 -0.6179 -0.2960
  140SAPE  H14X15334   4.798   2.070   9.093 -0.4870 -0.2438 -0.1897
  140SAPE  H14Y15335   4.628   2.121   9.116  0.8434  0.4769 -1.2368
  140SAPE  C31515336   4.667   1.944   8.983  0.1757  0.3335 -0.4521
  140SAPE  H15X15337   4.566   1.901   9.001  0.1270 -0.0893 -1.6173
  140SAPE  H15Y15338   4.746   1.865   8.979  0.0306 -0.2944  3.8427
  140SAPE  C31615339   4.658   2.029   8.857 -0.8182  0.0862  0.3216
  140SAPE  H16X15340   4.761   2.059   8.830  0.2932 -0.9481  3.0521
  140SAPE  H16Y15341   4.595   2.121   8.862  0.7241  1.4839 -2.8796
  140SAPE  C31715342   4.601   1.954   8.736  0.3558  0.7764  0.1898
  140SAPE  H17X15343   4.676   1.875   8.712 -2.6496 -1.8857 -1.1174
  140SAPE  H17Y15344   4.586   2.037   8.664  0.5079 -1.5412 -2.6640
  140SAPE  C31815345   4.461   1.880   8.755 -0.0593 -0.4043  0.0867
  140SAPE  H18X15346   4.370   1.944   8.753  0.9966  1.1441  0.1378
  140SAPE  H18Y15347   4.461   1.819   8.847 -1.0862 -0.9147 -0.2314
  140SAPE  H18Z15348   4.443   1.818   8.665 -1.3569 -1.8891  1.3084
  141SAPE     N15349   2.745   3.798  10.610 -0.4835  0.1044  0.0497
  141SAPE   HN115350   2.742   3.784  10.713 -2.6226  0.7828  0.1117
  141SAPE   HN215351   2.832   3.843  10.575 -0.3758  0.8584  1.2402
  141SAPE   HN315352   2.669   3.861  10.580 -0.6336 -0.4877 -0.8858
  141SAPE   C1215353   2.719   3.671  10.545 -0.0033 -0.4677 -0.4961
  141SAPE  H12A15354   2.804   3.600  10.543  2.0074  1.8230 -1.6475
  141SAPE  H12B15355   2.692   3.703  10.442 -2.0862 -1.5200 -0.3299
  141SAPE   C1115356   2.605   3.593  10.615  0.2571  0.6241  0.0148
  141SAPE  H11A15357   2.602   3.497  10.561  0.0608  0.4543  0.3268
  141SAPE  H11B15358   2.510   3.650  10.605  1.1426  2.0964 -0.4701
  141SAPE     P15359   2.728   3.474  10.812 -0.2576 -0.2392  0.3583
  141SAPE   O1315360   2.862   3.532  10.806 -0.0004  0.0250  0.0819
  141SAPE   O1415361   2.672   3.413  10.940  0.2441 -0.2763  0.6498
  141SAPE   O1215362   2.624   3.574  10.751 -0.7036 -0.1434 -0.7540
  141SAPE   O1115363   2.725   3.358  10.706  1.0064  0.4053 -0.1166
  141SAPE    C115364   2.823   3.258  10.702 -0.0574 -0.5326  0.1301
  141SAPE    HA15365   2.909   3.270  10.771 -0.5101 -0.8140  0.7572
  141SAPE    HB15366   2.769   3.164  10.727 -3.0270  1.3921  1.4523
  141SAPE    C215367   2.898   3.248  10.571 -0.1240  0.7540  0.2002
  141SAPE    HS15368   2.956   3.155  10.590  0.0280  0.5179 -1.3402
  141SAPE   O2115369   2.974   3.366  10.542  0.4893  0.3281  0.1341
  141SAPE   C2115370   3.098   3.364  10.589  0.2464 -0.2107  0.3175
  141SAPE   O2215371   3.145   3.289  10.668 -0.3951  0.1971 -0.1047
  141SAPE   C2215372   3.175   3.480  10.520  0.3547 -0.0290 -0.0320
  141SAPE   H2R15373   3.153   3.472  10.411  2.1067 -0.9547 -0.3615
  141SAPE   H2S15374   3.138   3.569  10.575  1.3392  1.4285 -1.6407
  141SAPE    C315375   2.786   3.235  10.463 -0.1129  0.1248 -0.3754
  141SAPE    HX15376   2.736   3.333  10.444 -1.1387 -0.0984  1.0408
  141SAPE    HY15377   2.706   3.171  10.506  0.1269  1.1487  1.7535
  141SAPE   O3115378   2.841   3.181  10.339  0.0393  0.2660 -0.2892
  141SAPE   C3115379   2.755   3.161  10.243 -0.1249  0.2049  0.3957
  141SAPE   O3215380   2.632   3.169  10.252 -0.1395 -0.1096 -0.3156
  141SAPE   C3215381   2.835   3.137  10.113 -0.0543 -0.5759 -0.4939
  141SAPE   H2X15382   2.899   3.046  10.119  0.5779 -0.1943 -1.2915
  141SAPE   H2Y15383   2.892   3.231  10.102 -1.7743  0.5904  0.2546
  141SAPE   C2315384   3.334   3.466  10.512 -0.6798  0.5774 -0.8419
  141SAPE   H3R15385   3.350   3.366  10.465 -1.4002  0.8911 -1.8010
  141SAPE   H3S15386   3.383   3.472  10.611 -0.2492 -2.0648 -0.8223
  141SAPE   C2415387   3.381   3.570  10.410  0.2340 -0.1454  0.2629
  141SAPE   H4R15388   3.322   3.660  10.436  0.1129  0.3513 -1.5468
  141SAPE   H4S15389   3.349   3.533  10.310 -1.3670 -0.3280  0.8124
  141SAPE   C2515390   3.530   3.605  10.410  0.3889 -0.9897 -0.3994
  141SAPE   H5R15391   3.559   3.661  10.500 -0.6881 -0.2233 -0.5099
  141SAPE   C2615392   3.614   3.573  10.317 -0.1597 -0.3412 -0.4125
  141SAPE   H6R15393   3.721   3.595  10.330 -0.0651 -0.5174 -0.8721
  141SAPE   C2715394   3.574   3.496  10.191 -0.0699  0.0625 -1.0024
  141SAPE   H7R15395   3.482   3.551  10.160 -0.0605  0.6230 -0.0605
  141SAPE   H7S15396   3.551   3.391  10.219  0.8747 -0.7900 -3.2031
  141SAPE   C2815397   3.694   3.503  10.098 -0.2242  0.1860 -0.6307
  141SAPE   H8R15398   3.791   3.476  10.142 -0.5232 -0.2943 -0.2547
  141SAPE   C2915399   3.685   3.525   9.963 -0.1601  0.2324 -0.3864
  141SAPE   H9R15400   3.777   3.525   9.903  0.0923 -0.1422 -0.0079
  141SAPE  C21015401   3.564   3.551   9.878  0.8050  0.2062 -0.4822
  141SAPE  H10R15402   3.487   3.605   9.937  2.2114 -0.0786  1.7297
  141SAPE  H10S15403   3.519   3.452   9.854  1.4963 -0.7651  1.8288
  141SAPE  C21115404   3.601   3.635   9.757  0.2461  0.2549  0.3980
  141SAPE  H11R15405   3.658   3.727   9.774  0.1342  0.5862 -0.9194
  141SAPE  C21215406   3.572   3.621   9.625  0.2378  0.7655 -0.4935
  141SAPE  H12R15407   3.605   3.697   9.552 -2.9579  1.4963 -1.3176
  141SAPE  C21315408   3.493   3.501   9.567 -0.4797  0.2661  0.3095
  141SAPE  H13R15409   3.398   3.528   9.516 -1.7284 -1.7115  1.4154
  141SAPE  H13S15410   3.459   3.435   9.650  0.1950 -3.8641 -2.4526
  141SAPE  C21415411   3.573   3.416   9.481 -0.3862 -0.1122 -0.2516
  141SAPE  H14R15412   3.579   3.310   9.509  0.9056  0.1621  0.6084
  141SAPE  C21515413   3.640   3.449   9.370  0.0691 -0.4788  0.5669
  141SAPE  H15R15414   3.695   3.369   9.319  0.1524 -1.1813  1.7122
  141SAPE  C21615415   3.654   3.573   9.287  0.4710  0.3048 -1.9199
  141SAPE  H16R15416   3.755   3.616   9.307  0.1243  1.5727 -2.7775
  141SAPE  H16S15417   3.577   3.649   9.311 -0.1979 -0.6605 -0.9284
  141SAPE  C21715418   3.635   3.532   9.142 -0.1515 -0.5321 -0.0525
  141SAPE  H17R15419   3.534   3.490   9.129  0.4735 -2.4873  0.9892
  141SAPE  H17S15420   3.714   3.460   9.112  1.2598  1.3828 -1.1937
  141SAPE  C21815421   3.669   3.652   9.045 -0.6029  0.2463  0.2680
  141SAPE  H18R15422   3.779   3.665   9.048 -0.7520  1.4261  2.8060
  141SAPE  H18S15423   3.615   3.738   9.090  1.5833  1.3978  0.7873
  141SAPE  C21915424   3.631   3.644   8.896  0.6578 -0.2353 -0.3105
  141SAPE  H19R15425   3.671   3.720   8.826 -0.1102 -2.0533 -2.8588
  141SAPE  H19S15426   3.522   3.661   8.910  1.0747  1.8194  0.7982
  141SAPE  C22015427   3.662   3.499   8.835 -0.4107  0.5748  0.7558
  141SAPE  H20R15428   3.621   3.424   8.906  0.7612 -0.1193  0.7154
  141SAPE  H20S15429   3.771   3.478   8.840 -0.0413  2.3434  0.6836
  141SAPE  H20T15430   3.619   3.479   8.734 -0.6743  2.3715  0.4726
  141SAPE   C3315431   2.736   3.127   9.994 -0.4617 -0.1200 -0.8249
  141SAPE   H3X15432   2.670   3.216   9.987 -1.3697 -0.6814  0.2257
  141SAPE   H3Y15433   2.666   3.045  10.020  0.4484 -1.1046 -1.4091
  141SAPE   C3415434   2.801   3.096   9.856  0.2870  0.6212 -0.1268
  141SAPE   H4X15435   2.841   2.992   9.853  1.6932  0.9913  2.4886
  141SAPE   H4Y15436   2.885   3.168   9.841 -1.2558  2.8082  1.2045
  141SAPE   C3515437   2.713   3.108   9.735 -0.0497 -0.1978  0.0220
  141SAPE   H5X15438   2.652   3.201   9.734  2.9968  1.9375 -0.2405
  141SAPE   H5Y15439   2.628   3.037   9.735 -0.3462  0.1517 -0.2357
  141SAPE   C3615440   2.782   3.073   9.599  0.2926  0.5636 -0.0287
  141SAPE   H6X15441   2.814   2.966   9.604  1.0005  0.7606 -0.2258
  141SAPE   H6Y15442   2.868   3.140   9.578  1.8759 -1.2935  0.2120
  141SAPE   C3715443   2.697   3.092   9.470  0.1661  0.0606 -0.8672
  141SAPE   H7X15444   2.646   3.191   9.467 -1.2431 -0.5356  1.0638
  141SAPE   H7Y15445   2.621   3.012   9.482 -0.5808  0.8450 -0.2020
  141SAPE   C3815446   2.766   3.057   9.338  0.0036  0.3184 -0.0546
  141SAPE   H8X15447   2.813   2.961   9.369  0.2842  0.1119 -1.0878
  141SAPE   H8Y15448   2.850   3.129   9.325 -0.3091  0.8424  0.7668
  141SAPE   C3915449   2.673   3.036   9.214 -0.2927  0.1573 -0.3276
  141SAPE   H9X15450   2.646   3.134   9.169  0.6628  0.8257  0.4940
  141SAPE   H9Y15451   2.579   2.984   9.244  0.2601  0.3420  1.8886
  141SAPE  C31015452   2.735   2.953   9.099  0.2935  0.5631  0.2370
  141SAPE  H10X15453   2.655   2.902   9.042 -0.6552 -0.2379  2.1974
  141SAPE  H10Y15454   2.794   2.870   9.143  0.8672  0.3825 -0.8460
  141SAPE  C31115455   2.826   3.039   9.009  0.3446  0.2847 -0.0407
  141SAPE  H11X15456   2.923   3.056   9.061 -0.1612  0.4815  0.8505
  141SAPE  H11Y15457   2.776   3.135   8.984  0.3088 -0.1546 -1.8493
  141SAPE  C31215458   2.854   2.969   8.870 -0.1154  0.1743 -0.2056
  141SAPE  H12X15459   2.913   3.045   8.814 -0.9081  0.6271 -0.4461
  141SAPE  H12Y15460   2.763   2.942   8.812  1.2069 -1.1197 -1.7932
  141SAPE  C31315461   2.923   2.833   8.885  0.2978  0.3555  0.6045
  141SAPE  H13X15462   2.844   2.754   8.885  1.8233 -1.2299  1.4132
  141SAPE  H13Y15463   2.979   2.823   8.980 -1.1498 -1.9280  1.3093
  141SAPE  C31415464   3.004   2.792   8.756 -0.6843  0.4724 -0.4309
  141SAPE  H14X15465   2.937   2.789   8.668 -0.3052 -1.2531 -0.6979
  141SAPE  H14Y15466   3.029   2.685   8.776  1.9073  0.6263 -2.3317
  141SAPE  C31515467   3.141   2.852   8.725 -0.3095 -0.5113 -0.7728
  141SAPE  H15X15468   3.208   2.833   8.812  1.0242  1.6612 -1.2517
  141SAPE  H15Y15469   3.127   2.960   8.704  0.1147 -0.9080 -3.4907
  141SAPE  C31615470   3.200   2.784   8.605 -0.0909  0.4885 -0.3986
  141SAPE  H16X15471   3.179   2.674   8.608  0.0983  0.3717 -2.3703
  141SAPE  H16Y15472   3.310   2.797   8.610 -0.2210  1.3694  0.3969
  141SAPE  C31715473   3.133   2.837   8.467 -0.8204  0.3501  0.7141
  141SAPE  H17X15474   3.153   2.945   8.450 -0.3988  0.0863 -0.5480
  141SAPE  H17Y15475   3.022   2.831   8.470 -0.8537  0.9168  0.6432
  141SAPE  C31815476   3.187   2.749   8.351  0.3702 -0.4958  0.1018
  141SAPE  H18X15477   3.292   2.776   8.326  0.5921 -1.2128  0.2344
  141SAPE  H18Y15478   3.132   2.765   8.256  1.8359  1.1581 -0.5313
  141SAPE  H18Z15479   3.178   2.641   8.373 -2.0178 -0.1927  0.8759
  142SAPE     N15480   4.497   0.501  10.870 -0.0531  0.4294 -0.4942
  142SAPE   HN115481   4.557   0.431  10.822 -0.5424 -2.0893  2.2582
  142SAPE   HN215482   4.399   0.466  10.861 -0.0851  0.4799 -0.3392
  142SAPE   HN315483   4.489   0.595  10.828  1.6352  1.7753  1.9523
  142SAPE   C1215484   4.530   0.523  11.009 -0.5837  0.4881 -0.7973
  142SAPE  H12A15485   4.516   0.424  11.058  0.1056  1.2554  1.0245
  142SAPE  H12B15486   4.472   0.605  11.058  0.0261  0.1307  0.5751
  142SAPE   C1115487   4.687   0.535  11.030  0.2731 -0.5187  0.2209
  142SAPE  H11A15488   4.712   0.537  11.138  1.2168 -1.6280  0.0346
  142SAPE  H11B15489   4.706   0.632  10.979 -2.1484  0.1325  0.4187
  142SAPE     P15490   4.889   0.419  10.905 -0.2284  0.0943 -0.0698
  142SAPE   O1315491   4.995   0.463  10.998 -0.3841  0.3596 -0.3395
  142SAPE   O1415492   4.922   0.285  10.849 -0.2575 -0.1575 -0.1266
  142SAPE   O1215493   4.751   0.419  10.983 -0.1479  0.1841  0.3279
  142SAPE   O1115494   4.868   0.522  10.787 -0.5351  0.0736 -0.2993
  142SAPE    C115495   4.796   0.512  10.668 -0.3545  0.2402 -0.1828
  142SAPE    HA15496   4.761   0.408  10.653 -2.5044  0.0589  4.3141
  142SAPE    HB15497   4.716   0.590  10.669  2.1944  3.0267  0.2418
  142SAPE    C215498   4.896   0.550  10.549  0.6100  0.0443  0.6806
  142SAPE    HS15499   4.905   0.661  10.560 -0.4465 -0.0641  3.4613
  142SAPE   O2115500   4.850   0.508  10.419 -0.4671 -0.5825  0.2021
  142SAPE   C2115501   4.754   0.580  10.369  0.0430  0.8305 -0.1671
  142SAPE   O2215502   4.705   0.680  10.415 -0.4266 -0.7230  0.0342
  142SAPE   C2215503   4.723   0.521  10.229 -0.1659  0.5319  0.5989
  142SAPE   H2R15504   4.701   0.412  10.240  1.0001  0.3364  1.0971
  142SAPE   H2S15505   4.623   0.564  10.207 -0.5007 -0.3474  0.3337
  142SAPE    C315506   5.040   0.500  10.579  0.3882  0.0321  0.0853
  142SAPE    HX15507   5.037   0.391  10.558  3.1493  0.3118 -2.4176
  142SAPE    HY15508   5.072   0.531  10.681 -1.6892  1.7459  0.2888
  142SAPE   O3115509   5.132   0.555  10.483  0.0879  0.0627 -0.1144
  142SAPE   C3115510   5.263   0.518  10.497 -0.0825 -0.3747 -0.1839
  142SAPE   O3215511   5.307   0.444  10.583 -0.1113  0.3704 -0.0645
  142SAPE   C3215512   5.347   0.572  10.376 -0.4529  0.6193 -0.0251
  142SAPE   H2X15513   5.437   0.506  10.379 -1.6776 -1.0886  1.1375
  142SAPE   H2Y15514   5.381   0.669  10.417  1.7832 -0.4647  0.9188
  142SAPE   C2315515   4.831   0.540  10.123  0.2944 -0.3870 -0.1067
  142SAPE   H3R15516   4.791   0.488  10.033 -1.4998  0.3174  0.2386
  142SAPE   H3S15517   4.925   0.496  10.161 -0.3757 -0.9773  0.9437
  142SAPE   C2415518   4.847   0.692  10.101  0.0230  0.2483  0.1346
  142SAPE   H4R15519   4.908   0.704  10.009 -1.9108 -0.3403 -1.2798
  142SAPE   H4S15520   4.910   0.747  10.174  0.3058  0.9400 -0.6069
  142SAPE   C2515521   4.725   0.773  10.067  0.6942  0.2392 -0.2790
  142SAPE   H5R15522   4.672   0.808  10.156 -1.1491 -0.3107 -1.1041
  142SAPE   C2615523   4.667   0.794   9.944 -0.1406 -0.3410 -0.2725
  142SAPE   H6R15524   4.596   0.877   9.933  0.7059  0.3943 -0.3313
  142SAPE   C2715525   4.721   0.746   9.811  0.1176  0.5829 -0.1862
  142SAPE   H7R15526   4.798   0.667   9.817 -0.2647  0.2953  1.2939
  142SAPE   H7S15527   4.759   0.832   9.752 -0.1568  0.6859 -0.2137
  142SAPE   C2815528   4.612   0.679   9.731 -0.2634  0.6286 -0.0370
  142SAPE   H8R15529   4.527   0.650   9.794  1.0727 -0.0980  1.4978
  142SAPE   C2915530   4.613   0.646   9.599  0.3731  0.8806 -0.4090
  142SAPE   H9R15531   4.527   0.592   9.559  0.2722 -0.1496  1.1394
  142SAPE  C21015532   4.724   0.667   9.499  0.0251  0.2118 -0.1858
  142SAPE  H10R15533   4.824   0.653   9.546 -0.8207 -0.5896  1.4574
  142SAPE  H10S15534   4.716   0.769   9.456  3.2294  0.0923 -1.3393
  142SAPE  C21115535   4.717   0.566   9.393  0.7785 -0.1720  0.0695
  142SAPE  H11R15536   4.687   0.465   9.426  0.6879  0.3357  1.6262
  142SAPE  C21215537   4.736   0.588   9.261  0.2607  0.0705  0.0950
  142SAPE  H12R15538   4.728   0.507   9.187  1.3622  1.1636 -1.2751
  142SAPE  C21315539   4.771   0.716   9.195  0.2176  0.5398  0.0409
  142SAPE  H13R15540   4.824   0.787   9.263  0.6909  1.1207 -0.9195
  142SAPE  H13S15541   4.682   0.773   9.160  0.1235 -0.2615 -1.0613
  142SAPE  C21415542   4.864   0.693   9.080 -0.1162  0.1192  0.6232
  142SAPE  H14R15543   4.964   0.654   9.102  1.2361  1.0990 -3.0675
  142SAPE  C21515544   4.840   0.721   8.948 -0.4804  0.0939  0.5456
  142SAPE  H15R15545   4.914   0.695   8.871  0.2079  1.9276  0.5436
  142SAPE  C21615546   4.720   0.775   8.885 -0.4963 -0.5648  0.0944
  142SAPE  H16R15547   4.668   0.855   8.941  2.4422  3.3451 -2.2141
  142SAPE  H16S15548   4.643   0.702   8.851 -0.3344 -0.3329 -0.7930
  142SAPE  C21715549   4.760   0.849   8.758  0.0579 -1.0658  0.8828
  142SAPE  H17R15550   4.742   0.777   8.676  1.4213 -1.7130  1.1333
  142SAPE  H17S15551   4.864   0.887   8.760  0.4693 -2.1286  3.3688
  142SAPE  C21815552   4.674   0.975   8.741 -0.5220  0.4783 -0.5845
  142SAPE  H18R15553   4.718   1.045   8.815 -0.5319  2.0255 -1.9912
  142SAPE  H18S15554   4.568   0.955   8.765 -0.9378  1.7861 -1.2180
  142SAPE  C21915555   4.678   1.042   8.597 -0.2799 -0.2203  0.0798
  142SAPE  H19R15556   4.608   1.128   8.609 -0.5152 -0.5045  0.8793
  142SAPE  H19S15557   4.632   0.969   8.527 -0.4892  1.0534 -1.1500
  142SAPE  C22015558   4.812   1.091   8.547 -0.6498  0.3045  0.0279
  142SAPE  H20R15559   4.800   1.132   8.445 -0.8591 -1.7582 -0.8346
  142SAPE  H20S15560   4.887   1.010   8.559  0.3290  1.0473 -0.9028
  142SAPE  H20T15561   4.859   1.167   8.613  2.9422 -2.7776  1.4182
  142SAPE   C3315562   5.264   0.592  10.246  0.2036 -0.9773 -0.1035
  142SAPE   H3X15563   5.198   0.677  10.270 -0.4102 -1.1239 -1.2178
  142SAPE   H3Y15564   5.198   0.508  10.218 -0.6383 -0.8763  1.4766
  142SAPE   C3415565   5.348   0.646  10.126 -0.6868 -0.1879 -0.0807
  142SAPE   H4X15566   5.423   0.564  10.117  0.4051  0.9438 -2.0811
  142SAPE   H4Y15567   5.403   0.739  10.150 -1.2077  0.1289 -0.1005
  142SAPE   C3515568   5.273   0.669   9.995 -0.3277 -0.4878 -0.2698
  142SAPE   H5X15569   5.187   0.738  10.007 -0.9008 -1.0670 -0.9866
  142SAPE   H5Y15570   5.233   0.569   9.969  2.2074 -1.3973 -0.9190
  142SAPE   C3615571   5.352   0.742   9.891 -0.1909 -0.2772  0.3369
  142SAPE   H6X15572   5.450   0.694   9.873 -0.0445  0.1601 -0.0431
  142SAPE   H6Y15573   5.383   0.843   9.928 -3.1906  0.6100  0.7204
  142SAPE   C3715574   5.282   0.762   9.758 -0.1485 -0.8469 -0.2056
  142SAPE   H7X15575   5.184   0.815   9.765  1.5177  2.3994  0.3811
  142SAPE   H7Y15576   5.260   0.660   9.718 -3.7478 -0.0534 -0.6230
  142SAPE   C3815577   5.364   0.844   9.657 -0.8013 -0.0069 -0.5953
  142SAPE   H8X15578   5.463   0.800   9.632 -1.6540 -1.7922 -0.9363
  142SAPE   H8Y15579   5.385   0.946   9.697 -0.9219 -0.0907 -0.3140
  142SAPE   C3915580   5.306   0.858   9.511  0.5368 -0.5446 -1.1850
  142SAPE   H9X15581   5.359   0.941   9.459 -0.0685  0.7928  0.2521
  142SAPE   H9Y15582   5.202   0.894   9.515  0.8234  0.2080  1.0697
  142SAPE  C31015583   5.320   0.736   9.412 -0.6776  0.3542 -0.5091
  142SAPE  H10X15584   5.278   0.645   9.461 -0.3303  1.1588  1.3622
  142SAPE  H10Y15585   5.426   0.709   9.393 -1.3375 -2.3698 -0.8345
  142SAPE  C31115586   5.246   0.752   9.283  0.4499 -0.4377  0.5799
  142SAPE  H11X15587   5.141   0.790   9.287 -0.0803 -1.9463  2.8592
  142SAPE  H11Y15588   5.236   0.652   9.235 -2.9268 -0.2221  0.5614
  142SAPE  C31215589   5.322   0.846   9.186  0.1685  0.7780  0.2707
  142SAPE  H12X15590   5.429   0.816   9.183 -0.3698 -1.2632 -0.2051
  142SAPE  H12Y15591   5.311   0.953   9.214 -0.7401  0.6288  0.5295
  142SAPE  C31315592   5.267   0.820   9.044  0.2280 -0.9146 -0.6140
  142SAPE  H13X15593   5.168   0.868   9.032  0.6591  0.4408  0.8264
  142SAPE  H13Y15594   5.244   0.713   9.026  1.4124 -1.3104  0.0835
  142SAPE  C31415595   5.375   0.858   8.935 -0.2447 -0.0395  0.3803
  142SAPE  H14X15596   5.343   0.827   8.833 -0.2071 -0.8082  0.5999
  142SAPE  H14Y15597   5.473   0.811   8.959 -0.6150 -2.0637 -1.7061
  142SAPE  C31515598   5.405   1.015   8.940 -0.1711 -0.5902  0.1812
  142SAPE  H15X15599   5.469   1.044   9.025  0.0605 -1.5036  0.3319
  142SAPE  H15Y15600   5.306   1.065   8.946 -0.9358 -2.2043  2.2877
  142SAPE  C31615601   5.475   1.071   8.810 -0.1789  0.3058 -0.4605
  142SAPE  H16X15602   5.407   1.045   8.726  1.0520 -0.1768 -1.3528
  142SAPE  H16Y15603   5.576   1.026   8.796 -0.1955  0.7155 -2.2079
  142SAPE  C31715604   5.491   1.220   8.812 -0.0210 -0.2422 -0.3315
  142SAPE  H17X15605   5.562   1.257   8.889  0.5571 -3.0674  0.6066
  142SAPE  H17Y15606   5.396   1.267   8.844  0.5745 -0.0373  1.2206
  142SAPE  C31815607   5.555   1.272   8.687  0.0934 -0.2401 -0.3092
  142SAPE  H18X15608   5.552   1.382   8.678  1.4969 -0.0868  0.8548
  142SAPE  H18Y15609   5.509   1.228   8.595 -0.4606 -0.2804 -0.0176
  142SAPE  H18Z15610   5.663   1.245   8.684  0.0179 -0.5726 -0.1010
  143SAPE     N15611   6.232   4.397  11.289 -0.2548  0.2608  0.6871
  143SAPE   HN115612   6.246   4.442  11.382 -0.2363  4.0873 -1.0060
  143SAPE   HN215613   6.310   4.334  11.262 -0.3851  0.6417 -0.6748
  143SAPE   HN315614   6.226   4.473  11.218  2.7347 -0.5571 -0.5760
  143SAPE   C1215615   6.109   4.310  11.301 -0.2358  0.2978 -0.3911
  143SAPE  H12A15616   6.019   4.367  11.335 -0.0028 -0.2062  1.1316
  143SAPE  H12B15617   6.135   4.226  11.368 -1.1592 -0.7521 -1.3140
  143SAPE   C1115618   6.083   4.249  11.162 -0.0508  0.0068  0.2951
  143SAPE  H11A15619   6.063   4.331  11.090  1.6846  0.3306  0.1375
  143SAPE  H11B15620   5.990   4.190  11.179 -1.5325  1.7517 -1.3086
  143SAPE     P15621   6.192   4.090  10.997 -0.0554 -0.0840  0.3080
  143SAPE   O1315622   6.301   3.991  11.007  0.4632 -0.1130 -0.3609
  143SAPE   O1415623   6.056   4.038  10.974  0.5003  0.1678  0.0909
  143SAPE   O1215624   6.197   4.173  11.126 -0.7680  0.1131 -0.2229
  143SAPE   O1115625   6.215   4.214  10.896  0.6299  1.3705 -0.2678
  143SAPE    C115626   6.329   4.295  10.894 -0.5929 -0.3290 -0.0824
  143SAPE    HA15627   6.299   4.396  10.931 -1.0993 -0.6373  0.3661
  143SAPE    HB15628   6.413   4.258  10.956  2.0223  2.7043 -1.5383
  143SAPE    C215629   6.383   4.300  10.753 -0.2131 -0.6523  0.8577
  143SAPE    HS15630   6.472   4.366  10.755 -0.7092  0.1032 -0.5551
  143SAPE   O2115631   6.274   4.328  10.663  0.2318  0.4530  0.0476
  143SAPE   C2115632   6.262   4.452  10.630 -1.0329  0.2129 -0.0661
  143SAPE   O2215633   6.318   4.546  10.691 -0.2600 -0.4556  1.0063
  143SAPE   C2215634   6.178   4.457  10.503 -0.0198  0.2485  0.1166
  143SAPE   H2R15635   6.106   4.373  10.494 -1.3015  1.4952 -2.0067
  143SAPE   H2S15636   6.129   4.554  10.528  0.8056  0.7197 -0.0436
  143SAPE    C315637   6.450   4.158  10.709  1.3292 -0.0573  0.0420
  143SAPE    HX15638   6.368   4.086  10.728  0.2861  1.3363  1.0881
  143SAPE    HY15639   6.534   4.154  10.781  0.2323  0.8356  1.4204
  143SAPE   O3115640   6.494   4.166  10.575  0.1859  0.0773 -0.2324
  143SAPE   C3115641   6.573   4.063  10.539 -0.0293 -0.2760  0.1974
  143SAPE   O3215642   6.611   3.971  10.610 -0.0666 -0.4839 -0.1224
  143SAPE   C3215643   6.610   4.080  10.390  0.3751 -0.1318 -0.6970
  143SAPE   H2X15644   6.611   4.190  10.370 -3.1385 -0.1528 -1.6279
  143SAPE   H2Y15645   6.523   4.040  10.334 -0.3474  0.6461 -0.1601
  143SAPE   C2315646   6.258   4.486  10.375  0.0574 -0.2415  0.2861
  143SAPE   H3R15647   6.316   4.394  10.352  1.9012  0.4365  1.9500
  143SAPE   H3S15648   6.333   4.568  10.381 -1.0640  1.1424 -2.5425
  143SAPE   C2415649   6.158   4.529  10.259 -0.3011 -0.2070 -0.3570
  143SAPE   H4R15650   6.214   4.603  10.197  1.7156  0.2612  1.8603
  143SAPE   H4S15651   6.072   4.588  10.298  0.7114  1.7256 -0.8894
  143SAPE   C2515652   6.094   4.418  10.177  0.2794  0.3875 -0.5120
  143SAPE   H5R15653   6.038   4.351  10.243  1.9459 -1.2427 -0.6795
  143SAPE   C2615654   6.097   4.396  10.043 -0.2664 -0.8378 -0.3706
  143SAPE   H6R15655   6.043   4.309  10.002 -0.9527 -0.3717 -0.4668
  143SAPE   C2715656   6.178   4.478   9.945 -0.0523  0.0550  0.2619
  143SAPE   H7R15657   6.263   4.414   9.914  0.2460  1.0626 -1.0913
  143SAPE   H7S15658   6.219   4.570   9.992  0.3157 -1.0016  2.0912
  143SAPE   C2815659   6.084   4.514   9.826 -1.3176 -0.0150  0.3501
  143SAPE   H8R15660   5.984   4.545   9.862 -1.1428  3.2725 -1.5050
  143SAPE   C2915661   6.114   4.507   9.692  0.4949  0.2061  0.1787
  143SAPE   H9R15662   6.028   4.513   9.624 -0.5993  1.3064  1.5944
  143SAPE  C21015663   6.255   4.474   9.638  0.4141  0.0229 -0.3057
  143SAPE  H10R15664   6.245   4.405   9.552 -0.8113  0.1502 -0.2849
  143SAPE  H10S15665   6.324   4.430   9.713  0.8877  0.6985 -0.3355
  143SAPE  C21115666   6.315   4.605   9.593 -0.3085  0.2476 -0.0431
  143SAPE  H11R15667   6.405   4.646   9.640 -1.9090  1.3819  2.2297
  143SAPE  C21215668   6.289   4.656   9.469  0.1463  0.0630 -0.3013
  143SAPE  H12R15669   6.334   4.748   9.430  0.8993 -0.1182  0.1065
  143SAPE  C21315670   6.192   4.603   9.360  0.4704 -0.0594 -0.1238
  143SAPE  H13R15671   6.130   4.689   9.327  1.9338  1.0910  0.0293
  143SAPE  H13S15672   6.103   4.539   9.382 -0.6107  2.0892  2.1983
  143SAPE  C21415673   6.263   4.556   9.234 -0.5080 -0.8511  0.7949
  143SAPE  H14R15674   6.373   4.551   9.234 -0.5362 -3.0301 -0.6293
  143SAPE  C21515675   6.195   4.511   9.125 -0.0537  0.2759  0.2474
  143SAPE  H15R15676   6.253   4.486   9.036  0.7608  2.3638  0.1283
  143SAPE  C21615677   6.047   4.498   9.118 -0.2303  0.0356 -0.1703
  143SAPE  H16R15678   5.995   4.559   9.195  0.6313  1.4068 -0.6349
  143SAPE  H16S15679   6.032   4.390   9.140  0.9632 -0.3075 -0.9500
  143SAPE  C21715680   5.983   4.529   8.978  0.4693  0.1060  0.3785
  143SAPE  H17R15681   5.998   4.639   8.975  2.7313 -0.1029  1.8996
  143SAPE  H17S15682   5.873   4.517   8.990  0.5465 -1.6649 -0.4126
  143SAPE  C21815683   6.031   4.452   8.860 -0.7411  0.3627  0.6855
  143SAPE  H18R15684   6.030   4.344   8.886 -1.0115 -0.1026 -1.1394
  143SAPE  H18S15685   6.132   4.482   8.825 -1.1986 -0.4659 -1.4406
  143SAPE  C21915686   5.950   4.468   8.735  0.6890 -0.0454  0.2088
  143SAPE  H19R15687   5.850   4.431   8.767  1.7428 -2.4051  1.0217
  143SAPE  H19S15688   5.987   4.401   8.654  1.8778  0.9910 -0.1404
  143SAPE  C22015689   5.961   4.612   8.684  0.0621  0.0164 -0.1856
  143SAPE  H20R15690   5.913   4.628   8.585  1.3074  2.5905 -0.4545
  143SAPE  H20S15691   6.068   4.641   8.672  0.1116  0.1397  0.5238
  143SAPE  H20T15692   5.912   4.686   8.750 -0.0494  0.5108 -0.8137
  143SAPE   C3315693   6.726   3.993  10.346 -0.1702 -0.2971  0.0600
  143SAPE   H3X15694   6.704   3.891  10.385  0.9222  0.6122  3.3857
  143SAPE   H3Y15695   6.825   4.027  10.383  1.0058 -1.0550 -2.2363
  143SAPE   C3415696   6.749   3.981  10.196 -0.4867  0.8397 -0.1492
  143SAPE   H4X15697   6.663   3.925  10.152 -0.0124  2.2974 -3.1427
  143SAPE   H4Y15698   6.839   3.919  10.178 -1.3414 -1.3061  2.2199
  143SAPE   C3515699   6.767   4.116  10.123  0.0459  0.0517  0.0861
  143SAPE   H5X15700   6.862   4.165  10.154  0.9663 -0.3029 -2.0172
  143SAPE   H5Y15701   6.672   4.170  10.147  0.1454  0.0005  0.6096
  143SAPE   C3615702   6.790   4.099   9.971  0.4591 -0.1209 -0.3093
  143SAPE   H6X15703   6.808   4.202   9.932 -0.5665  0.4555  0.6569
  143SAPE   H6Y15704   6.692   4.064   9.930  0.1909  3.6460 -3.5433
  143SAPE   C3715705   6.908   4.011   9.925  0.2784 -0.1364  1.0394
  143SAPE   H7X15706   6.893   3.910   9.971 -5.9268  0.1548  0.5502
  143SAPE   H7Y15707   6.995   4.063   9.969  0.0873  0.5618  0.6023
  143SAPE   C3815708   6.916   3.994   9.772  0.0198 -0.8893  0.3280
  143SAPE   H8X15709   7.016   3.951   9.748  0.0863  0.3130 -1.8145
  143SAPE   H8Y15710   6.901   4.093   9.723  0.5905 -1.6328 -1.4618
  143SAPE   C3915711   6.810   3.905   9.709  0.3932 -0.3345  0.0713
  143SAPE   H9X15712   6.707   3.946   9.724 -0.8187 -3.6131  1.5965
  143SAPE   H9Y15713   6.811   3.805   9.756  0.8220 -1.2897 -1.8780
  143SAPE  C31015714   6.846   3.878   9.556  0.0083 -0.9206 -0.6546
  143SAPE  H10X15715   6.945   3.828   9.560  0.2597 -0.4710  3.8887
  143SAPE  H10Y15716   6.860   3.975   9.505 -2.2498 -0.5167 -0.6408
  143SAPE  C31115717   6.735   3.795   9.486 -0.2314 -0.7602  0.1556
  143SAPE  H11X15718   6.639   3.850   9.494 -0.3835 -0.7484 -1.4127
  143SAPE  H11Y15719   6.714   3.705   9.548  1.6258 -0.5230  1.2098
  143SAPE  C31215720   6.764   3.749   9.343  0.3696  0.1241  0.1767
  143SAPE  H12X15721   6.865   3.704   9.340 -1.0766 -3.3637 -0.9687
  143SAPE  H12Y15722   6.770   3.842   9.283  0.7386 -0.8632 -1.3649
  143SAPE  C31315723   6.662   3.653   9.286  0.1457  0.3723  0.7184
  143SAPE  H13X15724   6.554   3.680   9.279  0.2506  0.6507 -0.0003
  143SAPE  H13Y15725   6.660   3.560   9.346  1.3822  2.4316  4.2540
  143SAPE  C31415726   6.703   3.631   9.136  0.1676 -0.2990  0.1683
  143SAPE  H14X15727   6.810   3.602   9.132 -0.1499 -1.3767 -1.8500
  143SAPE  H14Y15728   6.690   3.729   9.084 -0.7918  0.7799  2.2893
  143SAPE  C31515729   6.616   3.522   9.075 -0.4176  0.2444  1.2637
  143SAPE  H15X15730   6.513   3.562   9.066 -1.5010 -1.9805  2.7907
  143SAPE  H15Y15731   6.640   3.438   9.144  1.3334 -0.0176  0.3902
  143SAPE  C31615732   6.661   3.485   8.934 -0.3188  0.5842 -0.2269
  143SAPE  H16X15733   6.646   3.376   8.919 -2.1317  0.6157  1.0083
  143SAPE  H16Y15734   6.770   3.500   8.925 -0.0839 -0.9947 -0.3525
  143SAPE  C31715735   6.573   3.550   8.823 -0.5868 -0.3175  0.6076
  143SAPE  H17X15736   6.578   3.659   8.848  1.6552 -0.8143  2.7347
  143SAPE  H17Y15737   6.470   3.510   8.834  0.2402 -2.3595  1.3609
  143SAPE  C31815738   6.622   3.521   8.679  0.0377 -0.3913 -0.7665
  143SAPE  H18X15739   6.599   3.422   8.634 -0.6522 -0.0614 -1.1550
  143SAPE  H18Y15740   6.725   3.557   8.659  0.2785 -0.1219  0.7886
  143SAPE  H18Z15741   6.562   3.586   8.613  0.9066 -0.0341 -1.2205
  144SAPE     N15742   0.898   2.441  11.409 -0.1905 -0.1322  0.0959
  144SAPE   HN115743   0.866   2.418  11.506 -2.0465 -0.1411 -0.4771
  144SAPE   HN215744   0.847   2.380  11.342  0.9394  0.2123 -1.1121
  144SAPE   HN315745   1.000   2.420  11.412  0.8883  4.3265  2.0160
  144SAPE   C1215746   0.871   2.586  11.379  0.2048  0.3986 -0.2051
  144SAPE  H12A15747   0.948   2.648  11.430  0.6771 -0.1429 -0.2466
  144SAPE  H12B15748   0.771   2.611  11.419  0.4633 -0.3132  0.9544
  144SAPE   C1115749   0.885   2.608  11.223 -0.0976  0.9933 -0.1989
  144SAPE  H11A15750   0.847   2.710  11.203  1.3739  1.6998  0.4931
  144SAPE  H11B15751   0.818   2.544  11.161  0.3065  1.8312 -1.5360
  144SAPE     P15752   1.112   2.696  11.134  0.1412 -0.0975  0.1407
  144SAPE   O1315753   1.136   2.810  11.230 -0.0361 -0.0828  0.0134
  144SAPE   O1415754   1.234   2.637  11.076  0.1353 -0.5590 -0.1852
  144SAPE   O1215755   1.020   2.583  11.194 -0.2142  0.1070 -0.0910
  144SAPE   O1115756   1.023   2.746  11.012  0.0275  0.0560 -0.4001
  144SAPE    C115757   0.995   2.649  10.909  0.1902  0.2224  0.4615
  144SAPE    HA15758   1.068   2.565  10.905  0.1537  0.2137 -0.0682
  144SAPE    HB15759   0.895   2.604  10.920  0.0119 -0.0494 -1.8163
  144SAPE    C215760   0.975   2.721  10.768  0.1765  0.3099  0.2446
  144SAPE    HS15761   0.936   2.822  10.794 -1.3324 -0.0005 -0.6948
  144SAPE   O2115762   0.889   2.639  10.688  0.1727  0.7580 -0.6603
  144SAPE   C2115763   0.764   2.689  10.670  1.1776 -0.0345 -0.4079
  144SAPE   O2215764   0.721   2.796  10.710  0.0768 -0.2617  0.3693
  144SAPE   C2215765   0.671   2.587  10.596 -0.3852 -0.2669  0.0228
  144SAPE   H2R15766   0.736   2.505  10.557  0.5029  0.5756 -0.3208
  144SAPE   H2S15767   0.606   2.545  10.675 -1.8369 -0.5915 -1.2999
  144SAPE    C315768   1.114   2.729  10.699  0.0283  0.0748  0.1733
  144SAPE    HX15769   1.140   2.623  10.676 -2.8441 -0.8799  0.8906
  144SAPE    HY15770   1.184   2.786  10.764  0.3290  0.2348 -0.2871
  144SAPE   O3115771   1.111   2.793  10.564  0.3186 -0.1884 -0.3432
  144SAPE   C3115772   1.119   2.925  10.562  0.9605  0.7130 -0.1170
  144SAPE   O3215773   1.143   2.990  10.664  0.2073 -0.3132  0.0950
  144SAPE   C3215774   1.105   2.987  10.425  0.1819  0.0868  0.5360
  144SAPE   H2X15775   1.193   3.047  10.394 -0.5394 -0.4797 -3.2023
  144SAPE   H2Y15776   1.019   3.058  10.422  1.7509  2.0606  0.2729
  144SAPE   C2315777   0.584   2.658  10.484  0.3629 -0.5192  0.6209
  144SAPE   H3R15778   0.518   2.727  10.541  0.6338  0.5340 -0.3072
  144SAPE   H3S15779   0.515   2.579  10.446 -0.7858  1.1371 -0.9465
  144SAPE   C2415780   0.655   2.727  10.369  0.1414  0.1571 -0.1043
  144SAPE   H4R15781   0.746   2.783  10.400  0.3957 -1.1719  1.7285
  144SAPE   H4S15782   0.593   2.800  10.313 -0.6181 -1.4372 -1.3863
  144SAPE   C2515783   0.718   2.617  10.278  0.2313 -0.5121  0.2844
  144SAPE   H5R15784   0.795   2.552  10.324 -1.8933 -1.0235  3.4680
  144SAPE   C2615785   0.695   2.600  10.144  0.4201  0.2419 -0.1884
  144SAPE   H6R15786   0.752   2.521  10.094  1.1866 -0.2276  1.3640
  144SAPE   C2715787   0.586   2.680  10.081  0.4140  0.5517  0.4600
  144SAPE   H7R15788   0.610   2.787  10.065  1.9800  0.0347 -0.8336
  144SAPE   H7S15789   0.500   2.685  10.152 -1.0324 -1.5901 -0.9977
  144SAPE   C2815790   0.526   2.616   9.957 -0.4784  0.1490  0.6043
  144SAPE   H8R15791   0.488   2.514   9.973  0.2961 -0.4558 -1.1801
  144SAPE   C2915792   0.534   2.658   9.828 -0.6774  0.6336  0.4434
  144SAPE   H9R15793   0.482   2.613   9.742 -0.8913 -0.2708  1.0289
  144SAPE  C21015794   0.608   2.784   9.782  0.9647  0.4531  0.1469
  144SAPE  H10R15795   0.671   2.819   9.867 -1.0064 -0.8360  2.2810
  144SAPE  H10S15796   0.531   2.863   9.765 -1.0643 -1.4877 -0.1213
  144SAPE  C21115797   0.686   2.764   9.657 -0.1844 -0.3535  0.5760
  144SAPE  H11R15798   0.787   2.723   9.675  0.7898  1.6479 -0.1066
  144SAPE  C21215799   0.650   2.794   9.529 -1.1317  0.0728 -0.2407
  144SAPE  H12R15800   0.726   2.759   9.457  2.3250  2.6196  1.8640
  144SAPE  C21315801   0.523   2.863   9.491  0.1845  0.7407 -0.0363
  144SAPE  H13R15802   0.546   2.961   9.444  0.9185  0.1156 -1.0371
  144SAPE  H13S15803   0.462   2.887   9.580 -3.0084  0.5478 -1.9880
  144SAPE  C21415804   0.442   2.768   9.410  0.8026 -0.2483  0.9408
  144SAPE  H14R15805   0.383   2.697   9.470  1.2356  0.2431  1.9844
  144SAPE  C21515806   0.438   2.781   9.272 -1.1032  0.5354 -0.0953
  144SAPE  H15R15807   0.370   2.710   9.223  1.1910 -1.3561 -0.7589
  144SAPE  C21615808   0.527   2.873   9.192 -0.0813 -0.4226  0.2960
  144SAPE  H16R15809   0.596   2.944   9.242 -0.0783 -1.3836  1.7429
  144SAPE  H16S15810   0.457   2.930   9.127  0.8355  1.7910  1.1514
  144SAPE  C21715811   0.631   2.800   9.100  0.4891 -0.1330 -0.0362
  144SAPE  H17R15812   0.583   2.709   9.057  0.4307 -2.3622  4.1586
  144SAPE  H17S15813   0.719   2.768   9.160  0.4850  1.6724  0.9916
  144SAPE  C21815814   0.675   2.900   8.995  1.0266  0.3700 -0.9727
  144SAPE  H18R15815   0.679   3.002   9.038  1.6600  0.6798 -1.7393
  144SAPE  H18S15816   0.611   2.901   8.904  0.7963 -0.9124 -0.8510
  144SAPE  C21915817   0.814   2.858   8.953  0.6041 -0.6546 -0.2148
  144SAPE  H19R15818   0.802   2.764   8.896  0.0540 -1.5052  1.2678
  144SAPE  H19S15819   0.879   2.848   9.042  1.1705  1.5823 -0.2988
  144SAPE  C22015820   0.875   2.965   8.859  0.5737  0.4490  0.7307
  144SAPE  H20R15821   0.806   2.983   8.774  0.4453 -0.1728  0.7039
  144SAPE  H20S15822   0.974   2.926   8.826  0.7084 -1.2293  2.8938
  144SAPE  H20T15823   0.893   3.064   8.906  2.8574  0.9587 -1.0548
  144SAPE   C3315824   1.072   2.879  10.320  0.0930  0.9258  0.1280
  144SAPE   H3X15825   0.983   2.823  10.356  1.1379  2.1787  5.7758
  144SAPE   H3Y15826   1.153   2.804  10.307 -1.2565 -0.6828  0.6623
  144SAPE   C3415827   1.043   2.949  10.188  0.3277 -0.3647 -0.1084
  144SAPE   H4X15828   1.122   2.917  10.116 -0.2962  0.8031 -1.3561
  144SAPE   H4Y15829   1.037   3.059  10.193 -0.5845 -0.3563 -1.0253
  144SAPE   C3515830   0.912   2.898  10.129 -0.1495 -0.0648  0.3399
  144SAPE   H5X15831   0.836   2.906  10.210 -0.1079  0.2024  0.3533
  144SAPE   H5Y15832   0.907   2.793  10.093  0.1565  0.0760 -0.1286
  144SAPE   C3615833   0.879   2.993  10.009  0.0295  0.4493 -0.3439
  144SAPE   H6X15834   0.869   3.098  10.047  0.2122  0.7144 -1.0147
  144SAPE   H6Y15835   0.783   2.959   9.967  0.3873  0.0654 -0.8607
  144SAPE   C3715836   0.978   2.987   9.895  0.1223  0.1605  0.7642
  144SAPE   H7X15837   0.984   2.881   9.862  0.6537 -0.3146  2.2881
  144SAPE   H7Y15838   1.085   3.009   9.911  0.1947 -0.6697  1.4708
  144SAPE   C3815839   0.921   3.063   9.773 -0.6837  0.0488 -0.0582
  144SAPE   H8X15840   0.912   3.173   9.788  0.7112  0.0868  0.5993
  144SAPE   H8Y15841   0.817   3.024   9.764 -1.4459  2.3058 -2.5134
  144SAPE   C3915842   0.997   3.033   9.642  0.2728 -0.6495 -0.4849
  144SAPE   H9X15843   0.985   2.925   9.622  0.2065 -0.9920  1.2074
  144SAPE   H9Y15844   1.105   3.048   9.664 -0.2141  0.4173  1.4313
  144SAPE  C31015845   0.934   3.106   9.521 -0.0436  0.4553  0.1393
  144SAPE  H10X15846   0.947   3.216   9.519 -1.3170  0.6591 -2.9635
  144SAPE  H10Y15847   0.825   3.085   9.519 -0.4850  2.5581  0.1328
  144SAPE  C31115848   0.984   3.049   9.384 -0.9167  0.3245  0.6331
  144SAPE  H11X15849   0.970   2.939   9.372 -1.0438  0.2896  1.0922
  144SAPE  H11Y15850   1.094   3.060   9.373 -0.8112 -0.1129  1.1430
  144SAPE  C31215851   0.904   3.106   9.265  0.9785  0.4315  0.0652
  144SAPE  H12X15852   0.796   3.087   9.285  0.8379  0.1614 -0.9145
  144SAPE  H12Y15853   0.929   3.051   9.172 -0.1658  1.1643 -0.7055
  144SAPE  C31315854   0.920   3.255   9.244  0.3089  0.0616  0.0813
  144SAPE  H13X15855   1.026   3.288   9.247  0.3114 -0.0027  2.2222
  144SAPE  H13Y15856   0.873   3.313   9.326  1.0489  0.4773  0.2237
  144SAPE  C31415857   0.855   3.320   9.109  0.4956 -0.0528 -0.2243
  144SAPE  H14X15858   0.747   3.298   9.117  0.7285 -0.5788  1.9846
  144SAPE  H14Y15859   0.900   3.269   9.021 -0.5492  0.9993 -1.4225
  144SAPE  C31515860   0.871   3.475   9.102  0.3878  0.2276  0.8640
  144SAPE  H15X15861   0.980   3.494   9.116  0.3850  1.5802 -0.6416
  144SAPE  H15Y15862   0.822   3.527   9.187  0.1131  2.0996 -0.3668
  144SAPE  C31615863   0.815   3.534   8.973  0.5435  0.5962 -0.4189
  144SAPE  H16X15864   0.704   3.530   8.970  0.5830 -0.8902 -0.5467
  144SAPE  H16Y15865   0.848   3.478   8.882 -2.8142 -0.3329 -1.1802
  144SAPE  C31715866   0.859   3.679   8.964 -0.0573 -1.2981  0.8878
  144SAPE  H17X15867   0.862   3.715   9.068  2.2020 -0.6043  0.6431
  144SAPE  H17Y15868   0.786   3.734   8.901  1.8950  0.4536  0.0167
  144SAPE  C31815869   0.998   3.682   8.895 -0.4156 -0.7094 -0.2927
  144SAPE  H18X15870   1.037   3.785   8.882 -2.1003  0.1574  1.1411
  144SAPE  H18Y15871   0.998   3.634   8.794  1.7230 -1.0574 -0.1678
  144SAPE  H18Z15872   1.075   3.623   8.948  0.8374  0.4593 -0.7454
  145SAPE     N15873   0.451   1.071  11.340 -0.0412 -0.0509  0.2214
  145SAPE   HN115874   0.413   1.097  11.433 -1.0979 -0.9942  0.0740
  145SAPE   HN215875   0.443   0.968  11.324 -3.5842 -0.1253  1.5634
  145SAPE   HN315876   0.545   1.105  11.309 -0.4387  1.2746  0.4352
  145SAPE   C1215877   0.353   1.128  11.240  0.0148 -0.2696  0.3985
  145SAPE  H12A15878   0.306   1.215  11.291  0.1074 -0.2005  0.3667
  145SAPE  H12B15879   0.285   1.043  11.218 -0.0051 -0.3357  0.7113
  145SAPE   C1115880   0.415   1.166  11.108 -0.0545 -0.2016  0.2087
  145SAPE  H11A15881   0.458   1.267  11.120 -1.2100  0.4574 -0.9675
  145SAPE  H11B15882   0.342   1.178  11.025  0.5457 -1.3465 -0.5101
  145SAPE     P15883   0.633   1.103  10.987 -0.3390 -0.3116  0.2179
  145SAPE   O1315884   0.702   1.220  11.039 -0.0341  0.1431 -0.6632
  145SAPE   O1415885   0.713   0.975  10.994 -0.4715  0.2151  0.5663
  145SAPE   O1215886   0.502   1.067  11.064 -0.1798 -0.0439  0.4312
  145SAPE   O1115887   0.583   1.130  10.842  0.6258 -1.2581  0.0004
  145SAPE    C115888   0.504   1.033  10.772  0.4866  0.2075  0.7019
  145SAPE    HA15889   0.478   0.944  10.834  2.0315 -1.1751 -0.5343
  145SAPE    HB15890   0.406   1.083  10.762  0.4981 -0.0157 -0.7359
  145SAPE    C215891   0.547   0.998  10.622 -0.3485 -0.2807 -0.1711
  145SAPE    HS15892   0.642   0.940  10.623 -0.6820 -0.8313  0.4400
  145SAPE   O2115893   0.564   1.134  10.551 -0.5998  0.5206 -0.0082
  145SAPE   C2115894   0.652   1.140  10.456 -0.0127 -0.2969  0.2377
  145SAPE   O2215895   0.722   1.049  10.416  0.3706 -0.0163  0.0100
  145SAPE   C2215896   0.655   1.286  10.407 -0.3914  1.0306 -0.0320
  145SAPE   H2R15897   0.552   1.326  10.396 -1.7685 -1.3317  2.8070
  145SAPE   H2S15898   0.710   1.349  10.479 -0.1657  0.2405  0.5011
  145SAPE    C315899   0.446   0.900  10.559  0.3218 -0.4932 -0.1584
  145SAPE    HX15900   0.351   0.952  10.583  1.9203  1.9249  1.2733
  145SAPE    HY15901   0.444   0.801  10.610 -0.1524 -0.1857  0.4318
  145SAPE   O3115902   0.470   0.877  10.417 -0.7542  0.0793  0.1247
  145SAPE   C3115903   0.363   0.855  10.345  0.2010  0.2972  0.1255
  145SAPE   O3215904   0.250   0.841  10.395  0.6168  0.9155  0.7683
  145SAPE   C3215905   0.396   0.849  10.194 -0.2329 -0.2713  0.0540
  145SAPE   H2X15906   0.493   0.795  10.184 -1.1787 -1.8067 -1.4449
  145SAPE   H2Y15907   0.403   0.954  10.158  1.0390 -0.6278 -0.8247
  145SAPE   C2315908   0.734   1.292  10.269  0.7964 -0.3038  0.6431
  145SAPE   H3R15909   0.686   1.227  10.193  0.7355  1.3927 -0.8313
  145SAPE   H3S15910   0.833   1.245  10.289 -0.2460 -2.1997  1.5979
  145SAPE   C2415911   0.776   1.435  10.214 -0.8976  0.3050  0.0323
  145SAPE   H4R15912   0.831   1.427  10.118 -1.5160  0.9378 -0.3809
  145SAPE   H4S15913   0.849   1.469  10.290 -0.6058 -1.8674  0.8053
  145SAPE   C2515914   0.668   1.534  10.187  0.3679 -0.9201 -0.3066
  145SAPE   H5R15915   0.614   1.554  10.281  0.1475  1.5004 -0.8814
  145SAPE   C2615916   0.650   1.604  10.068 -0.5221  0.5070 -0.1303
  145SAPE   H6R15917   0.565   1.674  10.064  0.0894  1.6256  3.1093
  145SAPE   C2715918   0.737   1.597   9.944 -0.1501 -0.3349  0.3115
  145SAPE   H7R15919   0.734   1.491   9.912 -0.2571 -0.0460 -0.6684
  145SAPE   H7S15920   0.843   1.626   9.957 -1.0389  3.8241 -0.1547
  145SAPE   C2815921   0.689   1.688   9.833 -0.0586 -0.3471  0.2331
  145SAPE   H8R15922   0.660   1.791   9.859  0.6881  0.0632 -0.5301
  145SAPE   C2915923   0.686   1.644   9.707 -0.1539  0.5531  0.1745
  145SAPE   H9R15924   0.659   1.713   9.625  0.2560  1.1822  0.5582
  145SAPE  C21015925   0.727   1.516   9.650  0.5921  0.0015  1.1261
  145SAPE  H10R15926   0.684   1.508   9.548  0.5693  0.9865  1.0527
  145SAPE  H10S15927   0.682   1.426   9.697 -0.3850 -1.5722 -2.4775
  145SAPE  C21115928   0.875   1.477   9.652 -0.5971  0.0493  0.4245
  145SAPE  H11R15929   0.908   1.474   9.757  0.0980 -0.5487  0.2035
  145SAPE  C21215930   0.964   1.431   9.554  0.4981  0.6041 -0.0922
  145SAPE  H12R15931   1.065   1.413   9.596  0.6367  2.6151  0.5585
  145SAPE  C21315932   0.928   1.397   9.417  0.4010 -0.1888 -0.2632
  145SAPE  H13R15933   0.894   1.492   9.371  0.6369 -0.0261 -0.1028
  145SAPE  H13S15934   0.837   1.335   9.405 -0.4385  1.3266 -2.2259
  145SAPE  C21415935   1.043   1.331   9.347  0.1851 -0.4796  0.3244
  145SAPE  H14R15936   1.077   1.237   9.394 -0.8164  0.3147  2.8142
  145SAPE  C21515937   1.097   1.361   9.226  0.4101 -0.2798 -0.5487
  145SAPE  H15R15938   1.177   1.298   9.184  0.5772  0.1872 -0.9313
  145SAPE  C21615939   1.063   1.469   9.133 -0.6304 -0.2699  0.8177
  145SAPE  H16R15940   1.118   1.559   9.170 -0.2325 -1.7121  4.0590
  145SAPE  H16S15941   0.957   1.499   9.143 -0.3214  0.7518  1.2262
  145SAPE  C21715942   1.087   1.443   8.986 -0.3708 -0.2342 -0.5522
  145SAPE  H17R15943   1.196   1.432   8.967 -0.4147  0.3661 -1.1972
  145SAPE  H17S15944   1.048   1.527   8.925  0.4990  0.3735 -0.3006
  145SAPE  C21815945   1.019   1.323   8.928  0.0413 -0.4732  0.2123
  145SAPE  H18R15946   1.055   1.235   8.986 -0.2854 -1.0474 -0.4397
  145SAPE  H18S15947   1.042   1.307   8.820 -2.0009 -0.9227 -0.1898
  145SAPE  C21915948   0.861   1.327   8.948 -0.4378  0.7441  1.0008
  145SAPE  H19R15949   0.845   1.436   8.934  2.6393  1.2462  0.6004
  145SAPE  H19S15950   0.822   1.295   9.047  0.0628  2.1797  1.6871
  145SAPE  C22015951   0.805   1.251   8.831 -0.0085 -0.2819 -0.2277
  145SAPE  H20R15952   0.851   1.281   8.735  2.6839  3.5999  2.0016
  145SAPE  H20S15953   0.694   1.261   8.821  0.2360  1.6435 -1.6851
  145SAPE  H20T15954   0.821   1.142   8.846  1.0834 -0.1653 -0.5016
  145SAPE   C3315955   0.290   0.767  10.119 -0.1601  0.2491  0.0677
  145SAPE   H3X15956   0.193   0.808  10.153  0.6681  2.3100  0.0730
  145SAPE   H3Y15957   0.286   0.658  10.141 -1.6116 -0.4450 -3.0111
  145SAPE   C3415958   0.289   0.782   9.968  0.9724 -0.1149  0.3271
  145SAPE   H4X15959   0.387   0.741   9.935 -1.0577 -5.4962  0.0163
  145SAPE   H4Y15960   0.275   0.889   9.941  0.6977 -0.5675 -1.4672
  145SAPE   C3515961   0.198   0.686   9.893 -0.0042 -0.3078 -0.7579
  145SAPE   H5X15962   0.089   0.706   9.897 -0.0624 -0.7851  1.1213
  145SAPE   H5Y15963   0.215   0.585   9.936 -0.8405  0.6515  1.9980
  145SAPE   C3615964   0.217   0.672   9.741 -0.5305  0.0177 -0.4445
  145SAPE   H6X15965   0.319   0.632   9.726 -0.1307  0.7125  0.3528
  145SAPE   H6Y15966   0.221   0.771   9.692  2.0539  0.3085  0.2441
  145SAPE   C3715967   0.133   0.562   9.682  0.1396 -0.2835 -0.5435
  145SAPE   H7X15968   0.041   0.610   9.645 -0.2474 -0.5957 -0.0038
  145SAPE   H7Y15969   0.096   0.488   9.756  0.4928 -1.3713 -1.4379
  145SAPE   C3815970   0.200   0.493   9.562 -0.4421 -0.5338 -0.3192
  145SAPE   H8X15971   0.128   0.420   9.520 -1.6159  1.3929 -1.8603
  145SAPE   H8Y15972   0.280   0.422   9.591 -0.6196 -2.0041 -3.1235
  145SAPE   C3915973   0.255   0.589   9.460  0.1415 -0.3305 -0.0467
  145SAPE   H9X15974   0.317   0.659   9.518  0.3660 -0.0667 -0.6007
  145SAPE   H9Y15975   0.168   0.651   9.429  0.3724 -0.3208 -0.6829
  145SAPE  C31015976   0.330   0.535   9.337 -0.5580 -0.5738  0.0161
  145SAPE  H10X15977   0.289   0.434   9.314 -1.6802 -0.6117  1.9403
  145SAPE  H10Y15978   0.432   0.517   9.379 -1.0808 -0.2276  1.5113
  145SAPE  C31115979   0.319   0.629   9.226 -0.3636 -0.0691  0.8296
  145SAPE  H11X15980   0.369   0.717   9.271 -0.2502  1.4297 -2.0271
  145SAPE  H11Y15981   0.218   0.657   9.190  0.7614  0.2636 -2.3443
  145SAPE  C31215982   0.399   0.581   9.103  0.2181  0.6560  0.5322
  145SAPE  H12X15983   0.494   0.535   9.138 -0.2400 -2.1795 -1.5617
  145SAPE  H12Y15984   0.423   0.669   9.040 -1.3797  1.2288  0.6691
  145SAPE  C31315985   0.333   0.473   9.009 -0.4857 -0.0206 -0.0674
  145SAPE  H13X15986   0.236   0.504   8.964 -0.9624 -2.0714 -0.5840
  145SAPE  H13Y15987   0.306   0.387   9.074 -0.6730  0.0167 -0.0954
  145SAPE  C31415988   0.415   0.423   8.891  0.2030 -0.0964 -0.6462
  145SAPE  H14X15989   0.425   0.506   8.818 -0.0581 -0.1707 -0.7660
  145SAPE  H14Y15990   0.357   0.341   8.844 -1.7825  1.7252 -1.5200
  145SAPE  C31515991   0.553   0.377   8.929  0.5886 -0.0789  0.1034
  145SAPE  H15X15992   0.560   0.304   9.012  0.7611 -1.1440 -0.8284
  145SAPE  H15Y15993   0.614   0.460   8.972 -1.0721  0.9185  0.6315
  145SAPE  C31615994   0.626   0.312   8.816 -0.1718  0.0831 -0.1547
  145SAPE  H16X15995   0.562   0.233   8.770 -1.2096  1.4481 -1.1233
  145SAPE  H16Y15996   0.719   0.264   8.855 -2.0694 -2.8176  1.1667
  145SAPE  C31715997   0.671   0.418   8.719  0.1649 -0.3940  0.8250
  145SAPE  H17X15998   0.746   0.490   8.760  0.8395 -1.6724  1.9286
  145SAPE  H17Y15999   0.588   0.482   8.682 -0.2499 -0.7864  1.0607
  145SAPE  C31816000   0.728   0.342   8.591  0.2939 -0.2403  0.5168
  145SAPE  H18X16001   0.804   0.397   8.531  0.6552 -1.0187  0.2483
  145SAPE  H18Y16002   0.647   0.316   8.519 -0.6840 -0.5434  1.6927
  145SAPE  H18Z16003   0.782   0.249   8.620 -0.1215 -0.2492  1.2814
  146SAPE     N16004   3.108   1.148  10.561 -0.4005 -0.3887 -0.1882
  146SAPE   HN116005   3.108   1.119  10.461  1.4698  1.1898 -0.7081
  146SAPE   HN216006   3.203   1.136  10.603 -0.3581  1.6098  0.3836
  146SAPE   HN316007   3.038   1.090  10.612 -1.5826  1.4938  0.4374
  146SAPE   C1216008   3.061   1.288  10.557 -0.3189 -0.5540 -0.0120
  146SAPE  H12A16009   3.045   1.323  10.661  2.1881 -1.4675  0.7325
  146SAPE  H12B16010   2.977   1.299  10.485  1.3818  0.2236 -2.0035
  146SAPE   C1116011   3.163   1.379  10.487 -0.3483 -0.0096  0.6911
  146SAPE  H11A16012   3.136   1.487  10.496  1.6865  0.5412  0.5211
  146SAPE  H11B16013   3.158   1.347  10.381 -0.6651 -1.2710  1.0763
  146SAPE     P16014   3.371   1.459  10.644  0.1970  0.0585 -0.0595
  146SAPE   O1316015   3.279   1.571  10.688 -0.7178  0.6186  0.1929
  146SAPE   O1416016   3.431   1.366  10.738 -0.4043 -0.0090 -0.8766
  146SAPE   O1216017   3.295   1.365  10.541  0.0739  0.0649  0.0581
  146SAPE   O1116018   3.482   1.528  10.556  0.0590 -0.1315 -0.7750
  146SAPE    C116019   3.582   1.448  10.482  0.4354  0.4464 -0.2046
  146SAPE    HA16020   3.584   1.341  10.509  0.7353  0.5622  0.2396
  146SAPE    HB16021   3.543   1.440  10.378  1.7753 -0.5421 -0.6479
  146SAPE    C216022   3.732   1.497  10.485  0.1719  0.5203  0.2728
  146SAPE    HS16023   3.743   1.570  10.569  0.8570  1.3606 -0.5229
  146SAPE   O2116024   3.764   1.547  10.350  0.2968  0.0683 -0.4557
  146SAPE   C2116025   3.875   1.616  10.359 -0.1051 -0.3125  0.5780
  146SAPE   O2216026   3.924   1.664  10.460  0.3168  0.6122 -0.3806
  146SAPE   C2216027   3.949   1.611  10.221  0.5758 -0.2847 -0.6836
  146SAPE   H2R16028   3.899   1.541  10.151  0.1748 -1.4007  0.6945
  146SAPE   H2S16029   3.937   1.714  10.181  1.5570 -0.4275 -1.3811
  146SAPE    C316030   3.822   1.374  10.520  0.3905 -0.0751 -0.4688
  146SAPE    HX16031   3.790   1.346  10.623  0.1320  1.8968  0.0178
  146SAPE    HY16032   3.929   1.405  10.530 -0.3602  2.6042 -0.1212
  146SAPE   O3116033   3.801   1.258  10.438  0.4945  0.7422  0.3066
  146SAPE   C3116034   3.903   1.214  10.370 -0.3409 -0.1604  1.0527
  146SAPE   O3216035   4.009   1.279  10.350  0.1237  0.6198  0.6494
  146SAPE   C3216036   3.871   1.075  10.329  0.3879  0.4332  0.2669
  146SAPE   H2X16037   3.778   1.083  10.267  0.3913  3.3839  0.5260
  146SAPE   H2Y16038   3.856   1.018  10.423 -0.4832 -1.0298 -0.6989
  146SAPE   C2316039   4.100   1.569  10.230 -0.6136 -0.0263  0.4791
  146SAPE   H3R16040   4.109   1.471  10.281 -0.5859  0.3603  1.2276
  146SAPE   H3S16041   4.157   1.634  10.300  3.6888 -2.7479 -0.1442
  146SAPE   C2416042   4.183   1.581  10.100 -0.2576 -1.0134  0.5006
  146SAPE   H4R16043   4.127   1.524  10.023 -0.9437  0.6844 -0.3216
  146SAPE   H4S16044   4.281   1.532  10.118  0.4147  0.1679  0.1725
  146SAPE   C2516045   4.210   1.721  10.055  0.3789 -0.5349 -0.6579
  146SAPE   H5R16046   4.125   1.790  10.068  0.7796  0.5149 -3.0886
  146SAPE   C2616047   4.329   1.776  10.023 -0.2359 -0.4200  0.7540
  146SAPE   H6R16048   4.331   1.882   9.994  1.5916 -0.5407  0.3603
  146SAPE   C2716049   4.461   1.703  10.011  0.3396 -0.0345  0.0727
  146SAPE   H7R16050   4.439   1.599   9.977 -0.0333 -0.0847  0.4668
  146SAPE   H7S16051   4.500   1.693  10.114 -2.7674 -1.6692  1.1932
  146SAPE   C2816052   4.557   1.760   9.916 -0.2171 -0.3858  0.0793
  146SAPE   H8R16053   4.632   1.825   9.962  0.9563 -2.8464  1.8490
  146SAPE   C2916054   4.546   1.737   9.787  0.0608  0.1773  0.0057
  146SAPE   H9R16055   4.624   1.785   9.727  0.5633  1.7724  1.8430
  146SAPE  C21016056   4.447   1.667   9.706 -0.3635  0.0491  0.5508
  146SAPE  H10R16057   4.382   1.738   9.650  2.1117  1.7969 -0.2612
  146SAPE  H10S16058   4.369   1.614   9.764 -0.6653 -1.7089 -1.3387
  146SAPE  C21116059   4.503   1.568   9.609 -0.6998  0.1831  0.3633
  146SAPE  H11R16060   4.557   1.478   9.643  0.5663  0.1622 -1.5638
  146SAPE  C21216061   4.485   1.573   9.473 -0.0134  0.0293 -0.6727
  146SAPE  H12R16062   4.537   1.500   9.409  0.4568 -0.0380 -0.2210
  146SAPE  C21316063   4.400   1.688   9.411 -0.4551  0.2056 -0.0924
  146SAPE  H13R16064   4.429   1.787   9.451  0.3913 -1.0371  2.5757
  146SAPE  H13S16065   4.295   1.668   9.443  0.8879 -2.8010  3.1861
  146SAPE  C21416066   4.410   1.678   9.265 -0.4434  0.1619  0.9436
  146SAPE  H14R16067   4.513   1.690   9.228  0.8946  0.1017  4.2914
  146SAPE  C21516068   4.307   1.662   9.177 -0.4075  0.3473 -0.2937
  146SAPE  H15R16069   4.330   1.650   9.070 -0.8721  0.7569 -0.4387
  146SAPE  C21616070   4.161   1.651   9.217  0.2754  0.2182 -0.3103
  146SAPE  H16R16071   4.120   1.747   9.254 -0.7921 -1.1109  2.1730
  146SAPE  H16S16072   4.142   1.574   9.294  3.0810 -0.4868 -0.2204
  146SAPE  C21716073   4.080   1.611   9.097 -0.3749 -0.7391  0.2281
  146SAPE  H17R16074   4.121   1.513   9.063 -0.3630 -0.7863  0.3791
  146SAPE  H17S16075   4.104   1.676   9.010 -1.8030 -1.0205 -0.4002
  146SAPE  C21816076   3.930   1.588   9.111  0.1025  0.1737 -0.1489
  146SAPE  H18R16077   3.876   1.683   9.132 -0.0190  0.0066  0.2948
  146SAPE  H18S16078   3.918   1.529   9.204 -0.8102 -1.0505 -0.9969
  146SAPE  C21916079   3.870   1.504   9.004 -1.2109 -0.4028 -0.6613
  146SAPE  H19R16080   3.889   1.397   9.023 -0.1769 -0.1856 -0.4313
  146SAPE  H19S16081   3.906   1.523   8.901  0.1082  1.8966  0.1507
  146SAPE  C22016082   3.713   1.500   9.015 -0.4497  0.2661 -0.2712
  146SAPE  H20R16083   3.669   1.475   9.114 -0.8027 -0.2062 -0.5445
  146SAPE  H20S16084   3.673   1.422   8.946  1.5062 -0.2723 -0.8506
  146SAPE  H20T16085   3.676   1.601   8.987 -0.2511  0.8214  1.3921
  146SAPE   C3316086   3.983   0.995  10.262 -0.0311  0.0236  0.4588
  146SAPE   H3X16087   3.938   0.895  10.248 -0.9502  0.0245  2.9309
  146SAPE   H3Y16088   4.081   0.992  10.313 -0.0069 -1.4230  0.3781
  146SAPE   C3416089   4.018   1.048  10.123 -0.2249 -0.1646 -0.0373
  146SAPE   H4X16090   4.060   1.150  10.112 -3.1363  0.8902 -4.0125
  146SAPE   H4Y16091   3.918   1.050  10.074 -0.2000  1.3242 -0.0600
  146SAPE   C3516092   4.101   0.954  10.030  0.4574  0.2812  0.0951
  146SAPE   H5X16093   4.057   0.853  10.016 -0.5883  0.6064  0.8951
  146SAPE   H5Y16094   4.202   0.938  10.074  0.0708 -1.8573  0.3639
  146SAPE   C3616095   4.107   1.010   9.885 -0.5160 -0.4361 -0.2661
  146SAPE   H6X16096   4.149   1.112   9.884 -0.4701 -0.4151 -3.0588
  146SAPE   H6Y16097   4.003   1.024   9.850 -1.6721 -1.2001  2.5268
  146SAPE   C3716098   4.189   0.920   9.789  0.1551  0.3102  0.1999
  146SAPE   H7X16099   4.281   0.874   9.830 -0.9151 -1.6072  0.5669
  146SAPE   H7Y16100   4.217   0.977   9.697 -0.6483 -0.8202 -0.7711
  146SAPE   C3816101   4.100   0.801   9.743 -0.1536 -0.0628  0.0350
  146SAPE   H8X16102   4.015   0.853   9.695  0.0845  0.9023  0.6284
  146SAPE   H8Y16103   4.070   0.747   9.835  1.6992  0.7689  1.1862
  146SAPE   C3916104   4.161   0.711   9.635 -0.7228 -0.1044 -0.1325
  146SAPE   H9X16105   4.093   0.625   9.617 -1.8142  0.6980  0.0189
  146SAPE   H9Y16106   4.257   0.671   9.674  0.9058  3.0879 -0.4930
  146SAPE  C31016107   4.193   0.783   9.506 -0.9941  0.5948  0.2122
  146SAPE  H10X16108   4.256   0.872   9.526  0.8982 -0.7310  0.4237
  146SAPE  H10Y16109   4.098   0.826   9.468 -1.1141  2.4008  2.3536
  146SAPE  C31116110   4.261   0.692   9.402  0.5734  0.1059 -0.9841
  146SAPE  H11X16111   4.185   0.614   9.383  0.3009 -0.0246  0.4976
  146SAPE  H11Y16112   4.355   0.644   9.438 -0.1944  0.1196  1.2221
  146SAPE  C31216113   4.294   0.785   9.286 -0.3797  0.1190 -0.4724
  146SAPE  H12X16114   4.398   0.823   9.293  0.8284 -2.8043 -0.6920
  146SAPE  H12Y16115   4.238   0.880   9.297  2.7827  2.1237 -0.2639
  146SAPE  C31316116   4.268   0.727   9.147  0.1027 -0.1833 -0.2581
  146SAPE  H13X16117   4.161   0.702   9.136 -0.3443  1.6362 -0.2915
  146SAPE  H13Y16118   4.345   0.648   9.129  3.9605  2.9950  0.7456
  146SAPE  C31416119   4.292   0.824   9.034  0.6014 -0.8078  0.2862
  146SAPE  H14X16120   4.401   0.837   9.019  0.6869 -2.0970 -0.3234
  146SAPE  H14Y16121   4.253   0.921   9.071  0.5768 -1.1674  1.2179
  146SAPE  C31516122   4.231   0.781   8.899 -0.2917  0.7062 -0.9830
  146SAPE  H15X16123   4.122   0.772   8.913 -0.0455  0.0853  0.8078
  146SAPE  H15Y16124   4.264   0.679   8.870 -2.2259  0.6780 -3.3592
  146SAPE  C31616125   4.252   0.865   8.779 -0.3950 -0.7895  0.4261
  146SAPE  H16X16126   4.181   0.838   8.698 -0.3457  0.8358 -0.1933
  146SAPE  H16Y16127   4.355   0.839   8.746 -1.4406 -2.1365 -2.0232
  146SAPE  C31716128   4.246   1.012   8.805 -0.2422  0.0265 -0.0198
  146SAPE  H17X16129   4.275   1.048   8.704  0.7718 -0.3976  0.1158
  146SAPE  H17Y16130   4.329   1.058   8.863 -0.5291 -0.2665  0.6317
  146SAPE  C31816131   4.111   1.077   8.829  0.2602  0.5771 -0.0260
  146SAPE  H18X16132   4.126   1.187   8.825 -0.4742  0.6678 -0.8525
  146SAPE  H18Y16133   4.071   1.046   8.927  0.6794 -0.8443 -0.2777
  146SAPE  H18Z16134   4.030   1.046   8.760  0.7401  0.3928 -0.5134
  147SAPE     N16135   4.598   6.453   6.060 -0.5046  0.6045  0.7000
  147SAPE   HN116136   4.686   6.421   6.106 -1.8897 -2.3709  1.5295
  147SAPE   HN216137   4.592   6.424   5.960  0.9845 -0.2275  0.8260
  147SAPE   HN316138   4.597   6.555   6.040 -2.8974  0.1837 -2.0035
  147SAPE   C1216139   4.475   6.412   6.137 -0.5239 -0.5734 -0.3970
  147SAPE  H12A16140   4.470   6.301   6.128 -2.1916 -0.6835  1.0960
  147SAPE  H12B16141   4.383   6.449   6.087 -0.8914  0.6581  1.0882
  147SAPE   C1116142   4.486   6.445   6.284  0.2396  0.2349  0.4923
  147SAPE  H11A16143   4.567   6.378   6.320 -0.3018 -2.4530 -2.8089
  147SAPE  H11B16144   4.392   6.405   6.328  0.0922 -2.4519 -1.9674
  147SAPE     P16145   4.385   6.695   6.334  0.2065  0.1385  0.1031
  147SAPE   O1316146   4.450   6.809   6.399 -0.1001  0.0548 -0.6151
  147SAPE   O1416147   4.320   6.716   6.204  0.2703  0.0248 -0.0904
  147SAPE   O1216148   4.501   6.588   6.307  0.5124  0.5994  0.3334
  147SAPE   O1116149   4.291   6.620   6.432 -0.6737 -0.0929  0.2803
  147SAPE    C116150   4.325   6.564   6.553 -0.1680 -0.6057  0.0815
  147SAPE    HA16151   4.378   6.466   6.543  0.3951 -0.2838 -0.1194
  147SAPE    HB16152   4.400   6.629   6.602 -0.5846 -0.1476  0.1094
  147SAPE    C216153   4.208   6.558   6.649 -0.0220 -0.4379 -0.0965
  147SAPE    HS16154   4.244   6.521   6.748  1.4392  1.2154  0.0525
  147SAPE   O2116155   4.095   6.484   6.585  0.4525  0.4249 -0.7660
  147SAPE   C2116156   4.104   6.355   6.614 -0.4895 -0.1449 -0.2417
  147SAPE   O2216157   4.192   6.303   6.679  0.0155  0.5165  0.2771
  147SAPE   C2216158   3.982   6.292   6.555  0.3446  0.4004 -0.4146
  147SAPE   H2R16159   3.899   6.323   6.622 -1.5795  0.0644 -2.5008
  147SAPE   H2S16160   3.956   6.337   6.457 -0.7022 -0.2635 -0.4721
  147SAPE    C316161   4.159   6.699   6.690 -0.3780  1.1573  0.0967
  147SAPE    HX16162   4.122   6.758   6.604  0.4181 -0.6148 -1.5166
  147SAPE    HY16163   4.246   6.765   6.709  0.5779  0.4178 -1.5174
  147SAPE   O3116164   4.071   6.681   6.801  0.0226 -0.0717 -0.5432
  147SAPE   C3116165   3.987   6.781   6.828 -0.2482 -0.2935 -0.3935
  147SAPE   O3216166   3.986   6.893   6.780 -0.0027 -0.7550  0.1447
  147SAPE   C3216167   3.888   6.739   6.941 -0.3276  0.7483 -0.5266
  147SAPE   H2X16168   3.881   6.628   6.943  1.4010  0.6092 -0.5373
  147SAPE   H2Y16169   3.789   6.786   6.924  0.1046  2.2139  0.7224
  147SAPE   C2316170   3.987   6.132   6.556  0.0799 -0.7782  0.3625
  147SAPE   H3R16171   4.092   6.120   6.523  0.0948  3.1318 -1.6213
  147SAPE   H3S16172   3.914   6.089   6.484 -1.2432 -0.5334  1.5188
  147SAPE   C2416173   3.966   6.073   6.699 -0.3438 -0.4191  1.2331
  147SAPE   H4R16174   3.864   6.098   6.737  0.1625  0.3425  2.1448
  147SAPE   H4S16175   4.040   6.121   6.766  0.2996  1.2234 -0.5676
  147SAPE   C2516176   3.974   5.922   6.687 -0.8583  0.1931  0.0852
  147SAPE   H5R16177   3.944   5.880   6.590 -1.4949 -0.6810  0.6467
  147SAPE   C2616178   4.029   5.842   6.775  0.1763  0.1065 -0.2080
  147SAPE   H6R16179   4.033   5.738   6.739 -0.7265 -0.7437  1.9737
  147SAPE   C2716180   4.107   5.868   6.899  0.3653 -0.4042  0.2201
  147SAPE   H7R16181   4.107   5.974   6.933  3.5108  0.5439 -2.2233
  147SAPE   H7S16182   4.211   5.857   6.861  1.0138  3.6866  0.3301
  147SAPE   C2816183   4.087   5.769   7.008 -0.6199  0.1471  0.3113
  147SAPE   H8R16184   4.162   5.688   7.002  1.4611  2.0316 -0.2620
  147SAPE   C2916185   4.006   5.772   7.118 -0.6128  0.4107 -0.4705
  147SAPE   H9R16186   4.025   5.693   7.191  1.6061 -0.3994 -1.8318
  147SAPE  C21016187   3.908   5.878   7.152  0.7282  0.1337 -0.2561
  147SAPE  H10R16188   3.835   5.894   7.069  0.9647 -0.8431 -0.6642
  147SAPE  H10S16189   3.953   5.978   7.168  0.7192  0.3293 -1.3890
  147SAPE  C21116190   3.819   5.841   7.263 -0.4540  0.6777 -0.0638
  147SAPE  H11R16191   3.736   5.772   7.242  0.1276  0.7374 -2.9360
  147SAPE  C21216192   3.838   5.891   7.385 -0.4276 -0.7298 -0.2480
  147SAPE  H12R16193   3.770   5.852   7.462 -1.5651 -1.0580 -1.3685
  147SAPE  C21316194   3.937   5.989   7.440 -0.2351  0.1391  0.3145
  147SAPE  H13R16195   4.040   5.976   7.401 -0.2291 -1.1146  0.7214
  147SAPE  H13S16196   3.946   5.974   7.549 -1.3732 -1.2363  0.2482
  147SAPE  C21416197   3.883   6.128   7.426  0.0314 -0.4143 -0.1360
  147SAPE  H14R16198   3.865   6.172   7.327  1.1184  2.4900  0.8498
  147SAPE  C21516199   3.882   6.221   7.527  0.2372  0.4485 -0.0986
  147SAPE  H15R16200   3.840   6.321   7.507 -1.5199 -0.0546  0.9074
  147SAPE  C21616201   3.916   6.208   7.672 -0.2683  0.1181  0.3811
  147SAPE  H16R16202   3.956   6.106   7.689  0.0161  0.3454  1.1179
  147SAPE  H16S16203   3.829   6.219   7.741 -1.7946  2.1410 -1.6980
  147SAPE  C21716204   4.010   6.321   7.719 -0.1058  0.4103 -0.7021
  147SAPE  H17R16205   3.966   6.422   7.713 -1.1177  0.0275 -0.1509
  147SAPE  H17S16206   4.106   6.306   7.665  1.3389  0.3808  1.7017
  147SAPE  C21816207   4.046   6.282   7.868 -0.0319 -0.3226  0.0577
  147SAPE  H18R16208   4.076   6.176   7.857  2.9310  0.5205 -0.6460
  147SAPE  H18S16209   3.956   6.298   7.932 -0.0978 -0.8018  0.0926
  147SAPE  C21916210   4.166   6.368   7.914  0.0342 -0.2069  0.5496
  147SAPE  H19R16211   4.145   6.472   7.882 -0.9359 -0.2414  1.0389
  147SAPE  H19S16212   4.255   6.337   7.856 -0.0383  1.7411 -0.6752
  147SAPE  C22016213   4.194   6.353   8.063 -0.2565 -0.9013  0.0199
  147SAPE  H20R16214   4.101   6.384   8.115  1.0493  0.4250  1.6955
  147SAPE  H20S16215   4.274   6.423   8.096  1.0062 -2.6464  0.8291
  147SAPE  H20T16216   4.230   6.250   8.085 -0.6202 -0.9343  0.4602
  147SAPE   C3316217   3.913   6.792   7.092 -0.0072 -0.3758  0.4184
  147SAPE   H3X16218   3.903   6.902   7.081  0.3129 -0.3838  0.0306
  147SAPE   H3Y16219   4.018   6.781   7.126  0.2568  0.9318  0.0840
  147SAPE   C3416220   3.820   6.723   7.186 -0.1953 -0.2773  1.2564
  147SAPE   H4X16221   3.828   6.612   7.176 -0.2974 -0.4395  2.7311
  147SAPE   H4Y16222   3.719   6.753   7.153  0.7041  0.7904 -0.6544
  147SAPE   C3516223   3.829   6.771   7.331  0.0473  0.2688  0.3397
  147SAPE   H5X16224   3.797   6.877   7.344 -1.6594 -0.0991 -0.5999
  147SAPE   H5Y16225   3.936   6.759   7.361 -0.3526  0.3392  1.8800
  147SAPE   C3616226   3.740   6.680   7.416 -0.8755 -0.3546 -0.4516
  147SAPE   H6X16227   3.743   6.574   7.383 -3.6128 -1.1218  1.3926
  147SAPE   H6Y16228   3.633   6.709   7.404 -1.2220 -1.0701  0.7234
  147SAPE   C3716229   3.774   6.683   7.570  0.3100 -0.1447 -0.6181
  147SAPE   H7X16230   3.779   6.789   7.601 -1.1530 -0.5620  1.2236
  147SAPE   H7Y16231   3.867   6.633   7.604  1.7277  0.3325 -3.4878
  147SAPE   C3816232   3.662   6.628   7.660  0.0045 -0.1670 -0.3642
  147SAPE   H8X16233   3.660   6.518   7.651  0.8283 -0.3214  1.0011
  147SAPE   H8Y16234   3.562   6.663   7.628 -0.7861  0.2586  2.3347
  147SAPE   C3916235   3.683   6.680   7.807 -0.5006 -0.0048  0.0331
  147SAPE   H9X16236   3.677   6.791   7.804  1.8164  0.1487 -2.5548
  147SAPE   H9Y16237   3.777   6.633   7.844 -0.4149  0.4781  0.4349
  147SAPE  C31016238   3.569   6.616   7.894  0.6192 -0.3157 -0.2257
  147SAPE  H10X16239   3.564   6.506   7.877 -0.6503 -0.1215 -1.2468
  147SAPE  H10Y16240   3.474   6.657   7.853 -0.0097 -1.8021 -0.3233
  147SAPE  C31116241   3.570   6.635   8.046  0.5466 -0.1689 -0.8521
  147SAPE  H11X16242   3.488   6.576   8.093  0.4897 -0.8433 -1.7794
  147SAPE  H11Y16243   3.539   6.741   8.060  1.2325 -0.1510  0.7094
  147SAPE  C31216244   3.701   6.586   8.112  0.5176 -0.0499  0.2274
  147SAPE  H12X16245   3.686   6.608   8.220  0.7259  2.3543 -0.1859
  147SAPE  H12Y16246   3.787   6.648   8.080  0.0723  1.5909  2.0182
  147SAPE  C31316247   3.717   6.431   8.099 -0.1369 -0.3467  0.0486
  147SAPE  H13X16248   3.766   6.408   8.001  0.9705  2.0284 -0.0443
  147SAPE  H13Y16249   3.617   6.383   8.097 -0.2141 -0.1684 -0.5703
  147SAPE  C31416250   3.794   6.368   8.218 -0.4689 -0.2221  0.3335
  147SAPE  H14X16251   3.745   6.418   8.304 -3.7365  0.9042 -1.9791
  147SAPE  H14Y16252   3.901   6.400   8.216 -1.1100  2.1321  0.0224
  147SAPE  C31516253   3.772   6.218   8.238 -0.5150 -0.0826 -0.3777
  147SAPE  H15X16254   3.846   6.195   8.317  0.5543 -1.2067 -1.6473
  147SAPE  H15Y16255   3.802   6.160   8.148  1.8003  1.4574 -0.6753
  147SAPE  C31616256   3.630   6.189   8.284  0.1121 -0.0806  0.4563
  147SAPE  H16X16257   3.563   6.183   8.196 -1.8870 -0.2168  1.9112
  147SAPE  H16Y16258   3.589   6.267   8.352  0.8267  0.0848  0.7028
  147SAPE  C31716259   3.614   6.061   8.363 -0.1530 -0.3059 -0.2542
  147SAPE  H17X16260   3.637   5.975   8.297  0.5158 -0.7598  0.5504
  147SAPE  H17Y16261   3.508   6.036   8.385 -0.7512  1.6904 -0.6884
  147SAPE  C31816262   3.706   6.061   8.482 -1.1535  0.2203 -0.6796
  147SAPE  H18X16263   3.813   6.046   8.455 -0.1796  3.4060  0.9051
  147SAPE  H18Y16264   3.676   5.982   8.554  0.3094 -0.6060 -0.9292
  147SAPE  H18Z16265   3.702   6.154   8.542  0.7370 -1.2192  1.9063
  148SAPE     N16266   1.835   4.470   6.295  0.3552  0.1184 -0.2444
  148SAPE   HN116267   1.824   4.426   6.388 -0.8269  1.7215  0.4240
  148SAPE   HN216268   1.916   4.425   6.247  0.3317  0.7845 -0.9298
  148SAPE   HN316269   1.854   4.569   6.321 -2.5676  0.0970  2.5783
  148SAPE   C1216270   1.715   4.462   6.214  0.2225 -1.1171  0.8908
  148SAPE  H12A16271   1.739   4.413   6.116 -0.5793  0.7136 -0.2649
  148SAPE  H12B16272   1.686   4.563   6.180  2.9719 -0.5067  0.0980
  148SAPE   C1116273   1.600   4.396   6.293 -0.3196 -0.8612 -0.4155
  148SAPE  H11A16274   1.511   4.421   6.231  1.7326  0.5824 -3.0098
  148SAPE  H11B16275   1.595   4.446   6.392  0.3323  1.2274 -1.3649
  148SAPE     P16276   1.524   4.153   6.344 -0.6463 -0.2314  0.1941
  148SAPE   O1316277   1.419   4.151   6.240 -0.1407  0.1116 -0.0184
  148SAPE   O1416278   1.592   4.024   6.369  0.2880  0.4927 -0.4491
  148SAPE   O1216279   1.636   4.259   6.312  0.3442 -0.1996  0.0078
  148SAPE   O1116280   1.461   4.214   6.479 -0.1721  0.2671  0.2889
  148SAPE    C116281   1.511   4.164   6.606  0.0323  0.2788  0.0147
  148SAPE    HA16282   1.621   4.151   6.616 -0.2486 -2.9730 -0.0623
  148SAPE    HB16283   1.479   4.232   6.688  0.3671 -0.9669  1.2046
  148SAPE    C216284   1.431   4.036   6.650  0.1496  0.2236  0.2185
  148SAPE    HS16285   1.460   3.963   6.571 -0.5237 -0.3994  0.5287
  148SAPE   O2116286   1.288   4.061   6.658 -0.0351  0.0780  0.0168
  148SAPE   C2116287   1.219   3.948   6.649  0.1039  0.0163 -0.0583
  148SAPE   O2216288   1.269   3.836   6.640 -0.8571 -0.4682 -0.0112
  148SAPE   C2216289   1.069   3.974   6.662 -0.4855  0.2564 -0.3208
  148SAPE   H2R16290   1.044   4.078   6.631  0.1512  0.8290  0.9843
  148SAPE   H2S16291   1.013   3.892   6.613 -0.9842  0.2666  0.2058
  148SAPE    C316292   1.495   3.972   6.775  0.0353 -0.4536 -0.4564
  148SAPE    HX16293   1.600   3.955   6.743 -0.6500 -1.8995 -2.0890
  148SAPE    HY16294   1.456   3.870   6.799  0.5848 -0.4982  0.2892
  148SAPE   O3116295   1.485   4.061   6.894 -0.1109 -0.0900 -0.8174
  148SAPE   C3116296   1.576   4.035   6.984 -0.1242 -0.2132 -0.7596
  148SAPE   O3216297   1.676   3.965   6.971  0.2147 -0.1977  0.4711
  148SAPE   C3216298   1.553   4.092   7.122 -0.3059 -0.2576 -0.1506
  148SAPE   H2X16299   1.459   4.049   7.163 -1.3600  0.5039 -1.6729
  148SAPE   H2Y16300   1.536   4.199   7.097  1.4064  0.7426  2.5287
  148SAPE   C2316301   1.030   3.971   6.810 -0.2587 -0.6663  0.3833
  148SAPE   H3R16302   1.063   3.885   6.871 -3.2967 -1.1891  1.4209
  148SAPE   H3S16303   0.919   3.975   6.805 -0.1959  1.1082 -0.4775
  148SAPE   C2416304   1.081   4.096   6.895 -0.2517 -0.1367  0.0323
  148SAPE   H4R16305   1.085   4.193   6.840  2.3346 -0.0131  0.3054
  148SAPE   H4S16306   1.188   4.071   6.912 -0.4079 -0.2532  0.8848
  148SAPE   C2516307   1.003   4.113   7.023  0.2073  0.2740  0.5505
  148SAPE   H5R16308   0.905   4.159   7.003 -0.4545 -1.0045  0.7450
  148SAPE   C2616309   1.035   4.082   7.149 -0.2039 -0.7223 -0.0280
  148SAPE   H6R16310   0.958   4.101   7.225  0.1717  1.2112 -0.0912
  148SAPE   C2716311   1.155   4.005   7.192  0.0660 -0.6176 -0.4641
  148SAPE   H7R16312   1.193   4.044   7.289  0.0630 -1.3789 -0.1451
  148SAPE   H7S16313   1.234   4.004   7.114  0.1726 -1.1461 -0.3540
  148SAPE   C2816314   1.108   3.860   7.211 -0.0212  0.2875  0.1759
  148SAPE   H8R16315   1.086   3.801   7.121  0.0721 -0.0430  0.3691
  148SAPE   C2916316   1.098   3.803   7.329  0.0825 -0.3219 -0.4333
  148SAPE   H9R16317   1.072   3.696   7.326 -3.1044  0.3219  1.0035
  148SAPE  C21016318   1.123   3.864   7.465  0.1747 -0.2423 -0.5771
  148SAPE  H10R16319   1.105   3.973   7.464  1.9227  0.1234  1.8110
  148SAPE  H10S16320   1.231   3.846   7.482 -0.0325 -1.4002 -0.3898
  148SAPE  C21116321   1.053   3.816   7.588  0.1180  0.0813 -0.0876
  148SAPE  H11R16322   0.983   3.735   7.563  0.6739 -0.0873 -1.1520
  148SAPE  C21216323   1.098   3.848   7.716  0.2308 -1.0256  0.4762
  148SAPE  H12R16324   1.049   3.815   7.809 -0.2559  2.2240  1.5004
  148SAPE  C21316325   1.206   3.949   7.746  0.1410  0.4297 -0.0412
  148SAPE  H13R16326   1.154   4.027   7.805 -1.2381  0.7886 -1.6295
  148SAPE  H13S16327   1.245   4.010   7.661  0.3104  1.7879  0.9767
  148SAPE  C21416328   1.320   3.869   7.813 -0.3991 -0.2019  0.3099
  148SAPE  H14R16329   1.367   3.786   7.759 -0.8871 -0.3281  0.0748
  148SAPE  C21516330   1.366   3.898   7.937  0.6488  0.1706  0.1142
  148SAPE  H15R16331   1.456   3.848   7.976 -0.7756 -2.0528  0.7450
  148SAPE  C21616332   1.308   4.007   8.033 -0.1526  0.8518 -0.0440
  148SAPE  H16R16333   1.225   4.074   8.002 -1.0751  0.4239  1.3794
  148SAPE  H16S16334   1.394   4.076   8.051 -1.0689  1.6698  1.4317
  148SAPE  C21716335   1.267   3.960   8.167 -0.1042  0.2218 -0.3814
  148SAPE  H17R16336   1.283   3.851   8.184  0.2557  0.7681  3.7488
  148SAPE  H17S16337   1.157   3.954   8.181  0.0745 -2.0567  0.5319
  148SAPE  C21816338   1.337   4.035   8.290 -1.2756 -0.3002  0.1287
  148SAPE  H18R16339   1.290   4.007   8.386 -2.0378  0.2857 -0.0697
  148SAPE  H18S16340   1.314   4.142   8.267 -1.3804 -0.6468 -1.5574
  148SAPE  C21916341   1.490   4.022   8.290  0.5346  0.3614 -0.1795
  148SAPE  H19R16342   1.531   4.081   8.206  1.3942 -0.2645 -0.2201
  148SAPE  H19S16343   1.509   3.913   8.274 -0.8040  0.0623  0.1507
  148SAPE  C22016344   1.556   4.069   8.418  0.0749  0.2113  0.5007
  148SAPE  H20R16345   1.659   4.030   8.432 -0.4232 -1.0402  0.8694
  148SAPE  H20S16346   1.505   4.016   8.501 -0.6223  2.4369  1.5637
  148SAPE  H20T16347   1.563   4.178   8.436 -0.2536  0.3013  0.0889
  148SAPE   C3316348   1.676   4.097   7.216  0.4932 -0.4148  0.3078
  148SAPE   H3X16349   1.767   4.116   7.156  0.0463 -1.6257 -0.8013
  148SAPE   H3Y16350   1.684   3.996   7.262  1.6115  1.0661  3.7251
  148SAPE   C3416351   1.656   4.203   7.328  0.7473 -0.0821 -0.2969
  148SAPE   H4X16352   1.546   4.213   7.342  1.0196  3.1368  0.3269
  148SAPE   H4Y16353   1.701   4.290   7.275  0.3979  1.0285  1.1785
  148SAPE   C3516354   1.728   4.192   7.459 -0.4273  0.2328 -0.0114
  148SAPE   H5X16355   1.723   4.290   7.511  0.0990  2.2132 -3.4416
  148SAPE   H5Y16356   1.837   4.175   7.461 -0.7586 -2.7389  2.5527
  148SAPE   C3616357   1.672   4.080   7.538 -0.1291  0.1290 -0.6528
  148SAPE   H6X16358   1.686   3.988   7.476 -0.0527 -0.2452 -0.0895
  148SAPE   H6Y16359   1.566   4.104   7.557 -0.1808  1.0486 -1.9489
  148SAPE   C3716360   1.729   4.042   7.679 -0.6447  0.4284 -0.2219
  148SAPE   H7X16361   1.651   3.984   7.733  0.8348 -0.8605  0.6019
  148SAPE   H7Y16362   1.756   4.130   7.741  0.8562 -0.5682  0.5893
  148SAPE   C3816363   1.852   3.950   7.663  0.0760  0.0689  0.6127
  148SAPE   H8X16364   1.935   4.005   7.613 -1.4079  1.3167 -0.5682
  148SAPE   H8Y16365   1.835   3.870   7.588  2.6112 -1.4121  1.5123
  148SAPE   C3916366   1.906   3.881   7.793 -0.1105  0.1762  0.3824
  148SAPE   H9X16367   1.828   3.821   7.847 -0.3210  0.8510  0.8411
  148SAPE   H9Y16368   1.928   3.960   7.868 -1.2950  0.4133  0.5021
  148SAPE  C31016369   2.027   3.798   7.769 -0.8502  0.6783 -0.2428
  148SAPE  H10X16370   2.106   3.853   7.713 -1.6981  1.2612 -0.8846
  148SAPE  H10Y16371   1.996   3.711   7.707 -0.7140  1.1127 -0.9303
  148SAPE  C31116372   2.086   3.758   7.902 -0.6748  0.0887 -0.1888
  148SAPE  H11X16373   2.006   3.714   7.966  2.1099 -3.6772  1.0872
  148SAPE  H11Y16374   2.109   3.851   7.958  0.3076 -0.2395 -0.0180
  148SAPE  C31216375   2.202   3.666   7.898 -0.0005 -0.0693  1.1555
  148SAPE  H12X16376   2.296   3.707   7.856 -0.2530  1.5706  2.0908
  148SAPE  H12Y16377   2.163   3.580   7.840  0.7262 -0.4815  1.2608
  148SAPE  C31316378   2.220   3.615   8.037 -0.3781 -0.8463 -0.0870
  148SAPE  H13X16379   2.294   3.532   8.035  0.8850  0.2143 -3.1726
  148SAPE  H13Y16380   2.120   3.571   8.056 -0.6738  0.3984  1.4485
  148SAPE  C31416381   2.244   3.719   8.151  0.2389 -0.3308 -0.1335
  148SAPE  H14X16382   2.145   3.764   8.175  0.1129 -0.3079 -0.6649
  148SAPE  H14Y16383   2.307   3.798   8.106  1.9879 -0.8011  1.3870
  148SAPE  C31516384   2.307   3.659   8.275  0.0740 -0.6790  0.4169
  148SAPE  H15X16385   2.418   3.660   8.270  0.0868  1.3005  0.4277
  148SAPE  H15Y16386   2.269   3.556   8.292 -2.1663 -0.1752 -1.1804
  148SAPE  C31616387   2.272   3.742   8.402 -1.0637  0.8830 -0.1688
  148SAPE  H16X16388   2.163   3.761   8.397 -0.6911  3.2383 -0.3149
  148SAPE  H16Y16389   2.311   3.845   8.388 -1.5147  0.9012 -1.4137
  148SAPE  C31716390   2.300   3.683   8.542  0.8046 -0.1675 -0.0144
  148SAPE  H17X16391   2.276   3.763   8.615  2.2631 -0.9406  1.3685
  148SAPE  H17Y16392   2.407   3.658   8.558  0.5979 -0.8063  0.3765
  148SAPE  C31816393   2.208   3.566   8.573  0.3180  0.5576  0.3441
  148SAPE  H18X16394   2.220   3.492   8.491  1.6301 -0.9206  1.8260
  148SAPE  H18Y16395   2.103   3.603   8.563  0.3280  0.5901  0.3614
  148SAPE  H18Z16396   2.225   3.517   8.670 -1.2304  0.6543  0.7000
  149SAPE     N16397   1.209   4.342   6.215 -0.2347 -0.1856  0.0901
  149SAPE   HN116398   1.293   4.283   6.205 -2.2269 -3.0160 -1.2638
  149SAPE   HN216399   1.239   4.441   6.198 -1.4343  0.5578  2.0171
  149SAPE   HN316400   1.188   4.325   6.315 -0.6587 -0.8899 -0.1080
  149SAPE   C1216401   1.093   4.287   6.128 -0.4803 -0.1940  0.6343
  149SAPE  H12A16402   1.061   4.188   6.167 -1.3141 -0.1478  0.0885
  149SAPE  H12B16403   1.126   4.276   6.023 -1.0031 -2.5750  0.6706
  149SAPE   C1116404   0.969   4.380   6.135  0.3367  0.1692  0.5724
  149SAPE  H11A16405   0.896   4.308   6.090  1.5395 -3.1404  3.4344
  149SAPE  H11B16406   0.994   4.469   6.074 -1.1190  1.1903  1.4004
  149SAPE     P16407   0.840   4.532   6.295 -0.2759 -0.3221 -0.1984
  149SAPE   O1316408   0.862   4.654   6.214 -0.4480  0.0934  0.1830
  149SAPE   O1416409   0.706   4.472   6.293  0.7075 -0.0949 -0.4700
  149SAPE   O1216410   0.936   4.423   6.263 -0.6761  0.2933  0.2931
  149SAPE   O1116411   0.872   4.578   6.446 -0.9031 -0.2310  0.6610
  149SAPE    C116412   1.011   4.605   6.472  0.0656  0.5178 -0.5998
  149SAPE    HA16413   1.062   4.506   6.475 -2.0231 -0.6195 -1.1142
  149SAPE    HB16414   1.052   4.680   6.400  0.0433  1.5632  0.4436
  149SAPE    C216415   1.027   4.662   6.619 -0.1747 -0.3069  0.1154
  149SAPE    HS16416   1.134   4.669   6.649  0.1349 -2.3414 -0.4327
  149SAPE   O2116417   0.949   4.585   6.722  0.0532 -0.1186  0.7854
  149SAPE   C2116418   0.968   4.459   6.727  0.8931 -0.3365 -0.1210
  149SAPE   O2216419   1.059   4.397   6.680 -0.2734  0.9950 -0.5381
  149SAPE   C2216420   0.853   4.397   6.806  0.4192  0.0302 -0.5374
  149SAPE   H2R16421   0.876   4.289   6.821 -0.2383 -0.0316  0.1186
  149SAPE   H2S16422   0.846   4.449   6.904  1.0243 -2.6833  1.0458
  149SAPE    C316423   0.989   4.817   6.623  0.3764  0.4072 -0.7248
  149SAPE    HX16424   0.894   4.836   6.569 -0.1158  0.1656  0.0401
  149SAPE    HY16425   1.067   4.879   6.574  2.1351 -1.8180 -0.8585
  149SAPE   O3116426   0.967   4.869   6.757 -0.4180 -0.2618 -0.0507
  149SAPE   C3116427   0.848   4.847   6.806  0.4561  0.5829 -0.3079
  149SAPE   O3216428   0.753   4.803   6.738  0.0206  0.2757 -0.1562
  149SAPE   C3216429   0.841   4.890   6.947 -0.4092  0.4220  0.4083
  149SAPE   H2X16430   0.736   4.923   6.962 -0.3937  0.3343  0.7088
  149SAPE   H2Y16431   0.927   4.956   6.969  2.5122 -2.0949 -2.4558
  149SAPE   C2316432   0.719   4.401   6.730 -1.1619 -0.6934  0.2745
  149SAPE   H3R16433   0.730   4.323   6.652  0.2197 -2.2359  1.9228
  149SAPE   H3S16434   0.721   4.500   6.679  1.4782 -1.6489 -1.7202
  149SAPE   C2416435   0.593   4.391   6.825 -0.6739 -0.1102 -0.2780
  149SAPE   H4R16436   0.512   4.408   6.751 -0.1104 -0.8795 -1.0862
  149SAPE   H4S16437   0.605   4.470   6.902  0.3531  0.8845 -1.4245
  149SAPE   C2516438   0.598   4.258   6.890 -0.2513  0.4137  0.0801
  149SAPE   H5R16439   0.637   4.180   6.823 -0.6459  0.2575  0.0346
  149SAPE   C2616440   0.560   4.223   7.012 -0.7973 -0.4110 -0.0391
  149SAPE   H6R16441   0.564   4.122   7.054 -0.9180 -0.4902 -0.2155
  149SAPE   C2716442   0.504   4.313   7.117 -0.6773  0.5962 -0.0436
  149SAPE   H7R16443   0.405   4.276   7.151 -0.8240  0.0303 -1.0653
  149SAPE   H7S16444   0.482   4.406   7.061 -0.5612  1.1113  0.7460
  149SAPE   C2816445   0.599   4.337   7.230  0.0934 -0.3485  0.0020
  149SAPE   H8R16446   0.686   4.396   7.197 -0.3435  1.0955  1.3205
  149SAPE   C2916447   0.590   4.293   7.358  0.6064  0.2430  0.0193
  149SAPE   H9R16448   0.668   4.338   7.422 -0.5818  0.8687  1.0628
  149SAPE  C21016449   0.487   4.205   7.424  0.1523 -1.1128 -0.3793
  149SAPE  H10R16450   0.428   4.150   7.348 -1.7601  3.3909 -2.5126
  149SAPE  H10S16451   0.417   4.277   7.472  2.0854  0.0993  0.7448
  149SAPE  C21116452   0.544   4.129   7.537  0.3316  0.8034  0.0306
  149SAPE  H11R16453   0.571   4.028   7.503  0.1270  0.8564 -0.2960
  149SAPE  C21216454   0.556   4.163   7.665 -0.2319 -0.6015 -0.1952
  149SAPE  H12R16455   0.597   4.100   7.746 -2.7133 -0.5919  1.1624
  149SAPE  C21316456   0.517   4.299   7.711  0.2532 -0.5591  0.6149
  149SAPE  H13R16457   0.406   4.290   7.705  0.3144 -0.2341 -2.0885
  149SAPE  H13S16458   0.538   4.373   7.631 -3.3602 -0.5075 -0.4533
  149SAPE  C21416459   0.575   4.356   7.840  0.0230 -0.3588  0.1633
  149SAPE  H14R16460   0.641   4.443   7.826 -0.5156  0.1420  0.6850
  149SAPE  C21516461   0.546   4.315   7.967  0.2391 -0.1534  0.2307
  149SAPE  H15R16462   0.594   4.361   8.056 -0.0511 -1.1294  0.9123
  149SAPE  C21616463   0.455   4.201   8.013  0.3985  0.5304  0.1784
  149SAPE  H16R16464   0.413   4.142   7.929 -1.3243  0.1398  1.2738
  149SAPE  H16S16465   0.364   4.239   8.064 -0.3998 -1.2370  0.1263
  149SAPE  C21716466   0.503   4.104   8.119 -0.4722 -0.1045  0.2872
  149SAPE  H17R16467   0.432   4.021   8.137 -0.1145 -0.1877  1.3679
  149SAPE  H17S16468   0.514   4.157   8.216  0.2832  0.8715 -0.3144
  149SAPE  C21816469   0.646   4.047   8.101  0.4431  0.1699  0.5309
  149SAPE  H18R16470   0.673   4.003   8.199 -1.7808 -0.0952  1.0754
  149SAPE  H18S16471   0.720   4.130   8.092 -1.0042  1.5455  1.0499
  149SAPE  C21916472   0.652   3.931   7.999 -0.2579 -0.6799  0.4995
  149SAPE  H19R16473   0.552   3.922   7.952  0.2828 -0.6349 -0.7120
  149SAPE  H19S16474   0.669   3.835   8.053 -0.7052 -1.2242 -0.3076
  149SAPE  C22016475   0.756   3.957   7.884  0.3724  0.3203 -0.3703
  149SAPE  H20R16476   0.737   3.888   7.799  1.3158 -1.8255  1.0574
  149SAPE  H20S16477   0.859   3.931   7.918  1.5462  2.4864 -2.0263
  149SAPE  H20T16478   0.775   4.062   7.852  1.0060  0.6795  1.0882
  149SAPE   C3316479   0.852   4.779   7.049 -0.6118  0.8142 -0.6803
  149SAPE   H3X16480   0.782   4.694   7.028 -0.9264  0.6969  0.7634
  149SAPE   H3Y16481   0.828   4.838   7.140  0.8984  0.9793 -0.3667
  149SAPE   C3416482   0.994   4.720   7.058  0.5862  0.5249  0.0447
  149SAPE   H4X16483   1.072   4.798   7.071  0.7768  0.0346  2.2337
  149SAPE   H4Y16484   1.007   4.682   6.954  1.5894  2.0275 -0.4214
  149SAPE   C3516485   1.024   4.609   7.162  0.5037  0.0629  0.0414
  149SAPE   H5X16486   1.121   4.558   7.146 -0.5376 -1.8953 -0.2822
  149SAPE   H5Y16487   0.941   4.535   7.156  1.6034 -1.1145 -2.0007
  149SAPE   C3616488   1.025   4.669   7.304  0.3724  0.5268 -0.0853
  149SAPE   H6X16489   0.922   4.705   7.322  0.6023  0.0929  2.4276
  149SAPE   H6Y16490   1.100   4.751   7.308  1.4932 -0.4989  0.5499
  149SAPE   C3716491   1.073   4.570   7.413  0.3941  0.3372  0.0328
  149SAPE   H7X16492   1.082   4.633   7.504  0.4666 -1.4966  1.3518
  149SAPE   H7Y16493   1.173   4.532   7.384  0.6974  0.1796  1.2106
  149SAPE   C3816494   0.971   4.451   7.423  0.5235 -0.5212 -0.0053
  149SAPE   H8X16495   0.962   4.411   7.320  0.6298  0.6766 -0.4948
  149SAPE   H8Y16496   0.872   4.496   7.447  1.7101  1.0555  2.2184
  149SAPE   C3916497   1.008   4.346   7.525 -0.1920  0.5800  0.2687
  149SAPE   H9X16498   1.118   4.334   7.525 -0.2206 -0.1780 -1.9423
  149SAPE   H9Y16499   0.971   4.248   7.487  2.2541 -0.3662  0.1247
  149SAPE  C31016500   0.954   4.368   7.668  0.5361 -0.1598  0.1354
  149SAPE  H10X16501   0.843   4.378   7.666  0.5397 -0.2146 -0.9853
  149SAPE  H10Y16502   1.002   4.459   7.709  0.2393  0.1104 -0.1029
  149SAPE  C31116503   0.983   4.241   7.750 -0.6750  0.4544  0.1649
  149SAPE  H11X16504   1.088   4.225   7.720 -0.8467  1.2803 -0.9293
  149SAPE  H11Y16505   0.923   4.164   7.697  0.5789  0.8541 -1.9182
  149SAPE  C31216506   0.958   4.253   7.902 -0.4019 -0.8055  0.5182
  149SAPE  H12X16507   0.989   4.156   7.945  1.1795 -0.7261 -0.3546
  149SAPE  H12Y16508   0.852   4.279   7.919 -0.9621 -1.1779 -2.0643
  149SAPE  C31316509   1.045   4.365   7.959 -0.5912 -0.1634  0.6164
  149SAPE  H13X16510   1.001   4.466   7.945 -1.0177 -0.3559  0.5496
  149SAPE  H13Y16511   1.138   4.373   7.899 -0.7292 -1.4290  0.1951
  149SAPE  C31416512   1.063   4.340   8.104  0.3689  0.7320 -0.9312
  149SAPE  H14X16513   1.147   4.403   8.140  1.0844  2.1631 -4.6360
  149SAPE  H14Y16514   1.099   4.237   8.126  0.1933  0.5952 -1.2796
  149SAPE  C31516515   0.939   4.361   8.198 -0.2665  0.0353 -0.3414
  149SAPE  H15X16516   0.864   4.291   8.156 -1.8770  1.1443  0.6106
  149SAPE  H15Y16517   0.898   4.463   8.190 -0.5564  0.1451  2.0139
  149SAPE  C31616518   0.970   4.357   8.346  0.2707  0.2136 -0.4360
  149SAPE  H16X16519   1.044   4.439   8.356  1.0608 -0.3459 -1.4928
  149SAPE  H16Y16520   1.028   4.266   8.373 -0.6893 -0.4904 -0.6700
  149SAPE  C31716521   0.846   4.372   8.443 -0.3748  0.1000  0.3144
  149SAPE  H17X16522   0.787   4.278   8.427 -0.1935 -0.1985  1.3341
  149SAPE  H17Y16523   0.794   4.463   8.407 -0.5695  0.1444  0.7040
  149SAPE  C31816524   0.898   4.389   8.584  0.4130  0.4771 -0.0641
  149SAPE  H18X16525   0.822   4.397   8.665  0.5506  0.0815  0.1087
  149SAPE  H18Y16526   0.944   4.491   8.582 -1.0272  1.1446 -1.9430
  149SAPE  H18Z16527   0.970   4.311   8.619 -1.1485 -0.2996  1.5790
  150SAPE     N16528   5.544   5.860   6.167  0.0266 -0.9102  0.0279
  150SAPE   HN116529   5.565   5.766   6.128  0.2823  0.1433 -2.5637
  150SAPE   HN216530   5.445   5.888   6.149 -0.1293 -1.7688 -0.4773
  150SAPE   HN316531   5.598   5.929   6.112 -0.4978  0.3323  1.0157
  150SAPE   C1216532   5.589   5.893   6.309 -0.2282  0.3614 -0.0538
  150SAPE  H12A16533   5.695   5.861   6.313 -0.6150 -1.2275 -1.1781
  150SAPE  H12B16534   5.536   5.817   6.371 -1.5493 -0.4730 -2.0666
  150SAPE   C1116535   5.556   6.038   6.339  0.3426 -0.5559 -0.4092
  150SAPE  H11A16536   5.596   6.053   6.441 -2.3638 -0.9746  0.8148
  150SAPE  H11B16537   5.448   6.058   6.354  0.9913  3.0382  0.2479
  150SAPE     P16538   5.725   6.223   6.265 -0.2692  0.4597  0.3514
  150SAPE   O1316539   5.850   6.145   6.250 -0.1660 -0.4245 -0.3684
  150SAPE   O1416540   5.716   6.341   6.172  0.2609  0.1329 -0.1261
  150SAPE   O1216541   5.605   6.124   6.241  0.1629 -0.6419  0.1730
  150SAPE   O1116542   5.705   6.268   6.415 -0.8291 -0.2972 -0.4622
  150SAPE    C116543   5.587   6.337   6.465  0.0137 -0.2949 -1.0384
  150SAPE    HA16544   5.545   6.410   6.392  0.0199  0.0909 -0.6545
  150SAPE    HB16545   5.506   6.260   6.466 -0.1323 -0.1392 -0.7895
  150SAPE    C216546   5.605   6.405   6.607  0.4388  0.1507 -0.6491
  150SAPE    HS16547   5.679   6.488   6.604 -0.3390  0.8303 -1.1430
  150SAPE   O2116548   5.641   6.294   6.691 -0.1986  0.6816  0.2089
  150SAPE   C2116549   5.775   6.285   6.705  0.5403 -0.6295 -0.3889
  150SAPE   O2216550   5.861   6.371   6.677  0.3515  0.0856  0.0507
  150SAPE   C2216551   5.803   6.147   6.757  0.2851  0.1166  0.5666
  150SAPE   H2R16552   5.708   6.099   6.788  1.8629 -1.4619  3.2598
  150SAPE   H2S16553   5.837   6.092   6.667  1.3471  2.6211 -0.6698
  150SAPE    C316554   5.467   6.467   6.641  0.8325 -0.0074 -0.2237
  150SAPE    HX16555   5.394   6.387   6.665  0.6470 -0.1908 -1.3462
  150SAPE    HY16556   5.421   6.511   6.550  0.5493  0.3296  0.0778
  150SAPE   O3116557   5.470   6.560   6.751 -0.0817 -0.4770  0.9359
  150SAPE   C3116558   5.511   6.681   6.705  0.2661  0.0188  0.7508
  150SAPE   O3216559   5.540   6.713   6.589 -0.6649  0.1465  0.1459
  150SAPE   C3216560   5.523   6.774   6.826 -0.3160  0.3718 -0.0246
  150SAPE   H2X16561   5.448   6.750   6.903  0.1550  1.5024  0.8188
  150SAPE   H2Y16562   5.493   6.872   6.783 -1.4681  0.9498  1.9759
  150SAPE   C2316563   5.903   6.147   6.878  0.5509 -0.2096  0.1056
  150SAPE   H3R16564   5.852   6.194   6.965  0.5963 -1.5491  0.8987
  150SAPE   H3S16565   5.998   6.205   6.869 -0.2134  1.0183 -0.2070
  150SAPE   C2416566   5.947   6.006   6.926  0.1245  0.3373 -0.4163
  150SAPE   H4R16567   6.036   6.005   6.993 -0.1019  0.6943 -0.1078
  150SAPE   H4S16568   5.973   5.954   6.831  1.8578 -1.2924  0.8745
  150SAPE   C2516569   5.834   5.925   6.989 -0.3653 -0.3625 -0.2288
  150SAPE   H5R16570   5.769   5.883   6.910  0.5966  1.7180 -2.2716
  150SAPE   C2616571   5.818   5.908   7.122 -0.4797 -0.2628  0.1250
  150SAPE   H6R16572   5.735   5.843   7.153 -1.0487  0.2945 -0.1925
  150SAPE   C2716573   5.902   5.966   7.232  0.5654 -0.0157  0.1139
  150SAPE   H7R16574   5.981   6.033   7.192 -0.7160  0.8215 -1.0519
  150SAPE   H7S16575   5.956   5.882   7.282  1.5055  1.6008  1.9519
  150SAPE   C2816576   5.816   6.032   7.333 -0.2599 -0.4969  0.7562
  150SAPE   H8R16577   5.761   6.117   7.291 -0.5101 -0.9122  0.2253
  150SAPE   C2916578   5.809   6.005   7.466  0.7336 -0.0740 -0.0625
  150SAPE   H9R16579   5.741   6.062   7.530 -0.3832 -1.1489 -0.2521
  150SAPE  C21016580   5.901   5.909   7.535  0.6013 -0.5044 -0.0746
  150SAPE  H10R16581   5.986   5.976   7.561 -0.4689  1.0256 -0.3374
  150SAPE  H10S16582   5.946   5.832   7.470 -0.2640  0.3122 -1.6859
  150SAPE  C21116583   5.850   5.840   7.665  0.6412 -0.0623  0.1475
  150SAPE  H11R16584   5.774   5.760   7.658 -2.5719  2.4492  2.8173
  150SAPE  C21216585   5.883   5.868   7.790  0.1353 -0.4855 -0.4241
  150SAPE  H12R16586   5.838   5.804   7.867 -0.3556  1.2838  0.8322
  150SAPE  C21316587   5.968   5.976   7.849 -0.4079  0.6346  0.0113
  150SAPE  H13R16588   6.039   6.012   7.772 -1.8008 -0.6372 -1.9708
  150SAPE  H13S16589   6.033   5.924   7.922 -1.2559 -1.1674 -0.4513
  150SAPE  C21416590   5.886   6.085   7.908  0.6724 -0.1425 -0.5767
  150SAPE  H14R16591   5.798   6.122   7.854 -0.4012 -0.6120  0.7839
  150SAPE  C21516592   5.909   6.137   8.031  0.5861  0.4996 -0.8363
  150SAPE  H15R16593   5.831   6.198   8.079  3.2361  1.9666  1.9559
  150SAPE  C21616594   6.024   6.096   8.125 -0.1001  1.0790  0.2015
  150SAPE  H16R16595   6.072   6.184   8.173 -0.4627  1.0644  0.5938
  150SAPE  H16S16596   6.105   6.057   8.060  0.4751  0.0923  1.4758
  150SAPE  C21716597   6.002   5.982   8.227  0.1416 -0.1769  0.0477
  150SAPE  H17R16598   6.105   5.948   8.251  0.3872 -0.6996 -1.5807
  150SAPE  H17S16599   5.947   5.899   8.176  0.2529  0.3704 -0.9900
  150SAPE  C21816600   5.940   6.031   8.355 -0.2476 -0.2315  0.5799
  150SAPE  H18R16601   5.856   6.096   8.324  1.6096  1.5558 -1.0448
  150SAPE  H18S16602   6.011   6.094   8.413 -2.9843  2.3966  1.2855
  150SAPE  C21916603   5.883   5.909   8.439  0.1897  0.0521 -0.2447
  150SAPE  H19R16604   5.972   5.861   8.484  0.6922 -1.3625 -2.5337
  150SAPE  H19S16605   5.840   5.839   8.363  0.3832  0.1170 -0.4147
  150SAPE  C22016606   5.781   5.955   8.547 -0.3354  0.1370 -0.3577
  150SAPE  H20R16607   5.679   5.961   8.502  0.8285  0.9679 -3.1073
  150SAPE  H20S16608   5.808   6.049   8.600 -3.7467  0.2024  1.6020
  150SAPE  H20T16609   5.777   5.881   8.629  1.7958  0.4503  0.0797
  150SAPE   C3316610   5.672   6.776   6.885  0.5513  0.7010 -0.0163
  150SAPE   H3X16611   5.679   6.869   6.945  1.3234  0.3807  0.3958
  150SAPE   H3Y16612   5.751   6.772   6.808  1.6255  0.7700  1.0571
  150SAPE   C3416613   5.710   6.658   6.977 -0.3735  0.3720  0.5191
  150SAPE   H4X16614   5.806   6.680   7.028 -0.3147  1.2282  0.0612
  150SAPE   H4Y16615   5.722   6.567   6.915  1.5846 -0.7104  2.3450
  150SAPE   C3516616   5.610   6.614   7.088  0.5939 -0.2659 -0.3361
  150SAPE   H5X16617   5.522   6.567   7.040 -0.5901  2.5883 -1.1927
  150SAPE   H5Y16618   5.564   6.693   7.152  0.5646  0.2108 -0.9422
  150SAPE   C3616619   5.691   6.510   7.179  0.4789 -0.1774 -0.9494
  150SAPE   H6X16620   5.782   6.562   7.216  0.2349 -1.1757  1.1980
  150SAPE   H6Y16621   5.713   6.424   7.112 -3.4900 -1.0606 -1.3370
  150SAPE   C3716622   5.610   6.458   7.297 -1.3428 -0.0449  1.2566
  150SAPE   H7X16623   5.531   6.395   7.251 -2.7835  3.1851 -1.1434
  150SAPE   H7Y16624   5.552   6.545   7.336 -0.1032  2.5570 -2.1621
  150SAPE   C3816625   5.698   6.398   7.410 -0.1510 -0.0444  0.0527
  150SAPE   H8X16626   5.750   6.477   7.468 -0.5071  0.6196 -0.5192
  150SAPE   H8Y16627   5.780   6.334   7.369 -1.3104  1.1069 -4.6320
  150SAPE   C3916628   5.621   6.303   7.498 -0.3862  0.4349  0.3093
  150SAPE   H9X16629   5.700   6.269   7.569 -0.2468  2.3762  1.1567
  150SAPE   H9Y16630   5.591   6.220   7.431  0.9842  1.6376 -1.8870
  150SAPE  C31016631   5.511   6.386   7.574 -0.3032 -0.2172  1.5523
  150SAPE  H10X16632   5.444   6.424   7.495  4.4958  0.3928 -2.7374
  150SAPE  H10Y16633   5.566   6.463   7.632  1.6036  0.4453 -0.9935
  150SAPE  C31116634   5.419   6.308   7.669  0.0266 -0.3468  0.7871
  150SAPE  H11X16635   5.372   6.230   7.606 -3.6721  1.8616  0.5438
  150SAPE  H11Y16636   5.332   6.370   7.700 -0.4910 -0.9709  0.6083
  150SAPE  C31216637   5.506   6.262   7.790 -0.1694  0.2754 -0.2591
  150SAPE  H12X16638   5.579   6.344   7.805 -0.6574  0.5600  0.6134
  150SAPE  H12Y16639   5.559   6.170   7.760 -1.7129 -0.4226 -1.0034
  150SAPE  C31316640   5.414   6.245   7.911  0.0409  0.9042 -0.7182
  150SAPE  H13X16641   5.342   6.162   7.896 -1.0707  1.9651 -1.4917
  150SAPE  H13Y16642   5.350   6.336   7.910 -1.9418 -0.4298 -1.9975
  150SAPE  C31416643   5.497   6.236   8.037 -0.6899 -0.0810 -0.8520
  150SAPE  H14X16644   5.535   6.336   8.064 -1.4078 -0.3657  1.4715
  150SAPE  H14Y16645   5.579   6.165   8.011  1.1310  1.0098  1.5565
  150SAPE  C31516646   5.424   6.175   8.159  0.7945  0.5432 -0.2480
  150SAPE  H15X16647   5.381   6.074   8.142 -0.3455  0.0943  4.1710
  150SAPE  H15Y16648   5.342   6.235   8.204 -0.6085 -1.0806 -0.5223
  150SAPE  C31616649   5.533   6.167   8.263  0.5092 -0.3264 -0.3414
  150SAPE  H16X16650   5.578   6.268   8.269 -0.0342 -0.1686  1.9390
  150SAPE  H16Y16651   5.598   6.081   8.234  0.0670 -0.9542  0.4882
  150SAPE  C31716652   5.466   6.142   8.404 -0.0296 -0.7869 -0.2143
  150SAPE  H17X16653   5.376   6.207   8.412 -1.0232 -2.0182 -1.0603
  150SAPE  H17Y16654   5.536   6.165   8.488  0.7235  1.9340 -1.4486
  150SAPE  C31816655   5.418   5.993   8.403  0.0902 -0.2584  0.0111
  150SAPE  H18X16656   5.341   5.964   8.328  1.9535 -2.7035 -1.0961
  150SAPE  H18Y16657   5.385   5.966   8.506  0.0500  1.6027  0.5308
  150SAPE  H18Z16658   5.503   5.929   8.371 -0.6736 -1.2853 -0.0030
  151SAPE     N16659   2.543   3.732   6.236  0.0227  0.0234  0.5168
  151SAPE   HN116660   2.585   3.638   6.250 -0.5939 -0.1173  1.5139
  151SAPE   HN216661   2.439   3.724   6.242 -0.5161  0.8753 -3.8003
  151SAPE   HN316662   2.563   3.773   6.142  0.5114 -2.7989 -0.7127
  151SAPE   C1216663   2.599   3.818   6.341  0.2162  0.0426  0.1611
  151SAPE  H12A16664   2.679   3.879   6.296  0.0943 -0.5773 -0.9342
  151SAPE  H12B16665   2.633   3.757   6.428 -2.7975  0.0176  1.4682
  151SAPE   C1116666   2.486   3.903   6.400  0.8490  0.1571 -0.1529
  151SAPE  H11A16667   2.506   3.958   6.494 -4.8611 -1.5531  2.4781
  151SAPE  H11B16668   2.403   3.836   6.430 -0.5037  0.8074 -2.2457
  151SAPE     P16669   2.280   4.050   6.328  0.2395 -0.0522  0.5423
  151SAPE   O1316670   2.219   4.059   6.191  0.3202  0.2694 -0.8018
  151SAPE   O1416671   2.213   3.950   6.408  0.6426  0.0326 -0.2638
  151SAPE   O1216672   2.435   4.010   6.309  0.7006 -0.3600  0.0478
  151SAPE   O1116673   2.271   4.188   6.393 -0.0478 -0.8395 -0.1941
  151SAPE    C116674   2.358   4.302   6.357 -0.2571  0.6117  0.7538
  151SAPE    HA16675   2.405   4.287   6.257 -2.9747 -0.3966 -0.4744
  151SAPE    HB16676   2.304   4.398   6.374 -1.5054 -0.3986  2.7950
  151SAPE    C216677   2.483   4.305   6.446 -0.2421  0.3299  0.1808
  151SAPE    HS16678   2.521   4.201   6.460 -0.8467 -0.0131 -0.6504
  151SAPE   O2116679   2.458   4.370   6.570  0.0170 -0.2039  0.0671
  151SAPE   C2116680   2.397   4.290   6.657 -0.5840 -0.0540  0.1724
  151SAPE   O2216681   2.395   4.168   6.649  0.5188  0.0276 -0.4116
  151SAPE   C2216682   2.351   4.377   6.769  0.2679 -0.0528  0.2911
  151SAPE   H2R16683   2.428   4.440   6.817  1.1427 -1.3430  0.6316
  151SAPE   H2S16684   2.277   4.448   6.726 -1.0153 -0.7365  1.2644
  151SAPE    C316685   2.596   4.384   6.380  0.0186 -0.3264 -0.9048
  151SAPE    HX16686   2.553   4.477   6.337 -0.4591 -0.2694 -0.3188
  151SAPE    HY16687   2.618   4.327   6.287 -1.9214 -0.7623 -1.1403
  151SAPE   O3116688   2.709   4.411   6.475 -0.0457 -0.6979  0.5355
  151SAPE   C3116689   2.832   4.395   6.413 -0.7364  0.2288  0.0680
  151SAPE   O3216690   2.844   4.400   6.292 -0.3530  0.0090  0.0505
  151SAPE   C3216691   2.947   4.367   6.512 -0.4498 -0.2316 -0.6184
  151SAPE   H2X16692   3.041   4.397   6.462  0.3890 -4.2218 -1.8141
  151SAPE   H2Y16693   2.956   4.258   6.532  1.1304  0.1518  1.0257
  151SAPE   C2316694   2.282   4.297   6.879 -0.5989  0.3582  1.0229
  151SAPE   H3R16695   2.344   4.218   6.927 -0.0819  0.3980  0.4312
  151SAPE   H3S16696   2.187   4.252   6.843  0.6523  0.2195 -2.4983
  151SAPE   C2416697   2.235   4.390   6.996  0.2478  0.2750  0.3579
  151SAPE   H4R16698   2.169   4.329   7.062  1.5829 -0.7782  0.7494
  151SAPE   H4S16699   2.180   4.474   6.947  0.4433 -1.1699 -2.5572
  151SAPE   C2516700   2.349   4.435   7.075 -0.7871 -0.0178  0.4680
  151SAPE   H5R16701   2.429   4.360   7.086  0.2136  1.0227  0.5570
  151SAPE   C2616702   2.376   4.563   7.112  0.1518  0.0229  0.2083
  151SAPE   H6R16703   2.474   4.579   7.159  0.0800 -1.0055  0.7528
  151SAPE   C2716704   2.289   4.681   7.094  0.3338 -0.9631  0.0921
  151SAPE   H7R16705   2.304   4.743   7.185 -0.0128 -0.4301 -0.2108
  151SAPE   H7S16706   2.182   4.652   7.084  0.4065 -1.9673  1.8921
  151SAPE   C2816707   2.320   4.754   6.965 -0.5557  0.7800 -0.1339
  151SAPE   H8R16708   2.338   4.681   6.884 -0.6467 -0.3110  0.8187
  151SAPE   C2916709   2.351   4.885   6.937 -0.1772 -0.3746 -0.1540
  151SAPE   H9R16710   2.363   4.915   6.832  0.6474 -1.4365 -0.3868
  151SAPE  C21016711   2.362   4.999   7.035 -0.0945 -0.8452  0.0445
  151SAPE  H10R16712   2.468   5.030   7.051 -0.7042  1.3067  0.1315
  151SAPE  H10S16713   2.330   4.972   7.138 -2.3751 -0.9136 -0.6357
  151SAPE  C21116714   2.284   5.115   6.985 -0.5683 -0.2039  1.4111
  151SAPE  H11R16715   2.340   5.182   6.918 -0.8869 -2.3699 -1.1837
  151SAPE  C21216716   2.153   5.143   6.982  0.5501  0.0677  0.6172
  151SAPE  H12R16717   2.121   5.242   6.946 -0.1242 -0.6354 -0.7599
  151SAPE  C21316718   2.037   5.072   7.046  0.0153 -0.4901 -0.2236
  151SAPE  H13R16719   1.997   5.130   7.131  2.9745 -0.3730  1.1916
  151SAPE  H13S16720   2.079   4.973   7.074  0.5389  0.0745  1.0867
  151SAPE  C21416721   1.918   5.048   6.962 -0.2750 -0.0712  0.8391
  151SAPE  H14R16722   1.891   4.942   6.956  1.9222 -0.7061  1.4557
  151SAPE  C21516723   1.828   5.128   6.911 -0.3543 -0.3873  0.8198
  151SAPE  H15R16724   1.751   5.090   6.842 -0.7964  0.3080  0.9188
  151SAPE  C21616725   1.830   5.279   6.928 -0.5948  0.5266 -0.1071
  151SAPE  H16R16726   1.868   5.322   6.833 -1.5244  2.8882  0.5155
  151SAPE  H16S16727   1.894   5.326   7.007 -1.6917  1.3943  0.2905
  151SAPE  C21716728   1.684   5.330   6.950 -0.4011  0.3101 -0.8926
  151SAPE  H17R16729   1.644   5.270   7.035  0.3264  0.6582 -0.2917
  151SAPE  H17S16730   1.626   5.299   6.861 -1.2568 -1.4677  0.2254
  151SAPE  C21816731   1.674   5.479   6.960  0.5667  0.0751  0.0291
  151SAPE  H18R16732   1.712   5.527   7.053 -1.7287 -0.6109  1.3953
  151SAPE  H18S16733   1.564   5.494   6.964  0.8178  2.1112  0.4617
  151SAPE  C21916734   1.732   5.551   6.832  0.8569  0.1027 -0.5651
  151SAPE  H19R16735   1.742   5.478   6.750  3.6214  1.1811 -1.3032
  151SAPE  H19S16736   1.835   5.587   6.856  0.6235  0.1761  0.3859
  151SAPE  C22016737   1.647   5.668   6.791  0.4097 -0.4926 -0.2925
  151SAPE  H20R16738   1.634   5.735   6.879  3.4742 -0.8370  0.5319
  151SAPE  H20S16739   1.694   5.721   6.705 -3.2612 -0.6246 -2.5895
  151SAPE  H20T16740   1.547   5.630   6.760 -0.7429  1.2035  1.1640
  151SAPE   C3316741   2.936   4.447   6.643  0.4983 -0.8333 -0.3695
  151SAPE   H3X16742   2.844   4.406   6.688  0.0862  0.2884 -0.1551
  151SAPE   H3Y16743   2.905   4.552   6.622  1.9866 -0.7497 -2.5760
  151SAPE   C3416744   3.046   4.404   6.740 -0.7052 -0.7233 -0.1786
  151SAPE   H4X16745   3.142   4.461   6.736  0.1701 -2.2180 -1.8208
  151SAPE   H4Y16746   3.065   4.295   6.739  1.1106 -0.4375 -0.6638
  151SAPE   C3516747   3.014   4.425   6.886  0.6149 -0.5829  0.0745
  151SAPE   H5X16748   2.916   4.387   6.923  0.0724  2.3469  1.9474
  151SAPE   H5Y16749   3.004   4.535   6.901  0.4942 -0.3357 -1.6363
  151SAPE   C3616750   3.122   4.364   6.972 -0.0572  0.2426 -0.1561
  151SAPE   H6X16751   3.220   4.388   6.926 -1.1564  2.5523 -1.4665
  151SAPE   H6Y16752   3.108   4.254   6.985 -0.1637  0.0530 -1.7052
  151SAPE   C3716753   3.133   4.435   7.112  0.7289 -0.1806  0.6879
  151SAPE   H7X16754   3.110   4.543   7.109 -0.1760 -0.3748 -1.6800
  151SAPE   H7Y16755   3.243   4.429   7.127  0.6080 -0.2533  1.5604
  151SAPE   C3816756   3.059   4.367   7.224 -0.0106 -0.4219 -0.2379
  151SAPE   H8X16757   3.038   4.267   7.181 -0.2561 -1.4455  2.0955
  151SAPE   H8Y16758   2.962   4.416   7.248  0.5572  0.8624 -0.4394
  151SAPE   C3916759   3.142   4.337   7.352 -0.5958  0.0215  0.4261
  151SAPE   H9X16760   3.205   4.427   7.371 -0.7654  0.2907 -0.2512
  151SAPE   H9Y16761   3.208   4.252   7.323 -0.7084  0.2021 -0.3962
  151SAPE  C31016762   3.055   4.298   7.473  0.1126  0.2273  0.1063
  151SAPE  H10X16763   3.008   4.201   7.449  1.0816 -0.3866  0.6258
  151SAPE  H10Y16764   2.982   4.379   7.497 -0.8797 -0.3819 -0.8036
  151SAPE  C31116765   3.143   4.284   7.598  0.8284  0.0571  0.2292
  151SAPE  H11X16766   3.173   4.376   7.652 -1.4474  0.5686  0.7187
  151SAPE  H11Y16767   3.238   4.231   7.575 -0.0769 -1.1517 -0.8673
  151SAPE  C31216768   3.079   4.204   7.719  0.0178  0.1765  0.2460
  151SAPE  H12X16769   3.065   4.095   7.699 -1.6406  0.2980  0.6017
  151SAPE  H12Y16770   2.988   4.259   7.753  0.1840  0.2643  0.5501
  151SAPE  C31316771   3.173   4.199   7.838 -0.5595 -0.3256 -0.3118
  151SAPE  H13X16772   3.200   4.302   7.869 -2.6519  0.0779  0.3017
  151SAPE  H13Y16773   3.274   4.157   7.820  0.8682  3.1159 -1.2986
  151SAPE  C31416774   3.109   4.130   7.961  0.4857 -0.2517 -0.0502
  151SAPE  H14X16775   3.083   4.024   7.940 -3.9349 -0.3221  3.9655
  151SAPE  H14Y16776   3.016   4.189   7.975  0.9931  1.2810 -2.4888
  151SAPE  C31516777   3.198   4.114   8.085  0.6377 -0.4076  0.1206
  151SAPE  H15X16778   3.239   4.211   8.121 -0.3989 -0.4464  1.4733
  151SAPE  H15Y16779   3.281   4.046   8.056  0.4330 -1.2678  1.4662
  151SAPE  C31616780   3.120   4.048   8.207 -0.9887 -0.3468 -0.0962
  151SAPE  H16X16781   3.091   3.942   8.191  1.2889 -1.0649  0.1733
  151SAPE  H16Y16782   3.040   4.121   8.234  0.0381  0.7348  0.0886
  151SAPE  C31716783   3.211   4.045   8.339  0.0829 -0.1871 -0.4662
  151SAPE  H17X16784   3.261   4.143   8.357 -0.6049 -0.0701  0.8899
  151SAPE  H17Y16785   3.284   3.961   8.331  0.5560  0.0450  1.0652
  151SAPE  C31816786   3.131   4.001   8.469  0.0018 -0.5246 -0.2842
  151SAPE  H18X16787   3.188   4.034   8.558 -1.1239  0.6815  0.0136
  151SAPE  H18Y16788   3.123   3.891   8.460 -1.5919 -0.4435 -0.1805
  151SAPE  H18Z16789   3.029   4.044   8.478  0.1252 -0.2206 -0.3297
  152SAPE     N16790   4.757   0.646   6.404 -0.0052  0.2593 -0.4422
  152SAPE   HN116791   4.737   0.706   6.486  1.5403 -0.0094  0.1796
  152SAPE   HN216792   4.676   0.581   6.400 -0.3304  0.6444 -0.1646
  152SAPE   HN316793   4.840   0.586   6.423  0.7185  0.5324 -2.4724
  152SAPE   C1216794   4.797   0.734   6.291 -1.0223 -0.1178 -0.1825
  152SAPE  H12A16795   4.794   0.668   6.201  1.2573  0.6925 -0.9336
  152SAPE  H12B16796   4.902   0.770   6.301 -1.0858  0.9917 -2.6741
  152SAPE   C1116797   4.705   0.858   6.288 -0.2869  0.0763 -0.3240
  152SAPE  H11A16798   4.749   0.935   6.221  0.0839  0.6100  0.5144
  152SAPE  H11B16799   4.708   0.893   6.394 -0.4348  2.7800 -1.1151
  152SAPE     P16800   4.472   0.898   6.193  0.0945 -0.1914 -0.2687
  152SAPE   O1316801   4.522   0.967   6.071 -0.4472 -0.2305 -0.1212
  152SAPE   O1416802   4.346   0.821   6.182  0.2901 -0.3399  0.1817
  152SAPE   O1216803   4.581   0.802   6.249  0.0276  0.3422  0.0644
  152SAPE   O1116804   4.472   0.998   6.318  0.1765 -0.6385 -0.2834
  152SAPE    C116805   4.386   0.987   6.426  0.0365  0.0722 -0.2012
  152SAPE    HA16806   4.336   1.085   6.443 -1.2485 -0.6508  0.2990
  152SAPE    HB16807   4.300   0.919   6.411  0.5382 -0.7228  0.4157
  152SAPE    C216808   4.455   0.931   6.560  0.3535  0.0494  0.3646
  152SAPE    HS16809   4.503   0.839   6.521 -0.4539 -0.3854  0.3784
  152SAPE   O2116810   4.345   0.913   6.657 -0.0691  0.6213 -0.0629
  152SAPE   C2116811   4.362   0.816   6.733 -0.5560 -0.0113  0.6520
  152SAPE   O2216812   4.459   0.739   6.738 -0.0612 -0.0330 -0.8575
  152SAPE   C2216813   4.240   0.798   6.828 -0.6943 -0.0101 -0.5236
  152SAPE   H2R16814   4.151   0.833   6.771 -0.8076  0.1981 -0.2225
  152SAPE   H2S16815   4.245   0.689   6.848 -0.4092 -0.1696 -1.4369
  152SAPE    C316816   4.561   1.031   6.610 -0.1656  0.4927 -0.6545
  152SAPE    HX16817   4.500   1.121   6.633 -0.2266  0.1289  0.6984
  152SAPE    HY16818   4.635   1.066   6.535  1.8479 -1.0910  0.5206
  152SAPE   O3116819   4.629   0.999   6.732  0.4756 -0.0244  0.2000
  152SAPE   C3116820   4.738   0.913   6.711 -0.8295 -0.2845  0.9848
  152SAPE   O3216821   4.771   0.859   6.610 -0.5622 -0.0711 -0.3532
  152SAPE   C3216822   4.818   0.898   6.839 -0.3759 -0.1133  0.7739
  152SAPE   H2X16823   4.822   1.002   6.878 -1.1819  2.2166 -4.5320
  152SAPE   H2Y16824   4.922   0.868   6.814 -0.2357  0.0444  1.1534
  152SAPE   C2316825   4.258   0.889   6.957  0.1322  0.4276  0.4159
  152SAPE   H3R16826   4.346   0.861   7.018  1.1903  1.9253 -0.3874
  152SAPE   H3S16827   4.157   0.872   7.000 -0.9750  1.5306 -1.5996
  152SAPE   C2416828   4.265   1.040   6.928  0.2059 -1.3907 -0.1843
  152SAPE   H4R16829   4.197   1.078   7.007  1.7240 -0.8673  0.9184
  152SAPE   H4S16830   4.224   1.062   6.828  0.4372 -2.6277 -0.5613
  152SAPE   C2516831   4.402   1.097   6.937  0.2168 -0.3930  0.3715
  152SAPE   H5R16832   4.473   1.055   6.864  0.9282 -1.1224  1.4458
  152SAPE   C2616833   4.458   1.185   7.024 -0.5432  0.1672 -0.4032
  152SAPE   H6R16834   4.567   1.193   7.033 -0.7147  0.7573  1.5541
  152SAPE   C2716835   4.383   1.246   7.136  0.3665 -0.0716 -0.7091
  152SAPE   H7R16836   4.301   1.308   7.094  0.1309 -1.0889 -1.8071
  152SAPE   H7S16837   4.464   1.308   7.179  1.9504 -2.2920 -0.2951
  152SAPE   C2816838   4.328   1.153   7.242 -0.2027  0.2786  0.3215
  152SAPE   H8R16839   4.225   1.120   7.218 -0.3791 -0.2702  1.7939
  152SAPE   C2916840   4.385   1.123   7.359  0.1487 -0.0594 -0.4812
  152SAPE   H9R16841   4.320   1.065   7.426  0.2182  2.0020  1.4648
  152SAPE  C21016842   4.508   1.164   7.421  0.1247 -0.2922 -0.4114
  152SAPE  H10R16843   4.507   1.272   7.447 -0.9744 -0.6977  1.3839
  152SAPE  H10S16844   4.586   1.171   7.343  2.4965 -0.7079  1.8086
  152SAPE  C21116845   4.563   1.084   7.532  0.3233  0.0738 -0.9002
  152SAPE  H11R16846   4.586   0.978   7.512  1.5283  0.3982 -1.2797
  152SAPE  C21216847   4.590   1.135   7.658  0.9335  0.2474  0.5341
  152SAPE  H12R16848   4.660   1.078   7.720  1.1497 -0.9733 -0.7629
  152SAPE  C21316849   4.563   1.277   7.699 -0.6529 -0.1606 -0.4649
  152SAPE  H13R16850   4.493   1.326   7.628  2.0478  2.2969 -1.6147
  152SAPE  H13S16851   4.657   1.336   7.691  0.6466 -1.6326  2.4058
  152SAPE  C21416852   4.512   1.280   7.841 -0.4265 -0.2341 -0.6590
  152SAPE  H14R16853   4.413   1.232   7.851 -0.3583  0.1378  3.1088
  152SAPE  C21516854   4.548   1.347   7.951 -0.3143 -0.1282  0.0166
  152SAPE  H15R16855   4.489   1.323   8.041 -0.8698 -1.0601 -0.5732
  152SAPE  C21616856   4.675   1.435   7.964  0.8526  0.0641  0.2807
  152SAPE  H16R16857   4.647   1.543   7.966  1.4383  0.2941 -1.8596
  152SAPE  H16S16858   4.746   1.418   7.881 -1.1159 -1.8015 -1.1371
  152SAPE  C21716859   4.730   1.412   8.106 -0.4531  0.7519  0.5458
  152SAPE  H17R16860   4.839   1.433   8.105 -0.2203 -0.4089  0.2846
  152SAPE  H17S16861   4.719   1.310   8.149 -0.1697  0.8133  0.7664
  152SAPE  C21816862   4.674   1.502   8.213  0.3579 -0.1302  0.5636
  152SAPE  H18R16863   4.565   1.489   8.226  0.3340 -0.6178 -0.0919
  152SAPE  H18S16864   4.683   1.607   8.176  1.0226 -0.0639  0.8918
  152SAPE  C21916865   4.752   1.502   8.352  0.0344  0.0631  0.6659
  152SAPE  H19R16866   4.852   1.545   8.333  0.6319 -1.3890  0.3848
  152SAPE  H19S16867   4.770   1.397   8.384  0.3437 -0.3975 -0.9492
  152SAPE  C22016868   4.667   1.577   8.457  0.1760 -0.1382 -0.8467
  152SAPE  H20R16869   4.659   1.685   8.429 -3.6840  0.4230  1.5905
  152SAPE  H20S16870   4.714   1.573   8.558  1.8716  3.1794 -1.3407
  152SAPE  H20T16871   4.557   1.558   8.462 -0.1475  1.6316 -0.3951
  152SAPE   C3316872   4.759   0.799   6.941  0.5680 -0.5272  0.3321
  152SAPE   H3X16873   4.834   0.771   7.017  1.4574  0.7218 -0.0419
  152SAPE   H3Y16874   4.724   0.701   6.903 -1.0190 -0.2644  1.0458
  152SAPE   C3416875   4.640   0.868   7.007  0.7151 -0.2036 -0.2970
  152SAPE   H4X16876   4.554   0.866   6.937 -0.0812  0.6289  0.6269
  152SAPE   H4Y16877   4.663   0.971   7.041  0.9518 -0.1639 -0.5739
  152SAPE   C3516878   4.612   0.797   7.146 -0.0249 -0.5096  0.8013
  152SAPE   H5X16879   4.539   0.865   7.195 -1.8695 -1.8765  0.0979
  152SAPE   H5Y16880   4.708   0.786   7.201  0.7536  0.3292 -0.3349
  152SAPE   C3616881   4.565   0.655   7.125 -0.2248  0.2899  0.0596
  152SAPE   H6X16882   4.641   0.582   7.090 -1.7503 -1.2631 -0.1329
  152SAPE   H6Y16883   4.493   0.653   7.041  1.6848 -0.0877 -1.6288
  152SAPE   C3716884   4.511   0.593   7.258 -0.0434  0.2800  0.8406
  152SAPE   H7X16885   4.479   0.488   7.240  2.0622 -0.4118  0.9839
  152SAPE   H7Y16886   4.422   0.657   7.279 -0.6920 -0.0124 -0.8293
  152SAPE   C3816887   4.613   0.590   7.374 -0.4753  0.6235 -0.2287
  152SAPE   H8X16888   4.646   0.693   7.400 -1.1244  0.7125  0.2738
  152SAPE   H8Y16889   4.703   0.538   7.335 -1.5356 -1.1885 -0.3669
  152SAPE   C3916890   4.557   0.516   7.496 -0.2923  0.4503  0.0243
  152SAPE   H9X16891   4.646   0.522   7.563 -0.9505 -0.3417  1.0064
  152SAPE   H9Y16892   4.528   0.410   7.480  0.5507  0.1365  0.4943
  152SAPE  C31016893   4.439   0.590   7.564 -0.7763 -0.5318 -0.0719
  152SAPE  H10X16894   4.354   0.590   7.492 -2.0110  1.2509  1.3093
  152SAPE  H10Y16895   4.462   0.695   7.591 -1.4302 -0.7128  1.2625
  152SAPE  C31116896   4.403   0.523   7.697 -0.5320  0.4803  0.2308
  152SAPE  H11X16897   4.348   0.434   7.658 -1.2886  0.4411  1.3460
  152SAPE  H11Y16898   4.328   0.584   7.751 -1.4472 -0.4550  0.0544
  152SAPE  C31216899   4.514   0.494   7.796 -0.0685 -0.6522 -0.0522
  152SAPE  H12X16900   4.563   0.591   7.821  0.1028 -0.9502  0.8319
  152SAPE  H12Y16901   4.589   0.422   7.756  0.8629  0.0530  0.3789
  152SAPE  C31316902   4.469   0.430   7.932  0.3561  0.1800 -0.1210
  152SAPE  H13X16903   4.380   0.487   7.966  0.8986  1.7560 -1.2255
  152SAPE  H13Y16904   4.546   0.420   8.012  0.5430  2.2680  0.0266
  152SAPE  C31416905   4.423   0.287   7.905  0.2817 -0.1164  0.2276
  152SAPE  H14X16906   4.508   0.215   7.901  1.6095  1.3654  0.5885
  152SAPE  H14Y16907   4.370   0.281   7.808  2.1761 -0.5450 -0.8196
  152SAPE  C31516908   4.336   0.220   8.014  0.2757  0.3889 -0.5466
  152SAPE  H15X16909   4.246   0.284   8.023 -0.8285 -1.0808 -0.7522
  152SAPE  H15Y16910   4.383   0.218   8.114  2.2492  0.1779 -1.4294
  152SAPE  C31616911   4.298   0.075   7.977 -0.3685  0.1255 -0.0557
  152SAPE  H16X16912   4.387   0.009   7.976 -1.4456 -1.3951 -0.7603
  152SAPE  H16Y16913   4.264   0.080   7.871  3.5704  0.9166 -1.4338
  152SAPE  C31716914   4.190   0.012   8.061  0.4624 -0.4086 -0.3830
  152SAPE  H17X16915   4.100   0.077   8.059 -0.0516 -1.0956  0.0138
  152SAPE  H17Y16916   4.227   0.011   8.166 -0.0976  0.5308 -0.1707
  152SAPE  C31816917   4.145  -0.128   8.016  0.3160  0.4078 -0.9846
  152SAPE  H18X16918   4.227  -0.202   8.020  1.2512  1.4846  0.5076
  152SAPE  H18Y16919   4.118  -0.116   7.909  2.6470  1.0784 -1.5534
  152SAPE  H18Z16920   4.058  -0.162   8.076  0.8297 -0.8761 -0.9401
  153SAPE     N16921   0.029   6.794   6.101  0.3943 -0.3819 -0.0052
  153SAPE   HN116922   0.063   6.770   6.005  1.4379  1.9153 -0.2758
  153SAPE   HN216923   0.115   6.817   6.154 -1.2762 -0.1851  2.8061
  153SAPE   HN316924  -0.024   6.711   6.135 -2.8915  0.6155 -2.1152
  153SAPE   C1216925  -0.083   6.898   6.107  0.2405 -0.0676 -0.3475
  153SAPE  H12A16926  -0.140   6.885   6.201  0.4855 -0.1239 -0.2045
  153SAPE  H12B16927  -0.149   6.886   6.018  1.3489 -2.7326 -0.9105
  153SAPE   C1116928  -0.017   7.034   6.100  0.0555 -0.4850  0.9151
  153SAPE  H11A16929  -0.087   7.116   6.074  2.5236  1.3773 -0.2200
  153SAPE  H11B16930   0.050   7.028   6.012 -0.7924 -0.7865  0.2754
  153SAPE     P16931   0.184   7.151   6.220  0.1363  0.0178  0.2239
  153SAPE   O1316932   0.305   7.069   6.248  0.5177  0.1141  0.1922
  153SAPE   O1416933   0.186   7.224   6.089 -0.6438  0.3284 -0.3969
  153SAPE   O1216934   0.055   7.061   6.221 -0.2742 -0.1004  0.6438
  153SAPE   O1116935   0.169   7.253   6.337  0.0140 -0.0970  0.3445
  153SAPE    C116936   0.045   7.277   6.407 -0.7311 -0.1210 -0.1517
  153SAPE    HA16937  -0.008   7.363   6.362  2.3690  2.3353  0.5698
  153SAPE    HB16938  -0.023   7.189   6.411 -0.6009 -0.1895  1.1207
  153SAPE    C216939   0.075   7.319   6.554 -0.8233 -0.3952  0.4381
  153SAPE    HS16940   0.152   7.398   6.561 -1.5417  0.1883  2.4131
  153SAPE   O2116941   0.125   7.199   6.620 -1.0386 -0.6220  0.7214
  153SAPE   C2116942   0.259   7.190   6.618 -1.1907  0.3557  0.1094
  153SAPE   O2216943   0.343   7.275   6.596 -0.2128 -0.5242 -0.1971
  153SAPE   C2216944   0.294   7.046   6.647  0.7380  1.1115  0.1675
  153SAPE   H2R16945   0.208   6.987   6.685  1.2390 -0.8102 -1.4881
  153SAPE   H2S16946   0.318   6.999   6.549  0.6307 -1.8871  1.4505
  153SAPE    C316947  -0.041   7.374   6.638 -0.5941 -0.0175  0.2338
  153SAPE    HX16948  -0.139   7.335   6.603 -1.4875  1.0255  1.5207
  153SAPE    HY16949  -0.049   7.482   6.612  1.6309 -0.2162 -1.6466
  153SAPE   O3116950  -0.024   7.344   6.774  0.1898  0.1664  0.5801
  153SAPE   C3116951  -0.085   7.239   6.831  0.3200  0.7859 -0.0722
  153SAPE   O3216952  -0.155   7.158   6.770  0.1498 -0.0251  0.4258
  153SAPE   C3216953  -0.047   7.213   6.980  1.0128 -0.8941  0.4193
  153SAPE   H2X16954  -0.040   7.314   7.024  3.0915 -0.1988 -1.3389
  153SAPE   H2Y16955   0.056   7.171   6.972  0.7335 -1.2479 -3.7921
  153SAPE   C2316956   0.412   7.025   6.747  0.8752 -1.2396 -0.6935
  153SAPE   H3R16957   0.500   7.092   6.730  0.4956  0.1022  2.0867
  153SAPE   H3S16958   0.447   6.920   6.745  0.1223 -1.5319  0.3252
  153SAPE   C2416959   0.372   7.045   6.897 -0.3260 -0.4335  0.4802
  153SAPE   H4R16960   0.326   7.145   6.910 -0.4650 -0.6387  1.7152
  153SAPE   H4S16961   0.470   7.051   6.951 -0.1723 -0.7900  0.2473
  153SAPE   C2516962   0.273   6.942   6.952 -0.2644 -0.1630 -0.3881
  153SAPE   H5R16963   0.173   6.933   6.906 -0.6892  0.1818  0.4440
  153SAPE   C2616964   0.301   6.852   7.051 -0.7490 -0.7124  0.2730
  153SAPE   H6R16965   0.222   6.779   7.076 -0.0672 -0.6196  2.9670
  153SAPE   C2716966   0.432   6.841   7.134  0.7357  0.6999 -0.2661
  153SAPE   H7R16967   0.492   6.932   7.111  1.7763  0.4958  1.4295
  153SAPE   H7S16968   0.486   6.749   7.102  0.2496  0.4948 -0.5089
  153SAPE   C2816969   0.386   6.846   7.280  0.7052  0.2153 -0.1502
  153SAPE   H8R16970   0.325   6.934   7.307  0.0330 -0.0186 -0.8481
  153SAPE   C2916971   0.397   6.748   7.374  0.7086  0.4382 -0.0836
  153SAPE   H9R16972   0.361   6.775   7.474  0.6735  4.3690 -1.0245
  153SAPE  C21016973   0.446   6.608   7.372 -0.7788  0.4577 -0.2286
  153SAPE  H10R16974   0.486   6.573   7.470  2.7582  0.2187 -1.6034
  153SAPE  H10S16975   0.536   6.613   7.307 -0.8220 -0.9993 -0.4228
  153SAPE  C21116976   0.342   6.515   7.326 -0.2657 -0.3434  0.6577
  153SAPE  H11R16977   0.308   6.530   7.222 -0.2342 -0.5061  0.6234
  153SAPE  C21216978   0.278   6.430   7.407 -0.0253  1.0767 -0.2487
  153SAPE  H12R16979   0.190   6.371   7.377  0.6478 -0.2269  0.2505
  153SAPE  C21316980   0.311   6.409   7.555 -0.0279 -0.2996  0.2368
  153SAPE  H13R16981   0.239   6.478   7.603  0.9524  2.6700 -2.2590
  153SAPE  H13S16982   0.406   6.437   7.605 -1.1814 -0.0242  2.3721
  153SAPE  C21416983   0.276   6.271   7.597  0.9395 -0.1099 -0.0302
  153SAPE  H14R16984   0.334   6.196   7.541  2.8942  1.0935  0.2958
  153SAPE  C21516985   0.175   6.231   7.675 -0.6726 -0.3479 -0.7293
  153SAPE  H15R16986   0.162   6.122   7.683 -0.6114 -0.4305 -1.5769
  153SAPE  C21616987   0.067   6.315   7.751 -0.0918  0.4034  0.0343
  153SAPE  H16R16988  -0.030   6.266   7.727  1.0214 -2.7726  1.4981
  153SAPE  H16S16989   0.064   6.421   7.717 -0.6031  1.4153  2.9963
  153SAPE  C21716990   0.080   6.308   7.897 -0.1933 -0.3132 -0.2627
  153SAPE  H17R16991   0.084   6.202   7.933  0.5904  0.0813  0.8960
  153SAPE  H17S16992  -0.007   6.358   7.945 -0.4822 -0.3937 -0.7009
  153SAPE  C21816993   0.210   6.368   7.949 -0.3756 -0.2693  0.3127
  153SAPE  H18R16994   0.222   6.475   7.920  0.7109 -0.3680  0.3363
  153SAPE  H18S16995   0.296   6.308   7.913  1.0236  0.3525  2.4092
  153SAPE  C21916996   0.218   6.381   8.101 -0.5608  0.5892 -0.6783
  153SAPE  H19R16997   0.130   6.447   8.117 -0.8162  0.3110 -0.9375
  153SAPE  H19S16998   0.308   6.432   8.143 -0.6706  1.7859 -1.8380
  153SAPE  C22016999   0.200   6.252   8.175 -0.2940 -0.0603  0.3792
  153SAPE  H20R17000   0.276   6.176   8.145  0.5704  1.0701 -0.3754
  153SAPE  H20S17001   0.100   6.214   8.147  0.4059 -0.4991 -1.7743
  153SAPE  H20T17002   0.216   6.272   8.283  2.4403  1.1292 -0.1652
  153SAPE   C3317003  -0.145   7.124   7.047 -0.0333 -0.3513  0.3456
  153SAPE   H3X17004  -0.165   7.031   6.990 -0.7091  1.2743 -2.2021
  153SAPE   H3Y17005  -0.240   7.181   7.053 -0.0243 -0.3352  0.3332
  153SAPE   C3417006  -0.098   7.077   7.192 -0.3908 -0.0568 -0.7835
  153SAPE   H4X17007  -0.009   7.012   7.179 -0.5445 -1.2572  2.9368
  153SAPE   H4Y17008  -0.168   7.011   7.247  0.3191  0.2766  0.5508
  153SAPE   C3517009  -0.060   7.204   7.276  0.0264 -0.3306  0.0052
  153SAPE   H5X17010   0.019   7.270   7.236 -0.0075  1.5209  2.7272
  153SAPE   H5Y17011  -0.015   7.175   7.374 -2.3675  3.1642  2.3607
  153SAPE   C3617012  -0.177   7.291   7.331 -0.2950  0.6734 -0.2487
  153SAPE   H6X17013  -0.233   7.317   7.239  0.4192  1.0100 -0.5962
  153SAPE   H6Y17014  -0.138   7.383   7.379  0.6412  1.8509 -3.0846
  153SAPE   C3717015  -0.274   7.221   7.431  0.1376 -0.2231 -0.0680
  153SAPE   H7X17016  -0.316   7.124   7.395 -1.6910 -0.4843  2.5095
  153SAPE   H7Y17017  -0.364   7.283   7.450  1.0047  0.6512  1.3454
  153SAPE   C3817018  -0.220   7.202   7.570  0.1472  0.7641 -0.0131
  153SAPE   H8X17019  -0.130   7.138   7.557 -0.4955 -0.0650 -0.5147
  153SAPE   H8Y17020  -0.268   7.131   7.640 -0.7035  1.0905 -0.2543
  153SAPE   C3917021  -0.173   7.336   7.630  0.4066  0.4067  0.1570
  153SAPE   H9X17022  -0.264   7.398   7.647  0.7257  0.3909  2.2331
  153SAPE   H9Y17023  -0.090   7.376   7.568  0.9116 -1.0038 -0.1024
  153SAPE  C31017024  -0.102   7.316   7.765 -0.1949  0.2213 -1.2601
  153SAPE  H10X17025  -0.040   7.225   7.774  0.7538  1.0956  3.2998
  153SAPE  H10Y17026  -0.179   7.302   7.844  0.8001 -1.6126 -0.5736
  153SAPE  C31117027  -0.025   7.443   7.803 -0.0199  0.3039  0.2399
  153SAPE  H11X17028  -0.082   7.535   7.780  1.4513  1.0621 -0.4847
  153SAPE  H11Y17029   0.065   7.448   7.738 -0.4081 -1.7389 -0.5533
  153SAPE  C31217030   0.008   7.453   7.949 -0.6468  0.7266  0.0812
  153SAPE  H12X17031   0.110   7.409   7.960 -0.4374  1.2955  0.5121
  153SAPE  H12Y17032  -0.071   7.393   7.998  0.9872 -1.6513 -0.0478
  153SAPE  C31317033   0.005   7.590   8.006  0.5439 -0.3842  0.5101
  153SAPE  H13X17034  -0.086   7.636   7.962  0.2306 -1.2464  0.2304
  153SAPE  H13Y17035   0.093   7.656   7.986 -0.9712  2.1144  1.5872
  153SAPE  C31417036  -0.028   7.595   8.160  0.1835 -0.1800 -0.3643
  153SAPE  H14X17037   0.045   7.535   8.217  0.2871 -2.1973 -2.4584
  153SAPE  H14Y17038  -0.129   7.552   8.181  1.0270 -2.7970 -1.2646
  153SAPE  C31517039  -0.034   7.741   8.208 -0.3437  0.3301 -0.2610
  153SAPE  H15X17040  -0.102   7.794   8.139 -0.5467  0.4465  0.0269
  153SAPE  H15Y17041   0.072   7.766   8.185 -0.4155  0.7401 -0.1542
  153SAPE  C31617042  -0.067   7.769   8.354 -0.3173 -0.7100  0.2005
  153SAPE  H16X17043  -0.026   7.868   8.383  0.0734 -0.7044 -0.3518
  153SAPE  H16Y17044  -0.009   7.693   8.411 -0.0488  1.1728  2.6257
  153SAPE  C31717045  -0.208   7.772   8.407 -0.1702  0.7338  0.2539
  153SAPE  H17X17046  -0.261   7.675   8.402  1.0342  0.1174 -2.5940
  153SAPE  H17Y17047  -0.270   7.839   8.345  0.9904  1.8587  0.2749
  153SAPE  C31817048  -0.229   7.822   8.549 -0.4254 -0.0403  0.3650
  153SAPE  H18X17049  -0.198   7.743   8.620  0.9101  0.8026  0.7675
  153SAPE  H18Y17050  -0.335   7.847   8.573  0.0485  0.5466  2.0159
  153SAPE  H18Z17051  -0.172   7.915   8.570 -2.5642  1.3019  0.5721
  154SAPE     N17052   2.030   5.022   5.681  0.0977 -0.3828  0.6705
  154SAPE   HN117053   2.052   4.933   5.631 -1.9143 -1.2890  1.2826
  154SAPE   HN217054   2.088   5.102   5.651 -0.7050 -0.0050  0.1019
  154SAPE   HN317055   2.068   5.009   5.777  1.1960  0.8532  0.4236
  154SAPE   C1217056   1.883   5.060   5.683  0.2180 -0.4522 -0.0678
  154SAPE  H12A17057   1.823   4.972   5.716 -0.0648 -0.2923 -0.1556
  154SAPE  H12B17058   1.861   5.076   5.575  2.6159  1.0819 -0.3872
  154SAPE   C1117059   1.855   5.193   5.762 -0.1407  0.3654 -0.3409
  154SAPE  H11A17060   1.748   5.222   5.755  0.0863  1.0070 -1.3786
  154SAPE  H11B17061   1.895   5.280   5.707 -0.3310  1.2899  0.9397
  154SAPE     P17062   1.821   5.118   6.015  0.0279  0.2344 -0.0127
  154SAPE   O1317063   1.781   4.983   5.966 -0.1816 -0.0751  0.3093
  154SAPE   O1417064   1.913   5.131   6.133  0.8006  0.4058  0.2348
  154SAPE   O1217065   1.903   5.180   5.895 -0.6332  0.4226 -0.0038
  154SAPE   O1117066   1.699   5.212   6.033 -0.1314  0.5477  0.0589
  154SAPE    C117067   1.703   5.353   6.037 -0.5078 -0.5591 -0.9238
  154SAPE    HA17068   1.785   5.392   5.973 -0.9981 -1.8531 -2.3919
  154SAPE    HB17069   1.607   5.396   6.002 -0.4955  1.2535  1.0588
  154SAPE    C217070   1.725   5.395   6.182 -0.0957  0.1546 -0.7002
  154SAPE    HS17071   1.826   5.364   6.217 -0.9842  0.0218  1.9482
  154SAPE   O2117072   1.619   5.333   6.257  0.0932  0.1411  0.0911
  154SAPE   C2117073   1.666   5.285   6.380  0.9087 -0.2149 -0.2943
  154SAPE   O2217074   1.780   5.292   6.417 -0.8892  0.0985  0.1734
  154SAPE   C2217075   1.551   5.222   6.457  0.2295  0.3709 -0.4739
  154SAPE   H2R17076   1.495   5.307   6.501  1.8693  0.4611  1.5889
  154SAPE   H2S17077   1.491   5.164   6.383 -0.2670 -0.6160  0.6591
  154SAPE    C317078   1.707   5.546   6.200 -0.3664  0.5404  0.2729
  154SAPE    HX17079   1.600   5.560   6.171  0.0387 -0.7235 -2.0930
  154SAPE    HY17080   1.757   5.604   6.119 -0.9963  0.0274 -0.4972
  154SAPE   O3117081   1.732   5.582   6.336 -0.6842  0.1174  0.0682
  154SAPE   C3117082   1.859   5.598   6.366 -0.1085  0.0831 -0.3084
  154SAPE   O3217083   1.950   5.597   6.286 -0.2452  0.1403  0.1049
  154SAPE   C3217084   1.858   5.653   6.505  0.3094 -0.1022  0.0997
  154SAPE   H2X17085   1.831   5.573   6.577 -2.7901  0.1829 -0.5964
  154SAPE   H2Y17086   1.780   5.731   6.518  0.4811  0.0296  0.3469
  154SAPE   C2317087   1.601   5.141   6.583 -0.1724 -0.1686 -0.4871
  154SAPE   H3R17088   1.608   5.220   6.661 -2.0069  1.3064 -1.7316
  154SAPE   H3S17089   1.700   5.096   6.562  1.2841  3.2704 -1.6680
  154SAPE   C2417090   1.507   5.025   6.627  0.0617 -0.2718 -0.3713
  154SAPE   H4R17091   1.409   5.077   6.623  1.2570  2.0850 -3.1801
  154SAPE   H4S17092   1.529   4.989   6.729  0.7025 -0.2469 -0.4940
  154SAPE   C2517093   1.484   4.909   6.532  0.2141 -1.2896  0.3402
  154SAPE   H5R17094   1.453   4.938   6.431  0.2161 -0.2574  0.6243
  154SAPE   C2617095   1.481   4.778   6.560 -0.3510 -0.5071 -0.1926
  154SAPE   H6R17096   1.461   4.706   6.480  0.6039 -0.2212 -0.7020
  154SAPE   C2717097   1.483   4.712   6.692  0.0241  0.6149  0.3811
  154SAPE   H7R17098   1.427   4.768   6.771  0.0530  1.0123  0.1249
  154SAPE   H7S17099   1.590   4.713   6.722  0.1698 -0.3673 -0.0888
  154SAPE   C2817100   1.434   4.568   6.691  0.4929  0.5297  0.1152
  154SAPE   H8R17101   1.420   4.532   6.588  1.4849 -1.1629  0.5149
  154SAPE   C2917102   1.377   4.495   6.789  0.2504 -0.4986 -0.0830
  154SAPE   H9R17103   1.339   4.393   6.777 -2.0646  0.3906 -0.7226
  154SAPE  C21017104   1.381   4.551   6.931  0.0273  0.0076 -0.2505
  154SAPE  H10R17105   1.310   4.636   6.940 -0.1406 -0.2345  0.9099
  154SAPE  H10S17106   1.484   4.585   6.950 -0.8094  1.4223  2.1968
  154SAPE  C21117107   1.345   4.449   7.042 -0.1410 -0.6537  0.1715
  154SAPE  H11R17108   1.268   4.373   7.021  0.5371 -1.3122  0.0312
  154SAPE  C21217109   1.396   4.453   7.168  0.0552 -0.0063  0.3872
  154SAPE  H12R17110   1.372   4.369   7.235 -0.0944 -0.5480 -0.3373
  154SAPE  C21317111   1.493   4.555   7.217  0.6104  0.1546 -0.3873
  154SAPE  H13R17112   1.566   4.583   7.139  0.7267 -3.3286 -1.7161
  154SAPE  H13S17113   1.547   4.518   7.308  0.8567  0.8709 -0.2363
  154SAPE  C21417114   1.397   4.667   7.253 -0.5810 -0.1923 -0.6242
  154SAPE  H14R17115   1.312   4.682   7.186  1.3949 -1.1036 -3.4957
  154SAPE  C21517116   1.411   4.735   7.370  0.4145  0.4134 -0.2131
  154SAPE  H15R17117   1.329   4.805   7.393  1.2578  1.9974 -1.7766
  154SAPE  C21617118   1.518   4.721   7.476  0.4217  0.1144 -0.2621
  154SAPE  H16R17119   1.570   4.818   7.491 -0.3058  0.5234 -0.3854
  154SAPE  H16S17120   1.603   4.656   7.445 -1.5603 -3.0592  0.4826
  154SAPE  C21717121   1.459   4.666   7.599 -0.2461  0.8986 -0.6776
  154SAPE  H17R17122   1.361   4.707   7.628 -0.2310 -1.1994  3.0291
  154SAPE  H17S17123   1.524   4.699   7.683  0.3884  0.4713 -0.9867
  154SAPE  C21817124   1.446   4.511   7.596 -0.0355 -0.1321  0.1212
  154SAPE  H18R17125   1.551   4.476   7.583 -0.2863 -0.3264 -1.7735
  154SAPE  H18S17126   1.387   4.482   7.506 -0.3775  3.0888 -0.8010
  154SAPE  C21917127   1.390   4.449   7.723  0.3118  0.2067 -0.1270
  154SAPE  H19R17128   1.279   4.459   7.723  0.0814 -1.2595  2.8473
  154SAPE  H19S17129   1.426   4.504   7.812  0.2980 -0.5354  0.3464
  154SAPE  C22017130   1.441   4.305   7.735  0.0433  0.5548 -0.2335
  154SAPE  H20R17131   1.407   4.247   7.646  0.1999  2.5030 -1.6165
  154SAPE  H20S17132   1.399   4.260   7.827 -0.5656 -0.3342 -0.9254
  154SAPE  H20T17133   1.552   4.304   7.743  0.0264 -0.1371  0.0325
  154SAPE   C3317134   2.007   5.702   6.543 -0.4866  0.2390  0.1532
  154SAPE   H3X17135   2.014   5.805   6.504 -0.3064 -0.6069 -2.1577
  154SAPE   H3Y17136   2.092   5.652   6.493  1.2271  1.6100  1.5317
  154SAPE   C3417137   2.022   5.708   6.691 -0.4486  0.2025  0.2651
  154SAPE   H4X17138   2.006   5.603   6.724 -0.1455  0.1703  0.3121
  154SAPE   H4Y17139   1.936   5.762   6.737 -0.2691  0.4892  0.2609
  154SAPE   C3517140   2.146   5.783   6.739 -0.0952 -0.1089  0.2080
  154SAPE   H5X17141   2.141   5.889   6.706 -0.9260 -0.3730 -0.5645
  154SAPE   H5Y17142   2.240   5.738   6.697 -1.4134 -1.8387 -1.0577
  154SAPE   C3617143   2.165   5.785   6.894  0.3401  0.0559  0.2150
  154SAPE   H6X17144   2.080   5.835   6.944 -0.1688  1.7475 -2.1850
  154SAPE   H6Y17145   2.254   5.850   6.906 -0.7984  1.5455  0.8467
  154SAPE   C3717146   2.200   5.641   6.937 -0.5784 -0.3533 -0.3990
  154SAPE   H7X17147   2.276   5.594   6.870 -0.0932 -0.0708 -0.0505
  154SAPE   H7Y17148   2.111   5.574   6.939 -0.6420 -0.2491  1.0878
  154SAPE   C3817149   2.270   5.647   7.075  0.3768 -0.4269  0.5268
  154SAPE   H8X17150   2.203   5.701   7.145 -1.7091 -1.8893 -0.2529
  154SAPE   H8Y17151   2.363   5.706   7.059 -0.5123  0.8265 -0.1717
  154SAPE   C3917152   2.295   5.498   7.125 -0.1137  0.1208  0.5403
  154SAPE   H9X17153   2.360   5.447   7.051  0.6971 -0.7225  1.7856
  154SAPE   H9Y17154   2.198   5.443   7.126  1.0496 -2.0899 -0.2051
  154SAPE  C31017155   2.362   5.480   7.253 -0.3259  0.2281  0.0189
  154SAPE  H10X17156   2.323   5.556   7.324  1.2265 -0.1949  1.3924
  154SAPE  H10Y17157   2.467   5.513   7.242  0.2703 -1.2952  0.9197
  154SAPE  C31117158   2.345   5.336   7.306  0.1826 -0.0226  0.0904
  154SAPE  H11X17159   2.350   5.267   7.219  1.7573 -1.6525  1.3885
  154SAPE  H11Y17160   2.243   5.340   7.349  0.3667  1.5340  0.4685
  154SAPE  C31217161   2.456   5.312   7.416  0.4829  0.4922  0.3914
  154SAPE  H12X17162   2.447   5.395   7.489 -2.0180  1.3247 -0.7461
  154SAPE  H12Y17163   2.554   5.291   7.368 -0.5142 -0.6715 -1.2589
  154SAPE  C31317164   2.435   5.184   7.493 -0.1382  0.1485 -0.7556
  154SAPE  H13X17165   2.334   5.174   7.539  0.1665 -1.1976 -0.3373
  154SAPE  H13Y17166   2.511   5.176   7.573  0.5939 -0.4693 -1.4908
  154SAPE  C31417167   2.445   5.063   7.406 -0.2286  0.0154  1.2062
  154SAPE  H14X17168   2.535   5.077   7.342 -1.1186 -1.2033 -0.3677
  154SAPE  H14Y17169   2.359   5.066   7.336  0.4261  3.0351  0.3450
  154SAPE  C31517170   2.457   4.931   7.480 -0.1611  0.5109 -0.4815
  154SAPE  H15X17171   2.540   4.933   7.555 -0.7052 -1.9751  0.2902
  154SAPE  H15Y17172   2.490   4.857   7.404 -0.9259 -0.6580  0.2911
  154SAPE  C31617173   2.329   4.893   7.541  0.0128 -0.6124  0.1711
  154SAPE  H16X17174   2.255   4.890   7.459 -0.6099  1.2854  0.6131
  154SAPE  H16Y17175   2.287   4.965   7.614  3.2647 -0.8802  2.5364
  154SAPE  C31717176   2.349   4.763   7.625 -0.1639 -0.3330  0.1527
  154SAPE  H17X17177   2.258   4.735   7.682 -0.2170 -0.3866  0.0409
  154SAPE  H17Y17178   2.437   4.761   7.693  0.2156 -2.7923 -0.3076
  154SAPE  C31817179   2.369   4.636   7.535 -0.2089 -0.2189  0.2799
  154SAPE  H18X17180   2.479   4.631   7.516 -0.1225  0.3188  0.6055
  154SAPE  H18Y17181   2.300   4.646   7.449 -0.8588  0.1911  0.8448
  154SAPE  H18Z17182   2.348   4.539   7.585 -0.0047 -1.4822 -1.9325
  155SAPE     N17183   6.828   1.522   6.479 -0.3881 -0.3829 -0.0508
  155SAPE   HN117184   6.733   1.535   6.441 -0.2602 -0.3072 -0.3521
  155SAPE   HN217185   6.901   1.559   6.414 -0.7334 -0.4656 -0.4932
  155SAPE   HN317186   6.852   1.420   6.479 -0.2858 -0.3692  1.2062
  155SAPE   C1217187   6.848   1.595   6.609 -0.4699 -0.6637  0.0272
  155SAPE  H12A17188   6.958   1.593   6.626 -0.0479  1.3408 -1.8976
  155SAPE  H12B17189   6.788   1.534   6.679 -1.0799 -0.6472 -0.4781
  155SAPE   C1117190   6.795   1.742   6.608  0.2262  0.2161  0.1319
  155SAPE  H11A17191   6.801   1.769   6.716 -2.1612 -1.2569  0.7019
  155SAPE  H11B17192   6.686   1.734   6.588  0.7512  0.3102 -3.4505
  155SAPE     P17193   6.804   1.876   6.392 -0.2209  0.3157 -0.2018
  155SAPE   O1317194   6.915   1.932   6.316  0.2952  0.2060  0.5544
  155SAPE   O1417195   6.731   1.764   6.335  0.3345 -0.0997 -0.7389
  155SAPE   O1217196   6.868   1.831   6.523 -0.2404  0.4957 -0.7200
  155SAPE   O1117197   6.705   1.985   6.431 -0.0238 -0.2211 -0.1885
  155SAPE    C117198   6.733   2.126   6.429 -0.2840  0.6398  0.4339
  155SAPE    HA17199   6.779   2.158   6.333  1.3301 -0.0568  0.9432
  155SAPE    HB17200   6.640   2.187   6.439 -0.0760  0.8104  1.5245
  155SAPE    C217201   6.825   2.181   6.541  0.0689  0.5964 -0.0569
  155SAPE    HS17202   6.918   2.122   6.551 -1.1734 -1.0507  3.0698
  155SAPE   O2117203   6.753   2.194   6.666 -0.3717 -0.0065 -0.3378
  155SAPE   C2117204   6.790   2.110   6.767  0.2527  0.2836 -0.4587
  155SAPE   O2217205   6.889   2.046   6.766 -0.2514 -0.2285  0.3451
  155SAPE   C2217206   6.690   2.129   6.883 -0.3264  0.3171 -0.2132
  155SAPE   H2R17207   6.731   2.210   6.947  1.4500  0.7210 -1.7820
  155SAPE   H2S17208   6.599   2.170   6.834 -0.9764 -0.5525  0.2341
  155SAPE    C317209   6.877   2.319   6.504  0.2015 -0.3415 -0.4601
  155SAPE    HX17210   6.784   2.378   6.492 -0.1091 -0.6178  0.5462
  155SAPE    HY17211   6.933   2.309   6.408  0.5386 -1.2409 -0.1877
  155SAPE   O3117212   6.952   2.372   6.614 -0.9293  0.0269 -0.7210
  155SAPE   C3117213   7.078   2.338   6.623 -0.4313  0.4497 -0.0069
  155SAPE   O3217214   7.132   2.264   6.538  0.2757  0.0268 -0.6045
  155SAPE   C3217215   7.143   2.379   6.751  0.5355 -0.0392  0.0628
  155SAPE   H2X17216   7.131   2.488   6.762  1.3838  0.3274 -2.1103
  155SAPE   H2Y17217   7.254   2.373   6.742  0.7060  1.3197  1.0103
  155SAPE   C2317218   6.651   2.002   6.961  0.3529  0.0876 -0.1880
  155SAPE   H3R17219   6.589   1.925   6.912 -0.3228 -0.1596  1.0289
  155SAPE   H3S17220   6.581   2.042   7.038 -1.0962 -0.0841 -1.3825
  155SAPE   C2417221   6.765   1.944   7.049  0.7674 -0.6697  0.2348
  155SAPE   H4R17222   6.800   2.024   7.118 -1.3563 -0.9271  1.6904
  155SAPE   H4S17223   6.853   1.910   6.990  1.5547 -3.2716  2.6872
  155SAPE   C2517224   6.710   1.828   7.134  0.4473 -0.0751  0.9143
  155SAPE   H5R17225   6.632   1.764   7.088  0.7849 -0.9381  1.5266
  155SAPE   C2617226   6.725   1.808   7.264 -0.3151 -0.5022  0.6678
  155SAPE   H6R17227   6.678   1.720   7.311 -0.9972 -0.7916 -0.5395
  155SAPE   C2717228   6.815   1.887   7.353 -0.0603 -0.0660  0.9472
  155SAPE   H7R17229   6.798   1.996   7.346  0.9819  0.0093 -1.7690
  155SAPE   H7S17230   6.919   1.875   7.314 -1.4956  1.0850 -3.8326
  155SAPE   C2817231   6.804   1.850   7.499  0.0230 -0.0213 -0.9912
  155SAPE   H8R17232   6.726   1.903   7.555  0.5181  0.8253 -1.0953
  155SAPE   C2917233   6.872   1.763   7.570  0.1211 -0.6973 -0.0600
  155SAPE   H9R17234   6.844   1.754   7.676  0.7172 -0.6515  0.0999
  155SAPE  C21017235   6.980   1.675   7.516 -0.0310  0.5932  0.2763
  155SAPE  H10R17236   7.072   1.737   7.507  0.9492 -0.6703  1.1520
  155SAPE  H10S17237   6.953   1.643   7.413 -2.3229  0.7120  0.7774
  155SAPE  C21117238   6.995   1.557   7.607 -0.3736  1.7585 -0.4450
  155SAPE  H11R17239   6.918   1.479   7.599  1.3993 -0.0688 -0.4152
  155SAPE  C21217240   7.098   1.538   7.702  0.9474  0.4493 -0.5985
  155SAPE  H12R17241   7.098   1.443   7.758  1.4570  0.6477 -0.2605
  155SAPE  C21317242   7.205   1.640   7.728  0.0498 -0.6831 -0.5308
  155SAPE  H13R17243   7.180   1.746   7.705  0.2337 -1.0122 -2.3905
  155SAPE  H13S17244   7.286   1.612   7.657 -0.7556 -3.1518 -0.5831
  155SAPE  C21417245   7.239   1.630   7.876 -0.2004  0.5809 -0.1962
  155SAPE  H14R17246   7.156   1.650   7.945  0.0868 -2.5186  1.2385
  155SAPE  C21517247   7.362   1.598   7.931  0.2231 -0.2733  0.5841
  155SAPE  H15R17248   7.372   1.592   8.040  1.1401 -0.9432  0.4701
  155SAPE  C21617249   7.488   1.560   7.855  0.3028  0.0011 -0.0017
  155SAPE  H16R17250   7.578   1.617   7.887  0.4535  1.0742 -2.1378
  155SAPE  H16S17251   7.481   1.578   7.746 -1.1516  1.9269  0.3496
  155SAPE  C21717252   7.521   1.412   7.872  0.3468  0.5778  0.6487
  155SAPE  H17R17253   7.598   1.386   7.796 -1.6199  0.3165 -1.3555
  155SAPE  H17S17254   7.444   1.335   7.851  0.4138  0.8161 -0.5245
  155SAPE  C21817255   7.568   1.379   8.019 -0.5632  0.4523  0.0332
  155SAPE  H18R17256   7.487   1.411   8.089  1.2889  1.4146  1.8561
  155SAPE  H18S17257   7.656   1.443   8.041 -0.5150 -0.1045  1.6059
  155SAPE  C21917258   7.600   1.224   8.034 -1.0645 -0.1432  0.0622
  155SAPE  H19R17259   7.678   1.192   7.961  0.3243  2.6240  0.1994
  155SAPE  H19S17260   7.509   1.171   8.000 -0.2877 -0.1546 -2.1599
  155SAPE  C22017261   7.649   1.170   8.172  0.8193  0.8131 -0.2943
  155SAPE  H20R17262   7.686   1.067   8.153  1.5833  1.0871 -0.2923
  155SAPE  H20S17263   7.554   1.168   8.231 -1.2932  0.0976 -3.4613
  155SAPE  H20T17264   7.729   1.232   8.217  0.1555  1.3281  0.2035
  155SAPE   C3317265   7.096   2.300   6.869 -0.9256  0.7074 -0.8459
  155SAPE   H3X17266   6.992   2.262   6.878 -1.1368  1.6516  1.1112
  155SAPE   H3Y17267   7.106   2.360   6.962 -0.4727 -2.5829  1.3935
  155SAPE   C3417268   7.190   2.176   6.886 -0.0974  0.1230 -0.0849
  155SAPE   H4X17269   7.299   2.193   6.880  0.2073 -1.6252 -0.2138
  155SAPE   H4Y17270   7.168   2.109   6.800 -2.5594 -0.2601  0.7572
  155SAPE   C3517271   7.166   2.087   7.015 -0.2220 -0.1817  0.2757
  155SAPE   H5X17272   7.244   2.010   6.998  1.1480  1.1462  0.3162
  155SAPE   H5Y17273   7.066   2.039   7.026 -0.3414  0.4636  2.6750
  155SAPE   C3617274   7.205   2.166   7.144  0.5546 -0.8920 -0.2839
  155SAPE   H6X17275   7.131   2.248   7.155  2.9354  1.3319  0.0849
  155SAPE   H6Y17276   7.304   2.215   7.134 -0.1224  0.3005 -1.5276
  155SAPE   C3717277   7.187   2.081   7.269 -0.2539  0.0193  0.1256
  155SAPE   H7X17278   7.256   1.993   7.272  1.4311  1.2381  3.4969
  155SAPE   H7Y17279   7.081   2.047   7.268 -0.5773  0.9102 -2.6734
  155SAPE   C3817280   7.221   2.149   7.402  0.2006  0.4342 -0.0543
  155SAPE   H8X17281   7.184   2.254   7.410 -0.6830  0.0037  2.6918
  155SAPE   H8Y17282   7.331   2.142   7.399  0.3811  0.2754  3.2995
  155SAPE   C3917283   7.170   2.072   7.525  0.2327  0.3710  0.1778
  155SAPE   H9X17284   7.206   1.967   7.515  1.0758  0.7886 -1.6543
  155SAPE   H9Y17285   7.060   2.059   7.520  0.1915 -0.5819  2.3787
  155SAPE  C31017286   7.193   2.138   7.664  0.3419 -0.2165  0.3543
  155SAPE  H10X17287   7.123   2.223   7.670  1.3843  1.0915 -3.2687
  155SAPE  H10Y17288   7.298   2.173   7.677  0.5648 -1.0491  0.9233
  155SAPE  C31117289   7.164   2.047   7.782  0.5539  0.9160  0.1818
  155SAPE  H11X17290   7.224   1.954   7.775 -1.1159 -0.0561 -2.1561
  155SAPE  H11Y17291   7.059   2.012   7.785  0.2625  1.6350 -1.1805
  155SAPE  C31217292   7.181   2.124   7.915 -0.1889  0.5310  0.1011
  155SAPE  H12X17293   7.100   2.200   7.925  0.5791  1.5160 -0.9520
  155SAPE  H12Y17294   7.281   2.171   7.926  0.6992 -1.4764  1.2089
  155SAPE  C31317295   7.177   2.031   8.042  1.0317  0.3195 -0.6940
  155SAPE  H13X17296   7.218   1.933   8.009 -1.1842 -1.8259  2.4140
  155SAPE  H13Y17297   7.070   2.015   8.064  0.2918  1.4811 -3.0865
  155SAPE  C31417298   7.266   2.080   8.166  0.1911 -0.6653  0.6610
  155SAPE  H14X17299   7.236   2.183   8.193  1.5739 -0.4997  1.6705
  155SAPE  H14Y17300   7.372   2.088   8.132  0.0483 -0.5658  0.2411
  155SAPE  C31517301   7.257   1.975   8.274  0.2479  0.9493 -0.6777
  155SAPE  H15X17302   7.339   1.998   8.345 -1.4058  4.2742  0.3360
  155SAPE  H15Y17303   7.278   1.871   8.241  2.4880  1.1769 -0.1280
  155SAPE  C31617304   7.127   1.974   8.360  0.1089  0.0034 -0.0716
  155SAPE  H16X17305   7.056   1.907   8.308 -1.4938  2.5417 -1.3295
  155SAPE  H16Y17306   7.077   2.073   8.368  1.0616  0.6803 -1.8748
  155SAPE  C31717307   7.145   1.933   8.509  0.3250  0.1479 -0.6615
  155SAPE  H17X17308   7.046   1.953   8.555  0.6132 -1.3581  0.7195
  155SAPE  H17Y17309   7.220   1.995   8.563 -2.9722  1.6238  2.5952
  155SAPE  C31817310   7.186   1.785   8.530  0.5513  0.0744 -0.7894
  155SAPE  H18X17311   7.163   1.750   8.633  0.7788 -0.1564 -0.8168
  155SAPE  H18Y17312   7.294   1.769   8.510 -0.0815 -2.2589 -2.8585
  155SAPE  H18Z17313   7.136   1.717   8.458  1.2590  0.7118 -1.9109
  156SAPE     N17314   4.987   2.694   6.456 -0.1733 -0.3311  0.3685
  156SAPE   HN117315   5.028   2.717   6.549 -2.5492  1.3777  1.0831
  156SAPE   HN217316   4.995   2.773   6.389 -1.5890 -1.1031 -0.7532
  156SAPE   HN317317   4.887   2.686   6.481 -0.2484  1.0662  0.5649
  156SAPE   C1217318   5.026   2.569   6.380  0.8901  0.9781  0.8550
  156SAPE  H12A17319   5.132   2.541   6.398  0.6360 -1.3106 -0.7087
  156SAPE  H12B17320   5.014   2.589   6.272 -0.0550  2.6794  1.2380
  156SAPE   C1117321   4.927   2.455   6.416  0.5704  0.3438  0.2811
  156SAPE  H11A17322   4.930   2.435   6.525  0.1887 -3.2473 -0.2523
  156SAPE  H11B17323   4.962   2.369   6.355  0.5202  1.6670 -1.7250
  156SAPE     P17324   4.687   2.387   6.345  0.0420  0.1265 -0.0971
  156SAPE   O1317325   4.550   2.443   6.363  0.6858  0.1032  0.4527
  156SAPE   O1417326   4.720   2.336   6.209 -0.4340  0.1229 -0.1625
  156SAPE   O1217327   4.789   2.498   6.392  0.8921 -0.4762  0.5784
  156SAPE   O1117328   4.710   2.270   6.454 -0.4537 -0.1901 -0.0029
  156SAPE    C117329   4.741   2.137   6.407 -0.1592  0.3127 -0.3882
  156SAPE    HA17330   4.651   2.076   6.384 -2.4040  3.2794 -0.0366
  156SAPE    HB17331   4.815   2.138   6.323  0.0371 -0.2493 -0.2278
  156SAPE    C217332   4.808   2.063   6.522  0.5544  0.2934  0.7794
  156SAPE    HS17333   4.881   1.995   6.471 -0.7924  1.7082 -3.4734
  156SAPE   O2117334   4.708   1.991   6.588 -0.1622  0.1627 -0.6011
  156SAPE   C2117335   4.739   1.878   6.641 -0.1590  0.0769 -0.2049
  156SAPE   O2217336   4.840   1.811   6.619 -0.0350  0.5318 -0.7775
  156SAPE   C2217337   4.643   1.843   6.754  0.7683  0.4235  0.5829
  156SAPE   H2R17338   4.631   1.932   6.819 -1.3966 -0.0241  0.8709
  156SAPE   H2S17339   4.541   1.822   6.715  1.3730 -0.5383 -0.5657
  156SAPE    C317340   4.887   2.152   6.618  0.3107  0.9868 -0.3367
  156SAPE    HX17341   4.822   2.219   6.679 -0.8864  0.2808 -0.7898
  156SAPE    HY17342   4.944   2.209   6.541  0.7118  1.8056  0.5451
  156SAPE   O3117343   4.989   2.074   6.689  0.3224 -0.4503  0.8520
  156SAPE   C3117344   4.951   2.052   6.817  0.3511  0.1087 -0.2194
  156SAPE   O3217345   4.850   2.090   6.875 -0.4547 -0.3194  1.0197
  156SAPE   C3217346   5.074   1.989   6.882  0.2571  0.0270 -0.7803
  156SAPE   H2X17347   5.161   2.054   6.859  0.0484  0.2880 -0.8379
  156SAPE   H2Y17348   5.093   1.896   6.824  0.6843  0.4408 -1.3165
  156SAPE   C2317349   4.683   1.732   6.842  0.7038  1.0335 -0.8200
  156SAPE   H3R17350   4.777   1.743   6.900  0.2089  0.2235  0.1810
  156SAPE   H3S17351   4.682   1.638   6.782 -0.8446  0.2774  0.3084
  156SAPE   C2417352   4.573   1.723   6.959 -0.0823  0.6924  0.2252
  156SAPE   H4R17353   4.470   1.722   6.917 -1.3708  0.1453  3.1469
  156SAPE   H4S17354   4.585   1.811   7.026 -0.1026 -0.3966  1.7279
  156SAPE   C2517355   4.581   1.594   7.030  0.0008  0.8131  0.9326
  156SAPE   H5R17356   4.541   1.512   6.969  1.2705 -0.2099  1.4317
  156SAPE   C2617357   4.629   1.562   7.149  0.2393 -0.3575 -0.1003
  156SAPE   H6R17358   4.618   1.455   7.171 -2.3644 -0.5860 -1.9387
  156SAPE   C2717359   4.691   1.663   7.243 -0.5225 -0.2151  0.0297
  156SAPE   H7R17360   4.671   1.770   7.220  2.4440  0.2984 -0.5138
  156SAPE   H7S17361   4.800   1.652   7.226 -0.4877  2.1420 -1.8409
  156SAPE   C2817362   4.655   1.618   7.385 -0.2894  0.0414 -0.0929
  156SAPE   H8R17363   4.550   1.638   7.410 -0.9894 -2.8032 -0.3752
  156SAPE   C2917364   4.731   1.581   7.492 -0.6898  0.1887  0.1647
  156SAPE   H9R17365   4.685   1.549   7.586 -0.3409 -2.5189 -0.4936
  156SAPE  C21017366   4.880   1.574   7.474  0.2153 -0.1890  0.4827
  156SAPE  H10R17367   4.923   1.649   7.545 -1.4268  1.1212  0.1589
  156SAPE  H10S17368   4.917   1.593   7.371  2.3121  0.8176  1.3366
  156SAPE  C21117369   4.936   1.435   7.512  0.4720 -0.2598  1.1913
  156SAPE  H11R17370   4.927   1.356   7.436 -2.4307  0.1540  0.9663
  156SAPE  C21217371   4.978   1.394   7.636 -0.7758  0.3026  0.7275
  156SAPE  H12R17372   5.029   1.298   7.654 -0.4548  0.8791  3.2600
  156SAPE  C21317373   4.984   1.479   7.760 -0.0288  0.1478 -0.1940
  156SAPE  H13R17374   4.979   1.414   7.850 -0.6915  0.9290  0.3397
  156SAPE  H13S17375   4.888   1.533   7.772  0.1050  0.0697  1.5344
  156SAPE  C21417376   5.092   1.583   7.767  0.4696 -0.1405  0.4450
  156SAPE  H14R17377   5.141   1.597   7.670  0.4278 -2.4327  0.0577
  156SAPE  C21517378   5.131   1.655   7.874  0.0181 -0.6196 -0.0739
  156SAPE  H15R17379   5.210   1.731   7.870 -1.4065  1.1810  2.8955
  156SAPE  C21617380   5.075   1.642   8.016  0.4065  0.0925  0.0044
  156SAPE  H16R17381   5.134   1.562   8.066  1.4302  0.4965 -0.5276
  156SAPE  H16S17382   4.973   1.601   8.027  0.2688  0.4122 -0.0734
  156SAPE  C21717383   5.078   1.779   8.079 -0.6375 -0.4078 -0.1300
  156SAPE  H17R17384   5.021   1.852   8.016  0.9748  0.8244 -0.2185
  156SAPE  H17S17385   5.179   1.825   8.088 -0.0232 -2.0821  2.1154
  156SAPE  C21817386   5.014   1.782   8.217  1.0345 -0.3398 -0.2463
  156SAPE  H18R17387   5.066   1.712   8.285 -1.2483 -1.2973  0.6042
  156SAPE  H18S17388   4.907   1.750   8.213  0.5483  0.9670  1.0745
  156SAPE  C21917389   5.029   1.921   8.282  0.1626 -0.3450  0.7294
  156SAPE  H19R17390   4.965   1.997   8.232 -0.0257 -1.4858 -0.8523
  156SAPE  H19S17391   5.132   1.963   8.279  0.0271 -0.0051  0.8251
  156SAPE  C22017392   4.994   1.934   8.435 -0.0056  0.0927  0.4377
  156SAPE  H20R17393   5.058   1.868   8.498  0.9887 -1.3940 -1.9778
  156SAPE  H20S17394   4.885   1.920   8.450  0.0125  0.1762  0.6475
  156SAPE  H20T17395   5.008   2.038   8.473  1.1270  0.1192 -0.0026
  156SAPE   C3317396   5.046   1.966   7.029  0.0451 -0.7736  0.0510
  156SAPE   H3X17397   4.954   1.905   7.036  0.1827 -0.8172  2.1819
  156SAPE   H3Y17398   5.034   2.057   7.092  2.8007 -1.6355  2.0549
  156SAPE   C3417399   5.154   1.876   7.095  0.3242  0.4177 -0.4513
  156SAPE   H4X17400   5.255   1.923   7.103 -0.5011  2.0553  0.8689
  156SAPE   H4Y17401   5.161   1.780   7.040 -2.5539 -0.8737  1.2616
  156SAPE   C3517402   5.121   1.841   7.243 -0.6300 -0.2055 -0.6085
  156SAPE   H5X17403   5.029   1.784   7.218 -0.1074 -0.6100 -1.6270
  156SAPE   H5Y17404   5.097   1.929   7.307 -0.5691  0.5081 -1.5611
  156SAPE   C3617405   5.219   1.747   7.310  0.0457  0.5906  0.2974
  156SAPE   H6X17406   5.255   1.670   7.238  0.8152  1.5214 -0.3471
  156SAPE   H6Y17407   5.171   1.678   7.382  1.4637 -2.0694 -1.1299
  156SAPE   C3717408   5.333   1.821   7.373 -0.0382 -0.1937  0.7560
  156SAPE   H7X17409   5.301   1.906   7.436 -1.5700  1.5209 -2.1293
  156SAPE   H7Y17410   5.375   1.879   7.287 -0.6783 -0.1718  0.4557
  156SAPE   C3817411   5.441   1.731   7.433 -0.4680 -0.3681 -0.4183
  156SAPE   H8X17412   5.486   1.663   7.358 -2.3949 -0.2867 -1.7268
  156SAPE   H8Y17413   5.402   1.664   7.512 -1.5404  0.2010 -0.4391
  156SAPE   C3917414   5.562   1.821   7.476 -0.1562  0.4511  0.3436
  156SAPE   H9X17415   5.565   1.911   7.410 -5.5881  1.0310  0.4416
  156SAPE   H9Y17416   5.653   1.758   7.469 -1.7258 -1.8975  0.0395
  156SAPE  C31017417   5.541   1.866   7.620  0.0941  0.6281  0.0072
  156SAPE  H10X17418   5.432   1.883   7.639 -1.1235 -3.8372 -1.7623
  156SAPE  H10Y17419   5.608   1.952   7.645  0.0640  0.6573 -0.0128
  156SAPE  C31117420   5.581   1.757   7.723  0.3386 -0.1182  0.3653
  156SAPE  H11X17421   5.687   1.739   7.698  0.8690  1.0885  1.5783
  156SAPE  H11Y17422   5.510   1.673   7.705 -0.9183  0.8183  0.7996
  156SAPE  C31217423   5.576   1.806   7.864 -0.4934 -0.5017  0.8259
  156SAPE  H12X17424   5.470   1.813   7.896 -1.0713  2.6150 -1.3306
  156SAPE  H12Y17425   5.608   1.913   7.861 -3.0413  0.3133 -1.7058
  156SAPE  C31317426   5.647   1.714   7.954  0.3752 -0.5056 -0.2640
  156SAPE  H13X17427   5.748   1.713   7.907  0.7498  0.7911  0.4447
  156SAPE  H13Y17428   5.610   1.610   7.950 -1.2543  0.0616 -0.8725
  156SAPE  C31417429   5.652   1.757   8.100 -0.4015  0.2657 -0.6602
  156SAPE  H14X17430   5.550   1.754   8.145  0.4401 -1.0192  1.2795
  156SAPE  H14Y17431   5.669   1.866   8.112 -1.1498  0.1443  2.1698
  156SAPE  C31517432   5.748   1.680   8.192 -0.4841  0.7127  0.0211
  156SAPE  H15X17433   5.854   1.711   8.188  1.4816 -5.0077 -0.5984
  156SAPE  H15Y17434   5.745   1.570   8.176  1.7306  0.4191  1.2610
  156SAPE  C31617435   5.705   1.697   8.333  0.7235 -0.0345  0.6104
  156SAPE  H16X17436   5.603   1.654   8.333  0.7440 -0.2226 -1.6671
  156SAPE  H16Y17437   5.700   1.803   8.366 -2.4900 -0.8272  3.1762
  156SAPE  C31717438   5.792   1.631   8.438  0.4690  0.0317  0.6460
  156SAPE  H17X17439   5.888   1.684   8.423 -0.3164  1.5482  0.8212
  156SAPE  H17Y17440   5.803   1.525   8.406 -1.5195 -0.1264  0.3100
  156SAPE  C31817441   5.730   1.636   8.583  0.0107 -0.4879 -0.5852
  156SAPE  H18X17442   5.679   1.732   8.604  0.2212 -0.7017  1.0467
  156SAPE  H18Y17443   5.809   1.619   8.660 -2.7970 -3.8055  1.9095
  156SAPE  H18Z17444   5.659   1.552   8.596 -0.3175 -0.2286 -0.6901
  157SAPE     N17445   0.969   2.409   6.332 -0.1060  0.2389 -0.1406
  157SAPE   HN117446   0.927   2.316   6.311  0.8794 -0.8640  2.3535
  157SAPE   HN217447   1.029   2.413   6.417 -1.7079  4.1211  1.0247
  157SAPE   HN317448   0.893   2.480   6.334 -1.3195 -1.0413  0.8276
  157SAPE   C1217449   1.066   2.455   6.226 -0.0519  0.1978 -0.2765
  157SAPE  H12A17450   1.083   2.564   6.236  1.0228  0.0538 -0.4767
  157SAPE  H12B17451   1.026   2.429   6.126 -0.7421 -0.1206  0.0690
  157SAPE   C1117452   1.199   2.372   6.229 -0.0738 -0.1666 -0.7480
  157SAPE  H11A17453   1.269   2.400   6.311 -0.4386  0.2178 -0.5636
  157SAPE  H11B17454   1.254   2.407   6.140 -0.0203  1.5193 -0.0844
  157SAPE     P17455   1.282   2.121   6.201  0.2451 -0.0965  0.0213
  157SAPE   O1317456   1.230   1.983   6.200 -0.4614 -0.1274 -0.1023
  157SAPE   O1417457   1.368   2.160   6.089  0.3968 -0.0387  0.2013
  157SAPE   O1217458   1.171   2.233   6.226  0.7269  0.3615 -0.4531
  157SAPE   O1117459   1.374   2.137   6.329 -0.0104  0.1096 -0.3316
  157SAPE    C117460   1.321   2.153   6.458 -0.3094 -0.1595  0.4513
  157SAPE    HA17461   1.348   2.257   6.486 -2.7948  0.4403  0.8800
  157SAPE    HB17462   1.211   2.140   6.466 -0.1319 -1.1035  1.8516
  157SAPE    C217463   1.381   2.039   6.546 -0.4597  0.4590 -0.6142
  157SAPE    HS17464   1.400   1.952   6.480  2.2168  1.1262 -0.8310
  157SAPE   O2117465   1.290   2.022   6.659  0.1047  0.2888  0.3479
  157SAPE   C2117466   1.289   1.896   6.697 -0.5162 -0.3777  0.1587
  157SAPE   O2217467   1.338   1.801   6.637 -0.2196 -0.1440 -0.3075
  157SAPE   C2217468   1.235   1.884   6.836  0.0510 -0.2707 -0.3446
  157SAPE   H2R17469   1.135   1.930   6.824 -0.8297 -1.7112  1.1491
  157SAPE   H2S17470   1.224   1.777   6.865  1.3240 -0.4863 -0.5837
  157SAPE    C317471   1.515   2.086   6.606 -0.7173  0.0675 -0.4524
  157SAPE    HX17472   1.602   2.103   6.539 -0.0733 -1.7280 -0.1479
  157SAPE    HY17473   1.546   1.999   6.669 -3.6054 -1.0630 -0.4059
  157SAPE   O3117474   1.509   2.209   6.682  0.0073 -0.1697 -0.8157
  157SAPE   C3117475   1.613   2.245   6.757 -0.5189  0.0796 -0.1752
  157SAPE   O3217476   1.720   2.181   6.752  0.3513  0.3429 -0.0528
  157SAPE   C3217477   1.576   2.370   6.835  0.4161  0.1267  0.3156
  157SAPE   H2X17478   1.478   2.407   6.800 -0.2468 -2.7675 -1.2376
  157SAPE   H2Y17479   1.645   2.454   6.815  0.8293  0.8169  3.8898
  157SAPE   C2317480   1.326   1.957   6.936 -0.0139 -0.0139 -0.0281
  157SAPE   H3R17481   1.268   1.970   7.030 -1.9830 -1.1427 -1.0224
  157SAPE   H3S17482   1.355   2.059   6.902  1.5199 -0.6610 -0.7087
  157SAPE   C2417483   1.455   1.875   6.960  0.4827  0.2017  0.7262
  157SAPE   H4R17484   1.481   1.824   6.864 -0.9681  0.9071 -0.0785
  157SAPE   H4S17485   1.424   1.793   7.027 -2.4347  0.7515  0.1890
  157SAPE   C2517486   1.573   1.951   7.016 -0.0934 -0.1475  0.2743
  157SAPE   H5R17487   1.624   2.026   6.953 -0.8671 -0.5379 -0.8439
  157SAPE   C2617488   1.617   1.925   7.143  0.1754 -0.3160 -0.4291
  157SAPE   H6R17489   1.716   1.963   7.173  0.5010 -0.4584 -1.3141
  157SAPE   C2717490   1.554   1.834   7.249  0.3528 -0.2961  0.2957
  157SAPE   H7R17491   1.531   1.738   7.199  0.2821 -1.1933  1.9854
  157SAPE   H7S17492   1.457   1.882   7.273 -0.3714 -0.9088 -1.2564
  157SAPE   C2817493   1.632   1.808   7.375  0.0924  0.1288 -0.2619
  157SAPE   H8R17494   1.656   1.702   7.392 -0.7790  0.1433  1.2297
  157SAPE   C2917495   1.652   1.894   7.478  0.2923  0.0399  1.2209
  157SAPE   H9R17496   1.725   1.866   7.555  2.8471  3.5337  0.3179
  157SAPE  C21017497   1.612   2.043   7.477 -0.4121  0.6252  0.2760
  157SAPE  H10R17498   1.543   2.062   7.392  0.9677 -3.0992 -1.9214
  157SAPE  H10S17499   1.699   2.102   7.442  1.0495 -1.2195  0.6144
  157SAPE  C21117500   1.562   2.069   7.613 -0.4730 -0.2708 -1.1420
  157SAPE  H11R17501   1.452   2.066   7.614 -0.4818 -0.4082  0.5936
  157SAPE  C21217502   1.628   2.100   7.732 -0.1126  0.1209  1.0360
  157SAPE  H12R17503   1.572   2.123   7.824 -2.4238 -1.3819  0.0992
  157SAPE  C21317504   1.774   2.118   7.749  0.2683 -0.2309 -0.0239
  157SAPE  H13R17505   1.780   2.224   7.782  2.3737 -0.3870  0.1924
  157SAPE  H13S17506   1.833   2.110   7.656 -1.3354  0.3109 -1.1276
  157SAPE  C21417507   1.844   2.036   7.850  0.4670  0.1090 -0.2357
  157SAPE  H14R17508   1.916   1.959   7.816 -0.7700 -1.6795  0.9746
  157SAPE  C21517509   1.837   2.040   7.983 -0.1626  0.1031  0.1115
  157SAPE  H15R17510   1.892   1.971   8.049 -0.0556 -0.7057 -0.8073
  157SAPE  C21617511   1.760   2.139   8.065 -1.0601 -0.3905  0.0560
  157SAPE  H16R17512   1.668   2.092   8.106 -0.1401 -4.2591 -1.7746
  157SAPE  H16S17513   1.729   2.226   8.003  0.1722  0.2976  0.3791
  157SAPE  C21717514   1.843   2.186   8.185 -0.5612 -0.4046  0.5529
  157SAPE  H17R17515   1.793   2.276   8.225 -0.5737  0.4758 -1.2990
  157SAPE  H17S17516   1.943   2.214   8.146 -0.3264 -1.8134  0.0610
  157SAPE  C21817517   1.853   2.076   8.302  0.3071  0.1823  0.1102
  157SAPE  H18R17518   1.897   1.979   8.271  3.8795  2.2268 -1.8787
  157SAPE  H18S17519   1.752   2.067   8.346  0.8478 -0.8497  1.1865
  157SAPE  C21917520   1.926   2.129   8.423 -0.9423  1.1615 -0.1463
  157SAPE  H19R17521   1.907   2.071   8.516  1.3026 -3.0548 -2.0574
  157SAPE  H19S17522   1.889   2.231   8.448  0.3235  1.4849  0.4635
  157SAPE  C22017523   2.080   2.122   8.392  0.5476  0.3981 -0.2121
  157SAPE  H20R17524   2.127   2.167   8.483  1.0216 -1.5722  0.5780
  157SAPE  H20S17525   2.110   2.188   8.308 -0.9202  0.4992 -0.6892
  157SAPE  H20T17526   2.115   2.017   8.378  1.5307  0.9846 -2.5808
  157SAPE   C3317527   1.560   2.357   6.994  0.4582  0.1101 -0.2731
  157SAPE   H3X17528   1.501   2.267   7.018 -4.5471  1.8846 -4.1431
  157SAPE   H3Y17529   1.514   2.454   7.023  3.3209  0.9797  1.7559
  157SAPE   C3417530   1.698   2.357   7.062 -0.6064 -0.7693 -0.5866
  157SAPE   H4X17531   1.746   2.457   7.056 -1.6795  0.0509  2.4029
  157SAPE   H4Y17532   1.771   2.288   7.015  0.4489 -0.6673  0.8224
  157SAPE   C3517533   1.690   2.337   7.211  0.1211 -0.3098 -0.1146
  157SAPE   H5X17534   1.794   2.314   7.243  0.8497  1.0590 -1.3804
  157SAPE   H5Y17535   1.628   2.258   7.258 -0.1746 -0.8135 -1.3327
  157SAPE   C3617536   1.646   2.459   7.286  0.1539 -0.1084 -0.2736
  157SAPE   H6X17537   1.536   2.463   7.271  0.1329  1.2638  0.0237
  157SAPE   H6Y17538   1.698   2.546   7.239  0.5207  0.4136  1.0366
  157SAPE   C3717539   1.667   2.474   7.437 -0.0317 -0.5857 -0.0770
  157SAPE   H7X17540   1.775   2.497   7.454 -0.3867  0.5470  0.6987
  157SAPE   H7Y17541   1.631   2.386   7.494 -0.6896 -0.1384  0.2078
  157SAPE   C3817542   1.595   2.600   7.489  0.6246  0.0243  0.3297
  157SAPE   H8X17543   1.494   2.608   7.443  1.2070  0.1073 -0.9701
  157SAPE   H8Y17544   1.646   2.697   7.469 -0.4575  0.8109  1.2122
  157SAPE   C3917545   1.567   2.592   7.641 -0.2675 -0.5039  0.3250
  157SAPE   H9X17546   1.503   2.503   7.658  1.2243 -2.0837 -1.7832
  157SAPE   H9Y17547   1.501   2.680   7.656 -2.0258 -1.0648 -3.1665
  157SAPE  C31017548   1.691   2.581   7.725 -0.4004 -0.1137  0.1118
  157SAPE  H10X17549   1.759   2.664   7.698 -2.3484  1.1359 -1.2701
  157SAPE  H10Y17550   1.745   2.484   7.721  2.3731  1.2784  1.1638
  157SAPE  C31117551   1.654   2.600   7.873 -0.0506 -0.6396  0.0268
  157SAPE  H11X17552   1.568   2.531   7.883 -0.6648 -0.0697 -1.1260
  157SAPE  H11Y17553   1.619   2.705   7.874  1.3336 -0.1516 -0.3226
  157SAPE  C31217554   1.771   2.565   7.967  0.2308  0.1755  0.3218
  157SAPE  H12X17555   1.858   2.630   7.944  0.2118  0.7035  1.6284
  157SAPE  H12Y17556   1.806   2.460   7.954 -0.1257 -0.1014  1.4093
  157SAPE  C31317557   1.746   2.584   8.119 -0.4719  0.2394 -0.0299
  157SAPE  H13X17558   1.681   2.506   8.163 -0.1071 -1.0343 -1.6723
  157SAPE  H13Y17559   1.702   2.686   8.128  0.4115  1.1601 -3.9578
  157SAPE  C31417560   1.890   2.575   8.190 -0.4039 -0.7093  0.0892
  157SAPE  H14X17561   1.952   2.654   8.142 -1.0475  0.4051  1.0355
  157SAPE  H14Y17562   1.945   2.479   8.177  4.1435  1.5299  0.5049
  157SAPE  C31517563   1.861   2.615   8.337 -0.0867 -0.7616 -0.4609
  157SAPE  H15X17564   1.783   2.694   8.338 -0.1170 -0.7687  1.1220
  157SAPE  H15Y17565   1.948   2.665   8.385 -2.0486  0.7845  1.7198
  157SAPE  C31617566   1.822   2.492   8.425 -0.0094 -0.6255  0.9618
  157SAPE  H16X17567   1.917   2.434   8.424  1.6228  1.8893 -0.6630
  157SAPE  H16Y17568   1.736   2.433   8.388 -0.0433 -0.2008  0.3335
  157SAPE  C31717569   1.799   2.541   8.571  0.0578 -0.0443 -0.1182
  157SAPE  H17X17570   1.884   2.600   8.611 -0.9367  0.2984  1.6097
  157SAPE  H17Y17571   1.792   2.449   8.633 -2.0078  0.4120  0.4172
  157SAPE  C31817572   1.672   2.629   8.593 -0.6109  0.0768  0.5068
  157SAPE  H18X17573   1.666   2.704   8.510  0.3622 -0.7410 -0.3177
  157SAPE  H18Y17574   1.656   2.659   8.699  0.3037 -0.3869  0.7837
  157SAPE  H18Z17575   1.589   2.563   8.561  1.1570 -1.3090 -1.4947
  158SAPE     N17576   2.614   0.727   6.366  0.2364 -0.4462 -0.3824
  158SAPE   HN117577   2.536   0.705   6.430 -0.5042 -0.2792 -1.2043
  158SAPE   HN217578   2.603   0.829   6.349 -0.2234 -0.2050  1.2132
  158SAPE   HN317579   2.601   0.689   6.270 -0.9953 -0.7144 -0.1239
  158SAPE   C1217580   2.745   0.721   6.435 -0.3540  0.1174 -0.1783
  158SAPE  H12A17581   2.758   0.615   6.465  0.0022  0.2833  0.2767
  158SAPE  H12B17582   2.733   0.781   6.528 -0.3024 -2.4865  1.6157
  158SAPE   C1117583   2.856   0.773   6.344 -0.1812 -0.7012  0.0158
  158SAPE  H11A17584   2.856   0.714   6.250 -1.0982 -1.0570  0.2376
  158SAPE  H11B17585   2.957   0.775   6.391 -0.2014  0.9301  0.0712
  158SAPE     P17586   2.921   1.003   6.226 -0.5623  0.2829 -0.0868
  158SAPE   O1317587   3.049   0.933   6.210 -0.1726  0.6275 -0.1989
  158SAPE   O1417588   2.851   1.045   6.101  0.0464 -0.1211 -0.1951
  158SAPE   O1217589   2.823   0.910   6.313  0.2724  0.0222 -0.2130
  158SAPE   O1117590   2.941   1.128   6.317  0.8224  0.4442  0.1748
  158SAPE    C117591   2.915   1.130   6.456 -0.1770  0.0024 -0.4780
  158SAPE    HA17592   2.909   1.234   6.495 -0.8657  0.0249 -0.6269
  158SAPE    HB17593   2.813   1.098   6.486 -0.4130  2.4694  1.7561
  158SAPE    C217594   3.021   1.064   6.551  0.3446 -0.2164 -0.0128
  158SAPE    HS17595   3.003   0.958   6.525 -1.0731  0.1535 -0.6342
  158SAPE   O2117596   2.987   1.108   6.683  0.0976 -0.3252 -0.1297
  158SAPE   C2117597   2.887   1.047   6.742  1.0128  0.3369 -0.1137
  158SAPE   O2217598   2.825   0.946   6.698 -0.2586 -0.4670 -0.7554
  158SAPE   C2217599   2.872   1.122   6.877  0.3490 -0.2385 -0.3138
  158SAPE   H2R17600   2.850   1.229   6.859 -1.5482 -0.3976  0.7936
  158SAPE   H2S17601   2.774   1.086   6.917  0.3750 -1.3830 -1.2360
  158SAPE    C317602   3.170   1.103   6.522 -0.2128  0.4362  0.2355
  158SAPE    HX17603   3.187   1.212   6.527 -2.1519  0.8315 -0.6786
  158SAPE    HY17604   3.205   1.067   6.423  1.9787  1.8530  0.4476
  158SAPE   O3117605   3.260   1.028   6.604 -0.8216  0.3379 -0.0937
  158SAPE   C3117606   3.299   1.091   6.713  0.0222  0.2762  0.2788
  158SAPE   O3217607   3.270   1.203   6.748 -0.0801  0.7142  0.2131
  158SAPE   C3217608   3.389   1.002   6.800  0.4449 -0.4864  0.3668
  158SAPE   H2X17609   3.489   0.984   6.755  0.1162  0.0259 -0.5960
  158SAPE   H2Y17610   3.345   0.901   6.816  1.7940 -1.3585 -1.1118
  158SAPE   C2317611   2.978   1.092   6.975 -0.8612 -0.3561 -0.0148
  158SAPE   H3R17612   2.968   1.145   7.072  1.9825  1.0471 -0.3612
  158SAPE   H3S17613   3.078   1.124   6.939 -1.6840  1.6879 -0.5710
  158SAPE   C2417614   2.983   0.942   7.024  0.1736 -0.6501 -0.2975
  158SAPE   H4R17615   3.075   0.922   7.083 -0.3199 -2.2142  0.0001
  158SAPE   H4S17616   2.984   0.877   6.933 -2.5806 -1.1739 -0.0446
  158SAPE   C2517617   2.866   0.909   7.111  0.0494  0.0938 -0.4128
  158SAPE   H5R17618   2.778   0.870   7.058 -0.7574 -1.1767  1.7309
  158SAPE   C2617619   2.857   0.943   7.246 -0.0279  0.1073  0.8738
  158SAPE   H6R17620   2.767   0.924   7.306 -0.2951 -0.5230  0.2956
  158SAPE   C2717621   2.970   1.007   7.330  0.1237  0.6917  0.2002
  158SAPE   H7R17622   2.927   1.098   7.378 -1.9254 -0.0874 -0.0204
  158SAPE   H7S17623   3.050   1.044   7.263 -1.7575  2.2937 -1.3185
  158SAPE   C2817624   3.030   0.916   7.432 -0.2078 -0.5737 -0.6835
  158SAPE   H8R17625   3.135   0.895   7.406  0.1674  1.7925 -1.3364
  158SAPE   C2917626   2.983   0.876   7.554 -0.2926 -0.1504 -0.4610
  158SAPE   H9R17627   3.039   0.812   7.624  0.2733 -1.4945 -2.0596
  158SAPE  C21017628   2.843   0.907   7.607 -0.0336 -0.0449 -0.1407
  158SAPE  H10R17629   2.783   0.919   7.514  2.5893  0.7375 -1.8598
  158SAPE  H10S17630   2.841   1.005   7.659 -0.0701 -0.7479  1.2007
  158SAPE  C21117631   2.782   0.796   7.692  0.4219  0.0155  0.3482
  158SAPE  H11R17632   2.769   0.817   7.799  1.0098  1.9761  0.0778
  158SAPE  C21217633   2.729   0.677   7.644 -0.8864  0.2738  0.5618
  158SAPE  H12R17634   2.702   0.603   7.720  1.0564  0.7718  1.8117
  158SAPE  C21317635   2.729   0.630   7.502  0.2489  0.0371  0.1980
  158SAPE  H13R17636   2.699   0.703   7.424 -1.2688  0.0758  0.7983
  158SAPE  H13S17637   2.645   0.560   7.484 -0.2203  0.3782  1.0056
  158SAPE  C21417638   2.851   0.541   7.478  0.4876 -0.0161 -0.3672
  158SAPE  H14R17639   2.908   0.508   7.566  0.5506  2.3071  0.5502
  158SAPE  C21517640   2.902   0.505   7.358  0.2030  0.3441 -0.0855
  158SAPE  H15R17641   2.983   0.431   7.350 -2.6190 -2.9842 -0.2833
  158SAPE  C21617642   2.861   0.559   7.219 -0.3996 -0.1078 -0.1611
  158SAPE  H16R17643   2.952   0.600   7.171 -0.5400  0.2013 -0.1678
  158SAPE  H16S17644   2.784   0.639   7.214 -1.0514 -0.6009  1.2113
  158SAPE  C21717645   2.813   0.438   7.139  0.3558 -0.5746  0.5140
  158SAPE  H17R17646   2.742   0.385   7.206 -1.3979  0.5261 -0.3913
  158SAPE  H17S17647   2.904   0.381   7.111  0.5287 -0.4275  0.7692
  158SAPE  C21817648   2.743   0.476   7.005  0.9103  0.0354 -0.0970
  158SAPE  H18R17649   2.665   0.555   7.018  2.1430  0.9763  2.2403
  158SAPE  H18S17650   2.691   0.393   6.954  1.4052  0.3777 -1.1853
  158SAPE  C21917651   2.838   0.536   6.898 -1.0588 -0.2079  0.2700
  158SAPE  H19R17652   2.909   0.464   6.854  0.1480  0.2658  1.3594
  158SAPE  H19S17653   2.907   0.609   6.946 -0.0849 -1.3553  0.6420
  158SAPE  C22017654   2.778   0.599   6.770  0.0686 -0.1210 -0.2070
  158SAPE  H20R17655   2.738   0.525   6.697 -1.1920  0.3730 -0.0487
  158SAPE  H20S17656   2.852   0.655   6.709 -0.1156  1.9072  1.3031
  158SAPE  H20T17657   2.689   0.660   6.797 -0.3199 -1.8717  2.9650
  158SAPE   C3317658   3.397   1.067   6.940  0.4059  0.0699 -0.1546
  158SAPE   H3X17659   3.294   1.087   6.977  0.8935  2.9233 -0.1133
  158SAPE   H3Y17660   3.444   1.168   6.946  1.8348 -0.6382  1.7263
  158SAPE   C3417661   3.465   0.986   7.048  0.0015 -0.0789  0.1039
  158SAPE   H4X17662   3.576   0.992   7.046 -0.0705  1.5642 -0.0505
  158SAPE   H4Y17663   3.439   0.878   7.042 -1.3133  0.3125 -2.2432
  158SAPE   C3517664   3.417   1.040   7.182  0.1642 -0.0400 -0.1855
  158SAPE   H5X17665   3.310   1.015   7.195 -0.0514  0.8357 -0.2105
  158SAPE   H5Y17666   3.432   1.148   7.201  1.6953 -0.5034  1.5019
  158SAPE   C3617667   3.480   0.967   7.299  0.4417  0.4898  0.4055
  158SAPE   H6X17668   3.591   0.968   7.295  0.4175  0.7866 -0.2952
  158SAPE   H6Y17669   3.459   0.859   7.286  1.6412  0.1125  1.3329
  158SAPE   C3717670   3.443   1.016   7.438 -0.2356  0.0572  0.0223
  158SAPE   H7X17671   3.468   1.125   7.445  0.2093 -0.1048  1.3166
  158SAPE   H7Y17672   3.333   1.002   7.443 -0.4268  1.2833 -0.3431
  158SAPE   C3817673   3.505   0.929   7.544  0.2056  0.9192 -0.4333
  158SAPE   H8X17674   3.616   0.932   7.557 -0.0807  0.9767  3.0671
  158SAPE   H8Y17675   3.480   0.823   7.521  0.5573  0.5637  0.7167
  158SAPE   C3917676   3.432   0.958   7.674  0.0303 -0.7493 -0.4881
  158SAPE   H9X17677   3.327   0.922   7.668 -0.6911  1.2554 -0.6414
  158SAPE   H9Y17678   3.425   1.068   7.688 -0.3142 -0.6281 -1.5714
  158SAPE  C31017679   3.503   0.898   7.798  0.2797  0.3457 -0.3571
  158SAPE  H10X17680   3.607   0.936   7.787 -0.2327  1.5882 -1.0075
  158SAPE  H10Y17681   3.499   0.788   7.780 -1.5619  0.3931 -0.3927
  158SAPE  C31117682   3.459   0.949   7.933 -0.1837 -0.0961  0.5732
  158SAPE  H11X17683   3.352   0.919   7.940  0.7622 -3.7213  1.1498
  158SAPE  H11Y17684   3.484   1.057   7.940 -0.0894  0.1847 -2.5563
  158SAPE  C31217685   3.530   0.870   8.039  0.6392 -0.0971 -0.7893
  158SAPE  H12X17686   3.635   0.904   8.037  0.9507 -0.9341  0.2142
  158SAPE  H12Y17687   3.543   0.761   8.020  1.9660 -0.7243  2.7980
  158SAPE  C31317688   3.464   0.883   8.176  0.2719 -0.2571  0.3167
  158SAPE  H13X17689   3.368   0.828   8.183  0.6235 -0.9025  0.2010
  158SAPE  H13Y17690   3.450   0.992   8.194  3.4262  0.2708  0.1221
  158SAPE  C31417691   3.548   0.824   8.285 -0.2726 -0.6635 -0.3181
  158SAPE  H14X17692   3.646   0.876   8.280 -0.7709  0.5426  1.4133
  158SAPE  H14Y17693   3.559   0.713   8.287  0.0070 -0.6346  0.8934
  158SAPE  C31517694   3.491   0.855   8.427  0.4906 -0.1973 -0.2242
  158SAPE  H15X17695   3.452   0.958   8.446  0.2327 -0.6453  1.9725
  158SAPE  H15Y17696   3.564   0.840   8.509 -0.3503  2.0341  1.0220
  158SAPE  C31617697   3.371   0.764   8.467  0.7360  0.2827  0.0873
  158SAPE  H16X17698   3.398   0.656   8.454 -1.4519 -0.3100  0.2051
  158SAPE  H16Y17699   3.282   0.769   8.401 -0.3804 -1.4080  1.3855
  158SAPE  C31717700   3.317   0.782   8.603  0.1576 -0.1738  0.1160
  158SAPE  H17X17701   3.264   0.880   8.606  2.5900  1.2071  1.0188
  158SAPE  H17Y17702   3.402   0.797   8.672  1.4495  0.7764 -1.5945
  158SAPE  C31817703   3.231   0.663   8.664 -0.4247  0.0988  0.0678
  158SAPE  H18X17704   3.134   0.653   8.610 -1.2646  2.9716  0.8676
  158SAPE  H18Y17705   3.219   0.688   8.771  1.4969 -0.4868  0.4626
  158SAPE  H18Z17706   3.294   0.572   8.671  0.5317  0.8291  1.2794
  159SAPE     N17707   5.049   4.244   6.199  0.8307  0.0768 -0.8559
  159SAPE   HN117708   5.121   4.317   6.181  0.9783  0.1086 -0.1481
  159SAPE   HN217709   4.957   4.287   6.223  0.3821 -1.6231  0.6867
  159SAPE   HN317710   5.095   4.206   6.284  0.4431 -0.3640 -0.8367
  159SAPE   C1217711   5.016   4.143   6.098  0.0489  0.3195 -0.0593
  159SAPE  H12A17712   4.948   4.194   6.027 -0.8623  1.1562  1.3658
  159SAPE  H12B17713   4.949   4.065   6.139  1.3189 -1.8766 -1.9415
  159SAPE   C1117714   5.140   4.072   6.036 -0.5861  0.2611  0.7168
  159SAPE  H11A17715   5.213   4.142   5.988  0.4556 -0.7812  0.7254
  159SAPE  H11B17716   5.097   4.003   5.961 -0.0504  1.8131 -1.1144
  159SAPE     P17717   5.344   3.934   6.137 -0.0765 -0.2149 -0.0501
  159SAPE   O1317718   5.344   3.855   6.013  0.5489  0.1492 -0.3773
  159SAPE   O1417719   5.450   4.035   6.155  0.2014  0.4187  0.3569
  159SAPE   O1217720   5.204   4.006   6.141  0.7181  0.0785 -0.3328
  159SAPE   O1117721   5.340   3.833   6.257 -0.0170  0.0619 -0.0466
  159SAPE    C117722   5.236   3.834   6.353 -0.3676 -0.1405  0.6592
  159SAPE    HA17723   5.189   3.933   6.372 -1.6194 -0.7246  0.7111
  159SAPE    HB17724   5.150   3.770   6.326 -1.5687  2.2910 -1.6818
  159SAPE    C217725   5.296   3.799   6.492 -0.0633 -0.6867 -0.3797
  159SAPE    HS17726   5.211   3.822   6.560 -0.6021  0.8336 -1.5020
  159SAPE   O2117727   5.413   3.875   6.514 -0.1506 -0.3875 -0.3590
  159SAPE   C2117728   5.386   3.998   6.563  0.0970  0.1461 -0.3889
  159SAPE   O2217729   5.279   4.042   6.594  0.3754 -0.4577  0.5765
  159SAPE   C2217730   5.518   4.078   6.582 -0.0621  0.2204 -0.6665
  159SAPE   H2R17731   5.580   4.044   6.496  1.4684 -0.9153  0.8197
  159SAPE   H2S17732   5.498   4.186   6.562  1.9396  0.5108 -1.3452
  159SAPE    C317733   5.328   3.649   6.510  0.1179 -0.3892  0.2281
  159SAPE    HX17734   5.414   3.617   6.447  0.9041 -0.8198  1.4791
  159SAPE    HY17735   5.240   3.592   6.471  0.1427 -1.1870  1.2935
  159SAPE   O3117736   5.334   3.615   6.649 -0.2457  0.2195 -0.0093
  159SAPE   C3117737   5.460   3.629   6.708 -0.0320 -0.3149 -0.0389
  159SAPE   O3217738   5.562   3.659   6.652 -0.7921 -0.0352  0.3628
  159SAPE   C3217739   5.439   3.634   6.860  0.1993  0.0131  0.2020
  159SAPE   H2X17740   5.382   3.542   6.883 -0.1097 -0.2683 -1.5275
  159SAPE   H2Y17741   5.368   3.714   6.888  0.5173  0.0281  0.9776
  159SAPE   C2317742   5.600   4.039   6.714  0.8301  0.7061 -0.0660
  159SAPE   H3R17743   5.700   4.084   6.728  1.6780 -0.8638 -0.8173
  159SAPE   H3S17744   5.617   3.929   6.709  0.2560  0.5642  0.7669
  159SAPE   C2417745   5.514   4.061   6.844  0.0699 -0.2896 -0.3011
  159SAPE   H4R17746   5.545   3.982   6.916  1.3146  0.5171  0.0755
  159SAPE   H4S17747   5.409   4.049   6.810  0.1909 -0.5193 -0.5902
  159SAPE   C2517748   5.513   4.202   6.904  0.3278 -0.4947 -0.3564
  159SAPE   H5R17749   5.467   4.276   6.837  0.6198  1.3412  1.3600
  159SAPE   C2617750   5.561   4.240   7.030 -0.4825  0.3284  0.0799
  159SAPE   H6R17751   5.540   4.342   7.064 -1.9901  0.1824 -0.3582
  159SAPE   C2717752   5.624   4.149   7.127 -0.5898 -0.1070 -0.0947
  159SAPE   H7R17753   5.713   4.190   7.179 -1.5224 -0.4757  1.9151
  159SAPE   H7S17754   5.682   4.067   7.080  1.1072  1.2610 -0.4694
  159SAPE   C2817755   5.529   4.106   7.233  0.5182 -0.9083 -0.0400
  159SAPE   H8R17756   5.437   4.058   7.197 -0.9123  0.8572  1.0927
  159SAPE   C2917757   5.528   4.116   7.365  0.1061 -0.1140  0.4619
  159SAPE   H9R17758   5.440   4.074   7.415  1.3426 -0.1276  2.7447
  159SAPE  C21017759   5.637   4.177   7.452  0.2933 -0.1855 -0.5777
  159SAPE  H10R17760   5.586   4.266   7.495 -0.0022 -0.4582 -0.3531
  159SAPE  H10S17761   5.732   4.211   7.405  1.1430 -0.3663  0.9490
  159SAPE  C21117762   5.663   4.078   7.560  0.7585  0.3427  0.6527
  159SAPE  H11R17763   5.693   3.979   7.524  1.9514  0.4540  1.2880
  159SAPE  C21217764   5.664   4.094   7.693  0.0507  0.3180  1.4318
  159SAPE  H12R17765   5.694   4.011   7.759  1.2263  1.1408  1.9625
  159SAPE  C21317766   5.632   4.218   7.773 -1.1335 -0.5339 -0.2866
  159SAPE  H13R17767   5.549   4.186   7.840 -1.2145 -0.4211 -0.3328
  159SAPE  H13S17768   5.586   4.295   7.708 -2.0651 -1.3632 -0.6502
  159SAPE  C21417769   5.757   4.265   7.840  0.2787 -0.2319  0.5782
  159SAPE  H14R17770   5.841   4.278   7.772 -0.3188 -0.4355 -0.2154
  159SAPE  C21517771   5.775   4.312   7.970 -0.3825  0.0120  0.2167
  159SAPE  H15R17772   5.876   4.339   8.003 -0.1906 -1.8499  1.3578
  159SAPE  C21617773   5.683   4.312   8.083 -0.2872 -0.3710 -0.5518
  159SAPE  H16R17774   5.614   4.226   8.075  2.2678 -2.4987 -1.2978
  159SAPE  H16S17775   5.630   4.410   8.086  0.8084  0.2812 -1.5069
  159SAPE  C21717776   5.749   4.298   8.223  0.3857  0.0826  0.7114
  159SAPE  H17R17777   5.841   4.360   8.226  0.7564 -0.5073  2.6090
  159SAPE  H17S17778   5.796   4.198   8.227 -1.6737 -0.9568  0.4339
  159SAPE  C21817779   5.655   4.342   8.331  0.4096 -0.4089 -0.5524
  159SAPE  H18R17780   5.557   4.289   8.327 -0.2249  0.2057  2.9476
  159SAPE  H18S17781   5.635   4.451   8.320 -1.0800 -0.5210  0.5963
  159SAPE  C21917782   5.708   4.310   8.471 -0.0803  0.3592 -0.0259
  159SAPE  H19R17783   5.640   4.335   8.556  1.9291 -0.7350  2.0017
  159SAPE  H19S17784   5.798   4.371   8.493 -1.5713  2.0689  1.7933
  159SAPE  C22017785   5.746   4.170   8.491 -0.5589 -0.2467  0.5145
  159SAPE  H20R17786   5.788   4.157   8.593  0.8969  1.9921  0.2649
  159SAPE  H20S17787   5.829   4.141   8.422 -1.4657  1.2113 -1.2838
  159SAPE  H20T17788   5.663   4.099   8.469 -1.8385  1.8310 -1.8380
  159SAPE   C3317789   5.562   3.630   6.940  0.3333  0.3425 -0.2209
  159SAPE   H3X17790   5.618   3.726   6.934 -0.2826  0.7177 -0.0366
  159SAPE   H3Y17791   5.629   3.550   6.903 -2.8463 -2.1544 -0.9839
  159SAPE   C3417792   5.538   3.596   7.092  0.5731 -0.0197 -0.0255
  159SAPE   H4X17793   5.633   3.554   7.130  0.4958  1.4101  1.8487
  159SAPE   H4Y17794   5.465   3.512   7.104  1.0363 -0.1856  1.8288
  159SAPE   C3517795   5.503   3.713   7.187  0.3845  0.4710 -0.0262
  159SAPE   H5X17796   5.414   3.765   7.145  0.2230  1.3010  1.2961
  159SAPE   H5Y17797   5.572   3.797   7.160  0.3890  0.5593  0.2582
  159SAPE   C3617798   5.499   3.672   7.334  0.0297  0.1921  0.7603
  159SAPE   H6X17799   5.596   3.621   7.350  0.9825  2.2000  1.8264
  159SAPE   H6Y17800   5.421   3.594   7.347 -0.6549  0.8485  0.6710
  159SAPE   C3717801   5.473   3.781   7.433  0.1953  0.1791 -0.2362
  159SAPE   H7X17802   5.377   3.825   7.400  1.3609  2.1145 -1.1767
  159SAPE   H7Y17803   5.557   3.852   7.418  1.7222 -0.5585  3.5354
  159SAPE   C3817804   5.468   3.740   7.582 -0.1112  0.0439  0.6450
  159SAPE   H8X17805   5.495   3.830   7.641 -0.7693  0.8652 -0.2832
  159SAPE   H8Y17806   5.551   3.667   7.595 -0.4064 -0.5628 -0.6501
  159SAPE   C3917807   5.337   3.678   7.621  0.6781  0.2352  0.2569
  159SAPE   H9X17808   5.313   3.590   7.558  1.5552 -0.4730  0.8922
  159SAPE   H9Y17809   5.261   3.758   7.610 -0.8951 -1.2851 -0.3742
  159SAPE  C31017810   5.347   3.637   7.765 -0.8185 -0.1608 -0.6362
  159SAPE  H10X17811   5.378   3.718   7.835  0.1929 -1.4865  0.4862
  159SAPE  H10Y17812   5.419   3.555   7.784 -1.2648 -0.2160  0.9768
  159SAPE  C31117813   5.215   3.586   7.824 -0.2624 -1.1658 -0.2849
  159SAPE  H11X17814   5.173   3.512   7.752 -1.8733  1.7176 -2.4873
  159SAPE  H11Y17815   5.143   3.670   7.816 -1.4545 -2.1543 -0.3059
  159SAPE  C31217816   5.227   3.533   7.974 -0.5852  0.7096  0.5639
  159SAPE  H12X17817   5.138   3.473   8.005 -1.2286  0.3553 -1.7436
  159SAPE  H12Y17818   5.229   3.626   8.034 -0.0146  1.0871 -0.0336
  159SAPE  C31317819   5.356   3.451   8.009  0.0212  0.4880 -0.3083
  159SAPE  H13X17820   5.448   3.512   8.001  0.0804  0.3475 -0.7180
  159SAPE  H13Y17821   5.355   3.386   7.919 -2.7322 -1.5576  1.0513
  159SAPE  C31417822   5.334   3.383   8.146 -0.3550 -1.2117 -0.2037
  159SAPE  H14X17823   5.421   3.318   8.170  0.6810  0.9177  2.1798
  159SAPE  H14Y17824   5.250   3.311   8.153 -1.7140  0.3707  0.2353
  159SAPE  C31517825   5.305   3.481   8.260 -0.0958 -0.1898  0.5827
  159SAPE  H15X17826   5.205   3.522   8.235 -0.4369 -2.1857 -1.6859
  159SAPE  H15Y17827   5.371   3.570   8.249  0.3208 -0.5594  0.0482
  159SAPE  C31617828   5.334   3.416   8.395 -0.5581  0.1661 -0.7832
  159SAPE  H16X17829   5.416   3.342   8.390  0.6188  1.2122  1.3858
  159SAPE  H16Y17830   5.243   3.361   8.428 -1.5976  1.6430 -1.0726
  159SAPE  C31717831   5.380   3.521   8.501  0.2412 -0.2084 -0.3643
  159SAPE  H17X17832   5.297   3.595   8.497  1.0390  0.7879  0.8984
  159SAPE  H17Y17833   5.478   3.563   8.471  0.9444 -0.9989  0.7458
  159SAPE  C31817834   5.391   3.457   8.642 -0.3077 -0.2458  0.3005
  159SAPE  H18X17835   5.465   3.516   8.700  0.3215  0.8852 -1.5358
  159SAPE  H18Y17836   5.423   3.351   8.626 -1.0954 -0.5046  0.4019
  159SAPE  H18Z17837   5.298   3.475   8.698 -1.0269  1.4868 -1.3469
  160SAPE     N17838   6.668   4.283   6.170 -0.5886  0.2949 -0.5814
  160SAPE   HN117839   6.718   4.327   6.250 -1.4010  0.4964 -0.1638
  160SAPE   HN217840   6.680   4.180   6.174 -2.8557 -0.0098 -0.0708
  160SAPE   HN317841   6.695   4.314   6.075 -2.6308 -1.3435 -1.7993
  160SAPE   C1217842   6.522   4.304   6.178 -0.1754  0.0688  0.0701
  160SAPE  H12A17843   6.469   4.215   6.138  0.3467 -0.1411 -0.1639
  160SAPE  H12B17844   6.495   4.382   6.104 -2.5768 -2.0724 -1.4667
  160SAPE   C1117845   6.492   4.349   6.319 -0.4527 -0.4683  0.1207
  160SAPE  H11A17846   6.393   4.399   6.322 -0.7256 -0.8346 -1.6947
  160SAPE  H11B17847   6.568   4.424   6.348  0.8839 -1.0428 -1.6499
  160SAPE     P17848   6.555   4.242   6.557  0.0090 -0.1159 -0.0327
  160SAPE   O1317849   6.505   4.119   6.624  0.4323 -0.0867  0.2154
  160SAPE   O1417850   6.704   4.272   6.557 -0.3724  0.7965  0.5085
  160SAPE   O1217851   6.502   4.239   6.412  0.4890 -0.4567 -0.2508
  160SAPE   O1117852   6.478   4.369   6.616  0.0808 -0.5605  0.0880
  160SAPE    C117853   6.334   4.373   6.629  0.4727  0.2944 -0.2146
  160SAPE    HA17854   6.284   4.455   6.572 -0.0021  1.1329  1.3502
  160SAPE    HB17855   6.282   4.279   6.601  0.8929  0.1171 -0.4144
  160SAPE    C217856   6.296   4.400   6.776 -0.0408  0.5536  0.2811
  160SAPE    HS17857   6.187   4.410   6.795 -0.0862 -1.6817  1.5170
  160SAPE   O2117858   6.372   4.505   6.828  0.4141 -0.1125  0.1210
  160SAPE   C2117859   6.321   4.625   6.800  0.5905  0.1663 -0.9323
  160SAPE   O2217860   6.217   4.653   6.738 -0.2285 -0.2156 -0.7964
  160SAPE   C2217861   6.412   4.718   6.874  0.3211 -0.6353  0.4181
  160SAPE   H2R17862   6.510   4.673   6.902  1.1208  0.1893 -0.9179
  160SAPE   H2S17863   6.432   4.800   6.801 -1.2187 -1.5728 -1.1240
  160SAPE    C317864   6.319   4.275   6.865 -0.6263  0.3620 -0.5396
  160SAPE    HX17865   6.427   4.251   6.855 -0.1166  1.4901  1.6431
  160SAPE    HY17866   6.259   4.191   6.822 -2.5273  1.3920 -0.0194
  160SAPE   O3117867   6.295   4.294   7.008 -0.6777 -0.0144 -1.1886
  160SAPE   C3117868   6.174   4.298   7.052  0.6853 -0.1895 -0.0833
  160SAPE   O3217869   6.073   4.299   6.984 -0.2100 -0.0725 -0.0121
  160SAPE   C3217870   6.178   4.339   7.203 -0.5629 -0.1588 -0.6096
  160SAPE   H2X17871   6.149   4.446   7.206  1.5704  0.4531  1.9015
  160SAPE   H2Y17872   6.284   4.327   7.234  0.0567 -1.3373 -2.9256
  160SAPE   C2317873   6.340   4.772   7.003  0.3361 -0.5284  0.7718
  160SAPE   H3R17874   6.242   4.813   6.972  2.6119  2.7864 -3.0113
  160SAPE   H3S17875   6.389   4.861   7.047  0.1293 -0.8735  1.7084
  160SAPE   C2417876   6.322   4.668   7.113 -0.4352  0.0327  0.9019
  160SAPE   H4R17877   6.291   4.572   7.068 -1.2599  0.5452  0.3442
  160SAPE   H4S17878   6.238   4.717   7.168 -2.4658 -2.0346 -0.2380
  160SAPE   C2517879   6.439   4.654   7.207  0.1677 -0.5294  0.0982
  160SAPE   H5R17880   6.530   4.605   7.169  1.1834  0.7455  0.8100
  160SAPE   C2617881   6.435   4.696   7.336  0.1642 -0.2637  0.6431
  160SAPE   H6R17882   6.528   4.679   7.392  0.0603 -1.0273  0.5862
  160SAPE   C2717883   6.331   4.778   7.405  0.1301 -0.0515  0.4013
  160SAPE   H7R17884   6.287   4.858   7.341  0.3205  0.8316  1.3402
  160SAPE   H7S17885   6.378   4.834   7.489  0.7519 -1.0863  0.7598
  160SAPE   C2817886   6.207   4.703   7.455  0.1680 -0.3500 -0.0949
  160SAPE   H8R17887   6.138   4.661   7.381  0.4506  0.9027 -1.0949
  160SAPE   C2917888   6.181   4.687   7.586  0.1663 -0.0428  0.3330
  160SAPE   H9R17889   6.106   4.611   7.613  0.1052  0.6247  2.1376
  160SAPE  C21017890   6.260   4.730   7.709 -0.8646  0.8609 -0.0270
  160SAPE  H10R17891   6.184   4.745   7.788 -1.5031 -1.9556  0.0027
  160SAPE  H10S17892   6.309   4.830   7.707  0.2258  0.4499  2.6562
  160SAPE  C21117893   6.367   4.621   7.739  0.5166  0.5320 -0.2380
  160SAPE  H11R17894   6.454   4.620   7.672  0.7993 -2.3649  0.0328
  160SAPE  C21217895   6.384   4.551   7.846  0.7644  0.0414  0.1935
  160SAPE  H12R17896   6.465   4.477   7.861  0.6866  0.0910  0.8716
  160SAPE  C21317897   6.281   4.559   7.961 -0.1119  0.1528  0.9603
  160SAPE  H13R17898   6.185   4.533   7.911  0.5955 -0.0378 -0.3338
  160SAPE  H13S17899   6.283   4.667   7.988 -1.2251  0.0194  1.6511
  160SAPE  C21417900   6.305   4.467   8.082  0.5610  0.1100 -0.4348
  160SAPE  H14R17901   6.392   4.400   8.072  2.8146  2.5936  1.2000
  160SAPE  C21517902   6.233   4.467   8.197  0.1435  0.4388  0.8836
  160SAPE  H15R17903   6.266   4.401   8.279  3.0653 -2.9403 -2.6156
  160SAPE  C21617904   6.127   4.569   8.220  0.1230  0.0264  0.1251
  160SAPE  H16R17905   6.071   4.520   8.302  0.2651 -0.9768 -0.3710
  160SAPE  H16S17906   6.057   4.577   8.134  1.2837  1.7512 -0.7364
  160SAPE  C21717907   6.177   4.703   8.268 -0.7366 -0.5132  0.2502
  160SAPE  H17R17908   6.084   4.758   8.294 -0.2899  1.1866 -1.5483
  160SAPE  H17S17909   6.234   4.752   8.187  1.2240 -2.1728  0.5575
  160SAPE  C21817910   6.259   4.702   8.405  0.2170 -0.3723  0.1293
  160SAPE  H18R17911   6.354   4.651   8.377 -0.6122 -1.7113 -0.3299
  160SAPE  H18S17912   6.207   4.641   8.482  1.3617 -0.3533  0.9429
  160SAPE  C21917913   6.308   4.835   8.453 -0.0929  0.2089 -0.6194
  160SAPE  H19R17914   6.330   4.904   8.370  1.8666  0.6000  0.1818
  160SAPE  H19S17915   6.398   4.812   8.514 -1.4565 -3.8951  0.1705
  160SAPE  C22017916   6.213   4.909   8.543 -0.8788 -0.1649 -0.5218
  160SAPE  H20R17917   6.205   4.849   8.636  5.0981 -0.0840  0.4323
  160SAPE  H20S17918   6.114   4.929   8.496 -0.3554  0.4692 -1.3848
  160SAPE  H20T17919   6.250   5.011   8.564 -1.0157 -0.4660  1.2918
  160SAPE   C3317920   6.078   4.271   7.302 -0.0008 -0.0973 -0.4901
  160SAPE   H3X17921   5.979   4.295   7.257  0.8050  0.7146 -1.8957
  160SAPE   H3Y17922   6.078   4.333   7.394  1.8472  2.4280 -2.0343
  160SAPE   C3417923   6.110   4.128   7.339 -0.8911  0.3367  0.4337
  160SAPE   H4X17924   6.085   4.077   7.244  0.1864  1.6577 -0.5906
  160SAPE   H4Y17925   6.032   4.092   7.410 -1.4438 -1.7180 -1.1280
  160SAPE   C3517926   6.256   4.096   7.384 -0.1767 -0.3551 -0.1584
  160SAPE   H5X17927   6.333   4.126   7.309  0.5663  1.3042  1.2004
  160SAPE   H5Y17928   6.264   3.985   7.392 -1.3528 -0.5140 -1.0029
  160SAPE   C3617929   6.305   4.165   7.513 -0.1613 -0.1531  0.3180
  160SAPE   H6X17930   6.309   4.273   7.489 -0.2705 -0.4127 -0.9287
  160SAPE   H6Y17931   6.406   4.122   7.534  0.9739  1.9528 -0.4666
  160SAPE   C3717932   6.214   4.126   7.623 -0.1500  0.2584 -0.5542
  160SAPE   H7X17933   6.192   4.017   7.621  1.7514 -0.2037  0.8409
  160SAPE   H7Y17934   6.118   4.181   7.613  0.2984  0.8037 -2.0624
  160SAPE   C3817935   6.279   4.166   7.753 -0.4370 -0.0839 -0.3777
  160SAPE   H8X17936   6.315   4.271   7.753  1.2158 -0.6182 -1.6671
  160SAPE   H8Y17937   6.364   4.096   7.763  0.1799  0.7793  0.5299
  160SAPE   C3917938   6.182   4.138   7.868  0.3003 -0.6555 -0.5079
  160SAPE   H9X17939   6.091   4.081   7.837  1.0359 -1.5520 -1.0639
  160SAPE   H9Y17940   6.144   4.234   7.911 -0.9724 -1.8048  1.0498
  160SAPE  C31017941   6.230   4.031   7.973 -0.1325 -0.4141 -0.1441
  160SAPE  H10X17942   6.330   4.060   8.011  0.4962 -1.0173 -1.2622
  160SAPE  H10Y17943   6.253   3.935   7.922 -1.4384 -1.1062  0.5243
  160SAPE  C31117944   6.123   4.004   8.078  0.1301  0.2617 -0.0408
  160SAPE  H11X17945   6.147   3.906   8.123 -0.8312  0.7241  1.5792
  160SAPE  H11Y17946   6.024   3.996   8.030  1.2049  0.6403 -2.4787
  160SAPE  C31217947   6.127   4.111   8.190 -0.3439 -0.0156  0.5109
  160SAPE  H12X17948   6.042   4.177   8.164 -1.6566 -1.9119 -0.2635
  160SAPE  H12Y17949   6.223   4.166   8.191 -0.6915  0.5938  1.7632
  160SAPE  C31317950   6.102   4.050   8.330 -0.0337 -0.7991 -0.3264
  160SAPE  H13X17951   6.150   3.950   8.346  0.9394 -0.9931 -3.7124
  160SAPE  H13Y17952   5.993   4.033   8.335  0.1933 -2.3664 -0.0797
  160SAPE  C31417953   6.133   4.138   8.456  0.4316  0.1269  0.3539
  160SAPE  H14X17954   6.057   4.118   8.534 -1.1519  0.7083 -0.9739
  160SAPE  H14Y17955   6.131   4.243   8.418 -0.8576 -0.4905 -1.4102
  160SAPE  C31517956   6.278   4.117   8.492 -0.3718  0.2018 -0.0345
  160SAPE  H15X17957   6.350   4.116   8.407  1.7273  0.6980  1.6423
  160SAPE  H15Y17958   6.292   4.015   8.534 -1.7888  0.2495  0.6007
  160SAPE  C31617959   6.327   4.214   8.598 -0.2431  0.0422  0.0696
  160SAPE  H16X17960   6.416   4.170   8.649 -0.7586 -2.1625 -0.8171
  160SAPE  H16Y17961   6.258   4.230   8.684  0.6439 -0.5405  0.9210
  160SAPE  C31717962   6.364   4.346   8.540 -0.0020 -0.4117 -0.0340
  160SAPE  H17X17963   6.273   4.399   8.502  0.5835 -0.7054 -1.9808
  160SAPE  H17Y17964   6.435   4.324   8.457  0.4802  0.1492  0.2210
  160SAPE  C31817965   6.443   4.438   8.650  0.5420 -0.2964  0.2130
  160SAPE  H18X17966   6.545   4.396   8.667  0.0670 -1.0927  1.2275
  160SAPE  H18Y17967   6.380   4.432   8.742  1.2651  2.0899  0.9395
  160SAPE  H18Z17968   6.445   4.547   8.629  1.3292 -0.3391  0.0322
  161SOPE     N17969   5.003   0.942  11.011  0.2525  0.1577  0.1278
  161SOPE   HN117970   4.916   0.995  11.032 -0.7427  0.3012 -3.6562
  161SOPE   HN217971   5.045   0.888  11.089 -1.2761  1.3410  1.8672
  161SOPE   HN317972   5.065   1.016  10.973 -1.0770  1.6768  0.7813
  161SOPE   C1217973   4.966   0.850  10.893 -0.0640 -0.2696 -0.3178
  161SOPE  H12A17974   4.922   0.757  10.934  1.2196 -1.0367 -0.6341
  161SOPE  H12B17975   5.064   0.818  10.851  0.1996  0.0178  0.0765
  161SOPE   C1117976   4.861   0.905  10.803 -0.1222  0.1520  0.2508
  161SOPE  H11A17977   4.851   0.848  10.709  2.4550  2.2600 -1.4516
  161SOPE  H11B17978   4.900   1.003  10.768 -0.0694  0.4287  1.0525
  161SOPE     P17979   4.602   0.905  10.822  0.0960 -0.0955  0.3521
  161SOPE   O1317980   4.511   1.003  10.885  0.0635  0.3830 -0.4155
  161SOPE   O1417981   4.556   0.769  10.837  0.2097 -0.2894 -0.1244
  161SOPE   O1217982   4.743   0.923  10.886 -0.4078 -0.8178  0.2541
  161SOPE   O1117983   4.622   0.942  10.672  0.5773  0.3149 -0.3250
  161SOPE    C117984   4.650   1.082  10.644  0.4871 -1.1550 -0.5894
  161SOPE    HA17985   4.731   1.115  10.712 -0.6351 -1.9894  1.2457
  161SOPE    HB17986   4.555   1.138  10.657  0.2343 -2.0431  2.0413
  161SOPE    C217987   4.717   1.107  10.504 -0.4440  0.0929 -1.0312
  161SOPE    HS17988   4.745   1.215  10.500 -0.7043  0.3159  1.5561
  161SOPE   O2117989   4.624   1.068  10.401  0.1052  0.0358 -0.0679
  161SOPE   C2117990   4.540   1.167  10.365  0.2032  0.1316 -0.0949
  161SOPE   O2217991   4.528   1.273  10.429 -0.2147 -0.0992  0.4105
  161SOPE   C2217992   4.432   1.122  10.270 -0.2366 -0.1725 -0.3047
  161SOPE   H2R17993   4.350   1.087  10.336 -1.1121  2.0324 -0.1468
  161SOPE   H2S17994   4.469   1.039  10.207 -1.7229 -1.9183  0.9995
  161SOPE    C317995   4.848   1.034  10.483  0.6170 -0.5015 -0.0872
  161SOPE    HX17996   4.819   0.927  10.486 -0.1792 -0.3079 -0.4679
  161SOPE    HY17997   4.928   1.057  10.556  0.3652  0.3798 -0.0730
  161SOPE   O3117998   4.905   1.071  10.355  0.3362  0.3971  0.0686
  161SOPE   C3117999   5.017   1.015  10.322  0.4218 -0.2030 -0.1185
  161SOPE   O3218000   5.062   0.911  10.365 -0.3604  0.6453  0.3517
  161SOPE   C3218001   5.079   1.094  10.203  0.6759 -0.4401 -0.6221
  161SOPE   H2X18002   5.188   1.077  10.185  0.6184 -1.5539  0.0049
  161SOPE   H2Y18003   5.069   1.203  10.222  1.5206 -0.2210 -1.3726
  161SOPE   C2318004   4.358   1.239  10.186 -0.0001 -0.0340 -0.2949
  161SOPE   H3R18005   4.332   1.320  10.258 -1.4223 -0.7416 -0.0018
  161SOPE   H3S18006   4.260   1.195  10.159 -0.2399 -0.6733  1.4743
  161SOPE   C2418007   4.444   1.284  10.064  0.1705  0.5235 -0.2821
  161SOPE   H4R18008   4.397   1.371  10.013  1.8796  2.1173  0.6852
  161SOPE   H4S18009   4.541   1.332  10.091  1.1990 -1.0886 -0.9205
  161SOPE   C2518010   4.466   1.172   9.965 -0.3505 -0.2472  0.6598
  161SOPE   H5R18011   4.553   1.108   9.991 -0.9228 -0.5305  1.9634
  161SOPE   H5S18012   4.380   1.102   9.966  0.7101 -1.6064  0.3956
  161SOPE   C2618013   4.485   1.215   9.814  0.5324  0.4455 -0.5202
  161SOPE   H6R18014   4.390   1.262   9.780  0.2883  0.1931 -0.1831
  161SOPE   H6S18015   4.555   1.301   9.815  1.8852 -0.6259 -0.3181
  161SOPE   C2718016   4.533   1.102   9.723  0.3020  0.2057  0.3604
  161SOPE   H7R18017   4.616   1.045   9.768  0.0453 -0.5243 -0.0740
  161SOPE   H7S18018   4.447   1.032   9.721  0.3220  0.1935 -0.3319
  161SOPE   C2818019   4.566   1.159   9.583  0.2500 -0.2104 -1.0702
  161SOPE   H8R18020   4.491   1.236   9.557 -0.2154  0.1640  1.2097
  161SOPE   H8S18021   4.667   1.204   9.594  0.2820 -0.6718  0.7851
  161SOPE   C2918022   4.597   1.050   9.489  0.3539 -0.0128  0.2398
  161SOPE   H9118023   4.686   0.992   9.515  1.9511  0.3402 -3.7483
  161SOPE  C21018024   4.549   1.029   9.365  0.1615  0.1994  0.1664
  161SOPE  H10118025   4.595   0.945   9.310  0.0203 -0.6162  1.2704
  161SOPE  C21118026   4.455   1.114   9.290 -1.2830 -0.0724  0.1870
  161SOPE  H11R18027   4.418   1.200   9.351 -1.4073 -0.2546  0.3710
  161SOPE  H11S18028   4.364   1.054   9.272 -1.8963  0.5383  1.1542
  161SOPE  C21218029   4.514   1.165   9.157 -0.8389  0.1456 -0.6735
  161SOPE  H12R18030   4.541   1.071   9.106 -0.0934 -0.3897  0.6413
  161SOPE  H12S18031   4.600   1.234   9.172 -0.1273 -1.3981  4.4151
  161SOPE  C21318032   4.404   1.243   9.075  0.1505  0.4636 -0.4064
  161SOPE  H13R18033   4.354   1.320   9.138 -0.1765  0.6003 -0.8260
  161SOPE  H13S18034   4.321   1.177   9.042  0.2561 -0.2634  0.7143
  161SOPE  C21418035   4.467   1.291   8.941 -0.9644  0.1107  0.8341
  161SOPE  H14R18036   4.515   1.203   8.894  0.2444  1.3349 -0.3395
  161SOPE  H14S18037   4.553   1.357   8.967  0.7069 -1.8045  0.4448
  161SOPE  C21518038   4.364   1.368   8.853  0.0181 -0.5055 -0.1078
  161SOPE  H15R18039   4.328   1.451   8.918 -0.5622 -0.3607 -0.6141
  161SOPE  H15S18040   4.282   1.299   8.825  0.4206 -1.9045  1.8868
  161SOPE  C21618041   4.422   1.434   8.725 -0.8464 -0.6039 -0.2097
  161SOPE  H16R18042   4.484   1.358   8.673  1.2320  0.0431  1.1724
  161SOPE  H16S18043   4.500   1.502   8.767  1.7869 -2.6196 -1.5128
  161SOPE  C21718044   4.320   1.513   8.643 -0.4656 -0.6903 -0.0133
  161SOPE  H17R18045   4.373   1.550   8.553  0.0331 -1.4639 -0.0517
  161SOPE  H17S18046   4.281   1.603   8.695 -0.8281  0.9906 -2.9691
  161SOPE  C21818047   4.207   1.425   8.600 -0.8044 -0.1996 -0.1728
  161SOPE  H18R18048   4.150   1.385   8.687  1.0308 -2.6081  0.0349
  161SOPE  H18S18049   4.255   1.344   8.541  2.5248  0.5319  1.2494
  161SOPE  H18T18050   4.134   1.483   8.540 -0.3077  1.0555  0.4012
  161SOPE   C3318051   5.015   1.071  10.066 -0.4673  0.0669 -0.5748
  161SOPE   H3X18052   4.909   1.104  10.080  0.1221  1.0710  2.1319
  161SOPE   H3Y18053   4.996   0.964  10.045  1.1443 -0.0277 -1.7429
  161SOPE   C3418054   5.086   1.119   9.939  1.1918  0.4423 -0.0577
  161SOPE   H4X18055   5.188   1.074   9.937  0.3063 -1.7424 -2.5553
  161SOPE   H4Y18056   5.092   1.230   9.932 -1.3666  0.6180 -0.2874
  161SOPE   C3518057   4.999   1.083   9.818  0.2069 -0.0075  1.3421
  161SOPE   H5X18058   4.906   1.141   9.836  0.5590  0.5765  1.3085
  161SOPE   H5Y18059   4.985   0.973   9.811  0.3277 -0.0193  1.2862
  161SOPE   C3618060   5.065   1.130   9.687 -0.4975  0.0977  0.0074
  161SOPE   H6X18061   5.174   1.107   9.683 -0.1978  1.4825 -0.2751
  161SOPE   H6Y18062   5.061   1.240   9.675 -1.4043 -0.0247 -0.9867
  161SOPE   C3718063   4.984   1.071   9.566 -0.1659 -0.1555 -0.0479
  161SOPE   H7X18064   4.879   1.107   9.566 -0.1875 -0.1734 -1.3364
  161SOPE   H7Y18065   4.977   0.960   9.562  0.4945 -0.1706 -3.1710
  161SOPE   C3818066   5.034   1.120   9.433  0.1438  0.5967 -0.5649
  161SOPE   H8X18067   5.137   1.084   9.411  0.2524  0.3633  0.2814
  161SOPE   H8Y18068   5.055   1.228   9.448  0.1743  0.4974  0.1668
  161SOPE   C3918069   4.943   1.089   9.312  0.2300 -0.7087 -0.5832
  161SOPE   H9X18070   4.848   1.146   9.312 -0.6408 -2.1004 -1.3566
  161SOPE   H9Y18071   4.911   0.983   9.309 -0.6482 -0.4412 -1.0788
  161SOPE  C31018072   5.022   1.129   9.186  0.1907 -0.5715  0.4117
  161SOPE  H10X18073   5.108   1.062   9.166  0.6526 -0.6804  2.5324
  161SOPE  H10Y18074   5.065   1.229   9.207 -1.5736  0.1456  0.7951
  161SOPE  C31118075   4.924   1.157   9.067  0.0483 -0.2938 -0.1675
  161SOPE  H11X18076   4.829   1.200   9.106  0.0960 -0.7178  0.4321
  161SOPE  H11Y18077   4.896   1.069   9.005  0.8958  1.1565 -2.7308
  161SOPE  C31218078   4.983   1.258   8.962  0.0205 -0.4663 -0.0054
  161SOPE  H12X18079   5.052   1.325   9.016  1.2470 -0.3784 -1.6164
  161SOPE  H12Y18080   4.893   1.314   8.928 -0.4309  0.4825  2.5472
  161SOPE  C31318081   5.067   1.205   8.841  0.0450 -0.4859 -0.0560
  161SOPE  H13X18082   4.994   1.143   8.785 -1.8416  1.2543  0.3590
  161SOPE  H13Y18083   5.148   1.131   8.858 -0.3926 -0.8161  0.6764
  161SOPE  C31418084   5.106   1.320   8.751  0.4156 -0.0806  0.7429
  161SOPE  H14X18085   5.195   1.375   8.788 -0.5892  2.0421  0.2106
  161SOPE  H14Y18086   5.017   1.385   8.737  0.0587 -1.0839 -2.3662
  161SOPE  C31518087   5.140   1.282   8.610 -0.0163  0.3565  0.5621
  161SOPE  H15X18088   5.132   1.172   8.604 -2.3254  0.5629 -1.8368
  161SOPE  H15Y18089   5.248   1.308   8.608  0.1118 -0.1968 -0.7600
  161SOPE  C31618090   5.069   1.367   8.505  0.0628  0.9800 -0.1392
  161SOPE  H16X18091   5.090   1.475   8.522  0.0048  0.8805  0.6069
  161SOPE  H16Y18092   4.958   1.362   8.502  0.0241  1.2440  0.5811
  161SOPE  C31718093   5.124   1.329   8.366  0.0636  0.3880 -0.1280
  161SOPE  H17X18094   5.233   1.346   8.356  0.4061 -2.2584 -2.1538
  161SOPE  H17Y18095   5.079   1.397   8.291 -0.2884 -2.6796 -2.9456
  161SOPE  C31818096   5.071   1.197   8.322  0.1562 -0.3072  0.8465
  161SOPE  H18X18097   5.095   1.113   8.391  0.5866 -0.0730  0.9821
  161SOPE  H18Y18098   5.091   1.158   8.220  0.6877  0.3463  0.6979
  161SOPE  H18Z18099   4.961   1.212   8.320  0.3127  0.8891  0.1234
  162SOPE     N18100   0.529   2.973  11.087 -0.3128 -0.0642  0.7311
  162SOPE   HN118101   0.592   2.944  11.164  0.1623  0.2832  0.4817
  162SOPE   HN218102   0.446   3.022  11.128  2.8047  3.7306  3.3430
  162SOPE   HN318103   0.501   2.887  11.036  0.1459 -0.3200  0.9098
  162SOPE   C1218104   0.578   3.082  10.992  0.6529 -0.2570  0.1886
  162SOPE  H12A18105   0.650   3.027  10.928  2.0565  0.5609  1.0108
  162SOPE  H12B18106   0.637   3.159  11.046  0.7959  0.2829 -0.7196
  162SOPE   C1118107   0.461   3.136  10.900 -0.5408 -0.1348 -0.4025
  162SOPE  H11A18108   0.506   3.196  10.819 -0.7484  2.8959  1.5640
  162SOPE  H11B18109   0.397   3.203  10.962  0.5064 -0.0385  0.6038
  162SOPE     P18110   0.234   3.055  10.790 -0.2211 -0.0703 -0.0112
  162SOPE   O1318111   0.176   3.168  10.863  0.2069 -0.7359  0.2747
  162SOPE   O1418112   0.161   2.924  10.789 -0.1619 -0.7871  0.2914
  162SOPE   O1218113   0.378   3.024  10.853  0.4470  0.5426  0.0531
  162SOPE   O1118114   0.272   3.103  10.640 -0.0994  0.5400 -0.0794
  162SOPE    C118115   0.288   3.000  10.545 -0.9457  0.7125  0.2845
  162SOPE    HA18116   0.188   2.974  10.503 -1.0384 -0.4129  1.1683
  162SOPE    HB18117   0.337   2.910  10.587 -2.2771 -0.8452 -1.3465
  162SOPE    C218118   0.372   3.056  10.424 -0.2735  0.1187 -0.3699
  162SOPE    HS18119   0.329   3.155  10.396 -0.1645  0.3762  0.3527
  162SOPE   O2118120   0.386   2.952  10.320  0.3337  0.1325 -0.2012
  162SOPE   C2118121   0.292   2.958  10.240 -0.2085 -0.5611  0.4651
  162SOPE   O2218122   0.201   3.043  10.237 -0.3579  0.1354 -0.2717
  162SOPE   C2218123   0.298   2.852  10.124 -0.1387 -0.3969  0.0275
  162SOPE   H2R18124   0.297   2.749  10.164  2.0323 -0.6134 -0.3742
  162SOPE   H2S18125   0.394   2.860  10.068 -1.0980 -0.0959 -1.6408
  162SOPE    C318126   0.514   3.071  10.481  0.7446 -0.1809  0.3568
  162SOPE    HX18127   0.556   2.988  10.541  3.6810  1.6016  1.0011
  162SOPE    HY18128   0.502   3.138  10.569 -4.0753 -1.3454  0.8283
  162SOPE   O3118129   0.610   3.124  10.385  0.5154 -0.0885  0.4205
  162SOPE   C3118130   0.607   3.254  10.352  0.0969 -0.3188  0.3382
  162SOPE   O3218131   0.532   3.335  10.407 -0.1954 -0.0392  0.3451
  162SOPE   C3218132   0.682   3.269  10.224  0.5895 -0.4042  0.2582
  162SOPE   H2X18133   0.642   3.209  10.139  3.2661 -1.1468 -0.5766
  162SOPE   H2Y18134   0.781   3.220  10.239 -1.3970 -4.4200  1.7808
  162SOPE   C2318135   0.187   2.866  10.020  0.1477 -0.5377  0.3125
  162SOPE   H3R18136   0.185   2.971   9.983  0.2937 -0.2863  0.9922
  162SOPE   H3S18137   0.085   2.845  10.060 -0.4514  1.1453 -0.2460
  162SOPE   C2418138   0.212   2.772   9.898 -0.0181  0.5553  0.2103
  162SOPE   H4R18139   0.308   2.784   9.844  0.5353  0.6396  1.1930
  162SOPE   H4S18140   0.216   2.674   9.951  2.6495  1.6092  2.1533
  162SOPE   C2518141   0.092   2.760   9.803  0.4390  0.7428  0.6832
  162SOPE   H5R18142   0.004   2.750   9.869  0.7691 -0.8030  0.9495
  162SOPE   H5S18143   0.082   2.847   9.735  1.3160 -1.0922 -2.0190
  162SOPE   C2618144   0.099   2.642   9.707 -0.2306 -0.4671 -0.2188
  162SOPE   H6R18145   0.190   2.650   9.644 -0.9528  1.6320 -1.0850
  162SOPE   H6S18146   0.100   2.550   9.771 -0.7508 -0.1107  0.3129
  162SOPE   C2718147  -0.033   2.633   9.622 -0.2086  0.6856 -0.1239
  162SOPE   H7R18148  -0.125   2.619   9.683 -0.4139 -0.1634 -0.6187
  162SOPE   H7S18149  -0.050   2.724   9.561 -2.3076  0.1017 -0.4750
  162SOPE   C2818150  -0.009   2.515   9.526 -0.0363  0.1668  0.0655
  162SOPE   H8R18151   0.084   2.526   9.466 -1.2597  2.2114 -1.6088
  162SOPE   H8S18152   0.004   2.413   9.569  2.1336 -0.3833 -1.6719
  162SOPE   C2918153  -0.135   2.507   9.444  0.3138 -0.4652 -0.3893
  162SOPE   H9118154  -0.227   2.497   9.504 -2.3825  0.9836 -3.8848
  162SOPE  C21018155  -0.146   2.505   9.309  0.3741  0.3131 -0.6932
  162SOPE  H10118156  -0.247   2.501   9.265  0.7152  2.1462 -1.7469
  162SOPE  C21118157  -0.036   2.505   9.208 -0.3395 -0.5062 -0.1668
  162SOPE  H11R18158   0.066   2.495   9.250 -0.2604  1.6263  0.2600
  162SOPE  H11S18159  -0.042   2.609   9.169  2.4679  0.4798  1.7106
  162SOPE  C21218160  -0.062   2.396   9.100  0.1140 -0.7627 -0.0184
  162SOPE  H12R18161  -0.013   2.419   9.004 -0.5564 -3.0484 -0.9796
  162SOPE  H12S18162  -0.172   2.393   9.081  0.4774 -0.0460 -2.5591
  162SOPE  C21318163  -0.016   2.260   9.139 -0.3845  0.1380 -0.1991
  162SOPE  H13R18164  -0.051   2.236   9.242 -1.6132 -2.9093 -1.1884
  162SOPE  H13S18165   0.094   2.255   9.150 -0.5508 -1.2718  1.2593
  162SOPE  C21418166  -0.065   2.155   9.040 -0.4293 -0.4776  0.3032
  162SOPE  H14R18167  -0.043   2.190   8.937  0.1886  0.7265  0.8236
  162SOPE  H14S18168  -0.175   2.154   9.051 -0.4481 -1.6148  0.1529
  162SOPE  C21518169  -0.010   2.020   9.069  0.7664  0.1873  0.7619
  162SOPE  H15R18170  -0.049   1.987   9.168  0.0606 -0.6290  0.2286
  162SOPE  H15S18171   0.101   2.026   9.064  0.8302 -0.6737  1.0404
  162SOPE  C21618172  -0.057   1.918   8.965  0.0627 -0.1311  0.2316
  162SOPE  H16R18173   0.014   1.835   8.982  0.5161  0.3091  0.5159
  162SOPE  H16S18174  -0.051   1.957   8.861 -0.4526 -0.1879  0.1778
  162SOPE  C21718175  -0.204   1.864   8.980  0.3840  0.6682  0.9064
  162SOPE  H17R18176  -0.274   1.950   8.987 -0.9142 -0.2486 -0.2250
  162SOPE  H17S18177  -0.202   1.799   9.070  2.0164 -1.9435 -0.8731
  162SOPE  C21818178  -0.249   1.777   8.863  0.4941  0.1680  0.3060
  162SOPE  H18R18179  -0.355   1.746   8.877  1.0172 -0.9580  2.1236
  162SOPE  H18S18180  -0.175   1.696   8.845  0.5725  0.5899 -1.3574
  162SOPE  H18T18181  -0.232   1.832   8.768  0.5840  1.7495  1.2081
  162SOPE   C3318182   0.710   3.420  10.199  0.5028 -0.4495 -0.4535
  162SOPE   H3X18183   0.806   3.433  10.146  0.8427 -0.1669  0.2293
  162SOPE   H3Y18184   0.731   3.479  10.291  1.1025  0.2460 -1.0295
  162SOPE   C3418185   0.602   3.487  10.119 -0.1772 -0.1965  0.5168
  162SOPE   H4X18186   0.519   3.503  10.192 -0.7854  2.1000 -0.5956
  162SOPE   H4Y18187   0.563   3.421  10.038  0.2440 -1.1524  1.0749
  162SOPE   C3518188   0.637   3.628  10.059 -0.2912  0.1791 -0.0532
  162SOPE   H5X18189   0.649   3.696  10.145 -2.5411 -0.4499  0.8370
  162SOPE   H5Y18190   0.549   3.666  10.002 -1.1989 -0.1088  1.1041
  162SOPE   C3618191   0.751   3.629   9.957 -0.1371 -0.8639 -0.9572
  162SOPE   H6X18192   0.836   3.563   9.982  0.2291  0.2454  0.8551
  162SOPE   H6Y18193   0.789   3.733   9.952  0.0818 -0.9337 -0.6927
  162SOPE   C3718194   0.709   3.606   9.806 -0.2590 -0.8118 -0.3847
  162SOPE   H7X18195   0.634   3.686   9.790 -0.0109 -0.1485  1.5618
  162SOPE   H7Y18196   0.648   3.513   9.804 -1.1507 -0.2418  0.2148
  162SOPE   C3818197   0.828   3.614   9.711  0.5077  0.3673  0.1466
  162SOPE   H8X18198   0.907   3.541   9.738  0.6425  0.5405  0.2256
  162SOPE   H8Y18199   0.864   3.719   9.718  0.1710  0.6390 -1.7186
  162SOPE   C3918200   0.799   3.601   9.560  0.4321  0.0399  0.4071
  162SOPE   H9X18201   0.694   3.636   9.547  0.7930  0.9274 -0.1931
  162SOPE   H9Y18202   0.810   3.492   9.542  2.3510  0.0037  1.4804
  162SOPE  C31018203   0.892   3.688   9.477 -0.2714 -0.1716 -0.3472
  162SOPE  H10X18204   0.899   3.785   9.529 -0.0734 -0.7795  0.7963
  162SOPE  H10Y18205   0.846   3.700   9.377 -1.0445 -1.3839 -0.1570
  162SOPE  C31118206   1.035   3.623   9.462  0.7383  0.3271 -0.4294
  162SOPE  H11X18207   1.037   3.522   9.416  1.7972 -0.4746  1.2803
  162SOPE  H11Y18208   1.082   3.607   9.561  1.5109 -1.0933 -0.9965
  162SOPE  C31218209   1.132   3.710   9.383 -0.1159 -0.3329 -0.4747
  162SOPE  H12X18210   1.098   3.814   9.401 -2.2784 -1.2903  1.4785
  162SOPE  H12Y18211   1.128   3.688   9.275  2.1288  0.9326 -0.8781
  162SOPE  C31318212   1.279   3.700   9.433 -0.1328 -0.2451  0.3141
  162SOPE  H13X18213   1.309   3.603   9.478 -0.0414 -0.5167 -0.3128
  162SOPE  H13Y18214   1.277   3.771   9.518  0.8391 -1.0133  1.0017
  162SOPE  C31418215   1.392   3.735   9.334  0.1157  0.2910  0.2070
  162SOPE  H14X18216   1.380   3.840   9.300  0.1300  0.7986  1.7104
  162SOPE  H14Y18217   1.389   3.679   9.238 -0.4566 -0.6209  0.7459
  162SOPE  C31518218   1.534   3.713   9.399  0.0775  0.3503 -0.3014
  162SOPE  H15X18219   1.612   3.711   9.320  2.9546 -0.8394  2.3529
  162SOPE  H15Y18220   1.516   3.614   9.446 -1.3770  0.4352 -0.6425
  162SOPE  C31618221   1.584   3.805   9.512  0.4069  0.5399 -0.1794
  162SOPE  H16X18222   1.550   3.911   9.512  4.0839  1.8966 -1.0526
  162SOPE  H16Y18223   1.695   3.805   9.499  0.3389 -1.2329 -1.0116
  162SOPE  C31718224   1.566   3.739   9.651 -0.4089  0.0861  0.4491
  162SOPE  H17X18225   1.624   3.646   9.636 -0.7865 -0.0346 -0.3421
  162SOPE  H17Y18226   1.462   3.706   9.671 -1.2198  0.7598 -2.2464
  162SOPE  C31818227   1.616   3.820   9.771 -1.2085  0.1764  0.2663
  162SOPE  H18X18228   1.722   3.842   9.745 -1.1081 -1.2727 -0.6727
  162SOPE  H18Y18229   1.608   3.762   9.866  0.8230 -1.1869 -0.3318
  162SOPE  H18Z18230   1.559   3.914   9.786  0.5311  1.2267  0.6422
  163SOPE     N18231   3.179   4.039  11.054 -0.4992  0.8843  0.0524
  163SOPE   HN118232   3.233   4.045  10.965 -0.9713 -1.6634 -0.4752
  163SOPE   HN218233   3.081   4.042  11.017 -0.8098  0.7763  0.8460
  163SOPE   HN318234   3.207   4.124  11.106  0.3299  2.3357 -2.6103
  163SOPE   C1218235   3.220   3.910  11.116 -0.6702  0.0532  0.0898
  163SOPE  H12A18236   3.142   3.836  11.088 -0.1286 -1.4016  2.2001
  163SOPE  H12B18237   3.227   3.923  11.226 -1.2885  0.1105  0.1275
  163SOPE   C1118238   3.348   3.868  11.049  0.1343 -0.2829  0.4807
  163SOPE  H11A18239   3.374   3.769  11.091  2.7478 -0.4567 -1.2514
  163SOPE  H11B18240   3.430   3.941  11.065 -2.1081  2.2551  1.1449
  163SOPE     P18241   3.372   3.740  10.816 -0.4987 -0.0108  0.0010
  163SOPE   O1318242   3.254   3.669  10.781  0.1040  0.1879  0.2874
  163SOPE   O1418243   3.472   3.664  10.895  0.7865  0.2443  0.6093
  163SOPE   O1218244   3.328   3.866  10.907  0.0035  0.0601  0.2770
  163SOPE   O1118245   3.440   3.816  10.694 -0.1026 -0.0217  0.3679
  163SOPE    C118246   3.550   3.905  10.718 -0.3234 -0.2361 -0.4469
  163SOPE    HA18247   3.648   3.855  10.704 -1.4145 -2.4614 -0.6530
  163SOPE    HB18248   3.556   3.942  10.823  3.5060  3.1631 -1.5978
  163SOPE    C218249   3.549   4.027  10.620 -0.1663  0.7102 -0.1803
  163SOPE    HS18250   3.444   4.064  10.624 -0.9159 -1.0559 -2.0587
  163SOPE   O2118251   3.574   3.972  10.492  0.1360 -0.3788  0.7842
  163SOPE   C2118252   3.500   4.010  10.395 -0.2952 -0.4905  0.9088
  163SOPE   O2218253   3.396   4.072  10.410 -0.9138 -0.5985  0.7495
  163SOPE   C2218254   3.536   3.955  10.257  0.5903 -0.0749 -0.4537
  163SOPE   H2R18255   3.591   3.862  10.281 -0.5467 -0.3851  1.1875
  163SOPE   H2S18256   3.602   4.035  10.217  1.4300  1.0144  2.7677
  163SOPE    C318257   3.648   4.136  10.668 -0.0375 -0.2354  0.8896
  163SOPE    HX18258   3.742   4.081  10.688  1.1025  1.3019  0.0344
  163SOPE    HY18259   3.620   4.181  10.765 -0.5565  0.7775  0.2923
  163SOPE   O3118260   3.659   4.241  10.568  0.2788  0.2533 -0.1086
  163SOPE   C3118261   3.572   4.344  10.571 -0.2620 -0.1023  0.1008
  163SOPE   O3218262   3.487   4.354  10.654  0.4031 -0.5048  0.4401
  163SOPE   C3218263   3.602   4.454  10.475  0.6599  0.3458 -0.6838
  163SOPE   H2X18264   3.698   4.448  10.419  0.7105 -1.6939 -0.4613
  163SOPE   H2Y18265   3.600   4.547  10.536  1.1590 -0.1469  0.1112
  163SOPE   C2318266   3.407   3.937  10.164 -0.2255  0.2622 -0.3343
  163SOPE   H3R18267   3.362   4.037  10.151 -0.5113 -0.1960 -3.6992
  163SOPE   H3S18268   3.336   3.860  10.203  0.4248 -0.4606 -0.5543
  163SOPE   C2418269   3.441   3.896  10.022 -0.5431 -0.6350  0.0575
  163SOPE   H4R18270   3.509   3.974   9.979 -3.1868  0.7402 -1.9672
  163SOPE   H4S18271   3.491   3.797  10.023  2.8710  0.8416  4.2646
  163SOPE   C2518272   3.312   3.900   9.930  0.0908  0.0339  0.0019
  163SOPE   H5R18273   3.265   3.803   9.955  1.5803 -1.1212 -1.4564
  163SOPE   H5S18274   3.245   3.986   9.955 -0.5201  0.2447 -2.1206
  163SOPE   C2618275   3.340   3.900   9.779  0.2141  0.2872 -0.1973
  163SOPE   H6R18276   3.387   3.992   9.739 -0.0711  0.6805  0.3686
  163SOPE   H6S18277   3.419   3.827   9.751 -2.4972 -3.3666  0.8318
  163SOPE   C2718278   3.215   3.866   9.699 -0.2776 -0.6134 -0.1860
  163SOPE   H7R18279   3.153   3.806   9.768  2.0326 -1.6962  1.0493
  163SOPE   H7S18280   3.148   3.952   9.681 -1.8699 -1.8150 -0.2231
  163SOPE   C2818281   3.236   3.785   9.567 -0.5753 -0.4289  0.0105
  163SOPE   H8R18282   3.328   3.728   9.591 -0.2401  0.1070 -0.0031
  163SOPE   H8S18283   3.153   3.711   9.557  0.0953 -1.2354  0.2428
  163SOPE   C2918284   3.255   3.877   9.448  0.2638  0.7151  0.1824
  163SOPE   H9118285   3.271   3.981   9.481  3.6800  0.3652 -0.0779
  163SOPE  C21018286   3.248   3.839   9.320  0.2189 -0.2257  0.1855
  163SOPE  H10118287   3.255   3.918   9.243 -1.2970  0.5842  0.8268
  163SOPE  C21118288   3.221   3.702   9.265  0.6485 -0.5421  0.1930
  163SOPE  H11R18289   3.113   3.678   9.277  0.8960 -1.1491  1.2906
  163SOPE  H11S18290   3.274   3.627   9.327  2.0910 -0.9947 -1.4812
  163SOPE  C21218291   3.263   3.687   9.116  0.2783  0.1268 -0.3799
  163SOPE  H12R18292   3.289   3.583   9.085  1.4578  0.1181  0.5847
  163SOPE  H12S18293   3.348   3.754   9.094  0.9230 -0.6293 -0.2150
  163SOPE  C21318294   3.161   3.741   9.018  0.2959  0.4088  0.5369
  163SOPE  H13R18295   3.136   3.849   9.029  0.4655  0.5979 -0.7371
  163SOPE  H13S18296   3.065   3.691   9.043 -0.4501  0.8392 -1.3004
  163SOPE  C21418297   3.200   3.724   8.867  0.1035 -0.6896 -0.0688
  163SOPE  H14R18298   3.110   3.724   8.803  0.7500 -0.0333 -0.9864
  163SOPE  H14S18299   3.230   3.618   8.850 -2.5994 -1.2285 -2.0106
  163SOPE  C21518300   3.294   3.827   8.796 -0.1027 -0.3429 -0.4787
  163SOPE  H15R18301   3.366   3.857   8.875 -1.8266 -1.8541  1.7672
  163SOPE  H15S18302   3.235   3.917   8.768 -0.8630 -0.2662  1.2783
  163SOPE  C21618303   3.362   3.761   8.687 -0.5185  0.1211  0.0233
  163SOPE  H16R18304   3.291   3.726   8.610  0.0340  1.5837 -1.1882
  163SOPE  H16S18305   3.405   3.668   8.731 -0.6448  0.2630  0.4491
  163SOPE  C21718306   3.476   3.839   8.628  0.1548  0.0836 -0.1072
  163SOPE  H17R18307   3.531   3.881   8.715 -1.4994 -1.9127  2.0438
  163SOPE  H17S18308   3.430   3.929   8.584 -1.4282  0.9349  2.9696
  163SOPE  C21818309   3.578   3.754   8.548  0.3896  0.1233 -0.6675
  163SOPE  H18R18310   3.532   3.686   8.472  1.7873 -1.7653  0.0902
  163SOPE  H18S18311   3.622   3.676   8.614  0.0816  1.4555  1.1879
  163SOPE  H18T18312   3.661   3.811   8.502 -0.4575 -0.1735 -2.6664
  163SOPE   C3318313   3.499   4.469  10.370  0.0587  0.9656  0.1902
  163SOPE   H3X18314   3.503   4.577  10.348  0.0091  1.0157  0.4156
  163SOPE   H3Y18315   3.395   4.442  10.402  0.1550 -2.3511 -1.8085
  163SOPE   C3418316   3.520   4.385  10.242 -0.5750  1.3444 -0.3309
  163SOPE   H4X18317   3.532   4.277  10.268 -0.5467  1.6948  1.2400
  163SOPE   H4Y18318   3.612   4.420  10.192 -0.6472 -0.7653 -2.0765
  163SOPE   C3518319   3.409   4.407  10.142 -0.5839  0.3846  0.0890
  163SOPE   H5X18320   3.392   4.516  10.133 -1.5689  0.0754 -2.7544
  163SOPE   H5Y18321   3.315   4.366  10.187 -0.4827 -0.0488 -0.0835
  163SOPE   C3618322   3.440   4.327  10.011 -0.0695  0.4036  0.2273
  163SOPE   H6X18323   3.433   4.219  10.032 -0.4187 -0.1571 -2.4279
  163SOPE   H6Y18324   3.546   4.335   9.977  0.3401 -1.3665  0.9788
  163SOPE   C3718325   3.346   4.363   9.898 -0.0490  1.1154  0.3945
  163SOPE   H7X18326   3.378   4.468   9.881 -0.9717  1.6061  1.5388
  163SOPE   H7Y18327   3.240   4.363   9.933 -0.6589 -0.0937 -1.3634
  163SOPE   C3818328   3.373   4.284   9.774 -0.2877 -0.2619 -0.2169
  163SOPE   H8X18329   3.324   4.185   9.772  0.4264 -0.6599 -2.7488
  163SOPE   H8Y18330   3.480   4.253   9.777 -1.3337 -4.4719 -0.0142
  163SOPE   C3918331   3.338   4.367   9.651  0.4081  0.3828 -0.3580
  163SOPE   H9X18332   3.392   4.464   9.650  0.8054  0.1621 -0.2962
  163SOPE   H9Y18333   3.227   4.381   9.655  0.4291  0.4056  0.2574
  163SOPE  C31018334   3.385   4.300   9.525 -0.1105 -0.4205 -0.2619
  163SOPE  H10X18335   3.330   4.203   9.515 -0.9139  0.2182 -2.6788
  163SOPE  H10Y18336   3.494   4.283   9.529  0.1173  1.0189 -0.1588
  163SOPE  C31118337   3.361   4.369   9.386  0.1729 -0.7885 -0.4472
  163SOPE  H11X18338   3.435   4.451   9.372  0.0235 -0.7567 -1.0705
  163SOPE  H11Y18339   3.263   4.420   9.398  1.2222  1.0029  1.2226
  163SOPE  C31218340   3.343   4.268   9.268 -0.1908 -0.3010  0.3433
  163SOPE  H12X18341   3.267   4.198   9.308 -1.1381  1.5364  1.9326
  163SOPE  H12Y18342   3.446   4.229   9.252  1.2663  3.5064 -0.9719
  163SOPE  C31318343   3.289   4.338   9.147  0.1567 -0.2831  0.3823
  163SOPE  H13X18344   3.354   4.424   9.121 -1.8747  0.9959 -0.7242
  163SOPE  H13Y18345   3.185   4.373   9.166 -0.1354 -1.0145  0.1586
  163SOPE  C31418346   3.294   4.250   9.023 -0.1429  0.4303  0.3665
  163SOPE  H14X18347   3.196   4.198   9.019  0.1191 -0.0140 -1.4978
  163SOPE  H14Y18348   3.378   4.177   9.022 -0.9151 -0.6110  3.1843
  163SOPE  C31518349   3.304   4.322   8.890  0.1956 -0.1481  0.6322
  163SOPE  H15X18350   3.404   4.371   8.880  0.9818 -1.5797  1.0858
  163SOPE  H15Y18351   3.232   4.405   8.884 -0.4413 -0.6614  1.0721
  163SOPE  C31618352   3.278   4.235   8.767  0.1320 -0.7192  0.1613
  163SOPE  H16X18353   3.198   4.160   8.784 -0.3927  0.1217  1.5099
  163SOPE  H16Y18354   3.376   4.189   8.738  1.1330  1.4730 -0.1170
  163SOPE  C31718355   3.230   4.328   8.650 -0.2031 -0.3672 -0.7352
  163SOPE  H17X18356   3.286   4.290   8.562 -0.0493 -0.4851 -0.5882
  163SOPE  H17Y18357   3.254   4.436   8.663  0.6673 -0.8327  2.2505
  163SOPE  C31818358   3.079   4.322   8.621 -0.4423 -0.5091 -0.2995
  163SOPE  H18X18359   3.036   4.385   8.540 -1.6675 -1.4885 -0.4426
  163SOPE  H18Y18360   3.034   4.351   8.719 -0.9108  0.5861 -0.8263
  163SOPE  H18Z18361   3.055   4.219   8.586 -0.0349 -0.0618 -1.9764
  164SOPE     N18362   5.064   0.067  10.817 -0.5999 -0.1605 -0.6360
  164SOPE   HN118363   5.026   0.161  10.842 -3.0460 -0.2673 -3.3386
  164SOPE   HN218364   5.167   0.067  10.827 -0.5114 -0.7736 -1.4471
  164SOPE   HN318365   5.037   0.055  10.717 -1.0819 -0.2597 -0.4991
  164SOPE   C1218366   4.993  -0.036  10.909  0.3102  0.3169 -0.4632
  164SOPE  H12A18367   5.005  -0.003  11.014 -0.4357 -0.7877 -0.0113
  164SOPE  H12B18368   5.051  -0.130  10.902 -0.6828 -0.3978  0.6102
  164SOPE   C1118369   4.855  -0.075  10.851  0.3691 -0.2600 -0.1007
  164SOPE  H11A18370   4.796   0.020  10.846  1.5088  0.4786  0.0988
  164SOPE  H11B18371   4.820  -0.141  10.933 -1.7899  1.3714  0.3946
  164SOPE     P18372   4.827  -0.092  10.584 -0.0774  0.1871  0.0181
  164SOPE   O1318373   4.702  -0.020  10.598  0.2922 -0.6002  0.2679
  164SOPE   O1418374   4.847  -0.198  10.489  0.0329 -0.3337 -0.7509
  164SOPE   O1218375   4.854  -0.156  10.729  0.1370  0.0042 -0.1961
  164SOPE   O1118376   4.946   0.013  10.580 -0.2290  0.3204 -0.3453
  164SOPE    C118377   4.957   0.119  10.483 -0.0461  0.0179 -0.5491
  164SOPE    HA18378   5.045   0.182  10.505 -0.6376  0.3143  1.1151
  164SOPE    HB18379   4.866   0.182  10.482  0.7166  1.1387 -0.7999
  164SOPE    C218380   4.973   0.067  10.337 -0.6984  0.6417 -0.3318
  164SOPE    HS18381   4.897  -0.013  10.319 -1.5986  1.3348  0.2781
  164SOPE   O2118382   5.104   0.012  10.328 -0.1725  0.2069 -0.1378
  164SOPE   C2118383   5.118  -0.097  10.252 -0.0998  0.0577 -0.0015
  164SOPE   O2218384   5.037  -0.145  10.172 -0.5822 -0.7132 -0.1904
  164SOPE   C2218385   5.254  -0.161  10.295  0.1288 -0.7677 -0.0600
  164SOPE   H2R18386   5.233  -0.225  10.383  1.7801 -1.5214 -0.1596
  164SOPE   H2S18387   5.329  -0.082  10.316 -0.4224  0.2140 -1.6427
  164SOPE    C318388   4.948   0.183  10.232 -0.6863  0.0340 -0.3167
  164SOPE    HX18389   5.022   0.260  10.262 -0.4021  0.1870 -1.3845
  164SOPE    HY18390   4.846   0.225  10.247 -1.7800 -2.3246 -0.6788
  164SOPE   O3118391   4.998   0.157  10.102 -0.1321 -0.0451 -0.2593
  164SOPE   C3118392   4.903   0.104  10.024 -0.8626 -0.6026  0.2218
  164SOPE   O3218393   4.784   0.092  10.042 -0.3055  0.5003  0.3278
  164SOPE   C3218394   4.972   0.070   9.891  0.6444  0.0025 -0.3312
  164SOPE   H2X18395   4.911   0.002   9.828  1.1031 -1.9077  1.1941
  164SOPE   H2Y18396   5.061   0.011   9.921 -0.0311 -2.0261 -2.0755
  164SOPE   C2318397   5.308  -0.252  10.180 -0.1427 -0.4449  0.0679
  164SOPE   H3R18398   5.232  -0.329  10.154 -0.3896  0.2394 -1.3038
  164SOPE   H3S18399   5.404  -0.302  10.205  0.8003 -0.2728 -2.8435
  164SOPE   C2418400   5.342  -0.176  10.057 -0.2124  0.6681 -1.0064
  164SOPE   H4R18401   5.250  -0.132  10.013 -1.6697  0.7335  1.8667
  164SOPE   H4S18402   5.415  -0.097  10.085  0.6021 -0.4756  0.1898
  164SOPE   C2518403   5.402  -0.260   9.936  0.6139  0.7665 -0.5952
  164SOPE   H5R18404   5.498  -0.305   9.969  0.1646  0.6607  0.6286
  164SOPE   H5S18405   5.342  -0.349   9.907  1.1696  0.0303  0.4468
  164SOPE   C2618406   5.421  -0.160   9.816  0.1310 -0.3489 -0.6217
  164SOPE   H6R18407   5.321  -0.119   9.791  0.2478 -0.7270 -1.7271
  164SOPE   H6S18408   5.482  -0.075   9.856 -0.8197  0.0429  0.0410
  164SOPE   C2718409   5.492  -0.220   9.702  0.0728  0.2420 -0.0510
  164SOPE   H7R18410   5.520  -0.141   9.630 -0.7849  0.8664  0.2797
  164SOPE   H7S18411   5.581  -0.276   9.736 -0.1853  1.0245  2.0499
  164SOPE   C2818412   5.414  -0.333   9.620 -0.6233 -0.2867 -0.8239
  164SOPE   H8R18413   5.476  -0.370   9.535  0.7387 -2.2957  0.9627
  164SOPE   H8S18414   5.411  -0.424   9.683 -0.0156 -1.2695 -2.1552
  164SOPE   C2918415   5.283  -0.282   9.574  0.4882  0.2470 -0.0698
  164SOPE   H9118416   5.218  -0.240   9.653 -0.8397 -0.2640 -0.8599
  164SOPE  C21018417   5.232  -0.281   9.451  0.5367 -0.4316 -0.2664
  164SOPE  H10118418   5.130  -0.245   9.432  0.6805 -1.1860 -2.7834
  164SOPE  C21118419   5.285  -0.335   9.325 -1.0845 -0.1857  0.0271
  164SOPE  H11R18420   5.216  -0.401   9.269 -1.6434  0.8347 -0.5202
  164SOPE  H11S18421   5.376  -0.398   9.334 -0.7909  0.0358 -1.2675
  164SOPE  C21218422   5.337  -0.231   9.221 -0.1606 -0.3025 -0.6502
  164SOPE  H12R18423   5.434  -0.186   9.250 -0.0182  0.0875 -1.6756
  164SOPE  H12S18424   5.260  -0.151   9.213 -1.8418 -1.9168 -1.2222
  164SOPE  C21318425   5.339  -0.299   9.078  0.1132  0.1726 -0.1358
  164SOPE  H13R18426   5.240  -0.337   9.045  0.8289 -2.6047  0.6545
  164SOPE  H13S18427   5.414  -0.380   9.088 -1.2731 -1.0098  1.1638
  164SOPE  C21418428   5.393  -0.206   8.965  0.2198  0.2855 -0.1442
  164SOPE  H14R18429   5.408  -0.258   8.868 -1.0793  2.2617 -1.4602
  164SOPE  H14S18430   5.491  -0.179   9.009 -0.3769  2.3140  0.0180
  164SOPE  C21518431   5.313  -0.079   8.931  0.0752  0.2688 -0.0868
  164SOPE  H15R18432   5.281  -0.030   9.026 -2.6204 -1.3062 -0.0995
  164SOPE  H15S18433   5.216  -0.109   8.886  0.0238  1.1149 -0.5727
  164SOPE  C21618434   5.399   0.012   8.840  0.0030 -0.3221  0.0729
  164SOPE  H16R18435   5.323   0.072   8.786 -1.9002 -2.5780  0.0754
  164SOPE  H16S18436   5.440  -0.049   8.756  0.9199  0.9482 -0.4431
  164SOPE  C21718437   5.516   0.087   8.901 -0.8077 -0.5908 -0.5352
  164SOPE  H17R18438   5.585   0.019   8.956  0.6758 -0.4333 -2.1471
  164SOPE  H17S18439   5.491   0.168   8.973 -1.4881 -3.3941  2.6737
  164SOPE  C21818440   5.603   0.156   8.787  0.2854  0.4310 -0.1046
  164SOPE  H18R18441   5.548   0.245   8.752  0.8040  0.7369 -0.1493
  164SOPE  H18S18442   5.638   0.083   8.711  1.4413  1.4484 -0.5643
  164SOPE  H18T18443   5.693   0.205   8.830  0.0168  0.6876  0.1665
  164SOPE   C3318444   5.006   0.204   9.816  0.0663 -0.7441  0.4728
  164SOPE   H3X18445   5.068   0.171   9.729 -0.3315  0.7950 -0.4267
  164SOPE   H3Y18446   5.073   0.264   9.880  0.1685  0.6409 -0.8720
  164SOPE   C3418447   4.887   0.284   9.767 -0.1125 -0.2368  0.7216
  164SOPE   H4X18448   4.828   0.312   9.857  0.9271  1.0303  1.0442
  164SOPE   H4Y18449   4.828   0.222   9.696  0.5351  0.1872 -0.2031
  164SOPE   C3518450   4.921   0.415   9.689  0.3675 -0.0181 -0.5447
  164SOPE   H5X18451   4.977   0.481   9.758  3.9345 -0.1951 -2.9747
  164SOPE   H5Y18452   4.833   0.472   9.653  0.9865  1.4761  0.2174
  164SOPE   C3618453   5.021   0.396   9.567  0.0280 -0.2065 -0.1065
  164SOPE   H6X18454   5.126   0.388   9.602 -0.1267  0.6015  0.5812
  164SOPE   H6Y18455   5.027   0.495   9.517  2.0847 -0.1679  0.1296
  164SOPE   C3718456   4.985   0.299   9.458 -0.2078 -0.2133  0.5223
  164SOPE   H7X18457   4.874   0.296   9.452 -0.3558  1.6059  1.6098
  164SOPE   H7Y18458   5.016   0.196   9.487  1.6070 -0.0287 -0.6205
  164SOPE   C3818459   5.034   0.327   9.316 -0.0153 -0.5498  0.0375
  164SOPE   H8X18460   5.145   0.337   9.307 -0.1750  0.6451 -0.9368
  164SOPE   H8Y18461   4.995   0.426   9.283 -0.2239 -0.4723  0.5166
  164SOPE   C3918462   4.988   0.221   9.225  0.5691 -0.1647  0.2314
  164SOPE   H9X18463   4.892   0.172   9.253  0.6365 -1.2346 -1.2831
  164SOPE   H9Y18464   5.063   0.139   9.220 -0.9196 -1.5208 -1.3693
  164SOPE  C31018465   4.972   0.273   9.085 -0.0271  0.1932  0.1264
  164SOPE  H10X18466   4.909   0.364   9.079  0.9098  0.7822 -1.0817
  164SOPE  H10Y18467   4.935   0.197   9.013 -0.0854  0.9366 -0.6389
  164SOPE  C31118468   5.116   0.293   9.025 -0.5780  0.0953 -0.7260
  164SOPE  H11X18469   5.161   0.194   9.003  0.1337 -0.2110  1.7455
  164SOPE  H11Y18470   5.181   0.351   9.095 -0.7363  1.5640 -1.7519
  164SOPE  C31218471   5.098   0.377   8.895  0.2435  0.4763  0.2875
  164SOPE  H12X18472   5.031   0.461   8.925 -0.8408  0.4275 -1.7782
  164SOPE  H12Y18473   5.046   0.316   8.818 -2.9518  1.3810  1.5336
  164SOPE  C31318474   5.225   0.422   8.821  0.4486 -0.5861 -0.7761
  164SOPE  H13X18475   5.293   0.337   8.798 -0.8514 -1.3000 -2.1518
  164SOPE  H13Y18476   5.283   0.490   8.887  2.0756 -1.5982 -1.1168
  164SOPE  C31418477   5.205   0.495   8.691  0.0504 -0.3334  1.1213
  164SOPE  H14X18478   5.131   0.572   8.721 -0.3276 -0.4968  0.6181
  164SOPE  H14Y18479   5.153   0.435   8.613  0.7287 -1.6269  1.6408
  164SOPE  C31518480   5.341   0.551   8.638 -0.0577  0.0063  1.1175
  164SOPE  H15X18481   5.411   0.465   8.625 -1.8925 -1.6803  1.7554
  164SOPE  H15Y18482   5.387   0.621   8.711 -0.3835 -0.7257  2.0549
  164SOPE  C31618483   5.330   0.627   8.505 -0.0325 -0.2767 -0.5472
  164SOPE  H16X18484   5.248   0.700   8.513  0.3740  0.1240  0.0696
  164SOPE  H16Y18485   5.301   0.572   8.413  2.5467  0.0245 -1.6392
  164SOPE  C31718486   5.449   0.705   8.451 -0.0069 -0.9672  0.7372
  164SOPE  H17X18487   5.432   0.699   8.341  0.2185  0.2245  0.6176
  164SOPE  H17Y18488   5.541   0.643   8.458 -0.6795 -2.1800 -0.6431
  164SOPE  C31818489   5.472   0.841   8.524 -0.1200 -0.1661 -0.2696
  164SOPE  H18X18490   5.478   0.819   8.633 -0.4249  1.7434  0.1794
  164SOPE  H18Y18491   5.389   0.915   8.519  0.4576  0.4327 -1.7548
  164SOPE  H18Z18492   5.563   0.894   8.490  0.8577 -1.4338  0.3080
  165SOPE     N18493   5.025   2.629  11.028 -0.1481 -0.3501  0.2151
  165SOPE   HN118494   5.081   2.685  11.096 -0.5753  2.3178 -1.4810
  165SOPE   HN218495   5.029   2.526  11.038  0.4226 -0.6680 -2.5642
  165SOPE   HN318496   5.048   2.646  10.928  0.2786 -1.3788  0.1286
  165SOPE   C1218497   4.881   2.664  11.040 -0.4165 -0.2823  0.1926
  165SOPE  H12A18498   4.863   2.661  11.150  1.8216  1.3326  0.6745
  165SOPE  H12B18499   4.820   2.584  10.992 -2.6259  0.9969  0.6835
  165SOPE   C1118500   4.861   2.801  10.976  0.1407  0.2155  0.0089
  165SOPE  H11A18501   4.918   2.866  11.045  0.3420 -1.0139  1.0415
  165SOPE  H11B18502   4.755   2.834  10.982 -1.1489 -2.8719 -2.4763
  165SOPE     P18503   4.881   2.910  10.732  0.0442 -0.3096 -0.3290
  165SOPE   O1318504   4.923   3.041  10.785 -0.5929  0.2459 -0.2114
  165SOPE   O1418505   4.737   2.905  10.696 -0.5577  0.0476 -0.2476
  165SOPE   O1218506   4.915   2.800  10.843 -0.3537  0.0365  0.0598
  165SOPE   O1118507   4.978   2.868  10.613 -0.4392  0.2070  0.2914
  165SOPE    C118508   4.929   2.773  10.518  0.3894 -0.0073  0.2106
  165SOPE    HA18509   4.839   2.809  10.464  0.9097 -0.6869 -1.1856
  165SOPE    HB18510   4.908   2.677  10.570 -0.7012  0.5591  0.8313
  165SOPE    C218511   5.031   2.747  10.402 -0.1693  0.4152  0.8012
  165SOPE    HS18512   5.061   2.843  10.354  0.4677  0.2819  0.9276
  165SOPE   O2118513   4.975   2.648  10.312  0.1599  0.1541 -0.6165
  165SOPE   C2118514   4.878   2.699  10.229 -0.4220 -0.8131  0.4620
  165SOPE   O2218515   4.850   2.817  10.231 -0.2036  0.0073  0.2082
  165SOPE   C2218516   4.822   2.581  10.143 -0.0920  0.6420  0.1276
  165SOPE   H2R18517   4.757   2.523  10.212  0.5336  1.0664  1.0936
  165SOPE   H2S18518   4.909   2.514  10.126 -0.9011 -0.6923  1.0980
  165SOPE    C318519   5.155   2.675  10.461  0.9659  0.0343  0.3788
  165SOPE    HX18520   5.112   2.584  10.506  1.3514 -1.0896 -1.4156
  165SOPE    HY18521   5.206   2.730  10.543 -1.0056  1.1967  0.8727
  165SOPE   O3118522   5.250   2.631  10.363  0.4240 -0.6190  0.8614
  165SOPE   C3118523   5.331   2.721  10.308  0.0319 -0.1674 -0.4331
  165SOPE   O3218524   5.327   2.844  10.334 -0.2561  0.5953  0.0213
  165SOPE   C3218525   5.429   2.648  10.219  0.5247 -0.6506 -0.2632
  165SOPE   H2X18526   5.495   2.579  10.276  2.2204  0.9946 -0.1017
  165SOPE   H2Y18527   5.481   2.726  10.159 -1.1583  1.5019  0.8882
  165SOPE   C2318528   4.760   2.623  10.013 -0.3295  0.7971 -0.2696
  165SOPE   H3R18529   4.842   2.665   9.951 -0.8702  0.6403 -1.1010
  165SOPE   H3S18530   4.682   2.702  10.018  0.0627  1.1292  1.0596
  165SOPE   C2418531   4.699   2.515   9.920  0.2555  0.5575 -0.2820
  165SOPE   H4R18532   4.770   2.429   9.918 -1.0651 -0.5734 -0.3092
  165SOPE   H4S18533   4.603   2.476   9.959  0.3051 -1.8217 -2.2677
  165SOPE   C2518534   4.686   2.566   9.776 -0.2057  0.6339 -0.5632
  165SOPE   H5R18535   4.622   2.657   9.769 -2.4844 -0.8465  0.1457
  165SOPE   H5S18536   4.792   2.583   9.748  0.4313  1.3111  2.0708
  165SOPE   C2618537   4.634   2.455   9.682 -0.2530 -0.7466 -0.6125
  165SOPE   H6R18538   4.654   2.505   9.584  1.9891  0.2913  0.3176
  165SOPE   H6S18539   4.692   2.360   9.686  0.4251 -0.2881  2.4170
  165SOPE   C2718540   4.487   2.441   9.712  0.2581  0.2179 -0.2659
  165SOPE   H7R18541   4.466   2.390   9.808  2.3526  2.9337  1.8238
  165SOPE   H7S18542   4.442   2.543   9.718 -1.8062 -0.4769 -2.3738
  165SOPE   C2818543   4.402   2.356   9.616 -0.9997  0.0014  0.0692
  165SOPE   H8R18544   4.441   2.252   9.614 -0.4184  0.0634  3.0588
  165SOPE   H8S18545   4.300   2.339   9.658 -0.4089 -1.1993  1.0730
  165SOPE   C2918546   4.402   2.425   9.486  0.1658  0.0515  0.0729
  165SOPE   H9118547   4.402   2.535   9.492  0.8146  0.0185  1.0074
  165SOPE  C21018548   4.391   2.372   9.359 -0.0986  0.0515  0.0249
  165SOPE  H10118549   4.394   2.440   9.273  0.4262  0.6917  0.5412
  165SOPE  C21118550   4.373   2.224   9.335  0.2407  0.2630 -0.4648
  165SOPE  H11R18551   4.394   2.157   9.421 -0.4336  0.6079 -0.0172
  165SOPE  H11S18552   4.435   2.195   9.248 -0.3528  2.6701 -1.7772
  165SOPE  C21218553   4.226   2.198   9.286 -0.7847 -0.0998 -0.0728
  165SOPE  H12R18554   4.204   2.259   9.196  1.0437 -0.8758 -1.0886
  165SOPE  H12S18555   4.160   2.224   9.371 -1.2382  1.7683 -0.9310
  165SOPE  C21318556   4.208   2.042   9.247 -0.1587  0.1908  0.5860
  165SOPE  H13R18557   4.099   2.027   9.233  0.1628  0.2865 -3.3001
  165SOPE  H13S18558   4.235   1.971   9.328  0.4647 -0.9967 -0.6189
  165SOPE  C21418559   4.270   2.002   9.117 -0.3485 -0.3708 -0.2185
  165SOPE  H14R18560   4.229   1.908   9.076  0.1743 -0.2321 -1.0872
  165SOPE  H14S18561   4.371   1.967   9.148  0.2284  0.3571 -1.2104
  165SOPE  C21518562   4.284   2.107   9.006  0.2188 -0.7648  0.7305
  165SOPE  H15R18563   4.339   2.063   8.920 -1.6540 -1.1027 -0.3617
  165SOPE  H15S18564   4.343   2.188   9.053  0.0724 -0.0628 -0.2947
  165SOPE  C21618565   4.145   2.157   8.942 -0.6385  0.0432 -0.0994
  165SOPE  H16R18566   4.070   2.182   9.020 -1.0484  3.3063 -1.3704
  165SOPE  H16S18567   4.091   2.070   8.898 -1.8291  0.2385  0.9385
  165SOPE  C21718568   4.161   2.271   8.834 -0.1947 -0.4499  0.1990
  165SOPE  H17R18569   4.061   2.321   8.830  0.6010  1.2871  0.8278
  165SOPE  H17S18570   4.175   2.216   8.738 -1.4742 -0.5547  0.0506
  165SOPE  C21818571   4.274   2.376   8.849  0.0375  0.1535 -1.0849
  165SOPE  H18R18572   4.277   2.430   8.947  1.6208  0.3775 -1.2297
  165SOPE  H18S18573   4.266   2.454   8.770 -3.4962  0.4546 -0.5833
  165SOPE  H18T18574   4.372   2.330   8.825 -0.0128 -1.3411  1.2008
  165SOPE   C3318575   5.356   2.568  10.108 -0.2906  0.6405  0.9012
  165SOPE   H3X18576   5.249   2.555  10.136 -0.3075 -1.9876 -0.1362
  165SOPE   H3Y18577   5.395   2.466  10.090 -1.7607  0.3205 -0.6872
  165SOPE   C3418578   5.337   2.646   9.977 -0.3518 -0.3540  0.2389
  165SOPE   H4X18579   5.434   2.658   9.925 -0.6098  2.8676  0.2874
  165SOPE   H4Y18580   5.301   2.749   9.998  1.9475  0.7393 -0.8324
  165SOPE   C3518581   5.234   2.583   9.881 -0.4570  0.4413  0.1403
  165SOPE   H5X18582   5.133   2.620   9.912 -0.1695  0.7820  0.6754
  165SOPE   H5Y18583   5.250   2.473   9.876  1.4020  0.7391 -2.0260
  165SOPE   C3618584   5.236   2.641   9.739 -0.6570 -0.1368  0.2788
  165SOPE   H6X18585   5.332   2.621   9.686 -1.0209 -1.4206  0.0721
  165SOPE   H6Y18586   5.227   2.751   9.745  2.4667  0.2074  0.7132
  165SOPE   C3718587   5.129   2.565   9.642  0.0340 -0.2131  0.2210
  165SOPE   H7X18588   5.033   2.620   9.653  0.6029  0.8700 -0.1298
  165SOPE   H7Y18589   5.112   2.463   9.683  0.4066 -0.4704 -0.2550
  165SOPE   C3818590   5.180   2.548   9.497  0.5850 -0.5198 -0.5142
  165SOPE   H8X18591   5.286   2.516   9.501  1.4282  1.5457 -3.1159
  165SOPE   H8Y18592   5.197   2.649   9.453  1.2352 -0.5332 -0.3041
  165SOPE   C3918593   5.082   2.467   9.405 -0.1751  0.2889 -0.1512
  165SOPE   H9X18594   5.077   2.364   9.444 -3.9359  0.8816  1.3395
  165SOPE   H9Y18595   5.127   2.466   9.303 -0.6903  3.0946 -0.4842
  165SOPE  C31018596   4.944   2.526   9.388  1.2907  0.0714 -0.1200
  165SOPE  H10X18597   4.950   2.633   9.361 -2.5601  0.2824 -0.7390
  165SOPE  H10Y18598   4.891   2.515   9.485  0.5420 -0.6299 -0.5956
  165SOPE  C31118599   4.856   2.451   9.289 -0.0280 -0.5838 -0.4561
  165SOPE  H11X18600   4.751   2.455   9.326  0.2599 -1.2669  0.4808
  165SOPE  H11Y18601   4.908   2.353   9.298  2.6042  0.6045 -1.7850
  165SOPE  C31218602   4.875   2.499   9.151  0.7652 -0.4302  0.2028
  165SOPE  H12X18603   4.980   2.531   9.134 -0.2881  2.8386 -0.8810
  165SOPE  H12Y18604   4.811   2.589   9.141  2.8777  1.0465 -0.7675
  165SOPE  C31318605   4.802   2.412   9.051 -0.2481  0.2209 -0.3317
  165SOPE  H13X18606   4.695   2.398   9.077 -0.5612  0.5322 -1.3740
  165SOPE  H13Y18607   4.838   2.306   9.055 -0.3609  0.1727 -0.5367
  165SOPE  C31418608   4.801   2.471   8.902 -0.3320  0.2161 -0.5821
  165SOPE  H14X18609   4.902   2.481   8.856  0.8472  1.5293  2.0963
  165SOPE  H14Y18610   4.762   2.575   8.911  1.4147  0.8368  0.3285
  165SOPE  C31518611   4.709   2.393   8.810  0.6305  0.2966  0.2362
  165SOPE  H15X18612   4.609   2.396   8.858 -0.4955 -0.9151 -1.8869
  165SOPE  H15Y18613   4.746   2.289   8.798  1.4686  0.2043  2.8685
  165SOPE  C31618614   4.701   2.448   8.662 -0.4205 -0.1444 -0.4185
  165SOPE  H16X18615   4.806   2.474   8.637 -0.3391  1.8529  1.7328
  165SOPE  H16Y18616   4.659   2.550   8.659  2.9010  1.3664  0.3003
  165SOPE  C31718617   4.620   2.368   8.576  0.3800 -0.0258  0.0964
  165SOPE  H17X18618   4.512   2.368   8.601  0.2370  1.8615 -0.3878
  165SOPE  H17Y18619   4.651   2.264   8.598 -0.0466 -0.2924 -0.5298
  165SOPE  C31818620   4.643   2.405   8.429  0.6991 -0.2616  0.2259
  165SOPE  H18X18621   4.652   2.513   8.405 -1.7612 -0.5908 -2.9207
  165SOPE  H18Y18622   4.555   2.381   8.366  1.3366  0.9029 -1.1517
  165SOPE  H18Z18623   4.731   2.348   8.393 -0.2662 -0.7190 -1.5382
  166SOPE     N18624   2.348   0.283  10.883  0.7258 -0.1822  0.2681
  166SOPE   HN118625   2.408   0.331  10.953 -1.2529 -0.4763  2.2804
  166SOPE   HN218626   2.301   0.350  10.819 -1.6180 -3.6137 -1.9530
  166SOPE   HN318627   2.277   0.234  10.941  0.7607 -0.1713  0.3199
  166SOPE   C1218628   2.408   0.177  10.805 -0.1125 -0.0720 -0.2462
  166SOPE  H12A18629   2.416   0.093  10.877 -0.2715  1.4650  1.6507
  166SOPE  H12B18630   2.502   0.211  10.757 -0.9978 -1.3702 -3.1901
  166SOPE   C1118631   2.312   0.119  10.701 -0.6230 -0.5408  0.2409
  166SOPE  H11A18632   2.361   0.034  10.648 -0.1396  0.5700 -1.1592
  166SOPE  H11B18633   2.296   0.196  10.622  0.1886 -0.7905 -0.1803
  166SOPE     P18634   2.095  -0.026  10.697  0.4901  0.2914 -0.3360
  166SOPE   O1318635   1.960  -0.036  10.763 -0.9773 -0.2301  0.2028
  166SOPE   O1418636   2.172  -0.150  10.686 -0.2779  0.1428  0.2836
  166SOPE   O1218637   2.195   0.075  10.764 -0.4119 -0.2098 -0.4726
  166SOPE   O1118638   2.069   0.025  10.553  0.6966  0.1220 -0.2197
  166SOPE    C118639   2.008   0.150  10.517 -0.0151  0.2994  0.8120
  166SOPE    HA18640   2.085   0.221  10.479 -1.4585  1.0374 -0.8676
  166SOPE    HB18641   1.968   0.202  10.606  0.5722  1.5917  0.3611
  166SOPE    C218642   1.896   0.140  10.408 -0.2018  0.7343  0.4798
  166SOPE    HS18643   1.825   0.062  10.444 -0.8255  0.9211 -0.3050
  166SOPE   O2118644   1.963   0.097  10.286  0.2681  0.2865  0.1603
  166SOPE   C2118645   1.894   0.023  10.201 -0.2312  0.3310 -0.5745
  166SOPE   O2218646   1.781  -0.022  10.219  0.1241 -0.2131 -0.6179
  166SOPE   C2218647   1.966   0.032  10.060  0.4814 -0.1927 -0.8521
  166SOPE   H2R18648   2.068  -0.010  10.074  1.5008  1.4320 -2.8880
  166SOPE   H2S18649   1.988   0.140  10.045  3.0232 -0.1986  1.7717
  166SOPE    C318650   1.827   0.273  10.395  0.4227 -1.2160 -0.3242
  166SOPE    HX18651   1.908   0.346  10.373 -1.5526  1.8510  1.8469
  166SOPE    HY18652   1.788   0.304  10.494 -0.6124 -0.9024 -0.8226
  166SOPE   O3118653   1.720   0.265  10.302  0.3227  0.1184 -0.1486
  166SOPE   C3118654   1.733   0.332  10.191  0.0852 -0.1066 -0.4065
  166SOPE   O3218655   1.832   0.395  10.160  0.5056  0.5523 -0.2256
  166SOPE   C3218656   1.610   0.303  10.109 -0.0280  0.0193 -0.8134
  166SOPE   H2X18657   1.531   0.365  10.157  0.3505 -0.5650  0.6199
  166SOPE   H2Y18658   1.585   0.196  10.125  2.2406 -0.5222 -0.6363
  166SOPE   C2318659   1.881  -0.026   9.949  0.3055  0.0009  0.4816
  166SOPE   H3R18660   1.773   0.003   9.953  0.4357  0.5183  0.2857
  166SOPE   H3S18661   1.900  -0.135   9.960 -0.4347 -0.1086  0.7204
  166SOPE   C2418662   1.939   0.028   9.813  0.1702 -0.9582  0.1650
  166SOPE   H4R18663   1.932   0.138   9.824  0.5301 -1.0767  2.0011
  166SOPE   H4S18664   2.046   0.001   9.803 -0.5869 -4.4975  0.1117
  166SOPE   C2518665   1.864  -0.033   9.691 -0.5335 -0.6084  0.2596
  166SOPE   H5R18666   1.900  -0.133   9.658 -0.6552 -0.0900 -1.5437
  166SOPE   H5S18667   1.758  -0.041   9.725 -0.1805  0.5123  1.7204
  166SOPE   C2618668   1.865   0.067   9.575  0.2395  0.0633 -0.4096
  166SOPE   H6R18669   1.799   0.023   9.497 -0.6403 -0.0252  0.3615
  166SOPE   H6S18670   1.829   0.166   9.610  1.0955  0.3180 -0.2226
  166SOPE   C2718671   2.002   0.085   9.500  0.6997 -0.2874 -0.6144
  166SOPE   H7R18672   2.074   0.130   9.572  0.1485 -0.9509  0.3595
  166SOPE   H7S18673   2.045  -0.015   9.482  2.7671 -0.0074  2.0648
  166SOPE   C2818674   1.989   0.173   9.375 -0.1022  0.1467 -0.0045
  166SOPE   H8R18675   1.912   0.137   9.303  0.7729 -0.8892 -0.4598
  166SOPE   H8S18676   1.967   0.277   9.407 -1.0253  0.1360 -0.5839
  166SOPE   C2918677   2.114   0.180   9.285  0.7963  0.6222 -0.3878
  166SOPE   H9118678   2.208   0.156   9.336  0.2127 -0.4074  0.2363
  166SOPE  C21018679   2.127   0.208   9.151  0.5896  0.4416  0.4012
  166SOPE  H10118680   2.226   0.202   9.103 -0.4860  0.4519 -1.9857
  166SOPE  C21118681   2.018   0.249   9.056 -0.6621  0.1576 -0.0838
  166SOPE  H11R18682   2.046   0.346   9.009  1.3272  0.6077  1.8698
  166SOPE  H11S18683   1.918   0.259   9.103 -0.6862  3.0508 -0.5546
  166SOPE  C21218684   2.003   0.137   8.943  0.2262  0.0709 -0.6242
  166SOPE  H12R18685   1.980   0.036   8.984  0.9379  0.0592 -0.2434
  166SOPE  H12S18686   2.092   0.124   8.878 -0.4493 -0.4432 -1.4648
  166SOPE  C21318687   1.891   0.169   8.841 -0.0778  0.1411  0.7476
  166SOPE  H13R18688   1.923   0.242   8.763  1.9894  1.2283  2.5056
  166SOPE  H13S18689   1.814   0.216   8.907 -0.1537 -0.1757  0.8880
  166SOPE  C21418690   1.828   0.050   8.776  0.1297  0.3397 -0.0015
  166SOPE  H14R18691   1.749   0.089   8.708  1.5041  3.4723  0.0468
  166SOPE  H14S18692   1.773  -0.017   8.845  0.0447 -0.2200 -0.6056
  166SOPE  C21518693   1.927  -0.031   8.697 -0.7340 -0.2027  0.6136
  166SOPE  H15R18694   1.994  -0.088   8.766  0.5335 -1.7216 -1.7273
  166SOPE  H15S18695   2.001   0.027   8.638 -0.2023 -2.1752 -0.7626
  166SOPE  C21618696   1.857  -0.138   8.610 -0.2215 -0.6024  0.9218
  166SOPE  H16R18697   1.767  -0.183   8.658 -0.9556  0.6868  0.7975
  166SOPE  H16S18698   1.926  -0.223   8.593  0.1453  0.0948 -1.4950
  166SOPE  C21718699   1.820  -0.073   8.473  0.4866  0.0732  0.2052
  166SOPE  H17R18700   1.922  -0.056   8.432  0.2059  0.6844 -0.2584
  166SOPE  H17S18701   1.783   0.032   8.467 -0.5592 -0.1948  1.4023
  166SOPE  C21818702   1.739  -0.163   8.378 -0.1919 -0.0124  0.0068
  166SOPE  H18R18703   1.747  -0.119   8.277 -0.0110  0.3547  0.1802
  166SOPE  H18S18704   1.637  -0.182   8.419 -0.2435  0.2289 -0.0110
  166SOPE  H18T18705   1.799  -0.256   8.368  1.2790  0.8852  0.1520
  166SOPE   C3318706   1.625   0.331   9.960 -0.7737  0.6660 -0.6417
  166SOPE   H3X18707   1.715   0.285   9.915 -1.8599 -3.4980  0.9499
  166SOPE   H3Y18708   1.627   0.442   9.952 -2.2538  0.7231 -0.5011
  166SOPE   C3418709   1.505   0.294   9.883 -0.2516  0.3329  0.1897
  166SOPE   H4X18710   1.491   0.378   9.813 -1.8196 -0.2524 -0.2280
  166SOPE   H4Y18711   1.424   0.295   9.959 -0.9322 -0.8390 -0.4922
  166SOPE   C3518712   1.502   0.155   9.813  0.3018  0.0312  0.0854
  166SOPE   H5X18713   1.605   0.134   9.776  0.8698 -0.0911  1.6859
  166SOPE   H5Y18714   1.432   0.169   9.728 -0.7164 -0.1425  0.8816
  166SOPE   C3618715   1.442   0.040   9.899 -0.4587  0.1200  0.1030
  166SOPE   H6X18716   1.331   0.039   9.899 -0.4715 -1.3175  0.7785
  166SOPE   H6Y18717   1.472   0.058  10.004 -0.6808  0.5383  0.0958
  166SOPE   C3718718   1.489  -0.100   9.853 -0.5662  0.1099  0.7438
  166SOPE   H7X18719   1.456  -0.172   9.931  0.8209 -3.2193 -1.5190
  166SOPE   H7Y18720   1.599  -0.113   9.852 -0.5556  0.2084  0.5256
  166SOPE   C3818721   1.419  -0.123   9.719 -0.0753 -0.2581  0.2325
  166SOPE   H8X18722   1.454  -0.062   9.633  0.5216 -2.0825 -0.8900
  166SOPE   H8Y18723   1.310  -0.129   9.738  0.2129  0.8262  2.6612
  166SOPE   C3918724   1.445  -0.270   9.681 -0.7010 -0.1388  0.0519
  166SOPE   H9X18725   1.407  -0.321   9.772  2.0030  0.9612  1.9211
  166SOPE   H9Y18726   1.556  -0.277   9.677 -0.6930  0.3908 -1.7279
  166SOPE  C31018727   1.392  -0.304   9.546  0.1802 -0.2078  0.7783
  166SOPE  H10X18728   1.460  -0.380   9.500  0.4306  0.7622 -0.5286
  166SOPE  H10Y18729   1.394  -0.218   9.476  1.2198 -0.5594  0.3420
  166SOPE  C31118730   1.249  -0.361   9.554  0.1187  0.2571 -0.0179
  166SOPE  H11X18731   1.189  -0.308   9.631  2.5622 -0.8105  2.8414
  166SOPE  H11Y18732   1.259  -0.465   9.593 -0.3900  0.1313 -0.2262
  166SOPE  C31218733   1.172  -0.368   9.424 -0.5908 -0.6834  0.1685
  166SOPE  H12X18734   1.227  -0.432   9.352 -1.2228 -0.5053 -0.4842
  166SOPE  H12Y18735   1.174  -0.269   9.373  3.7746 -1.5873 -1.9294
  166SOPE  C31318736   1.031  -0.427   9.429  0.2109  0.5334 -0.1613
  166SOPE  H13X18737   0.972  -0.349   9.483  0.4241  0.7989 -0.3075
  166SOPE  H13Y18738   1.049  -0.521   9.484 -1.1656  1.0039  1.1940
  166SOPE  C31418739   0.969  -0.451   9.290  0.5546 -0.1736  0.3355
  166SOPE  H14X18740   0.883  -0.520   9.299 -1.5228  2.2741  0.4754
  166SOPE  H14Y18741   1.047  -0.497   9.226  1.8832  2.2966  0.0617
  166SOPE  C31518742   0.922  -0.323   9.226  0.1674 -1.2053  0.0778
  166SOPE  H15X18743   1.010  -0.261   9.197 -0.0988  0.3814  2.3682
  166SOPE  H15Y18744   0.872  -0.257   9.301  1.0745  2.3821 -2.2320
  166SOPE  C31618745   0.830  -0.335   9.103 -0.8787  0.1001 -0.8375
  166SOPE  H16X18746   0.786  -0.234   9.094 -1.6941 -0.2365 -0.7083
  166SOPE  H16Y18747   0.754  -0.413   9.127 -0.2327  0.2419  1.9651
  166SOPE  C31718748   0.899  -0.368   8.972  0.2799  0.8014  0.5240
  166SOPE  H17X18749   0.928  -0.475   8.967  0.9908  1.0375 -1.3680
  166SOPE  H17Y18750   0.993  -0.308   8.970  0.2814  0.8221  1.1427
  166SOPE  C31818751   0.818  -0.342   8.841  1.0057  0.0426 -0.0751
  166SOPE  H18X18752   0.730  -0.410   8.841 -0.8205  2.2604  0.7357
  166SOPE  H18Y18753   0.876  -0.365   8.749  0.2739  1.4729 -0.9245
  166SOPE  H18Z18754   0.792  -0.234   8.838  1.8386  0.2407 -0.3076
  167SOPE     N18755   3.441   5.912   6.078 -0.2531 -0.3146  0.4767
  167SOPE   HN118756   3.365   5.938   6.144 -0.1926 -1.1831  0.9007
  167SOPE   HN218757   3.524   5.941   6.133 -1.5202  0.9979  1.7998
  167SOPE   HN318758   3.434   5.964   5.988 -1.2846  0.9629  1.2578
  167SOPE   C1218759   3.446   5.765   6.052  0.3495  0.0831  0.5150
  167SOPE  H12A18760   3.368   5.754   5.973  1.1893  0.4404 -0.3886
  167SOPE  H12B18761   3.432   5.718   6.151 -3.1302 -0.9391 -0.3157
  167SOPE   C1118762   3.575   5.715   5.987  0.0289  0.5748 -0.6414
  167SOPE  H11A18763   3.590   5.770   5.891 -3.8706 -0.0989 -1.8364
  167SOPE  H11B18764   3.572   5.605   5.971 -1.8574 -0.4452  4.7517
  167SOPE     P18765   3.775   5.864   6.073 -0.4874  0.3201  0.0952
  167SOPE   O1318766   3.707   5.971   6.151  0.4350 -0.5420  0.1313
  167SOPE   O1418767   3.810   5.898   5.932  0.9451  0.0906 -0.5462
  167SOPE   O1218768   3.682   5.732   6.076  0.1935  0.3620  0.1924
  167SOPE   O1118769   3.906   5.826   6.159 -0.4213  0.2332  0.7131
  167SOPE    C118770   3.954   5.689   6.149 -0.2449  1.0292  0.4414
  167SOPE    HA18771   4.042   5.683   6.082 -1.9466 -0.5227 -1.8261
  167SOPE    HB18772   3.884   5.611   6.113 -1.2442  1.0045  2.2841
  167SOPE    C218773   4.002   5.640   6.289 -0.9142  0.3664  0.1981
  167SOPE    HS18774   4.063   5.549   6.273 -1.6736  0.1508 -1.6481
  167SOPE   O2118775   3.889   5.611   6.360 -0.4631 -0.2715  0.4149
  167SOPE   C2118776   3.900   5.543   6.469 -0.5802 -0.0453  0.1068
  167SOPE   O2218777   3.995   5.475   6.505 -0.1612 -0.6805 -0.0700
  167SOPE   C2218778   3.770   5.548   6.545 -0.0742 -0.6825  0.3535
  167SOPE   H2R18779   3.691   5.540   6.467 -1.2690  2.3745  1.0788
  167SOPE   H2S18780   3.759   5.645   6.598  0.2208 -0.3979 -0.0956
  167SOPE    C318781   4.098   5.742   6.359  0.1787  0.0622  0.5609
  167SOPE    HX18782   4.037   5.832   6.382  0.8260  0.1659  1.9527
  167SOPE    HY18783   4.166   5.777   6.277 -1.3888 -1.1115 -1.3206
  167SOPE   O3118784   4.154   5.682   6.477 -0.4439 -0.2038 -0.0669
  167SOPE   C3118785   4.273   5.620   6.454  0.3266 -0.7656 -0.1213
  167SOPE   O3218786   4.319   5.613   6.338 -0.1084 -0.2647 -0.0334
  167SOPE   C3218787   4.339   5.573   6.577 -0.0112 -0.0418  0.8411
  167SOPE   H2X18788   4.283   5.485   6.614  0.0889  0.0909  1.3156
  167SOPE   H2Y18789   4.344   5.651   6.657 -2.7667  1.5699 -0.4323
  167SOPE   C2318790   3.743   5.451   6.662 -0.0429 -0.4377 -0.0521
  167SOPE   H3R18791   3.799   5.357   6.645 -1.7044 -1.3421 -0.6392
  167SOPE   H3S18792   3.633   5.444   6.668  0.0702 -1.1629  1.6726
  167SOPE   C2418793   3.791   5.508   6.791 -0.1636 -0.5185 -0.3369
  167SOPE   H4R18794   3.899   5.532   6.790 -1.1770  5.9612  0.9416
  167SOPE   H4S18795   3.754   5.611   6.811  1.5560  0.3685 -1.5052
  167SOPE   C2518796   3.750   5.417   6.909 -0.2458 -0.2746  0.1080
  167SOPE   H5R18797   3.640   5.405   6.917 -0.3695  1.3680  1.5199
  167SOPE   H5S18798   3.792   5.318   6.881 -1.8616 -0.4804 -1.7510
  167SOPE   C2618799   3.799   5.463   7.046  0.4627 -0.9237  0.2630
  167SOPE   H6R18800   3.905   5.493   7.034 -0.2188  1.3517 -0.5471
  167SOPE   H6S18801   3.734   5.549   7.071 -1.1509 -1.4486 -1.7976
  167SOPE   C2718802   3.773   5.370   7.161  0.3271  0.1233  0.0562
  167SOPE   H7R18803   3.665   5.356   7.180  0.9672 -1.8395  2.8110
  167SOPE   H7S18804   3.818   5.270   7.142  1.6346  0.5416  0.8490
  167SOPE   C2818805   3.834   5.430   7.291  0.4691  0.1625  0.2399
  167SOPE   H8R18806   3.945   5.435   7.280  0.6397 -1.8739  0.6111
  167SOPE   H8S18807   3.794   5.533   7.300  1.7754  0.6090  1.3564
  167SOPE   C2918808   3.797   5.347   7.408  0.1266 -0.0952 -0.8382
  167SOPE   H9118809   3.817   5.241   7.388 -1.5091 -0.3511 -1.2230
  167SOPE  C21018810   3.748   5.386   7.525  0.0247  0.2418  0.1848
  167SOPE  H10118811   3.702   5.302   7.579 -2.7574 -1.2546 -3.9652
  167SOPE  C21118812   3.717   5.529   7.573  0.0944 -0.3194 -0.1872
  167SOPE  H11R18813   3.610   5.535   7.605 -0.0523  0.4099 -0.8060
  167SOPE  H11S18814   3.725   5.598   7.487 -1.4282 -0.7484 -0.7123
  167SOPE  C21218815   3.813   5.575   7.688 -0.3386  0.7844  0.4363
  167SOPE  H12R18816   3.911   5.564   7.636 -0.2327 -0.9660  0.9323
  167SOPE  H12S18817   3.816   5.507   7.776  0.5524  1.4691  0.9547
  167SOPE  C21318818   3.775   5.712   7.749 -0.1798  0.3543  0.4167
  167SOPE  H13R18819   3.670   5.704   7.782 -0.3849  0.2044 -0.2754
  167SOPE  H13S18820   3.796   5.790   7.673  0.0859 -0.4917 -0.3848
  167SOPE  C21418821   3.844   5.736   7.888 -0.9337 -0.5753 -0.3197
  167SOPE  H14R18822   3.954   5.735   7.869 -1.0524 -0.8298 -1.0198
  167SOPE  H14S18823   3.819   5.646   7.947 -1.4185 -0.1550  0.1251
  167SOPE  C21518824   3.791   5.862   7.960 -0.1080 -0.3096 -0.4834
  167SOPE  H15R18825   3.683   5.838   7.970  0.1216 -0.5903  1.6984
  167SOPE  H15S18826   3.797   5.957   7.903 -0.0659  0.1322  0.2421
  167SOPE  C21618827   3.851   5.880   8.101 -1.0867  0.4086 -0.3411
  167SOPE  H16R18828   3.847   5.780   8.150 -0.2862 -0.4760 -2.0021
  167SOPE  H16S18829   3.793   5.949   8.166  0.6515 -0.3206  2.1434
  167SOPE  C21718830   3.986   5.949   8.120  0.2062 -0.0161  0.6644
  167SOPE  H17R18831   3.978   6.060   8.117  0.3786 -0.0134 -0.5686
  167SOPE  H17S18832   4.061   5.925   8.041  0.2669  1.1148  0.3606
  167SOPE  C21818833   4.045   5.920   8.258  0.0218  0.7176  0.6132
  167SOPE  H18R18834   4.144   5.965   8.279  0.8633  0.0961 -1.6987
  167SOPE  H18S18835   4.037   5.812   8.284 -0.9145  0.2576 -1.3814
  167SOPE  H18T18836   3.971   5.962   8.330  0.1198  1.4653  0.2877
  167SOPE   C3318837   4.485   5.534   6.558  0.6786 -0.5227  0.0858
  167SOPE   H3X18838   4.541   5.594   6.484  0.8966 -0.1088  0.5802
  167SOPE   H3Y18839   4.495   5.427   6.529 -2.3563 -1.1052  0.7935
  167SOPE   C3418840   4.575   5.556   6.686 -0.2753 -0.1787  0.0171
  167SOPE   H4X18841   4.566   5.665   6.710  0.7445 -0.0770 -0.0081
  167SOPE   H4Y18842   4.679   5.522   6.667 -0.9707 -2.7658  0.5591
  167SOPE   C3518843   4.527   5.475   6.812  0.1473 -0.5506 -0.0891
  167SOPE   H5X18844   4.518   5.366   6.795  1.2676 -0.4280 -1.7379
  167SOPE   H5Y18845   4.428   5.515   6.842  0.3679 -0.2363  0.2365
  167SOPE   C3618846   4.625   5.507   6.926 -0.1061  0.2937 -0.5011
  167SOPE   H6X18847   4.667   5.609   6.914  0.2480  0.0558 -1.3287
  167SOPE   H6Y18848   4.707   5.433   6.928 -0.9020 -0.5900 -0.0504
  167SOPE   C3718849   4.561   5.502   7.062 -0.3451 -0.2304  0.2134
  167SOPE   H7X18850   4.504   5.407   7.064 -4.0836  1.6205 -3.5437
  167SOPE   H7Y18851   4.488   5.584   7.079 -0.9747 -0.9956  1.3425
  167SOPE   C3818852   4.648   5.500   7.189 -0.1121  0.3033 -0.3439
  167SOPE   H8X18853   4.711   5.592   7.194  0.1284  0.1849 -1.1209
  167SOPE   H8Y18854   4.717   5.416   7.168 -0.8255 -0.2826 -0.3504
  167SOPE   C3918855   4.575   5.473   7.326  0.6026 -0.1972 -0.4002
  167SOPE   H9X18856   4.529   5.371   7.326 -1.7861  0.8083 -1.4828
  167SOPE   H9Y18857   4.492   5.545   7.336 -0.1129 -1.2026  1.2480
  167SOPE  C31018858   4.675   5.488   7.437 -0.2965 -0.0883  0.5372
  167SOPE  H10X18859   4.737   5.577   7.412  0.1682 -0.5131  0.1611
  167SOPE  H10Y18860   4.750   5.407   7.427  1.2509  1.3935 -0.3341
  167SOPE  C31118861   4.602   5.508   7.579 -0.3416 -0.0816 -0.0355
  167SOPE  H11X18862   4.526   5.427   7.582 -1.9586  1.2758 -1.9656
  167SOPE  H11Y18863   4.543   5.601   7.571  1.1723  0.9757  0.6433
  167SOPE  C31218864   4.704   5.527   7.687 -0.0146  0.2095  0.7190
  167SOPE  H12X18865   4.773   5.607   7.654  0.3453 -0.0598  0.8214
  167SOPE  H12Y18866   4.768   5.436   7.695 -0.9880 -0.4975  0.7549
  167SOPE  C31318867   4.651   5.562   7.824 -0.3670 -0.3082  0.2725
  167SOPE  H13X18868   4.581   5.485   7.861 -1.2110  0.2893 -0.0441
  167SOPE  H13Y18869   4.587   5.653   7.821 -0.5830 -0.4487  0.6007
  167SOPE  C31418870   4.770   5.580   7.921 -0.2241  0.5145  0.4877
  167SOPE  H14X18871   4.830   5.671   7.899 -1.0894  0.7350 -1.0882
  167SOPE  H14Y18872   4.845   5.500   7.901 -0.8336  0.1543 -0.4203
  167SOPE  C31518873   4.713   5.583   8.063 -0.7602 -0.6363  0.3066
  167SOPE  H15X18874   4.651   5.496   8.092 -0.1339 -0.3302  2.7995
  167SOPE  H15Y18875   4.654   5.677   8.063 -0.7037 -0.5987  0.0014
  167SOPE  C31618876   4.817   5.585   8.179 -0.2988  1.0093  0.6361
  167SOPE  H16X18877   4.893   5.661   8.149 -1.7866  1.8381 -1.2908
  167SOPE  H16Y18878   4.869   5.487   8.183  1.1073  1.4866 -2.7047
  167SOPE  C31718879   4.750   5.608   8.314 -0.7468  0.6060  0.1473
  167SOPE  H17X18880   4.672   5.529   8.326 -0.9022  0.9643  1.6754
  167SOPE  H17Y18881   4.693   5.703   8.320 -1.7223 -0.0317  1.4418
  167SOPE  C31818882   4.850   5.605   8.429  0.7928 -0.3583 -0.7525
  167SOPE  H18X18883   4.800   5.609   8.528 -0.2920 -3.1102 -1.1211
  167SOPE  H18Y18884   4.926   5.684   8.408  1.9815 -1.0322  0.8175
  167SOPE  H18Z18885   4.900   5.506   8.424 -0.0663 -0.9334  1.2411
  168SOPE     N18886   2.091   2.852   6.525  0.4186 -0.4952  0.1269
  168SOPE   HN118887   2.033   2.928   6.483 -0.3943 -1.3129 -0.2796
  168SOPE   HN218888   2.112   2.876   6.623  1.5079 -0.5526 -0.0833
  168SOPE   HN318889   2.181   2.845   6.472  1.6175  2.0274  1.6752
  168SOPE   C1218890   2.013   2.719   6.512 -1.1470  0.1946  0.0737
  168SOPE  H12A18891   1.968   2.713   6.411  1.2351  1.4381 -1.1430
  168SOPE  H12B18892   1.942   2.714   6.597 -0.8931  0.3605  0.2984
  168SOPE   C1118893   2.123   2.601   6.531 -0.3299 -0.3818  0.6628
  168SOPE  H11A18894   2.070   2.504   6.526 -2.1915  0.6429 -1.5669
  168SOPE  H11B18895   2.159   2.623   6.634  0.1576  1.5271  0.1173
  168SOPE     P18896   2.369   2.642   6.433 -0.2134 -0.0902 -0.0658
  168SOPE   O1318897   2.388   2.778   6.478 -0.0468 -0.0022  0.1438
  168SOPE   O1418898   2.435   2.599   6.299  0.5231  0.1796  0.4824
  168SOPE   O1218899   2.216   2.610   6.424 -0.1560 -0.6883  0.5622
  168SOPE   O1118900   2.412   2.538   6.550  0.3457 -0.2351 -0.2104
  168SOPE    C118901   2.442   2.405   6.525 -0.6828  0.2033 -0.8069
  168SOPE    HA18902   2.524   2.393   6.451  0.5487  0.1116  0.5415
  168SOPE    HB18903   2.352   2.356   6.482 -0.8896 -0.6052  0.5090
  168SOPE    C218904   2.489   2.335   6.660  0.9799 -0.3407  0.9184
  168SOPE    HS18905   2.506   2.227   6.641  0.4576 -0.2688  0.0173
  168SOPE   O2118906   2.382   2.364   6.749 -0.1609  1.0936 -0.2119
  168SOPE   C2118907   2.263   2.302   6.737 -1.5368  0.0331  0.6183
  168SOPE   O2218908   2.232   2.229   6.639  0.3158 -0.5358  0.7609
  168SOPE   C2218909   2.171   2.340   6.845 -0.6318  0.6666 -0.3837
  168SOPE   H2R18910   2.126   2.438   6.822 -1.1799  0.3515 -0.6825
  168SOPE   H2S18911   2.226   2.347   6.941 -3.2386 -2.3897  1.5442
  168SOPE    C318912   2.616   2.404   6.713  0.1872 -0.2265  0.1057
  168SOPE    HX18913   2.597   2.513   6.720 -0.5804 -0.4057  1.0586
  168SOPE    HY18914   2.691   2.388   6.633  0.4177  0.6869  0.1217
  168SOPE   O3118915   2.661   2.342   6.845 -0.3220 -0.4216 -0.1816
  168SOPE   C3118916   2.608   2.403   6.950 -0.0507  0.0547  0.5742
  168SOPE   O3218917   2.517   2.486   6.948  0.0499  0.8166 -0.6310
  168SOPE   C3218918   2.669   2.348   7.076  0.5687 -0.2013 -0.1803
  168SOPE   H2X18919   2.759   2.413   7.087  0.4258  0.0395 -0.4228
  168SOPE   H2Y18920   2.688   2.241   7.055 -1.2863 -0.4622 -0.6774
  168SOPE   C2318921   2.058   2.233   6.864  0.1253  0.4396 -0.0132
  168SOPE   H3R18922   1.998   2.229   6.771 -0.6585  2.6262  0.3243
  168SOPE   H3S18923   1.987   2.283   6.935 -0.2335 -0.9056  0.6017
  168SOPE   C2418924   2.100   2.095   6.913  0.3027  0.3330  0.8112
  168SOPE   H4R18925   2.012   2.028   6.915  1.9103 -1.9357  3.0418
  168SOPE   H4S18926   2.167   2.060   6.831  1.2117 -0.4644  1.8464
  168SOPE   C2518927   2.172   2.085   7.053 -0.2343  0.5852 -0.8828
  168SOPE   H5R18928   2.229   1.989   7.059 -0.3927  0.5745  1.1905
  168SOPE   H5S18929   2.253   2.158   7.037 -0.9674  1.4347 -0.7915
  168SOPE   C2618930   2.080   2.098   7.177  0.1395 -0.6770  0.0380
  168SOPE   H6R18931   2.018   2.189   7.164  0.3263 -0.3450  1.3469
  168SOPE   H6S18932   2.008   2.015   7.190 -0.7037  0.2777  1.8203
  168SOPE   C2718933   2.167   2.098   7.305  0.3153  0.5332 -0.2397
  168SOPE   H7R18934   2.217   1.999   7.308 -1.7815 -0.5876 -0.2950
  168SOPE   H7S18935   2.244   2.178   7.303  0.7002  0.1809  0.2114
  168SOPE   C2818936   2.097   2.101   7.442 -0.7824 -0.3949  0.8858
  168SOPE   H8R18937   2.023   2.020   7.463 -2.2076  0.1579 -1.6035
  168SOPE   H8S18938   2.178   2.081   7.516  0.7992  0.9687 -0.3998
  168SOPE   C2918939   2.030   2.227   7.475  0.5305 -0.4665  0.2003
  168SOPE   H9118940   1.940   2.242   7.415  1.1247 -1.9978 -1.1126
  168SOPE  C21018941   2.049   2.313   7.576 -1.3497  0.0449  0.1295
  168SOPE  H10118942   1.983   2.400   7.567 -0.2320  0.7885 -1.2537
  168SOPE  C21118943   2.147   2.302   7.691 -1.1390  0.1735 -0.1892
  168SOPE  H11R18944   2.234   2.369   7.675 -1.4089  0.9261  1.3693
  168SOPE  H11S18945   2.194   2.201   7.695  0.2232  0.8296  1.4388
  168SOPE  C21218946   2.090   2.330   7.835 -0.2009 -0.0496 -0.8520
  168SOPE  H12R18947   2.034   2.238   7.862  1.9513 -0.8115  1.4235
  168SOPE  H12S18948   2.019   2.415   7.833  2.3287  2.3694  2.1403
  168SOPE  C21318949   2.207   2.350   7.929  0.0729  0.2969 -0.6500
  168SOPE  H13R18950   2.169   2.387   8.027  0.8826  0.3880 -0.3672
  168SOPE  H13S18951   2.270   2.425   7.876 -0.7860  1.4051 -0.1572
  168SOPE  C21418952   2.297   2.222   7.948  0.5152  0.9970  0.2299
  168SOPE  H14R18953   2.375   2.254   8.020  0.9626 -0.6285  0.5042
  168SOPE  H14S18954   2.345   2.196   7.852 -2.1866 -2.0415 -0.4990
  168SOPE  C21518955   2.221   2.104   8.003  0.7785  0.2682 -0.1528
  168SOPE  H15R18956   2.143   2.081   7.927  0.4167  0.6631  0.0993
  168SOPE  H15S18957   2.171   2.129   8.099 -0.2007 -0.5717 -0.4306
  168SOPE  C21618958   2.309   1.975   8.042  0.1701 -0.3023  0.0055
  168SOPE  H16R18959   2.250   1.901   8.100  0.5089  0.1366  0.9249
  168SOPE  H16S18960   2.382   2.015   8.115 -0.3771  1.8757 -0.5705
  168SOPE  C21718961   2.391   1.918   7.923  0.1923  0.0835 -0.2600
  168SOPE  H17R18962   2.436   1.820   7.949 -0.8583 -0.7858 -1.5597
  168SOPE  H17S18963   2.468   1.997   7.911 -1.4324  1.7763  0.1085
  168SOPE  C21818964   2.316   1.904   7.787 -0.0448  0.0712 -0.3150
  168SOPE  H18R18965   2.365   1.853   7.701 -2.5588 -1.7658 -0.7517
  168SOPE  H18S18966   2.291   2.006   7.748  0.6341  0.3038 -0.1586
  168SOPE  H18T18967   2.218   1.854   7.802  0.8246 -2.0027 -1.1173
  168SOPE   C3318968   2.575   2.369   7.197  1.2521 -0.2689  0.7942
  168SOPE   H3X18969   2.487   2.304   7.180  0.1362  0.3265  3.6927
  168SOPE   H3Y18970   2.529   2.469   7.179  1.9493 -0.2530 -1.2235
  168SOPE   C3418971   2.635   2.337   7.330  0.4713 -0.3740 -0.6691
  168SOPE   H4X18972   2.669   2.436   7.368 -2.4378  0.1886  0.7657
  168SOPE   H4Y18973   2.726   2.277   7.311  1.3058  0.7282 -0.2674
  168SOPE   C3518974   2.531   2.277   7.433 -0.0811 -0.5901 -0.5618
  168SOPE   H5X18975   2.477   2.191   7.386 -0.0406 -0.7830 -0.2593
  168SOPE   H5Y18976   2.460   2.357   7.463  0.5811  0.0551 -0.6950
  168SOPE   C3618977   2.598   2.230   7.569  0.2556 -0.5463  0.6034
  168SOPE   H6X18978   2.683   2.166   7.536  2.0856  1.4079  1.2940
  168SOPE   H6Y18979   2.514   2.181   7.622 -0.7069  2.9140  2.5651
  168SOPE   C3718980   2.656   2.335   7.660 -0.2769 -0.3440 -0.4701
  168SOPE   H7X18981   2.569   2.370   7.718 -0.3145 -1.7188  0.3435
  168SOPE   H7Y18982   2.690   2.428   7.609  0.5168  0.1841  0.9703
  168SOPE   C3818983   2.757   2.277   7.759  0.3012 -0.1258 -0.1949
  168SOPE   H8X18984   2.799   2.354   7.827  1.2646  0.2395 -1.1764
  168SOPE   H8Y18985   2.848   2.236   7.710  2.1204  1.7813  1.4011
  168SOPE   C3918986   2.696   2.165   7.850 -0.0162 -0.0076 -0.3302
  168SOPE   H9X18987   2.647   2.081   7.796  0.2464  0.4607 -1.3227
  168SOPE   H9Y18988   2.619   2.204   7.920 -1.4254  0.4420 -2.0657
  168SOPE  C31018989   2.802   2.105   7.941  0.5562  0.3263 -0.3019
  168SOPE  H10X18990   2.855   2.190   7.990  1.0954 -2.2501  4.1321
  168SOPE  H10Y18991   2.878   2.056   7.878  3.8643  3.2116  1.1195
  168SOPE  C31118992   2.759   2.012   8.058 -0.0885 -0.3633  0.8732
  168SOPE  H11X18993   2.848   1.961   8.102 -0.1058 -1.7348 -0.5803
  168SOPE  H11Y18994   2.699   1.934   8.006  3.1537 -2.9184  0.5542
  168SOPE  C31218995   2.674   2.091   8.160 -0.3822  0.1584 -0.4131
  168SOPE  H12X18996   2.584   2.145   8.122 -0.4955 -0.4074 -0.9749
  168SOPE  H12Y18997   2.749   2.164   8.196 -0.0281 -0.0799 -0.6649
  168SOPE  C31318998   2.630   2.012   8.284  0.2149 -0.0364  0.1022
  168SOPE  H13X18999   2.701   1.933   8.317  1.7398  1.2323 -0.0163
  168SOPE  H13Y19000   2.548   1.952   8.240  0.3553  1.5015 -2.4629
  168SOPE  C31419001   2.583   2.091   8.405 -0.0380 -0.3540 -0.2257
  168SOPE  H14X19002   2.473   2.103   8.395  0.2128  1.1010 -1.6114
  168SOPE  H14Y19003   2.629   2.192   8.401 -0.6457 -0.0082  0.9800
  168SOPE  C31519004   2.622   2.021   8.537 -0.0177 -0.4253  0.7024
  168SOPE  H15X19005   2.726   2.047   8.566  0.6665  0.6620 -2.3540
  168SOPE  H15Y19006   2.605   1.912   8.523 -0.2963 -0.1188 -2.0064
  168SOPE  C31619007   2.534   2.068   8.650 -0.5579 -0.3269  0.4373
  168SOPE  H16X19008   2.434   2.045   8.608 -0.2673 -0.7940 -0.0056
  168SOPE  H16Y19009   2.544   2.177   8.669 -0.2190 -0.5643  1.6704
  168SOPE  C31719010   2.556   1.999   8.781  0.7378 -0.4937 -0.4203
  168SOPE  H17X19011   2.548   1.889   8.774 -0.1067 -0.5742  1.3106
  168SOPE  H17Y19012   2.479   2.044   8.848  0.7452  0.1315 -0.8238
  168SOPE  C31819013   2.688   2.034   8.849  0.4311 -0.3329 -0.6404
  168SOPE  H18X19014   2.713   2.141   8.832  0.7554  0.0165  1.7098
  168SOPE  H18Y19015   2.768   1.967   8.810 -0.6818 -1.8211 -0.4300
  168SOPE  H18Z19016   2.690   2.018   8.959  0.7623 -2.4017 -0.9092
  169SOPE     N19017   0.235   3.752   6.098 -0.3706 -0.7672  0.1744
  169SOPE   HN119018   0.248   3.747   5.995 -1.9647  1.4572 -0.2077
  169SOPE   HN219019   0.275   3.659   6.122 -0.8876 -1.2869 -0.8786
  169SOPE   HN319020   0.133   3.744   6.119 -0.2405  0.2885  1.2683
  169SOPE   C1219021   0.318   3.866   6.160  0.5118  0.1907  0.2238
  169SOPE  H12A19022   0.248   3.933   6.214  1.6994  0.6880  1.1940
  169SOPE  H12B19023   0.372   3.920   6.079  0.8247 -1.2526 -0.5573
  169SOPE   C1119024   0.407   3.803   6.261  0.5290 -0.1113  0.1330
  169SOPE  H11A19025   0.469   3.887   6.298  0.1750  0.2050  0.0204
  169SOPE  H11B19026   0.471   3.731   6.206 -0.7470  0.4576 -2.2647
  169SOPE     P19027   0.408   3.672   6.477  0.0401 -0.0425 -0.2175
  169SOPE   O1319028   0.553   3.668   6.455 -0.1284 -0.6500  0.1837
  169SOPE   O1419029   0.348   3.543   6.524  0.4558 -0.4208  0.0238
  169SOPE   O1219030   0.329   3.740   6.357 -0.0185  0.0385  0.1994
  169SOPE   O1119031   0.379   3.766   6.598  0.1116  0.3859  0.6649
  169SOPE    C119032   0.414   3.904   6.590 -0.0809 -0.1410 -0.5184
  169SOPE    HA19033   0.346   3.947   6.513  0.6884  0.1789 -1.0326
  169SOPE    HB19034   0.519   3.925   6.560  0.0658  1.2676  0.8387
  169SOPE    C219035   0.401   3.971   6.731 -0.1085  0.3756  0.5295
  169SOPE    HS19036   0.440   4.075   6.723 -2.3758  1.1969 -0.6892
  169SOPE   O2119037   0.461   3.887   6.836  0.0628 -0.3718 -0.2249
  169SOPE   C2119038   0.595   3.877   6.826  0.3583  0.0192  0.4526
  169SOPE   O2219039   0.660   3.941   6.751 -0.0459 -0.3838 -0.0623
  169SOPE   C2219040   0.642   3.782   6.924  0.9923  0.2921  0.0873
  169SOPE   H2R19041   0.747   3.758   6.898  0.1209 -4.6269  0.1066
  169SOPE   H2S19042   0.591   3.686   6.901 -0.2893  0.9503  0.0829
  169SOPE    C319043   0.253   3.981   6.778 -0.7904 -0.3441 -0.0645
  169SOPE    HX19044   0.198   3.888   6.752  1.0905 -1.2778 -0.9097
  169SOPE    HY19045   0.205   4.050   6.705  0.5176  1.4011  0.6577
  169SOPE   O3119046   0.239   4.028   6.912  0.2436  0.8215  0.4558
  169SOPE   C3119047   0.227   3.936   7.007 -0.2669 -0.3498 -0.3179
  169SOPE   O3219048   0.217   3.816   6.992  0.6784  0.2330 -0.1766
  169SOPE   C3219049   0.197   4.007   7.139 -0.0861  0.3895  0.1471
  169SOPE   H2X19050   0.092   4.043   7.134  0.2072  1.1508 -1.1009
  169SOPE   H2Y19051   0.254   4.103   7.148  0.0234  0.2244  1.4944
  169SOPE   C2319052   0.627   3.831   7.065  0.4506  0.0278 -0.5475
  169SOPE   H3R19053   0.534   3.881   7.098  1.8076  1.3816  1.4587
  169SOPE   H3S19054   0.713   3.893   7.098  1.2459 -1.0866 -0.4539
  169SOPE   C2419055   0.636   3.709   7.163  0.5256 -0.1352  0.5107
  169SOPE   H4R19056   0.530   3.676   7.166 -0.3556  2.4812  1.2241
  169SOPE   H4S19057   0.702   3.632   7.120 -0.3576 -0.9378  0.5681
  169SOPE   C2519058   0.686   3.755   7.304 -0.3729 -0.5261  0.1852
  169SOPE   H5R19059   0.788   3.797   7.298 -0.1976 -0.9442  0.2422
  169SOPE   H5S19060   0.629   3.845   7.336  0.0388  0.2981 -1.2898
  169SOPE   C2619061   0.685   3.644   7.404 -0.4777  0.1427  0.8106
  169SOPE   H6R19062   0.601   3.572   7.402 -1.9390  1.4354  4.9757
  169SOPE   H6S19063   0.783   3.592   7.404 -0.3596  0.3612  1.0428
  169SOPE   C2719064   0.671   3.697   7.546  0.1385  1.4055 -0.1413
  169SOPE   H7R19065   0.769   3.746   7.564  2.0538 -1.7380 -1.2244
  169SOPE   H7S19066   0.590   3.773   7.540  0.3437  1.6263 -0.0859
  169SOPE   C2819067   0.640   3.589   7.655  0.4780  0.5792 -0.4958
  169SOPE   H8R19068   0.612   3.645   7.747 -1.2454 -0.2717 -0.4761
  169SOPE   H8S19069   0.562   3.521   7.616  1.5614 -1.1662  0.2820
  169SOPE   C2919070   0.767   3.502   7.668 -0.2033 -0.5845  0.2323
  169SOPE   H9119071   0.795   3.463   7.569 -0.4387  1.9972 -0.9542
  169SOPE  C21019072   0.830   3.468   7.775  0.0418  1.1814 -0.5014
  169SOPE  H10119073   0.929   3.420   7.767 -0.6172 -0.2621 -0.2739
  169SOPE  C21119074   0.788   3.512   7.913 -0.2280 -0.5025 -0.1684
  169SOPE  H11R19075   0.683   3.486   7.935 -0.5948  1.1740  0.2670
  169SOPE  H11S19076   0.790   3.623   7.905 -1.2413 -0.4706 -0.0573
  169SOPE  C21219077   0.868   3.448   8.028  0.2999  0.1304 -0.7307
  169SOPE  H12R19078   0.973   3.483   8.036  0.8145 -1.1727 -1.4005
  169SOPE  H12S19079   0.880   3.339   8.011 -0.3411 -0.6811  3.2285
  169SOPE  C21319080   0.809   3.458   8.165  0.0518  0.4615 -0.4396
  169SOPE  H13R19081   0.864   3.381   8.224 -0.1533  1.2949  0.8858
  169SOPE  H13S19082   0.705   3.421   8.149 -1.2811  3.7682 -0.2021
  169SOPE  C21419083   0.804   3.597   8.229  0.4115 -0.6339  0.0007
  169SOPE  H14R19084   0.746   3.588   8.323  0.2248 -0.2650 -0.0798
  169SOPE  H14S19085   0.756   3.664   8.155  0.3611  1.9282  2.2161
  169SOPE  C21519086   0.943   3.654   8.262 -0.0909  0.7778 -0.1321
  169SOPE  H15R19087   1.012   3.662   8.176  0.9471 -0.4660  0.5452
  169SOPE  H15S19088   0.996   3.580   8.326 -1.7143 -1.0658 -0.8520
  169SOPE  C21619089   0.941   3.798   8.314  0.2160 -0.0847  0.7897
  169SOPE  H16R19090   0.926   3.866   8.227 -1.5088 -0.0873  1.0525
  169SOPE  H16S19091   1.046   3.820   8.343  1.7744 -2.3740 -2.5129
  169SOPE  C21719092   0.843   3.823   8.428 -0.1354 -0.2291 -0.2144
  169SOPE  H17R19093   0.869   3.768   8.521  2.6945  1.4904  0.1061
  169SOPE  H17S19094   0.742   3.795   8.391  0.2542  0.3703 -1.8023
  169SOPE  C21819095   0.851   3.964   8.475 -0.1352  0.2566 -0.3969
  169SOPE  H18R19096   0.946   4.006   8.514  0.0945 -1.7056  1.3240
  169SOPE  H18S19097   0.777   3.985   8.555 -0.2794  0.2253 -0.5211
  169SOPE  H18T19098   0.817   4.033   8.394  0.9491  0.4232 -0.7199
  169SOPE   C3319099   0.217   3.912   7.262  0.0582  0.1225  0.1037
  169SOPE   H3X19100   0.326   3.894   7.275 -0.0759  0.0780  1.2727
  169SOPE   H3Y19101   0.166   3.816   7.238 -0.4328  0.8057 -1.6899
  169SOPE   C3419102   0.150   3.972   7.385  0.1184 -0.2028 -0.3756
  169SOPE   H4X19103   0.051   4.014   7.358 -0.0495 -0.6451 -0.4589
  169SOPE   H4Y19104   0.205   4.052   7.438 -0.1281  0.5174 -1.1739
  169SOPE   C3519105   0.118   3.863   7.488  1.0631 -0.7645  0.1728
  169SOPE   H5X19106   0.058   3.800   7.419 -0.8017  1.2645 -0.1865
  169SOPE   H5Y19107   0.049   3.897   7.569  1.4423  0.5872 -0.0430
  169SOPE   C3619108   0.240   3.782   7.528  0.2313 -0.5002  0.6359
  169SOPE   H6X19109   0.301   3.855   7.584  0.0478  0.4171 -0.3276
  169SOPE   H6Y19110   0.312   3.744   7.453  0.1841 -0.0775  0.3761
  169SOPE   C3719111   0.208   3.663   7.627 -0.5630  0.4467 -0.1248
  169SOPE   H7X19112   0.261   3.572   7.590 -1.6544 -0.8363  1.3448
  169SOPE   H7Y19113   0.098   3.652   7.625 -0.6843  1.4824  0.4397
  169SOPE   C3819114   0.262   3.704   7.760 -0.3558 -0.5489  0.5966
  169SOPE   H8X19115   0.365   3.742   7.742  0.1969 -1.0774  2.4400
  169SOPE   H8Y19116   0.200   3.790   7.793 -1.8121 -0.9861 -0.9028
  169SOPE   C3919117   0.280   3.594   7.866 -0.1009  0.4292  0.2087
  169SOPE   H9X19118   0.350   3.519   7.824 -1.6092 -0.3441 -1.0208
  169SOPE   H9Y19119   0.198   3.523   7.889  0.7217 -0.3621  0.7790
  169SOPE  C31019120   0.365   3.627   7.988 -0.2194 -0.5883  0.6206
  169SOPE  H10X19121   0.434   3.707   7.954 -1.3395  0.2398  0.2095
  169SOPE  H10Y19122   0.437   3.548   8.017 -1.5215 -1.6180  1.1926
  169SOPE  C31119123   0.281   3.679   8.099  0.7734 -0.5351 -0.1122
  169SOPE  H11X19124   0.201   3.603   8.113 -0.0022  0.5376  1.6236
  169SOPE  H11Y19125   0.237   3.778   8.073  0.6102 -0.7726 -0.7572
  169SOPE  C31219126   0.366   3.690   8.227  0.2622  0.0120 -0.0492
  169SOPE  H12X19127   0.427   3.781   8.210  2.4027 -1.0196  1.7742
  169SOPE  H12Y19128   0.432   3.602   8.239  1.4543  1.1256  2.0726
  169SOPE  C31319129   0.286   3.700   8.353  0.1999  0.6344 -0.1688
  169SOPE  H13X19130   0.243   3.605   8.390 -1.3467  1.0139 -0.9041
  169SOPE  H13Y19131   0.202   3.771   8.337  0.2748  1.1083  1.4161
  169SOPE  C31419132   0.377   3.754   8.462 -0.3610  0.6183 -0.0971
  169SOPE  H14X19133   0.418   3.849   8.421 -1.5558  0.0037 -3.0056
  169SOPE  H14Y19134   0.462   3.685   8.483 -2.1917 -2.0781 -0.9990
  169SOPE  C31519135   0.306   3.779   8.594 -0.3035 -0.0987 -1.0112
  169SOPE  H15X19136   0.199   3.809   8.584 -0.1727  0.9306  0.4048
  169SOPE  H15Y19137   0.360   3.867   8.635  1.8773 -0.8741 -2.0747
  169SOPE  C31619138   0.296   3.660   8.694  0.2552  0.5265 -0.0651
  169SOPE  H16X19139   0.391   3.603   8.692 -0.2101 -0.2464 -0.8705
  169SOPE  H16Y19140   0.222   3.584   8.661 -0.0961  0.6201  0.4762
  169SOPE  C31719141   0.261   3.689   8.838  0.3156  0.0054  0.2652
  169SOPE  H17X19142   0.198   3.607   8.878  0.7092 -0.5677 -0.2616
  169SOPE  H17Y19143   0.197   3.779   8.848 -0.4263 -0.6601  1.8782
  169SOPE  C31819144   0.386   3.702   8.929  0.3520  0.3026  0.0596
  169SOPE  H18X19145   0.363   3.766   9.017 -1.2792 -1.4067  0.9573
  169SOPE  H18Y19146   0.472   3.742   8.872 -0.6269  1.9326 -0.3105
  169SOPE  H18Z19147   0.424   3.605   8.969  0.0235  0.5009  0.8712
  170SOPE     N19148   0.639   1.968   6.061 -0.5330 -0.9905 -0.4149
  170SOPE   HN119149   0.548   2.017   6.078 -1.0035 -1.3621 -1.7790
  170SOPE   HN219150   0.684   1.949   6.153 -1.2272 -0.8247 -0.0344
  170SOPE   HN319151   0.690   2.030   5.995 -1.4988 -0.4188 -0.6501
  170SOPE   C1219152   0.591   1.838   5.995  0.1604  0.0356 -0.5613
  170SOPE  H12A19153   0.672   1.804   5.927  0.9076 -0.4665  0.5500
  170SOPE  H12B19154   0.497   1.857   5.938 -0.9188 -0.5357  0.9731
  170SOPE   C1119155   0.581   1.722   6.086  0.1697 -0.1949  0.1307
  170SOPE  H11A19156   0.557   1.640   6.015  0.2131  0.1334 -0.2717
  170SOPE  H11B19157   0.500   1.720   6.162 -0.8041 -0.5784 -0.8939
  170SOPE     P19158   0.739   1.727   6.284 -0.0716 -0.2404 -0.1663
  170SOPE   O1319159   0.714   1.874   6.301  0.1207  0.1046  0.3942
  170SOPE   O1419160   0.870   1.681   6.321 -0.9221  0.1350  0.4234
  170SOPE   O1219161   0.710   1.694   6.136 -0.2427  0.3576 -0.1638
  170SOPE   O1119162   0.626   1.637   6.349 -0.2301  0.4946  0.0330
  170SOPE    C119163   0.541   1.697   6.453 -0.3900  0.3754  0.8682
  170SOPE    HA19164   0.460   1.623   6.470  0.9354 -1.2792  0.3212
  170SOPE    HB19165   0.500   1.791   6.411 -1.7110 -0.7190 -0.3787
  170SOPE    C219166   0.617   1.732   6.582  0.0044 -0.1507  0.5362
  170SOPE    HS19167   0.676   1.820   6.550 -2.0977  0.7817 -0.9125
  170SOPE   O2119168   0.695   1.611   6.615  0.0764 -0.0460 -0.9205
  170SOPE   C2119169   0.812   1.646   6.655  0.9885 -0.6220 -0.1339
  170SOPE   O2219170   0.852   1.759   6.672  0.0351  0.1430 -0.5011
  170SOPE   C2219171   0.894   1.514   6.678 -0.0669 -0.2483  0.0490
  170SOPE   H2R19172   0.919   1.472   6.578 -4.0452  0.0325 -1.2583
  170SOPE   H2S19173   0.834   1.437   6.731  0.4559 -0.7918 -0.1377
  170SOPE    C319174   0.521   1.774   6.692 -0.2089  0.2055  0.2208
  170SOPE    HX19175   0.446   1.694   6.714  1.5026 -1.6208 -0.2627
  170SOPE    HY19176   0.464   1.863   6.661 -0.0121  0.8656  1.6644
  170SOPE   O3119177   0.595   1.826   6.806 -0.8738 -0.1187  0.1099
  170SOPE   C3119178   0.605   1.750   6.915  0.1359  0.5450 -0.4661
  170SOPE   O3219179   0.570   1.633   6.922  0.1185 -0.2067 -0.1975
  170SOPE   C3219180   0.646   1.831   7.035  0.1260  0.1037 -0.1665
  170SOPE   H2X19181   0.676   1.763   7.118  0.3638  0.1628 -0.2024
  170SOPE   H2Y19182   0.552   1.879   7.068 -1.5096 -2.4489 -0.7597
  170SOPE   C2319183   1.011   1.544   6.777  0.3444  0.0739 -0.3244
  170SOPE   H3R19184   1.079   1.617   6.727 -1.6668  0.1762 -3.1442
  170SOPE   H3S19185   1.073   1.453   6.788  0.4415  0.2387  0.6400
  170SOPE   C2419186   0.971   1.587   6.923  0.2923  0.3376  0.3162
  170SOPE   H4R19187   0.940   1.693   6.919 -0.5994  0.0892  0.5328
  170SOPE   H4S19188   0.886   1.523   6.953  1.1677 -1.1324 -0.1941
  170SOPE   C2519189   1.084   1.569   7.029 -0.4498  0.2555 -0.4247
  170SOPE   H5R19190   1.129   1.468   7.036  1.6352  1.0425 -1.4615
  170SOPE   H5S19191   1.165   1.641   7.002 -1.4238  0.8240 -1.9426
  170SOPE   C2619192   1.042   1.614   7.170  0.4602 -0.2505  0.2740
  170SOPE   H6R19193   0.969   1.695   7.148 -0.7737 -1.7298 -1.3601
  170SOPE   H6S19194   0.986   1.532   7.220  2.1089 -2.0637 -0.6968
  170SOPE   C2719195   1.159   1.654   7.254  0.0361  0.6266 -0.7452
  170SOPE   H7R19196   1.205   1.568   7.306  0.8029  1.6320  0.3050
  170SOPE   H7S19197   1.242   1.705   7.201 -2.5325  3.5314 -2.3303
  170SOPE   C2819198   1.109   1.750   7.370  0.5332 -0.5882  0.3287
  170SOPE   H8R19199   1.074   1.845   7.323  0.4452 -0.1921  1.1800
  170SOPE   H8S19200   1.027   1.709   7.431 -0.3510 -0.1285 -0.5169
  170SOPE   C2919201   1.224   1.785   7.462 -0.2550  0.3166  0.2337
  170SOPE   H9119202   1.324   1.780   7.416  0.7485 -2.0556  2.4528
  170SOPE  C21019203   1.229   1.801   7.593 -0.4686 -0.8487 -0.6480
  170SOPE  H10119204   1.326   1.820   7.642 -1.1872  0.4528  0.3328
  170SOPE  C21119205   1.103   1.789   7.689 -0.1944  0.3667  0.9728
  170SOPE  H11R19206   1.012   1.745   7.643 -0.7179  0.2555  2.0940
  170SOPE  H11S19207   1.072   1.890   7.721 -1.7745  1.0899 -2.3367
  170SOPE  C21219208   1.140   1.703   7.813 -0.6543  0.2010  0.0492
  170SOPE  H12R19209   1.240   1.733   7.850 -0.7177  1.2409 -0.5623
  170SOPE  H12S19210   1.138   1.600   7.773 -1.2059  0.1545  0.1859
  170SOPE  C21319211   1.047   1.718   7.935  0.5390 -0.0975 -0.4055
  170SOPE  H13R19212   0.941   1.738   7.907 -0.2533 -0.6574  1.9310
  170SOPE  H13S19213   1.088   1.809   7.983  3.0481 -0.5457 -1.5823
  170SOPE  C21419214   1.056   1.591   8.018  0.2073 -0.0003  0.1567
  170SOPE  H14R19215   1.047   1.501   7.954 -0.8471 -0.9390  1.5483
  170SOPE  H14S19216   0.968   1.587   8.086 -0.3172  0.5667 -0.4764
  170SOPE  C21519217   1.187   1.596   8.097  0.7551 -0.4048  0.1977
  170SOPE  H15R19218   1.194   1.695   8.149  0.0754 -1.1150  1.7068
  170SOPE  H15S19219   1.274   1.598   8.028  0.7557  1.4453  0.1993
  170SOPE  C21619220   1.193   1.495   8.208 -0.1214  0.7390 -0.2937
  170SOPE  H16R19221   1.183   1.389   8.174  0.0788  0.1359  1.4286
  170SOPE  H16S19222   1.114   1.513   8.283  1.7285  0.0757  1.9440
  170SOPE  C21719223   1.322   1.499   8.282  0.4458 -0.3354 -0.3115
  170SOPE  H17R19224   1.323   1.608   8.304  2.2831 -0.7282  1.8403
  170SOPE  H17S19225   1.411   1.472   8.222  1.0715 -0.4045  0.6270
  170SOPE  C21819226   1.315   1.415   8.409  0.0713  0.5144 -0.0422
  170SOPE  H18R19227   1.248   1.482   8.468 -0.0154  0.7964 -0.4540
  170SOPE  H18S19228   1.409   1.406   8.467  1.5413  0.4086 -2.3302
  170SOPE  H18T19229   1.266   1.320   8.379  0.1432  0.0848  1.1443
  170SOPE   C3319230   0.755   1.940   7.010 -0.4416  0.1252  0.3428
  170SOPE   H3X19231   0.728   2.003   6.923  2.9205  0.0403 -0.8923
  170SOPE   H3Y19232   0.855   1.895   6.993 -0.6169 -0.6697  1.2948
  170SOPE   C3419233   0.771   2.029   7.133 -0.2382  0.4753  0.2456
  170SOPE   H4X19234   0.677   2.089   7.138 -0.8304 -0.5217  1.6600
  170SOPE   H4Y19235   0.862   2.091   7.117  0.8420 -1.6736 -2.6349
  170SOPE   C3519236   0.791   1.962   7.267 -0.1723  0.9389  0.2977
  170SOPE   H5X19237   0.881   1.899   7.255  0.8224  2.3308  0.2636
  170SOPE   H5Y19238   0.701   1.908   7.305  0.0239  1.6876  1.8821
  170SOPE   C3619239   0.839   2.050   7.386  0.4060  0.2524  0.1727
  170SOPE   H6X19240   0.769   2.136   7.390 -0.7573 -0.5737 -1.3218
  170SOPE   H6Y19241   0.945   2.079   7.371  0.2012 -0.0378 -2.3595
  170SOPE   C3719242   0.827   1.995   7.530 -0.4361  0.6588  0.0832
  170SOPE   H7X19243   0.880   2.063   7.601 -0.8285 -0.5160  1.5720
  170SOPE   H7Y19244   0.887   1.901   7.538  1.6461  1.9751  0.8889
  170SOPE   C3819245   0.689   1.972   7.586 -0.7185 -0.1846  0.1196
  170SOPE   H8X19246   0.636   1.906   7.514 -0.0277 -0.4750 -0.1303
  170SOPE   H8Y19247   0.629   2.065   7.599 -1.4747 -0.7046  0.4852
  170SOPE   C3919248   0.683   1.899   7.725  0.3151  0.4316  0.2112
  170SOPE   H9X19249   0.727   1.798   7.712 -1.0751 -0.2595  0.6460
  170SOPE   H9Y19250   0.574   1.887   7.743 -0.0318  2.5052 -0.2590
  170SOPE  C31019251   0.733   1.975   7.844 -0.3136  0.4458  1.0229
  170SOPE  H10X19252   0.699   2.080   7.827  0.6839  0.6696  0.3228
  170SOPE  H10Y19253   0.840   1.982   7.818 -0.7714  3.4877 -0.5847
  170SOPE  C31119254   0.715   1.915   7.990 -0.4746  0.2929 -0.8932
  170SOPE  H11X19255   0.752   1.810   7.993 -2.1054 -0.2933  0.4059
  170SOPE  H11Y19256   0.608   1.906   8.021  0.3842 -0.3290  2.2882
  170SOPE  C31219257   0.789   2.004   8.099  0.3992  0.0041 -0.1885
  170SOPE  H12X19258   0.741   2.103   8.116  0.4735 -0.1150  0.7399
  170SOPE  H12Y19259   0.887   2.031   8.055  1.3166 -0.4451  1.4845
  170SOPE  C31319260   0.815   1.945   8.238 -0.1631 -0.3062 -0.2223
  170SOPE  H13X19261   0.844   1.838   8.229  0.7747 -0.0338 -0.5237
  170SOPE  H13Y19262   0.718   1.943   8.292 -0.9451 -1.8529 -1.6059
  170SOPE  C31419263   0.924   2.013   8.330 -0.1670 -0.1464  0.2316
  170SOPE  H14X19264   1.014   1.984   8.272 -1.2516 -2.8241 -0.2864
  170SOPE  H14Y19265   0.938   1.963   8.429  1.6785  1.1848  0.6951
  170SOPE  C31519266   0.908   2.163   8.359  0.3162 -0.1870  0.1067
  170SOPE  H15X19267   0.909   2.220   8.263  2.2099  0.6423  0.5624
  170SOPE  H15Y19268   1.002   2.203   8.403 -1.8464  3.3353  2.0358
  170SOPE  C31619269   0.786   2.194   8.440  0.1630 -0.4721 -0.6396
  170SOPE  H16X19270   0.693   2.166   8.387  0.2813 -1.2004 -0.4743
  170SOPE  H16Y19271   0.780   2.302   8.463 -0.6187 -0.7483  0.5851
  170SOPE  C31719272   0.780   2.130   8.581  0.2774 -0.0218  0.3733
  170SOPE  H17X19273   0.757   2.022   8.567  0.7431 -0.3205  1.7614
  170SOPE  H17Y19274   0.692   2.169   8.637  0.6815  0.1128  0.9246
  170SOPE  C31819275   0.903   2.159   8.671 -1.0411 -0.2103 -0.4536
  170SOPE  H18X19276   0.983   2.083   8.660  0.2024  0.7328  1.3572
  170SOPE  H18Y19277   0.873   2.158   8.778 -0.4525 -0.2932 -0.2863
  170SOPE  H18Z19278   0.961   2.253   8.652  1.8698 -2.2805 -2.6669
  171SOPE     N19279   5.039   6.756   6.158 -0.0564 -0.4354  0.3881
  171SOPE   HN119280   5.091   6.829   6.105 -0.9278 -0.9080 -1.1624
  171SOPE   HN219281   5.019   6.678   6.091 -1.0312 -4.4889  4.8110
  171SOPE   HN319282   4.949   6.803   6.178 -0.5259  0.7309 -3.5247
  171SOPE   C1219283   5.133   6.709   6.265  0.1569 -0.3139 -0.4979
  171SOPE  H12A19284   5.156   6.790   6.337  1.8503 -1.8417  0.7726
  171SOPE  H12B19285   5.227   6.676   6.216  0.2888  0.5405 -0.8431
  171SOPE   C1119286   5.079   6.585   6.347 -0.0953 -0.0839 -0.2048
  171SOPE  H11A19287   4.975   6.600   6.383 -0.8509 -3.6709 -0.5725
  171SOPE  H11B19288   5.134   6.576   6.444  1.1325 -0.4587 -0.9154
  171SOPE     P19289   5.223   6.385   6.272  0.1862 -0.0421 -0.2945
  171SOPE   O1319290   5.345   6.467   6.251 -0.3313  0.1620  0.2309
  171SOPE   O1419291   5.215   6.272   6.184  0.1790 -0.0171 -0.1568
  171SOPE   O1219292   5.088   6.469   6.262 -0.2976 -0.3877 -0.3950
  171SOPE   O1119293   5.225   6.336   6.424  0.5157 -0.0419  0.1853
  171SOPE    C119294   5.125   6.255   6.488  0.1357 -0.5810  0.3826
  171SOPE    HA19295   5.173   6.172   6.544  2.8017  1.4070  1.2397
  171SOPE    HB19296   5.066   6.193   6.417  0.8261 -2.1603  1.1253
  171SOPE    C219297   5.042   6.338   6.588  0.0600  0.0633 -0.9459
  171SOPE    HS19298   4.983   6.413   6.530 -1.3944  1.9230  2.6473
  171SOPE   O2119299   5.124   6.411   6.684  0.2660 -0.4743  0.1775
  171SOPE   C2119300   5.075   6.529   6.718  0.0998 -0.4082 -0.6685
  171SOPE   O2219301   4.987   6.597   6.664  0.0888  0.0334 -0.6433
  171SOPE   C2219302   5.139   6.591   6.843  0.6835 -0.5525 -0.6581
  171SOPE   H2R19303   5.080   6.682   6.868  0.0245 -1.2711  0.4675
  171SOPE   H2S19304   5.241   6.634   6.829 -0.3142  2.6103  0.8310
  171SOPE    C319305   4.936   6.253   6.661 -0.0373  0.0717  0.5509
  171SOPE    HX19306   4.984   6.190   6.738  0.2755  0.6068  0.7974
  171SOPE    HY19307   4.890   6.187   6.584 -1.1750  2.3579 -0.8933
  171SOPE   O3119308   4.834   6.325   6.728  0.3844 -0.7856 -0.8281
  171SOPE   C3119309   4.735   6.378   6.657  0.4631  0.4447 -0.2205
  171SOPE   O3219310   4.712   6.371   6.538 -0.0760 -0.3371  0.8531
  171SOPE   C3219311   4.650   6.468   6.758  0.3698  0.2749 -0.4145
  171SOPE   H2X19312   4.605   6.389   6.822  1.1211 -1.0062 -1.4359
  171SOPE   H2Y19313   4.564   6.507   6.700 -1.4006 -1.9418  0.5875
  171SOPE   C2319314   5.132   6.500   6.959 -0.0024 -0.2291  0.1962
  171SOPE   H3R19315   5.153   6.393   6.936  0.0437  0.3540 -2.8908
  171SOPE   H3S19316   5.030   6.498   7.003  0.2771 -3.2693  0.9335
  171SOPE   C2419317   5.230   6.552   7.065 -0.1446  0.1689 -1.0267
  171SOPE   H4R19318   5.322   6.580   7.011  0.1804  0.3124 -0.4135
  171SOPE   H4S19319   5.185   6.645   7.108 -0.5689  0.2325 -1.6024
  171SOPE   C2519320   5.246   6.451   7.179  0.4924  0.8448  0.4151
  171SOPE   H5R19321   5.257   6.347   7.140 -1.0047  1.0244 -0.5845
  171SOPE   H5S19322   5.328   6.469   7.252  0.5504 -0.6161  0.7361
  171SOPE   C2619323   5.114   6.437   7.262 -0.0769 -0.3528  0.4916
  171SOPE   H6R19324   5.081   6.534   7.303  0.5772  0.6232 -1.2228
  171SOPE   H6S19325   5.038   6.405   7.187  1.9994 -0.0576 -1.8840
  171SOPE   C2719326   5.125   6.334   7.378  0.0302  0.7624 -0.0249
  171SOPE   H7R19327   5.118   6.229   7.344 -0.8840  0.4064  1.1822
  171SOPE   H7S19328   5.214   6.360   7.440 -1.1554  0.3317  1.9496
  171SOPE   C2819329   5.004   6.337   7.475 -0.3131 -0.2028 -0.8879
  171SOPE   H8R19330   4.984   6.443   7.500 -1.9557 -0.6227 -0.2685
  171SOPE   H8S19331   4.912   6.305   7.422 -0.0870 -0.0689 -1.3647
  171SOPE   C2919332   5.024   6.266   7.613  0.3876  0.4357  0.0375
  171SOPE   H9119333   5.041   6.158   7.598 -2.2559  0.0183 -0.3224
  171SOPE  C21019334   5.015   6.319   7.739 -0.3398  0.1310  0.3289
  171SOPE  H10119335   5.005   6.248   7.822  0.4309  0.7647  0.9833
  171SOPE  C21119336   4.991   6.460   7.783  0.1090 -0.4940 -0.4196
  171SOPE  H11R19337   4.883   6.489   7.787  0.0015 -0.5048 -2.3243
  171SOPE  H11S19338   5.025   6.528   7.702  1.7771 -1.0305 -0.1941
  171SOPE  C21219339   5.068   6.507   7.910  0.0124 -0.6616 -0.2870
  171SOPE  H12R19340   5.051   6.616   7.924 -0.6158 -0.9463  1.4374
  171SOPE  H12S19341   5.178   6.495   7.900  0.8689  2.6342  2.8735
  171SOPE  C21319342   5.032   6.425   8.027 -0.7747 -0.0355 -0.2831
  171SOPE  H13R19343   5.076   6.323   8.015 -0.5654 -0.3471  2.5132
  171SOPE  H13S19344   4.922   6.415   8.036 -0.9693  2.0774  0.0730
  171SOPE  C21419345   5.096   6.485   8.155  0.5763 -0.6845 -0.1052
  171SOPE  H14R19346   5.191   6.535   8.125 -0.6350  0.3273 -2.5065
  171SOPE  H14S19347   5.126   6.401   8.221  2.1405  0.5234  0.7894
  171SOPE  C21519348   4.989   6.581   8.222  0.1958  0.1083  0.2504
  171SOPE  H15R19349   4.899   6.525   8.255 -0.3263  1.0195  0.3929
  171SOPE  H15S19350   4.954   6.659   8.150  0.1469 -0.6456 -0.5612
  171SOPE  C21619351   5.025   6.654   8.353 -0.8171 -0.5133 -0.5720
  171SOPE  H16R19352   4.938   6.708   8.395 -1.0449 -1.1777 -0.1810
  171SOPE  H16S19353   5.108   6.727   8.338 -0.8829 -0.1509  0.6888
  171SOPE  C21719354   5.077   6.581   8.473 -0.6405  0.9692 -0.1133
  171SOPE  H17R19355   5.174   6.532   8.453 -0.7604 -0.7950  2.9998
  171SOPE  H17S19356   5.013   6.492   8.490 -0.4901  1.1624  1.6635
  171SOPE  C21819357   5.097   6.648   8.602 -0.4318 -0.0048 -0.5929
  171SOPE  H18R19358   5.160   6.740   8.601 -1.2913  0.8265  3.4002
  171SOPE  H18S19359   5.147   6.585   8.679 -0.4344 -0.6728 -1.1282
  171SOPE  H18T19360   4.998   6.685   8.637  0.3703  0.6778  1.0809
  171SOPE   C3319361   4.719   6.573   6.848 -0.4445 -0.2333 -0.8848
  171SOPE   H3X19362   4.790   6.634   6.789  0.9615 -1.6347 -0.6978
  171SOPE   H3Y19363   4.791   6.520   6.913  1.5060  1.0064 -1.9447
  171SOPE   C3419364   4.613   6.656   6.918 -0.0829 -0.1231  0.2693
  171SOPE   H4X19365   4.559   6.699   6.831 -1.2578 -0.2501  0.9152
  171SOPE   H4Y19366   4.658   6.749   6.959 -0.5577 -0.0040  0.5370
  171SOPE   C3519367   4.522   6.576   7.014 -0.5587 -0.4810  0.9317
  171SOPE   H5X19368   4.554   6.470   7.020 -1.1607 -0.8244 -1.0433
  171SOPE   H5Y19369   4.421   6.581   6.968 -0.7393  2.6528  1.4966
  171SOPE   C3619370   4.516   6.642   7.149 -0.0743 -0.4140 -0.3118
  171SOPE   H6X19371   4.431   6.602   7.210 -0.8226 -3.2267 -2.9412
  171SOPE   H6Y19372   4.486   6.748   7.139  2.6535  0.4925  0.3116
  171SOPE   C3719373   4.646   6.637   7.233  0.3692 -0.1421  0.1189
  171SOPE   H7X19374   4.646   6.678   7.337 -0.2931  2.2494 -0.7542
  171SOPE   H7Y19375   4.722   6.701   7.184  0.1907 -1.0357 -1.3943
  171SOPE   C3819376   4.727   6.501   7.238  0.1167  0.2597 -0.2871
  171SOPE   H8X19377   4.827   6.528   7.279 -0.8036  0.9944  1.6219
  171SOPE   H8Y19378   4.740   6.462   7.135 -0.3883  1.8428 -0.9800
  171SOPE   C3919379   4.648   6.393   7.320  0.2466  0.6199 -0.6194
  171SOPE   H9X19380   4.698   6.296   7.300 -2.3004 -1.3651  1.9327
  171SOPE   H9Y19381   4.547   6.384   7.274 -0.4273 -1.0447  1.0576
  171SOPE  C31019382   4.630   6.419   7.473  0.0320 -0.2155  0.1710
  171SOPE  H10X19383   4.562   6.504   7.491 -0.1382 -0.3102 -0.0144
  171SOPE  H10Y19384   4.734   6.443   7.503 -0.5176  1.2297  0.9976
  171SOPE  C31119385   4.568   6.294   7.533  0.1066 -0.2437  1.3431
  171SOPE  H11X19386   4.619   6.207   7.486 -0.7050  0.0775 -0.2275
  171SOPE  H11Y19387   4.461   6.291   7.505 -0.4461  2.7364  2.7918
  171SOPE  C31219388   4.601   6.286   7.682 -0.6086  0.0291 -0.1478
  171SOPE  H12X19389   4.710   6.263   7.693  0.2516  2.4438 -2.5851
  171SOPE  H12Y19390   4.546   6.203   7.731 -0.4743  0.5709  0.9564
  171SOPE  C31319391   4.583   6.426   7.764  0.1082  0.6161  0.4584
  171SOPE  H13X19392   4.478   6.463   7.759 -0.0344  0.3892  1.4705
  171SOPE  H13Y19393   4.646   6.511   7.732  2.1945 -0.9221  0.2641
  171SOPE  C31419394   4.614   6.398   7.914 -0.0861  0.1233 -0.7359
  171SOPE  H14X19395   4.715   6.354   7.927 -0.2637 -0.1007 -0.0915
  171SOPE  H14Y19396   4.543   6.327   7.962 -1.2321  1.2030 -0.7882
  171SOPE  C31519397   4.602   6.522   8.003  0.0549 -0.1502 -0.5687
  171SOPE  H15X19398   4.504   6.569   7.981  0.4418  0.8839 -0.1242
  171SOPE  H15Y19399   4.681   6.595   7.976 -0.8972  1.9554  1.9588
  171SOPE  C31619400   4.609   6.493   8.154  0.0731  0.3257 -0.1105
  171SOPE  H16X19401   4.702   6.433   8.164  0.8262  1.1223 -1.8551
  171SOPE  H16Y19402   4.522   6.427   8.171 -0.8504  1.1957 -1.3176
  171SOPE  C31719403   4.605   6.610   8.248  0.8554 -0.3013 -0.0519
  171SOPE  H17X19404   4.687   6.678   8.216 -0.7138  1.6775 -0.0701
  171SOPE  H17Y19405   4.636   6.575   8.349  1.2585 -0.3410 -0.1864
  171SOPE  C31819406   4.467   6.677   8.270 -0.1797  0.2316  0.4232
  171SOPE  H18X19407   4.479   6.746   8.355 -0.8408  2.3576 -1.1393
  171SOPE  H18Y19408   4.388   6.602   8.294  0.1404 -0.4495 -0.5557
  171SOPE  H18Z19409   4.426   6.724   8.178 -1.6152 -2.3888 -0.4013
  172SOPE     N19410   5.557   6.553   6.106  0.8430  0.2835 -0.4460
  172SOPE   HN119411   5.493   6.550   6.187  2.8888 -2.2384  1.2340
  172SOPE   HN219412   5.615   6.467   6.097 -0.4596 -0.5858 -0.8453
  172SOPE   HN319413   5.627   6.630   6.116 -0.8196  1.6093  1.6020
  172SOPE   C1219414   5.468   6.571   5.990  0.0547  0.5655  0.2526
  172SOPE  H12A19415   5.381   6.503   5.999  0.2975  0.1503 -0.4287
  172SOPE  H12B19416   5.539   6.532   5.914  1.3853  2.5584  0.4055
  172SOPE   C1119417   5.448   6.721   5.969 -0.7741  0.5792 -0.3702
  172SOPE  H11A19418   5.386   6.724   5.877 -1.5050  1.6809  0.1443
  172SOPE  H11B19419   5.547   6.764   5.942 -1.1482  0.6168 -1.7489
  172SOPE     P19420   5.345   6.920   6.084  0.2215  0.8769  0.1894
  172SOPE   O1319421   5.212   6.916   6.022 -0.4447 -0.1281  0.4105
  172SOPE   O1419422   5.447   7.002   6.015 -0.7407 -0.1654 -0.0028
  172SOPE   O1219423   5.397   6.771   6.092  0.3002  0.0857  0.3038
  172SOPE   O1119424   5.323   6.959   6.239  0.4584 -0.1352  0.0602
  172SOPE    C119425   5.432   6.921   6.334  0.5057 -0.3321 -0.5420
  172SOPE    HA19426   5.530   6.946   6.287  1.8555 -1.5251  1.4889
  172SOPE    HB19427   5.428   6.813   6.357  0.6867 -0.5083 -1.3005
  172SOPE    C219428   5.430   7.006   6.467  0.2334 -0.1779 -0.9021
  172SOPE    HS19429   5.475   6.945   6.549  0.0756  1.3247  0.3523
  172SOPE   O2119430   5.295   7.050   6.503  0.6226 -0.1062 -0.7219
  172SOPE   C2119431   5.222   6.973   6.589 -0.6045 -0.3494  0.4964
  172SOPE   O2219432   5.273   6.884   6.656  0.0436  0.1506  0.6440
  172SOPE   C2219433   5.079   7.020   6.601 -0.5701 -0.5682  0.0460
  172SOPE   H2R19434   5.012   6.984   6.520  0.5150 -0.2034 -1.0642
  172SOPE   H2S19435   5.088   7.131   6.596  1.3883 -0.6888 -0.0825
  172SOPE    C319436   5.524   7.138   6.452  1.3795 -0.2975  0.5603
  172SOPE    HX19437   5.488   7.185   6.358 -1.1592 -0.3557  1.4207
  172SOPE    HY19438   5.628   7.101   6.451  1.3447 -0.6757 -3.1083
  172SOPE   O3119439   5.511   7.227   6.562  0.4651 -0.3771 -0.1451
  172SOPE   C3119440   5.444   7.339   6.542 -0.4384  0.4701  0.0818
  172SOPE   O3219441   5.404   7.372   6.427 -0.0135  0.4511  0.0890
  172SOPE   C3219442   5.426   7.421   6.674  0.6942 -0.1876  0.0768
  172SOPE   H2X19443   5.317   7.430   6.695  0.7611  2.3514 -0.3475
  172SOPE   H2Y19444   5.477   7.519   6.662 -0.1651  0.1086 -1.4557
  172SOPE   C2319445   5.014   6.980   6.737  0.0802  0.0873  0.3038
  172SOPE   H3R19446   5.087   7.008   6.815 -1.2504  0.3075  1.5193
  172SOPE   H3S19447   5.009   6.869   6.739 -2.8940  0.1024 -1.0588
  172SOPE   C2419448   4.878   7.037   6.772 -0.4386  0.1848  0.3848
  172SOPE   H4R19449   4.885   7.147   6.762  0.0769  0.1505  0.3662
  172SOPE   H4S19450   4.812   7.003   6.689  1.0053 -1.5363 -0.1220
  172SOPE   C2519451   4.819   6.994   6.902 -0.0326  0.5217 -0.0046
  172SOPE   H5R19452   4.717   7.038   6.894  0.1668  0.5914 -3.3638
  172SOPE   H5S19453   4.830   6.883   6.908  1.9820  0.7530  2.1701
  172SOPE   C2619454   4.873   7.059   7.024 -0.3999 -0.2906  0.1994
  172SOPE   H6R19455   4.978   7.029   7.044 -0.1815  0.8908  0.9444
  172SOPE   H6S19456   4.877   7.170   7.014 -1.4018 -0.4070 -1.8106
  172SOPE   C2719457   4.780   7.020   7.141  0.0968  0.7321 -1.1946
  172SOPE   H7R19458   4.690   7.085   7.151  0.7589  2.0147 -2.9942
  172SOPE   H7S19459   4.736   6.918   7.140  0.7076  0.4675 -1.4349
  172SOPE   C2819460   4.861   7.017   7.278 -0.4140 -0.2832 -0.2728
  172SOPE   H8R19461   4.956   7.072   7.263 -1.9940  2.4451 -1.0242
  172SOPE   H8S19462   4.794   7.064   7.353 -2.1437 -2.5092 -0.3202
  172SOPE   C2919463   4.893   6.884   7.335 -0.4989 -0.0773  0.8296
  172SOPE   H9119464   4.937   6.813   7.263 -0.0227  1.6372 -0.6517
  172SOPE  C21019465   4.883   6.860   7.468 -0.3789  0.4072  0.0681
  172SOPE  H10119466   4.928   6.765   7.498  2.4406  0.9822 -1.9501
  172SOPE  C21119467   4.849   6.938   7.590  0.8733 -0.0118 -0.5422
  172SOPE  H11R19468   4.781   7.023   7.567 -1.4391 -1.3275  1.1734
  172SOPE  H11S19469   4.944   6.983   7.627  0.7699 -2.5870  3.3860
  172SOPE  C21219470   4.792   6.846   7.702 -0.3416 -0.6608  0.3985
  172SOPE  H12R19471   4.866   6.769   7.730 -0.8161 -1.1896  0.2211
  172SOPE  H12S19472   4.704   6.785   7.672 -0.2304 -0.7918  0.3365
  172SOPE  C21319473   4.747   6.938   7.816 -0.5608 -1.1619 -0.1865
  172SOPE  H13R19474   4.683   6.883   7.888 -1.4586  1.4654  1.1517
  172SOPE  H13S19475   4.681   7.020   7.781 -0.0676 -0.6560  0.0370
  172SOPE  C21419476   4.850   7.011   7.910 -0.3784  0.3678  0.3543
  172SOPE  H14R19477   4.789   7.075   7.978 -1.0181 -0.2985  0.4261
  172SOPE  H14S19478   4.907   7.084   7.849 -3.0656  0.5157 -2.1805
  172SOPE  C21519479   4.949   6.932   7.985  0.0236 -0.4069  0.3662
  172SOPE  H15R19480   5.006   6.864   7.918 -1.7597 -1.4778 -0.1218
  172SOPE  H15S19481   4.894   6.871   8.060 -0.8745  0.8025  0.7260
  172SOPE  C21619482   5.055   7.020   8.059  0.0303 -0.2187  0.1483
  172SOPE  H16R19483   5.103   7.076   7.977 -2.3295 -0.8179 -1.7509
  172SOPE  H16S19484   5.131   6.945   8.088  1.2493 -0.0757 -2.4286
  172SOPE  C21719485   5.005   7.100   8.178  0.6708 -0.1631 -0.4821
  172SOPE  H17R19486   4.950   7.035   8.249  0.4293  0.9698  0.4096
  172SOPE  H17S19487   4.939   7.177   8.133  0.5965 -1.6780 -3.1242
  172SOPE  C21819488   5.122   7.167   8.252 -0.5533 -1.2166  0.6279
  172SOPE  H18R19489   5.090   7.251   8.318 -1.4088 -2.1418  1.4107
  172SOPE  H18S19490   5.201   7.206   8.185 -0.2803 -2.5725  0.1323
  172SOPE  H18T19491   5.166   7.094   8.323  1.1077  0.0462  0.9761
  172SOPE   C3319492   5.492   7.355   6.801 -0.0856  0.2244 -1.2153
  172SOPE   H3X19493   5.497   7.425   6.887 -2.1532 -0.0408 -0.8389
  172SOPE   H3Y19494   5.597   7.320   6.792 -0.1594 -1.0174  1.5220
  172SOPE   C3419495   5.418   7.231   6.852 -0.3253 -0.2559 -0.2778
  172SOPE   H4X19496   5.418   7.154   6.772 -0.3585 -0.2545 -0.2788
  172SOPE   H4Y19497   5.320   7.279   6.872  0.2795  0.6680  0.5923
  172SOPE   C3519498   5.464   7.171   6.985 -0.3881  0.5834  0.0389
  172SOPE   H5X19499   5.511   7.244   7.054  0.6941  0.3542 -0.4316
  172SOPE   H5Y19500   5.550   7.108   6.954 -0.6491  0.7439 -1.0490
  172SOPE   C3619501   5.361   7.072   7.051  0.1175 -0.4082 -0.0262
  172SOPE   H6X19502   5.347   6.981   6.989  3.0708 -0.2184 -1.1419
  172SOPE   H6Y19503   5.266   7.130   7.059  0.1177 -0.5082  0.7751
  172SOPE   C3719504   5.394   7.033   7.195 -0.8100 -0.1066  0.4911
  172SOPE   H7X19505   5.383   7.132   7.244 -0.0481 -1.2162  3.0626
  172SOPE   H7Y19506   5.498   7.002   7.219 -0.5373  1.2174  1.1129
  172SOPE   C3819507   5.299   6.940   7.252  0.6951  0.3935 -0.3753
  172SOPE   H8X19508   5.273   6.853   7.189 -2.4397 -0.4090  1.7699
  172SOPE   H8Y19509   5.199   6.988   7.264  0.1804  0.8246 -4.8917
  172SOPE   C3919510   5.340   6.884   7.394 -0.7063 -0.3618  0.3483
  172SOPE   H9X19511   5.350   6.968   7.465  3.2383  0.4269 -0.9016
  172SOPE   H9Y19512   5.434   6.825   7.396 -0.8650 -0.6015  2.4660
  172SOPE  C31019513   5.250   6.779   7.452  0.4479 -0.0329 -0.8298
  172SOPE  H10X19514   5.211   6.701   7.383 -0.2047 -0.3866 -0.0839
  172SOPE  H10Y19515   5.165   6.837   7.494 -1.1382 -2.1759 -0.8953
  172SOPE  C31119516   5.310   6.700   7.580 -0.1815 -0.7603  0.4318
  172SOPE  H11X19517   5.406   6.653   7.549  0.0113  0.0256 -0.1749
  172SOPE  H11Y19518   5.228   6.632   7.612 -1.4653 -0.4929 -2.0595
  172SOPE  C31219519   5.337   6.799   7.699  0.0771  0.3444 -0.0743
  172SOPE  H12X19520   5.271   6.888   7.696 -2.4925 -1.4261  0.3583
  172SOPE  H12Y19521   5.442   6.833   7.684 -0.0695 -0.1144 -2.4564
  172SOPE  C31319522   5.339   6.736   7.839 -0.3829  0.1112 -0.1221
  172SOPE  H13X19523   5.405   6.646   7.841 -1.0503 -0.4090 -1.0457
  172SOPE  H13Y19524   5.234   6.714   7.868 -0.8008 -0.3456 -1.8683
  172SOPE  C31419525   5.389   6.837   7.947 -0.7682  0.0384  0.6816
  172SOPE  H14X19526   5.338   6.935   7.943 -0.8806  0.0503  2.1213
  172SOPE  H14Y19527   5.496   6.860   7.926 -0.8695  1.4743  1.6409
  172SOPE  C31519528   5.377   6.800   8.089  0.3090  0.2307 -0.3033
  172SOPE  H15X19529   5.431   6.705   8.110  1.3056  0.8868  0.1836
  172SOPE  H15Y19530   5.276   6.787   8.133  0.7129  0.0525  0.5989
  172SOPE  C31619531   5.441   6.910   8.180  0.0990  0.3808  0.6982
  172SOPE  H16X19532   5.378   7.000   8.164 -0.7717 -0.6087 -1.9668
  172SOPE  H16Y19533   5.546   6.930   8.149  0.2238  0.1815  0.9853
  172SOPE  C31719534   5.438   6.866   8.326  0.1889 -0.3395 -0.8588
  172SOPE  H17X19535   5.498   6.775   8.348 -0.9824 -0.9050  0.1389
  172SOPE  H17Y19536   5.334   6.831   8.344  0.2742  0.3659  1.2346
  172SOPE  C31819537   5.479   6.979   8.421 -0.3365  0.1155 -0.7074
  172SOPE  H18X19538   5.464   6.953   8.528  0.4958 -0.1343 -0.6432
  172SOPE  H18Y19539   5.427   7.076   8.404  0.4231  0.5481 -0.5637
  172SOPE  H18Z19540   5.585   7.007   8.405 -0.9279  3.3355  0.4327
  173SAPI   C1219541   1.219   6.656  10.565  0.4878 -0.8952 -0.0000
  173SAPI    H219542   1.219   6.735  10.487  0.0103  2.9986  3.5417
  173SAPI    O219543   1.123   6.691  10.657 -0.8078  0.3306 -0.5087
  173SAPI   HO219544   1.169   6.752  10.715  0.3703 -2.3785  1.6051
  173SAPI   C1319545   1.197   6.525  10.497 -0.7385 -0.0456  0.3614
  173SAPI    H319546   1.293   6.500  10.448 -0.2863 -0.5345  1.4443
  173SAPI    O319547   1.107   6.527  10.390 -0.0231  0.0246  0.0935
  173SAPI   HO319548   1.116   6.434  10.366 -1.2021 -0.2746  0.7573
  173SAPI   C1419549   1.177   6.420  10.605 -0.0582  0.0046  0.1921
  173SAPI    H419550   1.090   6.457  10.661 -1.6615 -0.1839 -2.0300
  173SAPI    O419551   1.147   6.291  10.558  0.0165 -0.2033  0.3735
  173SAPI   HO419552   1.112   6.240  10.631 -0.9070 -0.6584 -0.3608
  173SAPI   C1519553   1.299   6.415  10.697  0.2762 -0.4998 -0.0313
  173SAPI    H519554   1.387   6.377  10.640  2.4967  0.3431  2.5764
  173SAPI    O519555   1.273   6.337  10.810  0.2836  0.3769 -0.5214
  173SAPI   HO519556   1.317   6.258  10.779  1.0585  1.0225 -1.1200
  173SAPI   C1619557   1.338   6.555  10.751  0.3783 -0.2085  0.2048
  173SAPI    H619558   1.252   6.584  10.815 -0.0781 -1.8926  0.4100
  173SAPI    O619559   1.457   6.561  10.827  0.3256  0.1321  0.5895
  173SAPI   HO619560   1.445   6.635  10.887 -0.0604 -0.4500  1.2580
  173SAPI   C1119561   1.353   6.652  10.633  1.3111 -0.4283  0.5798
  173SAPI    H119562   1.430   6.609  10.566  0.5384 -1.7055  0.4644
  173SAPI     P19563   1.466   6.892  10.587 -0.3493  0.0176 -0.1883
  173SAPI   O1319564   1.605   6.832  10.580  0.3239 -0.2417 -0.4216
  173SAPI   O1419565   1.455   7.030  10.638  0.1156 -0.2828 -0.4320
  173SAPI   O1219566   1.374   6.788  10.675 -0.0996 -0.1910  0.5028
  173SAPI   O1119567   1.404   6.888  10.438 -0.2285 -0.4255  0.2291
  173SAPI    C119568   1.365   7.000  10.361 -0.7256 -0.5168 -0.1504
  173SAPI    HA19569   1.419   7.088  10.401 -0.6960 -0.4589 -0.3198
  173SAPI    HB19570   1.392   7.009  10.253  1.3823  1.7212  0.4649
  173SAPI    C219571   1.216   7.032  10.380 -0.0454  0.3375  0.4092
  173SAPI    HS19572   1.189   7.041  10.488 -0.2927  0.3546  0.3482
  173SAPI   O2119573   1.142   6.927  10.322  0.0082 -0.1662 -0.1845
  173SAPI   C2119574   1.009   6.914  10.355 -0.3453 -0.4591  0.4938
  173SAPI   O2219575   0.956   6.986  10.435 -0.1379 -0.3065 -0.1179
  173SAPI   C2219576   0.948   6.792  10.281 -0.2229 -0.4858  0.8385
  173SAPI   H2R19577   1.030   6.741  10.226 -0.5254  0.2009 -0.2937
  173SAPI   H2S19578   0.925   6.717  10.359  0.7636 -1.4333  0.2397
  173SAPI    C319579   1.178   7.169  10.315 -0.0788  0.0477 -0.4747
  173SAPI    HX19580   1.241   7.246  10.365 -2.4624  0.8442  1.4804
  173SAPI    HY19581   1.074   7.196  10.343 -0.1309  0.7962 -1.3378
  173SAPI   O3119582   1.202   7.171  10.173 -0.1644  0.2306 -0.1119
  173SAPI   C3119583   1.104   7.214  10.097 -0.0744 -0.0230 -0.2737
  173SAPI   O3219584   1.018   7.295  10.129 -0.3392 -0.6950 -0.4017
  173SAPI   C3219585   1.116   7.161   9.947  0.5985 -0.2215  0.2453
  173SAPI   H2X19586   1.096   7.053   9.956 -0.9572  0.1891  2.5718
  173SAPI   H2Y19587   1.219   7.181   9.910  0.8492  0.3951  1.2191
  173SAPI   C2319588   0.825   6.834  10.190 -0.1262  0.3479  0.2260
  173SAPI   H3R19589   0.791   6.748  10.127 -1.2901  1.0303 -0.0966
  173SAPI   H3S19590   0.859   6.918  10.125 -3.0560 -0.8038 -3.1180
  173SAPI   C2419591   0.700   6.893  10.264 -0.7545 -0.5096  0.0995
  173SAPI   H4R19592   0.660   6.970  10.194  0.8872 -0.2571 -0.6271
  173SAPI   H4S19593   0.737   6.952  10.350  0.2243 -1.3755  0.2943
  173SAPI   C2519594   0.598   6.787  10.300 -0.3998  0.0103 -0.7708
  173SAPI   H5R19595   0.596   6.745  10.401 -0.6039 -0.8832 -1.1368
  173SAPI   C2619596   0.508   6.739  10.214  0.5962 -0.4716 -0.2945
  173SAPI   H6R19597   0.447   6.654  10.249  0.8267 -0.6486 -0.3191
  173SAPI   C2719598   0.485   6.772  10.068  0.0197 -0.6627 -0.0111
  173SAPI   H7R19599   0.570   6.826  10.021  0.1152 -1.1046 -0.3538
  173SAPI   H7S19600   0.400   6.844  10.059 -0.7864 -1.3660  1.6254
  173SAPI   C2819601   0.474   6.637  10.004  0.2320  0.2054 -0.0619
  173SAPI   H8R19602   0.546   6.566  10.047 -0.3873 -0.7831 -0.6171
  173SAPI   C2919603   0.391   6.586   9.908 -0.3675  0.5044 -0.3131
  173SAPI   H9R19604   0.410   6.486   9.866 -0.0065  0.3029  0.3143
  173SAPI  C21019605   0.279   6.660   9.843 -0.4187  0.1284  0.4990
  173SAPI  H10R19606   0.306   6.676   9.736 -0.2059 -0.6582  0.4296
  173SAPI  H10S19607   0.269   6.765   9.880 -0.5518  0.1407  0.4314
  173SAPI  C21119608   0.147   6.603   9.853  0.4592 -0.1375  0.6105
  173SAPI  H11R19609   0.094   6.609   9.949 -0.7565 -1.7722  0.0886
  173SAPI  C21219610   0.075   6.541   9.755 -0.6180  0.3878  0.6790
  173SAPI  H12R19611  -0.025   6.504   9.784 -2.0049  2.2240 -1.4363
  173SAPI  C21319612   0.110   6.518   9.614 -0.6694  0.7525 -0.4355
  173SAPI  H13R19613   0.167   6.423   9.611 -0.3779  0.9369 -0.8172
  173SAPI  H13S19614   0.181   6.597   9.584 -1.2462  1.1182 -0.8607
  173SAPI  C21419615  -0.012   6.512   9.526  0.2998  0.3698 -0.4091
  173SAPI  H14R19616  -0.110   6.505   9.574  0.2599  0.7080 -0.4445
  173SAPI  C21519617  -0.012   6.522   9.389  0.4495  0.6327 -0.1951
  173SAPI  H15R19618  -0.107   6.531   9.334 -0.1013  1.5418  0.8759
  173SAPI  C21619619   0.107   6.533   9.304 -0.1432  0.2817 -0.0168
  173SAPI  H16R19620   0.202   6.551   9.359 -0.5758 -0.5639  1.0480
  173SAPI  H16S19621   0.092   6.619   9.236  1.3995  0.1357 -0.6084
  173SAPI  C21719622   0.144   6.418   9.211 -0.7869 -0.6544  0.2113
  173SAPI  H17R19623   0.237   6.441   9.153 -1.5180  1.6580 -0.1414
  173SAPI  H17S19624   0.059   6.393   9.144  1.4432 -3.7430 -1.7896
  173SAPI  C21819625   0.189   6.294   9.285  0.6136 -0.3332 -0.0302
  173SAPI  H18R19626   0.102   6.251   9.339 -0.3542  0.6722 -0.7509
  173SAPI  H18S19627   0.278   6.322   9.345  0.9826 -2.9731  0.8043
  173SAPI  C21919628   0.222   6.177   9.193  0.5007  0.2913 -0.4064
  173SAPI  H19R19629   0.128   6.160   9.136 -0.0939 -0.0105  0.6463
  173SAPI  H19S19630   0.244   6.088   9.255  0.7467 -0.0604 -0.9889
  173SAPI  C22019631   0.353   6.202   9.107 -0.4257 -1.0246  0.0922
  173SAPI  H20R19632   0.437   6.200   9.180  1.7475  3.0438 -1.9825
  173SAPI  H20S19633   0.348   6.299   9.053  2.7566 -0.1337  1.1577
  173SAPI  H20T19634   0.368   6.124   9.030 -0.2178 -1.0368  0.1459
  173SAPI   C3319635   1.018   7.225   9.840 -0.4454 -0.0488  0.1574
  173SAPI   H3X19636   1.040   7.334   9.852  0.5086 -0.0689 -1.1915
  173SAPI   H3Y19637   0.917   7.193   9.871 -0.2139 -0.9908 -0.0278
  173SAPI   C3419638   1.047   7.184   9.696 -0.4166 -0.3113  0.6296
  173SAPI   H4X19639   1.149   7.226   9.681 -0.1114  0.0314  3.2575
  173SAPI   H4Y19640   0.982   7.247   9.631  1.4882  2.7792  1.4725
  173SAPI   C3519641   1.032   7.033   9.674 -0.2132  0.0034  0.2161
  173SAPI   H5X19642   0.925   7.004   9.684  0.3145 -1.5599  2.0098
  173SAPI   H5Y19643   1.106   6.988   9.744  1.1875  1.7679 -0.0822
  173SAPI   C3619644   1.088   6.991   9.535 -0.1571 -0.2422  0.1566
  173SAPI   H6X19645   1.137   6.892   9.548 -2.7062 -1.5747  0.3512
  173SAPI   H6Y19646   1.147   7.076   9.496  0.2378 -0.7373 -0.3421
  173SAPI   C3719647   0.972   6.962   9.437 -0.1287 -0.2341 -0.5065
  173SAPI   H7X19648   0.901   7.047   9.443 -2.2821 -1.9511 -0.6611
  173SAPI   H7Y19649   0.934   6.867   9.480 -0.2943 -0.6372 -1.5151
  173SAPI   C3819650   1.008   6.936   9.290  0.4704 -0.2640 -0.0284
  173SAPI   H8X19651   1.079   6.851   9.286 -0.3768 -0.9436 -2.0276
  173SAPI   H8Y19652   1.054   7.022   9.235 -1.0190  0.0533 -0.8479
  173SAPI   C3919653   0.873   6.903   9.219 -0.8880 -0.9824 -0.7676
  173SAPI   H9X19654   0.801   6.971   9.268 -2.7210 -0.0501 -4.3806
  173SAPI   H9Y19655   0.853   6.802   9.258  0.4268 -0.7278  0.6688
  173SAPI  C31019656   0.864   6.910   9.068 -0.0744  0.7100  0.0179
  173SAPI  H10X19657   0.824   7.007   9.032 -1.2463 -0.0478 -0.7858
  173SAPI  H10Y19658   0.784   6.834   9.053  0.4200  0.1687  0.0774
  173SAPI  C31119659   0.985   6.856   8.994 -0.3327 -0.5662 -0.1753
  173SAPI  H11X19660   1.003   6.754   9.031 -2.2493 -0.9406 -0.1577
  173SAPI  H11Y19661   1.078   6.914   9.016 -0.8591 -0.3660  1.7092
  173SAPI  C31219662   0.963   6.858   8.843 -0.0418 -0.1338 -0.4582
  173SAPI  H12X19663   0.920   6.955   8.810 -3.7644 -1.4041  0.2403
  173SAPI  H12Y19664   0.884   6.790   8.806 -1.6024  0.5911  1.3735
  173SAPI  C31319665   1.089   6.841   8.765 -0.1232 -0.1105  0.6941
  173SAPI  H13X19666   1.171   6.908   8.799  0.7552 -0.0803 -1.3453
  173SAPI  H13Y19667   1.063   6.865   8.659  2.0416  0.1178  0.1661
  173SAPI  C31419668   1.150   6.699   8.755  0.1045  0.3177 -0.2891
  173SAPI  H14X19669   1.077   6.625   8.716 -0.7762  0.6171  0.7525
  173SAPI  H14Y19670   1.170   6.674   8.861  0.8854 -1.3078 -0.7862
  173SAPI  C31519671   1.288   6.700   8.680  0.8395 -0.4742 -0.0641
  173SAPI  H15X19672   1.350   6.780   8.727  2.1128 -1.0109 -0.8022
  173SAPI  H15Y19673   1.271   6.734   8.576  0.8305  2.1801  0.7048
  173SAPI  C31619674   1.365   6.569   8.684 -0.6219 -0.2053 -0.0737
  173SAPI  H16X19675   1.281   6.501   8.656 -0.4796  0.5855 -2.6734
  173SAPI  H16Y19676   1.401   6.547   8.786 -1.7842  2.3739  0.9606
  173SAPI  C31719677   1.455   6.528   8.569 -0.5894 -0.0376  0.1726
  173SAPI  H17X19678   1.550   6.583   8.586  0.5061 -1.3914 -1.2811
  173SAPI  H17Y19679   1.408   6.558   8.473 -0.6155 -1.0023 -0.1264
  173SAPI  C31819680   1.493   6.389   8.569 -0.0790  1.1697 -0.5164
  173SAPI  H18X19681   1.530   6.363   8.670  1.6498 -0.8021 -1.5741
  173SAPI  H18Y19682   1.567   6.369   8.489  0.3588 -2.1750  0.5704
  173SAPI  H18Z19683   1.399   6.336   8.542 -0.6089  0.2054  2.8050
  174SAPI   C1219684   3.855   4.525  10.852 -0.3130 -0.2492 -0.1181
  174SAPI    H219685   3.821   4.509  10.747 -4.5284 -0.6576  1.1110
  174SAPI    O219686   3.837   4.662  10.878 -0.4262  0.6435 -0.6677
  174SAPI   HO219687   3.909   4.713  10.839 -0.8426 -0.9837 -3.8811
  174SAPI   C1319688   3.770   4.432  10.933  0.0627  0.6130  0.4426
  174SAPI    H319689   3.791   4.324  10.920 -0.0252  0.6771 -0.2637
  174SAPI    O319690   3.630   4.458  10.905 -0.1410 -0.2228  0.1058
  174SAPI   HO319691   3.613   4.544  10.945  1.1088 -0.0690  0.3557
  174SAPI   C1419692   3.805   4.465  11.075 -0.5397  0.2916  0.0089
  174SAPI    H419693   3.801   4.574  11.094  2.1755  0.0949  2.4285
  174SAPI    O419694   3.728   4.391  11.166  0.0405 -0.2045  0.2399
  174SAPI   HO419695   3.743   4.430  11.252 -0.5245  0.6456 -0.0351
  174SAPI   C1519696   3.958   4.447  11.104 -0.2444  0.2105  0.3074
  174SAPI    H519697   3.979   4.338  11.097 -0.4816  0.2502 -1.7616
  174SAPI    O519698   3.982   4.479  11.241  0.8923  0.3164  0.4680
  174SAPI   HO519699   4.001   4.572  11.256  1.2629 -0.0215  2.2890
  174SAPI   C1619700   4.039   4.517  11.006  0.2596 -0.2680  0.0498
  174SAPI    H619701   4.034   4.627  11.018  0.2822 -0.0974 -1.2938
  174SAPI    O619702   4.177   4.480  11.025  0.2668  0.1704  0.1526
  174SAPI   HO619703   4.183   4.384  11.017  0.1953  0.1867 -0.1124
  174SAPI   C1119704   4.001   4.492  10.865 -0.0716  0.0927  0.2539
  174SAPI    H119705   4.004   4.387  10.828  1.8048  0.6033 -1.1926
  174SAPI     P19706   4.137   4.531  10.634 -0.4370  0.3899 -0.2001
  174SAPI   O1319707   4.170   4.384  10.639  0.2105  0.0190  0.0815
  174SAPI   O1419708   4.250   4.618  10.601 -0.2285  0.3494  0.3512
  174SAPI   O1219709   4.080   4.578  10.781 -0.4801  0.2973 -0.4625
  174SAPI   O1119710   4.011   4.534  10.539  0.3753 -0.7861 -0.9589
  174SAPI    C119711   3.941   4.656  10.523  0.5667  0.7753 -0.1832
  174SAPI    HA19712   3.850   4.655  10.586  1.1925  0.1516  0.7226
  174SAPI    HB19713   4.007   4.741  10.550  0.0203  0.8275  1.0295
  174SAPI    C219714   3.895   4.681  10.378 -0.1112  0.2374 -0.0244
  174SAPI    HS19715   3.807   4.614  10.362  1.2418 -1.4946 -0.4397
  174SAPI   O2119716   4.000   4.658  10.282  0.1412  0.1408  0.0752
  174SAPI   C2119717   4.018   4.526  10.255 -0.5661 -0.9364  0.3142
  174SAPI   O2219718   3.937   4.441  10.277  0.9296  0.1745 -0.3355
  174SAPI   C2219719   4.151   4.510  10.170 -0.6771 -0.0998  0.0009
  174SAPI   H2R19720   4.195   4.611  10.154  0.9839 -0.7555  0.2246
  174SAPI   H2S19721   4.225   4.458  10.234  0.0647  2.4511  1.3463
  174SAPI    C319722   3.847   4.826  10.372  0.2112  0.6765  0.0118
  174SAPI    HX19723   3.920   4.905  10.343 -0.5275  1.5639  0.5321
  174SAPI    HY19724   3.802   4.859  10.468 -2.0761 -0.2584 -0.6742
  174SAPI   O3119725   3.759   4.842  10.255 -0.2806  0.2672  0.0455
  174SAPI   C3119726   3.632   4.832  10.285 -0.3825  0.1286 -0.2062
  174SAPI   O3219727   3.588   4.778  10.389 -0.2044 -0.3648  0.0663
  174SAPI   C3219728   3.547   4.896  10.184  0.2537  0.1760  0.0193
  174SAPI   H2X19729   3.614   4.973  10.141  1.0697 -0.4791  0.0705
  174SAPI   H2Y19730   3.458   4.943  10.230  1.0213  0.7040  1.0002
  174SAPI   C2319731   4.144   4.445  10.033 -0.2831 -0.2325 -0.5745
  174SAPI   H3R19732   4.101   4.343  10.047  0.0934 -0.0464  3.0550
  174SAPI   H3S19733   4.243   4.453   9.983 -1.7319  1.5045 -3.4086
  174SAPI   C2419734   4.049   4.530   9.937 -0.5608  0.0928  0.5824
  174SAPI   H4R19735   4.085   4.509   9.835  0.9335  3.8594  0.1863
  174SAPI   H4S19736   4.075   4.634   9.965 -2.2251  1.0638 -1.2691
  174SAPI   C2519737   3.897   4.508   9.952  0.3077 -0.1298  0.0179
  174SAPI   H5R19738   3.854   4.538  10.048 -1.3261 -1.4762 -0.2397
  174SAPI   C2619739   3.814   4.456   9.860  0.5703  0.2006 -0.3294
  174SAPI   H6R19740   3.711   4.430   9.888 -0.0133  1.4401 -1.2564
  174SAPI   C2719741   3.842   4.408   9.723 -0.0722 -0.2574  0.7033
  174SAPI   H7R19742   3.766   4.329   9.704  1.4746 -1.6519  0.0146
  174SAPI   H7S19743   3.937   4.350   9.718 -0.4143 -0.8722  1.1631
  174SAPI   C2819744   3.846   4.514   9.611 -0.1170  0.3748  0.7958
  174SAPI   H8R19745   3.849   4.616   9.652 -1.5436  1.0994 -0.7801
  174SAPI   C2919746   3.841   4.504   9.478 -0.7497 -0.3436 -0.1011
  174SAPI   H9R19747   3.854   4.598   9.422  2.3509 -1.5371 -1.5915
  174SAPI  C21019748   3.827   4.383   9.392 -0.3177  0.2340 -0.0740
  174SAPI  H10R19749   3.791   4.304   9.462 -1.2138 -1.4059 -2.2523
  174SAPI  H10S19750   3.924   4.347   9.350 -1.2737  0.6033 -2.8179
  174SAPI  C21119751   3.722   4.399   9.285 -0.5189 -0.6508  0.7481
  174SAPI  H11R19752   3.618   4.386   9.317 -0.1483 -0.3716  2.0967
  174SAPI  C21219753   3.751   4.427   9.153  0.2882  0.8357  0.0024
  174SAPI  H12R19754   3.672   4.442   9.077 -0.5748  1.3250  0.9714
  174SAPI  C21319755   3.887   4.447   9.093  0.3582 -0.5813 -0.1265
  174SAPI  H13R19756   3.882   4.412   8.988  1.3361 -1.2873  0.0468
  174SAPI  H13S19757   3.950   4.379   9.154 -1.2451 -0.0724  2.2556
  174SAPI  C21419758   3.935   4.594   9.093 -0.0428  1.1441 -0.6318
  174SAPI  H14R19759   3.855   4.670   9.093 -1.2451 -0.0806 -1.3865
  174SAPI  C21519760   4.067   4.639   9.101  0.1701 -0.2173  0.6900
  174SAPI  H15R19761   4.091   4.746   9.090  1.2404 -0.6021 -1.0460
  174SAPI  C21619762   4.197   4.554   9.097 -0.0893 -0.0764  0.3268
  174SAPI  H16R19763   4.245   4.556   8.997  0.5822  0.9280  0.6539
  174SAPI  H16S19764   4.164   4.451   9.124 -0.0148  0.0267  0.8008
  174SAPI  C21719765   4.308   4.608   9.188 -0.1490  0.1792 -0.1380
  174SAPI  H17R19766   4.325   4.716   9.168 -1.9240  0.0175 -3.0732
  174SAPI  H17S19767   4.398   4.559   9.146  0.4712  0.6566  0.6184
  174SAPI  C21819768   4.294   4.560   9.334  0.5534 -0.2189 -0.6127
  174SAPI  H18R19769   4.395   4.572   9.381 -0.3426  3.1881  0.7281
  174SAPI  H18S19770   4.265   4.453   9.332 -0.6285  0.0361  0.8940
  174SAPI  C21919771   4.186   4.640   9.412 -0.4010  0.6639  0.0595
  174SAPI  H19R19772   4.086   4.642   9.363 -0.1896  0.0874 -0.3986
  174SAPI  H19S19773   4.213   4.748   9.417 -3.9605  1.6397  1.6742
  174SAPI  C22019774   4.179   4.608   9.562  0.0716  0.9184  0.0306
  174SAPI  H20R19775   4.110   4.678   9.614 -1.0930 -0.7618  0.8368
  174SAPI  H20S19776   4.275   4.610   9.617  0.0137 -1.4276  0.3166
  174SAPI  H20T19777   4.127   4.510   9.576  3.2193 -0.6863  1.6013
  174SAPI   C3319778   3.501   4.795  10.088  1.0800 -0.7332  0.2547
  174SAPI   H3X19779   3.423   4.732  10.136 -0.2956  0.2184 -0.6704
  174SAPI   H3Y19780   3.575   4.722  10.050  0.3255 -0.7452 -1.2796
  174SAPI   C3419781   3.439   4.862   9.966 -0.0927 -0.0702  0.0953
  174SAPI   H4X19782   3.511   4.931   9.918 -0.1576  1.5075  2.1413
  174SAPI   H4Y19783   3.352   4.922  10.000  1.8469  3.3740 -0.6327
  174SAPI   C3519784   3.384   4.761   9.857 -0.1220 -0.4282 -0.2361
  174SAPI   H5X19785   3.282   4.729   9.884 -1.2868 -1.0971 -4.6352
  174SAPI   H5Y19786   3.455   4.675   9.857 -0.7953 -0.9933  0.0624
  174SAPI   C3619787   3.372   4.810   9.718 -0.3106 -0.5759 -0.7338
  174SAPI   H6X19788   3.305   4.899   9.713  0.5521  0.0664 -1.2545
  174SAPI   H6Y19789   3.308   4.746   9.655 -0.7672  0.9909 -1.9335
  174SAPI   C3719790   3.510   4.830   9.643  0.1605 -0.0690  0.2373
  174SAPI   H7X19791   3.563   4.735   9.622 -1.3340 -1.4185  2.2181
  174SAPI   H7Y19792   3.577   4.878   9.717  0.9591 -1.6692  0.5782
  174SAPI   C3819793   3.497   4.916   9.523 -1.0276 -0.1157 -1.0336
  174SAPI   H8X19794   3.590   4.968   9.492  1.5006 -3.6941 -0.0288
  174SAPI   H8Y19795   3.422   4.993   9.551 -1.0090 -0.2796 -0.5175
  174SAPI   C3919796   3.451   4.852   9.393 -0.3895 -0.3445 -0.3733
  174SAPI   H9X19797   3.425   4.935   9.324  0.1300 -0.0821 -0.2598
  174SAPI   H9Y19798   3.365   4.789   9.424  0.3972 -0.9826  0.5432
  174SAPI  C31019799   3.552   4.771   9.328  0.1333  0.3108  0.7339
  174SAPI  H10X19800   3.596   4.694   9.395  1.0913  0.0534 -0.1711
  174SAPI  H10Y19801   3.636   4.838   9.301 -0.2652  0.3437 -0.4822
  174SAPI  C31119802   3.503   4.700   9.197 -0.2541  0.1370  0.1250
  174SAPI  H11X19803   3.426   4.629   9.233  1.2693 -0.7617  1.7458
  174SAPI  H11Y19804   3.593   4.656   9.149  0.0054  2.0908 -1.3038
  174SAPI  C31219805   3.453   4.800   9.094  0.4654 -0.2422  0.2250
  174SAPI  H12X19806   3.520   4.886   9.072  1.2191 -0.7050  0.6963
  174SAPI  H12Y19807   3.361   4.842   9.141  0.0537 -0.0050 -0.7594
  174SAPI  C31319808   3.415   4.742   8.953 -0.2688 -0.4300  0.4049
  174SAPI  H13X19809   3.366   4.643   8.965 -0.0554 -0.6267 -0.3252
  174SAPI  H13Y19810   3.511   4.721   8.901 -1.0816 -2.1552 -0.4451
  174SAPI  C31419811   3.324   4.837   8.867 -0.3452  0.7825  0.7682
  174SAPI  H14X19812   3.384   4.923   8.830 -1.4896  1.2823  0.0220
  174SAPI  H14Y19813   3.250   4.877   8.939  1.8951  1.6046  2.7508
  174SAPI  C31519814   3.270   4.770   8.737  0.5897 -0.7065 -0.3179
  174SAPI  H15X19815   3.210   4.679   8.758  1.2184 -1.2638 -0.9050
  174SAPI  H15Y19816   3.352   4.730   8.673 -0.4269 -0.8008 -1.6042
  174SAPI  C31619817   3.189   4.872   8.650  0.2407 -0.1049 -0.0121
  174SAPI  H16X19818   3.253   4.960   8.626  1.0146 -0.2585  1.3506
  174SAPI  H16Y19819   3.107   4.898   8.721  1.0198 -1.0513  1.2869
  174SAPI  C31719820   3.134   4.810   8.532 -0.0192 -0.6004 -0.3153
  174SAPI  H17X19821   3.060   4.880   8.489  1.5594  0.6837 -1.0836
  174SAPI  H17Y19822   3.070   4.724   8.558 -1.0255 -0.0471 -0.9159
  174SAPI  C31819823   3.239   4.771   8.425 -0.1944  0.6607  0.3983
  174SAPI  H18X19824   3.291   4.675   8.445  0.6584  0.6665 -1.6280
  174SAPI  H18Y19825   3.308   4.857   8.415  1.7270 -0.9767 -1.2891
  174SAPI  H18Z19826   3.189   4.761   8.327 -0.1335  1.0610  0.3229
  175SAPI   C1219827   0.161   5.781   6.427  0.4906 -0.1246 -0.0871
  175SAPI    H219828   0.088   5.863   6.444  2.5807  1.6931  0.6206
  175SAPI    O219829   0.215   5.805   6.299 -0.7862  0.0570  0.2732
  175SAPI   HO219830   0.293   5.858   6.315  0.2645 -1.4772  0.3592
  175SAPI   C1319831   0.272   5.809   6.528 -0.9713  0.0447 -0.4944
  175SAPI    H319832   0.218   5.809   6.626 -1.0876  0.9147 -0.5494
  175SAPI    O319833   0.330   5.937   6.501  0.5200 -0.1142 -0.2167
  175SAPI   HO319834   0.361   5.971   6.585  1.8134 -1.7649  0.0337
  175SAPI   C1419835   0.372   5.698   6.527 -0.9503 -0.5127 -0.5101
  175SAPI    H419836   0.414   5.700   6.424  0.2989  1.6670  0.0032
  175SAPI    O419837   0.483   5.727   6.609 -0.2818 -0.0913  0.5909
  175SAPI   HO419838   0.560   5.681   6.574 -1.8886 -2.3823 -0.1110
  175SAPI   C1519839   0.316   5.556   6.545  0.1433 -0.2412  0.2444
  175SAPI    H519840   0.273   5.550   6.647 -2.3544  0.7351 -0.6616
  175SAPI    O519841   0.414   5.460   6.527 -1.0560  0.1328  0.2222
  175SAPI   HO519842   0.488   5.489   6.474 -0.4090 -1.6140  0.0901
  175SAPI   C1619843   0.198   5.530   6.448  0.1596 -0.0687 -0.1553
  175SAPI    H619844   0.235   5.511   6.346 -1.0340 -1.0304 -0.4293
  175SAPI    O619845   0.128   5.407   6.473  0.1055 -0.2861 -0.0789
  175SAPI   HO619846   0.034   5.416   6.453 -0.2862 -0.8536  1.3584
  175SAPI   C1119847   0.101   5.640   6.455  0.6213 -0.5782 -0.5218
  175SAPI    H119848   0.064   5.639   6.560 -1.2404 -0.0824 -1.1267
  175SAPI     P19849  -0.160   5.617   6.413 -0.0766  0.3933  0.2912
  175SAPI   O1319850  -0.248   5.626   6.291 -0.3005  0.0229  0.2237
  175SAPI   O1419851  -0.190   5.713   6.530 -0.5000  0.3272 -0.2975
  175SAPI   O1219852  -0.011   5.631   6.359 -0.2393  0.1207  0.5627
  175SAPI   O1119853  -0.146   5.464   6.467 -0.1289 -0.1247  0.3207
  175SAPI    C119854  -0.232   5.424   6.573 -0.4006 -0.4065 -0.4320
  175SAPI    HA19855  -0.327   5.482   6.573  0.4407  1.0617 -1.7219
  175SAPI    HB19856  -0.264   5.319   6.554 -1.7570 -0.1641  0.3885
  175SAPI    C219857  -0.172   5.457   6.714  0.4169 -0.2020  0.8435
  175SAPI    HS19858  -0.163   5.566   6.732  2.6659 -0.5100  2.0876
  175SAPI   O2119859  -0.040   5.391   6.728  0.0767  0.3250 -0.1221
  175SAPI   C2119860   0.045   5.458   6.803  0.3463  0.4314 -0.4180
  175SAPI   O2219861   0.034   5.572   6.845  0.2286 -0.3781  0.1630
  175SAPI   C2219862   0.170   5.371   6.832 -0.1463  0.6391 -0.1454
  175SAPI   H2R19863   0.136   5.266   6.842  1.5577  0.1547  1.2006
  175SAPI   H2S19864   0.239   5.379   6.746 -1.3632  0.4134 -1.1598
  175SAPI    C319865  -0.276   5.411   6.822  0.1866 -0.7408 -0.1211
  175SAPI    HX19866  -0.293   5.303   6.802 -3.7609  0.0658 -2.2006
  175SAPI    HY19867  -0.373   5.464   6.806 -0.0849 -0.5610  1.8831
  175SAPI   O3119868  -0.231   5.431   6.958  0.1045  0.0171 -0.5579
  175SAPI   C3119869  -0.241   5.560   7.010  0.3516  0.0501 -0.3577
  175SAPI   O3219870  -0.304   5.650   6.958  0.0312  0.7349 -0.0443
  175SAPI   C3219871  -0.170   5.564   7.141 -0.5529  0.2049 -0.6520
  175SAPI   H2X19872  -0.149   5.670   7.167  2.3562 -0.3482 -0.3759
  175SAPI   H2Y19873  -0.071   5.517   7.121  1.0436  2.5571  1.1404
  175SAPI   C2319874   0.229   5.404   6.973 -0.0810 -0.9678 -0.0946
  175SAPI   H3R19875   0.221   5.514   6.990 -0.4051 -0.7510 -1.5274
  175SAPI   H3S19876   0.338   5.384   6.971  0.1961  0.3919  0.1801
  175SAPI   C2419877   0.165   5.336   7.092  0.4657 -0.3617 -0.1293
  175SAPI   H4R19878   0.061   5.308   7.065  0.4758 -1.2373  0.6662
  175SAPI   H4S19879   0.142   5.408   7.173 -1.2492 -1.2676  0.2380
  175SAPI   C2519880   0.251   5.212   7.122 -0.1027  0.2040  0.5755
  175SAPI   H5R19881   0.265   5.136   7.044  0.6403 -1.1897  1.9996
  175SAPI   C2619882   0.318   5.197   7.237  0.4300  1.1645 -0.1634
  175SAPI   H6R19883   0.376   5.104   7.245 -1.1784  0.2271  1.3120
  175SAPI   C2719884   0.325   5.282   7.363 -0.3424 -0.7186  0.3365
  175SAPI   H7R19885   0.336   5.389   7.334  0.3604 -0.1553  2.4747
  175SAPI   H7S19886   0.423   5.274   7.416  0.4011  0.2407 -0.8485
  175SAPI   C2819887   0.201   5.251   7.441 -0.0109 -0.5366  0.4612
  175SAPI   H8R19888   0.104   5.243   7.390 -0.4523  0.5169  1.0940
  175SAPI   C2919889   0.194   5.225   7.568 -0.3221  0.7979 -0.5412
  175SAPI   H9R19890   0.099   5.198   7.616  0.9160 -1.5303  0.7618
  175SAPI  C21019891   0.313   5.212   7.659  0.0509 -0.6562  0.5674
  175SAPI  H10R19892   0.273   5.221   7.763 -2.3674 -0.6770 -0.2907
  175SAPI  H10S19893   0.377   5.302   7.649  0.5883 -0.8841  1.8121
  175SAPI  C21119894   0.398   5.085   7.628  0.4627 -0.4925  0.3527
  175SAPI  H11R19895   0.451   5.084   7.532  2.1557 -0.7888  1.2557
  175SAPI  C21219896   0.409   4.974   7.700 -0.2342  0.2304 -0.1755
  175SAPI  H12R19897   0.479   4.897   7.665 -1.3404 -0.7255 -0.3634
  175SAPI  C21319898   0.338   4.928   7.824  0.0742 -0.9248 -0.0441
  175SAPI  H13R19899   0.237   4.970   7.806  0.4918 -0.6665 -2.0106
  175SAPI  H13S19900   0.387   4.979   7.910 -0.0626 -1.2315  0.2190
  175SAPI  C21419901   0.332   4.772   7.831 -0.7985 -0.1698  0.3308
  175SAPI  H14R19902   0.282   4.715   7.751  0.9382 -1.4719  0.1018
  175SAPI  C21519903   0.392   4.701   7.935  1.1086  0.6359  0.6924
  175SAPI  H15R19904   0.373   4.593   7.936 -0.1266  0.8305  1.1441
  175SAPI  C21619905   0.458   4.744   8.059  0.4025 -0.6641  0.4747
  175SAPI  H16R19906   0.381   4.808   8.107 -0.5744 -2.5848  1.5864
  175SAPI  H16S19907   0.553   4.796   8.035 -0.1999 -1.2803 -4.1647
  175SAPI  C21719908   0.489   4.621   8.144 -0.8601 -0.3417 -0.7014
  175SAPI  H17R19909   0.589   4.586   8.109 -1.0667 -1.6693 -0.0314
  175SAPI  H17S19910   0.420   4.534   8.136 -0.3072 -0.6701 -2.2191
  175SAPI  C21819911   0.475   4.652   8.292  0.0374  0.2893  0.5202
  175SAPI  H18R19912   0.482   4.555   8.346  0.6486 -0.6113 -1.1118
  175SAPI  H18S19913   0.372   4.687   8.313  0.3400  2.5988 -1.4021
  175SAPI  C21919914   0.576   4.757   8.343  0.2553  0.0890 -0.2692
  175SAPI  H19R19915   0.555   4.854   8.295 -1.2217  0.3051  0.7574
  175SAPI  H19S19916   0.678   4.730   8.307  0.8276  1.2348  0.4401
  175SAPI  C22019917   0.572   4.780   8.495 -0.0541 -0.4866  0.4124
  175SAPI  H20R19918   0.471   4.800   8.539 -0.5548 -0.3446 -0.7678
  175SAPI  H20S19919   0.630   4.869   8.528  0.1737 -0.5280  0.1199
  175SAPI  H20T19920   0.609   4.679   8.524 -3.4635 -2.3457 -1.0781
  175SAPI   C3319921  -0.245   5.500   7.259  1.0385  0.2661  0.2703
  175SAPI   H3X19922  -0.264   5.393   7.235  0.3002  0.4701 -0.0714
  175SAPI   H3Y19923  -0.345   5.548   7.263  0.5552 -0.7578  1.3925
  175SAPI   C3419924  -0.178   5.501   7.404  0.4953  0.0585 -0.2191
  175SAPI   H4X19925  -0.166   5.609   7.429  2.2501 -0.1259 -0.1672
  175SAPI   H4Y19926  -0.079   5.451   7.404 -0.1912 -1.4005 -1.7990
  175SAPI   C3519927  -0.277   5.447   7.509  0.5444  0.2296 -0.2975
  175SAPI   H5X19928  -0.345   5.380   7.453 -0.9771  1.0786  0.4463
  175SAPI   H5Y19929  -0.344   5.528   7.547 -0.3563 -0.9114  0.6088
  175SAPI   C3619930  -0.212   5.369   7.616  0.0265 -0.4570  0.3443
  175SAPI   H6X19931  -0.162   5.291   7.556 -0.9174 -0.3399 -0.6322
  175SAPI   H6Y19932  -0.287   5.321   7.682  0.6354 -0.1007  1.3028
  175SAPI   C3719933  -0.117   5.448   7.707 -0.1882  0.1338 -0.5276
  175SAPI   H7X19934  -0.169   5.538   7.747 -2.5838 -1.7241  0.8368
  175SAPI   H7Y19935  -0.040   5.503   7.650  0.4156 -0.5168 -0.3568
  175SAPI   C3819936  -0.057   5.373   7.833  0.1273 -1.0111 -0.1391
  175SAPI   H8X19937  -0.035   5.270   7.798 -1.4809 -1.3470 -0.2193
  175SAPI   H8Y19938  -0.135   5.343   7.906 -0.8398  2.9585  0.7125
  175SAPI   C3919939   0.067   5.430   7.891 -0.0280  0.6803 -0.2485
  175SAPI   H9X19940   0.048   5.538   7.907  1.6393  0.8299  0.9862
  175SAPI   H9Y19941   0.155   5.432   7.824  0.3711 -1.4370  0.1337
  175SAPI  C31019942   0.107   5.366   8.021 -0.0611 -0.2744 -0.6328
  175SAPI  H10X19943   0.078   5.259   8.026 -1.3286  0.0893  0.7023
  175SAPI  H10Y19944   0.067   5.416   8.112 -0.4942  0.0638 -1.0082
  175SAPI  C31119945   0.258   5.384   8.050 -0.3411  0.0258  0.0157
  175SAPI  H11X19946   0.294   5.489   8.052 -0.3036  0.0173 -0.2075
  175SAPI  H11Y19947   0.312   5.334   7.967  0.5456  0.9240  0.0373
  175SAPI  C31219948   0.302   5.328   8.191  0.3572 -0.5178  0.3109
  175SAPI  H12X19949   0.229   5.363   8.266  0.8561  1.4251 -0.0542
  175SAPI  H12Y19950   0.407   5.357   8.213 -0.1127  3.7134 -2.0067
  175SAPI  C31319951   0.303   5.172   8.200  0.3673  0.0227 -0.2604
  175SAPI  H13X19952   0.381   5.125   8.137  0.0023 -0.3236 -0.4602
  175SAPI  H13Y19953   0.204   5.160   8.151 -0.3130 -0.0325  1.0841
  175SAPI  C31419954   0.307   5.122   8.338  0.7750 -0.0117 -0.2202
  175SAPI  H14X19955   0.350   5.193   8.412  0.7984  0.0075 -0.2526
  175SAPI  H14Y19956   0.354   5.021   8.342  1.4408  0.2909 -0.1709
  175SAPI  C31519957   0.165   5.099   8.390  0.0761 -0.3613  0.3405
  175SAPI  H15X19958   0.114   5.025   8.324  0.3955 -0.4859  0.2301
  175SAPI  H15Y19959   0.105   5.192   8.379 -2.8323 -1.6740  3.3521
  175SAPI  C31619960   0.166   5.047   8.537 -0.3648 -0.6521 -1.2759
  175SAPI  H16X19961   0.236   5.099   8.606  0.4856 -2.0617 -1.0576
  175SAPI  H16Y19962   0.187   4.939   8.550  0.0594 -0.2029  3.3846
  175SAPI  C31719963   0.015   5.055   8.596  0.1760  0.4968  0.5591
  175SAPI  H17X19964  -0.058   5.004   8.529 -0.6361  3.3326 -0.9249
  175SAPI  H17Y19965   0.002   5.165   8.590  1.6947  0.6316 -1.0847
  175SAPI  C31819966   0.010   5.025   8.752  0.3853 -0.5110  0.0478
  175SAPI  H18X19967   0.090   5.074   8.811 -0.2250  1.0602 -0.3704
  175SAPI  H18Y19968   0.010   4.915   8.764  3.4424 -1.0614 -3.2283
  175SAPI  H18Z19969  -0.088   5.060   8.790  0.3992 -0.7840  0.3325
  176SAPI   C1219970   0.677   2.962   6.374  0.1258 -0.5244  0.2257
  176SAPI    H219971   0.653   3.047   6.441 -0.7549 -1.2893  0.9072
  176SAPI    O219972   0.715   3.020   6.245 -0.0723 -0.0528 -0.3478
  176SAPI   HO219973   0.723   3.115   6.258  0.9064  0.1426 -2.0888
  176SAPI   C1319974   0.793   2.890   6.438  0.6075 -0.3762 -0.3224
  176SAPI    H319975   0.757   2.840   6.531 -1.5075 -1.6540 -1.7323
  176SAPI    O319976   0.901   2.970   6.462  0.2247  0.2754 -0.5798
  176SAPI   HO319977   0.951   2.935   6.536  0.0703 -1.9915 -1.4689
  176SAPI   C1419978   0.835   2.772   6.357 -0.2381 -0.4463  0.0083
  176SAPI    H419979   0.876   2.805   6.259  0.9863 -0.7167  0.4069
  176SAPI    O419980   0.939   2.696   6.415 -0.3842 -0.3578 -0.7668
  176SAPI   HO419981   1.025   2.736   6.401 -0.9027  1.2888  0.4303
  176SAPI   C1519982   0.716   2.685   6.324 -0.3181  0.2606  0.4434
  176SAPI    H519983   0.689   2.634   6.419  2.2477 -1.6126  0.2742
  176SAPI    O519984   0.755   2.572   6.248 -0.0473  0.4547 -0.4329
  176SAPI   HO519985   0.676   2.538   6.205 -0.1451 -0.5867  0.5495
  176SAPI   C1619986   0.597   2.760   6.270 -0.3280 -0.1552  0.0094
  176SAPI    H619987   0.614   2.793   6.165  0.3307 -0.6910 -0.0605
  176SAPI    O619988   0.488   2.679   6.252 -0.8883  0.5129 -0.2809
  176SAPI   HO619989   0.416   2.738   6.232  0.4479  2.2703 -0.1305
  176SAPI   C1119990   0.560   2.873   6.361  0.8098 -0.3290  0.3096
  176SAPI    H119991   0.539   2.823   6.458 -0.3314  0.4746  0.5078
  176SAPI     P19992   0.353   3.027   6.423  0.3754 -0.0410 -0.1652
  176SAPI   O1319993   0.231   3.076   6.355  0.8135  0.1347 -0.0302
  176SAPI   O1419994   0.438   3.139   6.479  0.7032  0.5983 -0.0369
  176SAPI   O1219995   0.444   2.940   6.315 -0.3480  0.2512 -0.4056
  176SAPI   O1119996   0.327   2.913   6.526 -0.3830  0.3373 -0.4611
  176SAPI    C119997   0.210   2.830   6.519 -0.3418  0.5968 -0.0263
  176SAPI    HA19998   0.181   2.801   6.416  0.4340 -1.1587  0.2026
  176SAPI    HB19999   0.221   2.728   6.562 -0.8788  0.1865 -0.8335
  176SAPI    C220000   0.088   2.891   6.595 -0.3727 -0.6678 -0.1048
  176SAPI    HS20001   0.067   2.986   6.541  0.3312 -0.8253 -0.6739
  176SAPI   O2120002   0.137   2.910   6.736 -0.3016  0.2579  0.3369
  176SAPI   C2120003   0.076   3.011   6.799 -0.6531  0.1093  0.0814
  176SAPI   O2220004  -0.008   3.085   6.752 -0.6878 -0.4056  0.3323
  176SAPI   C2220005   0.106   3.005   6.949 -0.1644  0.0026 -0.1192
  176SAPI   H2R20006   0.096   2.897   6.973 -1.0305  0.0962 -0.0543
  176SAPI   H2S20007   0.212   3.038   6.963 -0.0452 -0.4039 -0.0517
  176SAPI    C320008  -0.031   2.793   6.592 -0.0439 -0.3832 -0.7101
  176SAPI    HX20009  -0.049   2.760   6.488  1.6581  0.4149 -1.2973
  176SAPI    HY20010  -0.130   2.836   6.618 -0.8240 -1.3365 -1.9944
  176SAPI   O3120011  -0.004   2.673   6.673  0.5034 -0.1141  0.0651
  176SAPI   C3120012  -0.062   2.671   6.795  0.3213 -0.0042 -0.7728
  176SAPI   O3220013  -0.148   2.743   6.838 -0.0613 -0.1418 -0.1500
  176SAPI   C3220014   0.015   2.575   6.893 -0.1744  0.3481 -0.4900
  176SAPI   H2X20015   0.124   2.594   6.895 -0.0421 -0.4202  0.1041
  176SAPI   H2Y20016   0.001   2.473   6.851  0.5653  0.0435 -0.0091
  176SAPI   C2320017   0.016   3.095   7.043  0.6925 -0.7956  0.2049
  176SAPI   H3R20018  -0.079   3.122   6.993 -1.3971  1.2989  4.7376
  176SAPI   H3S20019   0.086   3.179   7.063  1.2689 -0.3631 -3.0511
  176SAPI   C2420020  -0.004   3.017   7.168  0.4537  0.0275 -0.6279
  176SAPI   H4R20021  -0.022   3.088   7.251  0.0186 -0.1061 -0.6027
  176SAPI   H4S20022   0.094   2.972   7.193  1.1089  1.2846 -0.8616
  176SAPI   C2520023  -0.116   2.917   7.176  0.0863 -0.2217  0.2599
  176SAPI   H5R20024  -0.168   2.905   7.080 -0.9357 -0.8905  0.8801
  176SAPI   C2620025  -0.137   2.831   7.276  0.4749 -0.6097 -0.0305
  176SAPI   H6R20026  -0.227   2.769   7.266 -1.4007  1.4723  2.3311
  176SAPI   C2720027  -0.060   2.834   7.412  0.0489  0.3616  0.1011
  176SAPI   H7R20028  -0.062   2.937   7.453 -0.4096 -0.0168  1.0707
  176SAPI   H7S20029   0.043   2.794   7.397  0.2957  1.4194 -1.1669
  176SAPI   C2820030  -0.133   2.749   7.520  0.4522 -0.1758 -0.5240
  176SAPI   H8R20031  -0.211   2.679   7.486 -0.4819  0.1371  0.9187
  176SAPI   C2920032  -0.107   2.758   7.653 -0.3938 -0.1780 -0.5760
  176SAPI   H9R20033  -0.166   2.705   7.729  0.3000  0.4713  0.4490
  176SAPI  C21020034   0.002   2.846   7.712 -0.2979 -0.1223 -0.1553
  176SAPI  H10R20035  -0.040   2.946   7.738 -3.7899 -1.0890 -1.5414
  176SAPI  H10S20036   0.083   2.862   7.638  1.5992 -0.0408  1.8453
  176SAPI  C21120037   0.076   2.781   7.824  0.1560 -0.4257  0.2537
  176SAPI  H11R20038   0.181   2.765   7.794 -0.5128 -2.2829 -1.2872
  176SAPI  C21220039   0.041   2.789   7.953  0.1716 -0.2651 -0.5867
  176SAPI  H12R20040   0.116   2.748   8.022  1.6378  2.1450 -0.6367
  176SAPI  C21320041  -0.093   2.832   8.007  0.1416  0.3243 -0.2888
  176SAPI  H13R20042  -0.164   2.854   7.924  0.5554  0.1272 -0.7003
  176SAPI  H13S20043  -0.086   2.924   8.068  0.6258  1.3209 -1.7906
  176SAPI  C21420044  -0.162   2.712   8.076  0.2928 -0.0857  0.5685
  176SAPI  H14R20045  -0.225   2.650   8.011 -1.2156  1.8297  0.1224
  176SAPI  C21520046  -0.169   2.693   8.210 -0.3747  0.1739 -0.7018
  176SAPI  H15R20047  -0.216   2.603   8.252  1.1043 -0.8636 -1.1856
  176SAPI  C21620048  -0.099   2.767   8.319  0.9354 -0.7085  0.3963
  176SAPI  H16R20049  -0.020   2.832   8.275 -0.2110 -0.1742 -0.9652
  176SAPI  H16S20050  -0.047   2.705   8.395 -1.9643 -0.5808  2.6254
  176SAPI  C21720051  -0.190   2.860   8.400  0.0821 -0.4017  0.0702
  176SAPI  H17R20052  -0.259   2.789   8.449  1.3333 -2.1396 -0.5771
  176SAPI  H17S20053  -0.242   2.923   8.324 -2.0251 -0.4276  1.4071
  176SAPI  C21820054  -0.118   2.931   8.517 -0.0914  0.3885  0.8164
  176SAPI  H18R20055  -0.034   2.989   8.474  0.9933 -0.6046  1.5463
  176SAPI  H18S20056  -0.082   2.849   8.582 -0.0502 -0.4388 -0.2261
  176SAPI  C21920057  -0.200   3.045   8.580  0.4068 -0.0159  0.3926
  176SAPI  H19R20058  -0.238   3.099   8.491 -0.0823  0.8743  1.1257
  176SAPI  H19S20059  -0.135   3.110   8.642  1.6897 -0.4354 -0.4643
  176SAPI  C22020060  -0.331   3.010   8.655  0.1344 -0.3970 -0.3090
  176SAPI  H20R20061  -0.390   2.924   8.616  3.1985 -1.9965 -1.8261
  176SAPI  H20S20062  -0.395   3.100   8.654  0.4339 -0.1552 -2.4211
  176SAPI  H20T20063  -0.305   2.976   8.757 -0.4092 -2.2716 -0.7563
  176SAPI   C3320064  -0.037   2.578   7.040 -0.3354  0.7702  0.3855
  176SAPI   H3X20065  -0.148   2.578   7.032 -0.2746 -0.8183 -1.1930
  176SAPI   H3Y20066  -0.004   2.675   7.082  0.3683 -0.0639  1.8488
  176SAPI   C3420067   0.009   2.460   7.120 -0.1063 -0.0729 -0.5101
  176SAPI   H4X20068   0.120   2.468   7.130 -0.0126 -1.4040 -0.3785
  176SAPI   H4Y20069  -0.015   2.365   7.068 -0.6694  0.3348 -1.0037
  176SAPI   C3520070  -0.048   2.449   7.261 -0.3008 -0.2668  0.3049
  176SAPI   H5X20071  -0.158   2.460   7.258 -0.3914 -0.5877  1.6887
  176SAPI   H5Y20072  -0.010   2.525   7.333  0.6566 -1.8541  1.5344
  176SAPI   C3620073  -0.005   2.318   7.330  0.3091  0.4629  0.0159
  176SAPI   H6X20074   0.102   2.321   7.357  0.3089 -1.1683  0.2993
  176SAPI   H6Y20075  -0.034   2.238   7.258  2.1499  0.6076 -0.9345
  176SAPI   C3720076  -0.088   2.278   7.453  0.3851  0.0280 -0.4293
  176SAPI   H7X20077  -0.061   2.176   7.487 -0.4643  0.4131  1.5613
  176SAPI   H7Y20078  -0.199   2.269   7.442  0.0752  2.8789 -0.1884
  176SAPI   C3820079  -0.058   2.359   7.582 -0.0181  0.0071 -0.0090
  176SAPI   H8X20080  -0.102   2.461   7.575  0.0510 -0.0848 -2.6141
  176SAPI   H8Y20081   0.051   2.368   7.601 -0.1988  2.4037  0.2273
  176SAPI   C3920082  -0.101   2.288   7.712  0.3773  0.6887 -0.6866
  176SAPI   H9X20083  -0.063   2.184   7.711  0.6372  0.7757 -0.0925
  176SAPI   H9Y20084  -0.211   2.276   7.725  0.6156 -1.2262 -0.0953
  176SAPI  C31020085  -0.048   2.365   7.836 -0.5865 -0.1326  0.6767
  176SAPI  H10X20086  -0.088   2.468   7.847  0.2410  0.1838  0.7615
  176SAPI  H10Y20087   0.057   2.388   7.808 -0.8444 -0.0907 -0.2893
  176SAPI  C31120088  -0.055   2.274   7.957  0.1763  0.0252  0.3917
  176SAPI  H11X20089  -0.007   2.174   7.947  1.7152  0.7588  0.2462
  176SAPI  H11Y20090  -0.161   2.245   7.974 -0.5278  1.9675 -0.3804
  176SAPI  C31220091   0.018   2.328   8.080 -0.0836 -0.2527 -0.7891
  176SAPI  H12X20092  -0.020   2.432   8.095  0.9478  0.0181  0.0352
  176SAPI  H12Y20093   0.128   2.342   8.073  0.4001 -2.3339  1.4921
  176SAPI  C31320094   0.002   2.233   8.200 -0.5274 -0.0761 -0.3344
  176SAPI  H13X20095   0.079   2.250   8.279 -1.1971  0.8370  0.1359
  176SAPI  H13Y20096   0.015   2.132   8.155 -1.3329  0.4701 -1.8298
  176SAPI  C31420097  -0.138   2.227   8.253 -0.0391 -0.0868 -0.2504
  176SAPI  H14X20098  -0.222   2.210   8.182 -0.1896 -3.3547  0.5313
  176SAPI  H14Y20099  -0.158   2.324   8.304 -1.9699  0.0603 -1.1935
  176SAPI  C31520100  -0.148   2.116   8.370 -1.0635  0.4413 -0.0155
  176SAPI  H15X20101  -0.242   2.131   8.426 -1.6278  1.5567 -1.2202
  176SAPI  H15Y20102  -0.063   2.131   8.441 -0.7737 -1.2968  0.0364
  176SAPI  C31620103  -0.135   1.969   8.332  0.2963  0.0140  0.3842
  176SAPI  H16X20104  -0.031   1.951   8.298  0.9635  1.8592  1.3242
  176SAPI  H16Y20105  -0.218   1.949   8.262 -0.0013  0.8600  0.4851
  176SAPI  C31720106  -0.162   1.869   8.449  0.1153 -0.4110 -0.6900
  176SAPI  H17X20107  -0.233   1.931   8.509 -0.4974 -1.9018  0.2001
  176SAPI  H17Y20108  -0.067   1.848   8.502 -0.1966  0.0026  0.0525
  176SAPI  C31820109  -0.224   1.743   8.407 -0.1842  0.3705  0.4591
  176SAPI  H18X20110  -0.241   1.681   8.498 -0.7248  1.8398  1.3871
  176SAPI  H18Y20111  -0.166   1.689   8.329  0.8803  0.5923  1.0848
  176SAPI  H18Z20112  -0.331   1.760   8.382 -1.0762 -1.4279  2.6877
  177SLPC     N20113   0.007   1.615  10.776 -0.6868  0.4355 -0.3768
  177SLPC   C1320114  -0.087   1.693  10.857 -0.2545 -0.6729  0.0997
  177SLPC  H13A20115  -0.046   1.743  10.943 -0.4555 -0.4800  0.0837
  177SLPC  H13B20116  -0.127   1.783  10.812 -0.0796 -1.4103 -1.6436
  177SLPC  H13C20117  -0.165   1.625  10.888 -1.5280  0.6064 -0.1728
  177SLPC   C1420118   0.115   1.703  10.714  0.0355 -0.0779 -0.1671
  177SLPC  H14A20119   0.080   1.751  10.624 -0.8582 -0.4237 -0.0108
  177SLPC  H14B20120   0.154   1.772  10.787  1.3763 -0.2816 -0.6576
  177SLPC  H14C20121   0.191   1.638  10.673 -1.1207 -1.3058 -0.4372
  177SLPC   C1520122  -0.066   1.537  10.675  0.2480 -0.6279 -0.2021
  177SLPC  H15A20123  -0.127   1.464  10.725  2.0741 -1.0677  1.5103
  177SLPC  H15B20124  -0.137   1.602  10.625  0.6610 -0.1731 -0.2004
  177SLPC  H15C20125  -0.008   1.495  10.595 -0.4267  0.1301 -1.1309
  177SLPC   C1220126   0.078   1.513  10.862 -0.3047 -0.1899  0.6789
  177SLPC  H12A20127   0.138   1.561  10.939  3.8794 -1.8084 -1.2654
  177SLPC  H12B20128   0.152   1.471  10.796 -0.9366  1.4245 -1.1422
  177SLPC   C1120129   0.002   1.391  10.923 -0.4655  0.0714 -0.0386
  177SLPC  H11A20130  -0.102   1.423  10.948 -0.7500 -2.7361  3.2418
  177SLPC  H11B20131   0.050   1.356  11.017  0.8398  1.9410  0.0419
  177SLPC     P20132   0.103   1.201  10.792 -0.6612 -0.1381 -0.0072
  177SLPC   O1320133   0.226   1.280  10.758 -0.8580  0.1169  0.5783
  177SLPC   O1420134   0.117   1.091  10.889 -0.1579  0.9700 -0.7330
  177SLPC   O1220135  -0.020   1.288  10.826  0.0293  0.2543  0.2080
  177SLPC   O1120136   0.054   1.121  10.664  0.4330  0.2732 -0.2633
  177SLPC    C120137  -0.045   1.169  10.570  0.9680  0.0591 -0.5319
  177SLPC    HA20138  -0.103   1.082  10.534 -0.7812  1.0530 -0.2481
  177SLPC    HB20139  -0.107   1.250  10.616  2.6085  1.2171 -0.2452
  177SLPC    C220140   0.011   1.230  10.439 -0.6788 -0.2726 -0.0351
  177SLPC    HS20141   0.062   1.325  10.466  0.9738 -1.8174  2.7787
  177SLPC   O2120142  -0.098   1.240  10.349 -0.3626 -0.0999  0.2909
  177SLPC   C2120143  -0.144   1.357  10.297 -0.0229 -0.3020 -0.0819
  177SLPC   O2220144  -0.105   1.464  10.334 -0.1551  0.2442  0.6023
  177SLPC   C2220145  -0.230   1.321  10.173 -0.2643  0.3523  0.1042
  177SLPC   H2R20146  -0.194   1.225  10.132  2.5820  1.0959  0.5907
  177SLPC   H2S20147  -0.335   1.311  10.209 -0.3313 -1.1067 -0.4512
  177SLPC    C320148   0.124   1.144  10.371 -1.0571  0.0453  0.6717
  177SLPC    HX20149   0.090   1.040  10.348  2.0959 -0.8880 -0.4946
  177SLPC    HY20150   0.207   1.121  10.441 -1.8325 -0.0137  1.5887
  177SLPC   O3120151   0.177   1.193  10.244  0.7823 -0.8520 -0.6796
  177SLPC   C3120152   0.288   1.277  10.258  0.2982 -0.9131 -0.9560
  177SLPC   O3220153   0.322   1.321  10.368 -0.0668 -0.0667 -0.1116
  177SLPC   C3220154   0.351   1.309  10.129 -0.3042  0.5793 -0.4664
  177SLPC   H2X20155   0.460   1.319  10.150  0.1283 -2.0278 -1.1612
  177SLPC   H2Y20156   0.311   1.409  10.101 -0.2820  0.7074 -0.0460
  177SLPC   C2320157  -0.216   1.412  10.053  0.2769 -0.1907 -0.7870
  177SLPC   H3R20158  -0.124   1.377  10.001 -0.0816 -1.4351 -0.6339
  177SLPC   H3S20159  -0.206   1.522  10.064  0.8740 -0.1720 -1.4100
  177SLPC   C2420160  -0.335   1.384   9.956 -1.0734 -0.0984  0.0531
  177SLPC   H4R20161  -0.430   1.434   9.987  0.0448  2.2184 -0.0142
  177SLPC   H4S20162  -0.351   1.274   9.964 -0.0323 -0.1362  2.4398
  177SLPC   C2520163  -0.311   1.422   9.810 -0.1508 -0.0686 -0.4474
  177SLPC   H5R20164  -0.227   1.361   9.770  0.4057  0.5010 -0.1822
  177SLPC   H5S20165  -0.268   1.525   9.807  0.3158 -0.2523 -0.2079
  177SLPC   C2620166  -0.427   1.418   9.714  0.5486 -0.7079 -0.3392
  177SLPC   H6R20167  -0.502   1.493   9.747 -2.7636 -1.7962 -4.5397
  177SLPC   H6S20168  -0.477   1.319   9.721 -0.7387  0.0635  3.5316
  177SLPC   C2720169  -0.392   1.463   9.567 -1.1954  0.2565  0.1118
  177SLPC   H7R20170  -0.477   1.425   9.505 -0.8443 -2.3681  1.0889
  177SLPC   H7S20171  -0.307   1.398   9.538  2.2045  4.2201  0.3558
  177SLPC   C2820172  -0.363   1.615   9.546 -0.1795 -0.1214 -0.8629
  177SLPC   H8R20173  -0.292   1.649   9.624 -0.9512 -1.4542  0.4763
  177SLPC   H8S20174  -0.459   1.663   9.574 -0.3921 -1.1136  0.1827
  177SLPC   C2920175  -0.327   1.644   9.404  0.2017  1.0991  0.6133
  177SLPC   H9R20176  -0.223   1.630   9.371  0.3063 -0.3557  1.4985
  177SLPC  C21020177  -0.410   1.661   9.300  0.3669  0.1682 -0.1045
  177SLPC  H10R20178  -0.358   1.680   9.205 -1.7180 -0.7430 -1.4834
  177SLPC  C21120179  -0.566   1.666   9.296 -0.5238  0.0067 -0.6715
  177SLPC  H11R20180  -0.606   1.623   9.391  1.7736  3.6657  2.2740
  177SLPC  H11S20181  -0.601   1.770   9.288 -0.4717 -0.0582 -1.9010
  177SLPC  C21220182  -0.610   1.576   9.188 -0.4294  0.2516  0.0346
  177SLPC  H12R20183  -0.615   1.470   9.216  2.6026  0.2008  0.7593
  177SLPC  C21320184  -0.634   1.621   9.061 -0.2467  0.5536  0.3567
  177SLPC  H13R20185  -0.652   1.545   8.983  4.2364 -0.3371 -0.0733
  177SLPC  C21420186  -0.616   1.760   9.015 -0.1428 -0.6994 -0.0743
  177SLPC  H14R20187  -0.536   1.772   8.939  0.1748 -1.5027  0.1306
  177SLPC  H14S20188  -0.576   1.828   9.094  2.7953 -0.0871 -1.9011
  177SLPC  C21520189  -0.754   1.813   8.959  0.2762 -0.4688  0.6377
  177SLPC  H15R20190  -0.803   1.771   8.869 -0.7964  0.1201  0.9205
  177SLPC  H15S20191  -0.735   1.915   8.919 -1.5678 -0.9907 -1.8262
  177SLPC  C21620192  -0.857   1.830   9.071 -0.1590  0.0792 -0.2382
  177SLPC  H16R20193  -0.796   1.880   9.149  0.9845 -1.5967 -0.0142
  177SLPC  H16S20194  -0.885   1.738   9.126  0.0901 -0.8264 -1.5633
  177SLPC  C21720195  -0.989   1.910   9.040 -0.6080  0.5985  0.0725
  177SLPC  H17R20196  -1.031   1.870   8.945 -1.5010  0.7581  0.3911
  177SLPC  H17S20197  -0.957   2.014   9.018  0.5611  0.2361  0.0037
  177SLPC  C21820198  -1.094   1.905   9.152 -0.4084 -0.1066  0.3461
  177SLPC  H18R20199  -1.051   1.946   9.246 -0.5979  0.6443  0.1139
  177SLPC  H18S20200  -1.123   1.799   9.162  0.3831 -0.3673 -0.0358
  177SLPC  H18T20201  -1.184   1.967   9.133 -0.1500  0.1279 -0.1393
  177SLPC   C3320202   0.341   1.220  10.010 -0.2370  0.0060 -0.0056
  177SLPC   H3X20203   0.234   1.203   9.987  0.7431 -3.4561 -2.9028
  177SLPC   H3Y20204   0.388   1.122  10.032  0.2330 -0.5536 -2.9961
  177SLPC   C3420205   0.412   1.265   9.880  1.0438 -0.2794  0.9467
  177SLPC   H4X20206   0.520   1.288   9.891  0.6461  2.2070  0.2984
  177SLPC   H4Y20207   0.370   1.363   9.848  0.6276 -0.1915  1.7232
  177SLPC   C3520208   0.380   1.167   9.764  0.2788  0.6463 -0.3625
  177SLPC   H5X20209   0.270   1.162   9.748  0.2387  3.9577 -1.8539
  177SLPC   H5Y20210   0.425   1.071   9.796  0.6483  0.8885 -0.1430
  177SLPC   C3620211   0.415   1.216   9.626  0.1792 -0.5247  0.2799
  177SLPC   H6X20212   0.523   1.228   9.603 -0.1287  0.8334 -0.5444
  177SLPC   H6Y20213   0.364   1.309   9.596 -0.4368 -0.8619  0.2742
  177SLPC   C3720214   0.372   1.119   9.513 -0.4560  0.2319  0.7355
  177SLPC   H7X20215   0.263   1.099   9.506 -0.2002 -1.4602  1.1761
  177SLPC   H7Y20216   0.423   1.021   9.523  0.9929  0.7333 -1.2195
  177SLPC   C3820217   0.421   1.168   9.372 -0.0934 -0.0974  0.2699
  177SLPC   H8X20218   0.526   1.199   9.394 -0.7328 -0.1592  4.0947
  177SLPC   H8Y20219   0.374   1.260   9.331  1.5363  0.5053 -0.3414
  177SLPC   C3920220   0.406   1.063   9.263 -0.0266  0.1386 -0.1294
  177SLPC   H9X20221   0.298   1.055   9.242  0.4007 -2.7979 -1.7309
  177SLPC   H9Y20222   0.442   0.968   9.308 -1.7018 -0.9517 -0.9997
  177SLPC  C31020223   0.481   1.106   9.138  1.2323  0.0975  0.4203
  177SLPC  H10X20224   0.590   1.103   9.158  1.1533 -1.2781  0.7392
  177SLPC  H10Y20225   0.451   1.203   9.094  1.8633  0.4973  0.8481
  177SLPC  C31120226   0.450   1.001   9.023  0.1992  0.7794 -0.1175
  177SLPC  H11X20227   0.343   0.997   8.993  0.2039 -0.5348 -0.0075
  177SLPC  H11Y20228   0.464   0.902   9.071 -1.4921  0.1376 -0.9006
  177SLPC  C31220229   0.541   1.014   8.897  0.6345  0.1283 -0.6146
  177SLPC  H12X20230   0.649   1.005   8.922  0.8665 -0.0137 -1.6076
  177SLPC  H12Y20231   0.515   1.107   8.841  0.6330  0.8877  0.6196
  177SLPC  C31320232   0.504   0.903   8.801  0.2162 -0.1472  0.3504
  177SLPC  H13X20233   0.396   0.908   8.775  0.4869  0.3927 -0.7194
  177SLPC  H13Y20234   0.521   0.805   8.850  2.1913  0.9873  2.1071
  177SLPC  C31420235   0.612   0.892   8.685  0.3078  0.4883  0.1366
  177SLPC  H14X20236   0.715   0.880   8.724  1.0523  0.6229 -1.6661
  177SLPC  H14Y20237   0.620   0.985   8.624 -1.2761 -0.2426 -1.2698
  177SLPC  C31520238   0.580   0.782   8.578  0.5719  0.0569 -1.0742
  177SLPC  H15X20239   0.484   0.817   8.534  0.0127  2.6925  1.9040
  177SLPC  H15Y20240   0.549   0.685   8.623  1.2363 -0.5355 -1.8327
  177SLPC  C31620241   0.695   0.756   8.476 -0.3914 -0.3277 -0.4640
  177SLPC  H16X20242   0.750   0.661   8.494  0.6194  0.0451 -1.4992
  177SLPC  H16Y20243   0.767   0.841   8.483 -2.1683  1.1436  1.2269
  177SLPC  C31720244   0.645   0.737   8.329 -0.3316  0.2826  0.2863
  177SLPC  H17X20245   0.542   0.780   8.335 -1.2496 -1.3518 -2.0817
  177SLPC  H17Y20246   0.645   0.628   8.307  0.0920  0.4555 -0.6121
  177SLPC  C31820247   0.722   0.815   8.226  0.1724  0.4415 -0.5889
  177SLPC  H18X20248   0.669   0.811   8.128  3.1665 -0.4755 -2.3112
  177SLPC  H18Y20249   0.822   0.772   8.208  0.9329  2.2701 -0.9184
  177SLPC  H18Z20250   0.734   0.922   8.249 -1.0966  0.0362  2.5312
  178SLPC     N20251   6.493   2.350  11.006  0.9341  0.6869  0.1265
  178SLPC   C1320252   6.431   2.234  10.941  0.1741 -0.2015  0.3496
  178SLPC  H13A20253   6.422   2.150  11.009 -0.4266 -0.3635  0.0723
  178SLPC  H13B20254   6.329   2.265  10.927  0.1154 -0.2821  0.5974
  178SLPC  H13C20255   6.486   2.199  10.855 -0.9154  1.6018 -1.1594
  178SLPC   C1420256   6.634   2.303  11.030  0.1556 -0.4299 -0.2538
  178SLPC  H14A20257   6.678   2.282  10.934  0.2937 -1.5430  0.0404
  178SLPC  H14B20258   6.698   2.376  11.076  0.0639 -1.3293  1.3603
  178SLPC  H14C20259   6.648   2.214  11.089 -1.5521  0.3250  1.3990
  178SLPC   C1520260   6.417   2.375  11.136 -0.0317 -0.0720  0.3812
  178SLPC  H15A20261   6.424   2.281  11.189  1.8176 -0.8502 -1.1433
  178SLPC  H15B20262   6.459   2.457  11.192 -2.8224  1.6910  0.0506
  178SLPC  H15C20263   6.312   2.395  11.123  0.3842  1.3816 -1.0552
  178SLPC   C1220264   6.487   2.470  10.922  0.2322 -0.4945 -0.3549
  178SLPC  H12A20265   6.535   2.555  10.968  1.9729 -1.5309 -0.1949
  178SLPC  H12B20266   6.385   2.498  10.901 -0.1677  0.7711  2.7649
  178SLPC   C1120267   6.551   2.448  10.783 -0.0404 -0.4813 -0.4540
  178SLPC  H11A20268   6.509   2.522  10.711 -1.9738 -1.6118 -0.5426
  178SLPC  H11B20269   6.521   2.354  10.733  0.5110 -0.9995  0.1782
  178SLPC     P20270   6.774   2.592  10.798  0.1238  0.2875 -0.1995
  178SLPC   O1320271   6.721   2.671  10.912 -0.0680 -0.4229 -0.7844
  178SLPC   O1420272   6.919   2.558  10.789 -0.0565  0.4176  0.5827
  178SLPC   O1220273   6.689   2.460  10.786  0.3340 -0.6241 -0.0628
  178SLPC   O1120274   6.745   2.652  10.658  0.8979 -0.8648  0.2499
  178SLPC    C120275   6.796   2.585  10.538  0.4269 -0.0163  0.5135
  178SLPC    HA20276   6.898   2.628  10.529  0.4066  0.1762  1.1138
  178SLPC    HB20277   6.810   2.475  10.547 -1.0638 -0.4436 -1.5720
  178SLPC    C220278   6.714   2.602  10.410  0.2298 -0.0147 -0.2509
  178SLPC    HS20279   6.764   2.558  10.321 -2.2910 -1.0367 -1.2426
  178SLPC   O2120280   6.683   2.740  10.393 -0.0684  0.3919  0.1036
  178SLPC   C2120281   6.787   2.811  10.342 -0.1222  0.1816 -0.1772
  178SLPC   O2220282   6.895   2.762  10.312 -0.0691  0.2692 -0.2685
  178SLPC   C2220283   6.753   2.961  10.331  0.3150  0.3641 -0.5387
  178SLPC   H2R20284   6.655   2.983  10.379  1.1714  1.9802  0.5316
  178SLPC   H2S20285   6.835   3.018  10.380 -1.1979  2.1067  0.0798
  178SLPC    C320286   6.591   2.512  10.416  0.1738  0.7261 -0.4238
  178SLPC    HX20287   6.524   2.542  10.500  1.2147  4.2112 -0.7047
  178SLPC    HY20288   6.614   2.405  10.433 -1.2990  0.1805 -1.6054
  178SLPC   O3120289   6.522   2.517  10.291  0.0009 -0.8265 -0.2625
  178SLPC   C3120290   6.406   2.584  10.276  0.1726  0.8767  0.7761
  178SLPC   O3220291   6.343   2.636  10.365 -0.1022  0.2464 -0.3013
  178SLPC   C3220292   6.358   2.569  10.128  0.2332  0.0209  0.4003
  178SLPC   H2X20293   6.312   2.471  10.102 -0.8694  0.5293  0.3468
  178SLPC   H2Y20294   6.453   2.578  10.071  0.1462 -0.9676  0.0936
  178SLPC   C2320295   6.729   3.020  10.188  0.2479  0.1627  0.2733
  178SLPC   H3R20296   6.820   3.007  10.125  1.2191 -1.6300  1.9560
  178SLPC   H3S20297   6.705   3.125  10.212 -0.3817 -0.1850  1.2150
  178SLPC   C2420298   6.608   2.954  10.106 -0.5205  0.5415 -0.2611
  178SLPC   H4R20299   6.510   2.957  10.158 -0.7382  2.1255 -0.6910
  178SLPC   H4S20300   6.635   2.849  10.081 -3.5657 -0.6718  0.9778
  178SLPC   C2520301   6.575   3.025   9.974 -0.4112 -0.1741 -0.0349
  178SLPC   H5R20302   6.544   3.129  10.001  0.4621 -0.6209  3.1143
  178SLPC   H5S20303   6.489   2.972   9.928 -0.5051  1.8497 -2.3929
  178SLPC   C2620304   6.692   3.041   9.869 -0.3514  0.3737 -0.6996
  178SLPC   H6R20305   6.721   2.941   9.832  1.0290  1.6529 -3.3210
  178SLPC   H6S20306   6.783   3.086   9.913 -1.7025  4.9392 -2.0031
  178SLPC   C2720307   6.669   3.134   9.744  0.3148  1.2326  0.4945
  178SLPC   H7R20308   6.751   3.111   9.673 -0.1504  2.3574 -0.4342
  178SLPC   H7S20309   6.683   3.240   9.774  0.1474  1.7250 -1.1175
  178SLPC   C2820310   6.532   3.114   9.669  0.3881 -0.2275  1.0529
  178SLPC   H8R20311   6.449   3.154   9.732  0.0966  1.3173 -0.2433
  178SLPC   H8S20312   6.513   3.007   9.648 -4.1324  0.4765  0.4929
  178SLPC   C2920313   6.527   3.187   9.537  0.2078 -0.2809  0.3485
  178SLPC   H9R20314   6.498   3.293   9.545  0.0441 -0.2135 -0.8949
  178SLPC  C21020315   6.564   3.154   9.411 -0.5629  0.1508  0.8662
  178SLPC  H10R20316   6.559   3.236   9.338 -0.1896 -0.8256 -0.3043
  178SLPC  C21120317   6.630   3.022   9.369  0.3206  0.7012  0.2032
  178SLPC  H11R20318   6.576   2.988   9.277  0.6354 -0.3113  0.3878
  178SLPC  H11S20319   6.629   2.953   9.455  1.5067 -0.5053 -0.7150
  178SLPC  C21220320   6.769   3.055   9.332 -0.1969 -0.1096  0.4943
  178SLPC  H12R20321   6.835   3.078   9.418  0.4624 -2.1549  0.5919
  178SLPC  C21320322   6.829   3.065   9.212 -0.5590  0.2332  0.6724
  178SLPC  H13R20323   6.937   3.082   9.219  0.1330 -2.0205 -2.3775
  178SLPC  C21420324   6.766   3.034   9.076 -0.4592  0.7687 -0.9336
  178SLPC  H14R20325   6.805   3.109   9.003 -2.2791  2.1572 -0.5674
  178SLPC  H14S20326   6.655   3.037   9.077 -0.4706  2.5684 -2.0110
  178SLPC  C21520327   6.810   2.897   9.020  0.0211 -0.2974  0.0419
  178SLPC  H15R20328   6.762   2.880   8.921  2.0338  1.7954 -1.3841
  178SLPC  H15S20329   6.805   2.818   9.098 -1.9129  0.9769  1.2759
  178SLPC  C21620330   6.955   2.898   8.980 -0.1815 -0.1307  0.1899
  178SLPC  H16R20331   7.015   2.916   9.072 -0.9236  0.5715  0.5455
  178SLPC  H16S20332   6.971   2.987   8.915 -0.0330 -0.5760 -0.3967
  178SLPC  C21720333   7.022   2.785   8.902  0.3466  0.3699 -0.1487
  178SLPC  H17R20334   6.962   2.743   8.819  0.4979 -0.0809 -0.0357
  178SLPC  H17S20335   7.035   2.694   8.966  1.7692 -1.1334 -2.4142
  178SLPC  C21820336   7.165   2.824   8.856  0.1772 -0.4934 -0.2644
  178SLPC  H18R20337   7.179   2.914   8.793 -1.4130  0.8564  1.2180
  178SLPC  H18S20338   7.205   2.733   8.807 -1.3057 -0.6003 -1.3541
  178SLPC  H18T20339   7.224   2.840   8.949 -2.3725  0.3516  1.3222
  178SLPC   C3320340   6.268   2.691  10.083  0.2982  0.3331  0.1515
  178SLPC   H3X20341   6.302   2.784  10.133  1.6187  0.4076 -0.8325
  178SLPC   H3Y20342   6.166   2.673  10.123  0.9024  1.2923  2.2707
  178SLPC   C3420343   6.261   2.699   9.935 -0.1314 -0.1950  0.0975
  178SLPC   H4X20344   6.356   2.737   9.891 -1.1393  0.9151 -1.1794
  178SLPC   H4Y20345   6.186   2.773   9.901 -1.0885 -2.0104 -2.0337
  178SLPC   C3520346   6.224   2.568   9.868 -0.7333 -0.3380 -0.6957
  178SLPC   H5X20347   6.132   2.528   9.915 -0.7878 -2.3935 -2.3625
  178SLPC   H5Y20348   6.297   2.486   9.888  1.0347  1.2932 -0.1616
  178SLPC   C3620349   6.203   2.577   9.717  0.3294  1.0688  0.1951
  178SLPC   H6X20350   6.197   2.682   9.683 -0.1926  1.0237  0.1370
  178SLPC   H6Y20351   6.100   2.537   9.702  1.5701 -2.5746  0.4668
  178SLPC   C3720352   6.308   2.508   9.636 -0.4799  0.6505 -0.1046
  178SLPC   H7X20353   6.306   2.403   9.674  3.1715  1.4082  2.7337
  178SLPC   H7Y20354   6.408   2.540   9.673 -0.8749  0.1330  1.5016
  178SLPC   C3820355   6.290   2.516   9.485  0.2120  0.2260 -0.1992
  178SLPC   H8X20356   6.182   2.513   9.458 -0.1221  5.1810 -0.2957
  178SLPC   H8Y20357   6.316   2.416   9.445 -2.5784 -0.0623 -1.4820
  178SLPC   C3920358   6.354   2.638   9.411 -0.1254 -0.1645 -0.3333
  178SLPC   H9X20359   6.461   2.648   9.438  0.0848  0.8728 -1.4563
  178SLPC   H9Y20360   6.305   2.733   9.442  0.2512  0.3598 -1.3012
  178SLPC  C31020361   6.334   2.625   9.259 -0.4197  0.4056  0.0752
  178SLPC  H10X20362   6.225   2.634   9.238 -0.0522  0.4585 -2.0799
  178SLPC  H10Y20363   6.363   2.521   9.233 -1.8585 -0.0212  0.0763
  178SLPC  C31120364   6.407   2.734   9.187 -0.3244  0.2656 -0.0731
  178SLPC  H11X20365   6.517   2.736   9.200 -0.0228  0.6413 -2.3517
  178SLPC  H11Y20366   6.363   2.828   9.226 -0.5544 -0.1513  0.7056
  178SLPC  C31220367   6.384   2.722   9.035  0.2636  0.2124 -0.1446
  178SLPC  H12X20368   6.409   2.821   8.992  0.8284 -0.4081 -1.3049
  178SLPC  H12Y20369   6.282   2.685   9.012  0.9063 -2.0929  0.3707
  178SLPC  C31320370   6.489   2.613   8.971  0.5582  0.1515  0.3006
  178SLPC  H13X20371   6.446   2.512   8.988  0.4103  0.0213 -0.7635
  178SLPC  H13Y20372   6.583   2.622   9.030  1.9865 -0.6113 -1.7390
  178SLPC  C31420373   6.524   2.631   8.824 -0.0427 -0.3577  0.9098
  178SLPC  H14X20374   6.570   2.731   8.809 -1.2475 -0.0223 -0.8138
  178SLPC  H14Y20375   6.440   2.624   8.752  1.7343 -3.0993 -1.0589
  178SLPC  C31520376   6.638   2.525   8.781 -0.0645 -0.2956 -0.6214
  178SLPC  H15X20377   6.719   2.528   8.857  0.3961  1.3652 -1.1414
  178SLPC  H15Y20378   6.592   2.424   8.773  0.5377 -0.8365  1.8063
  178SLPC  C31620379   6.701   2.563   8.648  0.0530  0.2573 -0.4835
  178SLPC  H16X20380   6.771   2.647   8.666  0.3637  0.1118 -0.9975
  178SLPC  H16Y20381   6.624   2.604   8.580  1.0435  3.1172 -0.0054
  178SLPC  C31720382   6.784   2.448   8.596  0.3116  0.1496  0.2590
  178SLPC  H17X20383   6.836   2.489   8.506 -1.0135 -1.6310 -1.3996
  178SLPC  H17Y20384   6.711   2.375   8.554  1.3518  0.1550 -1.6875
  178SLPC  C31820385   6.890   2.379   8.686  0.1756 -0.3295 -0.0395
  178SLPC  H18X20386   6.941   2.297   8.632  0.4739 -0.9458  1.1608
  178SLPC  H18Y20387   6.847   2.329   8.775  0.4796  1.7452  1.3479
  178SLPC  H18Z20388   6.956   2.458   8.727 -0.3866 -1.2858  2.9609
  179SLPC     N20389   2.000   5.611  10.197 -0.2352 -0.1864  0.0183
  179SLPC   C1320390   2.055   5.598  10.335  0.2222 -0.1335  0.0706
  179SLPC  H13A20391   1.981   5.558  10.403 -0.7185  3.0724  1.1041
  179SLPC  H13B20392   2.141   5.532  10.329  0.4781  0.2999 -1.8147
  179SLPC  H13C20393   2.082   5.693  10.378  2.2626 -1.0174  0.9029
  179SLPC   C1420394   1.921   5.740  10.194 -0.3600  0.3726  0.2482
  179SLPC  H14A20395   1.881   5.761  10.292  3.4133 -1.5969  2.4749
  179SLPC  H14B20396   2.006   5.806  10.182  0.2445 -0.1885  1.2769
  179SLPC  H14C20397   1.860   5.751  10.106  0.2905 -0.6356 -0.3560
  179SLPC   C1520398   1.913   5.492  10.157 -0.8123 -0.3945 -0.4501
  179SLPC  H15A20399   1.975   5.405  10.171  0.5218  0.9809  4.4058
  179SLPC  H15B20400   1.833   5.491  10.231 -0.4769  1.0502 -0.0337
  179SLPC  H15C20401   1.874   5.503  10.057 -2.5257  1.4283  0.3423
  179SLPC   C1220402   2.109   5.626  10.096 -0.1484 -0.1825 -0.1221
  179SLPC  H12A20403   2.167   5.715  10.118 -0.9784  0.0156  1.3808
  179SLPC  H12B20404   2.056   5.637  10.003  0.8228 -1.7408 -0.9013
  179SLPC   C1120405   2.215   5.508  10.080  0.0881  0.5079  0.0353
  179SLPC  H11A20406   2.261   5.516   9.980 -3.0074 -1.4956 -1.7015
  179SLPC  H11B20407   2.163   5.410  10.089  1.8017 -0.3713  0.7068
  179SLPC     P20408   2.426   5.613  10.197 -0.1415 -0.5563 -0.2312
  179SLPC   O1320409   2.373   5.747  10.175  0.4265 -0.6113  0.7342
  179SLPC   O1420410   2.493   5.578  10.322 -0.3991 -0.4202  0.0484
  179SLPC   O1220411   2.311   5.508  10.185  0.4717  0.2530  0.1833
  179SLPC   O1120412   2.509   5.577  10.071  0.3139  0.0694  0.5216
  179SLPC    C120413   2.563   5.446  10.046  0.3933 -0.4429  0.2583
  179SLPC    HA20414   2.640   5.423  10.122  2.5222 -1.5689 -2.0785
  179SLPC    HB20415   2.480   5.374  10.029  0.1914  0.2269 -1.9807
  179SLPC    C220416   2.632   5.445   9.907 -0.0900  0.1239  0.0772
  179SLPC    HS20417   2.699   5.356   9.904 -1.1702 -0.7304  0.3155
  179SLPC   O2120418   2.706   5.569   9.875  0.3446 -0.3436 -0.2265
  179SLPC   C2120419   2.807   5.597   9.958 -0.0166  0.9293 -0.2065
  179SLPC   O2220420   2.855   5.524  10.043  0.0805 -0.6540  0.6250
  179SLPC   C2220421   2.852   5.742   9.932  0.3978 -0.4669  0.5356
  179SLPC   H2R20422   2.764   5.802   9.903  0.2649 -0.5690  0.7229
  179SLPC   H2S20423   2.889   5.794  10.023 -0.5493 -0.7129  1.0777
  179SLPC    C320424   2.517   5.432   9.797  0.5522  0.4438 -0.0556
  179SLPC    HX20425   2.426   5.493   9.810 -0.8764 -0.6662 -3.6413
  179SLPC    HY20426   2.494   5.323   9.792  2.0548  0.0115  1.3691
  179SLPC   O3120427   2.559   5.482   9.669  0.1493 -1.1971  1.1452
  179SLPC   C3120428   2.662   5.419   9.615 -0.0621 -0.4251  0.0067
  179SLPC   O3220429   2.706   5.315   9.658  0.0864  0.1092  0.2028
  179SLPC   C3220430   2.724   5.506   9.502 -0.0409 -0.2518  0.4555
  179SLPC   H2X20431   2.829   5.531   9.530  0.3991 -1.5877  0.0950
  179SLPC   H2Y20432   2.667   5.600   9.490 -0.3994 -0.3133  1.5985
  179SLPC   C2320433   2.956   5.765   9.826 -0.2587 -0.4498  0.0494
  179SLPC   H3R20434   2.908   5.733   9.731  1.1680  2.1718 -1.6869
  179SLPC   H3S20435   3.044   5.703   9.852 -0.0766  0.0267  0.5764
  179SLPC   C2420436   2.981   5.921   9.795  0.0992 -0.3952 -0.1900
  179SLPC   H4R20437   3.074   5.953   9.847 -0.4585  0.4227  0.3316
  179SLPC   H4S20438   2.909   5.989   9.846  1.2670 -0.5009  1.7008
  179SLPC   C2520439   2.986   5.949   9.642  0.1169  0.3503  0.4619
  179SLPC   H5R20440   3.007   6.055   9.618 -0.0762  0.6066  1.3775
  179SLPC   H5S20441   2.884   5.929   9.602 -0.2172  0.7526  1.1045
  179SLPC   C2620442   3.076   5.858   9.556 -0.6264  0.3869  0.4601
  179SLPC   H6R20443   3.043   5.752   9.567 -2.0630  0.7877  0.1772
  179SLPC   H6S20444   3.180   5.861   9.596  0.3623 -0.6454 -1.8332
  179SLPC   C2720445   3.095   5.901   9.414  0.6229  0.4160  0.4387
  179SLPC   H7R20446   3.181   5.840   9.376  1.2479  0.2820  2.0153
  179SLPC   H7S20447   3.131   6.006   9.414 -0.7388  0.9124  2.0738
  179SLPC   C2820448   2.968   5.890   9.323  0.0599 -0.1556  0.5116
  179SLPC   H8R20449   2.882   5.938   9.374 -0.8066  1.2678 -2.0937
  179SLPC   H8S20450   2.944   5.782   9.308 -1.8046  0.1160  1.2543
  179SLPC   C2920451   2.992   5.961   9.185  0.8185 -0.0794  0.4396
  179SLPC   H9R20452   3.024   6.066   9.191  0.0319  0.1686  0.4036
  179SLPC  C21020453   2.982   5.915   9.059  0.3391 -0.0323 -0.6388
  179SLPC  H10R20454   2.994   5.980   8.971 -2.6090  1.0298 -0.3708
  179SLPC  C21120455   2.926   5.777   9.032 -0.6728 -0.6468  0.4183
  179SLPC  H11R20456   2.836   5.754   9.094 -0.8969 -0.7358  0.0642
  179SLPC  H11S20457   3.001   5.701   9.062  0.5362  0.5338  0.4833
  179SLPC  C21220458   2.890   5.757   8.889 -0.8019  0.6820  0.3351
  179SLPC  H12R20459   2.798   5.812   8.862 -1.3081 -0.6130 -0.6787
  179SLPC  C21320460   2.954   5.682   8.798 -0.0315 -0.8085 -0.5928
  179SLPC  H13R20461   2.905   5.676   8.699 -3.5005 -1.1870  0.9925
  179SLPC  C21420462   3.078   5.595   8.807  0.2938  0.1118 -0.0770
  179SLPC  H14R20463   3.061   5.494   8.764  2.2719  0.5387 -2.0700
  179SLPC  H14S20464   3.099   5.588   8.916 -1.8071  2.3246  0.5714
  179SLPC  C21520465   3.205   5.648   8.742  0.1524 -0.7428 -0.1507
  179SLPC  H15R20466   3.183   5.689   8.641  0.9933  2.1607  0.7311
  179SLPC  H15S20467   3.285   5.571   8.740  1.1393  0.2543 -0.5407
  179SLPC  C21620468   3.257   5.768   8.824 -0.1528 -0.2869  0.5635
  179SLPC  H16R20469   3.276   5.750   8.932  0.5697  3.3880  1.1660
  179SLPC  H16S20470   3.181   5.849   8.827  0.9855  0.7797  1.8543
  179SLPC  C21720471   3.398   5.816   8.785 -0.7197 -0.9866 -0.5188
  179SLPC  H17R20472   3.480   5.741   8.784  1.4937  1.1741  2.0159
  179SLPC  H17S20473   3.430   5.891   8.860 -0.5731 -0.5566 -1.0027
  179SLPC  C21820474   3.404   5.883   8.650 -0.4826 -1.1558 -0.9311
  179SLPC  H18R20475   3.346   5.977   8.658 -0.2125 -1.0722  0.3006
  179SLPC  H18S20476   3.358   5.812   8.578 -3.5383 -1.1777  0.8684
  179SLPC  H18T20477   3.509   5.913   8.630  0.0248 -0.8942  1.7325
  179SLPC   C3320478   2.721   5.441   9.364  0.4632  0.6490  0.3393
  179SLPC   H3X20479   2.629   5.382   9.345  2.4066 -1.5817 -2.9724
  179SLPC   H3Y20480   2.802   5.365   9.367  0.2640  0.4583  1.2884
  179SLPC   C3420481   2.749   5.515   9.229 -0.9213  0.5247  0.1866
  179SLPC   H4X20482   2.848   5.566   9.230 -0.0438 -1.0845 -1.0783
  179SLPC   H4Y20483   2.686   5.604   9.209 -1.1364  0.6698  1.3886
  179SLPC   C3520484   2.734   5.437   9.101  0.0854  0.2036 -0.1605
  179SLPC   H5X20485   2.800   5.348   9.095  0.5104  0.6015 -2.1397
  179SLPC   H5Y20486   2.765   5.501   9.016  1.3363  0.7571  0.6729
  179SLPC   C3620487   2.587   5.403   9.083  0.4720  0.4776 -0.2134
  179SLPC   H6X20488   2.527   5.496   9.092 -0.1035  0.3020 -1.9064
  179SLPC   H6Y20489   2.566   5.325   9.159  2.7850 -0.3863 -0.3649
  179SLPC   C3720490   2.553   5.341   8.947  0.8805 -0.2451  0.6009
  179SLPC   H7X20491   2.443   5.329   8.944  0.5826  2.1423 -0.5719
  179SLPC   H7Y20492   2.600   5.240   8.937 -1.5889 -1.3433 -0.9131
  179SLPC   C3820493   2.601   5.421   8.819  0.8417  0.7251 -0.2594
  179SLPC   H8X20494   2.712   5.410   8.823  1.0153  2.5529  0.8469
  179SLPC   H8Y20495   2.565   5.526   8.825  0.2445  0.4721  0.8047
  179SLPC   C3920496   2.542   5.355   8.692 -0.9450  0.3663  0.2032
  179SLPC   H9X20497   2.431   5.357   8.688 -1.1324 -2.9980  0.2281
  179SLPC   H9Y20498   2.577   5.250   8.688 -0.7743  0.2862  2.4937
  179SLPC  C31020499   2.584   5.435   8.570  0.7480  0.6369 -0.4938
  179SLPC  H10X20500   2.694   5.427   8.560  0.9746  1.0054  1.3739
  179SLPC  H10Y20501   2.568   5.545   8.576 -1.3439  0.3823 -0.6627
  179SLPC  C31120502   2.528   5.383   8.433 -1.0200 -0.0265 -0.4680
  179SLPC  H11X20503   2.537   5.273   8.415  2.2200  0.5373 -3.5047
  179SLPC  H11Y20504   2.595   5.433   8.360 -1.1320 -0.7620 -1.0946
  179SLPC  C31220505   2.386   5.424   8.413  0.6342  0.5331 -0.7517
  179SLPC  H12X20506   2.379   5.506   8.488  1.4424 -1.3555  1.4930
  179SLPC  H12Y20507   2.327   5.343   8.461  1.5837  0.5481  0.4653
  179SLPC  C31320508   2.343   5.462   8.267 -0.0292  0.1577  0.5567
  179SLPC  H13X20509   2.392   5.560   8.245 -0.0363  0.5585  2.2025
  179SLPC  H13Y20510   2.233   5.476   8.261  0.1135  2.4075  1.7970
  179SLPC  C31420511   2.378   5.357   8.158  0.4292  0.5367 -0.1524
  179SLPC  H14X20512   2.353   5.258   8.201  2.1575  0.4792  0.7915
  179SLPC  H14Y20513   2.486   5.353   8.133  0.5617  0.1685  0.4637
  179SLPC  C31520514   2.310   5.383   8.018  0.3896 -0.7093  0.0246
  179SLPC  H15X20515   2.323   5.490   7.989 -1.6545 -0.6699 -0.9668
  179SLPC  H15Y20516   2.201   5.376   8.042  0.7985 -1.2840  1.8813
  179SLPC  C31620517   2.345   5.273   7.921 -0.0246 -0.2496  0.5443
  179SLPC  H16X20518   2.272   5.282   7.838  1.9040  1.2669 -1.0690
  179SLPC  H16Y20519   2.335   5.173   7.969  1.9255 -1.5839 -1.6126
  179SLPC  C31720520   2.485   5.295   7.865  0.0338 -0.2888  0.3705
  179SLPC  H17X20521   2.476   5.215   7.789 -2.5110  0.6875 -0.4741
  179SLPC  H17Y20522   2.565   5.278   7.940  2.4916 -1.8217 -2.4239
  179SLPC  C31820523   2.528   5.422   7.792 -0.1596 -0.0477  0.1042
  179SLPC  H18X20524   2.550   5.506   7.862  1.1536  0.1280 -0.4773
  179SLPC  H18Y20525   2.444   5.461   7.731  0.2151  0.3329 -0.1760
  179SLPC  H18Z20526   2.607   5.409   7.715 -2.3188 -0.2124 -2.2146
  180SLPC     N20527   2.727   4.783  11.053  0.4433  0.2997  0.3070
  180SLPC   C1320528   2.578   4.778  11.021  0.5785 -0.8413 -0.6455
  180SLPC  H13A20529   2.572   4.757  10.915  4.8412  0.6428 -1.3937
  180SLPC  H13B20530   2.536   4.707  11.091  2.0990 -0.1580  1.0347
  180SLPC  H13C20531   2.535   4.876  11.040  3.3370  0.2676  0.3843
  180SLPC   C1420532   2.782   4.637  11.035  0.4503 -0.0831 -0.2079
  180SLPC  H14A20533   2.752   4.571  11.114  0.1922 -0.4389 -0.5998
  180SLPC  H14B20534   2.755   4.593  10.940 -4.4591  2.4036 -0.2910
  180SLPC  H14C20535   2.889   4.632  11.041  0.3868  0.0359  1.6668
  180SLPC   C1520536   2.752   4.818  11.195  0.0921  0.4549  0.0846
  180SLPC  H15A20537   2.857   4.815  11.219 -0.3087  0.5021  1.9869
  180SLPC  H15B20538   2.722   4.922  11.197 -0.2159  0.4466 -1.9546
  180SLPC  H15C20539   2.700   4.759  11.268  1.0014 -0.3564  0.0930
  180SLPC   C1220540   2.800   4.861  10.947  0.1551 -0.4764  0.1015
  180SLPC  H12A20541   2.906   4.849  10.961  0.4355  0.2690 -1.2459
  180SLPC  H12B20542   2.782   4.965  10.971 -2.8288 -0.2919 -2.2680
  180SLPC   C1120543   2.769   4.852  10.796  0.0111 -0.0088  0.3608
  180SLPC  H11A20544   2.837   4.924  10.745 -1.7155 -0.1378 -2.3071
  180SLPC  H11B20545   2.666   4.883  10.768  0.2386  0.2877 -0.1841
  180SLPC     P20546   2.928   4.685  10.662  0.1091 -0.4514  0.0382
  180SLPC   O1320547   3.050   4.687  10.743  0.1895  0.2714 -0.2207
  180SLPC   O1420548   2.895   4.559  10.589  0.5203  0.2042 -0.9248
  180SLPC   O1220549   2.800   4.724  10.742  0.1597 -0.0740 -0.1646
  180SLPC   O1120550   2.945   4.802  10.555  0.0737  0.3911 -0.2328
  180SLPC    C120551   2.828   4.816  10.466 -0.2035 -0.1337 -0.4515
  180SLPC    HA20552   2.754   4.733  10.469 -0.2745 -0.1669 -2.3444
  180SLPC    HB20553   2.764   4.904  10.487 -3.1286 -1.2968 -3.5364
  180SLPC    C220554   2.867   4.814  10.314  0.0766  0.2879 -0.5911
  180SLPC    HS20555   2.769   4.809  10.263  0.6318 -1.8080 -1.5724
  180SLPC   O2120556   2.956   4.704  10.280 -0.0426 -0.0599  0.2031
  180SLPC   C2120557   2.894   4.585  10.260 -0.3524 -0.2090  0.5125
  180SLPC   O2220558   2.776   4.563  10.267 -0.4541 -0.6425 -0.0662
  180SLPC   C2220559   3.006   4.479  10.226  0.8296 -0.3351 -0.1234
  180SLPC   H2R20560   3.101   4.536  10.230  1.1024 -0.5070 -2.5839
  180SLPC   H2S20561   2.994   4.402  10.305 -3.7896  0.0322 -0.2167
  180SLPC    C320562   2.922   4.951  10.273  0.8837 -0.6227  0.1192
  180SLPC    HX20563   3.019   4.972  10.324 -0.2629 -0.1043  2.2175
  180SLPC    HY20564   2.842   5.020  10.307 -0.6332 -2.0119 -0.5291
  180SLPC   O3120565   2.926   4.979  10.130 -0.3294  0.3197  0.3357
  180SLPC   C3120566   3.037   4.940  10.072 -0.4595  0.0482 -0.0797
  180SLPC   O3220567   3.131   4.889  10.128  0.5347  0.8710  0.3901
  180SLPC   C3220568   3.031   4.972   9.915 -0.2037 -0.9373  0.3415
  180SLPC   H2X20569   2.928   4.949   9.880 -0.9513  0.5306  1.4818
  180SLPC   H2Y20570   3.104   4.901   9.869  1.8598  1.1679  0.1998
  180SLPC   C2320571   2.983   4.430  10.077  0.6526  0.4717 -0.8525
  180SLPC   H3R20572   2.879   4.394  10.059  0.6479  0.1217 -0.1487
  180SLPC   H3S20573   3.050   4.341  10.074 -0.3401 -0.2955 -0.9052
  180SLPC   C2420574   3.008   4.530   9.960 -0.5810  0.1002  0.0375
  180SLPC   H4R20575   3.105   4.582   9.953  1.1211 -2.7704  0.5997
  180SLPC   H4S20576   2.928   4.605   9.981  0.5346  1.8358 -1.6193
  180SLPC   C2520577   2.985   4.460   9.826  0.0562 -0.1638 -0.4007
  180SLPC   H5R20578   2.881   4.419   9.825  0.3714 -1.0301  0.4734
  180SLPC   H5S20579   3.053   4.373   9.818  0.4302  0.0724  0.1927
  180SLPC   C2620580   2.994   4.559   9.710  0.0420  0.4070 -0.0004
  180SLPC   H6R20581   3.098   4.596   9.698  0.3519 -0.2346  0.6352
  180SLPC   H6S20582   2.928   4.642   9.744 -1.0568 -0.4873  0.1204
  180SLPC   C2720583   2.939   4.515   9.571  0.0915  0.1292 -0.2762
  180SLPC   H7R20584   2.834   4.480   9.584  0.5036 -1.1953 -0.4570
  180SLPC   H7S20585   2.992   4.430   9.523 -3.8308 -1.3766 -2.4100
  180SLPC   C2820586   2.927   4.633   9.475  0.2594 -0.3846 -0.1262
  180SLPC   H8R20587   2.881   4.720   9.526  1.6633  0.4618 -0.2367
  180SLPC   H8S20588   2.847   4.607   9.404  0.2960  0.7446 -0.6029
  180SLPC   C2920589   3.059   4.675   9.415  0.2386 -0.0220  0.3244
  180SLPC   H9R20590   3.131   4.715   9.489 -1.0281  0.4700  1.3362
  180SLPC  C21020591   3.086   4.658   9.283 -0.1416  0.1600 -0.7304
  180SLPC  H10R20592   3.192   4.661   9.252 -0.0466 -0.9638 -0.5482
  180SLPC  C21120593   2.996   4.603   9.178 -0.0128  0.9976 -0.0546
  180SLPC  H11R20594   2.909   4.672   9.184 -0.4756  0.3779  0.4464
  180SLPC  H11S20595   2.954   4.503   9.201 -2.5710  0.9990 -3.7872
  180SLPC  C21220596   3.052   4.607   9.034 -0.6248  0.5051 -0.0166
  180SLPC  H12R20597   3.146   4.657   9.010 -0.1464  0.0046  0.7915
  180SLPC  C21320598   2.986   4.559   8.927  0.2225  0.0844 -0.2060
  180SLPC  H13R20599   3.030   4.572   8.827  0.7388  1.9813  0.2242
  180SLPC  C21420600   2.845   4.499   8.938  1.2694 -0.4970 -0.1539
  180SLPC  H14R20601   2.821   4.488   9.046 -1.5122 -1.4123 -0.7665
  180SLPC  H14S20602   2.834   4.393   8.906 -2.8219  0.0419 -1.2040
  180SLPC  C21520603   2.750   4.587   8.846  0.5292  0.2719 -0.5481
  180SLPC  H15R20604   2.772   4.695   8.860  0.1964  0.0500  2.1921
  180SLPC  H15S20605   2.645   4.570   8.879  0.9989  1.2246  1.5896
  180SLPC  C21620606   2.765   4.534   8.701 -0.1371  0.0938  0.6119
  180SLPC  H16R20607   2.764   4.423   8.693  1.0465  0.1108  0.0217
  180SLPC  H16S20608   2.862   4.568   8.660 -0.1895 -2.5089 -1.9737
  180SLPC  C21720609   2.669   4.597   8.597  0.4817  0.2644 -0.0334
  180SLPC  H17R20610   2.671   4.706   8.619  0.9465  0.6791 -1.9853
  180SLPC  H17S20611   2.569   4.559   8.627  1.8441 -0.9692  3.5234
  180SLPC  C21820612   2.709   4.575   8.457  0.1466  0.1129 -0.0019
  180SLPC  H18R20613   2.723   4.465   8.456 -2.5969 -0.2853 -1.1282
  180SLPC  H18S20614   2.805   4.621   8.427 -0.0158  0.4642  0.0156
  180SLPC  H18T20615   2.621   4.593   8.392 -1.1442  0.2606  1.7200
  180SLPC   C3320616   3.063   5.131   9.881 -0.3614  0.0017  0.0263
  180SLPC   H3X20617   3.174   5.143   9.883 -0.3137 -0.3329 -0.4147
  180SLPC   H3Y20618   3.015   5.194   9.959 -1.9661 -0.4341 -0.5761
  180SLPC   C3420619   3.002   5.186   9.756  0.8474 -0.5797 -0.3120
  180SLPC   H4X20620   3.054   5.283   9.745 -1.2728  0.4658 -2.0987
  180SLPC   H4Y20621   2.896   5.217   9.771  1.3412  1.2013 -0.2798
  180SLPC   C3520622   3.021   5.100   9.628 -0.3901  0.0822 -0.5464
  180SLPC   H5X20623   2.955   5.013   9.644 -2.5801  1.2902 -2.3643
  180SLPC   H5Y20624   3.126   5.066   9.617 -0.9418 -1.6571 -0.6282
  180SLPC   C3620625   2.980   5.166   9.499  0.4273 -0.0528 -0.1079
  180SLPC   H6X20626   3.046   5.251   9.471  1.1425 -1.4933 -3.1515
  180SLPC   H6Y20627   2.873   5.197   9.508  0.8713  1.2761  0.9146
  180SLPC   C3720628   2.996   5.067   9.381  0.7128  0.6376  0.4346
  180SLPC   H7X20629   2.939   4.972   9.397  1.0973  0.0467 -1.4140
  180SLPC   H7Y20630   3.100   5.028   9.381  0.7422  0.4875  3.0478
  180SLPC   C3820631   2.962   5.134   9.250  0.8313 -0.6372  0.1231
  180SLPC   H8X20632   3.037   5.209   9.216 -1.3006  1.9643  0.8406
  180SLPC   H8Y20633   2.869   5.191   9.270  1.4215  1.8427 -3.1642
  180SLPC   C3920634   2.951   5.030   9.142  0.5253 -0.3416  0.2264
  180SLPC   H9X20635   2.882   4.948   9.172  0.7653 -1.6680 -2.4646
  180SLPC   H9Y20636   3.049   4.985   9.113 -0.0610 -0.5737 -1.5356
  180SLPC  C31020637   2.887   5.082   9.009  0.3238  0.3597  0.6676
  180SLPC  H10X20638   2.942   5.175   8.979 -1.1961  0.9316 -0.4863
  180SLPC  H10Y20639   2.780   5.106   9.027  0.0179 -0.8698  0.5736
  180SLPC  C31120640   2.902   4.979   8.893  0.3653 -0.2214  0.0764
  180SLPC  H11X20641   2.826   4.901   8.919 -0.2221  0.5495  0.7360
  180SLPC  H11Y20642   2.997   4.922   8.902  0.8124  0.4450 -0.3558
  180SLPC  C31220643   2.868   5.048   8.759 -0.3489 -0.6882 -0.4143
  180SLPC  H12X20644   2.968   5.078   8.722 -0.3409 -1.4114 -1.0166
  180SLPC  H12Y20645   2.791   5.127   8.774 -0.5976 -1.2677  1.7143
  180SLPC  C31320646   2.815   4.944   8.662  0.6476  0.3028  0.3178
  180SLPC  H13X20647   2.730   4.887   8.705  0.5355 -0.0448 -0.3640
  180SLPC  H13Y20648   2.897   4.871   8.643 -1.1708 -1.6471 -0.3822
  180SLPC  C31420649   2.774   5.020   8.534 -0.8205 -0.1456  0.2879
  180SLPC  H14X20650   2.849   5.099   8.514 -0.2568 -0.7327  0.0690
  180SLPC  H14Y20651   2.678   5.072   8.553 -0.9182  0.6027 -1.9669
  180SLPC  C31520652   2.746   4.926   8.422  0.1517  0.0240  0.8336
  180SLPC  H15X20653   2.643   4.892   8.445 -0.4463  1.8176  0.9995
  180SLPC  H15Y20654   2.820   4.843   8.430 -2.3261 -2.3863  0.1666
  180SLPC  C31620655   2.737   4.995   8.286  0.1616 -1.0674  0.3461
  180SLPC  H16X20656   2.831   5.053   8.277 -0.8875  0.8092  0.9066
  180SLPC  H16Y20657   2.657   5.070   8.270  0.6091 -1.0306 -2.0108
  180SLPC  C31720658   2.733   4.887   8.171  0.2170  0.1909  0.5046
  180SLPC  H17X20659   2.636   4.833   8.169 -0.0324  0.5542  1.8521
  180SLPC  H17Y20660   2.816   4.817   8.196  0.3643 -0.3015 -1.2399
  180SLPC  C31820661   2.754   4.930   8.019  0.2451  0.5374 -0.4875
  180SLPC  H18X20662   2.706   5.027   7.993 -0.5998  0.3203  0.1938
  180SLPC  H18Y20663   2.707   4.848   7.962 -0.0080  0.5557 -0.3112
  180SLPC  H18Z20664   2.861   4.935   7.990  0.5851 -0.8282  0.4273
  181SLPC     N20665   1.904   2.094  10.843  0.1222 -0.0460  0.6084
  181SLPC   C1320666   1.821   2.114  10.721  0.0141  0.3289  0.1790
  181SLPC  H13A20667   1.753   2.031  10.707  0.5943 -0.4356  1.6174
  181SLPC  H13B20668   1.761   2.202  10.738  1.3306  0.7286  3.5176
  181SLPC  H13C20669   1.889   2.125  10.638 -0.5852 -0.4488 -0.4350
  181SLPC   C1420670   1.970   2.216  10.891 -0.4625 -0.3881  0.3488
  181SLPC  H14A20671   2.027   2.208  10.982  0.8332  0.2735 -0.3628
  181SLPC  H14B20672   2.034   2.262  10.816 -2.0544  1.3320 -0.0319
  181SLPC  H14C20673   1.904   2.298  10.915 -0.3774 -0.7446  1.8501
  181SLPC   C1520674   1.998   1.986  10.810 -0.2690  0.7605  0.2957
  181SLPC  H15A20675   2.064   1.950  10.888 -0.3272  0.3412  0.1574
  181SLPC  H15B20676   1.951   1.900  10.764  1.1393 -0.6785  1.4490
  181SLPC  H15C20677   2.073   2.017  10.738  0.4154 -3.2954 -1.0365
  181SLPC   C1220678   1.810   2.051  10.945  0.5307  0.9701 -0.0727
  181SLPC  H12A20679   1.869   2.014  11.027  1.0835 -0.6651 -1.1675
  181SLPC  H12B20680   1.746   1.969  10.916 -1.8435  2.8661 -0.5658
  181SLPC   C1120681   1.713   2.158  11.005 -0.1990  0.4988 -0.4776
  181SLPC  H11A20682   1.770   2.250  11.031  3.1348 -0.3372 -3.9364
  181SLPC  H11B20683   1.669   2.104  11.091 -0.3996 -2.1559 -2.1530
  181SLPC     P20684   1.518   2.310  10.956  0.0468  0.2701  0.2798
  181SLPC   O1320685   1.491   2.289  11.097 -0.1209 -0.1739  0.0810
  181SLPC   O1420686   1.573   2.438  10.917 -0.2787 -0.4115  0.1252
  181SLPC   O1220687   1.607   2.192  10.902 -0.1197  0.9692 -0.6765
  181SLPC   O1120688   1.384   2.281  10.873 -0.0741  0.2265 -0.0617
  181SLPC    C120689   1.340   2.371  10.768  0.5729 -0.2979  0.5338
  181SLPC    HA20690   1.230   2.363  10.761  0.6704 -0.4294 -1.5041
  181SLPC    HB20691   1.363   2.475  10.800 -3.0536  0.6896  0.4151
  181SLPC    C220692   1.405   2.340  10.632 -0.7596 -0.0182  0.0398
  181SLPC    HS20693   1.514   2.338  10.653 -0.6395  4.3576  0.7829
  181SLPC   O2120694   1.371   2.449  10.544  0.6407 -0.4262  0.1811
  181SLPC   C2120695   1.466   2.494  10.456 -1.0069  0.5565  0.0764
  181SLPC   O2220696   1.579   2.452  10.465  0.1188 -0.2682 -0.4427
  181SLPC   C2220697   1.406   2.600  10.369  0.0452  0.5626 -0.3215
  181SLPC   H2R20698   1.317   2.549  10.326 -1.3266  0.9362  1.9099
  181SLPC   H2S20699   1.364   2.677  10.438  1.5039 -1.7350  3.4643
  181SLPC    C320700   1.355   2.204  10.574  0.1069  0.2096 -0.9149
  181SLPC    HX20701   1.244   2.195  10.580 -0.1140  2.9384  3.2197
  181SLPC    HY20702   1.393   2.124  10.642 -0.8821  1.9998  1.9012
  181SLPC   O3120703   1.401   2.185  10.441  0.0504  0.6531  0.2474
  181SLPC   C3120704   1.525   2.126  10.427 -0.1960 -0.3924  0.3900
  181SLPC   O3220705   1.601   2.100  10.514  0.3987  0.2483  0.3896
  181SLPC   C3220706   1.549   2.098  10.280  0.6260 -0.1573 -0.2684
  181SLPC   H2X20707   1.511   1.997  10.254  2.0033 -0.5408 -0.9143
  181SLPC   H2Y20708   1.655   2.118  10.251  0.4438  1.4816  0.0853
  181SLPC   C2320709   1.502   2.662  10.274  0.0791  0.6052 -0.3360
  181SLPC   H3R20710   1.526   2.584  10.198 -0.2155 -1.0131  1.1423
  181SLPC   H3S20711   1.594   2.671  10.335  0.8151 -3.4042 -0.5521
  181SLPC   C2420712   1.445   2.796  10.221  0.7600  0.3280 -0.3003
  181SLPC   H4R20713   1.442   2.856  10.313  1.6348 -0.1228  0.0295
  181SLPC   H4S20714   1.341   2.774  10.186  1.8358 -1.5550 -2.6544
  181SLPC   C2520715   1.524   2.858  10.115 -0.4515  0.2802 -0.1210
  181SLPC   H5R20716   1.621   2.895  10.153 -0.2589  0.9800 -1.2486
  181SLPC   H5S20717   1.462   2.944  10.080 -1.9193 -0.5033  0.4512
  181SLPC   C2620718   1.528   2.761   9.994 -0.2614 -0.5536  0.9503
  181SLPC   H6R20719   1.587   2.667   9.997  0.9007  0.1332  0.4478
  181SLPC   H6S20720   1.584   2.819   9.918  3.3076 -2.2269  2.0616
  181SLPC   C2720721   1.397   2.724   9.921  0.0260 -0.1473 -0.2062
  181SLPC   H7R20722   1.332   2.672   9.995  0.8044 -0.0383  0.5550
  181SLPC   H7S20723   1.417   2.664   9.829 -6.5434 -0.4636 -2.0013
  181SLPC   C2820724   1.320   2.850   9.868 -0.1412 -0.8308 -0.3162
  181SLPC   H8R20725   1.293   2.927   9.943 -1.5979 -1.6408  0.0176
  181SLPC   H8S20726   1.226   2.815   9.821 -0.1240 -3.2720  1.3156
  181SLPC   C2920727   1.402   2.911   9.753 -0.5152  0.2081  0.2495
  181SLPC   H9R20728   1.467   2.994   9.783  2.3307 -1.2967 -1.3128
  181SLPC  C21020729   1.410   2.875   9.625 -0.2778  0.9510 -0.3369
  181SLPC  H10R20730   1.489   2.923   9.566  0.0040 -0.5101 -1.2019
  181SLPC  C21120731   1.330   2.760   9.549 -0.3565 -1.1731  0.2722
  181SLPC  H11R20732   1.244   2.806   9.496  0.0477  0.4942  1.0057
  181SLPC  H11S20733   1.275   2.691   9.616 -0.2544 -0.8657  0.6730
  181SLPC  C21220734   1.413   2.670   9.456 -0.7759 -0.0111 -0.0633
  181SLPC  H12R20735   1.468   2.586   9.502 -1.6795 -0.6057 -0.0644
  181SLPC  C21320736   1.441   2.689   9.324  0.1750  0.3225 -0.6697
  181SLPC  H13R20737   1.512   2.617   9.280  0.4378  0.8805 -1.1762
  181SLPC  C21420738   1.401   2.803   9.230  0.4589 -0.1306  0.1228
  181SLPC  H14R20739   1.482   2.830   9.159 -0.2291 -0.2317 -0.7164
  181SLPC  H14S20740   1.387   2.903   9.278  2.1719 -0.2247  0.9077
  181SLPC  C21520741   1.286   2.773   9.135  0.2296  0.1950 -0.2875
  181SLPC  H15R20742   1.231   2.864   9.103  0.8758 -0.3710 -3.4411
  181SLPC  H15S20743   1.211   2.721   9.198 -0.0561  0.9299 -0.0174
  181SLPC  C21620744   1.318   2.685   9.013 -0.0003  0.5551  0.5188
  181SLPC  H16R20745   1.342   2.584   9.052  0.0951  0.8455  1.2185
  181SLPC  H16S20746   1.406   2.727   8.959 -0.0627 -0.9193 -0.8112
  181SLPC  C21720747   1.205   2.675   8.904 -0.4409  0.3042  0.3757
  181SLPC  H17R20748   1.181   2.772   8.855 -0.5130 -0.9789 -2.3379
  181SLPC  H17S20749   1.103   2.643   8.935 -0.6714  1.0412  0.4013
  181SLPC  C21820750   1.244   2.572   8.799 -0.8700 -0.6367 -0.0947
  181SLPC  H18R20751   1.296   2.485   8.845  1.5461  1.8556  2.2874
  181SLPC  H18S20752   1.308   2.622   8.723  0.5015 -0.1744  1.3019
  181SLPC  H18T20753   1.157   2.540   8.739 -0.1456 -0.1535 -1.4436
  181SLPC   C3320754   1.488   2.201  10.184 -0.0977 -0.5014 -0.0994
  181SLPC   H3X20755   1.511   2.306  10.212 -2.5744 -0.1778  1.0381
  181SLPC   H3Y20756   1.378   2.194  10.195 -0.0033 -2.5943 -0.2234
  181SLPC   C3420757   1.522   2.172  10.044  0.7509 -0.3278  0.8309
  181SLPC   H4X20758   1.468   2.083  10.006  1.6606 -0.2311 -0.7815
  181SLPC   H4Y20759   1.630   2.158  10.022  0.4004 -2.9952  0.4928
  181SLPC   C3520760   1.494   2.291   9.954  0.5422 -0.6823  0.3247
  181SLPC   H5X20761   1.535   2.387   9.991 -0.0894  1.2857 -3.4862
  181SLPC   H5Y20762   1.385   2.314   9.956  0.5361 -0.7693  1.2472
  181SLPC   C3620763   1.552   2.268   9.815 -0.7526 -0.1308 -0.5606
  181SLPC   H6X20764   1.497   2.179   9.777  0.9230 -0.8068 -1.5313
  181SLPC   H6Y20765   1.660   2.242   9.808 -0.2427  1.9636 -1.3085
  181SLPC   C3720766   1.527   2.388   9.719 -0.1790  0.0689 -0.1007
  181SLPC   H7X20767   1.593   2.474   9.741  3.3845 -2.6904  1.0476
  181SLPC   H7Y20768   1.418   2.411   9.727 -0.4799 -0.7261 -1.5621
  181SLPC   C3820769   1.553   2.346   9.575 -0.6868 -0.0483  0.6543
  181SLPC   H8X20770   1.624   2.261   9.568 -0.4267 -0.1832  3.7347
  181SLPC   H8Y20771   1.593   2.431   9.516  0.3542 -1.6943 -1.1180
  181SLPC   C3920772   1.420   2.308   9.503  0.4687 -0.1665 -0.5081
  181SLPC   H9X20773   1.350   2.392   9.526  2.1925  0.7219  1.8669
  181SLPC   H9Y20774   1.380   2.216   9.551 -1.4687  0.5249 -0.6840
  181SLPC  C31020775   1.439   2.292   9.353  0.2017  1.2001  0.4393
  181SLPC  H10X20776   1.541   2.261   9.322 -1.4149 -1.2487 -3.0769
  181SLPC  H10Y20777   1.432   2.388   9.297  0.6557 -0.5364 -2.8478
  181SLPC  C31120778   1.356   2.186   9.287  0.4169 -0.2240 -0.2802
  181SLPC  H11X20779   1.359   2.213   9.179 -1.6261 -0.3165 -0.3992
  181SLPC  H11Y20780   1.251   2.205   9.319  0.6896 -1.5679  1.5693
  181SLPC  C31220781   1.395   2.046   9.309 -0.6717  0.8541  0.2488
  181SLPC  H12X20782   1.396   2.024   9.418 -0.0950 -2.3541 -0.3293
  181SLPC  H12Y20783   1.500   2.027   9.282 -0.9901 -1.0083  0.2114
  181SLPC  C31320784   1.304   1.954   9.227 -0.1206 -0.4192 -0.1817
  181SLPC  H13X20785   1.199   1.962   9.263  0.0605  2.3392 -0.0535
  181SLPC  H13Y20786   1.342   1.853   9.250  1.9164  0.5489  1.0195
  181SLPC  C31420787   1.312   1.974   9.074  0.3175  0.0772  0.6520
  181SLPC  H14X20788   1.411   1.957   9.026  0.0514  0.7070 -0.1496
  181SLPC  H14Y20789   1.272   2.074   9.047 -2.1069 -0.0766  3.2312
  181SLPC  C31520790   1.230   1.870   8.995 -0.4501 -0.1364 -0.4722
  181SLPC  H15X20791   1.121   1.866   9.017 -0.5355  0.0170 -0.8465
  181SLPC  H15Y20792   1.267   1.768   9.017 -2.8527 -1.4332 -2.0111
  181SLPC  C31620793   1.252   1.885   8.845 -0.1156 -0.3955  0.5593
  181SLPC  H16X20794   1.357   1.878   8.810 -0.2638 -0.9886  0.2270
  181SLPC  H16Y20795   1.215   1.985   8.811  1.9415  0.3086  0.2981
  181SLPC  C31720796   1.170   1.782   8.765  0.1372  1.4468  0.1641
  181SLPC  H17X20797   1.060   1.795   8.761 -0.1086 -0.6346 -2.9989
  181SLPC  H17Y20798   1.192   1.687   8.819 -0.9156 -0.5985 -2.7196
  181SLPC  C31820799   1.219   1.760   8.616 -0.0668  0.1724 -0.0321
  181SLPC  H18X20800   1.153   1.680   8.575 -1.4613  1.9035 -1.3159
  181SLPC  H18Y20801   1.324   1.724   8.617  0.3472  1.2416 -1.6262
  181SLPC  H18Z20802   1.216   1.851   8.552 -0.7143  0.6003  0.5917
  182SLPC     N20803   4.037   2.590  10.582  0.6262 -0.2429 -1.1913
  182SLPC   C1320804   4.046   2.611  10.440  0.4688 -0.2050 -0.0869
  182SLPC  H13A20805   4.135   2.668  10.418 -0.8651  2.6225  1.2034
  182SLPC  H13B20806   4.058   2.519  10.386  3.4135  0.6658 -1.0799
  182SLPC  H13C20807   3.956   2.662  10.407  1.8160  0.8628 -2.3335
  182SLPC   C1420808   4.150   2.512  10.637  0.4469  0.0818  0.5434
  182SLPC  H14A20809   4.233   2.580  10.651 -1.1172  2.4478 -0.9918
  182SLPC  H14B20810   4.135   2.453  10.726  0.5993 -1.6819 -0.5378
  182SLPC  H14C20811   4.193   2.450  10.559  0.7745 -0.8095  1.4025
  182SLPC   C1520812   3.915   2.508  10.620 -0.8728  0.5430  0.4928
  182SLPC  H15A20813   3.924   2.406  10.585  0.0107  1.1145 -1.0146
  182SLPC  H15B20814   3.890   2.508  10.725 -0.9815 -1.8978  0.5231
  182SLPC  H15C20815   3.832   2.549  10.566 -0.7621  0.3542  0.1795
  182SLPC   C1220816   4.018   2.722  10.654  0.7814  0.3356  0.1336
  182SLPC  H12A20817   4.106   2.785  10.650  0.9135  0.1295 -3.3349
  182SLPC  H12B20818   4.001   2.699  10.758  0.5763 -2.0482 -0.3765
  182SLPC   C1120819   3.894   2.816  10.621 -0.3071  0.3470  0.1995
  182SLPC  H11A20820   3.907   2.875  10.527 -1.2985  1.4196  0.7231
  182SLPC  H11B20821   3.900   2.887  10.707 -0.8424 -0.4107  0.8725
  182SLPC     P20822   3.623   2.823  10.602 -0.0164  0.1513  0.3683
  182SLPC   O1320823   3.517   2.721  10.616 -0.2479  0.4682  0.3201
  182SLPC   O1420824   3.619   2.931  10.705  1.1553  0.3381  0.1361
  182SLPC   O1220825   3.766   2.750  10.621  0.4704  0.2106  0.4741
  182SLPC   O1120826   3.637   2.878  10.458 -0.4312  0.3171  0.6594
  182SLPC    C120827   3.635   2.784  10.349  0.4688  0.2175 -0.1760
  182SLPC    HA20828   3.638   2.677  10.377  1.2919 -0.2828 -2.0328
  182SLPC    HB20829   3.546   2.808  10.287  1.6388  1.8811 -1.3215
  182SLPC    C220830   3.752   2.807  10.254 -0.5705 -0.1734  0.4300
  182SLPC    HS20831   3.844   2.794  10.313  0.0941 -1.7617 -0.8824
  182SLPC   O2120832   3.730   2.944  10.200  0.0468  0.7538  0.7083
  182SLPC   C2120833   3.849   2.997  10.169  0.0703  0.5733 -0.3394
  182SLPC   O2220834   3.956   2.934  10.188 -0.3981  0.1320  0.2404
  182SLPC   C2220835   3.844   3.138  10.109  0.3319 -0.1668 -1.1026
  182SLPC   H2R20836   3.747   3.187  10.134  0.9439  0.1842  0.7666
  182SLPC   H2S20837   3.920   3.192  10.170  0.2713 -1.6013  0.2969
  182SLPC    C320838   3.749   2.698  10.136 -0.1616  0.8647 -0.0124
  182SLPC    HX20839   3.646   2.705  10.095  0.0688  0.5875 -0.6493
  182SLPC    HY20840   3.768   2.601  10.187  1.3568  1.2449  0.1978
  182SLPC   O3120841   3.838   2.720  10.024 -0.1157 -0.1644  0.4420
  182SLPC   C3120842   3.922   2.634   9.985 -0.2115 -0.2913 -0.2417
  182SLPC   O3220843   3.964   2.535  10.050  0.3092 -0.4010  0.6035
  182SLPC   C3220844   3.975   2.676   9.848  0.2858  0.1440  0.0556
  182SLPC   H2X20845   4.036   2.769   9.857  1.0076 -0.1620 -1.4001
  182SLPC   H2Y20846   3.886   2.695   9.783 -0.5669 -0.1539  1.1178
  182SLPC   C2320847   3.888   3.143   9.962  0.2523 -0.2518  0.0993
  182SLPC   H3R20848   3.994   3.111   9.950 -0.1424 -1.0486 -1.6723
  182SLPC   H3S20849   3.880   3.247   9.925 -1.5926 -0.6006 -0.6010
  182SLPC   C2420850   3.807   3.054   9.870  0.7600 -1.0130  0.3657
  182SLPC   H4R20851   3.823   2.944   9.871 -1.0746 -1.3226  0.0710
  182SLPC   H4S20852   3.846   3.078   9.769  3.7245  2.3959  2.0817
  182SLPC   C2520853   3.656   3.078   9.887  0.3467 -0.5284 -0.3329
  182SLPC   H5R20854   3.664   3.188   9.876  2.6914 -0.7278 -1.1105
  182SLPC   H5S20855   3.605   3.074   9.986 -0.6140 -1.1517 -0.8403
  182SLPC   C2620856   3.574   3.009   9.780 -0.3503 -0.3465 -0.4927
  182SLPC   H6R20857   3.626   3.015   9.682 -0.5469  0.0933 -0.5746
  182SLPC   H6S20858   3.479   3.063   9.758  0.1518 -0.6059 -3.8911
  182SLPC   C2720859   3.546   2.858   9.812 -0.1037 -0.0032  0.2208
  182SLPC   H7R20860   3.475   2.856   9.898 -3.0778  0.1352 -2.0742
  182SLPC   H7S20861   3.633   2.798   9.843  0.3107  0.4352 -0.0802
  182SLPC   C2820862   3.493   2.787   9.688  0.0236  0.1653  0.3100
  182SLPC   H8R20863   3.404   2.842   9.652  0.3391  0.6291  0.2319
  182SLPC   H8S20864   3.456   2.684   9.711  3.3857 -1.7108 -1.8082
  182SLPC   C2920865   3.599   2.761   9.579 -0.3904  0.1481 -0.6536
  182SLPC   H9R20866   3.701   2.794   9.607  0.1097 -2.4197  0.9174
  182SLPC  C21020867   3.575   2.707   9.461 -0.0205  0.0711  0.4799
  182SLPC  H10R20868   3.647   2.712   9.379 -0.1674 -0.4432  0.3177
  182SLPC  C21120869   3.443   2.651   9.415  0.6000  0.0716  0.5941
  182SLPC  H11R20870   3.391   2.598   9.497 -0.2307  0.5422  0.3823
  182SLPC  H11S20871   3.459   2.566   9.345 -2.0769  1.2136 -1.5728
  182SLPC  C21220872   3.356   2.742   9.331 -0.5197  0.1465  0.0081
  182SLPC  H12R20873   3.300   2.809   9.398  0.8089 -0.0411  1.3540
  182SLPC  C21320874   3.353   2.752   9.195  0.3796 -0.2068 -0.1659
  182SLPC  H13R20875   3.291   2.829   9.147  0.1217 -0.2089  0.1611
  182SLPC  C21420876   3.425   2.673   9.087  1.1074 -0.1826 -0.2732
  182SLPC  H14R20877   3.493   2.601   9.137  0.1441  0.4458  2.0337
  182SLPC  H14S20878   3.492   2.744   9.032  0.2033  0.2473 -0.8469
  182SLPC  C21520879   3.332   2.600   8.986 -0.2017  0.3895  0.4142
  182SLPC  H15R20880   3.236   2.648   8.958  0.8618  0.8547 -2.7780
  182SLPC  H15S20881   3.296   2.501   9.023 -2.1024  1.4264  1.5041
  182SLPC  C21620882   3.405   2.572   8.854  0.2306  0.6151 -0.3858
  182SLPC  H16R20883   3.510   2.541   8.876 -0.7521 -4.4482 -1.4959
  182SLPC  H16S20884   3.412   2.659   8.785 -0.1948 -0.1581 -1.4412
  182SLPC  C21720885   3.327   2.464   8.778  0.2829 -0.3436  0.1568
  182SLPC  H17R20886   3.226   2.506   8.760  0.9370  1.1954 -0.0726
  182SLPC  H17S20887   3.304   2.384   8.852  0.0282 -1.1750 -0.7905
  182SLPC  C21820888   3.398   2.415   8.655  0.4139  0.2818  0.4318
  182SLPC  H18R20889   3.505   2.386   8.664  1.7702  4.1105 -1.2174
  182SLPC  H18S20890   3.409   2.499   8.583  0.2092 -0.0324  0.0301
  182SLPC  H18T20891   3.353   2.335   8.593 -0.5632  0.3160  1.0844
  182SLPC   C3320892   4.063   2.571   9.775  0.1587  0.6634  0.0861
  182SLPC   H3X20893   4.128   2.531   9.856  1.2899 -1.6231 -1.8297
  182SLPC   H3Y20894   4.115   2.625   9.693  1.0647 -2.6450 -1.7165
  182SLPC   C3420895   3.995   2.453   9.704  0.5453 -0.2562  0.2598
  182SLPC   H4X20896   3.886   2.465   9.721  0.4866  1.0522 -0.8771
  182SLPC   H4Y20897   4.034   2.360   9.752 -3.2772 -1.5743  1.1583
  182SLPC   C3520898   4.018   2.425   9.558  0.3963 -0.3560 -0.2469
  182SLPC   H5X20899   3.988   2.318   9.550 -2.0755  0.2868 -0.4921
  182SLPC   H5Y20900   4.124   2.435   9.527  0.2119  0.4543 -0.6734
  182SLPC   C3620901   3.951   2.525   9.453  0.2841  0.2328 -0.6183
  182SLPC   H6X20902   4.006   2.620   9.436 -1.3642  1.4132  0.3835
  182SLPC   H6Y20903   3.844   2.543   9.478 -0.2834 -1.0381 -2.0038
  182SLPC   C3720904   3.949   2.455   9.318 -0.0728 -0.7617 -0.3838
  182SLPC   H7X20905   3.898   2.356   9.327 -0.5829 -0.4230  0.5878
  182SLPC   H7Y20906   4.053   2.445   9.280 -0.4374 -0.5255 -1.4905
  182SLPC   C3820907   3.876   2.540   9.203 -0.2444  0.2585  0.0501
  182SLPC   H8X20908   3.912   2.645   9.196  0.3313  0.1368  1.0397
  182SLPC   H8Y20909   3.768   2.541   9.230 -0.7873 -1.6028 -1.7881
  182SLPC   C3920910   3.892   2.468   9.061  0.3976  0.1786 -0.1793
  182SLPC   H9X20911   3.862   2.361   9.064  1.6661 -0.1707  2.0077
  182SLPC   H9Y20912   3.997   2.481   9.030  0.1813 -0.5084 -1.2302
  182SLPC  C31020913   3.823   2.535   8.943 -1.1098 -0.3892 -0.2108
  182SLPC  H10X20914   3.725   2.581   8.970 -0.7463  3.2857 -4.1126
  182SLPC  H10Y20915   3.794   2.456   8.871  0.8650 -0.0476 -1.4641
  182SLPC  C31120916   3.910   2.638   8.863  0.2069 -0.6193 -0.5152
  182SLPC  H11X20917   4.000   2.588   8.821  1.7159 -0.3210  2.1030
  182SLPC  H11Y20918   3.958   2.704   8.939 -0.8826 -0.4823  0.0771
  182SLPC  C31220919   3.832   2.721   8.757 -0.5377  0.3696  0.3903
  182SLPC  H12X20920   3.754   2.776   8.813 -0.9877  0.0691  0.0556
  182SLPC  H12Y20921   3.794   2.639   8.693  0.4476 -0.2419  0.5460
  182SLPC  C31320922   3.927   2.824   8.685 -0.8520  0.4367  0.7832
  182SLPC  H13X20923   3.996   2.759   8.627  1.4927  0.4546  3.3409
  182SLPC  H13Y20924   3.993   2.892   8.742  1.5130  1.1268 -2.4901
  182SLPC  C31420925   3.845   2.918   8.592 -0.3677  0.7383 -0.9902
  182SLPC  H14X20926   3.780   2.986   8.651  1.0727  2.3936 -1.2282
  182SLPC  H14Y20927   3.785   2.852   8.525 -2.5553  0.8917  0.6910
  182SLPC  C31520928   3.935   3.013   8.521  0.2115 -0.1621  0.5332
  182SLPC  H15X20929   4.009   2.961   8.457  1.4156  3.0175 -0.8572
  182SLPC  H15Y20930   3.989   3.070   8.599 -0.8856  2.0724 -0.2344
  182SLPC  C31620931   3.858   3.116   8.438  0.8502 -0.6574  0.7399
  182SLPC  H16X20932   3.793   3.060   8.367 -0.8678  2.1816 -0.1033
  182SLPC  H16Y20933   3.935   3.166   8.376 -0.5791 -0.4440 -0.9447
  182SLPC  C31720934   3.774   3.224   8.518  0.0278 -0.7181 -0.1187
  182SLPC  H17X20935   3.846   3.287   8.575 -0.2537 -1.6027  1.2684
  182SLPC  H17Y20936   3.721   3.179   8.605  0.9141 -0.1649  0.7402
  182SLPC  C31820937   3.695   3.313   8.420 -0.2034 -0.6444 -0.9430
  182SLPC  H18X20938   3.623   3.256   8.359  1.7082 -2.8794 -1.2707
  182SLPC  H18Y20939   3.769   3.357   8.350  1.3817  1.8351  2.0698
  182SLPC  H18Z20940   3.636   3.393   8.469 -0.8566 -1.1911 -0.8328
  183SLPC     N20941   1.262   3.290  10.968  0.4470  0.5224  0.1442
  183SLPC   C1320942   1.167   3.383  10.913  0.8177  0.4605  0.8443
  183SLPC  H13A20943   1.200   3.437  10.826  0.2380 -1.8632 -0.9013
  183SLPC  H13B20944   1.068   3.343  10.896  1.2396  0.0002 -0.6082
  183SLPC  H13C20945   1.150   3.462  10.985 -0.3075  1.6636 -0.6648
  183SLPC   C1420946   1.209   3.228  11.089  0.2628  0.2951 -0.8601
  183SLPC  H14A20947   1.157   3.136  11.071  1.0211 -0.6627  1.4687
  183SLPC  H14B20948   1.285   3.187  11.154 -2.3440 -1.9076  1.0237
  183SLPC  H14C20949   1.164   3.301  11.154  1.8672 -0.9934  1.8585
  183SLPC   C1520950   1.392   3.362  10.985  0.1464  0.0158  0.7474
  183SLPC  H15A20951   1.434   3.396  10.892  0.1987 -1.4089  0.2294
  183SLPC  H15B20952   1.382   3.449  11.048  0.8844  1.1838 -0.6903
  183SLPC  H15C20953   1.472   3.299  11.021 -0.1637 -0.2994  0.8977
  183SLPC   C1220954   1.279   3.181  10.862 -0.3213  0.1296  0.0562
  183SLPC  H12A20955   1.187   3.131  10.836  0.8563 -1.1809 -1.7801
  183SLPC  H12B20956   1.336   3.111  10.920  1.2270  0.9905 -0.3786
  183SLPC   C1120957   1.345   3.222  10.722  0.9216  0.5230 -0.9589
  183SLPC  H11A20958   1.290   3.305  10.673  0.3937  1.0570  0.4665
  183SLPC  H11B20959   1.328   3.129  10.663  0.9044  0.4852 -0.8957
  183SLPC     P20960   1.588   3.135  10.748  0.0439  0.0292 -0.3135
  183SLPC   O1320961   1.722   3.201  10.737  0.2871 -0.3637 -0.0153
  183SLPC   O1420962   1.557   3.067  10.873 -0.3753  0.0416 -0.7837
  183SLPC   O1220963   1.484   3.245  10.718  0.3352  0.7307 -0.3185
  183SLPC   O1120964   1.563   3.036  10.622 -0.2609  0.0142 -0.5818
  183SLPC    C120965   1.568   3.082  10.490  0.1750 -0.5735 -0.5430
  183SLPC    HA20966   1.487   3.031  10.434 -0.8098 -2.4369  2.3701
  183SLPC    HB20967   1.538   3.189  10.480 -1.4923 -0.9765 -0.0276
  183SLPC    C220968   1.707   3.072  10.418 -0.3467  0.4088 -0.2945
  183SLPC    HS20969   1.771   3.156  10.453  1.4041 -0.1367 -1.9886
  183SLPC   O2120970   1.696   3.079  10.278  0.1507  0.1574 -0.3939
  183SLPC   C2120971   1.715   3.202  10.216  0.0306 -0.7357 -0.1224
  183SLPC   O2220972   1.745   3.299  10.279 -0.3969 -0.2788 -0.8109
  183SLPC   C2220973   1.703   3.194  10.067  0.2137 -0.7323 -0.0351
  183SLPC   H2R20974   1.602   3.156  10.039 -0.7863  1.2011  0.8143
  183SLPC   H2S20975   1.726   3.292  10.020  3.6628 -1.7293 -0.7569
  183SLPC    C320976   1.777   2.942  10.459 -0.3593  0.2562  0.2387
  183SLPC    HX20977   1.703   2.860  10.445 -2.2252  1.9915 -0.6094
  183SLPC    HY20978   1.788   2.942  10.569 -0.1542 -0.0670  0.2200
  183SLPC   O3120979   1.899   2.919  10.386  0.0066  0.3648 -0.2758
  183SLPC   C3120980   2.011   2.989  10.434  0.1216  1.1431  0.1361
  183SLPC   O3220981   2.010   3.049  10.532 -0.2118 -0.0669 -0.1798
  183SLPC   C3220982   2.136   2.968  10.344  0.1585  0.2733  0.4763
  183SLPC   H2X20983   2.178   2.866  10.358 -2.3858 -0.8345  0.5395
  183SLPC   H2Y20984   2.207   3.046  10.378 -1.8890  2.8608 -0.7685
  183SLPC   C2320985   1.809   3.088  10.005 -0.4452 -0.5325  0.0877
  183SLPC   H3R20986   1.815   2.991  10.060  1.7055 -0.8059 -0.5308
  183SLPC   H3S20987   1.912   3.128  10.007  0.5631 -2.8710 -1.1320
  183SLPC   C2420988   1.772   3.048   9.862 -0.5781 -0.5395 -0.4557
  183SLPC   H4R20989   1.675   2.995   9.848 -1.0679  0.2945 -0.2716
  183SLPC   H4S20990   1.846   2.975   9.822  1.1462 -0.5075  2.4130
  183SLPC   C2520991   1.781   3.174   9.778 -0.3638 -0.5180 -0.5601
  183SLPC   H5R20992   1.876   3.227   9.803 -1.4623  1.4709 -0.3904
  183SLPC   H5S20993   1.700   3.241   9.813 -0.2822 -1.0549  0.6897
  183SLPC   C2620994   1.776   3.142   9.631 -0.3407  0.0737  0.6219
  183SLPC   H6R20995   1.691   3.073   9.614 -0.4354  0.0955  0.9947
  183SLPC   H6S20996   1.866   3.084   9.602 -0.4019  1.0140 -1.5884
  183SLPC   C2720997   1.774   3.257   9.529  0.4547 -0.2468  0.2937
  183SLPC   H7R20998   1.680   3.309   9.557  0.5623 -1.2880  2.8507
  183SLPC   H7S20999   1.757   3.217   9.426 -0.0438 -1.0951  0.7006
  183SLPC   C2821000   1.900   3.351   9.526  0.6394  0.4079 -0.2254
  183SLPC   H8R21001   1.986   3.315   9.466 -0.2040  1.0441 -1.8758
  183SLPC   H8S21002   1.941   3.347   9.629  0.8338  1.5704 -0.2433
  183SLPC   C2921003   1.851   3.493   9.491 -0.7565  0.0041 -0.3372
  183SLPC   H9R21004   1.808   3.545   9.578 -1.9655 -1.3996 -0.0568
  183SLPC  C21021005   1.855   3.563   9.373  0.1681  0.9031  0.1988
  183SLPC  H10R21006   1.827   3.669   9.383  1.3824  1.1196  1.8389
  183SLPC  C21121007   1.914   3.512   9.244  0.6640 -0.6701 -0.6289
  183SLPC  H11R21008   1.881   3.408   9.227 -0.3113 -0.4730 -0.0075
  183SLPC  H11S21009   2.023   3.508   9.268  0.8789  1.7799 -0.9463
  183SLPC  C21221010   1.871   3.602   9.135 -0.8558  0.0796 -0.2460
  183SLPC  H12R21011   1.935   3.691   9.125 -1.1485  0.3658  0.3510
  183SLPC  C21321012   1.771   3.590   9.047  0.2542 -0.6494  0.1052
  183SLPC  H13R21013   1.763   3.656   8.959  0.9605  0.1504  0.6307
  183SLPC  C21421014   1.674   3.470   9.038  0.1623  0.1403 -0.6777
  183SLPC  H14R21015   1.568   3.501   9.028 -0.5113 -1.4374  0.9244
  183SLPC  H14S21016   1.682   3.427   9.140 -2.6303  1.6399  0.2869
  183SLPC  C21521017   1.710   3.361   8.941 -0.1444 -0.4807 -0.2865
  183SLPC  H15R21018   1.654   3.267   8.956  1.3950 -1.2927  0.6192
  183SLPC  H15S21019   1.814   3.323   8.950  0.0779  0.4382  1.5651
  183SLPC  C21621020   1.696   3.414   8.798  0.0322  0.3388  0.4583
  183SLPC  H16R21021   1.781   3.480   8.771 -0.4811  0.9033  0.1838
  183SLPC  H16S21022   1.603   3.475   8.789 -0.4282 -0.5132 -0.8305
  183SLPC  C21721023   1.693   3.307   8.689 -0.2312 -0.4303 -0.6441
  183SLPC  H17R21024   1.593   3.260   8.692  0.0233 -0.9454  1.6150
  183SLPC  H17S21025   1.765   3.227   8.716 -1.3500 -0.9222  1.0152
  183SLPC  C21821026   1.728   3.367   8.553  0.1943  0.2481  1.0692
  183SLPC  H18R21027   1.715   3.286   8.478 -2.0699 -0.9171  2.6102
  183SLPC  H18S21028   1.833   3.404   8.541  1.0546 -1.8493  1.6797
  183SLPC  H18T21029   1.668   3.456   8.525  1.5554  0.3628 -1.9512
  183SLPC   C3321030   2.108   2.996  10.192 -0.0328  0.2458  0.2050
  183SLPC   H3X21031   2.077   3.100  10.170  0.0097  0.3007  0.4040
  183SLPC   H3Y21032   2.020   2.934  10.165 -0.6297  1.5921 -1.0861
  183SLPC   C3421033   2.228   2.971  10.097 -0.0771 -0.7321 -0.4534
  183SLPC   H4X21034   2.235   2.863  10.071 -0.8972 -0.0701 -4.0262
  183SLPC   H4Y21035   2.322   3.010  10.141 -0.2878 -0.3970 -0.3040
  183SLPC   C3521036   2.216   3.036   9.953  0.6344  0.7911 -0.4092
  183SLPC   H5X21037   2.205   3.147   9.960 -0.5602  0.5756  2.6799
  183SLPC   H5Y21038   2.126   2.991   9.906  1.3285 -1.4920  0.3201
  183SLPC   C3621039   2.334   3.001   9.857  0.4502 -0.3103  0.4551
  183SLPC   H6X21040   2.342   2.890   9.851  2.9842 -0.0908 -3.0575
  183SLPC   H6Y21041   2.433   3.041   9.886 -0.0475  1.0515  0.3314
  183SLPC   C3721042   2.316   3.063   9.715 -0.2327  0.0416  0.2773
  183SLPC   H7X21043   2.416   3.067   9.667 -0.7381  1.2137 -0.7533
  183SLPC   H7Y21044   2.268   3.163   9.728  0.9183  0.3699  2.3901
  183SLPC   C3821045   2.220   2.981   9.629  0.5493  0.1204  0.2737
  183SLPC   H8X21046   2.129   2.959   9.689  0.5500 -1.2139 -0.1917
  183SLPC   H8Y21047   2.278   2.890   9.603 -1.5185 -2.0012  2.5942
  183SLPC   C3921048   2.171   3.057   9.503 -0.1100  0.1589  0.4742
  183SLPC   H9X21049   2.115   3.145   9.539 -1.4222 -0.2925 -0.3711
  183SLPC   H9Y21050   2.100   2.993   9.446  0.7803 -0.8073  0.4190
  183SLPC  C31021051   2.279   3.100   9.400 -0.1528 -0.1187 -0.4160
  183SLPC  H10X21052   2.350   3.022   9.366  1.0659  0.2750  1.1206
  183SLPC  H10Y21053   2.331   3.187   9.446 -2.7979  0.4360  1.7981
  183SLPC  C31121054   2.209   3.160   9.277 -0.2205 -0.5013  0.3358
  183SLPC  H11X21055   2.133   3.233   9.312 -1.9134 -1.5298 -1.0417
  183SLPC  H11Y21056   2.162   3.074   9.224 -1.8273 -0.2866  1.3497
  183SLPC  C31221057   2.311   3.245   9.191  0.1643 -0.3301  0.8373
  183SLPC  H12X21058   2.399   3.178   9.180  0.6968  0.7770 -2.8316
  183SLPC  H12Y21059   2.329   3.337   9.250  1.4904  1.0268 -1.5278
  183SLPC  C31321060   2.260   3.286   9.058  0.2996  0.5618 -0.0025
  183SLPC  H13X21061   2.331   3.361   9.018  1.5770  0.1785  1.4832
  183SLPC  H13Y21062   2.160   3.335   9.071  0.2388  1.3878 -2.9173
  183SLPC  C31421063   2.253   3.189   8.943  0.2317  0.0443 -0.3174
  183SLPC  H14X21064   2.196   3.104   8.989  0.5973 -0.0923 -0.1108
  183SLPC  H14Y21065   2.353   3.160   8.906 -0.7373 -1.0280 -2.2444
  183SLPC  C31521066   2.166   3.235   8.829  0.0689  0.0512  0.7522
  183SLPC  H15X21067   2.226   3.285   8.750 -0.3135 -1.8954 -0.8698
  183SLPC  H15Y21068   2.091   3.313   8.855 -0.9002 -0.1503 -1.2458
  183SLPC  C31621069   2.083   3.109   8.774 -0.2406  0.2540 -0.0969
  183SLPC  H16X21070   2.005   3.087   8.850  1.4049 -1.2405  1.2377
  183SLPC  H16Y21071   2.148   3.020   8.765  0.2602  0.7397 -1.5597
  183SLPC  C31721072   2.042   3.143   8.636  0.1792 -0.4015  0.3481
  183SLPC  H17X21073   2.131   3.170   8.575  0.1460  2.1056  1.2886
  183SLPC  H17Y21074   1.976   3.232   8.630 -2.1663 -2.1334 -0.6101
  183SLPC  C31821075   1.966   3.033   8.565  0.1779  1.0414  0.2059
  183SLPC  H18X21076   2.026   2.941   8.576  1.8601  2.0620 -0.0532
  183SLPC  H18Y21077   1.963   3.059   8.457  0.3077 -0.0951 -0.0827
  183SLPC  H18Z21078   1.866   3.016   8.610  1.0924 -0.4537  1.7923
  184SLPC     N21079   3.899   5.947  10.806 -0.6762 -0.0053 -0.6132
  184SLPC   C1321080   4.017   5.866  10.848 -0.0648 -0.0745 -0.2706
  184SLPC  H13A21081   4.110   5.907  10.812  0.1804  0.6249  1.0941
  184SLPC  H13B21082   4.028   5.858  10.955  1.0006  0.4314 -0.3233
  184SLPC  H13C21083   4.006   5.767  10.805 -2.7334 -0.6230  1.4689
  184SLPC   C1421084   3.912   6.085  10.869 -0.0853 -0.1256  0.4793
  184SLPC  H14A21085   3.920   6.073  10.976 -1.9475  0.1548  0.6881
  184SLPC  H14B21086   3.983   6.152  10.823  0.3577 -0.8325  0.1021
  184SLPC  H14C21087   3.821   6.142  10.859 -0.1619  0.3965  3.4218
  184SLPC   C1521088   3.788   5.873  10.858  0.1260  0.5619 -0.4720
  184SLPC  H15A21089   3.789   5.858  10.965 -0.5745  0.1373 -0.5225
  184SLPC  H15B21090   3.698   5.924  10.829  0.9402  2.7379  0.5485
  184SLPC  H15C21091   3.775   5.772  10.823 -1.3043  0.2839  0.7456
  184SLPC   C1221092   3.892   5.951  10.661 -0.0798 -0.0817  0.1397
  184SLPC  H12A21093   3.877   5.849  10.630  0.1149 -0.4840  1.3064
  184SLPC  H12B21094   3.987   5.990  10.627 -0.5269  0.4484 -0.5210
  184SLPC   C1121095   3.787   6.034  10.583  0.0090  0.3803  0.2742
  184SLPC  H11A21096   3.809   6.023  10.474  1.4673 -2.2581  0.7523
  184SLPC  H11B21097   3.792   6.144  10.596 -0.1432  0.2360  1.6478
  184SLPC     P21098   3.592   5.866  10.552  0.0632  0.2258  0.3538
  184SLPC   O1321099   3.697   5.761  10.544  0.0307 -0.1052 -0.0057
  184SLPC   O1421100   3.474   5.835  10.638 -0.1673  0.2267  0.2682
  184SLPC   O1221101   3.657   5.994  10.617 -0.4668  0.0062 -0.4431
  184SLPC   O1121102   3.545   5.907  10.411 -1.1088  0.1219  0.5537
  184SLPC    C121103   3.492   6.035  10.380 -0.1835  0.3023  0.6085
  184SLPC    HA21104   3.380   6.036  10.381 -0.2195 -1.4916  0.1758
  184SLPC    HB21105   3.524   6.108  10.457 -0.3224  1.1134 -0.0844
  184SLPC    C221106   3.545   6.095  10.249 -0.1428  0.6820  0.3969
  184SLPC    HS21107   3.489   6.189  10.232 -0.2319  0.5339 -0.1526
  184SLPC   O2121108   3.521   5.999  10.142  0.4220 -0.0208  0.0476
  184SLPC   C2121109   3.397   5.980  10.115  0.2623  0.2529 -0.6206
  184SLPC   O2221110   3.299   6.037  10.156  0.0675  0.5542  0.1108
  184SLPC   C2221111   3.394   5.868  10.004 -0.2107  0.6801 -0.3809
  184SLPC   H2R21112   3.438   5.781  10.058  0.0009  0.7654 -0.4159
  184SLPC   H2S21113   3.287   5.839   9.991 -0.6610  1.6264  0.9672
  184SLPC    C321114   3.695   6.116  10.259 -0.3722 -0.3517 -0.2166
  184SLPC    HX21115   3.756   6.024  10.263  0.6996  0.3750  1.2015
  184SLPC    HY21116   3.715   6.164  10.358  0.6118  0.7763 -0.9330
  184SLPC   O3121117   3.724   6.205  10.148  0.5262 -0.2228 -0.6791
  184SLPC   C3121118   3.830   6.182  10.076 -0.7135 -0.3244 -0.6940
  184SLPC   O3221119   3.933   6.122  10.111  0.5476 -0.2295 -0.1148
  184SLPC   C3221120   3.811   6.268   9.949  0.0034  0.4021 -0.3521
  184SLPC   H2X21121   3.908   6.304   9.907  0.9802  0.7308  2.0060
  184SLPC   H2Y21122   3.775   6.369   9.979  0.9691  0.7358 -0.2852
  184SLPC   C2321123   3.463   5.894   9.869 -0.4718 -0.1633  0.5220
  184SLPC   H3R21124   3.467   5.799   9.811  1.6202 -2.1808  3.6201
  184SLPC   H3S21125   3.572   5.914   9.885  0.3335 -1.9818 -2.0099
  184SLPC   C2421126   3.395   6.008   9.806  0.0311  0.4479 -0.9295
  184SLPC   H4R21127   3.407   6.104   9.859 -2.8646 -0.0016  0.7736
  184SLPC   H4S21128   3.285   5.994   9.812  0.2432 -1.0659  0.2441
  184SLPC   C2521129   3.435   6.018   9.663  0.1273 -0.9515  1.1969
  184SLPC   H5R21130   3.384   5.935   9.609 -3.6451  0.9400  1.4630
  184SLPC   H5S21131   3.544   6.001   9.655 -0.2530 -2.8862 -1.7281
  184SLPC   C2621132   3.382   6.141   9.577 -0.2350  0.3803  0.6528
  184SLPC   H6R21133   3.432   6.232   9.618  0.5383 -0.2761  1.1939
  184SLPC   H6S21134   3.271   6.140   9.587 -0.2432 -0.7093  0.5133
  184SLPC   C2721135   3.415   6.126   9.426 -0.2419  0.1844  0.2345
  184SLPC   H7R21136   3.396   6.018   9.409  0.5769  0.3358 -2.1190
  184SLPC   H7S21137   3.522   6.122   9.398 -0.8451  1.2586 -2.6800
  184SLPC   C2821138   3.331   6.206   9.325  0.5415 -0.6388 -0.2839
  184SLPC   H8R21139   3.368   6.310   9.333  2.4476 -1.1185 -1.9980
  184SLPC   H8S21140   3.223   6.200   9.350  0.6899  0.6733  0.7662
  184SLPC   C2921141   3.345   6.166   9.183  0.0612 -0.2710 -0.1584
  184SLPC   H9R21142   3.356   6.057   9.181 -0.1292 -0.3705  1.9725
  184SLPC  C21021143   3.342   6.239   9.075  0.5782  0.6252 -0.8056
  184SLPC  H10R21144   3.332   6.187   8.979 -2.3886 -0.4681 -0.0109
  184SLPC  C21121145   3.321   6.389   9.067  0.1818  0.1591  0.3630
  184SLPC  H11R21146   3.420   6.428   9.034  1.1469  0.1919  3.0356
  184SLPC  H11S21147   3.300   6.429   9.169  0.0290  1.8435 -0.3032
  184SLPC  C21221148   3.202   6.426   8.975 -0.0078  0.2940 -0.2605
  184SLPC  H12R21149   3.104   6.398   9.016  0.5885 -1.4666  0.0779
  184SLPC  C21321150   3.204   6.484   8.856  0.1521  0.3941 -0.4110
  184SLPC  H13R21151   3.110   6.510   8.806  0.1780 -0.1955 -0.7764
  184SLPC  C21421152   3.318   6.534   8.776  0.2313 -0.7018  0.3289
  184SLPC  H14R21153   3.414   6.496   8.817  0.2479  0.0188  0.9724
  184SLPC  H14S21154   3.317   6.645   8.776  1.3975 -0.6292 -1.8382
  184SLPC  C21521155   3.304   6.507   8.624 -0.7721  0.8739  0.2708
  184SLPC  H15R21156   3.297   6.397   8.605  0.1642  1.2654 -2.8325
  184SLPC  H15S21157   3.401   6.536   8.579 -0.2038 -0.2986  0.7072
  184SLPC  C21621158   3.189   6.583   8.546  0.3894 -0.2900  0.0868
  184SLPC  H16R21159   3.223   6.688   8.532  0.2066 -0.4371 -1.6969
  184SLPC  H16S21160   3.097   6.584   8.608  0.2849  2.2415 -0.0034
  184SLPC  C21721161   3.160   6.516   8.404  1.1569  0.2770 -0.6499
  184SLPC  H17R21162   3.051   6.514   8.385  0.8185  0.2525  1.1622
  184SLPC  H17S21163   3.200   6.414   8.419  2.3634  0.8822  0.4942
  184SLPC  C21821164   3.217   6.595   8.288  0.2192  0.0772  0.1274
  184SLPC  H18R21165   3.147   6.678   8.265  0.5952  0.5697  0.7189
  184SLPC  H18S21166   3.221   6.539   8.193 -2.3498 -0.6406  0.3826
  184SLPC  H18T21167   3.320   6.623   8.318 -0.5193  0.7641  2.2063
  184SLPC   C3321168   3.733   6.181   9.846 -0.1227 -0.2044  0.2473
  184SLPC   H3X21169   3.633   6.164   9.891  0.2109  2.8234  2.4795
  184SLPC   H3Y21170   3.781   6.082   9.833  0.5465  0.3342 -1.7010
  184SLPC   C3421171   3.733   6.229   9.704  0.9260  1.1373 -0.2657
  184SLPC   H4X21172   3.663   6.315   9.695 -0.1852  0.1999 -0.6919
  184SLPC   H4Y21173   3.696   6.141   9.648  3.8668 -1.5966  1.7185
  184SLPC   C3521174   3.873   6.260   9.650  0.5083  0.1538  0.6120
  184SLPC   H5X21175   3.935   6.174   9.681  0.5835 -1.2355 -2.9277
  184SLPC   H5Y21176   3.911   6.349   9.704  1.7022  0.2095 -0.2841
  184SLPC   C3621177   3.893   6.266   9.493  0.1120  0.7895  0.7637
  184SLPC   H6X21178   3.852   6.172   9.449  0.8772  1.2840 -1.1124
  184SLPC   H6Y21179   4.002   6.273   9.471  0.5544 -1.5051  1.8852
  184SLPC   C3721180   3.842   6.390   9.418  0.2489 -0.9396 -0.1509
  184SLPC   H7X21181   3.910   6.472   9.446  0.7596 -1.3377 -0.2049
  184SLPC   H7Y21182   3.734   6.412   9.434  0.2966 -0.5010 -0.4151
  184SLPC   C3821183   3.868   6.381   9.266 -0.2179  0.0971  0.0394
  184SLPC   H8X21184   3.976   6.357   9.251  0.2710  2.9494 -1.6978
  184SLPC   H8Y21185   3.849   6.483   9.225  0.5845 -0.9193 -3.1482
  184SLPC   C3921186   3.783   6.272   9.193 -0.5188 -0.0729 -0.1193
  184SLPC   H9X21187   3.677   6.304   9.189 -0.1473  1.3431  0.8423
  184SLPC   H9Y21188   3.783   6.176   9.249  0.9519  0.2934  0.5608
  184SLPC  C31021189   3.817   6.229   9.051 -0.1561 -0.4673  0.0539
  184SLPC  H10X21190   3.765   6.134   9.024  0.9867 -1.0297 -0.2040
  184SLPC  H10Y21191   3.925   6.206   9.056 -0.4718 -1.6983  3.1326
  184SLPC  C31121192   3.785   6.337   8.956 -0.4134  0.7368  1.0065
  184SLPC  H11X21193   3.844   6.425   8.988 -0.6879  1.0892  0.5499
  184SLPC  H11Y21194   3.679   6.369   8.969 -1.3013 -2.4034  2.5288
  184SLPC  C31221195   3.813   6.306   8.808  0.4450  0.3701 -0.1356
  184SLPC  H12X21196   3.772   6.390   8.748 -1.1360  0.3571  0.8540
  184SLPC  H12Y21197   3.748   6.218   8.785  2.1187 -0.9736  0.1192
  184SLPC  C31321198   3.954   6.290   8.777 -0.5880 -0.1131  0.1571
  184SLPC  H13X21199   3.994   6.195   8.819  1.2033  0.0054 -1.1641
  184SLPC  H13Y21200   4.012   6.372   8.823 -0.4000 -0.2889  0.2344
  184SLPC  C31421201   3.985   6.273   8.629  0.5778 -0.3698  0.2915
  184SLPC  H14X21202   3.933   6.355   8.575 -3.6649 -1.6850  1.9619
  184SLPC  H14Y21203   3.945   6.177   8.590  1.2363 -0.2569 -0.7106
  184SLPC  C31521204   4.134   6.281   8.607  0.2913  0.1833  1.0116
  184SLPC  H15X21205   4.196   6.210   8.666  1.1245 -1.3210 -1.5448
  184SLPC  H15Y21206   4.174   6.382   8.631 -3.0886  1.9780 -0.2652
  184SLPC  C31621207   4.162   6.264   8.454  0.3283 -0.2359  0.1753
  184SLPC  H16X21208   4.086   6.319   8.395  0.4705 -1.9325 -1.6831
  184SLPC  H16Y21209   4.144   6.161   8.419 -0.2634 -0.2967  0.6477
  184SLPC  C31721210   4.300   6.303   8.402 -0.6942 -0.0541  0.4604
  184SLPC  H17X21211   4.313   6.409   8.435  0.2771  0.6701 -2.0503
  184SLPC  H17Y21212   4.304   6.308   8.291  2.0037 -2.4313  0.3260
  184SLPC  C31821213   4.413   6.225   8.457  0.2477 -0.3373  0.0431
  184SLPC  H18X21214   4.423   6.131   8.400  0.9839 -0.0024 -0.3937
  184SLPC  H18Y21215   4.398   6.201   8.565 -1.0612 -1.6168 -0.4021
  184SLPC  H18Z21216   4.510   6.278   8.442  0.2631  0.4013  2.3236
  185SLPC     N21217   6.685   5.288   6.109  0.6469  0.2547  0.1475
  185SLPC   C1321218   6.666   5.176   6.013 -0.0638  0.6615  0.3148
  185SLPC  H13A21219   6.705   5.194   5.914 -1.8093 -1.4611 -0.8451
  185SLPC  H13B21220   6.707   5.085   6.053 -2.1442 -1.1423 -1.4580
  185SLPC  H13C21221   6.562   5.150   5.999  0.2701 -3.3218  3.4873
  185SLPC   C1421222   6.622   5.428   6.074 -0.3360  0.0176  0.1473
  185SLPC  H14A21223   6.673   5.466   5.986 -0.9544 -0.7505 -0.5503
  185SLPC  H14B21224   6.517   5.423   6.050 -0.3216 -2.6760  0.3921
  185SLPC  H14C21225   6.635   5.506   6.148 -0.2420  0.2821 -0.1408
  185SLPC   C1521226   6.830   5.310   6.121  0.1347  0.1931  1.3687
  185SLPC  H15A21227   6.869   5.212   6.147  0.8399  0.1246  0.1358
  185SLPC  H15B21228   6.872   5.340   6.026  0.7324 -2.6360  0.6190
  185SLPC  H15C21229   6.863   5.380   6.196 -0.0354  3.2479 -1.2313
  185SLPC   C1221230   6.626   5.243   6.248  0.5169 -0.1431 -0.0340
  185SLPC  H12A21231   6.531   5.192   6.243  0.7918 -0.8417  1.2531
  185SLPC  H12B21232   6.604   5.329   6.309  1.4095  0.6495 -0.8042
  185SLPC   C1121233   6.707   5.142   6.328 -0.8848 -0.3788 -1.3432
  185SLPC  H11A21234   6.638   5.111   6.409  0.1394  2.2659  0.6701
  185SLPC  H11B21235   6.783   5.207   6.375 -2.3044  0.6565 -0.3953
  185SLPC     P21236   6.909   4.989   6.291 -0.0693  0.1233 -0.2375
  185SLPC   O1321237   6.930   4.866   6.221  0.3568  0.0744 -0.4588
  185SLPC   O1421238   7.001   5.105   6.257 -0.6231 -0.4651  0.0398
  185SLPC   O1221239   6.762   5.032   6.260  0.0888  0.4914 -0.2185
  185SLPC   O1121240   6.908   4.962   6.445  0.8474 -0.1609  0.3505
  185SLPC    C121241   6.855   4.835   6.493  0.9925 -0.6177 -0.3878
  185SLPC    HA21242   6.746   4.843   6.509  1.1624  1.2808  0.0394
  185SLPC    HB21243   6.881   4.752   6.424 -0.2554  0.8253 -2.7551
  185SLPC    C221244   6.923   4.802   6.633 -0.7383  0.1994  0.3912
  185SLPC    HS21245   6.884   4.702   6.662 -0.4380 -0.5851 -1.7413
  185SLPC   O2121246   6.879   4.902   6.723  0.0016  0.1148  0.4666
  185SLPC   C2121247   6.767   4.881   6.802  0.3259  0.5737 -0.3241
  185SLPC   O2221248   6.689   4.788   6.795  0.2650  0.4526  1.0992
  185SLPC   C2221249   6.772   4.984   6.919 -0.1886  0.5172  0.9149
  185SLPC   H2R21250   6.858   4.953   6.983  1.1387  0.4447 -0.8366
  185SLPC   H2S21251   6.779   5.084   6.873  0.3855 -0.3555 -0.9670
  185SLPC    C321252   7.076   4.803   6.634  0.0631 -0.2343 -1.0283
  185SLPC    HX21253   7.113   4.905   6.608 -0.3042  0.5816  1.3677
  185SLPC    HY21254   7.116   4.738   6.554  2.3582 -0.5967  0.3313
  185SLPC   O3121255   7.130   4.749   6.758  0.3701 -0.0581 -0.3083
  185SLPC   C3121256   7.142   4.849   6.853 -0.1792  0.5263  0.1563
  185SLPC   O3221257   7.124   4.967   6.823 -0.2822  0.0979  0.1456
  185SLPC   C3221258   7.187   4.792   6.987 -0.1085  0.3932 -0.1387
  185SLPC   H2X21259   7.200   4.682   6.973 -0.9179 -0.0135  1.9098
  185SLPC   H2Y21260   7.094   4.798   7.047 -0.8375  0.4559 -1.2611
  185SLPC   C2321261   6.640   4.984   6.998 -0.4023  0.0028 -0.0727
  185SLPC   H3R21262   6.644   4.893   7.061 -0.9703  0.6205  0.8786
  185SLPC   H3S21263   6.549   4.986   6.934 -0.1579  0.0987 -0.4232
  185SLPC   C2421264   6.628   5.106   7.101  0.5113  0.4675 -0.2922
  185SLPC   H4R21265   6.527   5.101   7.147  0.0120 -2.6025 -1.4779
  185SLPC   H4S21266   6.641   5.200   7.043 -0.2514  1.6271  1.3255
  185SLPC   C2521267   6.722   5.093   7.225 -0.5670  0.0867  0.7593
  185SLPC   H5R21268   6.748   5.194   7.264  2.1731 -0.3266  0.2404
  185SLPC   H5S21269   6.818   5.050   7.190 -0.3481  0.3614  1.0157
  185SLPC   C2621270   6.673   4.999   7.333 -0.2659  0.3591 -0.0421
  185SLPC   H6R21271   6.658   4.900   7.284 -0.7641  0.4095  0.0045
  185SLPC   H6S21272   6.586   5.055   7.370 -0.6547 -1.2483  1.6259
  185SLPC   C2721273   6.763   4.985   7.456 -0.3692  0.1721 -0.0904
  185SLPC   H7R21274   6.774   5.082   7.508  1.4580 -0.2217  0.3171
  185SLPC   H7S21275   6.860   4.955   7.411 -1.6179 -0.7070 -2.3648
  185SLPC   C2821276   6.712   4.884   7.554 -0.2359 -0.2603 -0.1915
  185SLPC   H8R21277   6.717   4.792   7.491 -1.5339  0.4913 -1.4385
  185SLPC   H8S21278   6.608   4.878   7.592 -0.2157 -0.3529 -0.1501
  185SLPC   C2921279   6.816   4.868   7.664 -0.5501  0.0701  0.4899
  185SLPC   H9R21280   6.924   4.850   7.647 -0.2092 -1.8565  3.8698
  185SLPC  C21021281   6.798   4.890   7.796 -0.0554 -0.8191 -0.5660
  185SLPC  H10R21282   6.880   4.878   7.869 -0.0703 -1.7894 -0.6979
  185SLPC  C21121283   6.672   4.934   7.868  0.8414  0.1069  0.1416
  185SLPC  H11R21284   6.587   4.954   7.799 -0.1713 -1.3575  0.9224
  185SLPC  H11S21285   6.681   5.032   7.920 -0.6104 -0.6284  1.9037
  185SLPC  C21221286   6.629   4.826   7.957  0.4798  0.0531 -0.4703
  185SLPC  H12R21287   6.577   4.745   7.903 -1.0993 -0.6646  1.9818
  185SLPC  C21321288   6.654   4.822   8.092  0.8635 -0.2975  0.5346
  185SLPC  H13R21289   6.620   4.734   8.148 -0.7985  0.1172  0.2068
  185SLPC  C21421290   6.726   4.930   8.169  0.0444  0.4881  0.0471
  185SLPC  H14R21291   6.772   5.002   8.099  0.0910  1.4070  1.0097
  185SLPC  H14S21292   6.815   4.881   8.213  0.9624  0.0160 -2.2325
  185SLPC  C21521293   6.641   5.003   8.272 -0.7791 -0.6229 -1.2383
  185SLPC  H15R21294   6.713   5.061   8.334 -1.4598 -0.6286 -0.4171
  185SLPC  H15S21295   6.601   4.936   8.351  1.0325 -0.0241  0.2621
  185SLPC  C21621296   6.559   5.114   8.215  0.7231  0.4353 -0.5733
  185SLPC  H16R21297   6.489   5.065   8.143 -0.3561 -0.1578  0.8276
  185SLPC  H16S21298   6.614   5.186   8.152 -0.0897  0.0934 -1.7249
  185SLPC  C21721299   6.472   5.179   8.328 -0.2712  0.3380  0.2866
  185SLPC  H17R21300   6.418   5.093   8.372 -0.5583  1.5076  2.3193
  185SLPC  H17S21301   6.401   5.253   8.287  0.7188  1.7690  1.0960
  185SLPC  C21821302   6.546   5.247   8.441  0.6024  0.1184  0.1629
  185SLPC  H18R21303   6.601   5.179   8.510 -0.5297 -0.5478  0.4323
  185SLPC  H18S21304   6.463   5.297   8.495  0.3753  2.3298 -2.0773
  185SLPC  H18T21305   6.614   5.322   8.397 -0.9055  1.9748  0.8672
  185SLPC   C3321306   7.304   4.875   7.043 -0.3446  0.0025  0.7216
  185SLPC   H3X21307   7.259   4.972   7.074 -2.3502 -1.0004  1.1530
  185SLPC   H3Y21308   7.374   4.902   6.961 -2.1808 -0.0214 -0.9336
  185SLPC   C3421309   7.380   4.813   7.160  0.2200 -0.1344 -0.4044
  185SLPC   H4X21310   7.448   4.887   7.207  1.1278 -0.3854 -1.2939
  185SLPC   H4Y21311   7.433   4.722   7.126  2.2342  0.1331  1.7727
  185SLPC   C3521312   7.291   4.775   7.281 -0.0067 -0.6659 -0.1522
  185SLPC   H5X21313   7.197   4.739   7.235 -1.5941  1.0295  1.5538
  185SLPC   H5Y21314   7.272   4.876   7.323 -1.2390 -0.3281 -1.4512
  185SLPC   C3621315   7.354   4.680   7.389 -0.1839 -0.2966 -0.2982
  185SLPC   H6X21316   7.361   4.576   7.350 -1.2444  0.0358 -1.4431
  185SLPC   H6Y21317   7.287   4.689   7.476  0.2921  0.0821  0.0382
  185SLPC   C3721318   7.497   4.702   7.433  0.1759  0.0531  0.6260
  185SLPC   H7X21319   7.510   4.812   7.428 -0.4956  0.0889 -0.5072
  185SLPC   H7Y21320   7.571   4.643   7.375  0.4592  2.3802 -1.5167
  185SLPC   C3821321   7.511   4.659   7.582  0.6319 -0.1985  0.4971
  185SLPC   H8X21322   7.508   4.548   7.583 -1.5849 -0.1816  0.2642
  185SLPC   H8Y21323   7.422   4.698   7.636  0.7732  0.3881  0.3122
  185SLPC   C3921324   7.639   4.715   7.643 -0.3998 -1.0129 -0.7771
  185SLPC   H9X21325   7.643   4.826   7.633  0.6934 -0.9525  0.1931
  185SLPC   H9Y21326   7.734   4.682   7.596 -0.0504 -0.3417 -0.5479
  185SLPC  C31021327   7.648   4.683   7.790  0.3861  0.5581  0.0417
  185SLPC  H10X21328   7.671   4.575   7.785 -5.7920 -1.0977 -1.0931
  185SLPC  H10Y21329   7.545   4.700   7.828 -0.0774  2.6170 -1.9083
  185SLPC  C31121330   7.737   4.765   7.873 -0.7359 -0.5823 -0.2378
  185SLPC  H11X21331   7.722   4.869   7.835  2.2715  0.4936  1.2101
  185SLPC  H11Y21332   7.842   4.734   7.852 -0.3528 -1.1414  2.2207
  185SLPC  C31221333   7.726   4.742   8.023  0.4153  0.3885 -0.2586
  185SLPC  H12X21334   7.708   4.633   8.032  0.3537  0.4387  0.2737
  185SLPC  H12Y21335   7.634   4.791   8.064 -1.1942 -2.1894 -0.5534
  185SLPC  C31321336   7.847   4.798   8.090 -0.5546  0.2558 -0.1014
  185SLPC  H13X21337   7.847   4.908   8.077  0.9739  0.5016  1.6090
  185SLPC  H13Y21338   7.938   4.769   8.034 -1.0824 -1.0604 -0.3319
  185SLPC  C31421339   7.861   4.766   8.240  0.6825  0.0045  0.4695
  185SLPC  H14X21340   7.837   4.659   8.257  0.6820  0.1140  1.1818
  185SLPC  H14Y21341   7.774   4.818   8.286 -0.2686 -1.7868  0.8040
  185SLPC  C31521342   7.996   4.806   8.313 -0.3317 -0.1904  0.0557
  185SLPC  H15X21343   8.020   4.910   8.283 -0.2688  0.5099  2.3289
  185SLPC  H15Y21344   8.075   4.743   8.267 -0.0731 -0.8456  1.3538
  185SLPC  C31621345   8.001   4.787   8.466 -1.2083  0.8073 -0.4728
  185SLPC  H16X21346   7.972   4.684   8.495 -0.3576  1.1849  1.9253
  185SLPC  H16Y21347   7.914   4.838   8.513  0.3108  3.3762 -0.2582
  185SLPC  C31721348   8.138   4.812   8.535 -0.1856 -0.8757 -0.0115
  185SLPC  H17X21349   8.161   4.915   8.500  2.5047 -0.5117  2.4836
  185SLPC  H17Y21350   8.212   4.735   8.505 -0.4534 -0.5329 -1.6581
  185SLPC  C31821351   8.142   4.814   8.685 -0.7390 -0.2405  0.2436
  185SLPC  H18X21352   8.055   4.873   8.723 -0.9844 -0.6965  0.4028
  185SLPC  H18Y21353   8.237   4.863   8.716  0.4329 -2.3410  0.1208
  185SLPC  H18Z21354   8.134   4.708   8.715 -0.3327 -0.2710  0.2446
  186SLPC     N21355   5.990   0.842   6.012  0.0303 -0.6839  0.3503
  186SLPC   C1321356   6.076   0.836   5.891 -0.1317  0.2055  1.0144
  186SLPC  H13A21357   6.138   0.924   5.879  0.4127 -0.2416  0.5043
  186SLPC  H13B21358   6.145   0.753   5.898  1.1351  1.2116  0.7758
  186SLPC  H13C21359   6.019   0.830   5.800  0.5615 -1.8294  0.6598
  186SLPC   C1421360   5.891   0.727   6.014 -0.1285 -0.6667  0.1441
  186SLPC  H14A21361   5.816   0.728   6.092  0.9257 -0.5170  1.1916
  186SLPC  H14B21362   5.838   0.741   5.921 -0.2350  0.3064  0.3471
  186SLPC  H14C21363   5.938   0.630   6.004  1.6182  0.3748 -2.6884
  186SLPC   C1521364   5.902   0.967   6.002  0.2999  0.9024 -0.2269
  186SLPC  H15A21365   5.859   0.977   6.100  2.8698  0.9643  0.9834
  186SLPC  H15B21366   5.962   1.056   5.991 -0.2331  1.4118  0.8459
  186SLPC  H15C21367   5.820   0.953   5.934  1.0555 -1.2683 -0.7540
  186SLPC   C1221368   6.072   0.847   6.134 -0.2316 -0.6316  0.1766
  186SLPC  H12A21369   6.137   0.933   6.132  0.0276 -0.8298 -0.3719
  186SLPC  H12B21370   6.139   0.762   6.140 -0.0892 -0.5116  0.2999
  186SLPC   C1121371   5.996   0.855   6.267  0.1687  0.9353  0.9081
  186SLPC  H11A21372   6.073   0.852   6.347 -0.3535  0.1015  1.4007
  186SLPC  H11B21373   5.928   0.767   6.273 -2.4105  2.4040 -2.9668
  186SLPC     P21374   5.772   0.951   6.357  0.4752 -0.0493 -0.3393
  186SLPC   O1321375   5.709   1.087   6.377  0.0323  0.0851  0.0692
  186SLPC   O1421376   5.694   0.853   6.274  0.0316 -0.5993 -0.3236
  186SLPC   O1221377   5.917   0.971   6.292  0.1903 -0.6996  0.2442
  186SLPC   O1121378   5.789   0.895   6.504  0.5906  0.3921 -0.0796
  186SLPC    C121379   5.912   0.907   6.580  0.5073 -0.3157 -0.0886
  186SLPC    HA21380   5.997   0.877   6.514  0.9992  0.8917 -0.0257
  186SLPC    HB21381   5.914   1.015   6.603 -2.0710 -0.1409 -0.4516
  186SLPC    C221382   5.907   0.826   6.711 -0.1145  0.4458 -0.1768
  186SLPC    HS21383   6.006   0.838   6.760 -1.2350 -0.3935  2.4881
  186SLPC   O2121384   5.867   0.686   6.692 -0.3014  0.0847  0.3085
  186SLPC   C2121385   5.940   0.616   6.605  0.7248  0.4503 -0.3475
  186SLPC   O2221386   6.047   0.647   6.561  0.0330 -0.1931 -0.5884
  186SLPC   C2221387   5.879   0.468   6.579  0.4627  0.4734 -0.4927
  186SLPC   H2R21388   5.771   0.476   6.606  1.1501  0.2845  2.6340
  186SLPC   H2S21389   5.883   0.444   6.471  0.8440  1.1596 -0.6386
  186SLPC    C321390   5.798   0.887   6.802  0.4689  0.4905 -0.1395
  186SLPC    HX21391   5.704   0.871   6.745  0.8060  1.6079 -1.0326
  186SLPC    HY21392   5.815   0.996   6.815  2.1743  0.1728  0.5409
  186SLPC   O3121393   5.799   0.828   6.936 -0.2089  0.2541  0.4350
  186SLPC   C3121394   5.683   0.814   7.000  0.0195 -0.0166  0.5337
  186SLPC   O3221395   5.587   0.889   6.983 -0.0617 -0.4290 -0.4735
  186SLPC   C3221396   5.689   0.682   7.091  0.4680 -0.1301  0.8719
  186SLPC   H2X21397   5.783   0.673   7.149 -0.0269  2.5683  2.2559
  186SLPC   H2Y21398   5.678   0.599   7.018 -2.3620  2.1731 -1.6121
  186SLPC   C2321399   5.948   0.356   6.666 -0.1435  0.2138 -0.2063
  186SLPC   H3R21400   6.059   0.358   6.677 -0.0168 -2.1501 -0.5586
  186SLPC   H3S21401   5.931   0.261   6.611  1.0370 -0.1058 -0.0515
  186SLPC   C2421402   5.886   0.343   6.799  0.2952 -1.0856 -0.2011
  186SLPC   H4R21403   5.775   0.333   6.787  0.1586  1.7010 -2.4806
  186SLPC   H4S21404   5.897   0.435   6.859 -1.7144 -0.2020 -1.0685
  186SLPC   C2521405   5.943   0.226   6.875 -0.3939  0.4388 -0.0629
  186SLPC   H5R21406   6.053   0.221   6.886 -0.4873 -1.9404  0.3462
  186SLPC   H5S21407   5.908   0.135   6.821  3.7762 -0.4396 -1.5854
  186SLPC   C2621408   5.885   0.206   7.021  0.3854  0.0044 -0.3426
  186SLPC   H6R21409   5.775   0.189   7.022  0.2127  0.9248 -1.5372
  186SLPC   H6S21410   5.894   0.300   7.079 -0.9252 -0.9925  1.5940
  186SLPC   C2721411   5.960   0.088   7.088  0.4861 -0.1919 -0.3059
  186SLPC   H7R21412   6.069   0.087   7.066  0.8674  0.7130  1.4189
  186SLPC   H7S21413   5.930  -0.010   7.045  3.1172 -0.9093 -0.6406
  186SLPC   C2821414   5.953   0.073   7.248  0.1127 -0.4144  0.5305
  186SLPC   H8R21415   5.965   0.175   7.293 -0.8508  1.0813 -2.3738
  186SLPC   H8S21416   6.045   0.016   7.272 -0.4458 -1.1350  0.9922
  186SLPC   C2921417   5.842  -0.006   7.308  0.6040  0.9229  0.5912
  186SLPC   H9R21418   5.753   0.022   7.251  1.2112  1.5622 -0.0744
  186SLPC  C21021419   5.840  -0.081   7.424 -0.4123  0.7625 -0.6683
  186SLPC  H10R21420   5.751  -0.139   7.451 -0.0279  0.0008 -0.9995
  186SLPC  C21121421   5.956  -0.120   7.508 -0.4705  0.3228 -0.4963
  186SLPC  H11R21422   6.056  -0.097   7.468  0.3888 -0.1067  1.3106
  186SLPC  H11S21423   5.950  -0.231   7.517 -2.6463  0.3693 -0.7578
  186SLPC  C21221424   5.952  -0.058   7.649 -0.3103 -0.5021  0.7067
  186SLPC  H12R21425   5.991   0.045   7.656 -0.2268 -0.1742 -2.8018
  186SLPC  C21321426   5.886  -0.100   7.758 -0.4711  0.0126  0.2966
  186SLPC  H13R21427   5.921  -0.061   7.855  1.2036  0.5694 -0.5063
  186SLPC  C21421428   5.800  -0.221   7.777 -0.4183  0.0749 -0.3749
  186SLPC  H14R21429   5.814  -0.285   7.686 -1.8438 -0.3198 -0.3372
  186SLPC  H14S21430   5.695  -0.186   7.780 -0.3494  0.2429  0.0388
  186SLPC  C21521431   5.832  -0.316   7.900  0.0124 -0.0422  0.0104
  186SLPC  H15R21432   5.938  -0.337   7.922  0.4347  0.1635 -1.6982
  186SLPC  H15S21433   5.778  -0.409   7.871 -0.5986 -0.5615  2.5538
  186SLPC  C21621434   5.760  -0.261   8.025 -0.0437  0.2400  0.5120
  186SLPC  H16R21435   5.651  -0.238   8.022 -0.1711 -0.3013  0.8899
  186SLPC  H16S21436   5.825  -0.174   8.046  0.3802 -0.4037  2.0041
  186SLPC  C21721437   5.777  -0.351   8.146  0.3589  0.4176 -0.0778
  186SLPC  H17R21438   5.883  -0.367   8.172  0.4639  0.2685 -0.5912
  186SLPC  H17S21439   5.740  -0.455   8.135  2.3544 -0.5289  1.4824
  186SLPC  C21821440   5.705  -0.302   8.265  0.3442  0.1351  0.1068
  186SLPC  H18R21441   5.731  -0.365   8.353 -2.5730 -1.8943 -0.3348
  186SLPC  H18S21442   5.595  -0.313   8.253  0.3256  1.3368 -1.0898
  186SLPC  H18T21443   5.717  -0.195   8.292  0.0259  0.1159  0.3322
  186SLPC   C3321444   5.570   0.673   7.196 -1.0936 -0.2419  0.1831
  186SLPC   H3X21445   5.562   0.576   7.248 -2.7616 -0.8586 -1.1170
  186SLPC   H3Y21446   5.480   0.679   7.131 -1.2021 -1.4005  0.2127
  186SLPC   C3421447   5.581   0.792   7.297 -0.1242  0.5260  0.9365
  186SLPC   H4X21448   5.576   0.888   7.241 -1.3683 -0.4984 -0.8114
  186SLPC   H4Y21449   5.675   0.792   7.356 -0.2732  0.5048  1.1735
  186SLPC   C3521450   5.461   0.772   7.393 -0.5503 -0.0170 -0.3702
  186SLPC   H5X21451   5.502   0.700   7.467 -1.1123 -0.6287 -0.6481
  186SLPC   H5Y21452   5.376   0.715   7.351  1.0541 -2.6888 -0.2446
  186SLPC   C3621453   5.416   0.909   7.445 -0.1823 -0.3745  0.1437
  186SLPC   H6X21454   5.387   0.971   7.358  0.7539 -1.8536 -1.2905
  186SLPC   H6Y21455   5.504   0.963   7.487 -1.4623  2.0904 -0.1924
  186SLPC   C3721456   5.292   0.882   7.538  0.0294 -0.2938 -1.1220
  186SLPC   H7X21457   5.223   0.806   7.496 -1.5014  1.4602 -1.9257
  186SLPC   H7Y21458   5.244   0.982   7.551  1.7981  0.4874 -0.2006
  186SLPC   C3821459   5.354   0.828   7.669 -0.2362 -0.0955  0.3296
  186SLPC   H8X21460   5.450   0.872   7.703 -0.8304  1.3780  0.2045
  186SLPC   H8Y21461   5.366   0.719   7.655 -1.4231 -0.2381  0.2521
  186SLPC   C3921462   5.259   0.840   7.792  0.6117 -0.2936  0.5591
  186SLPC   H9X21463   5.318   0.806   7.879  2.4091  2.5899  0.5889
  186SLPC   H9Y21464   5.175   0.770   7.770  0.7816 -0.5265  0.6519
  186SLPC  C31021465   5.201   0.983   7.812 -0.0334  0.1268 -0.4641
  186SLPC  H10X21466   5.109   1.013   7.758 -0.2030  0.9951  0.2893
  186SLPC  H10Y21467   5.279   1.058   7.784 -0.5242  1.7052  2.1161
  186SLPC  C31121468   5.171   1.007   7.957  0.9050  0.2371 -0.1888
  186SLPC  H11X21469   5.122   1.107   7.961 -1.1493 -0.7515  2.2149
  186SLPC  H11Y21470   5.262   1.025   8.019  0.8115 -2.4484  0.8532
  186SLPC  C31221471   5.084   0.901   8.028 -0.0354  0.3212 -0.0534
  186SLPC  H12X21472   5.025   0.830   7.966  1.4323 -2.0567  1.1149
  186SLPC  H12Y21473   5.009   0.958   8.087 -0.8645 -0.0351 -0.7387
  186SLPC  C31321474   5.169   0.815   8.122 -0.7061  0.3390  0.7936
  186SLPC  H13X21475   5.220   0.884   8.192  0.7708 -0.1194  0.2038
  186SLPC  H13Y21476   5.250   0.762   8.068 -1.1317 -0.4223  0.8945
  186SLPC  C31421477   5.090   0.703   8.182  0.4681  0.1774 -0.5259
  186SLPC  H14X21478   5.155   0.647   8.252  1.1861  2.2128  0.5353
  186SLPC  H14Y21479   5.066   0.631   8.101  1.9104  0.0215 -0.8511
  186SLPC  C31521480   4.950   0.738   8.249 -0.7192  0.3540 -0.4220
  186SLPC  H15X21481   4.883   0.794   8.180  1.3162  1.9049 -1.2478
  186SLPC  H15Y21482   4.979   0.816   8.323 -0.2050  1.8896 -2.1686
  186SLPC  C31621483   4.875   0.629   8.321  0.3505 -0.2717 -0.6641
  186SLPC  H16X21484   4.939   0.584   8.400 -0.6201 -1.9384 -0.7713
  186SLPC  H16Y21485   4.858   0.541   8.255  0.6513 -1.4774  0.7970
  186SLPC  C31721486   4.738   0.672   8.367  0.2110 -0.2879  0.4826
  186SLPC  H17X21487   4.680   0.699   8.276 -0.6019 -1.3433  0.6684
  186SLPC  H17Y21488   4.754   0.763   8.430 -0.5732 -0.9234  1.6220
  186SLPC  C31821489   4.668   0.569   8.452 -0.2396 -0.2807  0.8598
  186SLPC  H18X21490   4.586   0.612   8.513  2.5572  1.2722  3.8399
  186SLPC  H18Y21491   4.731   0.540   8.538  0.3741  0.0889  0.5402
  186SLPC  H18Z21492   4.623   0.481   8.400  0.0614  0.6971 -1.1395
  187SLPC     N21493   1.107   3.685   6.145 -0.2110 -0.2251  0.3047
  187SLPC   C1321494   1.238   3.697   6.065 -0.0092  0.5796 -0.2313
  187SLPC  H13A21495   1.285   3.600   6.066 -0.1645  0.3644  3.8750
  187SLPC  H13B21496   1.221   3.738   5.966 -1.8850  1.5843  0.4648
  187SLPC  H13C21497   1.310   3.763   6.111 -0.5172 -0.1945  1.7521
  187SLPC   C1421498   1.015   3.605   6.056  0.1817 -0.0962 -0.6635
  187SLPC  H14A21499   1.053   3.506   6.031 -0.4637 -0.6058  0.3105
  187SLPC  H14B21500   0.929   3.572   6.111  0.3169  0.5149 -0.0760
  187SLPC  H14C21501   0.988   3.660   5.967  0.3769  2.0182  0.5196
  187SLPC   C1521502   1.052   3.821   6.169  0.0182  0.6976  0.3735
  187SLPC  H15A21503   0.964   3.826   6.232 -1.6165  0.6956 -1.7954
  187SLPC  H15B21504   1.125   3.887   6.211  1.6836 -0.1221 -1.0895
  187SLPC  H15C21505   1.022   3.865   6.075  0.2212  0.2981  0.1155
  187SLPC   C1221506   1.138   3.614   6.273  0.3608  0.3054 -0.5142
  187SLPC  H12A21507   1.236   3.647   6.305 -0.1489  2.0576 -0.6343
  187SLPC  H12B21508   1.142   3.508   6.254 -0.8119  0.2009 -0.2439
  187SLPC   C1121509   1.041   3.631   6.393  0.2572  0.5381 -0.2316
  187SLPC  H11A21510   1.043   3.733   6.436 -0.5208 -0.7339  3.1940
  187SLPC  H11B21511   1.086   3.579   6.480 -1.1432 -0.4486 -0.0468
  187SLPC     P21512   0.865   3.433   6.376  0.0475 -0.5598 -0.1152
  187SLPC   O1321513   0.803   3.407   6.511 -0.3959  0.1667  0.0732
  187SLPC   O1421514   0.783   3.406   6.256  0.4000 -0.0425  0.1941
  187SLPC   O1221515   0.907   3.592   6.366  0.3951  0.8726 -0.2523
  187SLPC   O1121516   0.996   3.342   6.353  0.3462 -0.0521  0.1451
  187SLPC    C121517   1.046   3.247   6.449 -0.0119  1.2976 -0.1534
  187SLPC    HA21518   0.969   3.203   6.515  1.1082 -1.0113 -0.2922
  187SLPC    HB21519   1.091   3.160   6.397 -0.4895  1.1256 -0.2831
  187SLPC    C221520   1.161   3.302   6.548 -0.4916  0.4795  0.1590
  187SLPC    HS21521   1.192   3.219   6.616  3.2885  0.3250 -1.4801
  187SLPC   O2121522   1.104   3.415   6.622 -0.1933  0.1999 -0.0998
  187SLPC   C2121523   1.029   3.402   6.733 -0.9232  0.7985  0.1080
  187SLPC   O2221524   0.987   3.296   6.780 -0.2094 -0.5200  0.2938
  187SLPC   C2221525   1.023   3.536   6.797 -0.2000 -0.7909 -0.3539
  187SLPC   H2R21526   1.127   3.573   6.789 -0.3973  0.1641  1.1476
  187SLPC   H2S21527   0.956   3.599   6.734 -0.9277 -1.5106 -0.3209
  187SLPC    C321528   1.289   3.346   6.479 -0.7216 -0.0880  0.3365
  187SLPC    HX21529   1.270   3.418   6.396  1.8423 -0.1612 -0.4060
  187SLPC    HY21530   1.337   3.253   6.442 -0.9813  0.3723 -1.2318
  187SLPC   O3121531   1.386   3.422   6.562 -0.5385  0.0821 -0.4620
  187SLPC   C3121532   1.444   3.347   6.650  0.2117 -0.0391 -0.5146
  187SLPC   O3221533   1.443   3.223   6.647  0.1270 -0.3337 -0.4278
  187SLPC   C3221534   1.512   3.436   6.755  0.1302 -0.5740 -0.7236
  187SLPC   H2X21535   1.564   3.513   6.694  0.3589  1.2717  1.6600
  187SLPC   H2Y21536   1.589   3.373   6.804 -1.6323 -0.3620  2.6587
  187SLPC   C2321537   0.953   3.531   6.937 -0.8942 -0.1154  0.2138
  187SLPC   H3R21538   0.852   3.486   6.931 -0.2939 -1.3093 -3.4741
  187SLPC   H3S21539   0.937   3.631   6.983 -0.6283 -0.6222  1.4278
  187SLPC   C2421540   1.039   3.453   7.042 -0.7480  0.0512  0.6998
  187SLPC   H4R21541   1.144   3.490   7.035 -0.0534 -2.0255 -0.7309
  187SLPC   H4S21542   1.049   3.348   7.008 -1.9403 -0.1384  0.8834
  187SLPC   C2521543   0.984   3.466   7.180  0.6173 -0.2312  0.4610
  187SLPC   H5R21544   0.886   3.415   7.169  0.5984 -0.2774  0.8237
  187SLPC   H5S21545   0.957   3.569   7.211 -0.0839 -0.5244  0.8495
  187SLPC   C2621546   1.060   3.412   7.302 -0.3916  0.0189 -0.1347
  187SLPC   H6R21547   0.997   3.412   7.393  0.3358  1.8467  0.4049
  187SLPC   H6S21548   1.148   3.473   7.331  2.2355 -2.7468 -1.6254
  187SLPC   C2721549   1.125   3.277   7.280  0.2526 -0.0399 -0.3267
  187SLPC   H7R21550   1.193   3.292   7.194 -0.7157  0.7502 -0.9761
  187SLPC   H7S21551   1.052   3.194   7.270  0.0548  0.1765 -0.7106
  187SLPC   C2821552   1.223   3.242   7.400 -0.0372 -0.3904  0.2804
  187SLPC   H8R21553   1.294   3.326   7.410  1.5422 -1.5860 -0.5665
  187SLPC   H8S21554   1.289   3.161   7.362 -0.3306 -1.7054  2.3815
  187SLPC   C2921555   1.147   3.204   7.530  0.0068  0.2466 -1.4642
  187SLPC   H9R21556   1.098   3.105   7.530 -0.7379  0.5673  0.6210
  187SLPC  C21021557   1.154   3.275   7.646  0.6927  0.1006 -0.1007
  187SLPC  H10R21558   1.092   3.241   7.730  0.8096  1.5859  0.6101
  187SLPC  C21121559   1.223   3.403   7.674 -0.2399 -0.4764  0.4898
  187SLPC  H11R21560   1.205   3.464   7.582  0.9071  1.4443  1.4730
  187SLPC  H11S21561   1.333   3.394   7.679 -0.3932 -2.2880  1.7278
  187SLPC  C21221562   1.194   3.490   7.794 -0.3672  0.5842 -0.7322
  187SLPC  H12R21563   1.154   3.591   7.779  0.2781  0.6233 -2.3355
  187SLPC  C21321564   1.208   3.450   7.923  0.5756 -0.1108 -0.0687
  187SLPC  H13R21565   1.217   3.527   8.001  1.9648  2.6093 -2.7173
  187SLPC  C21421566   1.263   3.310   7.974  0.3718 -0.0717 -0.1038
  187SLPC  H14R21567   1.332   3.325   8.059  0.4283 -0.7542 -0.0237
  187SLPC  H14S21568   1.325   3.257   7.899  0.5282  0.2160 -0.1767
  187SLPC  C21521569   1.143   3.213   8.016  0.0877  0.4590  0.3989
  187SLPC  H15R21570   1.166   3.115   7.970  0.1370  1.2268 -1.2803
  187SLPC  H15S21571   1.053   3.242   7.959  0.3964 -1.0517 -0.9178
  187SLPC  C21621572   1.124   3.188   8.172 -0.2059  0.4250  0.0216
  187SLPC  H16R21573   1.113   3.285   8.225  0.7463  0.5344  0.0410
  187SLPC  H16S21574   1.221   3.143   8.203 -0.9288 -1.4495 -0.3047
  187SLPC  C21721575   1.020   3.087   8.200 -0.2759 -0.1255 -0.4356
  187SLPC  H17R21576   1.006   3.007   8.124 -0.3626 -1.6465  1.1263
  187SLPC  H17S21577   0.928   3.146   8.222  0.2370 -0.1604  2.1290
  187SLPC  C21821578   1.052   3.026   8.339 -0.0051 -1.1059 -0.3514
  187SLPC  H18R21579   1.118   2.937   8.334  1.6666 -0.0144  1.1155
  187SLPC  H18S21580   0.958   2.985   8.382 -1.1107 -1.0432 -2.5710
  187SLPC  H18T21581   1.097   3.091   8.417 -0.0107 -1.0901 -0.3612
  187SLPC   C3321582   1.417   3.499   6.854  0.3208  0.0355  0.9471
  187SLPC   H3X21583   1.364   3.423   6.916 -1.0122 -0.3783 -0.6548
  187SLPC   H3Y21584   1.336   3.547   6.796 -0.3362 -2.8246 -0.7273
  187SLPC   C3421585   1.494   3.587   6.963  0.3155  0.8159  1.0845
  187SLPC   H4X21586   1.557   3.652   6.898 -1.5636  0.7375 -0.9379
  187SLPC   H4Y21587   1.552   3.510   7.018 -0.6336 -0.9944 -0.3419
  187SLPC   C3521588   1.398   3.661   7.059 -0.1950  0.4190 -1.0141
  187SLPC   H5X21589   1.320   3.594   7.101 -2.4576  3.3063 -0.2983
  187SLPC   H5Y21590   1.332   3.735   7.008 -0.8902 -0.3924 -1.3225
  187SLPC   C3621591   1.465   3.720   7.192  0.2993  0.3090  0.2531
  187SLPC   H6X21592   1.412   3.806   7.238 -0.5356 -0.4099  0.6525
  187SLPC   H6Y21593   1.566   3.764   7.172  0.4649 -0.3498 -0.4312
  187SLPC   C3721594   1.467   3.614   7.301  0.0707  0.5887 -0.1810
  187SLPC   H7X21595   1.364   3.595   7.339  0.0807  0.1873 -0.3439
  187SLPC   H7Y21596   1.511   3.520   7.261  0.4649  0.5065  0.4189
  187SLPC   C3821597   1.559   3.658   7.412 -0.2723  0.4838 -0.1001
  187SLPC   H8X21598   1.525   3.752   7.461  0.4414  0.7265 -0.0637
  187SLPC   H8Y21599   1.649   3.704   7.367  0.0021 -1.2365 -1.3907
  187SLPC   C3921600   1.600   3.549   7.510 -0.3891 -0.6500 -0.2057
  187SLPC   H9X21601   1.677   3.484   7.465  0.6575  1.7288 -2.0085
  187SLPC   H9Y21602   1.509   3.490   7.538  0.2275 -0.7051  1.8672
  187SLPC  C31021603   1.667   3.607   7.633 -0.4984  0.7833  0.1260
  187SLPC  H10X21604   1.610   3.690   7.680  0.6998  0.7872  1.6619
  187SLPC  H10Y21605   1.768   3.639   7.601  0.7997 -2.2331  0.8819
  187SLPC  C31121606   1.698   3.491   7.739 -0.1086  0.0663  0.1873
  187SLPC  H11X21607   1.781   3.428   7.700  0.1602  0.7883 -0.4434
  187SLPC  H11Y21608   1.609   3.428   7.756  1.1797 -1.7436  0.5327
  187SLPC  C31221609   1.757   3.540   7.870  0.2415 -0.7844 -0.4120
  187SLPC  H12X21610   1.842   3.607   7.846 -0.7210  0.9610  0.8217
  187SLPC  H12Y21611   1.796   3.453   7.928  0.1407  0.6052  1.8946
  187SLPC  C31321612   1.653   3.619   7.950 -0.8747  0.3318  0.4207
  187SLPC  H13X21613   1.574   3.545   7.971 -0.5613  0.0136  0.4892
  187SLPC  H13Y21614   1.611   3.705   7.894  3.0461  2.3027  0.1338
  187SLPC  C31421615   1.704   3.674   8.081  0.2690  0.3865  0.4784
  187SLPC  H14X21616   1.610   3.712   8.128 -0.4265 -1.2419  0.4900
  187SLPC  H14Y21617   1.770   3.758   8.054  1.3452 -0.8669 -0.9890
  187SLPC  C31521618   1.781   3.569   8.164 -0.0766  0.3746  0.3628
  187SLPC  H15X21619   1.845   3.499   8.106  2.1655 -0.1927  3.3026
  187SLPC  H15Y21620   1.692   3.508   8.191 -0.6702  0.4252 -1.3692
  187SLPC  C31621621   1.845   3.626   8.292  0.5298  0.2339 -0.3078
  187SLPC  H16X21622   1.941   3.681   8.277  0.3251  0.2451 -1.6985
  187SLPC  H16Y21623   1.884   3.545   8.357 -0.2483  0.0434 -0.0670
  187SLPC  C31721624   1.754   3.710   8.380 -0.3467 -0.3031 -0.1337
  187SLPC  H17X21625   1.655   3.661   8.393 -1.5346  0.4973 -4.3870
  187SLPC  H17Y21626   1.730   3.805   8.326  0.4082 -1.2106 -2.2071
  187SLPC  C31821627   1.811   3.732   8.517 -1.0012 -0.1684 -0.2352
  187SLPC  H18X21628   1.804   3.637   8.574  1.0000 -0.3334 -0.1917
  187SLPC  H18Y21629   1.767   3.820   8.570  0.7858  0.4924  0.2040
  187SLPC  H18Z21630   1.919   3.755   8.512 -0.9227 -0.0914  1.3036
  188SLPC     N21631   1.810   1.240   5.975  0.4328 -0.3639 -0.0350
  188SLPC   C1321632   1.915   1.135   5.971  0.1179 -0.1953  0.7676
  188SLPC  H13A21633   1.996   1.165   6.036  1.9928 -0.9514 -1.1191
  188SLPC  H13B21634   1.874   1.038   5.996  0.3976 -0.2935  0.8423
  188SLPC  H13C21635   1.947   1.126   5.868  0.9768 -0.3829  1.0424
  188SLPC   C1421636   1.707   1.200   5.871 -0.2825  0.3071 -0.1083
  188SLPC  H14A21637   1.760   1.186   5.779 -1.9432 -0.6413 -0.9524
  188SLPC  H14B21638   1.660   1.107   5.898  0.6010  0.3141  1.6209
  188SLPC  H14C21639   1.627   1.270   5.856  0.1661  0.6638 -0.8911
  188SLPC   C1521640   1.866   1.370   5.926  0.4180  0.3375 -0.7023
  188SLPC  H15A21641   1.935   1.411   5.998 -0.2153  0.2090 -0.0131
  188SLPC  H15B21642   1.925   1.360   5.836  2.2539  2.2472  0.1960
  188SLPC  H15C21643   1.795   1.449   5.906 -0.1396 -0.0087 -0.1267
  188SLPC   C1221644   1.742   1.254   6.113 -0.2814  0.3347 -0.1031
  188SLPC  H12A21645   1.675   1.338   6.110  0.6649  1.1106 -0.1109
  188SLPC  H12B21646   1.818   1.291   6.181  2.9345 -0.7153 -2.8328
  188SLPC   C1121647   1.664   1.136   6.171  0.1039  0.2596  0.2368
  188SLPC  H11A21648   1.646   1.156   6.279  2.3170 -2.6007  1.2619
  188SLPC  H11B21649   1.740   1.056   6.179  1.0136  1.0325 -0.4925
  188SLPC     P21650   1.479   0.952   6.125 -0.2296 -0.1560 -0.0566
  188SLPC   O1321651   1.361   0.940   6.044 -0.0566  0.4073  0.6767
  188SLPC   O1421652   1.589   0.862   6.086  0.2838 -0.0834 -0.7745
  188SLPC   O1221653   1.549   1.095   6.095 -0.0800 -0.1041  0.3933
  188SLPC   O1121654   1.449   0.951   6.275 -0.6816  0.7930  0.0931
  188SLPC    C121655   1.382   1.060   6.342 -0.1085 -0.2350  0.3531
  188SLPC    HA21656   1.426   1.151   6.295 -1.0516 -1.2628 -2.7965
  188SLPC    HB21657   1.273   1.062   6.321 -0.3697  1.1947  1.6341
  188SLPC    C221658   1.408   1.041   6.489  0.2715  0.8832  0.3133
  188SLPC    HS21659   1.311   1.055   6.542 -0.4627  0.2618 -0.8253
  188SLPC   O2121660   1.517   1.132   6.526  0.1614 -0.2051  0.2728
  188SLPC   C2121661   1.470   1.237   6.573 -0.0629 -0.3254  0.2197
  188SLPC   O2221662   1.351   1.260   6.603 -0.3468  0.3714 -0.0639
  188SLPC   C2221663   1.587   1.325   6.606 -0.1527 -0.4098  0.2118
  188SLPC   H2R21664   1.661   1.265   6.664  0.0245  0.0776  0.4953
  188SLPC   H2S21665   1.622   1.347   6.503 -1.0458  0.7103  0.1349
  188SLPC    C321666   1.439   0.897   6.524 -0.2049 -0.1872  0.0799
  188SLPC    HX21667   1.536   0.874   6.474 -1.9272 -1.9218 -2.7339
  188SLPC    HY21668   1.350   0.844   6.484 -0.4405  0.2654  0.0008
  188SLPC   O3121669   1.439   0.886   6.665 -0.0112  0.3432  0.2979
  188SLPC   C3121670   1.531   0.826   6.723 -0.4826 -0.4231 -1.0674
  188SLPC   O3221671   1.628   0.772   6.672 -0.3543 -0.3643  0.6487
  188SLPC   C3221672   1.502   0.827   6.875  0.5579 -0.3712 -0.5635
  188SLPC   H2X21673   1.400   0.863   6.902  1.0969  0.4816  0.3942
  188SLPC   H2Y21674   1.563   0.906   6.924 -0.6437 -0.8167  1.8183
  188SLPC   C2321675   1.540   1.453   6.681  0.3214 -0.0961  0.4435
  188SLPC   H3R21676   1.442   1.486   6.641  0.0779 -2.6240 -1.2565
  188SLPC   H3S21677   1.613   1.536   6.678  0.7380 -0.4094  1.3859
  188SLPC   C2421678   1.522   1.415   6.828  0.7302 -0.5147  0.4079
  188SLPC   H4R21679   1.615   1.369   6.866  0.1802  0.4562  3.1053
  188SLPC   H4S21680   1.436   1.345   6.835 -0.1999  0.6310  0.7133
  188SLPC   C2521681   1.478   1.536   6.915  0.0500  0.4630  0.3441
  188SLPC   H5R21682   1.396   1.591   6.864 -2.2815 -1.1249  2.1893
  188SLPC   H5S21683   1.562   1.607   6.935  1.1893 -0.4000 -1.0985
  188SLPC   C2621684   1.432   1.478   7.051 -0.0713  0.1382  0.1261
  188SLPC   H6R21685   1.385   1.379   7.030 -1.7107  0.9107  0.0004
  188SLPC   H6S21686   1.360   1.550   7.095 -0.5766 -2.4399  4.0839
  188SLPC   C2721687   1.534   1.466   7.160 -0.6115  0.2765 -0.0125
  188SLPC   H7R21688   1.589   1.562   7.168  1.7415 -0.9702 -0.2187
  188SLPC   H7S21689   1.616   1.397   7.129 -0.2960  0.2532  0.8477
  188SLPC   C2821690   1.487   1.406   7.293  0.1324 -0.2423  0.7892
  188SLPC   H8R21691   1.454   1.301   7.277  2.2627 -1.4431  3.4591
  188SLPC   H8S21692   1.393   1.459   7.321 -2.0628 -1.9042 -2.7162
  188SLPC   C2921693   1.587   1.393   7.400 -0.3684  0.2628 -0.0676
  188SLPC   H9R21694   1.673   1.340   7.357 -2.1766 -2.1759 -0.9564
  188SLPC  C21021695   1.590   1.436   7.523 -0.1492 -0.1252 -0.2714
  188SLPC  H10R21696   1.678   1.414   7.585 -0.0479 -2.2629 -1.1069
  188SLPC  C21121697   1.487   1.521   7.592 -0.1812  0.2175 -0.2361
  188SLPC  H11R21698   1.405   1.537   7.519 -0.2488  2.5441  0.2510
  188SLPC  H11S21699   1.531   1.620   7.619  0.8577 -0.5125  0.8466
  188SLPC  C21221700   1.436   1.457   7.718  0.7057  0.0454  0.9875
  188SLPC  H12R21701   1.332   1.420   7.719  0.2169  1.2927  3.1630
  188SLPC  C21321702   1.507   1.434   7.830 -0.2208 -0.2021  0.1002
  188SLPC  H13R21703   1.449   1.402   7.918  0.5114  0.1112  0.7136
  188SLPC  C21421704   1.651   1.482   7.857  0.2857 -0.5726  0.2048
  188SLPC  H14R21705   1.684   1.543   7.770  1.4156  0.4141  1.2957
  188SLPC  H14S21706   1.722   1.400   7.877 -0.2736 -1.5703 -1.6152
  188SLPC  C21521707   1.637   1.578   7.982  0.1850  0.5835  0.6425
  188SLPC  H15R21708   1.737   1.620   8.004 -0.2237  1.7416  0.3291
  188SLPC  H15S21709   1.601   1.524   8.072  1.1440 -0.8643  0.1943
  188SLPC  C21621710   1.554   1.700   7.964 -0.2469  0.8871  0.0317
  188SLPC  H16R21711   1.451   1.661   7.943  0.2133 -0.6302  0.4482
  188SLPC  H16S21712   1.579   1.751   7.868 -0.3399  0.3583 -0.2793
  188SLPC  C21721713   1.561   1.800   8.078  0.7092 -0.0139  0.3854
  188SLPC  H17R21714   1.657   1.855   8.073  1.3634 -0.8491  2.5693
  188SLPC  H17S21715   1.553   1.756   8.179 -0.0989 -0.9412 -0.0694
  188SLPC  C21821716   1.447   1.905   8.065  0.0357  0.2168 -0.0773
  188SLPC  H18R21717   1.454   1.963   7.971 -2.3061  1.5386  0.4881
  188SLPC  H18S21718   1.426   1.967   8.155 -0.8578 -0.3339  0.1118
  188SLPC  H18T21719   1.355   1.842   8.064 -0.8809  1.5337 -1.2046
  188SLPC   C3321720   1.537   0.693   6.943  0.0579 -0.1892  0.0528
  188SLPC   H3X21721   1.639   0.662   6.913 -0.1369 -2.8964  1.8415
  188SLPC   H3Y21722   1.474   0.618   6.890  0.1331  0.4280 -0.9327
  188SLPC   C3421723   1.511   0.689   7.093  0.3948  0.4696 -0.1407
  188SLPC   H4X21724   1.412   0.735   7.114  0.6594  1.1314 -0.3018
  188SLPC   H4Y21725   1.595   0.737   7.148  1.4078 -0.7504 -0.5937
  188SLPC   C3521726   1.514   0.547   7.153  0.2998 -0.5734 -0.1501
  188SLPC   H5X21727   1.612   0.496   7.146 -0.1980 -1.2810 -3.2135
  188SLPC   H5Y21728   1.440   0.489   7.093 -1.5463 -0.5237  1.9279
  188SLPC   C3621729   1.465   0.547   7.297 -0.2056  0.3220  0.4999
  188SLPC   H6X21730   1.368   0.597   7.314 -1.1066 -0.7053 -1.2524
  188SLPC   H6Y21731   1.542   0.600   7.356  1.4624 -2.2784  0.8485
  188SLPC   C3721732   1.457   0.403   7.359 -0.9656 -0.5077 -0.1401
  188SLPC   H7X21733   1.548   0.345   7.330  0.8398  2.5365 -1.0417
  188SLPC   H7Y21734   1.371   0.348   7.314 -1.1330  1.1059 -1.8982
  188SLPC   C3821735   1.449   0.411   7.513 -0.3939 -0.4286 -0.7827
  188SLPC   H8X21736   1.353   0.463   7.532 -0.0549  0.1603 -0.6812
  188SLPC   H8Y21737   1.526   0.477   7.558 -0.5919  0.0407 -1.1268
  188SLPC   C3921738   1.437   0.274   7.590  0.0601 -0.3535  0.2727
  188SLPC   H9X21739   1.525   0.215   7.557 -1.0112 -1.1313 -1.2781
  188SLPC   H9Y21740   1.355   0.205   7.563  1.4699 -1.4425 -1.3937
  188SLPC  C31021741   1.441   0.303   7.742 -0.0679  0.0570  0.6862
  188SLPC  H10X21742   1.359   0.372   7.772 -1.8070 -1.9676  0.8981
  188SLPC  H10Y21743   1.538   0.355   7.751  1.2140 -1.7182 -1.8149
  188SLPC  C31121744   1.432   0.172   7.824 -0.3644  0.0522  0.0951
  188SLPC  H11X21745   1.529   0.121   7.809  0.3409  1.3080  0.1995
  188SLPC  H11Y21746   1.349   0.109   7.786  2.1441 -3.0193 -0.7308
  188SLPC  C31221747   1.433   0.199   7.979  0.1416 -0.3142 -0.0070
  188SLPC  H12X21748   1.344   0.250   8.022  0.9741  0.3074  1.0171
  188SLPC  H12Y21749   1.521   0.263   8.001  0.1972 -0.9409  1.7241
  188SLPC  C31321750   1.470   0.080   8.075  0.0235 -0.1834 -0.0954
  188SLPC  H13X21751   1.572   0.048   8.042 -0.7806  0.3650 -3.5145
  188SLPC  H13Y21752   1.393   0.005   8.049  0.7622 -0.7734 -0.6416
  188SLPC  C31421753   1.454   0.118   8.225 -0.0097  0.3431 -0.2617
  188SLPC  H14X21754   1.460   0.024   8.284 -2.3599  1.6118  2.2346
  188SLPC  H14Y21755   1.348   0.146   8.244  0.4067  0.2379  2.6345
  188SLPC  C31521756   1.547   0.230   8.283 -0.1686 -0.4093 -0.2497
  188SLPC  H15X21757   1.550   0.311   8.207  0.6445 -0.8560 -0.7107
  188SLPC  H15Y21758   1.652   0.193   8.283  0.1367  0.4280  0.0046
  188SLPC  C31621759   1.503   0.289   8.419 -0.0030  0.0185  0.4880
  188SLPC  H16X21760   1.393   0.306   8.429  0.1430  1.7525 -0.4838
  188SLPC  H16Y21761   1.551   0.389   8.424  0.2235  0.0622 -1.6525
  188SLPC  C31721762   1.551   0.216   8.542 -0.7470 -0.3595 -0.0444
  188SLPC  H17X21763   1.661   0.231   8.555 -1.0064  1.0208  0.7529
  188SLPC  H17Y21764   1.539   0.106   8.530 -1.2879 -0.3665  0.5354
  188SLPC  C31821765   1.484   0.254   8.677 -0.0716  0.9967 -0.5713
  188SLPC  H18X21766   1.381   0.213   8.679 -0.5696  2.1771 -1.0382
  188SLPC  H18Y21767   1.480   0.362   8.704 -0.9963  0.6921  0.6194
  188SLPC  H18Z21768   1.537   0.196   8.757 -2.8308 -0.1944  0.5164
  189SLPC     N21769   3.936   6.642   6.255 -0.2186  0.3162  0.5974
  189SLPC   C1321770   3.982   6.687   6.386 -0.3744  0.2612 -0.1506
  189SLPC  H13A21771   3.903   6.745   6.430 -0.3419  0.3247 -0.1753
  189SLPC  H13B21772   4.011   6.605   6.451 -0.0876 -0.5084 -1.2227
  189SLPC  H13C21773   4.079   6.735   6.378  1.0690 -2.3715  0.3257
  189SLPC   C1421774   4.026   6.536   6.203  0.2107  0.2238 -0.2682
  189SLPC  H14A21775   4.127   6.571   6.186  0.6597  0.0586  1.8098
  189SLPC  H14B21776   4.046   6.456   6.273 -0.8366  0.2270  0.0549
  189SLPC  H14C21777   3.991   6.494   6.110 -1.0657  0.3417  0.1442
  189SLPC   C1521778   3.951   6.758   6.160 -0.0920 -0.1957 -0.3431
  189SLPC  H15A21779   3.929   6.724   6.060  0.3698  0.3236 -0.6298
  189SLPC  H15B21780   3.888   6.841   6.187 -0.0698 -0.6377  1.1590
  189SLPC  H15C21781   4.056   6.784   6.167  0.0983 -1.3335  1.5537
  189SLPC   C1221782   3.791   6.596   6.263 -0.4489 -0.0980 -0.9929
  189SLPC  H12A21783   3.791   6.522   6.341 -0.2772 -2.1641 -2.8540
  189SLPC  H12B21784   3.758   6.551   6.171 -2.8495 -1.5238  0.4826
  189SLPC   C1121785   3.695   6.716   6.294 -0.4520  0.4793  0.5707
  189SLPC  H11A21786   3.740   6.786   6.368 -1.1294 -0.7485  2.2087
  189SLPC  H11B21787   3.603   6.681   6.346  0.2227 -2.9037 -0.2940
  189SLPC     P21788   3.568   6.736   6.066 -0.6704  0.4787  0.0914
  189SLPC   O1321789   3.551   6.849   5.968  0.2356  0.0028  0.2289
  189SLPC   O1421790   3.625   6.612   6.014  0.2855  0.1377 -0.2278
  189SLPC   O1221791   3.667   6.786   6.173  0.0659  0.5133 -0.0135
  189SLPC   O1121792   3.431   6.718   6.136 -0.4535 -0.4789 -0.6735
  189SLPC    C121793   3.353   6.817   6.204  0.5501 -0.4116  0.1284
  189SLPC    HA21794   3.391   6.918   6.181 -1.9916  0.3097 -1.2944
  189SLPC    HB21795   3.248   6.815   6.167  0.2045  3.5764  0.4845
  189SLPC    C221796   3.349   6.782   6.352  0.3998 -0.5970 -0.5401
  189SLPC    HS21797   3.406   6.690   6.375  1.1345  0.4931  2.4242
  189SLPC   O2121798   3.212   6.758   6.398  0.1957 -0.3539  0.0400
  189SLPC   C2121799   3.162   6.639   6.367  0.0363 -0.1338  0.2209
  189SLPC   O2221800   3.230   6.547   6.321 -0.2005 -0.2016  0.5127
  189SLPC   C2221801   3.010   6.615   6.390 -0.0984 -0.2067  0.2778
  189SLPC   H2R21802   2.979   6.679   6.475 -0.2237 -0.2155  0.2384
  189SLPC   H2S21803   2.954   6.643   6.298 -1.2789  1.3854  1.4169
  189SLPC    C321804   3.419   6.894   6.433  0.5945 -0.4106 -1.1274
  189SLPC    HX21805   3.365   6.986   6.402  0.4721 -0.3291 -0.6668
  189SLPC    HY21806   3.524   6.920   6.407  1.5016 -0.3049  2.2154
  189SLPC   O3121807   3.400   6.878   6.578 -0.0601 -0.2213  0.0225
  189SLPC   C3121808   3.458   6.777   6.633  0.2907 -0.6052 -0.0106
  189SLPC   O3221809   3.550   6.712   6.583 -0.5093 -0.8441 -0.3391
  189SLPC   C3221810   3.388   6.756   6.770 -0.2695 -0.0782 -0.0668
  189SLPC   H2X21811   3.279   6.743   6.753  0.1215 -0.1431 -3.0500
  189SLPC   H2Y21812   3.406   6.843   6.837  0.5519 -0.5136  0.3019
  189SLPC   C2321813   2.974   6.474   6.452 -0.0050 -0.1496  0.3765
  189SLPC   H3R21814   2.999   6.465   6.560 -1.5462 -0.8806  0.6977
  189SLPC   H3S21815   3.031   6.396   6.395 -1.2296 -0.1844 -0.8538
  189SLPC   C2421816   2.828   6.453   6.430  0.2668 -0.4323  0.4842
  189SLPC   H4R21817   2.798   6.349   6.457  0.2959 -0.5728  0.0023
  189SLPC   H4S21818   2.797   6.480   6.326 -0.6942  1.6998  1.2777
  189SLPC   C2521819   2.730   6.536   6.511  0.7320 -0.5376  0.2588
  189SLPC   H5R21820   2.628   6.524   6.466  0.3268  0.3508  0.9263
  189SLPC   H5S21821   2.745   6.645   6.503 -0.2093 -0.3410  1.0524
  189SLPC   C2621822   2.737   6.504   6.658  0.4709 -0.6845 -0.1267
  189SLPC   H6R21823   2.838   6.502   6.703 -0.1928  2.1868  1.7765
  189SLPC   H6S21824   2.692   6.403   6.669 -0.5276 -0.6644 -3.1620
  189SLPC   C2721825   2.668   6.614   6.743  0.3815  0.1489  0.6856
  189SLPC   H7R21826   2.563   6.626   6.706  1.1815  1.1278 -1.4623
  189SLPC   H7S21827   2.723   6.708   6.723  3.5294 -1.8662 -0.9301
  189SLPC   C2821828   2.679   6.573   6.886  0.6310  0.1860 -0.1989
  189SLPC   H8R21829   2.737   6.479   6.892 -0.6732 -0.6316  0.0538
  189SLPC   H8S21830   2.579   6.550   6.929  0.5859 -0.4692 -0.6420
  189SLPC   C2921831   2.760   6.676   6.962 -0.2399 -0.2955  0.0462
  189SLPC   H9R21832   2.843   6.723   6.907  1.6261 -0.0837  2.8492
  189SLPC  C21021833   2.739   6.732   7.082 -0.5832 -0.2088 -0.3368
  189SLPC  H10R21834   2.813   6.802   7.126 -0.6972 -1.2742  1.7032
  189SLPC  C21121835   2.622   6.699   7.166  0.2116  0.1610 -0.2480
  189SLPC  H11R21836   2.529   6.677   7.110 -1.6416  2.1777  1.8032
  189SLPC  H11S21837   2.594   6.791   7.223  1.7090 -1.0810  2.7547
  189SLPC  C21221838   2.654   6.576   7.255 -0.1427 -0.9977 -0.5730
  189SLPC  H12R21839   2.741   6.516   7.225  0.5896 -0.6832  0.8256
  189SLPC  C21321840   2.597   6.543   7.370 -0.1259  0.9533 -0.2488
  189SLPC  H13R21841   2.636   6.456   7.425  1.3917  1.3384 -0.6619
  189SLPC  C21421842   2.482   6.620   7.425  0.5579  0.1485  0.7726
  189SLPC  H14R21843   2.388   6.579   7.383 -1.0782  2.6750  1.8029
  189SLPC  H14S21844   2.482   6.723   7.384 -2.9391 -0.7295 -1.8730
  189SLPC  C21521845   2.489   6.620   7.575 -0.4294  0.5045 -0.2678
  189SLPC  H15R21846   2.562   6.696   7.609 -0.1770  0.2084 -0.1442
  189SLPC  H15S21847   2.510   6.521   7.622  2.2889  1.2700  0.3127
  189SLPC  C21621848   2.356   6.662   7.632 -0.8082 -0.9682  0.9806
  189SLPC  H16R21849   2.280   6.598   7.581  0.1627 -1.5745  0.2578
  189SLPC  H16S21850   2.342   6.769   7.605 -1.1706 -0.7113  2.1409
  189SLPC  C21721851   2.340   6.668   7.782 -0.4056  0.2248  0.7393
  189SLPC  H17R21852   2.369   6.572   7.830  1.2182 -0.1668 -0.9015
  189SLPC  H17S21853   2.233   6.690   7.804 -0.5124  2.6233 -1.5559
  189SLPC  C21821854   2.423   6.779   7.851 -0.4661  0.2780  0.2222
  189SLPC  H18R21855   2.528   6.743   7.843 -1.0408 -2.1213  2.3912
  189SLPC  H18S21856   2.401   6.788   7.959  0.7939  0.5489  0.4706
  189SLPC  H18T21857   2.402   6.874   7.798 -1.2848  0.9764  1.7723
  189SLPC   C3321858   3.459   6.638   6.843 -0.5063 -0.1182  0.1164
  189SLPC   H3X21859   3.567   6.658   6.862 -0.2825 -2.5157  1.7571
  189SLPC   H3Y21860   3.447   6.551   6.775  0.9463 -0.1704 -0.1141
  189SLPC   C3421861   3.391   6.610   6.981 -0.3584 -0.1462  0.4568
  189SLPC   H4X21862   3.286   6.573   6.972 -0.3280 -0.1483  0.1076
  189SLPC   H4Y21863   3.390   6.702   7.044 -0.5739 -1.1360  1.9647
  189SLPC   C3521864   3.481   6.509   7.057 -0.1341  0.0431 -0.0626
  189SLPC   H5X21865   3.583   6.550   7.070  1.4463 -2.1803 -3.6606
  189SLPC   H5Y21866   3.503   6.418   6.997 -0.2351  0.1177 -0.2140
  189SLPC   C3621867   3.422   6.464   7.197 -0.4049  0.5734  0.3211
  189SLPC   H6X21868   3.500   6.393   7.233  0.7658  1.5391 -0.2399
  189SLPC   H6Y21869   3.338   6.396   7.171  1.7665 -1.7537 -1.1743
  189SLPC   C3721870   3.381   6.569   7.289 -0.3176 -0.3082 -0.0242
  189SLPC   H7X21871   3.296   6.628   7.248  0.4979  2.4206  1.9330
  189SLPC   H7Y21872   3.463   6.643   7.300  0.1703 -0.9494  0.7786
  189SLPC   C3821873   3.357   6.526   7.428  0.0280  0.2972 -0.0667
  189SLPC   H8X21874   3.456   6.513   7.476 -0.8723 -1.4813  1.4367
  189SLPC   H8Y21875   3.314   6.424   7.432  1.7818 -0.4943 -0.4948
  189SLPC   C3921876   3.275   6.623   7.513 -0.0371  0.3755  0.4537
  189SLPC   H9X21877   3.175   6.627   7.465 -0.6762 -0.1644  1.7072
  189SLPC   H9Y21878   3.317   6.724   7.531 -3.7361  2.3410 -0.9470
  189SLPC  C31021879   3.245   6.559   7.644  0.0731  0.5969 -0.5955
  189SLPC  H10X21880   3.335   6.547   7.707 -0.3684 -1.9014 -0.3556
  189SLPC  H10Y21881   3.196   6.462   7.624  3.4708 -1.4975  0.3918
  189SLPC  C31121882   3.143   6.637   7.733  0.6019 -0.3250  0.3080
  189SLPC  H11X21883   3.067   6.679   7.663  0.2017 -0.0743  0.8887
  189SLPC  H11Y21884   3.203   6.716   7.781  1.9157 -1.3402  0.3844
  189SLPC  C31221885   3.085   6.553   7.847 -0.0926 -0.7094 -0.1043
  189SLPC  H12X21886   3.165   6.518   7.916  0.3939 -1.4030 -1.0021
  189SLPC  H12Y21887   3.029   6.468   7.803  0.5457 -1.8581  1.2242
  189SLPC  C31321888   2.982   6.622   7.930 -0.1637 -0.5498  0.5051
  189SLPC  H13X21889   2.916   6.675   7.857  1.7537  0.7829 -0.3392
  189SLPC  H13Y21890   3.024   6.705   7.991 -0.7124  0.7143 -0.7522
  189SLPC  C31421891   2.895   6.519   8.024 -0.2154 -0.2926 -0.6882
  189SLPC  H14X21892   2.947   6.485   8.116  0.3219  1.9659 -0.0907
  189SLPC  H14Y21893   2.873   6.424   7.972 -1.8331 -1.5319  2.0462
  189SLPC  C31521894   2.761   6.580   8.063  0.6800  0.2535 -0.0237
  189SLPC  H15X21895   2.708   6.608   7.969  1.6132  0.3962 -0.5252
  189SLPC  H15Y21896   2.782   6.672   8.122  2.4545  0.5973 -1.1046
  189SLPC  C31621897   2.659   6.488   8.133  0.1037  0.0591 -0.4437
  189SLPC  H16X21898   2.620   6.415   8.060  3.3113 -1.3774 -0.8990
  189SLPC  H16Y21899   2.569   6.544   8.167 -0.4044 -0.9504 -0.0919
  189SLPC  C31721900   2.718   6.399   8.241  0.6070  0.6993 -0.5965
  189SLPC  H17X21901   2.770   6.462   8.316  0.2234  1.7792 -1.2040
  189SLPC  H17Y21902   2.787   6.321   8.200 -1.0148 -0.7353 -0.6986
  189SLPC  C31821903   2.601   6.323   8.310  0.5293  0.4460 -0.1077
  189SLPC  H18X21904   2.529   6.278   8.238 -0.1763 -1.2487  1.5800
  189SLPC  H18Y21905   2.536   6.384   8.375  0.4040 -0.6004  0.7841
  189SLPC  H18Z21906   2.642   6.239   8.370 -1.5302  0.5895  1.6111
  190SLPC     N21907   3.332   2.235   6.405 -0.3004  1.2006  0.0703
  190SLPC   C1321908   3.287   2.153   6.284  0.3096 -0.3499  0.0624
  190SLPC  H13A21909   3.230   2.217   6.219 -2.0116 -0.7585  1.5551
  190SLPC  H13B21910   3.377   2.116   6.237  1.4087 -1.3496  2.7351
  190SLPC  H13C21911   3.218   2.074   6.312 -0.9313  1.2533  1.7788
  190SLPC   C1421912   3.445   2.328   6.367 -0.8023  0.7847 -0.0299
  190SLPC  H14A21913   3.466   2.393   6.451  0.7755 -0.9124  0.9470
  190SLPC  H14B21914   3.531   2.276   6.329 -1.4133  0.6462 -1.3021
  190SLPC  H14C21915   3.410   2.404   6.297  0.5701  1.6156  0.1412
  190SLPC   C1521916   3.389   2.136   6.503  0.1299 -0.6545  0.2803
  190SLPC  H15A21917   3.318   2.068   6.549 -2.6689  1.3920 -0.7201
  190SLPC  H15B21918   3.470   2.075   6.465  1.7513  0.4995  1.7207
  190SLPC  H15C21919   3.432   2.191   6.586 -1.6596  0.2507  0.6525
  190SLPC   C1221920   3.216   2.309   6.466 -0.2894 -0.7312  0.1126
  190SLPC  H12A21921   3.248   2.365   6.553  0.1677  1.1482 -1.2131
  190SLPC  H12B21922   3.147   2.240   6.512  1.0246 -0.6927  2.2803
  190SLPC   C1121923   3.139   2.417   6.382  0.1185  0.4824 -0.7222
  190SLPC  H11A21924   3.044   2.434   6.437 -0.2735 -1.2326 -0.7926
  190SLPC  H11B21925   3.112   2.366   6.287  1.7141 -1.9031  0.0003
  190SLPC     P21926   3.254   2.643   6.451 -0.0200  0.2156 -0.2397
  190SLPC   O1321927   3.361   2.595   6.542 -0.0175  0.2203  0.4163
  190SLPC   O1421928   3.281   2.768   6.378  0.2385 -0.0990 -0.1529
  190SLPC   O1221929   3.217   2.529   6.348 -0.6029  0.2617 -0.3602
  190SLPC   O1121930   3.124   2.664   6.534 -0.3815  0.4510  0.2199
  190SLPC    C121931   3.105   2.767   6.623  0.5816  0.4179 -0.1658
  190SLPC    HA21932   3.179   2.850   6.620 -0.2395  1.1383 -1.6591
  190SLPC    HB21933   3.004   2.811   6.605  0.0896 -0.3139  0.7325
  190SLPC    C221934   3.114   2.719   6.779  0.5325 -0.1208 -0.3523
  190SLPC    HS21935   3.076   2.804   6.841  0.4405  0.4943 -1.2436
  190SLPC   O2121936   3.250   2.681   6.819  0.4224  0.0713  0.2880
  190SLPC   C2121937   3.332   2.784   6.837 -0.3248 -0.0653  0.4367
  190SLPC   O2221938   3.305   2.901   6.811  0.1061  0.3479  0.2007
  190SLPC   C2221939   3.465   2.734   6.881 -0.0556  0.6144 -0.2861
  190SLPC   H2R21940   3.444   2.648   6.948 -1.6249  1.6804  0.6458
  190SLPC   H2S21941   3.525   2.691   6.797 -0.3600  1.5075 -0.9850
  190SLPC    C321942   3.026   2.595   6.816  0.2594 -0.3198 -0.4188
  190SLPC    HX21943   3.061   2.504   6.764  0.4142  0.3719 -1.5509
  190SLPC    HY21944   2.923   2.604   6.776 -0.3465 -0.3895  1.0387
  190SLPC   O3121945   3.005   2.574   6.959 -0.3141  0.2206  0.0147
  190SLPC   C3121946   3.106   2.501   7.016 -0.6993 -0.3158 -0.1632
  190SLPC   O3221947   3.195   2.441   6.965 -0.5719  0.4821 -0.0437
  190SLPC   C3221948   3.089   2.508   7.168 -0.7468  0.0928  0.3132
  190SLPC   H2X21949   3.081   2.402   7.201 -0.9430 -0.2802 -0.8938
  190SLPC   H2Y21950   2.995   2.565   7.185  0.9934  3.1641  0.3237
  190SLPC   C2321951   3.547   2.833   6.968  0.1982 -0.6658  0.2387
  190SLPC   H3R21952   3.542   2.938   6.930  1.4124 -0.1690  1.3640
  190SLPC   H3S21953   3.654   2.804   6.968  0.2727 -0.6138 -2.1985
  190SLPC   C2421954   3.497   2.832   7.113 -0.0502  0.1102 -0.4678
  190SLPC   H4R21955   3.520   2.734   7.160 -1.2800  0.0791  0.1247
  190SLPC   H4S21956   3.387   2.850   7.109 -0.2115 -0.9001 -0.7766
  190SLPC   C2521957   3.578   2.941   7.186  0.6740  0.0501  0.6086
  190SLPC   H5R21958   3.560   3.036   7.133  0.9619 -0.8965 -1.2933
  190SLPC   H5S21959   3.687   2.924   7.173  0.2117 -2.4933 -0.5753
  190SLPC   C2621960   3.558   2.964   7.336 -0.0774 -0.0329 -0.3397
  190SLPC   H6R21961   3.453   2.990   7.362 -0.6779 -1.0965 -1.5887
  190SLPC   H6S21962   3.619   3.057   7.343  1.7392 -0.8127 -3.6492
  190SLPC   C2721963   3.612   2.858   7.431  0.2078  0.6153  0.0616
  190SLPC   H7R21964   3.719   2.855   7.399 -0.9498  1.9210 -4.4987
  190SLPC   H7S21965   3.564   2.759   7.413  1.9525 -0.6523  1.8100
  190SLPC   C2821966   3.603   2.899   7.579 -0.1761  0.4875  0.1319
  190SLPC   H8R21967   3.498   2.876   7.605  0.0322 -1.5358 -0.6383
  190SLPC   H8S21968   3.611   3.009   7.595 -1.7650  0.6064  0.3154
  190SLPC   C2921969   3.702   2.828   7.664  0.7902 -0.1327 -0.2062
  190SLPC   H9R21970   3.797   2.809   7.612  0.4477  0.3955 -1.0429
  190SLPC  C21021971   3.681   2.768   7.787 -0.5499  0.4224  0.3019
  190SLPC  H10R21972   3.766   2.725   7.841 -2.2890 -0.7771  2.2340
  190SLPC  C21121973   3.553   2.787   7.873 -0.3795  0.2796  0.6335
  190SLPC  H11R21974   3.485   2.865   7.832 -2.9955 -2.7294 -1.2836
  190SLPC  H11S21975   3.587   2.830   7.969 -2.5226  1.7279  0.8013
  190SLPC  C21221976   3.480   2.657   7.888  0.7752  1.2689  0.2965
  190SLPC  H12R21977   3.456   2.603   7.795 -2.4406  1.9103  0.6588
  190SLPC  C21321978   3.448   2.587   7.998 -0.4369 -0.1970 -1.0944
  190SLPC  H13R21979   3.410   2.485   7.986 -1.7745  0.2698 -0.9542
  190SLPC  C21421980   3.476   2.636   8.140 -0.0136 -0.1363  1.4967
  190SLPC  H14R21981   3.377   2.649   8.189 -0.9108 -0.5212 -0.1467
  190SLPC  H14S21982   3.529   2.734   8.145 -0.8669  0.2830  2.9221
  190SLPC  C21521983   3.559   2.531   8.218  0.2295 -0.2954 -0.6395
  190SLPC  H15R21984   3.561   2.574   8.320  1.9075 -1.3254 -0.1997
  190SLPC  H15S21985   3.662   2.536   8.179 -0.5582 -0.5600 -2.9218
  190SLPC  C21621986   3.519   2.387   8.221 -0.5972  0.6728 -0.9672
  190SLPC  H16R21987   3.519   2.356   8.115  3.6667 -1.6078 -0.5406
  190SLPC  H16S21988   3.421   2.365   8.269  0.5009 -0.3806  0.9343
  190SLPC  C21721989   3.632   2.303   8.290 -0.3777 -0.0855  0.1682
  190SLPC  H17R21990   3.725   2.338   8.241  0.7581  0.0232  2.2739
  190SLPC  H17S21991   3.619   2.201   8.248 -2.0201  0.7295 -1.4120
  190SLPC  C21821992   3.637   2.302   8.443  0.1120 -0.1529 -0.1002
  190SLPC  H18R21993   3.551   2.239   8.473 -0.6280  0.5047 -0.8111
  190SLPC  H18S21994   3.614   2.400   8.491 -0.7903 -0.6945  0.5987
  190SLPC  H18T21995   3.738   2.269   8.476  0.9164  1.4431 -0.8457
  190SLPC   C3321996   3.206   2.583   7.241  0.3244 -0.1164  0.5378
  190SLPC   H3X21997   3.221   2.683   7.195  1.7801 -0.1980  0.7996
  190SLPC   H3Y21998   3.297   2.519   7.241 -0.1428 -0.8161  1.8504
  190SLPC   C3421999   3.168   2.609   7.394 -0.0933 -0.0173  0.5918
  190SLPC   H4X22000   3.073   2.667   7.391  0.1177  0.2884 -0.8205
  190SLPC   H4Y22001   3.260   2.660   7.428  0.6428 -0.4556 -0.6955
  190SLPC   C3522002   3.143   2.481   7.473  0.9316  0.1293 -0.3837
  190SLPC   H5X22003   3.218   2.402   7.453 -0.3291 -1.2177  0.0331
  190SLPC   H5Y22004   3.047   2.443   7.433  0.6980  1.4682 -1.1323
  190SLPC   C3622005   3.143   2.491   7.625 -0.6578  0.1531 -0.7074
  190SLPC   H6X22006   3.055   2.554   7.650  0.8186  2.7570 -1.6220
  190SLPC   H6Y22007   3.231   2.550   7.659 -2.5238  3.3752 -0.9939
  190SLPC   C3722008   3.140   2.355   7.695  0.2461  0.2596 -0.1981
  190SLPC   H7X22009   3.222   2.291   7.655 -0.1922 -0.5620  0.2038
  190SLPC   H7Y22010   3.047   2.301   7.668  0.1294  0.7130 -0.7187
  190SLPC   C3822011   3.141   2.363   7.850 -0.3481  0.1539  0.6499
  190SLPC   H8X22012   3.046   2.406   7.888 -0.9200 -3.1822  3.5114
  190SLPC   H8Y22013   3.223   2.431   7.882  0.9013 -0.9241 -0.1875
  190SLPC   C3922014   3.156   2.225   7.923 -0.3973  0.1326  0.7785
  190SLPC   H9X22015   3.211   2.158   7.854  0.1115  2.4312 -1.1987
  190SLPC   H9Y22016   3.058   2.173   7.930 -0.5134  0.5059  2.3195
  190SLPC  C31022017   3.217   2.224   8.061  0.1417  0.4247 -0.2345
  190SLPC  H10X22018   3.310   2.285   8.067  1.2173 -1.0123  7.3737
  190SLPC  H10Y22019   3.241   2.121   8.094  0.5370  0.8827  0.9567
  190SLPC  C31122020   3.119   2.288   8.167  0.2829 -0.1572  0.2071
  190SLPC  H11X22021   3.018   2.248   8.142  0.3700 -0.3845  0.2159
  190SLPC  H11Y22022   3.118   2.398   8.150 -0.5419 -0.2858 -0.6886
  190SLPC  C31222023   3.142   2.262   8.319  0.6352  0.0066  0.6910
  190SLPC  H12X22024   3.201   2.346   8.360 -0.3695  0.8473  0.4351
  190SLPC  H12Y22025   3.184   2.159   8.329  0.6660 -0.0750 -0.2005
  190SLPC  C31322026   3.021   2.243   8.413  0.3892  0.0328 -0.1221
  190SLPC  H13X22027   3.060   2.220   8.514 -0.3554 -0.4347  0.0580
  190SLPC  H13Y22028   2.956   2.158   8.385  1.3043 -1.1695  1.2681
  190SLPC  C31422029   2.936   2.369   8.426  0.6004 -0.5294 -0.3983
  190SLPC  H14X22030   2.864   2.392   8.345  1.5065  2.2692 -0.5238
  190SLPC  H14Y22031   3.009   2.453   8.420  0.8111 -0.5898  0.9242
  190SLPC  C31522032   2.860   2.378   8.561 -0.3793 -0.3402  0.3015
  190SLPC  H15X22033   2.923   2.347   8.647 -0.6412 -0.1113  0.5765
  190SLPC  H15Y22034   2.778   2.303   8.550  0.2567 -0.8443 -1.4141
  190SLPC  C31622035   2.801   2.520   8.582 -0.5138  0.0463  0.0825
  190SLPC  H16X22036   2.737   2.556   8.499  2.3256  0.9182 -1.9038
  190SLPC  H16Y22037   2.882   2.596   8.587 -0.5541  0.0357  4.1803
  190SLPC  C31722038   2.730   2.536   8.718 -0.2708  0.3081 -0.3000
  190SLPC  H17X22039   2.800   2.528   8.804  2.5923 -2.1967 -2.6480
  190SLPC  H17Y22040   2.655   2.454   8.729  0.7682 -0.5563  0.6203
  190SLPC  C31822041   2.650   2.672   8.733 -0.2384  0.3353 -0.7104
  190SLPC  H18X22042   2.716   2.758   8.707  0.3031  0.4406  0.8862
  190SLPC  H18Y22043   2.629   2.690   8.841 -1.0138  2.2303 -1.1303
  190SLPC  H18Z22044   2.556   2.660   8.675 -0.9633  3.2243 -0.3300
  191SLPC     N22045   2.661   6.046   5.901 -0.7164 -0.1193 -0.3615
  191SLPC   C1322046   2.650   5.989   6.038  0.4294 -0.0830 -0.0241
  191SLPC  H13A22047   2.548   5.981   6.073  1.2089  0.2424  2.5818
  191SLPC  H13B22048   2.692   5.890   6.036 -1.0694 -0.7795  1.1770
  191SLPC  H13C22049   2.703   6.049   6.111 -1.5729  2.1927 -0.2983
  191SLPC   C1422050   2.587   6.182   5.919 -0.2831  0.3624  0.5281
  191SLPC  H14A22051   2.492   6.161   5.966 -1.9940 -0.4023 -2.9340
  191SLPC  H14B22052   2.646   6.255   5.972 -0.9359  0.1150  1.6228
  191SLPC  H14C22053   2.569   6.224   5.821  0.7025 -1.0904 -0.3116
  191SLPC   C1522054   2.582   5.959   5.812  0.6611 -0.2599 -0.7656
  191SLPC  H15A22055   2.487   5.936   5.859  0.1920  4.4173  1.1872
  191SLPC  H15B22056   2.559   6.007   5.718 -1.8456  2.2883  0.9811
  191SLPC  H15C22057   2.635   5.867   5.795 -0.1260 -1.1934  1.4494
  191SLPC   C1222058   2.807   6.065   5.854 -0.4946  0.0100 -0.2257
  191SLPC  H12A22059   2.852   6.149   5.905  1.7151 -0.9209 -0.4979
  191SLPC  H12B22060   2.806   6.099   5.752 -0.6192  1.7544  0.3378
  191SLPC   C1122061   2.904   5.948   5.881 -0.9455  0.7770  0.0535
  191SLPC  H11A22062   2.999   5.980   5.833 -1.3289  0.5915 -0.8446
  191SLPC  H11B22063   2.862   5.873   5.811 -1.0037 -0.1348  1.0539
  191SLPC     P22064   3.056   5.812   6.036  0.2859 -0.4325  0.1598
  191SLPC   O1322065   3.052   5.688   5.953 -0.0594  0.0080  0.2016
  191SLPC   O1422066   3.175   5.900   6.017  0.2852 -0.0828 -0.1314
  191SLPC   O1222067   2.926   5.902   6.018  0.6550  0.0402  0.7276
  191SLPC   O1122068   3.046   5.769   6.188 -0.1504  0.0531 -0.0409
  191SLPC    C122069   2.909   5.741   6.230 -0.2222  0.3209 -0.0814
  191SLPC    HA22070   2.830   5.819   6.219 -0.6878 -0.3452 -1.7615
  191SLPC    HB22071   2.885   5.650   6.171  0.4541  0.8199 -1.1606
  191SLPC    C222072   2.914   5.718   6.381 -0.3018 -0.6275 -0.8631
  191SLPC    HS22073   2.816   5.692   6.425  0.4982 -0.8012  0.8928
  191SLPC   O2122074   2.977   5.833   6.437  0.8266  0.3612  0.4925
  191SLPC   C2122075   2.902   5.901   6.517  0.5943  0.3327 -0.5662
  191SLPC   O2222076   2.783   5.882   6.546 -0.8942 -0.4179 -0.2009
  191SLPC   C2222077   2.968   6.021   6.567 -1.2251 -0.3835 -0.1796
  191SLPC   H2R22078   3.071   5.995   6.599 -1.0230  1.0394  0.3896
  191SLPC   H2S22079   2.996   6.087   6.482 -1.2682  0.4329  0.4307
  191SLPC    C322080   3.010   5.606   6.417  0.0398  0.4712  0.0704
  191SLPC    HX22081   3.107   5.624   6.366  0.2725  0.4554  0.4965
  191SLPC    HY22082   2.975   5.513   6.368  1.4942  0.8030 -1.6995
  191SLPC   O3122083   3.019   5.577   6.554 -0.5636 -0.1171 -0.1826
  191SLPC   C3122084   3.132   5.538   6.606 -0.6476 -0.2014  0.0863
  191SLPC   O3222085   3.232   5.516   6.534 -0.4035  0.2756 -0.6669
  191SLPC   C3222086   3.126   5.517   6.759 -0.1892  1.0938  0.0041
  191SLPC   H2X22087   3.022   5.489   6.785 -0.2485 -0.9753 -2.1336
  191SLPC   H2Y22088   3.155   5.612   6.810 -2.0042  1.9225 -0.4368
  191SLPC   C2322089   2.893   6.101   6.677  0.0970 -0.9649 -0.5837
  191SLPC   H3R22090   2.834   6.030   6.740 -1.4988  0.2407 -0.6665
  191SLPC   H3S22091   2.818   6.172   6.636 -1.3705 -1.6500  0.7596
  191SLPC   C2422092   2.992   6.166   6.767 -0.0579  0.0521  0.0164
  191SLPC   H4R22093   3.058   6.220   6.695  0.3921 -0.5100  0.0050
  191SLPC   H4S22094   3.042   6.081   6.819 -0.8779 -0.2695  0.2943
  191SLPC   C2522095   2.942   6.265   6.869 -0.1828  0.0509 -0.4298
  191SLPC   H5R22096   2.832   6.264   6.877 -0.1013 -2.2624  1.8179
  191SLPC   H5S22097   2.979   6.368   6.849  1.6200  0.4613  3.7693
  191SLPC   C2622098   2.988   6.229   7.007  0.0547 -0.3810 -0.5358
  191SLPC   H6R22099   3.098   6.213   7.005  0.0036 -1.4342  1.9991
  191SLPC   H6S22100   2.937   6.134   7.032 -1.5290  0.7764  0.8174
  191SLPC   C2722101   2.956   6.340   7.106 -0.3225 -0.1808 -0.2423
  191SLPC   H7R22102   2.847   6.342   7.129  0.0363  0.1773  1.6238
  191SLPC   H7S22103   2.984   6.436   7.058 -2.0735  0.3754 -0.2219
  191SLPC   C2822104   3.031   6.331   7.241 -0.8841  0.0022  0.4762
  191SLPC   H8R22105   3.130   6.377   7.218 -1.4628  0.2829 -1.6998
  191SLPC   H8S22106   3.039   6.224   7.270 -1.6605  0.6798  3.4315
  191SLPC   C2922107   2.958   6.413   7.344 -0.7294  0.1834 -0.7078
  191SLPC   H9R22108   2.945   6.519   7.315 -2.0964 -0.6204 -3.2902
  191SLPC  C21022109   2.914   6.375   7.469 -0.5986  0.3531 -0.2833
  191SLPC  H10R22110   2.872   6.457   7.529  0.8325  0.2750  0.8698
  191SLPC  C21122111   2.921   6.239   7.533 -0.6267  0.6716  0.4044
  191SLPC  H11R22112   2.975   6.166   7.469  0.2113  1.5060  0.1277
  191SLPC  H11S22113   2.811   6.224   7.539 -0.4555 -0.0642  1.9045
  191SLPC  C21222114   2.978   6.231   7.669  0.3107  0.0113 -0.5632
  191SLPC  H12R22115   3.083   6.263   7.672  0.0287  0.9966 -0.5913
  191SLPC  C21322116   2.917   6.188   7.780 -0.2713 -0.1617  0.2200
  191SLPC  H13R22117   2.969   6.207   7.875  1.5368 -0.9121 -0.5672
  191SLPC  C21422118   2.782   6.128   7.787 -0.1499 -0.3924  0.4573
  191SLPC  H14R22119   2.784   6.049   7.866 -0.1185 -0.5987  0.2507
  191SLPC  H14S22120   2.768   6.073   7.692 -0.4844 -1.4261  1.0766
  191SLPC  C21522121   2.670   6.219   7.810  0.5793 -0.5507  0.0937
  191SLPC  H15R22122   2.645   6.264   7.712  0.9797 -0.2614  0.1194
  191SLPC  H15S22123   2.689   6.297   7.888  1.0871 -2.2489  1.7456
  191SLPC  C21622124   2.536   6.155   7.858 -0.1706  0.1259  0.1884
  191SLPC  H16R22125   2.558   6.120   7.962 -0.4494  0.7680  0.4718
  191SLPC  H16S22126   2.514   6.063   7.801 -0.0556 -1.0144  1.8949
  191SLPC  C21722127   2.427   6.258   7.854 -0.4984 -0.0085 -0.4530
  191SLPC  H17R22128   2.407   6.302   7.754 -1.4516  2.7876  0.8798
  191SLPC  H17S22129   2.467   6.342   7.914  0.3688 -1.1206  0.5965
  191SLPC  C21822130   2.296   6.200   7.919 -0.3140 -1.3162 -0.5397
  191SLPC  H18R22131   2.262   6.114   7.858 -1.0716 -3.5349  2.7855
  191SLPC  H18S22132   2.211   6.271   7.927  0.6606 -0.0937 -0.6213
  191SLPC  H18T22133   2.317   6.159   8.020 -3.0488 -1.2602  0.1331
  191SLPC   C3322134   3.226   5.401   6.800 -0.7688 -0.0225  0.3290
  191SLPC   H3X22135   3.326   5.434   6.766 -0.2259 -0.2739  1.6047
  191SLPC   H3Y22136   3.187   5.308   6.752 -2.1996  1.1591 -0.8789
  191SLPC   C3422137   3.231   5.377   6.951  0.0970  0.2213 -0.3042
  191SLPC   H4X22138   3.142   5.318   6.978  0.8424 -2.4475 -3.1397
  191SLPC   H4Y22139   3.244   5.474   7.005  1.6318 -0.8759  1.3993
  191SLPC   C3522140   3.352   5.296   6.996 -0.5613  0.1114  0.4517
  191SLPC   H5X22141   3.438   5.366   7.010  0.0535 -0.7150  0.9046
  191SLPC   H5Y22142   3.376   5.222   6.918 -0.9532  0.7741 -0.3153
  191SLPC   C3622143   3.326   5.212   7.127  1.0949  0.3782 -0.0240
  191SLPC   H6X22144   3.399   5.129   7.140 -1.5266 -1.7546  2.3140
  191SLPC   H6Y22145   3.227   5.161   7.126  0.8558  0.8392 -0.0433
  191SLPC   C3722146   3.314   5.297   7.255  0.0127  0.4352  0.2704
  191SLPC   H7X22147   3.218   5.351   7.241 -1.8338 -3.1965 -2.8665
  191SLPC   H7Y22148   3.397   5.370   7.263 -0.7883  1.6795 -1.8642
  191SLPC   C3822149   3.320   5.206   7.386  0.4848  0.1629  0.3235
  191SLPC   H8X22150   3.418   5.153   7.385 -0.9245 -2.6137  0.7698
  191SLPC   H8Y22151   3.244   5.125   7.382  3.0864 -2.4344  0.3493
  191SLPC   C3922152   3.300   5.280   7.521  0.0805 -0.1640 -1.0192
  191SLPC   H9X22153   3.198   5.324   7.533 -0.9069 -2.0207 -2.0800
  191SLPC   H9Y22154   3.363   5.372   7.523 -0.4789  0.2167  0.0680
  191SLPC  C31022155   3.323   5.195   7.643  0.2828  0.2634 -0.6178
  191SLPC  H10X22156   3.423   5.146   7.643  0.5646  0.5490  2.7730
  191SLPC  H10Y22157   3.249   5.112   7.641 -1.1375  1.4456  0.4238
  191SLPC  C31122158   3.311   5.259   7.786  0.0342  0.5419 -0.0306
  191SLPC  H11X22159   3.342   5.189   7.867  1.3228  0.4228 -0.5947
  191SLPC  H11Y22160   3.206   5.285   7.809 -0.9536 -3.2448  0.5272
  191SLPC  C31222161   3.405   5.384   7.802 -0.5058  0.1110 -0.0162
  191SLPC  H12X22162   3.356   5.468   7.749  0.3452  0.0997 -0.8483
  191SLPC  H12Y22163   3.507   5.366   7.761  0.5351 -0.8186  2.7483
  191SLPC  C31322164   3.426   5.428   7.951 -0.1604  0.5516 -0.5752
  191SLPC  H13X22165   3.459   5.344   8.015  1.9823  1.9498  0.2545
  191SLPC  H13Y22166   3.328   5.454   7.998 -0.3885  1.4557 -1.4944
  191SLPC  C31422167   3.519   5.553   7.968 -0.1316 -0.4548  0.2977
  191SLPC  H14X22168   3.465   5.649   7.956  0.5050 -0.3758 -3.1598
  191SLPC  H14Y22169   3.605   5.549   7.898 -1.0848 -1.2251 -0.8875
  191SLPC  C31522170   3.591   5.545   8.108  0.2041  0.0812  0.2018
  191SLPC  H15X22171   3.639   5.644   8.119 -0.2028  0.5374 -1.8193
  191SLPC  H15Y22172   3.674   5.473   8.093  1.2167  1.1330  0.6647
  191SLPC  C31622173   3.503   5.505   8.229 -0.1431  0.4382  0.6525
  191SLPC  H16X22174   3.462   5.403   8.222 -0.4726  0.6391 -0.5765
  191SLPC  H16Y22175   3.415   5.573   8.238 -1.2508 -1.0830  1.8866
  191SLPC  C31722176   3.590   5.512   8.350 -0.3666  0.3868  0.3125
  191SLPC  H17X22177   3.692   5.472   8.331 -1.2618 -1.5547 -0.7347
  191SLPC  H17Y22178   3.540   5.451   8.429  0.9835 -0.8226  0.2744
  191SLPC  C31822179   3.589   5.650   8.415  0.0584  0.3009  0.4763
  191SLPC  H18X22180   3.506   5.718   8.387  0.8751  2.0069  2.0350
  191SLPC  H18Y22181   3.687   5.699   8.399  0.2274 -0.4685 -0.9675
  191SLPC  H18Z22182   3.586   5.640   8.526 -2.2790  0.4267  0.4811
  192SLPC     N22183   4.703   3.008   6.096  0.7584  0.1695 -0.3719
  192SLPC   C1322184   4.563   2.976   6.141  0.4670  0.0546 -0.1684
  192SLPC  H13A22185   4.510   2.930   6.060 -1.1414  1.9989 -0.2838
  192SLPC  H13B22186   4.567   2.910   6.227  1.0730  1.4331  0.8954
  192SLPC  H13C22187   4.505   3.060   6.176  0.4604 -0.2247  0.5161
  192SLPC   C1422188   4.688   3.085   5.966 -0.2553  1.4128  0.1877
  192SLPC  H14A22189   4.787   3.117   5.935  0.5836 -1.6707 -0.6781
  192SLPC  H14B22190   4.653   3.031   5.879  1.4291  1.3321 -0.4861
  192SLPC  H14C22191   4.630   3.174   5.985 -0.8112  1.1184 -0.1210
  192SLPC   C1522192   4.784   2.889   6.083 -0.3591 -0.4842 -0.4893
  192SLPC  H15A22193   4.738   2.826   6.009 -1.8054  1.0431 -0.9585
  192SLPC  H15B22194   4.887   2.910   6.059  0.2902 -2.1139  0.7207
  192SLPC  H15C22195   4.780   2.840   6.179  2.7722  0.3512  0.1660
  192SLPC   C1222196   4.753   3.103   6.201  0.1697  0.1097 -0.7748
  192SLPC  H12A22197   4.772   3.052   6.294 -1.1603  0.6012 -0.2179
  192SLPC  H12B22198   4.677   3.175   6.227 -0.1367 -0.2668 -0.6178
  192SLPC   C1122199   4.883   3.184   6.162 -0.1565  0.0095  0.1003
  192SLPC  H11A22200   4.898   3.261   6.242 -1.7816  0.9434 -0.4650
  192SLPC  H11B22201   4.859   3.246   6.074 -1.5323  1.3575  1.3655
  192SLPC     P22202   5.078   3.038   6.269  0.0516  0.1477  0.4025
  192SLPC   O1322203   5.041   2.894   6.287 -0.4197  0.1073 -0.1746
  192SLPC   O1422204   5.225   3.067   6.257  0.4113  0.4201  0.2049
  192SLPC   O1222205   5.002   3.102   6.140 -0.6398  0.0417  0.0232
  192SLPC   O1122206   5.012   3.125   6.380  0.0181  0.3195 -0.0626
  192SLPC    C122207   5.061   3.230   6.455 -0.5132 -0.4642 -0.5631
  192SLPC    HA22208   5.155   3.274   6.413 -1.3327  0.3610 -1.5791
  192SLPC    HB22209   4.987   3.312   6.450  2.2728  2.3456  0.6025
  192SLPC    C222210   5.082   3.183   6.601  0.5461  0.5720  0.5338
  192SLPC    HS22211   5.168   3.113   6.593 -1.1596 -1.6100  0.5068
  192SLPC   O2122212   4.955   3.130   6.655 -0.3210 -0.6530 -0.3881
  192SLPC   C2122213   4.940   2.992   6.645 -0.3954 -0.3935  0.1962
  192SLPC   O2222214   5.029   2.919   6.600  0.0317 -0.1122 -0.4451
  192SLPC   C2222215   4.814   2.957   6.730 -0.8444  0.5774  0.2564
  192SLPC   H2R22216   4.800   3.043   6.799  0.4206  1.3322 -0.3854
  192SLPC   H2S22217   4.737   2.948   6.651  0.4463  0.6770 -1.0665
  192SLPC    C322218   5.117   3.305   6.690 -0.4085  0.4111  0.1642
  192SLPC    HX22219   5.030   3.375   6.682 -0.4972  0.3057  0.2098
  192SLPC    HY22220   5.213   3.344   6.650 -0.4241  0.4886  0.2022
  192SLPC   O3122221   5.119   3.263   6.831  0.2251  0.2180 -0.5306
  192SLPC   C3122222   5.239   3.237   6.873 -0.0369  0.2921 -0.6829
  192SLPC   O3222223   5.340   3.233   6.805 -0.5482  0.1071 -0.1167
  192SLPC   C3222224   5.242   3.182   7.025 -0.7720 -0.1343  0.8958
  192SLPC   H2X22225   5.349   3.156   7.044 -0.5900 -0.9382 -0.9925
  192SLPC   H2Y22226   5.184   3.088   7.014 -1.2543  0.3532 -1.1664
  192SLPC   C2322227   4.825   2.822   6.806  0.4371 -0.0386  0.5325
  192SLPC   H3R22228   4.867   2.744   6.740  1.0019 -0.7987  1.7485
  192SLPC   H3S22229   4.720   2.787   6.817  0.4546 -0.4071 -0.4689
  192SLPC   C2422230   4.909   2.828   6.934 -0.2024 -0.9401  0.0177
  192SLPC   H4R22231   4.858   2.905   6.995 -2.7126 -1.4371 -1.3376
  192SLPC   H4S22232   5.010   2.868   6.908  0.5904 -0.6710  3.1157
  192SLPC   C2522233   4.915   2.701   7.014 -0.0487 -0.3390 -0.0641
  192SLPC   H5R22234   4.963   2.621   6.953  2.6673  2.2205 -1.5329
  192SLPC   H5S22235   4.810   2.669   7.032 -0.3106 -0.0697 -1.0509
  192SLPC   C2622236   5.001   2.724   7.133  0.4803 -0.3508 -0.0065
  192SLPC   H6R22237   4.946   2.814   7.167  1.5633  0.5931 -0.6766
  192SLPC   H6S22238   5.110   2.742   7.121  1.0418 -2.6752  1.2121
  192SLPC   C2722239   4.984   2.616   7.245 -0.5705 -0.1857  0.5045
  192SLPC   H7R22240   5.088   2.591   7.274 -0.9280 -0.4223  1.6259
  192SLPC   H7S22241   4.938   2.528   7.195 -2.4662  0.3668  1.1633
  192SLPC   C2822242   4.907   2.663   7.366 -0.1602 -0.2706  0.2930
  192SLPC   H8R22243   4.905   2.587   7.446 -0.1725 -0.9380 -0.3290
  192SLPC   H8S22244   4.802   2.669   7.329  0.2554 -3.5176 -1.8134
  192SLPC   C2922245   4.944   2.795   7.434 -0.1011 -0.8119 -0.0256
  192SLPC   H9R22246   4.897   2.886   7.393 -0.8833 -0.8613  0.7151
  192SLPC  C21022247   5.036   2.814   7.532  0.5468  0.0375  0.8976
  192SLPC  H10R22248   5.057   2.917   7.566  0.5592  0.0326  0.9044
  192SLPC  C21122249   5.119   2.707   7.594 -0.4028  0.9118 -0.1888
  192SLPC  H11R22250   5.225   2.701   7.559  0.1802 -0.2257  1.6196
  192SLPC  H11S22251   5.083   2.608   7.558 -0.8927  1.2380 -0.6033
  192SLPC  C21222252   5.124   2.722   7.742 -0.4715  0.7517 -0.2496
  192SLPC  H12R22253   5.207   2.778   7.787 -0.0169  1.1505 -1.5577
  192SLPC  C21322254   5.026   2.666   7.821  0.0001 -0.2922 -0.1555
  192SLPC  H13R22255   5.029   2.678   7.930 -1.5944  1.0847 -0.2218
  192SLPC  C21422256   4.900   2.590   7.779 -0.5219 -0.3077  0.3890
  192SLPC  H14R22257   4.910   2.486   7.817  0.2829 -0.4804 -0.2782
  192SLPC  H14S22258   4.901   2.569   7.670  0.5475 -2.2739  0.7282
  192SLPC  C21522259   4.758   2.636   7.821  0.2974  0.0276 -0.4135
  192SLPC  H15R22260   4.694   2.604   7.737  1.4264 -1.1745 -0.8391
  192SLPC  H15S22261   4.760   2.747   7.815 -1.7718  0.1625  0.4525
  192SLPC  C21622262   4.721   2.603   7.965 -0.5094 -0.1706  0.0057
  192SLPC  H16R22263   4.781   2.663   8.036  1.0406 -2.4350  0.7354
  192SLPC  H16S22264   4.749   2.497   7.987 -1.3080 -0.4808 -0.4400
  192SLPC  C21722265   4.570   2.608   8.002  0.2233  0.2536  0.7905
  192SLPC  H17R22266   4.521   2.693   7.949 -1.4977 -0.8793  0.4794
  192SLPC  H17S22267   4.527   2.512   7.968  1.2980 -0.4834  1.4609
  192SLPC  C21822268   4.560   2.605   8.157  0.6004 -0.0797  0.9269
  192SLPC  H18R22269   4.451   2.597   8.175  0.0274 -0.7577 -2.2536
  192SLPC  H18S22270   4.596   2.702   8.196 -0.8544  1.3017 -0.9962
  192SLPC  H18T22271   4.624   2.521   8.193  1.3529  0.7488  1.5501
  192SLPC   C3322272   5.190   3.281   7.126 -0.0623  0.2411 -0.1350
  192SLPC   H3X22273   5.083   3.306   7.115  0.1064  0.7557 -0.6203
  192SLPC   H3Y22274   5.257   3.369   7.120 -0.6679  0.6467 -1.1171
  192SLPC   C3422275   5.216   3.238   7.277 -0.0654  0.1321  0.0649
  192SLPC   H4X22276   5.326   3.242   7.294 -0.1451 -1.2779  0.9974
  192SLPC   H4Y22277   5.181   3.135   7.297 -2.9778  0.8959 -0.6476
  192SLPC   C3522278   5.137   3.342   7.365  0.6395 -0.2800 -0.3585
  192SLPC   H5X22279   5.027   3.328   7.355  0.7673  0.1526 -2.9527
  192SLPC   H5Y22280   5.170   3.443   7.333  4.2796 -1.5940 -1.2173
  192SLPC   C3622281   5.173   3.331   7.513  0.4924 -1.0738  0.4755
  192SLPC   H6X22282   5.102   3.391   7.575  1.5761  0.2449  0.4914
  192SLPC   H6Y22283   5.271   3.384   7.509  0.2804 -0.2056  3.7222
  192SLPC   C3722284   5.180   3.190   7.584  0.2159 -0.3405 -0.9643
  192SLPC   H7X22285   5.277   3.140   7.559  0.7217 -0.3853  0.9656
  192SLPC   H7Y22286   5.094   3.133   7.544 -0.7222  0.0527  0.4280
  192SLPC   C3822287   5.164   3.205   7.733 -0.9368 -0.1102 -0.6032
  192SLPC   H8X22288   5.102   3.294   7.755  0.7749  1.0304 -0.1295
  192SLPC   H8Y22289   5.259   3.223   7.789 -1.8460 -0.1209  0.9981
  192SLPC   C3922290   5.095   3.077   7.798  0.5390 -0.7884  0.2252
  192SLPC   H9X22291   5.161   2.988   7.792 -0.3427 -1.3739 -1.1821
  192SLPC   H9Y22292   4.997   3.055   7.750  1.7256 -2.1667 -1.6962
  192SLPC  C31022293   5.070   3.107   7.947  0.3530 -0.2584  0.3760
  192SLPC  H10X22294   5.005   3.197   7.948 -1.1338 -1.2021 -1.7868
  192SLPC  H10Y22295   5.167   3.137   7.992  0.8053  0.7094 -1.1651
  192SLPC  C31122296   4.998   2.998   8.018 -0.6204 -0.2065 -0.0021
  192SLPC  H11X22297   5.063   2.907   8.012  0.7523  0.8158 -1.2554
  192SLPC  H11Y22298   4.895   2.976   7.983 -1.3720 -0.2418  2.0721
  192SLPC  C31222299   4.985   3.050   8.166 -0.5631 -0.7380 -0.0509
  192SLPC  H12X22300   5.088   3.072   8.202 -0.6776 -0.4126  0.0789
  192SLPC  H12Y22301   4.950   2.961   8.223 -0.5679 -0.0669  1.0253
  192SLPC  C31322302   4.890   3.168   8.187 -0.7904  0.2212  0.1126
  192SLPC  H13X22303   4.802   3.136   8.128  0.2969  0.2414 -1.5878
  192SLPC  H13Y22304   4.931   3.263   8.146  0.1094  1.0201  2.6458
  192SLPC  C31422305   4.858   3.176   8.336 -0.1176 -0.5954 -0.4001
  192SLPC  H14X22306   4.820   3.077   8.370 -0.2884 -0.0683  0.9733
  192SLPC  H14Y22307   4.789   3.261   8.355 -0.8873 -0.8218 -2.0077
  192SLPC  C31522308   4.983   3.193   8.429  0.0297 -0.1366  0.0628
  192SLPC  H15X22309   5.047   3.272   8.383 -0.2967  1.0464  1.5386
  192SLPC  H15Y22310   5.035   3.095   8.425  0.5955  0.1701 -0.3025
  192SLPC  C31622311   4.948   3.234   8.573  0.4789  0.8859 -0.2292
  192SLPC  H16X22312   4.868   3.164   8.604 -0.7163  1.3349 -2.1268
  192SLPC  H16Y22313   4.909   3.338   8.573  1.2665  1.2093 -1.7546
  192SLPC  C31722314   5.066   3.226   8.671 -0.0691 -0.4126  0.3206
  192SLPC  H17X22315   5.154   3.282   8.633 -1.2977  0.6229 -1.1487
  192SLPC  H17Y22316   5.096   3.119   8.681 -0.2227 -0.7433 -2.1289
  192SLPC  C31822317   5.021   3.266   8.815 -0.4877  0.0191 -1.2889
  192SLPC  H18X22318   4.952   3.353   8.815  0.0783  0.5296  0.8518
  192SLPC  H18Y22319   5.114   3.285   8.872  1.0347  1.9673 -4.2278
  192SLPC  H18Z22320   4.962   3.180   8.855  0.8888 -0.3583  0.0278
  193SOD    SOD22321   3.019   0.272  11.165 -0.0473 -0.2854 -0.0840
  194SOD    SOD22322   2.207   5.340   4.099  0.0440  0.0984 -0.2014
  195SOD    SOD22323   5.818   0.172  11.425  0.7351  0.0557  0.1734
  196SOD    SOD22324   0.286   5.220   6.436  0.5213 -0.3004  0.0500
  197SOD    SOD22325   0.406   1.133   1.959 -0.0348 -0.3857  0.1747
  198SOD    SOD22326   5.256   1.496  15.524  0.1123 -0.2921  0.8601
  199SOD    SOD22327   1.985   2.622  15.288 -0.4121 -0.2377  0.0182
  200SOD    SOD22328   2.083   6.786  14.168 -0.0657  0.2171 -0.4132
  201SOD    SOD22329   1.161   1.069  14.327 -0.4707  0.1681 -0.0543
  202SOD    SOD22330   4.281   6.358  16.640  0.2767  0.6640  0.2461
  203SOD    SOD22331   2.560   4.182  16.468 -0.9697 -0.6260  0.3922
  204SOD    SOD22332   5.701   5.374   3.945 -0.3271 -0.6319 -0.2399
  205SOD    SOD22333   3.230   0.266  17.053  0.4395  0.0565  0.1036
  206SOD    SOD22334   3.272   3.245  10.866 -0.1143 -0.1833  0.5522
  207SOD    SOD22335   3.813   3.782  12.351  0.7939 -0.2983 -0.3202
  208SOD    SOD22336   1.379   0.983  11.762  0.1186 -0.4442 -0.0655
  209SOD    SOD22337   0.612   6.401  16.612 -0.3014 -0.1633 -0.0850
  210SOD    SOD22338   4.158   2.102   1.628  0.4122 -0.6205  0.2877
  211SOD    SOD22339   2.103   5.107   0.330 -0.0567  0.3272 -0.3283
  212SOD    SOD22340   4.518   0.377  13.628 -0.1802  0.1975 -0.2439
  213SOD    SOD22341   4.949   1.935   2.684  0.5729 -0.0980 -0.0409
  214SOD    SOD22342   0.794   0.518   6.118  0.0977 -0.1523 -0.2432
  215SOD    SOD22343   1.427   3.415  12.423 -0.1489  0.0777  0.5384
  216SOD    SOD22344   6.313   4.062   5.325  0.3238 -0.2502  0.2181
  217SOD    SOD22345   1.756   3.891   6.421 -0.2877 -0.0459  0.7755
  218SOD    SOD22346   0.160   3.792  13.651 -0.4422 -0.1656  0.3254
  219SOD    SOD22347   3.423   4.781  10.550 -0.6553 -0.5569 -0.3145
  220SOD    SOD22348   5.958   6.230   5.616 -0.3152 -0.5117  0.6429
  221SOD    SOD22349   5.818   5.396  15.059 -0.6485 -0.4759 -0.0170
  222SOD    SOD22350   4.170   6.199   5.107 -0.2919 -0.1095  0.5653
  223SOD    SOD22351   6.714   1.877   5.338  0.0350  0.4546  0.4003
  224SOD    SOD22352   5.834   0.729   0.531  0.0934 -0.6751 -0.6640
  225SOD    SOD22353   6.058   2.486   2.566  0.3456  0.4807 -0.2666
  226SOD    SOD22354   5.759   3.236  11.064 -0.2936 -0.2556  0.5093
  227SOD    SOD22355   0.034   2.274   2.182 -0.3803 -0.0907 -0.2927
  228SOD    SOD22356   0.012   4.284   0.185 -0.3989 -0.3992  0.0365
  229SOD    SOD22357   1.631   3.095   2.884 -0.0056  0.1881 -0.1835
  230SOD    SOD22358   1.699   0.567   0.531  0.0751  0.5221 -0.2869
  231SOD    SOD22359   2.878   6.122   5.093 -0.7021  0.3656  0.0066
  232SOD    SOD22360   0.249   3.123   2.883 -0.1381  0.1760  0.3350
  233SOD    SOD22361   1.697   2.663  12.205 -0.1736 -0.4019 -0.0735
  234SOD    SOD22362   3.798   2.899   2.849  0.2123 -0.1274 -0.2954
  235SOD    SOD22363   0.304   2.761   5.455 -0.2901  0.4519  0.0825
  236SOD    SOD22364   2.205   1.304   0.732  0.3070  0.8272 -0.1365
  237SOD    SOD22365   6.113   4.084  16.634  0.3134  0.4561 -0.0916
  238SOD    SOD22366   5.881   2.915  13.842  0.5204  0.2649 -0.0496
  239SOD    SOD22367   0.139   3.880   4.981 -0.1048 -0.0906 -0.5217
  240SOD    SOD22368   0.841   0.183  10.624  0.8462  0.1361  0.2447
  241SOD    SOD22369   4.698   5.087  15.735  0.0241  0.3257  0.1730
  242SOD    SOD22370   6.472   4.936   1.974 -0.0917  0.8662  0.0287
  243SOD    SOD22371   3.571   6.788   3.327 -0.2685  0.1708  0.2432
  244SOD    SOD22372   5.180   2.858  12.566  0.0109 -0.6835  0.0251
  245SOD    SOD22373   2.382   6.836   4.707 -0.7558  0.4146 -0.6975
  246SOD    SOD22374   2.524   6.378   1.783 -0.1361  0.0269  0.1869
  247SOD    SOD22375   1.183   3.939   3.643 -0.1301  0.6109  0.0374
  248SOD    SOD22376   5.800   3.218   1.994  0.0173 -0.4041 -0.3035
  249SOD    SOD22377   5.556   5.901   5.700  0.0869  0.3425 -0.2649
  250SOD    SOD22378   1.739   5.814  11.110  0.0209  0.0930  0.0417
  251SOD    SOD22379   2.587   4.723   2.935  0.0954  0.1467  0.2273
  252SOD    SOD22380   2.195   4.702   1.936  0.0103  0.1380  0.2463
  253SOD    SOD22381   4.961   5.729  10.756 -0.1553 -0.0023 -0.0569
  254SOD    SOD22382   5.817   1.906  14.995  0.2895  0.1964 -0.5298
  255SOD    SOD22383   4.618   4.876  15.229 -0.1680  0.1168 -0.4767
  256SOD    SOD22384   2.678   6.045  10.370 -0.3635 -0.4730  0.2189
  257SOD    SOD22385   2.675   1.984  16.901 -0.1169 -0.0943  0.2801
  258SOD    SOD22386   2.537   5.676   2.982 -0.1319  0.0902  0.1406
  259SOD    SOD22387   1.488   2.058   5.389  0.1062  0.1666 -0.2783
  260SOD    SOD22388   6.067   5.889   3.595 -0.6504  0.2186  0.0855
  261SOD    SOD22389   6.189   6.204  10.934  0.7030  0.2944  0.3661
  262SOD    SOD22390   0.485   3.199   6.702  0.4453 -0.1465  0.0425
  263SOD    SOD22391   4.692   2.863   5.261  0.1124 -0.0634  0.0074
  264SOD    SOD22392   6.367   0.534  11.392 -0.3625 -0.0094  0.5584
  265SOD    SOD22393   3.310   6.621   5.716  0.2090 -0.0434 -0.4340
  266CLA    CLA22394   0.738   1.633  12.494  0.2581  0.1664  0.0373
  267CLA    CLA22395   5.185   5.165   4.533  0.1946 -0.3879 -0.2181
  268CLA    CLA22396   5.498   2.154  16.141 -0.2969 -0.0166  0.2033
  269CLA    CLA22397   5.869   1.645   4.519 -0.1307 -0.0822 -0.1893
  270CLA    CLA22398   5.131   2.339   4.558 -0.0154  0.1898  0.1043
  271CLA    CLA22399   2.258   4.601  13.851 -0.0409 -0.3374  1.0194
  272CLA    CLA22400   6.161   6.127   2.766  0.0181 -0.7055  0.0983
  273CLA    CLA22401   1.244   2.908   3.359 -0.3828  0.2555  0.0439
  274CLA    CLA22402   2.952   4.958   4.294  0.0181  0.0444  0.1975
  275CLA    CLA22403   1.246   3.293   1.106  0.0377 -0.2595  0.2299
  276CLA    CLA22404   6.112   1.227   3.928 -0.0903 -0.1111 -0.2457
  277CLA    CLA22405   4.605   1.856   1.784 -0.4849 -0.0512 -0.0571
  278CLA    CLA22406   4.753   1.968   2.506 -0.1744 -0.1356  0.1816
  279CLA    CLA22407   4.354   2.827   2.286 -0.0718  0.1391  0.4445
  280CLA    CLA22408   2.819   2.263   4.491  0.4783 -0.7754 -0.0652
  281CLA    CLA22409   6.542   4.083   5.192  0.0896 -0.0339 -0.0869
  282CLA    CLA22410   1.284   6.753  14.825 -0.1542  0.3106 -0.2132
  283CLA    CLA22411   2.876   1.873   0.334 -0.7197  0.1026  0.0465
  284CLA    CLA22412   1.975   5.562  13.832 -0.0058 -0.0461  0.1408
  285CLA    CLA22413   5.687   3.409   3.817 -0.3021 -0.3565 -0.4784
  286CLA    CLA22414   6.237   2.124  14.855 -0.2018 -0.3002 -0.0092
  287CLA    CLA22415   5.497   0.517  13.510  0.0297  0.2833 -0.0951
  288CLA    CLA22416   4.938   2.934  12.486 -0.4061  0.3432 -0.3379
  289CLA    CLA22417   6.428   2.767  16.197 -0.3340 -0.0706  0.1640
  290CLA    CLA22418   5.936   0.674   1.703  0.4470  0.2966  0.1538
  291CLA    CLA22419   1.282   1.451  14.212 -0.1304 -0.0168  0.1210
  292CLA    CLA22420   0.899   0.983   1.717  0.1637  0.1286  0.0399
  293CLA    CLA22421   2.679   2.220  14.474  0.1087 -0.0251  0.1128
  294CLA    CLA22422   1.324   3.133  16.049  0.1637 -0.0576  0.1457
  295CLA    CLA22423   2.007   4.428   2.594  0.1928  0.1964  0.1142
  296CLA    CLA22424   0.120   1.675   1.377 -0.0270 -0.4893 -0.2425
  297CLA    CLA22425   3.719   1.316  16.184 -0.5093 -0.1636 -0.1061
  298CLA    CLA22426   0.039   4.548  15.712 -0.5028  0.0253 -0.0742
  299CLA    CLA22427   2.336   4.081  16.567  0.0281  0.0919  0.0151
  300CLA    CLA22428   0.487   5.279  16.497 -0.1548  0.0956 -0.0170
  301CLA    CLA22429   6.535   1.147  12.179  0.2877  0.2046  0.1194
  302CLA    CLA22430   3.790   5.536   3.298  0.1445 -0.0478 -0.1813
  303CLA    CLA22431   1.852   1.581   1.935  0.0120  0.2208 -0.1725
  304CLA    CLA22432   4.177   6.258   3.312  0.1179 -0.0322  0.0943
  305CLA    CLA22433   6.506   2.630   2.239  0.2194 -0.0713  0.0652
  306CLA    CLA22434   3.233   5.813   0.698 -0.0105 -0.1221 -0.4284
  307CLA    CLA22435   6.727   4.094   2.544 -0.1695 -0.3697 -0.1962
  308CLA    CLA22436   4.062   1.724  14.201  0.1207  0.1879 -0.1279
  309CLA    CLA22437   0.256   4.280  16.882 -0.2332 -0.1790 -0.1133
  310CLA    CLA22438   1.982   4.032  12.204  0.0359  0.5108 -0.2109
  311CLA    CLA22439   4.341   0.408   3.856  0.1141 -0.3076 -0.2235
  312CLA    CLA22440   4.498   2.828  13.464  0.0643 -0.1501  0.2047
  313CLA    CLA22441   0.519   6.593   3.937  0.2032  0.0195  0.5422
  314CLA    CLA22442   0.939   4.340   3.692 -0.1098  0.0599 -0.1777
  315CLA    CLA22443   1.135   0.040  15.806 -0.4947  0.5418 -0.0280
  316CLA    CLA22444   1.436   6.359  16.889 -0.0098 -0.5875 -0.3270
  317CLA    CLA22445   6.559   5.452   1.213 -0.5953 -0.1382  0.6187
  318CLA    CLA22446   4.197   0.675  15.885  0.3567  0.2427  0.2058
  319TIP3   OH222447   3.371   2.666  15.408 -0.4369 -0.4276 -0.3469
  319TIP3    H122448   3.415   2.626  15.333 -1.4565 -1.2145 -0.5581
  319TIP3    H222449   3.437   2.666  15.478  0.5796  0.4813 -1.2692
  320TIP3   OH222450   5.630   0.599   4.418  0.3589 -0.1763 -0.2670
  320TIP3    H122451   5.626   0.636   4.506  1.5924 -2.1611  0.7064
  320TIP3    H222452   5.651   0.506   4.432 -3.4312 -1.5806 -2.4971
  321TIP3   OH222453   4.155   4.589  16.015  0.1513  0.0126  0.5706
  321TIP3    H122454   4.113   4.587  15.929 -0.1409  1.5591  0.6465
  321TIP3    H222455   4.158   4.498  16.042 -3.4410 -0.2247  0.6684
  322TIP3   OH222456   2.480   1.211  15.111 -0.0734  0.0693 -0.0124
  322TIP3    H122457   2.479   1.255  15.026  1.3399 -0.3657 -0.2730
  322TIP3    H222458   2.406   1.151  15.107 -2.0492  2.3108  0.3394
  323TIP3   OH222459   5.179   2.803  16.663 -0.0241 -0.2037  0.1716
  323TIP3    H122460   5.214   2.713  16.663  0.2839 -0.1364 -1.8709
  323TIP3    H222461   5.136   2.811  16.578  0.8239  1.9034 -0.1012
  324TIP3   OH222462   0.350   0.329  16.686 -0.1699  0.5668  0.4104
  324TIP3    H122463   0.380   0.380  16.610  0.7927 -0.3963  0.1098
  324TIP3    H222464   0.255   0.324  16.675 -0.2786  2.1132  0.3580
  325TIP3   OH222465   4.378   6.606   0.976  0.1628  0.6330  0.6043
  325TIP3    H122466   4.298   6.558   0.996  0.6798  0.2858  1.9355
  325TIP3    H222467   4.448   6.541   0.983  0.6037  0.9993 -0.2353
  326TIP3   OH222468   3.870   0.556  15.588  0.4487  0.1759  0.7718
  326TIP3    H122469   3.894   0.536  15.679  0.5577  2.0919  1.1970
  326TIP3    H222470   3.944   0.605  15.554  0.0901  0.1028 -0.1405
  327TIP3   OH222471   2.185   6.381   5.098 -0.2407  0.2701  0.4497
  327TIP3    H122472   2.105   6.425   5.125 -0.0293  0.4582  0.7758
  327TIP3    H222473   2.254   6.446   5.111 -0.0739  0.2041 -0.1027
  328TIP3   OH222474   3.209   3.748   1.918 -0.3047  0.0880 -0.3828
  328TIP3    H122475   3.252   3.698   1.848 -2.5463 -1.9033 -0.4833
  328TIP3    H222476   3.119   3.758   1.889 -0.8036  1.0433  1.3219
  329TIP3   OH222477   5.000   3.600  10.783  0.5676  0.5768 -0.3756
  329TIP3    H122478   5.031   3.522  10.736 -0.2121  0.8705 -1.4164
  329TIP3    H222479   5.044   3.673  10.740  0.1978  0.8206 -0.3447
  330TIP3   OH222480   2.117   1.462  14.045  0.1059 -0.0438 -0.2015
  330TIP3    H122481   2.132   1.409  13.968 -1.2171 -1.4570  0.4675
  330TIP3    H222482   2.069   1.539  14.013  0.6667  0.0068 -0.9398
  331TIP3   OH222483   6.799   3.854   1.057  0.3354 -0.1579  0.5126
  331TIP3    H122484   6.725   3.797   1.076  0.8136 -0.6207  1.0039
  331TIP3    H222485   6.784   3.931   1.112  0.2534 -0.2741  0.6534
  332TIP3   OH222486   4.771   0.628   3.243 -0.0253 -0.1341 -0.1050
  332TIP3    H122487   4.729   0.702   3.200  1.1209 -0.0635 -1.1777
  332TIP3    H222488   4.773   0.559   3.177  2.8971  0.3871 -0.7214
  333TIP3   OH222489   6.012   0.166   3.089 -0.1005 -0.1151  0.3199
  333TIP3    H122490   6.034   0.109   3.015  0.1734  2.4366 -1.7347
  333TIP3    H222491   6.096   0.203   3.116 -0.4870  1.0017  0.0622
  334TIP3   OH222492   1.547   1.696   0.252 -0.3216 -0.1045  0.2193
  334TIP3    H122493   1.464   1.651   0.266 -1.2349  1.2031 -0.7691
  334TIP3    H222494   1.556   1.700   0.157  1.7466 -1.7199  0.2788
  335TIP3   OH222495   4.462   1.405  15.825 -0.9376 -0.2404  0.0197
  335TIP3    H122496   4.493   1.384  15.913 -1.1777  1.0270  0.4358
  335TIP3    H222497   4.367   1.411  15.833 -0.8227  2.8241  0.4441
  336TIP3   OH222498   4.739   6.376   1.628  0.0018 -0.5905  0.2343
  336TIP3    H122499   4.823   6.406   1.592 -0.3921  0.6494  0.3089
  336TIP3    H222500   4.676   6.442   1.602 -0.5836 -0.4230  1.9265
  337TIP3   OH222501   3.204   0.720   0.502  0.9020 -0.2001 -0.3035
  337TIP3    H122502   3.178   0.725   0.410  0.9588 -0.4900 -0.3356
  337TIP3    H222503   3.129   0.754   0.550 -0.8967 -3.8365 -0.1764
  338TIP3   OH222504   5.344   0.156  10.818 -0.1942  0.1876 -0.3523
  338TIP3    H122505   5.408   0.114  10.875 -0.8068 -0.8334 -0.3929
  338TIP3    H222506   5.356   0.250  10.832  1.9526  0.0693 -1.0435
  339TIP3   OH222507   2.018   6.019  10.292 -0.0088 -0.1951 -0.2645
  339TIP3    H122508   1.974   6.073  10.227 -1.2032 -0.8070  0.0079
  339TIP3    H222509   1.951   6.002  10.359  1.0542  0.0363  0.9019
  340TIP3   OH222510   1.258   1.643   0.298  0.5256  0.0069 -0.4823
  340TIP3    H122511   1.181   1.588   0.308  0.0043  1.0515  2.1184
  340TIP3    H222512   1.226   1.733   0.308  2.2886  0.4023  3.7977
  341TIP3   OH222513   3.873   0.682  16.542  0.0909 -0.1039 -0.2323
  341TIP3    H122514   3.870   0.773  16.511 -0.9070  0.0448  0.2802
  341TIP3    H222515   3.876   0.630  16.461 -0.7605  0.3387 -0.5595
  342TIP3   OH222516   0.098   2.925  12.239 -0.6783  0.4991  0.1349
  342TIP3    H122517   0.091   2.830  12.237 -3.2640  0.6389 -0.8263
  342TIP3    H222518   0.080   2.949  12.330  0.0622  0.0840  0.3972
  343TIP3   OH222519   5.519   2.066  14.148  0.2999  0.6549  0.1858
  343TIP3    H122520   5.436   2.066  14.100 -1.1108  1.6024  2.4640
  343TIP3    H222521   5.556   2.153  14.132  1.2004  0.0322 -1.3022
  344TIP3   OH222522   3.822   5.208  13.215 -0.0470  0.2702  0.3112
  344TIP3    H122523   3.838   5.121  13.252  1.7043  0.0979 -0.7273
  344TIP3    H222524   3.876   5.210  13.136 -1.9589  1.4249 -1.0279
  345TIP3   OH222525   1.081   2.624   2.342  0.0582  0.6064  0.2614
  345TIP3    H122526   0.990   2.655   2.341  0.2112  1.2549  2.3683
  345TIP3    H222527   1.076   2.535   2.376  0.2152  0.6486  0.3947
  346TIP3   OH222528   1.194   5.003  16.796 -0.1634 -0.2134  0.0813
  346TIP3    H122529   1.134   4.943  16.840 -0.3850 -0.4144 -0.4837
  346TIP3    H222530   1.267   5.013  16.857  0.5795 -2.2199 -0.3999
  347TIP3   OH222531   4.180   3.123  13.828  0.0626  0.4926  0.4618
  347TIP3    H122532   4.264   3.136  13.783 -0.0517  0.7245  0.3163
  347TIP3    H222533   4.168   3.203  13.880 -0.6831  1.0305 -0.5050
  348TIP3   OH222534   0.519   0.425   4.382 -0.1578 -0.6471 -0.8737
  348TIP3    H122535   0.516   0.336   4.349 -0.1233 -0.7098 -0.7088
  348TIP3    H222536   0.491   0.418   4.473 -0.9803 -0.3733 -1.0932
  349TIP3   OH222537   1.414   5.276  14.039  0.0944  0.2522  0.2018
  349TIP3    H122538   1.451   5.274  14.127  0.8732  0.6789 -0.1020
  349TIP3    H222539   1.337   5.332  14.047 -0.1558 -0.1616  0.7245
  350TIP3   OH222540   2.588   1.816  11.264 -0.6781 -0.0319  0.0059
  350TIP3    H122541   2.628   1.791  11.347  1.0370 -1.6826 -1.2308
  350TIP3    H222542   2.620   1.905  11.248  0.2470 -0.2892  0.3821
  351TIP3   OH222543   5.638   0.087   4.052  0.1232 -0.1156 -0.1949
  351TIP3    H122544   5.647  -0.000   4.091 -1.6377 -1.2350 -2.1291
  351TIP3    H222545   5.725   0.105   4.015  0.1267 -1.7118 -1.0460
  352TIP3   OH222546   4.399   4.285  10.195 -0.1678 -0.5227 -0.3899
  352TIP3    H122547   4.493   4.296  10.208 -0.2346  0.6125 -0.7885
  352TIP3    H222548   4.361   4.294  10.282  0.0329 -0.3730 -0.3177
  353TIP3   OH222549   3.020   3.936  12.999 -0.8419  0.2238 -0.3636
  353TIP3    H122550   3.009   3.946  12.904 -0.1730 -3.7366 -1.0252
  353TIP3    H222551   2.945   3.983  13.036 -1.4756  1.3785 -2.8636
  354TIP3   OH222552   5.249   2.241   2.124  0.7210  0.0641 -0.1157
  354TIP3    H122553   5.231   2.271   2.035 -2.4357 -0.3997  0.2374
  354TIP3    H222554   5.314   2.171   2.114 -1.6501 -2.0200 -2.5239
  355TIP3   OH222555   4.156   1.550   2.324 -0.2605  0.3610 -0.0513
  355TIP3    H122556   4.238   1.597   2.337 -0.0788  0.0960 -0.2270
  355TIP3    H222557   4.141   1.553   2.229  0.1485 -0.5878 -0.1550
  356TIP3   OH222558   0.967   4.808  16.876 -0.0440  0.2912  0.1240
  356TIP3    H122559   0.967   4.749  16.801  0.4012 -1.7467  1.6430
  356TIP3    H222560   0.874   4.828  16.891 -0.1914  0.0570 -0.4638
  357TIP3   OH222561   4.953   0.781   1.152 -0.1289 -0.4068 -0.2329
  357TIP3    H122562   4.988   0.742   1.232  0.8198  1.8023  0.5117
  357TIP3    H222563   4.930   0.871   1.177 -0.2406  0.2042 -2.3262
  358TIP3   OH222564   0.114   5.693   5.110  0.6536 -0.4024  0.5875
  358TIP3    H122565   0.186   5.701   5.173  1.5172 -0.3181 -0.4020
  358TIP3    H222566   0.037   5.676   5.165  1.5220 -1.1285  1.6301
  359TIP3   OH222567   6.094   0.487   0.708  0.1349 -0.6139  0.2280
  359TIP3    H122568   6.189   0.477   0.702  0.4184  1.4061  0.5213
  359TIP3    H222569   6.059   0.401   0.686  1.9797 -0.9772 -1.5657
  360TIP3   OH222570   1.590   3.982  15.836 -0.3778  0.5775  0.7452
  360TIP3    H122571   1.578   4.055  15.897  1.1992  0.6950  0.9573
  360TIP3    H222572   1.536   3.912  15.872 -1.0908  1.3040  1.1235
  361TIP3   OH222573   3.778   2.856  15.219 -0.4474 -0.0734 -0.7304
  361TIP3    H122574   3.691   2.856  15.178 -0.3494 -2.6869 -1.1305
  361TIP3    H222575   3.763   2.894  15.306 -2.2695 -1.4879 -0.3512
  362TIP3   OH222576   4.086   2.092  11.890  0.3743  0.0736 -0.3399
  362TIP3    H122577   4.053   2.058  11.807  1.3850 -1.9061  0.0262
  362TIP3    H222578   4.165   2.042  11.908 -0.2073 -0.1105  2.1818
  363TIP3   OH222579   1.774   2.601  14.344  0.3066 -0.2513  0.0065
  363TIP3    H122580   1.706   2.554  14.297  0.9088 -1.0234 -0.1076
  363TIP3    H222581   1.845   2.611  14.280  1.1482 -1.3381  0.7262
  364TIP3   OH222582   4.309   1.837   1.272 -0.6781 -0.0956  0.0165
  364TIP3    H122583   4.367   1.785   1.328 -0.7111 -0.4278 -0.2552
  364TIP3    H222584   4.324   1.927   1.300  1.0161 -0.0212 -1.0012
  365TIP3   OH222585   3.104   6.443   6.099 -0.2451  0.6837  1.0372
  365TIP3    H122586   3.122   6.453   6.192 -0.7856  0.3701  1.1829
  365TIP3    H222587   3.128   6.352   6.079 -1.5204  0.2926  1.2127
  366TIP3   OH222588   3.702   0.970  16.896 -0.4328  0.3958 -0.8690
  366TIP3    H122589   3.669   0.897  16.846 -2.4323  0.7259 -0.1097
  366TIP3    H222590   3.755   1.020  16.834 -0.8167 -0.5215 -1.9594
  367TIP3   OH222591   5.575   3.524  13.847 -0.2805  1.0913 -0.0889
  367TIP3    H122592   5.564   3.579  13.770 -0.5491 -0.1192 -0.9565
  367TIP3    H222593   5.497   3.468  13.847  0.9989 -0.7857 -0.5468
  368TIP3   OH222594   5.842   6.674   5.655 -0.1462  0.6146  0.3607
  368TIP3    H122595   5.848   6.697   5.562 -0.5415 -1.6419 -0.2966
  368TIP3    H222596   5.765   6.721   5.687 -0.1633  1.2017 -0.5254
  369TIP3   OH222597   6.758   2.046   4.189 -0.1627 -0.4407 -0.2997
  369TIP3    H122598   6.781   2.055   4.282  0.1079 -0.1253 -0.3953
  369TIP3    H222599   6.682   2.103   4.178  0.3113  0.1768 -0.4519
  370TIP3   OH222600   4.005   1.276   3.377  0.4315 -0.5000 -0.0119
  370TIP3    H122601   4.087   1.269   3.426  1.0584  1.6131 -0.6613
  370TIP3    H222602   4.027   1.243   3.289  1.6852  3.2122 -1.2594
  371TIP3   OH222603   0.520   6.588   5.378 -0.6581 -0.0465 -0.3973
  371TIP3    H122604   0.596   6.585   5.320  0.2089  0.3938  0.6866
  371TIP3    H222605   0.492   6.680   5.377  0.4374  0.3404  1.1967
  372TIP3   OH222606   6.137   1.397  12.104  0.1401  0.3442 -0.5830
  372TIP3    H122607   6.209   1.374  12.045 -0.3199 -1.1885 -0.6039
  372TIP3    H222608   6.168   1.373  12.191 -0.0381  0.4381 -0.4922
  373TIP3   OH222609   0.012   3.458   3.552 -0.3956  0.9131 -0.6144
  373TIP3    H122610  -0.057   3.501   3.603  0.2522  0.5949  0.5593
  373TIP3    H222611   0.042   3.386   3.607 -0.2273  0.0434 -1.8041
  374TIP3   OH222612   1.600   4.160  15.367 -0.4018  0.0469  0.3457
  374TIP3    H122613   1.638   4.113  15.442 -0.1911  0.2355  0.3564
  374TIP3    H222614   1.533   4.100  15.333  0.3883 -0.5936 -0.1053
  375TIP3   OH222615   2.723   0.092  14.744  0.8323  0.6724 -0.1987
  375TIP3    H122616   2.655   0.157  14.762 -0.1865 -0.3327 -0.3274
  375TIP3    H222617   2.789   0.108  14.812  0.3643  1.4955  0.0800
  376TIP3   OH222618   6.030   1.975   3.250  0.0420  0.0815  1.0867
  376TIP3    H122619   6.021   1.975   3.346  0.0457 -1.2588  1.1023
  376TIP3    H222620   6.030   1.882   3.226  2.4573  0.2857  0.0002
  377TIP3   OH222621   3.659   5.936   2.170  0.4502  0.0519  0.2311
  377TIP3    H122622   3.666   5.952   2.264 -0.2331 -1.0347  0.4820
  377TIP3    H222623   3.746   5.906   2.145  0.2583 -1.0812  0.8268
  378TIP3   OH222624   1.215   2.755   1.506  0.4825  0.6354 -0.5163
  378TIP3    H122625   1.309   2.762   1.519  1.2913 -1.3705 -3.9358
  378TIP3    H222626   1.187   2.842   1.478  1.0237  1.5367  1.5768
  379TIP3   OH222627   4.350   2.665  15.800 -0.0108  0.1770  0.6531
  379TIP3    H122628   4.321   2.658  15.709 -0.1869 -0.6549  0.7713
  379TIP3    H222629   4.443   2.687  15.794  0.0503 -0.1894  0.2744
  380TIP3   OH222630   1.927   2.201   5.490  0.9909  0.0659  0.1133
  380TIP3    H122631   1.885   2.228   5.571 -0.5878 -1.3828 -0.1616
  380TIP3    H222632   2.010   2.162   5.518  0.1485 -1.0760  1.1402
  381TIP3   OH222633   0.968   4.903   0.714 -0.0628  0.2339 -0.6242
  381TIP3    H122634   0.967   4.965   0.641 -0.9780 -0.4986 -1.2494
  381TIP3    H222635   0.876   4.889   0.736  0.0869 -1.3462 -0.8792
  382TIP3   OH222636   1.035   4.743   2.595 -0.2747 -0.4671  0.0810
  382TIP3    H122637   1.012   4.672   2.533 -0.9111 -1.0814  0.9895
  382TIP3    H222638   1.107   4.707   2.647 -0.5497 -0.4271  0.4953
  383TIP3   OH222639   1.746   0.273  11.627 -0.8462  0.2688 -0.1281
  383TIP3    H122640   1.685   0.344  11.647 -1.8927 -1.0302  1.5309
  383TIP3    H222641   1.833   0.311  11.641 -1.2988  1.6725 -0.9297
  384TIP3   OH222642   1.636   0.118   4.543  0.3932  0.1464  0.2754
  384TIP3    H122643   1.725   0.128   4.508  0.5336  2.2392  1.0741
  384TIP3    H222644   1.648   0.118   4.638 -0.5683  3.2690  0.5295
  385TIP3   OH222645   0.378   2.619   0.745  0.3511  0.2700 -0.1718
  385TIP3    H122646   0.304   2.590   0.691 -0.5878  2.3164 -0.1077
  385TIP3    H222647   0.373   2.564   0.823  0.5812 -1.4521 -1.3113
  386TIP3   OH222648   6.496   2.312  13.766 -0.1409 -0.1591 -0.2226
  386TIP3    H122649   6.507   2.347  13.855  0.6203 -0.8259 -0.0368
  386TIP3    H222650   6.470   2.387  13.713 -0.9610  0.1838  0.6290
  387TIP3   OH222651   2.301   6.798   2.313 -0.1070 -0.4483  0.2416
  387TIP3    H122652   2.351   6.847   2.248  0.0762  0.8179  1.2910
  387TIP3    H222653   2.367   6.758   2.370 -0.2267  0.6330  1.1951
  388TIP3   OH222654   3.413   0.314   2.461 -0.8060 -0.4997  0.1468
  388TIP3    H122655   3.343   0.367   2.424 -0.1262  0.9550  0.8810
  388TIP3    H222656   3.427   0.244   2.396 -2.6316 -0.5892 -0.1851
  389TIP3   OH222657   0.278   5.931   5.641 -0.4549 -1.1992  0.2047
  389TIP3    H122658   0.223   5.883   5.581 -0.4322 -2.7138  1.3345
  389TIP3    H222659   0.222   5.949   5.717 -0.0354 -0.7509  0.4204
  390TIP3   OH222660   1.494   1.473   1.450  0.5378  0.2049  0.2814
  390TIP3    H122661   1.548   1.466   1.529 -0.5286  1.0424  1.1211
  390TIP3    H222662   1.406   1.488   1.483 -0.3123 -1.4998 -1.0496
  391TIP3   OH222663   3.615   5.676  11.863  0.0845  0.8729  0.2776
  391TIP3    H122664   3.613   5.755  11.810  1.5778  1.4715  1.0527
  391TIP3    H222665   3.567   5.698  11.942  0.9262  1.1982  0.7123
  392TIP3   OH222666   0.841   0.141   2.169 -0.2188  0.0559  0.1634
  392TIP3    H122667   0.801   0.115   2.252  0.6222  1.4169  1.0386
  392TIP3    H222668   0.907   0.073   2.152 -0.8744 -0.6041  0.2377
  393TIP3   OH222669   0.934   4.138  10.658  0.4183  0.7121 -0.0629
  393TIP3    H122670   0.926   4.099  10.571  0.0668 -0.5083  0.4938
  393TIP3    H222671   1.008   4.092  10.698  0.2295  0.8754  0.4829
  394TIP3   OH222672   2.010   0.709  16.210 -0.1606 -0.2986  0.3212
  394TIP3    H122673   2.076   0.737  16.146 -0.1599 -0.1121  0.4021
  394TIP3    H222674   1.975   0.628  16.174  0.3482 -0.5755  0.4396
  395TIP3   OH222675   2.606   2.846  16.905 -0.6774  0.1196 -0.2448
  395TIP3    H122676   2.576   2.936  16.917 -0.7590  0.2241 -1.1658
  395TIP3    H222677   2.610   2.835  16.810 -1.1364 -1.0050 -0.1425
  396TIP3   OH222678   2.524   4.272   0.025 -0.4019 -0.0757 -0.5272
  396TIP3    H122679   2.501   4.201   0.086  0.9577  0.0738  0.2106
  396TIP3    H222680   2.601   4.239  -0.021  0.9235  1.3137  0.5990
  397TIP3   OH222681   1.275   3.882  11.443 -0.3537  0.4137  0.3040
  397TIP3    H122682   1.221   3.875  11.522  1.1338 -1.5515  1.2554
  397TIP3    H222683   1.346   3.941  11.468 -0.5050  0.7182  0.0219
  398TIP3   OH222684   2.371   1.744  16.011 -0.2592 -0.0694  0.6361
  398TIP3    H122685   2.460   1.780  16.014  0.0349 -0.6525 -0.7440
  398TIP3    H222686   2.318   1.816  15.977 -0.3595  0.3067  1.5361
  399TIP3   OH222687   2.126   5.510   3.671  0.4385 -0.0439  0.0111
  399TIP3    H122688   2.133   5.577   3.602 -2.4995  0.9758  0.5502
  399TIP3    H222689   2.039   5.473   3.659  0.8285 -1.6208  1.6759
  400TIP3   OH222690   0.334   4.037   1.082  0.0544  0.7549 -0.1377
  400TIP3    H122691   0.314   4.067   1.170 -0.4713  0.0264 -0.0037
  400TIP3    H222692   0.426   4.009   1.087 -0.4617 -0.9626  0.6708
  401TIP3   OH222693   1.649   4.441   3.977 -0.0213 -0.2893  0.0068
  401TIP3    H122694   1.640   4.536   3.986  1.3464 -0.1406  0.0288
  401TIP3    H222695   1.742   4.424   3.995 -0.4077 -1.7277  0.7846
  402TIP3   OH222696   1.240   6.249   3.580  0.6194 -0.3106  0.5507
  402TIP3    H122697   1.234   6.318   3.647  1.7139 -0.4509  0.8097
  402TIP3    H222698   1.216   6.169   3.626 -0.0416 -0.2053  0.4038
  403TIP3   OH222699   6.237   4.032   3.292 -0.5230  0.5822 -0.2111
  403TIP3    H122700   6.184   3.962   3.330  0.3629 -1.2776 -2.2060
  403TIP3    H222701   6.180   4.073   3.227 -1.0275  1.7265  0.9273
  404TIP3   OH222702   5.819   4.906  11.030 -0.1698 -0.0021 -0.4229
  404TIP3    H122703   5.833   4.983  10.974 -0.7502  0.9235  0.6825
  404TIP3    H222704   5.729   4.880  11.012 -0.6090  0.7545  0.6106
  405TIP3   OH222705   3.460   5.461  10.683  0.7007  0.8178 -0.0707
  405TIP3    H122706   3.377   5.494  10.649  0.4973  2.5312  1.9191
  405TIP3    H222707   3.518   5.461  10.608 -1.0563 -0.4035 -1.5136
  406TIP3   OH222708   4.383   5.325  12.891 -0.0604  0.1321 -0.1365
  406TIP3    H122709   4.416   5.263  12.955 -2.4046 -1.0739  0.0033
  406TIP3    H222710   4.414   5.292  12.807  3.1631  1.8095  0.2596
  407TIP3   OH222711   2.852   3.201   4.583  0.1855  0.3504 -0.1755
  407TIP3    H122712   2.765   3.232   4.610 -0.1780 -2.1808  1.9786
  407TIP3    H222713   2.835   3.119   4.537  1.3909  0.2704 -0.5088
  408TIP3   OH222714   2.447   6.378  12.884  0.1964 -0.4944  0.2520
  408TIP3    H122715   2.444   6.339  12.971  0.7923 -0.8212  0.1319
  408TIP3    H222716   2.507   6.452  12.893  0.5362 -0.7405  0.0420
  409TIP3   OH222717   0.975   6.014  15.040 -0.0516  0.0909  0.4165
  409TIP3    H122718   0.942   6.017  15.130  2.1045 -0.4437  1.2812
  409TIP3    H222719   0.945   5.930  15.006  0.1641 -0.2580  1.0763
  410TIP3   OH222720   0.024   2.972  16.638  0.1169 -0.1409  0.5767
  410TIP3    H122721   0.008   2.880  16.617 -0.7211  0.6250 -2.5449
  410TIP3    H222722   0.019   3.018  16.554 -1.6460  3.0893  2.2541
  411TIP3   OH222723   2.801   6.488  14.700  0.5004  0.2460 -0.7515
  411TIP3    H122724   2.806   6.401  14.659  3.1320  0.3601 -0.8355
  411TIP3    H222725   2.812   6.549  14.627  0.5035  0.5947 -0.4596
  412TIP3   OH222726   1.932   0.985   1.409  0.4531  0.0032 -0.3413
  412TIP3    H122727   1.895   0.907   1.367  1.0071 -1.5225  1.8294
  412TIP3    H222728   2.027   0.970   1.409  0.5773  0.7299  0.0155
  413TIP3   OH222729   0.382   3.231   4.082  0.1021  0.7732  0.1820
  413TIP3    H122730   0.368   3.315   4.040 -0.2758  0.9981  0.7533
  413TIP3    H222731   0.415   3.174   4.012  0.2022  1.3465 -0.2398
  414TIP3   OH222732   5.498   5.728   4.261  0.0350  0.2831  0.3346
  414TIP3    H122733   5.417   5.718   4.210  1.2673 -1.1602 -1.5037
  414TIP3    H222734   5.521   5.820   4.250 -1.1716  0.6431  0.6179
  415TIP3   OH222735   5.301   2.561   2.389  0.1148 -0.2782 -0.1854
  415TIP3    H122736   5.233   2.494   2.383  2.1601 -2.3561 -1.8907
  415TIP3    H222737   5.383   2.513   2.386  1.7107  2.2751 -0.7148
  416TIP3   OH222738   2.372   5.516  15.038  0.3577  0.0676 -0.6863
  416TIP3    H122739   2.437   5.535  14.970  0.3211 -1.0044 -1.0315
  416TIP3    H222740   2.325   5.439  15.007  0.5335 -0.6296  0.6789
  417TIP3   OH222741   6.615   3.551  12.296  0.3494 -0.2828  0.4017
  417TIP3    H122742   6.581   3.638  12.315  2.2776  0.9398 -1.2837
  417TIP3    H222743   6.701   3.549  12.339  1.1795 -0.5505 -1.1815
  418TIP3   OH222744   6.119   6.298  12.779 -0.4653 -0.5877  0.2685
  418TIP3    H122745   6.099   6.205  12.768  1.8096 -1.0526 -0.5515
  418TIP3    H222746   6.064   6.342  12.714 -1.7231 -1.3172  0.8100
  419TIP3   OH222747   5.488   1.136   4.926  0.0986  0.0880  0.6897
  419TIP3    H122748   5.433   1.129   4.848 -0.5000 -1.5153  1.2160
  419TIP3    H222749   5.558   1.196   4.900 -0.4653  0.1398 -0.8488
  420TIP3   OH222750   2.224   2.309  11.097  0.8800 -0.2388  0.1203
  420TIP3    H122751   2.160   2.362  11.050 -2.0728 -3.1242  0.5816
  420TIP3    H222752   2.273   2.264  11.028  1.5687  0.9544 -0.2051
  421TIP3   OH222753   5.946   1.608   5.353 -0.0078  0.3887  0.0601
  421TIP3    H122754   5.955   1.696   5.390  0.5000  1.5246 -2.5091
  421TIP3    H222755   5.964   1.549   5.425  0.7139  2.4098  1.6230
  422TIP3   OH222756   4.359   5.759  12.664  0.1326 -0.4336 -0.1404
  422TIP3    H122757   4.426   5.802  12.718 -1.1648  2.9512 -0.9696
  422TIP3    H222758   4.298   5.721  12.728  1.8824 -2.1619  0.6169
  423TIP3   OH222759   1.754   4.441   4.682  0.2669 -0.2562  0.2277
  423TIP3    H122760   1.683   4.505   4.683  0.9407  0.5057  1.4241
  423TIP3    H222761   1.753   4.406   4.593 -0.8949  0.5277 -0.0959
  424TIP3   OH222762   6.209   5.759   4.451  0.2830  0.3309 -0.1276
  424TIP3    H122763   6.250   5.711   4.523 -0.1634  2.0087  1.3242
  424TIP3    H222764   6.195   5.693   4.383  0.4690 -1.3933  1.4118
  425TIP3   OH222765   6.521   6.604   1.437  0.3120  0.0920  0.4240
  425TIP3    H122766   6.610   6.640   1.440  0.3545  0.1183 -0.7666
  425TIP3    H222767   6.488   6.629   1.351 -1.6049  1.7981  1.5870
  426TIP3   OH222768   2.209   1.733   0.235  0.2986 -0.1194 -0.2641
  426TIP3    H122769   2.286   1.690   0.198 -1.0608 -2.6680 -0.3628
  426TIP3    H222770   2.195   1.810   0.179  2.6981  0.4222 -0.2345
  427TIP3   OH222771   4.957   0.236   5.626  0.1579 -0.1372  0.0057
  427TIP3    H122772   4.990   0.323   5.607 -0.2628  0.2271  0.8700
  427TIP3    H222773   5.006   0.207   5.703 -0.2971 -0.3035  0.2415
  428TIP3   OH222774   3.095   0.110   0.925 -0.0435  0.3495 -0.1796
  428TIP3    H122775   3.153   0.117   1.001 -0.3533  1.2724 -0.0200
  428TIP3    H222776   3.010   0.089   0.961 -0.2312  0.9694 -0.2499
  429TIP3   OH222777   0.671   0.792  11.639  0.3875 -0.2832 -0.2706
  429TIP3    H122778   0.687   0.751  11.554  0.0735  0.2880 -0.6111
  429TIP3    H222779   0.576   0.793  11.648  0.3556  1.0021 -0.5931
  430TIP3   OH222780   5.827   1.477  15.165  0.2128  0.0006  0.1435
  430TIP3    H122781   5.789   1.415  15.104 -1.1373  0.9401 -0.0156
  430TIP3    H222782   5.828   1.431  15.249  0.7389 -0.7896 -0.2900
  431TIP3   OH222783   6.024   6.653  13.324 -0.2258  0.0955 -0.0733
  431TIP3    H122784   5.945   6.680  13.279  0.1282  0.3141 -0.5715
  431TIP3    H222785   6.081   6.618  13.255  0.3383  0.4697  0.1920
  432TIP3   OH222786   0.075   2.939  15.924  0.6196  0.5242 -0.0773
  432TIP3    H122787  -0.019   2.920  15.931  0.3118  1.1543 -1.9411
  432TIP3    H222788   0.079   3.028  15.889  1.9278  0.5654  0.1299
  433TIP3   OH222789   2.745   0.989   4.248 -0.4035 -0.3037  0.4775
  433TIP3    H122790   2.672   0.985   4.309 -1.2983  1.7680 -0.3589
  433TIP3    H222791   2.783   1.076   4.261 -0.3719  0.0428 -1.5865
  434TIP3   OH222792   3.814   6.462   2.355 -0.0264  0.1278  0.8448
  434TIP3    H122793   3.831   6.554   2.377  2.6094 -0.3696  1.2430
  434TIP3    H222794   3.863   6.412   2.420  0.7336 -1.5060 -0.8867
  435TIP3   OH222795   6.605   0.502   0.688 -0.6463  0.2447 -0.5031
  435TIP3    H122796   6.609   0.597   0.689  0.5075  0.3053 -3.1430
  435TIP3    H222797   6.518   0.481   0.655 -0.4296  0.4554 -1.2353
  436TIP3   OH222798   5.206   0.410   0.197 -0.4813  0.0525 -0.6048
  436TIP3    H122799   5.114   0.383   0.199 -0.2449 -0.7472 -0.1584
  436TIP3    H222800   5.210   0.475   0.126 -1.4580  0.3723 -0.3849
  437TIP3   OH222801   5.678   2.812  13.838 -0.5944 -0.2564  0.9231
  437TIP3    H122802   5.631   2.835  13.919  0.3785  1.3757  1.0788
  437TIP3    H222803   5.609   2.781  13.779 -1.9012  1.9246  1.1768
  438TIP3   OH222804   0.694   0.926  12.377  0.0669 -0.2039  0.1175
  438TIP3    H122805   0.757   0.933  12.305  0.7821  1.7908  0.8814
  438TIP3    H222806   0.739   0.963  12.452 -2.0140  1.3144  0.7069
  439TIP3   OH222807   2.672   2.444  12.154  0.2680 -0.5259  0.1469
  439TIP3    H122808   2.754   2.466  12.110  0.7462  0.3164  1.4077
  439TIP3    H222809   2.698   2.417  12.242 -0.5779 -3.1871 -0.3089
  440TIP3   OH222810   1.899   2.354  11.716  1.1803 -0.3198  0.1678
  440TIP3    H122811   1.968   2.407  11.758  0.7934  1.0599 -0.8330
  440TIP3    H222812   1.817   2.396  11.743  0.8286 -0.8184 -0.1190
  441TIP3   OH222813   5.635   4.690  14.128 -0.3247  0.3583  0.0240
  441TIP3    H122814   5.622   4.604  14.088 -0.2551  0.3786 -0.0420
  441TIP3    H222815   5.548   4.729  14.130 -0.2308  0.6236 -0.7046
  442TIP3   OH222816   5.359   2.486   4.695  0.0460 -0.1861 -0.0152
  442TIP3    H122817   5.281   2.439   4.666 -0.4417  0.2230  0.5963
  442TIP3    H222818   5.378   2.549   4.625 -0.5604  0.1470  0.1136
  443TIP3   OH222819   0.028   3.199   1.039  0.1929 -0.5610  0.1783
  443TIP3    H122820   0.045   3.141   0.965 -1.7992 -0.8786 -0.0642
  443TIP3    H222821   0.041   3.287   1.004 -0.5809 -0.7155 -0.5164
  444TIP3   OH222822   5.073   1.670  11.327  0.3454  0.5585  0.7754
  444TIP3    H122823   4.978   1.682  11.327  0.3079  1.7020 -2.8816
  444TIP3    H222824   5.086   1.576  11.317 -0.5137  0.5266 -0.2272
  445TIP3   OH222825   1.139   1.445   1.355  0.1703 -0.8110 -0.3493
  445TIP3    H122826   1.156   1.388   1.431 -0.8617 -1.0010 -0.2515
  445TIP3    H222827   1.060   1.494   1.378 -0.3052 -1.0500 -1.4017
  446TIP3   OH222828   5.902   4.777   2.032  0.3193  0.3998  0.5253
  446TIP3    H122829   5.935   4.712   1.970  2.2747  1.5058  0.3168
  446TIP3    H222830   5.818   4.805   1.994  0.4405 -0.5089 -0.4671
  447TIP3   OH222831   5.975   0.055   5.829 -0.3281 -0.4762  0.0029
  447TIP3    H122832   5.989   0.072   5.735  0.3837  0.2175  0.2212
  447TIP3    H222833   5.937   0.136   5.862  0.9283 -0.1112  0.6153
  448TIP3   OH222834   5.236   2.836   4.810 -0.1521 -0.1995  0.1402
  448TIP3    H122835   5.178   2.766   4.840 -0.8330  0.5254  0.5782
  448TIP3    H222836   5.227   2.835   4.714  0.6883 -1.3964  0.0540
  449TIP3   OH222837   4.248   3.796  14.761  0.3465 -0.1918 -0.2059
  449TIP3    H122838   4.154   3.802  14.778  0.5949  3.9088  0.8144
  449TIP3    H222839   4.256   3.799  14.666 -0.5539  1.1345 -0.2620
  450TIP3   OH222840   4.568   0.859  11.949  0.2137 -0.1233  0.0149
  450TIP3    H122841   4.519   0.791  11.996  0.9988 -0.5860  0.1833
  450TIP3    H222842   4.572   0.932  12.011 -1.2329  0.3577 -0.4240
  451TIP3   OH222843   0.712   3.358  14.312 -0.0669 -0.3537 -0.0229
  451TIP3    H122844   0.804   3.333  14.315  0.2242  0.6413 -0.2070
  451TIP3    H222845   0.709   3.432  14.251 -1.4188 -2.0853 -2.2191
  452TIP3   OH222846   3.087   5.705   4.955  0.6286  0.2994 -0.1747
  452TIP3    H122847   3.143   5.632   4.928 -0.1607 -0.4905  0.2831
  452TIP3    H222848   3.053   5.679   5.040 -2.5227 -0.4730 -1.5374
  453TIP3   OH222849   0.962   4.110  16.370 -0.2281 -0.2706 -0.1918
  453TIP3    H122850   0.877   4.068  16.384  0.0874 -0.4641  1.2787
  453TIP3    H222851   1.019   4.073  16.437  0.8658  0.3288 -0.7533
  454TIP3   OH222852   0.197   1.617   4.492 -0.1112 -0.0005  0.0141
  454TIP3    H122853   0.285   1.652   4.507 -1.0295  1.8579  1.3919
  454TIP3    H222854   0.190   1.544   4.554  0.6472 -0.5967 -0.5655
  455TIP3   OH222855   0.005   6.502   1.426  0.5166 -0.3652  0.0658
  455TIP3    H122856   0.009   6.563   1.353  1.6216  0.3132  0.6696
  455TIP3    H222857   0.048   6.548   1.499  2.4664 -2.2566  0.2289
  456TIP3   OH222858   4.382   4.311   1.459  0.2176 -0.0055 -0.3023
  456TIP3    H122859   4.471   4.276   1.448  0.3348 -0.2554  1.2285
  456TIP3    H222860   4.329   4.235   1.481 -0.3718  0.1547 -1.1518
  457TIP3   OH222861   5.662   2.666  16.251 -0.2205 -0.4467  0.6405
  457TIP3    H122862   5.710   2.692  16.172  0.3628  1.4529  1.5736
  457TIP3    H222863   5.632   2.577  16.232 -0.8106  0.2304 -2.0682
  458TIP3   OH222864   5.938   6.000  15.855 -0.0369  0.9035  0.0586
  458TIP3    H122865   5.936   5.955  15.940  1.5447 -2.1649 -1.3519
  458TIP3    H222866   6.028   6.031  15.847 -0.5898  2.6152  0.1117
  459TIP3   OH222867   0.751   5.096   1.811 -0.1054  0.0912 -0.5257
  459TIP3    H122868   0.754   5.008   1.848 -0.7799  1.0228  1.9260
  459TIP3    H222869   0.836   5.134   1.833 -0.4814  0.6253  0.0514
  460TIP3   OH222870   1.336   3.778  13.156 -0.0872 -0.3653 -0.4520
  460TIP3    H122871   1.393   3.837  13.205 -0.8518 -0.3347  0.4244
  460TIP3    H222872   1.357   3.795  13.064  0.7821  0.1715 -0.1626
  461TIP3   OH222873   1.446   0.947  15.286  0.4792  0.5740  0.2955
  461TIP3    H122874   1.415   1.008  15.219 -1.3871  1.9639  2.3084
  461TIP3    H222875   1.471   1.002  15.359  1.4239 -0.9569  1.1761
  462TIP3   OH222876   1.842   3.621   2.577 -0.1893  0.4036  0.0460
  462TIP3    H122877   1.862   3.698   2.524  0.6780  2.6689  3.3871
  462TIP3    H222878   1.748   3.626   2.594 -0.1081  0.7844  0.3704
  463TIP3   OH222879   4.423   5.759  15.442  0.1156  0.8278  0.3827
  463TIP3    H122880   4.488   5.692  15.421  1.4374  2.1271  0.1611
  463TIP3    H222881   4.372   5.720  15.514 -0.9477 -1.4659 -1.4806
  464TIP3   OH222882   3.405   3.374  11.278 -0.1333  0.4031 -0.0499
  464TIP3    H122883   3.394   3.348  11.369 -2.7997  1.9162  0.1741
  464TIP3    H222884   3.380   3.296  11.228 -0.5667  0.1430  0.5473
  465TIP3   OH222885   4.171   4.877   7.204 -0.1415 -0.5227  0.7352
  465TIP3    H122886   4.156   4.926   7.123  0.8757  0.0083  0.8621
  465TIP3    H222887   4.088   4.832   7.220 -0.5204 -0.2258 -0.3230
  466TIP3   OH222888   3.550   6.124  10.847  0.8423  0.0251  0.4383
  466TIP3    H122889   3.497   6.052  10.882  0.1079  1.2492  1.9841
  466TIP3    H222890   3.588   6.089  10.766 -1.1805 -1.3949  0.0195
  467TIP3   OH222891   5.829   3.300  14.374  0.2588 -0.4007  0.0143
  467TIP3    H122892   5.827   3.380  14.322 -2.7880 -0.8632 -0.7350
  467TIP3    H222893   5.882   3.239  14.322  0.7428  0.4297 -0.4870
  468TIP3   OH222894   3.047   2.695   2.063 -0.0410  0.1047  0.2870
  468TIP3    H122895   3.092   2.779   2.065  0.2449 -0.0121 -0.6729
  468TIP3    H222896   3.051   2.664   2.154  0.9150  0.5727  0.4228
  469TIP3   OH222897   0.727   4.115  16.150  0.3967 -0.2974 -0.4132
  469TIP3    H122898   0.652   4.089  16.097  0.7282 -1.1138 -0.4903
  469TIP3    H222899   0.799   4.060  16.119  0.1420 -2.3134  2.2595
  470TIP3   OH222900   2.635   1.171  16.189 -0.0568 -0.9024 -0.2853
  470TIP3    H122901   2.687   1.180  16.110  0.3073  2.2740  0.2047
  470TIP3    H222902   2.569   1.240  16.183  0.6766  0.2099  2.6210
  471TIP3   OH222903   2.175   4.557   1.174  0.8388  0.6740 -0.1034
  471TIP3    H122904   2.168   4.520   1.086  1.8157  1.7015 -0.6535
  471TIP3    H222905   2.114   4.506   1.227  1.8273 -1.4740 -0.8726
  472TIP3   OH222906   3.712   1.669  12.642 -0.0077  0.4129 -0.6356
  472TIP3    H122907   3.698   1.683  12.735  1.5283 -2.1496  0.0647
  472TIP3    H222908   3.627   1.636  12.610  0.0077 -0.5643  0.2902
  473TIP3   OH222909   0.078   4.133   6.501 -0.2810  0.0761  0.4115
  473TIP3    H122910   0.044   4.044   6.503  0.5980 -0.2517  1.1092
  473TIP3    H222911   0.001   4.188   6.514 -0.8800 -0.5551 -0.3214
  474TIP3   OH222912   6.260   1.194  11.376  0.2199  0.4726 -0.0042
  474TIP3    H122913   6.321   1.207  11.303  0.2316  0.0264 -0.0757
  474TIP3    H222914   6.293   1.116  11.421 -1.5428 -1.1113 -1.3279
  475TIP3   OH222915   3.385   6.582  10.557 -0.1804 -0.3088  0.3318
  475TIP3    H122916   3.420   6.505  10.600  0.4364  0.7882  1.8775
  475TIP3    H222917   3.441   6.654  10.585  0.9289  0.3949 -3.1397
  476TIP3   OH222918   5.135   6.319   0.132  0.2589 -0.4036  0.3758
  476TIP3    H122919   5.103   6.409   0.130 -1.7702 -1.0677 -0.6738
  476TIP3    H222920   5.089   6.279   0.206  0.4353 -0.8092  0.2690
  477TIP3   OH222921   1.525   4.738  14.947  0.2438  0.3176  0.1699
  477TIP3    H122922   1.614   4.774  14.948  0.4738  0.3275 -3.8035
  477TIP3    H222923   1.539   4.643  14.941 -0.1851  0.0510  2.4323
  478TIP3   OH222924   3.330   5.438   4.287 -0.0237 -0.3400 -0.2742
  478TIP3    H122925   3.270   5.473   4.221  0.3411  0.2408 -0.3020
  478TIP3    H222926   3.361   5.515   4.336  0.5881 -0.6417 -0.1677
  479TIP3   OH222927   1.054   5.304   3.399 -0.1118  0.3812  0.1493
  479TIP3    H122928   1.034   5.323   3.307 -0.5931 -0.7242  0.0165
  479TIP3    H222929   1.090   5.216   3.399  0.7018  0.6956  0.9340
  480TIP3   OH222930   0.856   0.012  11.044 -0.5738 -0.1533  0.4325
  480TIP3    H122931   0.792   0.051  11.103  1.3115  0.1372  2.4017
  480TIP3    H222932   0.940   0.022  11.089  0.5663 -2.7472 -0.8830
  481TIP3   OH222933   2.562   5.189   0.865 -0.1020  0.0485  0.0026
  481TIP3    H122934   2.468   5.206   0.871 -0.1366  1.0492 -2.4993
  481TIP3    H222935   2.597   5.225   0.947 -1.6586  1.4599  0.1002
  482TIP3   OH222936   1.996   5.262  14.132  0.4824  0.9382 -0.2128
  482TIP3    H122937   2.018   5.355  14.142 -0.6147  1.0859  1.2637
  482TIP3    H222938   1.905   5.262  14.103  0.9433  0.3194 -1.7199
  483TIP3   OH222939   2.253   3.237   2.155  0.3241 -0.1647 -0.1986
  483TIP3    H122940   2.286   3.324   2.131  0.9788  0.4263  2.3972
  483TIP3    H222941   2.302   3.215   2.235 -1.2021 -2.0819  0.2913
  484TIP3   OH222942   1.790   4.281  11.445 -0.3575  0.5719 -0.1442
  484TIP3    H122943   1.707   4.289  11.399 -1.6166 -4.1590  0.7111
  484TIP3    H222944   1.822   4.194  11.420  3.3547  1.3939  1.1596
  485TIP3   OH222945   2.223   3.369  16.885 -0.4285 -0.6457  0.4485
  485TIP3    H122946   2.193   3.413  16.965 -0.7994 -2.4753  1.3647
  485TIP3    H222947   2.314   3.348  16.903 -0.8119 -2.0329  0.8729
  486TIP3   OH222948   2.044   5.867   3.073 -0.6885  0.0972 -0.2117
  486TIP3    H122949   2.088   5.826   3.147 -1.6627  1.4481  1.1624
  486TIP3    H222950   2.107   5.930   3.039 -0.4607 -0.0947 -0.1443
  487TIP3   OH222951   5.790   6.791   3.668 -0.0527  0.6117  0.1104
  487TIP3    H122952   5.698   6.770   3.682 -0.9011  1.9860 -2.7246
  487TIP3    H222953   5.799   6.882   3.697  0.6553  0.2547  1.0911
  488TIP3   OH222954   0.833   2.128  16.844  0.5521 -0.4453 -0.3849
  488TIP3    H122955   0.746   2.150  16.879  1.2764 -0.9095  1.8629
  488TIP3    H222956   0.821   2.042  16.802 -0.2906  0.0207 -1.1568
  489TIP3   OH222957   2.923   3.409   3.645 -0.0892 -0.0875 -0.4758
  489TIP3    H122958   2.888   3.408   3.734 -1.5112 -1.9088 -0.9792
  489TIP3    H222959   3.008   3.452   3.652 -0.4697  0.3900  1.6328
  490TIP3   OH222960   0.761   2.464   2.814 -0.1180 -0.0610  0.3183
  490TIP3    H122961   0.768   2.369   2.805 -0.0107 -0.3693  2.9924
  490TIP3    H222962   0.788   2.498   2.728 -1.2191 -2.4356 -1.0755
  491TIP3   OH222963   6.408   0.724  11.508 -0.3593  0.9829 -0.1286
  491TIP3    H122964   6.390   0.811  11.471  1.5840  1.4818 -0.0213
  491TIP3    H222965   6.466   0.741  11.582  0.8845 -0.4411 -0.7123
  492TIP3   OH222966   5.217   0.245   1.549 -0.5161  0.8072  0.0574
  492TIP3    H122967   5.142   0.187   1.532  0.6696 -0.9180  0.3909
  492TIP3    H222968   5.272   0.195   1.610  1.3851  1.5706 -0.9476
  493TIP3   OH222969   5.268   4.980  12.668 -0.3511  0.6377  0.9574
  493TIP3    H122970   5.259   4.886  12.654 -0.5848  1.0523 -2.5913
  493TIP3    H222971   5.362   4.996  12.662 -0.3860  0.7302  0.6488
  494TIP3   OH222972   3.114   1.221  15.066  0.3384  0.0904 -0.3077
  494TIP3    H122973   3.027   1.231  15.106 -0.4384 -1.7825 -1.3902
  494TIP3    H222974   3.153   1.308  15.071 -1.1267  0.7153  1.2623
  495TIP3   OH222975   1.384   1.658   6.419 -0.3779 -0.1017 -0.4323
  495TIP3    H122976   1.374   1.701   6.504 -0.0267  0.1829 -0.5311
  495TIP3    H222977   1.295   1.639   6.390 -0.5666  1.0029 -0.6065
  496TIP3   OH222978   0.018   4.502  16.977 -0.3829  0.0798  0.0099
  496TIP3    H122979  -0.045   4.433  16.999  1.0147 -1.4679 -0.6543
  496TIP3    H222980   0.095   4.455  16.944  0.4871  1.9796 -0.8135
  497TIP3   OH222981   4.665   2.126   5.707  0.0521  0.1170 -0.2097
  497TIP3    H122982   4.647   2.142   5.799  0.3509 -2.3190  0.3549
  497TIP3    H222983   4.755   2.094   5.705  0.1815  0.4894 -1.4068
  498TIP3   OH222984   3.632   4.777   0.286  0.2712  0.6401 -0.5261
  498TIP3    H122985   3.577   4.703   0.260 -0.4915  1.0359 -0.0808
  498TIP3    H222986   3.585   4.817   0.359  2.1111 -0.1890  1.2183
  499TIP3   OH222987   6.668   5.495  13.570 -0.5056 -0.1747 -0.3966
  499TIP3    H122988   6.586   5.510  13.522 -0.8448  0.5462  0.3772
  499TIP3    H222989   6.736   5.529  13.512 -0.8510  0.1495 -0.6151
  500TIP3   OH222990   4.174   4.096  16.064 -0.3105  0.4276  0.2312
  500TIP3    H122991   4.255   4.088  16.114  0.6674  1.9568 -1.0259
  500TIP3    H222992   4.149   4.005  16.046  2.1136 -0.1228 -0.8416
  501TIP3   OH222993   6.162   6.665  13.564 -0.2502  0.7550 -0.7661
  501TIP3    H122994   6.202   6.752  13.561 -3.3678  2.3385 -0.8133
  501TIP3    H222995   6.112   6.659  13.482 -3.0345  0.6063  0.7997
  502TIP3   OH222996   6.410   1.826  14.564  0.1270 -0.3827  0.0418
  502TIP3    H122997   6.341   1.887  14.590  0.0473  0.3007 -1.6527
  502TIP3    H222998   6.369   1.769  14.499  1.4200  0.8605 -1.9794
  503TIP3   OH222999   0.811   2.938  11.175 -0.0750  0.3287 -0.2789
  503TIP3    H123000   0.883   2.899  11.125  0.2942  1.2829 -0.5139
  503TIP3    H223001   0.850   3.015  11.217 -0.8724  0.6507 -0.1125
  504TIP3   OH223002   1.964   4.372   5.466  0.1871 -0.3432 -0.0953
  504TIP3    H123003   1.932   4.383   5.376  0.4949  2.0859  0.0363
  504TIP3    H223004   1.904   4.309   5.505  1.1982 -3.0520 -2.5252
  505TIP3   OH223005   5.165   5.781  11.920  0.0567 -0.2112  0.3046
  505TIP3    H123006   5.133   5.848  11.981 -1.2063  0.6535 -1.2433
  505TIP3    H223007   5.173   5.826  11.836  1.3891 -1.4656 -0.2891
  506TIP3   OH223008   1.205   6.108  14.926  0.4222 -0.2289 -0.5108
  506TIP3    H123009   1.112   6.112  14.949  0.6209 -1.5277  0.6046
  506TIP3    H223010   1.212   6.165  14.849 -0.7428  2.2287  1.0742
  507TIP3   OH223011   0.493   1.934   2.766 -0.5301 -0.0444  0.4334
  507TIP3    H123012   0.580   1.904   2.792 -0.4130  0.2372  0.3790
  507TIP3    H223013   0.490   1.920   2.671 -0.4903  0.0737  0.4142
  508TIP3   OH223014   6.779   1.448   4.746 -0.9378 -0.4231 -0.3943
  508TIP3    H123015   6.767   1.435   4.651 -0.9121 -1.0712 -0.3130
  508TIP3    H223016   6.691   1.438   4.782 -0.8276 -0.9447 -0.2665
  509TIP3   OH223017   2.834   1.452  15.465 -0.9279 -0.5183  0.2259
  509TIP3    H123018   2.760   1.482  15.412  0.2400  2.0371 -0.1190
  509TIP3    H223019   2.842   1.517  15.535 -0.1012 -1.7460  1.3293
  510TIP3   OH223020   2.821   0.662   3.211 -0.1000  0.3790 -0.2592
  510TIP3    H123021   2.846   0.663   3.118 -0.9820  0.0641 -0.5109
  510TIP3    H223022   2.829   0.754   3.239 -0.6364  0.6232 -0.8763
  511TIP3   OH223023   1.640   2.241   5.021 -0.7519  0.4677  0.0439
  511TIP3    H123024   1.690   2.162   5.004 -0.7629  1.0514 -3.1753
  511TIP3    H223025   1.691   2.288   5.087  1.0946 -0.5790 -0.5716
  512TIP3   OH223026   3.187   5.647  13.773  0.2600 -0.0634 -0.3396
  512TIP3    H123027   3.223   5.731  13.745  0.3430 -0.2483 -0.8089
  512TIP3    H223028   3.176   5.598  13.691 -0.4129 -0.2634 -0.1290
  513TIP3   OH223029   0.969   2.153   0.349  0.2270 -0.3490  0.1881
  513TIP3    H123030   1.014   2.237   0.363  0.3246 -0.4461  0.4614
  513TIP3    H223031   0.880   2.168   0.383 -0.6247  0.4825 -2.1276
  514TIP3   OH223032   5.749   2.707   2.497  0.3518 -0.0754  0.4886
  514TIP3    H123033   5.821   2.754   2.540 -0.5411  1.0630  0.7583
  514TIP3    H223034   5.757   2.617   2.530  1.5340  0.0764  0.6528
  515TIP3   OH223035   4.219   5.350   5.917  0.3435  0.4194  0.5621
  515TIP3    H123036   4.130   5.336   5.950  0.5394 -0.9539  0.5419
  515TIP3    H223037   4.276   5.312   5.984  0.8738  0.4422  0.1287
  516TIP3   OH223038   3.097   6.392  12.937 -0.5150  0.2598  0.3392
  516TIP3    H123039   3.013   6.393  12.892  0.0903  0.5459 -0.8248
  516TIP3    H223040   3.128   6.483  12.930  0.9707 -0.3275 -1.3768
  517TIP3   OH223041   0.515   0.451  16.176 -0.2683  0.4205  0.0681
  517TIP3    H123042   0.558   0.527  16.137  0.6954 -0.2726 -0.2568
  517TIP3    H223043   0.443   0.430  16.117  1.2028 -0.6562 -1.4420
  518TIP3   OH223044   1.054   6.335   0.852 -0.1947 -0.3927 -0.6838
  518TIP3    H123045   0.975   6.329   0.799 -0.7345  2.4245 -0.3697
  518TIP3    H223046   1.122   6.363   0.791  0.0056 -0.4891 -0.5075
  519TIP3   OH223047   5.152   1.681  16.992  0.3348  0.2626  0.3182
  519TIP3    H123048   5.091   1.611  17.015 -1.0743  1.2966 -0.1482
  519TIP3    H223049   5.102   1.762  17.004  1.8037  1.1928  0.4962
  520TIP3   OH223050   2.174   6.606   5.735  0.2844 -0.2002 -0.2366
  520TIP3    H123051   2.086   6.570   5.746  0.6931 -1.1044  0.1519
  520TIP3    H223052   2.161   6.701   5.730 -0.6023 -0.2417  0.9440
  521TIP3   OH223053   6.740   4.635  11.759 -0.6114 -0.0238 -0.4491
  521TIP3    H123054   6.779   4.698  11.819  1.0858 -0.0873 -1.4451
  521TIP3    H223055   6.770   4.550  11.791  2.6473  0.0565 -2.8636
  522TIP3   OH223056   1.774   2.225   1.125  0.4835  0.5449  0.5291
  522TIP3    H123057   1.745   2.299   1.071  1.3270 -1.1021 -2.4302
  522TIP3    H223058   1.696   2.171   1.135  0.7470 -0.1160 -0.8166
  523TIP3   OH223059   3.094   5.767  10.289  0.0289  0.6850 -0.5527
  523TIP3    H123060   3.185   5.749  10.265 -0.3395  0.1846 -1.6215
  523TIP3    H223061   3.096   5.779  10.384  1.0834 -0.0583 -0.4694
  524TIP3   OH223062   3.213   3.903   1.464 -0.0413  0.0623 -0.7299
  524TIP3    H123063   3.260   3.894   1.382 -0.5755  1.5897 -1.2447
  524TIP3    H223064   3.126   3.934   1.438 -0.2879  0.3462  0.3833
  525TIP3   OH223065   2.345   2.643   6.821 -0.0830  0.2395 -0.2621
  525TIP3    H123066   2.368   2.592   6.743  0.2514  1.1772 -0.7900
  525TIP3    H223067   2.391   2.599   6.892 -0.6533 -0.8280 -0.5307
  526TIP3   OH223068   6.153   3.342   3.101  0.0589 -0.2221  0.6782
  526TIP3    H123069   6.104   3.265   3.072  0.9619 -0.5258 -0.0969
  526TIP3    H223070   6.086   3.406   3.124 -0.7164 -0.4008 -0.9617
  527TIP3   OH223071   0.524   2.395  15.490  0.2266  0.6258  0.5522
  527TIP3    H123072   0.499   2.308  15.520  0.5929  0.6844  1.0414
  527TIP3    H223073   0.610   2.382  15.450  0.2457  0.7467  0.5550
  528TIP3   OH223074   2.928   3.035  14.154 -0.0743 -0.0336 -0.1576
  528TIP3    H123075   2.999   2.975  14.177 -0.1795  0.5865  2.0344
  528TIP3    H223076   2.963   3.122  14.175 -0.4744  0.5616 -1.8178
  529TIP3   OH223077   1.804   2.510   5.512 -0.1010 -0.3954 -0.1782
  529TIP3    H123078   1.797   2.500   5.607  0.1085 -0.1736 -0.1373
  529TIP3    H223079   1.714   2.527   5.483 -0.1061 -0.0554  0.0301
  530TIP3   OH223080   1.313   5.570   2.515  0.4439 -0.3643 -0.2565
  530TIP3    H123081   1.342   5.616   2.594  0.7646  0.7803 -1.0391
  530TIP3    H223082   1.329   5.477   2.535  1.1516 -0.0395  0.7584
  531TIP3   OH223083   4.351   4.761   0.611 -0.4146  0.2522 -0.0668
  531TIP3    H123084   4.294   4.718   0.547  1.0187 -1.1865 -0.4620
  531TIP3    H223085   4.298   4.832   0.647 -1.5869  0.5392 -2.1812
  532TIP3   OH223086   6.541   2.045  14.719  0.7364 -0.0011 -0.3195
  532TIP3    H123087   6.448   2.062  14.732  0.2920 -2.0819 -0.4718
  532TIP3    H223088   6.546   1.999  14.636  2.1377  1.5992 -1.1953
  533TIP3   OH223089   6.610   2.311  17.034 -0.3268 -0.1800 -0.1498
  533TIP3    H123090   6.666   2.380  16.998  1.3338 -1.2636  0.2757
  533TIP3    H223091   6.573   2.268  16.956  0.2378 -0.1115 -0.4578
  534TIP3   OH223092   1.017   0.825   2.304 -0.7021  0.1069 -0.1961
  534TIP3    H123093   0.944   0.828   2.242 -1.6108 -1.5149  0.7118
  534TIP3    H223094   1.054   0.737   2.294  0.1691  0.3814  0.4302
  535TIP3   OH223095   3.481   1.468   1.706  0.7195 -0.0272  0.1678
  535TIP3    H123096   3.440   1.419   1.635  0.6347 -0.0264  0.2169
  535TIP3    H223097   3.546   1.523   1.663  0.7093 -0.0708  0.0970
  536TIP3   OH223098   0.936   6.160   1.750  0.3225 -0.4554  0.8378
  536TIP3    H123099   0.979   6.147   1.665 -1.4884  1.3048 -0.4780
  536TIP3    H223100   0.886   6.080   1.764 -0.9153 -0.0653 -0.8438
  537TIP3   OH223101   5.130   0.345   4.374 -0.2001  0.0986  0.2790
  537TIP3    H123102   5.175   0.318   4.294  0.3018  0.7367  0.3328
  537TIP3    H223103   5.075   0.419   4.346  1.4836  1.6398  0.8771
  538TIP3   OH223104   2.202   2.337  14.612  0.2079  0.3671 -0.4747
  538TIP3    H123105   2.170   2.386  14.536  1.8143  0.0865 -1.4045
  538TIP3    H223106   2.281   2.293  14.579  0.5387 -0.3415  1.1829
  539TIP3   OH223107   3.082   5.493  11.657 -0.6036  0.4036  0.6328
  539TIP3    H123108   3.166   5.448  11.656 -0.2689  0.8267  3.1383
  539TIP3    H223109   3.057   5.499  11.564  2.5223  1.0379 -0.3126
  540TIP3   OH223110   1.155   0.449   0.827 -0.0374  0.7982  0.2912
  540TIP3    H123111   1.077   0.501   0.806 -1.1027 -0.3214  1.2418
  540TIP3    H223112   1.203   0.442   0.745 -1.2187  1.0999 -0.4550
  541TIP3   OH223113   4.834   4.895  15.308  0.2496 -0.2828 -0.1946
  541TIP3    H123114   4.882   4.854  15.380 -0.7393  0.1105  0.7191
  541TIP3    H223115   4.896   4.894  15.235  1.7119  0.3574  0.9745
  542TIP3   OH223116   3.361   6.788  11.464  0.1807  0.1441 -0.5057
  542TIP3    H123117   3.325   6.790  11.553 -0.7868  2.5723 -0.8957
  542TIP3    H223118   3.403   6.702  11.458 -0.3194 -0.3691  2.0502
  543TIP3   OH223119   0.957   0.569  10.861  0.0056  0.4269  0.1401
  543TIP3    H123120   0.948   0.663  10.872 -1.1253  0.2519  0.8334
  543TIP3    H223121   0.895   0.531  10.923  0.2116 -0.7737 -0.3546
  544TIP3   OH223122   1.135   6.345  11.082 -0.1939 -0.2713  0.6793
  544TIP3    H123123   1.189   6.344  11.003 -0.8051  0.2194  0.2455
  544TIP3    H223124   1.183   6.291  11.144  0.7015  0.0041  0.2418
  545TIP3   OH223125   1.776   5.365  13.998 -0.7269  0.2329  0.0510
  545TIP3    H123126   1.844   5.421  13.960 -1.2537  1.3175  0.6765
  545TIP3    H223127   1.697   5.384  13.947 -1.2337  1.0753  1.1278
  546TIP3   OH223128   5.552   0.282   0.961 -0.3404  0.2362  0.5364
  546TIP3    H123129   5.607   0.353   0.996  0.6155  0.2234 -0.8525
  546TIP3    H223130   5.473   0.285   1.014 -0.7237  2.9471 -0.0182
  547TIP3   OH223131   2.747   6.208   0.789  0.8070  0.0781  0.1785
  547TIP3    H123132   2.748   6.279   0.854 -0.5383  0.6105 -0.3609
  547TIP3    H223133   2.658   6.207   0.756  0.5274 -2.5314  0.8543
  548TIP3   OH223134   4.093   2.817  10.930 -0.5001 -0.2274  0.3547
  548TIP3    H123135   4.069   2.890  10.873  1.8835 -0.5967 -1.3004
  548TIP3    H223136   4.119   2.858  11.013 -2.2217  0.4824  0.5849
  549TIP3   OH223137   4.602   1.782  16.341 -0.2212 -0.2006 -0.3258
  549TIP3    H123138   4.521   1.774  16.291 -1.3072  2.8670  0.6948
  549TIP3    H223139   4.663   1.825  16.282  0.0953 -0.9156 -0.5269
  550TIP3   OH223140   5.899   5.251   0.428 -0.6644  0.2893  0.2409
  550TIP3    H123141   5.895   5.333   0.477 -0.2909  1.1100 -1.0747
  550TIP3    H223142   5.882   5.275   0.337  1.1908 -0.8116 -0.4621
  551TIP3   OH223143   1.993   0.561   1.228 -0.0817  0.0231 -0.2986
  551TIP3    H123144   1.999   0.586   1.136  1.3309  0.4752 -0.1107
  551TIP3    H223145   2.005   0.466   1.229  0.8607  0.1291 -0.5227
  552TIP3   OH223146   5.820   1.464  13.198 -0.2422 -0.2245 -0.5149
  552TIP3    H123147   5.839   1.466  13.292  0.1991  1.0681 -0.6190
  552TIP3    H223148   5.729   1.435  13.193 -0.6946  0.9305  0.3981
  553TIP3   OH223149   4.673   6.338  16.845 -0.3258 -0.4317  0.0658
  553TIP3    H123150   4.659   6.432  16.831 -0.4414 -0.6447 -1.4774
  553TIP3    H223151   4.762   6.331  16.878 -0.3331  0.2224  0.2323
  554TIP3   OH223152   1.376   0.251   4.094  0.0152 -0.1829 -0.0214
  554TIP3    H123153   1.289   0.246   4.134  0.1452 -2.2782  0.0777
  554TIP3    H223154   1.436   0.252   4.168  0.1410 -0.8214 -0.1117
  555TIP3   OH223155   6.492   1.853  11.696 -0.3331 -0.9081 -0.1931
  555TIP3    H123156   6.503   1.922  11.630  1.3217  1.0015  1.9103
  555TIP3    H223157   6.532   1.776  11.657 -0.6517 -0.2287 -1.9500
  556TIP3   OH223158   2.267   1.669   5.622  0.2621 -0.1494 -0.4363
  556TIP3    H123159   2.182   1.676   5.665  0.6154  0.7710  0.1438
  556TIP3    H223160   2.330   1.699   5.688  0.9120  0.3810 -1.2685
  557TIP3   OH223161   1.470   2.366   3.030  0.3899  0.1885  0.1411
  557TIP3    H123162   1.460   2.343   3.123  3.5258  0.0879  0.5672
  557TIP3    H223163   1.527   2.443   3.030  0.9681 -0.1806 -1.7142
  558TIP3   OH223164   4.338   2.075   4.336 -0.2934 -0.2595 -0.0828
  558TIP3    H123165   4.283   2.007   4.374 -1.7548  0.0973 -1.4487
  558TIP3    H223166   4.289   2.156   4.348 -0.0836  0.0723 -1.3068
  559TIP3   OH223167   3.937   0.845   2.238  0.0987 -0.0368  0.7315
  559TIP3    H123168   3.960   0.821   2.328  1.1727  1.0533  0.7658
  559TIP3    H223169   3.873   0.915   2.247  1.8960  1.6836  0.7081
  560TIP3   OH223170   2.287   6.127  12.485 -0.1526  0.7254 -0.0410
  560TIP3    H123171   2.247   6.205  12.524 -1.1263 -0.6423  1.8793
  560TIP3    H223172   2.353   6.099  12.548  0.0941 -0.0877 -0.6397
  561TIP3   OH223173   0.079   3.933   1.364  1.0431 -0.4001  0.4762
  561TIP3    H123174   0.077   3.975   1.450 -0.4417 -0.4736  0.5076
  561TIP3    H223175   0.020   3.986   1.310  1.5819 -0.6374 -0.3532
  562TIP3   OH223176   6.474   3.687  16.832 -0.4233 -0.5692 -0.6191
  562TIP3    H123177   6.509   3.606  16.795 -0.9257 -0.6618 -0.9011
  562TIP3    H223178   6.385   3.693  16.797 -1.5292 -1.4653  1.8160
  563TIP3   OH223179   4.737   0.990  14.517 -0.3827  0.3246 -0.1329
  563TIP3    H123180   4.732   0.996  14.422 -1.3407 -0.2463 -0.1336
  563TIP3    H223181   4.683   1.062  14.549  1.3818  1.6495  0.0260
  564TIP3   OH223182   6.547   3.123  13.329 -0.5339  0.1246  0.1476
  564TIP3    H123183   6.562   3.102  13.421  0.7328  1.5563  0.3033
  564TIP3    H223184   6.606   3.065  13.281  1.2309  1.5897  0.4496
  565TIP3   OH223185   4.323   1.342  15.058 -0.1680 -0.9650  0.6932
  565TIP3    H123186   4.265   1.404  15.100  0.2798  0.2969 -0.4851
  565TIP3    H223187   4.277   1.315  14.978  0.6779 -0.2136 -0.0767
  566TIP3   OH223188   0.869   5.500   6.242 -0.2371  0.7758 -0.5205
  566TIP3    H123189   0.933   5.567   6.266  0.4492 -0.1185  0.1946
  566TIP3    H223190   0.920   5.420   6.232 -1.2804 -0.0219  0.3599
  567TIP3   OH223191   0.314   5.787   1.897  0.4546  0.1272  0.2493
  567TIP3    H123192   0.281   5.740   1.973 -0.6432  1.2287  0.4876
  567TIP3    H223193   0.235   5.815   1.850  1.1032 -0.6967 -1.4061
  568TIP3   OH223194   1.674   4.399  16.843 -0.7458 -0.1404  0.3634
  568TIP3    H123195   1.578   4.395  16.847 -0.7441 -1.3686 -0.2115
  568TIP3    H223196   1.703   4.325  16.897 -0.1351  0.0208  0.2586
  569TIP3   OH223197   0.519   5.008   0.874  0.6717 -0.2027 -0.2537
  569TIP3    H123198   0.471   4.925   0.874  0.7451 -0.2721 -1.7783
  569TIP3    H223199   0.452   5.074   0.888  0.2064 -0.3498 -1.6483
  570TIP3   OH223200   0.502   1.643  15.024 -0.0741 -0.3277 -0.0427
  570TIP3    H123201   0.597   1.635  15.038 -0.3568  0.2814  2.6433
  570TIP3    H223202   0.464   1.570  15.071 -1.0258  0.2947  0.1740
  571TIP3   OH223203   5.248   4.107  12.250 -0.0655  0.6283  0.0944
  571TIP3    H123204   5.183   4.061  12.304  1.6047 -1.0721  0.7618
  571TIP3    H223205   5.209   4.108  12.163 -2.1067  2.0039  0.9182
  572TIP3   OH223206   0.913   5.741  15.067  0.1130  0.3486  0.1445
  572TIP3    H123207   0.954   5.658  15.093  0.3966  0.0239 -1.2950
  572TIP3    H223208   0.826   5.738  15.106  0.1460 -0.5872  0.1590
  573TIP3   OH223209   3.413   5.378  11.897  0.2311  0.0241  0.0979
  573TIP3    H123210   3.438   5.379  11.804  0.9479 -2.6486  0.1843
  573TIP3    H223211   3.483   5.425  11.941  0.0879  0.9700 -0.6290
  574TIP3   OH223212   6.541   6.716   1.189  0.3176  0.4679  0.5471
  574TIP3    H123213   6.615   6.687   1.135  0.5217 -0.2354  1.1853
  574TIP3    H223214   6.501   6.787   1.139  0.3173 -0.3603 -0.6747
  575TIP3   OH223215   6.131   5.156  13.088 -0.1618  0.0598 -0.8974
  575TIP3    H123216   6.087   5.147  13.173  2.3371 -1.2286  0.3560
  575TIP3    H223217   6.059   5.170  13.026 -2.3377 -1.7391  1.0230
  576TIP3   OH223218   6.230   1.827  12.626  0.0498  0.0214  0.4889
  576TIP3    H123219   6.190   1.776  12.556 -0.3255  0.8136  0.1133
  576TIP3    H223220   6.242   1.914  12.588 -0.9295  0.7005  1.6456
  577TIP3   OH223221   1.264   3.500   0.169  0.1785  0.1097  0.3697
  577TIP3    H123222   1.345   3.539   0.202 -0.0767 -0.1383  1.3078
  577TIP3    H223223   1.195   3.561   0.196 -0.2038 -0.8450  1.6758
  578TIP3   OH223224   0.830   3.985  15.513 -0.0817 -0.4514 -0.8810
  578TIP3    H123225   0.859   4.064  15.558 -0.9095 -1.2886  1.2851
  578TIP3    H223226   0.906   3.956  15.463  1.2611  0.0262  0.8039
  579TIP3   OH223227   4.707   4.308   4.491 -0.1402  0.1398 -0.2553
  579TIP3    H123228   4.629   4.303   4.436 -0.2798 -1.6144  0.0379
  579TIP3    H223229   4.682   4.367   4.562 -1.0258 -0.0275 -0.4112
  580TIP3   OH223230   5.405   5.264  16.538 -0.3389  0.5845  0.5779
  580TIP3    H123231   5.402   5.233  16.447 -0.1271  1.1173  0.3896
  580TIP3    H223232   5.344   5.338  16.540  1.9854  2.6372  0.0678
  581TIP3   OH223233   3.524   5.758   3.298 -0.0263  0.2000  0.0134
  581TIP3    H123234   3.445   5.774   3.349  0.5626 -2.0761  1.8203
  581TIP3    H223235   3.570   5.689   3.346  1.4172 -0.9184 -2.7500
  582TIP3   OH223236   3.496   3.377  13.972 -0.2564  1.0516 -0.6204
  582TIP3    H123237   3.464   3.357  14.060  1.1708 -1.8080 -0.6505
  582TIP3    H223238   3.561   3.446  13.984 -0.4254  1.0228  0.4943
  583TIP3   OH223239   3.072   5.579  15.254 -0.3969  0.3339  0.2983
  583TIP3    H123240   3.083   5.525  15.332 -0.1832  1.3729  1.0007
  583TIP3    H223241   3.127   5.537  15.187 -3.5255 -2.8699 -0.5578
  584TIP3   OH223242   1.975   6.056   5.875 -0.5100  0.1245 -0.3318
  584TIP3    H123243   2.061   6.090   5.900 -0.5342 -0.9862  1.4519
  584TIP3    H223244   1.994   5.977   5.825 -0.3553 -1.8531  2.5600
  585TIP3   OH223245   0.043   2.071  11.953 -1.0783 -0.1588  0.8247
  585TIP3    H123246   0.032   2.041  11.862  0.3321 -1.1372  0.9545
  585TIP3    H223247   0.117   2.132  11.949 -0.4722 -0.8432  1.4391
  586TIP3   OH223248   6.678   6.695  15.942  0.3511 -0.0747  0.5332
  586TIP3    H123249   6.706   6.745  16.019  2.0092 -0.9178  0.5357
  586TIP3    H223250   6.642   6.761  15.882 -0.1398  0.7083  1.6604
  587TIP3   OH223251   1.330   0.700  12.493 -0.2157  0.0308 -0.2371
  587TIP3    H123252   1.316   0.625  12.551 -1.8072 -1.1507 -2.0281
  587TIP3    H223253   1.244   0.743  12.488  0.2867  1.0404 -0.5098
  588TIP3   OH223254   6.462   2.651  11.823 -0.0565  0.0257  0.4514
  588TIP3    H123255   6.396   2.669  11.757 -1.8822  0.5442  2.3075
  588TIP3    H223256   6.544   2.683  11.785 -1.4348  2.6778 -0.5423
  589TIP3   OH223257   6.389   1.369   2.428 -0.4131 -0.0343 -0.3044
  589TIP3    H123258   6.458   1.343   2.368  1.1865  1.6458  0.6913
  589TIP3    H223259   6.408   1.321   2.509  0.8899  1.8955  0.6261
  590TIP3   OH223260   2.905   0.882   3.820  0.4551 -0.1518 -0.2935
  590TIP3    H123261   2.831   0.924   3.777  1.4680  1.2461 -0.7301
  590TIP3    H223262   2.875   0.865   3.910 -0.8611 -0.9440 -0.8475
  591TIP3   OH223263   0.115   1.876  15.576 -0.4657  0.0679  0.6406
  591TIP3    H123264   0.032   1.883  15.623 -0.0036 -0.8780  1.6337
  591TIP3    H223265   0.149   1.965  15.574 -1.2676  0.3812  0.6693
  592TIP3   OH223266   1.105   6.519  14.462 -0.0447 -0.1126  0.2027
  592TIP3    H123267   1.170   6.555  14.521  0.3875 -2.0508  0.9715
  592TIP3    H223268   1.156   6.471  14.396 -0.6175  0.0526 -0.3754
  593TIP3   OH223269   2.832   4.296   3.998  0.0390  0.5533  0.3957
  593TIP3    H123270   2.810   4.226   3.937  0.8621  0.5082  0.1385
  593TIP3    H223271   2.919   4.273   4.032  0.0596  1.1313  0.7658
  594TIP3   OH223272   0.853   0.623  13.895 -0.1853  0.2703  0.2299
  594TIP3    H123273   0.803   0.647  13.817  0.4001  1.7206  0.2703
  594TIP3    H223274   0.830   0.689  13.960  0.8995  0.2885  0.6134
  595TIP3   OH223275   5.156   3.550  16.811  0.1647  0.0734  0.1124
  595TIP3    H123276   5.072   3.543  16.856  0.3631 -1.6430  0.2665
  595TIP3    H223277   5.214   3.492  16.859  0.9422 -0.1948 -1.1200
  596TIP3   OH223278   0.615   2.335  14.378 -0.2127 -0.3910  0.0792
  596TIP3    H123279   0.640   2.418  14.336 -0.8394 -1.1159 -1.8735
  596TIP3    H223280   0.599   2.358  14.469 -0.4195  1.6603 -0.4141
  597TIP3   OH223281   1.204   5.715  11.874  0.1347  0.4023 -0.2228
  597TIP3    H123282   1.299   5.706  11.865  0.1631  1.5823 -1.3450
  597TIP3    H223283   1.170   5.629  11.850  0.9356 -0.1424  0.5480
  598TIP3   OH223284   3.207   3.398  12.717  0.3305  0.4762 -0.0091
  598TIP3    H123285   3.267   3.441  12.778  2.3534  0.0183 -1.5821
  598TIP3    H223286   3.197   3.309  12.753 -1.1352  1.1335  1.3670
  599TIP3   OH223287   5.899   4.137  13.251 -0.2821 -0.6002  0.2881
  599TIP3    H123288   5.911   4.212  13.310 -0.2224 -0.7712  0.4972
  599TIP3    H223289   5.880   4.176  13.166 -0.0475 -0.3433  0.3506
  600TIP3   OH223290   6.278   2.046  12.454  0.2748  0.2101 -0.4309
  600TIP3    H123291   6.334   2.122  12.470  0.5507 -0.0980  0.1058
  600TIP3    H223292   6.334   1.982  12.410  0.4603 -0.2344  0.4192
  601TIP3   OH223293   3.132   2.686  16.554  0.0568  0.1912 -0.3199
  601TIP3    H123294   3.151   2.592  16.549 -0.0093  0.0839  1.1870
  601TIP3    H223295   3.083   2.704  16.473  0.2665 -1.0178 -0.7400
  602TIP3   OH223296   0.467   1.616  11.374  0.5194  0.2320 -0.8474
  602TIP3    H123297   0.542   1.674  11.386  1.2924 -0.5046 -2.0397
  602TIP3    H223298   0.454   1.576  11.460 -2.5255  4.9328  1.3421
  603TIP3   OH223299   4.754   5.781   2.493  0.2579 -0.0251  0.3346
  603TIP3    H123300   4.767   5.839   2.568 -1.0104  1.7586 -0.7393
  603TIP3    H223301   4.716   5.837   2.425  0.5140 -1.7702 -1.3535
  604TIP3   OH223302   6.418   1.209  11.127 -0.3591  0.1795  0.1485
  604TIP3    H123303   6.494   1.227  11.073 -0.6451  1.6755  0.2056
  604TIP3    H223304   6.343   1.223  11.069 -0.6141 -0.3764  0.3358
  605TIP3   OH223305   5.916   4.313  15.164  0.1305 -0.7515 -0.0816
  605TIP3    H123306   5.877   4.283  15.246 -0.1941 -1.3362 -0.4427
  605TIP3    H223307   5.989   4.253  15.148 -0.0864 -0.9196 -0.4496
  606TIP3   OH223308   1.852   4.709   4.081  0.2058  0.2891 -0.3379
  606TIP3    H123309   1.945   4.692   4.063  0.2199  1.3391 -1.3447
  606TIP3    H223310   1.821   4.756   4.004 -1.1184  0.1604  0.0943
  607TIP3   OH223311   2.316   5.114   2.958  0.0068  0.0132 -0.0181
  607TIP3    H123312   2.267   5.076   2.885 -0.8450 -1.2279  1.1573
  607TIP3    H223313   2.299   5.056   3.032 -2.0853  3.0227  2.1567
  608TIP3   OH223314   0.841   2.896   5.530 -0.3663 -0.8570  0.7997
  608TIP3    H123315   0.848   2.815   5.581  0.5072 -0.5139  1.2450
  608TIP3    H223316   0.829   2.965   5.595  0.1032 -0.4860  0.4985
  609TIP3   OH223317   5.874   3.910   4.346 -0.7670 -0.3533  0.0514
  609TIP3    H123318   5.792   3.947   4.313 -0.5456 -0.2587 -0.3878
  609TIP3    H223319   5.854   3.887   4.437 -0.7115  1.4846  0.5747
  610TIP3   OH223320   0.342   4.318   5.425  0.1450 -0.0324 -0.0092
  610TIP3    H123321   0.357   4.353   5.513  1.2560 -0.1564 -0.1330
  610TIP3    H223322   0.420   4.265   5.407  0.3126  0.6422 -1.3827
  611TIP3   OH223323   5.631   0.273  12.131 -0.5528  0.2917  0.1768
  611TIP3    H123324   5.543   0.310  12.143  0.5325  3.0901  0.2769
  611TIP3    H223325   5.677   0.297  12.211  1.1543  1.6523 -1.1419
  612TIP3   OH223326   4.018   4.090  13.851  0.0114 -0.3077  0.8385
  612TIP3    H123327   3.935   4.055  13.819  0.0012  1.1754 -0.9131
  612TIP3    H223328   4.000   4.119  13.940 -1.3924  0.1547  0.4223
  613TIP3   OH223329   3.813   2.451  16.956  0.1022 -0.4106 -0.1482
  613TIP3    H123330   3.855   2.382  17.008  0.3235 -0.5462 -0.5034
  613TIP3    H223331   3.724   2.456  16.991 -0.0680 -1.2184 -0.4451
  614TIP3   OH223332   3.962   5.536  12.205  0.0888 -0.1059  0.3998
  614TIP3    H123333   3.930   5.478  12.274  0.2312  0.5524  1.0323
  614TIP3    H223334   3.949   5.487  12.124 -1.3630 -0.3510  0.7594
  615TIP3   OH223335   1.658   6.736   2.247  0.3112  0.4609  0.4852
  615TIP3    H123336   1.730   6.740   2.310 -0.5645  1.7921  1.4622
  615TIP3    H223337   1.579   6.751   2.300 -0.6108 -0.1823 -0.6737
  616TIP3   OH223338   5.715   0.528  14.664 -0.3374 -0.8590  0.1964
  616TIP3    H123339   5.721   0.553  14.572 -1.0456  1.4273  0.7015
  616TIP3    H223340   5.758   0.600  14.711  1.2561 -2.6314  1.6285
  617TIP3   OH223341   3.839   2.040  12.627 -0.1446  0.5738  0.1303
  617TIP3    H123342   3.858   2.117  12.680  1.1990  0.7851 -0.5936
  617TIP3    H223343   3.849   1.966  12.687  2.5505  0.7207  0.0191
  618TIP3   OH223344   1.096   2.341  12.618 -0.1619 -0.0164  0.0061
  618TIP3    H123345   1.127   2.251  12.625 -0.1768 -0.0040  0.2419
  618TIP3    H223346   1.000   2.333  12.625 -0.1381  0.0567  0.4386
  619TIP3   OH223347   0.239   3.805   2.257 -0.4580 -0.6370 -0.4341
  619TIP3    H123348   0.324   3.780   2.292  1.2508  3.0696 -1.4741
  619TIP3    H223349   0.200   3.861   2.324 -0.9586 -0.2831 -1.0050
  620TIP3   OH223350   2.699   1.761  12.539 -0.3207  0.0287  0.6776
  620TIP3    H123351   2.668   1.693  12.599  1.9034 -0.2065  1.6554
  620TIP3    H223352   2.789   1.736  12.519 -0.3582  1.2168 -1.1661
  621TIP3   OH223353   3.470   2.362   5.903  0.2280 -0.3952  0.4970
  621TIP3    H123354   3.423   2.414   5.969  2.1779  0.1448  1.5377
  621TIP3    H223355   3.445   2.272   5.921 -1.7032 -0.0115 -0.0812
  622TIP3   OH223356   2.392   0.327  16.484 -0.7674  0.6244  0.0220
  622TIP3    H123357   2.378   0.256  16.546  1.5433  0.5166  0.4790
  622TIP3    H223358   2.447   0.390  16.530 -0.5918  1.4662 -1.2636
  623TIP3   OH223359   4.241   1.751  16.494  0.7004  0.0284  0.2653
  623TIP3    H123360   4.253   1.815  16.565  0.1322  0.8522 -0.3608
  623TIP3    H223361   4.148   1.727  16.499  0.4569  0.7080 -0.6898
  624TIP3   OH223362   4.101   5.747   4.032 -0.3032 -0.5044  0.0295
  624TIP3    H123363   4.059   5.789   3.957  0.0560 -0.2623 -0.0365
  624TIP3    H223364   4.192   5.737   4.006 -0.3300 -1.0993  0.1436
  625TIP3   OH223365   0.509   5.090  11.860  0.1719  0.0332  0.0991
  625TIP3    H123366   0.479   5.106  11.770  0.5967 -0.4954 -0.1433
  625TIP3    H223367   0.487   4.999  11.876  1.8196 -0.4433 -0.1675
  626TIP3   OH223368   3.668   1.010   0.235  0.4761 -0.0983  0.2178
  626TIP3    H123369   3.739   1.069   0.209 -1.2721  1.1274 -2.1784
  626TIP3    H223370   3.589   1.064   0.232 -1.0666 -2.2559 -1.0506
  627TIP3   OH223371   5.595   2.138   2.980 -0.4687  0.0041  0.6601
  627TIP3    H123372   5.667   2.079   3.001 -0.7123 -0.4691  0.2059
  627TIP3    H223373   5.580   2.188   3.060  0.8000  0.5839  0.5643
  628TIP3   OH223374   4.619   5.791   5.112  0.6194 -0.1422  0.5010
  628TIP3    H123375   4.692   5.735   5.086 -0.8025 -0.7646 -2.5146
  628TIP3    H223376   4.548   5.730   5.132 -1.0950  0.3646 -3.2817
  629TIP3   OH223377   3.587   5.336  13.213  0.6170  0.3165 -0.4552
  629TIP3    H123378   3.511   5.300  13.259  0.6184 -0.4574 -1.0464
  629TIP3    H223379   3.655   5.269  13.222  0.9018  0.5494 -0.8168
  630TIP3   OH223380   2.199   4.096  11.584  0.3463  0.3844 -0.2865
  630TIP3    H123381   2.273   4.069  11.640  0.0298  1.7644  0.8810
  630TIP3    H223382   2.213   4.050  11.502  2.5270  0.5829 -0.1011
  631TIP3   OH223383   6.157   5.267   0.048  0.7533 -0.3293 -0.1288
  631TIP3    H123384   6.153   5.172   0.044  0.5257 -0.4119  1.2920
  631TIP3    H223385   6.207   5.284   0.129 -2.2875  0.7267  1.6801
  632TIP3   OH223386   6.017   6.394   5.039 -0.2311  0.1147  0.1798
  632TIP3    H123387   6.036   6.426   5.127 -0.1315 -1.3655  0.7407
  632TIP3    H223388   5.922   6.398   5.032 -0.3776 -1.0988  0.9551
  633TIP3   OH223389   6.837   0.023   4.067 -0.0070  0.2429  0.4502
  633TIP3    H123390   6.821  -0.038   3.995 -1.2482  1.2300 -0.1627
  633TIP3    H223391   6.929   0.047   4.058 -0.4553  1.4616 -1.7981
  634TIP3   OH223392   5.956   2.961   1.442  0.0030  0.1322  0.5212
  634TIP3    H123393   5.972   2.925   1.529 -0.3803 -0.6784  0.2672
  634TIP3    H223394   6.027   3.023   1.428  0.0469  0.3038  1.4234
  635TIP3   OH223395   3.733   2.279   5.473 -0.2231 -0.5576  0.0568
  635TIP3    H123396   3.716   2.294   5.566 -0.8264  1.3278 -0.2972
  635TIP3    H223397   3.774   2.193   5.469 -0.4085 -0.7840  2.0358
  636TIP3   OH223398   3.667   6.677   1.235 -0.1403 -0.5233  0.1011
  636TIP3    H123399   3.748   6.673   1.286 -0.9005  0.7987  1.4853
  636TIP3    H223400   3.612   6.740   1.281 -2.0706 -1.5376 -0.6719
  637TIP3   OH223401   6.656   4.164  13.303  0.2355 -0.2787  0.8612
  637TIP3    H123402   6.680   4.220  13.229 -1.1842 -1.2146 -0.3632
  637TIP3    H223403   6.674   4.075  13.273 -1.7502 -0.7860  1.0342
  638TIP3   OH223404   6.562   3.283   2.180 -0.0402  0.7001  0.8288
  638TIP3    H123405   6.538   3.351   2.118 -1.5533 -0.3159  0.2395
  638TIP3    H223406   6.494   3.286   2.248  1.4616  1.6436  2.3757
  639TIP3   OH223407   3.057   1.922  10.897  0.6959  0.3804  0.5403
  639TIP3    H123408   3.068   1.924  10.802  1.8376 -2.5843  0.5032
  639TIP3    H223409   3.022   1.835  10.915  0.7061  0.8010  2.8630
  640TIP3   OH223410   3.568   5.700   3.039 -0.3004 -0.0289  0.5507
  640TIP3    H123411   3.658   5.733   3.033 -0.5320  0.4320 -0.7617
  640TIP3    H223412   3.543   5.714   3.130  0.7396  0.4414  0.7763
  641TIP3   OH223413   0.938   6.136   3.578  0.3935 -0.1148 -0.9674
  641TIP3    H123414   0.875   6.199   3.614  0.1380 -0.4731 -0.7850
  641TIP3    H223415   0.992   6.111   3.652 -0.3725 -1.1384 -0.7301
  642TIP3   OH223416   2.296   5.253   1.760  0.0110  0.5233  0.6414
  642TIP3    H123417   2.202   5.256   1.742 -0.0200 -1.5316  0.2077
  642TIP3    H223418   2.307   5.306   1.838 -1.3638  1.5540  0.1798
  643TIP3   OH223419   1.774   0.006  14.676 -0.2580 -0.1203 -0.0286
  643TIP3    H123420   1.822   0.027  14.756  0.1100  2.6452 -0.8457
  643TIP3    H223421   1.695   0.061  14.680 -0.0080  0.4335 -1.7111
  644TIP3   OH223422   2.864   6.761  12.460  0.3278 -0.0119  0.5010
  644TIP3    H123423   2.825   6.701  12.522 -1.6425  1.0635  0.3637
  644TIP3    H223424   2.790   6.805  12.418  1.6140  0.1363 -1.7762
  645TIP3   OH223425   3.309   5.360   1.667  0.1611 -0.5881 -0.1985
  645TIP3    H123426   3.362   5.432   1.633 -0.6263 -0.3366 -0.9310
  645TIP3    H223427   3.335   5.285   1.614  1.0373 -0.8833  0.6159
  646TIP3   OH223428   2.146   2.510   2.136 -0.4967 -0.9562 -0.3751
  646TIP3    H123429   2.096   2.522   2.056 -0.0314 -0.2215 -0.5639
  646TIP3    H223430   2.175   2.419   2.133 -0.3986 -0.9051 -1.0821
  647TIP3   OH223431   1.633   1.179  13.960  0.8111  0.0221  0.2329
  647TIP3    H123432   1.690   1.247  13.923  0.7433  0.7125  1.3718
  647TIP3    H223433   1.546   1.218  13.962  0.5592 -0.4979 -0.1076
  648TIP3   OH223434   3.962   6.697  16.075  0.3373  0.3307  0.3310
  648TIP3    H123435   3.963   6.648  15.992  3.3145 -0.1292  0.5554
  648TIP3    H223436   3.915   6.639  16.136  2.2690 -1.5666  0.1399
  649TIP3   OH223437   3.388   6.369   2.706  0.2592  0.1256  0.5645
  649TIP3    H123438   3.453   6.331   2.646 -1.0825 -0.0291 -0.8243
  649TIP3    H223439   3.433   6.446   2.743  0.5160  1.3508 -2.0565
  650TIP3   OH223440   2.993   1.112  14.467 -0.5314  0.1651 -0.6905
  650TIP3    H123441   2.961   1.045  14.528  0.0186  2.0023  1.7670
  650TIP3    H223442   2.919   1.130  14.410 -1.3298 -1.0858 -0.0888
  651TIP3   OH223443   5.796   4.517   6.611  0.0521 -0.0348  0.1843
  651TIP3    H123444   5.842   4.443   6.651  0.9831 -0.7877 -2.1087
  651TIP3    H223445   5.863   4.563   6.561 -1.0929  0.6004 -0.8393
  652TIP3   OH223446   0.644   4.248  16.378 -0.0004 -0.1287 -0.2504
  652TIP3    H123447   0.673   4.224  16.290  0.3197 -0.0218 -0.1760
  652TIP3    H223448   0.609   4.167  16.415  1.3843 -0.5909  0.1271
  653TIP3   OH223449   0.391   1.453  15.188  0.3141  0.6143  0.8025
  653TIP3    H123450   0.365   1.443  15.279 -0.1404  4.2758  1.1864
  653TIP3    H223451   0.310   1.468  15.140  0.5769 -0.9455 -0.2239
  654TIP3   OH223452   3.237   6.471   2.507 -0.8376  0.7026 -0.9612
  654TIP3    H123453   3.153   6.443   2.542 -1.0768  0.4179 -1.7444
  654TIP3    H223454   3.302   6.426   2.561 -1.0607  3.2400  1.6692
  655TIP3   OH223455   1.713   6.684   0.178  0.1914 -0.4410  0.5076
  655TIP3    H123456   1.646   6.753   0.178 -0.3325 -0.9445  0.9240
  655TIP3    H223457   1.736   6.674   0.085  1.8627  1.8021  0.6077
  656TIP3   OH223458   3.178   5.764   1.289 -0.6108  0.1170  0.3918
  656TIP3    H123459   3.110   5.697   1.286 -0.4635 -0.1364  1.8453
  656TIP3    H223460   3.162   5.812   1.370  0.5869  0.4220  0.4794
  657TIP3   OH223461   1.959   3.264  13.475 -0.4270 -0.0036 -0.2399
  657TIP3    H123462   1.965   3.344  13.422 -0.3706  1.1209  1.3672
  657TIP3    H223463   1.866   3.258  13.499 -0.2983  0.0215  0.2767
  658TIP3   OH223464   0.964   6.631   3.424  0.0765 -0.4732  0.0148
  658TIP3    H123465   0.998   6.713   3.460  1.0558 -1.1052  0.5911
  658TIP3    H223466   0.899   6.658   3.359  0.1135  0.7445  0.4549
  659TIP3   OH223467   2.631   1.536   5.197  0.0902 -0.0314 -0.4855
  659TIP3    H123468   2.666   1.617   5.234 -0.5970  0.6264 -1.2470
  659TIP3    H223469   2.617   1.556   5.104 -1.2719 -0.6111 -0.4228
  660TIP3   OH223470   4.943   2.505   2.851  0.2157 -0.1906 -0.4312
  660TIP3    H123471   4.853   2.507   2.819  0.1622 -0.0906 -0.2741
  660TIP3    H223472   4.950   2.581   2.909  0.4306 -0.1423 -0.5223
  661TIP3   OH223473   6.736   1.584   1.543 -0.2998  0.1709  0.8777
  661TIP3    H123474   6.710   1.498   1.512  1.2381 -0.1940  0.5248
  661TIP3    H223475   6.807   1.610   1.485  0.0603  1.1526  1.7219
  662TIP3   OH223476   0.023   4.629  12.217  0.0383 -0.3010 -0.2777
  662TIP3    H123477  -0.060   4.676  12.228  0.6500  0.8350 -0.3267
  662TIP3    H223478   0.085   4.697  12.192  0.3722 -1.5188 -3.2462
  663TIP3   OH223479   5.084   2.752  16.203  0.8125 -0.2922 -0.4914
  663TIP3    H123480   5.031   2.779  16.128  1.7932 -0.0706 -1.1217
  663TIP3    H223481   5.038   2.788  16.279 -0.8979 -1.6097 -0.8538
  664TIP3   OH223482   6.635   6.001   2.836 -0.3864  0.4378  0.3321
  664TIP3    H123483   6.617   6.055   2.913 -1.0761  0.8021 -0.0704
  664TIP3    H223484   6.618   5.912   2.865 -1.0271  0.6069  0.5056
  665TIP3   OH223485   0.372   4.954   3.689 -0.1902 -0.0244  0.6239
  665TIP3    H123486   0.358   4.959   3.594 -0.7399 -3.1182  0.4257
  665TIP3    H223487   0.288   4.924   3.723 -0.4807  2.4754  2.3726
  666TIP3   OH223488   3.419   0.091   5.503  0.0576 -0.0086  0.2775
  666TIP3    H123489   3.331   0.053   5.506  1.1042 -2.7437 -0.1235
  666TIP3    H223490   3.443   0.087   5.411  0.8656 -0.0060  0.4824
  667TIP3   OH223491   5.899   1.286  11.238 -0.0095  0.1605 -0.2974
  667TIP3    H123492   5.936   1.375  11.242  1.1301 -0.3171  0.0853
  667TIP3    H223493   5.956   1.234  11.294 -0.1049 -1.0123 -1.2583
  668TIP3   OH223494   0.642   0.229  13.466 -0.4720  0.0564 -0.4105
  668TIP3    H123495   0.731   0.258  13.445 -0.9323  2.0593  0.1886
  668TIP3    H223496   0.645   0.208  13.559 -0.8965  1.3422 -0.0911
  669TIP3   OH223497   0.909   0.354  17.060  0.0517 -0.0540  0.2085
  669TIP3    H123498   0.866   0.428  17.103 -0.3359  0.3480 -0.8110
  669TIP3    H223499   1.002   0.379  17.058 -0.3539  1.8105 -2.5664
  670TIP3   OH223500   0.370   0.212   2.765 -0.6466 -0.0913  0.9832
  670TIP3    H123501   0.407   0.149   2.828 -0.7297 -1.6724 -0.4835
  670TIP3    H223502   0.286   0.237   2.803 -0.4745 -0.6297  1.7376
  671TIP3   OH223503   3.495   2.477   4.146 -0.1942  0.1214 -0.5262
  671TIP3    H123504   3.557   2.424   4.196 -0.5600 -1.0422 -1.2734
  671TIP3    H223505   3.463   2.541   4.210 -0.3174 -1.0302  0.6200
  672TIP3   OH223506   1.243   5.952   0.017 -0.2069 -0.0385  0.2930
  672TIP3    H123507   1.196   5.869   0.023 -0.6948  0.2333  0.2352
  672TIP3    H223508   1.207   5.995  -0.060  0.7235 -0.1913 -0.2451
  673TIP3   OH223509   0.288   0.862  13.094 -0.5052  0.2389  0.2051
  673TIP3    H123510   0.246   0.801  13.154  1.4979 -1.4076  0.0544
  673TIP3    H223511   0.352   0.909  13.147 -0.3578  0.4531 -0.1535
  674TIP3   OH223512   4.409   6.854   1.978  0.2800 -0.2758  0.6212
  674TIP3    H123513   4.319   6.826   1.967  0.5305 -0.2148 -2.1892
  674TIP3    H223514   4.462   6.782   1.943  1.4322 -0.6875  2.9784
  675TIP3   OH223515   6.578   6.324   2.502  0.4123  0.1966 -0.4624
  675TIP3    H123516   6.580   6.311   2.407  1.1527 -0.6572 -0.3386
  675TIP3    H223517   6.544   6.413   2.513 -0.7159 -0.0934 -1.4827
  676TIP3   OH223518   0.773   3.565  11.791  0.4678  0.2552  0.6386
  676TIP3    H123519   0.765   3.502  11.863  1.2474  0.4496  0.9019
  676TIP3    H223520   0.815   3.516  11.721  0.4538  0.2972  0.6010
  677TIP3   OH223521   3.331   6.511  11.510  0.1378  0.0660 -0.6587
  677TIP3    H123522   3.251   6.463  11.532 -0.8326  1.4568 -0.9616
  677TIP3    H223523   3.399   6.473  11.565 -0.9470 -0.5087  0.3242
  678TIP3   OH223524   4.142   5.808   0.553 -0.3337  0.5387  0.4156
  678TIP3    H123525   4.065   5.841   0.505 -1.1495  0.1079  1.3968
  678TIP3    H223526   4.186   5.887   0.583  0.5765  0.8545 -1.5702
  679TIP3   OH223527   2.383   4.444  16.293  0.1949 -0.5175 -0.0269
  679TIP3    H123528   2.426   4.472  16.212  1.4899 -0.0169  0.8019
  679TIP3    H223529   2.357   4.525  16.336 -3.2848 -0.8081 -1.3080
  680TIP3   OH223530   0.294   2.808  11.080  0.7854  0.2434 -0.6967
  680TIP3    H123531   0.211   2.856  11.083  1.0551  0.7905 -1.5614
  680TIP3    H223532   0.292   2.762  10.996  0.9892 -0.4291 -0.3411
  681TIP3   OH223533   1.794   3.814   3.652  0.1737 -0.3747  0.2927
  681TIP3    H123534   1.775   3.721   3.637 -1.2267 -0.1007  0.2864
  681TIP3    H223535   1.720   3.846   3.703  1.8392  0.1604  2.5386
  682TIP3   OH223536   4.047   5.588  16.541 -0.5629  0.5337  0.0172
  682TIP3    H123537   3.976   5.618  16.598 -1.6436 -2.9540  0.7371
  682TIP3    H223538   4.099   5.530  16.596 -0.9525 -2.0231 -2.1096
  683TIP3   OH223539   1.309   3.817   3.793 -0.6694  0.5170 -0.4286
  683TIP3    H123540   1.382   3.759   3.770 -1.2986 -0.4194 -0.1355
  683TIP3    H223541   1.317   3.830   3.887 -3.2398 -3.1175  0.5147
  684TIP3   OH223542   2.230   3.528   2.186 -0.0428 -0.3231 -0.1854
  684TIP3    H123543   2.231   3.477   2.105  0.9255 -0.0514 -0.3551
  684TIP3    H223544   2.256   3.616   2.159  2.5414 -0.7298  0.7102
  685TIP3   OH223545   5.678   6.405  16.530  0.1876 -0.0740  0.0951
  685TIP3    H123546   5.737   6.334  16.553  0.1301 -0.1443  0.0246
  685TIP3    H223547   5.696   6.474  16.595  1.1748  0.3630 -0.6128
  686TIP3   OH223548   0.078   1.013   2.491 -0.6852 -0.1755 -0.4846
  686TIP3    H123549   0.037   0.942   2.541 -0.5823 -0.0799 -0.2650
  686TIP3    H223550   0.034   1.010   2.406 -0.5493 -0.6279 -0.5449
  687TIP3   OH223551   0.753   6.490  12.954 -0.1525 -0.0616  0.3123
  687TIP3    H123552   0.771   6.421  13.018 -0.4638 -0.5074 -0.0669
  687TIP3    H223553   0.834   6.497  12.903 -0.3876 -0.7331 -0.1737
  688TIP3   OH223554   4.126   3.190  11.955  0.4343  0.2060 -0.2310
  688TIP3    H123555   4.113   3.122  12.020 -2.1994 -2.0640 -2.8284
  688TIP3    H223556   4.211   3.171  11.916  0.5016 -0.5152  0.2566
  689TIP3   OH223557   0.057   6.086   2.903 -0.2681 -0.3386  0.4045
  689TIP3    H123558   0.044   6.031   2.980 -1.4214 -2.8804 -1.4561
  689TIP3    H223559  -0.030   6.119   2.881  0.2871  1.7071  1.0171
  690TIP3   OH223560   0.456   1.793  11.842 -0.0902  0.0550 -0.4688
  690TIP3    H123561   0.436   1.771  11.933  3.1240 -0.5144  0.2182
  690TIP3    H223562   0.543   1.833  11.845  0.3446 -0.4358 -3.3306
  691TIP3   OH223563   1.377   2.552   3.764 -0.3493 -0.2878  0.8631
  691TIP3    H123564   1.383   2.459   3.743 -0.5206 -0.7352  2.6550
  691TIP3    H223565   1.359   2.594   3.680 -3.0901 -2.1426  0.4106
  692TIP3   OH223566   0.476   6.212   2.250  0.2419 -0.3094  0.0389
  692TIP3    H123567   0.557   6.219   2.301  1.8499 -1.2528 -2.2223
  692TIP3    H223568   0.496   6.253   2.166 -1.8836  0.0554 -0.3560
  693TIP3   OH223569   2.297   1.480  12.617 -0.2431  0.3764  0.2535
  693TIP3    H123570   2.233   1.431  12.669 -0.8338  1.0652  0.1827
  693TIP3    H223571   2.272   1.571  12.627  1.8792  0.8751  1.8202
  694TIP3   OH223572   3.248   5.168  11.903 -0.8223  0.3891 -0.1555
  694TIP3    H123573   3.238   5.126  11.818  0.7059 -0.7147  0.1522
  694TIP3    H223574   3.302   5.245  11.886 -1.8305  1.0590 -0.3988
  695TIP3   OH223575   6.762   4.960   3.628  0.0981  0.3764  1.1268
  695TIP3    H123576   6.708   4.889   3.662  0.5546 -0.1687  0.7345
  695TIP3    H223577   6.841   4.958   3.683  0.4464  0.0768  0.6195
  696TIP3   OH223578   6.361   0.230  16.518  0.1477  0.5005  0.0766
  696TIP3    H123579   6.348   0.325  16.514  0.3524  0.4956 -1.6027
  696TIP3    H223580   6.339   0.199  16.430  2.6281 -0.6472 -0.2441
  697TIP3   OH223581   1.346   3.115  13.618 -0.3348  0.4041 -0.3470
  697TIP3    H123582   1.378   3.128  13.529 -1.6950  2.0624 -0.6450
  697TIP3    H223583   1.276   3.050  13.609  1.8649 -2.2362  0.1238
  698TIP3   OH223584   5.450   1.259   6.344  0.6991  0.0714 -0.2748
  698TIP3    H123585   5.510   1.257   6.270  0.4031 -1.1465 -0.5042
  698TIP3    H223586   5.367   1.226   6.309 -0.3458  2.3610 -0.1396
  699TIP3   OH223587   2.520   6.525  11.791  0.3807 -0.2254  0.2938
  699TIP3    H123588   2.472   6.596  11.835 -0.1686 -0.7651  0.5809
  699TIP3    H223589   2.612   6.550  11.798  0.1010  1.5387 -1.4854
  700TIP3   OH223590   2.557   4.170   6.010  0.1277 -0.0251 -0.0288
  700TIP3    H123591   2.463   4.188   6.008 -0.3338 -2.0987  0.1733
  700TIP3    H223592   2.562   4.074   6.005  2.2339  0.0561 -0.0125
  701TIP3   OH223593   1.169   5.216  16.598  0.1537 -0.1782  0.2654
  701TIP3    H123594   1.149   5.191  16.507 -1.1332 -0.2713  0.5494
  701TIP3    H223595   1.129   5.147  16.651 -0.4297  0.6542  0.9389
  702TIP3   OH223596   5.725   5.875  13.343  0.1538 -0.0079 -0.1168
  702TIP3    H123597   5.783   5.808  13.304 -0.0774 -0.0175 -0.4498
  702TIP3    H223598   5.769   5.958  13.325  0.7009 -0.1049  0.7489
  703TIP3   OH223599   1.624   6.012   4.650 -0.1485 -0.5266 -0.0143
  703TIP3    H123600   1.592   6.060   4.573 -0.4684 -0.0079  0.4355
  703TIP3    H223601   1.546   5.970   4.686 -0.2780  0.4261  0.8656
  704TIP3   OH223602   4.123   4.706  16.703  0.0797 -0.0331 -0.5190
  704TIP3    H123603   4.121   4.795  16.669  2.2938  0.4121  0.3192
  704TIP3    H223604   4.097   4.715  16.795 -2.7595 -0.7686 -1.1606
  705TIP3   OH223605   0.515   5.428  12.942 -0.5477  0.7346  0.2558
  705TIP3    H123606   0.435   5.434  12.994 -0.9580  1.2425 -0.4102
  705TIP3    H223607   0.581   5.396  13.003 -1.4016 -0.3164  0.6697
  706TIP3   OH223608   0.749   3.111  14.610 -0.2890 -0.2387 -0.3866
  706TIP3    H123609   0.677   3.049  14.618  0.1529 -0.4967  2.7505
  706TIP3    H223610   0.813   3.081  14.675  0.3969  2.9014  0.5190
  707TIP3   OH223611   2.087   3.833  15.875 -0.3743 -0.2469 -0.2421
  707TIP3    H123612   2.118   3.923  15.882 -2.2602  0.4137  0.0400
  707TIP3    H223613   1.993   3.838  15.891 -0.3774 -2.3931  0.8056
  708TIP3   OH223614   5.284   2.428  12.573  0.5182 -0.1092  0.7323
  708TIP3    H123615   5.306   2.459  12.661 -0.0913 -0.6184  1.0710
  708TIP3    H223616   5.303   2.334  12.575  1.5513  0.0657 -0.0229
  709TIP3   OH223617   1.857   3.238  16.411 -0.0812  0.0744 -0.0178
  709TIP3    H123618   1.938   3.194  16.385 -0.0669  0.6307 -1.0023
  709TIP3    H223619   1.804   3.239  16.331 -0.7940  0.2770  0.4494
  710TIP3   OH223620   5.458   2.332  11.388  0.0139  0.0730  0.0679
  710TIP3    H123621   5.487   2.407  11.338  0.8159 -0.5253 -0.3816
  710TIP3    H223622   5.455   2.260  11.325  0.3895 -0.5386  0.7261
  711TIP3   OH223623   4.199   0.133  16.496  0.1325 -0.8644 -0.2175
  711TIP3    H123624   4.223   0.203  16.435 -0.9994 -0.0017  0.2779
  711TIP3    H223625   4.228   0.164  16.581 -1.3513 -0.4481  0.1745
  712TIP3   OH223626   0.677   3.695   4.316  0.0184 -0.2251  0.2187
  712TIP3    H123627   0.656   3.776   4.361 -1.3509 -1.3179  1.6497
  712TIP3    H223628   0.772   3.700   4.301  0.1217  1.1809  1.1625
  713TIP3   OH223629   0.450   2.560  11.633  0.1296  0.1822  0.4551
  713TIP3    H123630   0.424   2.636  11.582 -2.4263 -0.6536  0.3986
  713TIP3    H223631   0.453   2.488  11.570 -2.3359 -0.7079  1.2430
  714TIP3   OH223632   4.762   6.160   3.956  0.1459 -0.1131  0.0745
  714TIP3    H123633   4.819   6.236   3.944 -0.7630  0.6261  0.3222
  714TIP3    H223634   4.673   6.197   3.957 -0.2355 -0.9963  1.5931
  715TIP3   OH223635   6.274   1.870   4.274  0.7118 -0.2266  0.2620
  715TIP3    H123636   6.222   1.848   4.196 -1.8453 -0.6531  1.9361
  715TIP3    H223637   6.361   1.889   4.241 -0.5535  0.7897 -2.8163
  716TIP3   OH223638   3.934   4.857  12.863 -0.0005  0.3144 -0.0353
  716TIP3    H123639   3.854   4.836  12.910  0.7500 -1.1907  0.6261
  716TIP3    H223640   4.004   4.837  12.925  0.9158  0.9423 -0.8443
  717TIP3   OH223641   1.810   1.773  12.696  0.0235  0.1485 -0.2360
  717TIP3    H123642   1.739   1.831  12.722 -0.3724 -0.5672  0.2953
  717TIP3    H223643   1.783   1.686  12.724  0.9305 -0.1991 -0.3814
  718TIP3   OH223644   5.673   3.142   3.976 -0.4090  0.1400 -0.4151
  718TIP3    H123645   5.759   3.101   3.966 -1.0795 -1.0462 -1.6590
  718TIP3    H223646   5.675   3.216   3.914  0.7791  2.0905  1.7876
  719TIP3   OH223647   6.156   0.146  16.321 -0.0774 -0.2561  0.3640
  719TIP3    H123648   6.095   0.195  16.376 -0.5881  1.2951 -1.4683
  719TIP3    H223649   6.113   0.141  16.235  1.4287 -1.0333 -0.3998
  720TIP3   OH223650   5.899   2.102  13.202 -0.0056  0.5538  0.0276
  720TIP3    H123651   5.990   2.072  13.214 -0.3344 -2.3276 -3.1382
  720TIP3    H223652   5.846   2.026  13.223 -1.5421  1.4214 -0.5759
  721TIP3   OH223653   0.831   4.587   4.381  0.0336 -0.1219  0.2352
  721TIP3    H123654   0.841   4.682   4.374  1.8219 -0.1928  1.3230
  721TIP3    H223655   0.884   4.552   4.309 -1.4595 -0.3109 -0.8149
  722TIP3   OH223656   6.243   5.789  14.083 -0.2594 -1.0342  0.0770
  722TIP3    H123657   6.295   5.812  14.161  2.3271 -2.1905 -1.1690
  722TIP3    H223658   6.292   5.828  14.010 -2.2970 -0.4807 -1.0755
  723TIP3   OH223659   0.972   1.180  12.202  0.2203 -0.8445 -0.1841
  723TIP3    H123660   0.922   1.136  12.133 -0.7222 -0.3183  0.1469
  723TIP3    H223661   0.960   1.273  12.184  2.0288 -0.6686 -0.7614
  724TIP3   OH223662   6.465   3.418  14.417  0.0854  0.0570 -0.6248
  724TIP3    H123663   6.522   3.342  14.411  1.7827  0.9575  2.1579
  724TIP3    H223664   6.449   3.429  14.511 -1.4443  2.1833 -1.0539
  725TIP3   OH223665   2.374   3.834  16.102 -0.2212 -0.4902  0.3859
  725TIP3    H123666   2.386   3.865  16.013  2.2407 -0.9360  0.4809
  725TIP3    H223667   2.305   3.889  16.139 -1.6635 -0.6604 -1.9277
  726TIP3   OH223668   6.144   4.067   3.050 -0.5796 -0.0348 -0.2158
  726TIP3    H123669   6.232   4.046   3.018 -0.6597  0.7765 -0.9948
  726TIP3    H223670   6.091   3.991   3.025  0.2590 -1.4425  1.9842
  727TIP3   OH223671   2.330   6.742  12.871 -0.0468  0.0375  0.2314
  727TIP3    H123672   2.255   6.758  12.815  0.0145  0.1375  0.1766
  727TIP3    H223673   2.293   6.722  12.957 -0.1429 -0.2570  0.1197
  728TIP3   OH223674   5.627   0.356   5.435  0.0363 -0.0068 -0.5842
  728TIP3    H123675   5.675   0.316   5.362  4.6013  0.6119  1.7143
  728TIP3    H223676   5.602   0.283   5.490  2.0734 -0.2371  0.1237
  729TIP3   OH223677   6.533   5.031   5.441  0.5098 -0.4205  0.0092
  729TIP3    H123678   6.581   4.991   5.514  1.4798 -3.6291 -2.1778
  729TIP3    H223679   6.601   5.054   5.377 -0.4318  0.9748 -0.5512
  730TIP3   OH223680   6.386   5.124   4.428  0.0432 -0.6262  0.1521
  730TIP3    H123681   6.420   5.171   4.505  0.6443 -1.1732  0.2263
  730TIP3    H223682   6.350   5.043   4.463 -0.2011 -0.6203 -0.0839
  731TIP3   OH223683   4.356   4.247   1.935 -0.8053 -0.0371  0.1693
  731TIP3    H123684   4.348   4.263   2.029  1.7689  3.0404  0.0327
  731TIP3    H223685   4.303   4.316   1.894 -0.8691 -0.5543 -0.6468
  732TIP3   OH223686   5.682   4.090  14.311  0.2447  0.0635 -0.3676
  732TIP3    H123687   5.597   4.088  14.267  0.3466  1.3517 -0.6790
  732TIP3    H223688   5.692   4.003  14.348 -0.0862 -0.9012 -2.4457
  733TIP3   OH223689   5.511   3.864  14.356  0.5435 -0.1672  0.4696
  733TIP3    H123690   5.433   3.872  14.411 -1.9596 -2.4129 -2.3767
  733TIP3    H223691   5.502   3.934  14.292  0.7254 -0.5709 -0.0043
  734TIP3   OH223692   2.484   4.742  16.987 -0.1546 -0.1286  0.4559
  734TIP3    H123693   2.457   4.833  16.973 -0.6012 -0.3576 -0.2281
  734TIP3    H223694   2.405   4.691  16.972  0.3685 -0.7172 -0.3827
  735TIP3   OH223695   5.008   4.064  14.015 -0.0765  0.2982 -0.1249
  735TIP3    H123696   4.985   4.045  13.925  0.5089 -0.2157 -0.1725
  735TIP3    H223697   4.990   3.983  14.062  0.6432  0.2216  0.0222
  736TIP3   OH223698   1.350   4.560   4.115  0.1886  0.2953  0.1692
  736TIP3    H123699   1.322   4.505   4.043 -0.3271  1.2711 -0.4003
  736TIP3    H223700   1.393   4.635   4.073  1.8878 -0.1850  0.9570
  737TIP3   OH223701   0.832   0.147   3.720 -0.3026 -0.4365 -1.2397
  737TIP3    H123702   0.772   0.075   3.737  0.7967 -0.9773  0.4682
  737TIP3    H223703   0.838   0.194   3.803  1.4103 -0.2117 -1.4656
  738TIP3   OH223704   5.161   5.135   0.639  0.2556 -0.0197  0.6599
  738TIP3    H123705   5.222   5.184   0.585 -0.2203  1.8248  1.7003
  738TIP3    H223706   5.086   5.117   0.582  0.9965 -0.7360 -0.1044
  739TIP3   OH223707   6.801   5.682   1.884  0.5433  0.0068 -0.4389
  739TIP3    H123708   6.873   5.742   1.864  0.0034  0.8642  0.1104
  739TIP3    H223709   6.722   5.736   1.876  0.0613 -0.5710  0.3168
  740TIP3   OH223710   2.249   5.135  11.902  0.1057 -0.3062 -0.3027
  740TIP3    H123711   2.209   5.222  11.896 -1.0139 -0.7587  0.2535
  740TIP3    H223712   2.286   5.119  11.815  0.2944  0.7034 -0.4215
  741TIP3   OH223713   4.718   6.088  15.861  0.3820 -0.2121 -0.0111
  741TIP3    H123714   4.797   6.140  15.846  0.0993  0.0081 -0.7890
  741TIP3    H223715   4.678   6.126  15.940  0.0258  0.9533 -0.7339
  742TIP3   OH223716   1.562   3.223   3.299 -1.0797 -0.0593  0.3835
  742TIP3    H123717   1.476   3.250   3.268  0.3626  2.2948 -2.0858
  742TIP3    H223718   1.601   3.177   3.224 -0.1859 -1.1532  1.4761
  743TIP3   OH223719   0.545   0.452  11.622 -0.0553  0.1237 -0.0659
  743TIP3    H123720   0.572   0.362  11.642 -0.6617  0.0152  0.2731
  743TIP3    H223721   0.451   0.453  11.637 -0.5895  0.0581 -2.8264
  744TIP3   OH223722   3.318   4.307   1.666 -0.0329  0.5208 -0.0155
  744TIP3    H123723   3.321   4.214   1.689  1.1072  0.8859  1.4063
  744TIP3    H223724   3.409   4.332   1.651 -0.3115  1.4362 -0.2702
  745TIP3   OH223725   2.514   5.320  17.045 -0.7439 -0.6523  0.5997
  745TIP3    H123726   2.499   5.362  17.129 -0.5883 -2.8532  1.7966
  745TIP3    H223727   2.428   5.286  17.019 -0.6778 -0.4870  0.1458
  746TIP3   OH223728   1.366   1.362  15.569 -0.3407 -0.4795 -0.1599
  746TIP3    H123729   1.352   1.274  15.603 -1.9248  0.1960  1.0727
  746TIP3    H223730   1.449   1.390  15.608 -0.4355 -0.9855  0.4243
  747TIP3   OH223731   4.506   2.272  16.274 -0.2539 -0.1958  0.4389
  747TIP3    H123732   4.486   2.191  16.226 -1.2157 -0.1426  0.7369
  747TIP3    H223733   4.514   2.243  16.365 -2.9972  0.3671  0.9334
  748TIP3   OH223734   2.265   1.338  16.374  0.0875  0.0545 -0.4869
  748TIP3    H123735   2.271   1.428  16.341  0.5717  0.0487 -0.4208
  748TIP3    H223736   2.231   1.288  16.300 -1.1670  0.4585 -0.2112
  749TIP3   OH223737   2.346   6.311  12.109  0.1657 -0.4442 -0.8412
  749TIP3    H123738   2.262   6.311  12.154 -1.1669 -0.7759 -3.1683
  749TIP3    H223739   2.397   6.243  12.153 -0.0670  0.8564  1.6844
  750TIP3   OH223740   6.215   4.811  15.579 -0.6111  0.2286  0.4451
  750TIP3    H123741   6.235   4.754  15.504 -0.1839  0.9713 -0.0298
  750TIP3    H223742   6.282   4.789  15.643 -0.2491  0.4096  0.1377
  751TIP3   OH223743   2.297   1.166   0.880  0.1330 -0.2013  0.0765
  751TIP3    H123744   2.351   1.087   0.877  0.5325  0.0108  1.3637
  751TIP3    H223745   2.312   1.202   0.967 -0.6879  0.8513 -0.2061
  752TIP3   OH223746   0.920   4.933  13.822  0.5558  0.3378 -0.3273
  752TIP3    H123747   1.011   4.941  13.793  0.5557 -0.4461 -0.5725
  752TIP3    H223748   0.912   4.842  13.850  0.7020  1.1431  2.6744
  753TIP3   OH223749   1.158   1.598  11.726 -0.0727 -0.4128  0.0451
  753TIP3    H123750   1.219   1.591  11.799 -0.5522  2.3470  0.8071
  753TIP3    H223751   1.073   1.613  11.767 -0.2539  1.8249 -0.9965
  754TIP3   OH223752   5.631   3.958   0.341  0.8150 -0.1687  0.2996
  754TIP3    H123753   5.650   4.028   0.404  2.3854  0.8738 -1.2331
  754TIP3    H223754   5.548   3.983   0.302  1.4737  1.0301 -0.4051
  755TIP3   OH223755   1.354   6.533  13.987 -0.2529 -0.4643 -0.2690
  755TIP3    H123756   1.441   6.510  14.019 -0.2017  0.4715  0.2864
  755TIP3    H223757   1.363   6.535  13.892 -0.0963 -2.0463 -0.3089
  756TIP3   OH223758   2.907   2.517   4.673  0.7730  0.3266 -0.5627
  756TIP3    H123759   2.878   2.440   4.623  0.4709  0.1440 -0.1066
  756TIP3    H223760   2.998   2.497   4.696  0.3591 -0.3808  0.4926
  757TIP3   OH223761   1.480   3.467   6.115 -0.2750  0.3899  0.6551
  757TIP3    H123762   1.400   3.420   6.137 -0.7710  1.4154  1.1012
  757TIP3    H223763   1.532   3.464   6.196 -0.6590  1.2883  0.9461
  758TIP3   OH223764   5.532   5.435  16.741  0.2141  0.2663  0.5765
  758TIP3    H123765   5.524   5.369  16.672  2.8941 -1.6488  1.8639
  758TIP3    H223766   5.446   5.475  16.747 -1.1716 -2.1773 -1.2523
  759TIP3   OH223767   4.397   6.588  13.073  0.1072  0.1256 -0.8404
  759TIP3    H123768   4.447   6.661  13.108  0.9926 -0.8971  0.1263
  759TIP3    H223769   4.443   6.510  13.105 -3.1233 -0.9414  1.7735
  760TIP3   OH223770   0.311   0.644  13.535 -0.4635  0.1581 -0.2890
  760TIP3    H123771   0.370   0.571  13.551 -0.0304  0.4029 -0.7295
  760TIP3    H223772   0.225   0.614  13.566 -0.4845 -0.8790 -1.2943
  761TIP3   OH223773   1.880   3.074  13.871  0.4369 -0.7699  0.2034
  761TIP3    H123774   1.936   3.069  13.794  2.4384  1.1915  1.4283
  761TIP3    H223775   1.792   3.057  13.838  0.6977  3.1501 -3.2164
  762TIP3   OH223776   3.500   2.540  16.575  0.4029  0.3016 -0.3886
  762TIP3    H123777   3.455   2.492  16.644  1.8983  1.6170  1.6280
  762TIP3    H223778   3.590   2.547  16.606  1.5996 -0.4976 -3.3178
  763TIP3   OH223779   6.436   4.992  15.277  0.2347  0.1768 -0.1791
  763TIP3    H123780   6.488   4.936  15.336 -0.2805 -1.2175 -0.9858
  763TIP3    H223781   6.422   4.938  15.199 -2.3857  0.4901 -0.0193
  764TIP3   OH223782   1.742   0.783   1.615 -0.3226  0.0036 -0.2568
  764TIP3    H123783   1.721   0.690   1.614  2.2227 -0.6375 -0.6005
  764TIP3    H223784   1.784   0.799   1.530 -0.1571  1.3287  0.0568
  765TIP3   OH223785   1.581   4.973   2.272 -0.3498  0.3865  0.2610
  765TIP3    H123786   1.525   4.950   2.198  2.2620  1.5219 -2.2876
  765TIP3    H223787   1.632   4.893   2.288  0.2599  0.6273 -0.3859
  766TIP3   OH223788   6.635   3.531  16.553 -0.0684 -0.1028  0.3900
  766TIP3    H123789   6.552   3.491  16.579  0.3506 -1.3690 -0.1996
  766TIP3    H223790   6.700   3.492  16.611  0.1889  0.6189  0.6059
  767TIP3   OH223791   6.815   6.315  16.721 -0.5561 -0.0844 -0.4777
  767TIP3    H123792   6.722   6.334  16.708 -0.6146 -0.3301 -0.4234
  767TIP3    H223793   6.841   6.372  16.793 -0.6740 -0.0436 -0.4672
  768TIP3   OH223794   6.370   0.840   3.639  0.4668 -0.2528 -0.1450
  768TIP3    H123795   6.461   0.868   3.628  0.9276 -1.3632  0.6311
  768TIP3    H223796   6.372   0.745   3.627 -0.1141 -0.6572  2.2774
  769TIP3   OH223797   1.929   2.912   3.996 -0.4294  0.0684  0.1737
  769TIP3    H123798   1.929   2.917   3.900  1.1136 -1.8277  0.0192
  769TIP3    H223799   2.015   2.948   4.021 -0.8535  0.6213  0.8759
  770TIP3   OH223800   6.459   1.629   4.592 -0.0804  0.0342  0.1908
  770TIP3    H123801   6.371   1.628   4.554  0.1435  1.2378 -0.4192
  770TIP3    H223802   6.515   1.597   4.521  0.0217 -0.4673  0.4892
  771TIP3   OH223803   3.922   1.398  15.167 -0.5554  0.2220  0.6083
  771TIP3    H123804   3.940   1.351  15.249  2.2405  0.4950  0.2633
  771TIP3    H223805   3.954   1.339  15.098  0.4502  1.4391 -0.0074
  772TIP3   OH223806   5.273   4.648  10.942 -0.1049 -0.5777 -0.1857
  772TIP3    H123807   5.302   4.728  10.986  1.0354 -0.5678 -0.9219
  772TIP3    H223808   5.328   4.579  10.977 -0.4683 -0.8947 -0.2292
  773TIP3   OH223809   2.060   5.365   2.280  0.7438 -0.2412  0.1848
  773TIP3    H123810   2.015   5.280   2.283 -0.1314  0.0475 -2.2336
  773TIP3    H223811   2.017   5.417   2.347  0.2487 -1.2499  0.6745
  774TIP3   OH223812   3.855   2.242  16.233 -0.4528  0.3831 -0.1432
  774TIP3    H123813   3.893   2.202  16.155 -1.0186  0.9738 -0.7311
  774TIP3    H223814   3.910   2.211  16.305  1.1471  1.2104 -0.9546
  775TIP3   OH223815   4.948   4.692   4.247 -0.1286  0.2316  0.3920
  775TIP3    H123816   4.863   4.688   4.290  1.2409 -1.5746  3.2028
  775TIP3    H223817   4.994   4.762   4.292  0.1024  0.8602 -0.7749
  776TIP3   OH223818   5.231   5.911  11.683 -0.0691  0.5163  0.1541
  776TIP3    H123819   5.275   5.990  11.651  1.6550 -0.5134 -0.1749
  776TIP3    H223820   5.172   5.886  11.612 -0.8589  1.6488  0.3860
  777TIP3   OH223821   0.763   0.600  16.057  0.5301  0.9683  0.7327
  777TIP3    H123822   0.844   0.642  16.087  0.7147  0.5185  0.8824
  777TIP3    H223823   0.769   0.511  16.091  0.0841  0.8604  0.5325
  778TIP3   OH223824   3.469   4.255  11.952  0.0153  0.3792 -0.6202
  778TIP3    H123825   3.484   4.295  11.866  1.8809 -0.0167 -0.5138
  778TIP3    H223826   3.434   4.168  11.932  1.0694  0.0326 -1.0212
  779TIP3   OH223827   4.474   0.310   4.606  0.4823 -0.4812 -0.1331
  779TIP3    H123828   4.478   0.374   4.535 -0.9473 -0.7230 -0.4560
  779TIP3    H223829   4.417   0.350   4.671  0.0366 -1.1833 -0.0854
  780TIP3   OH223830   3.893   5.385  13.949 -0.1594  0.0972 -0.1211
  780TIP3    H123831   3.988   5.379  13.953 -0.0516  0.9685 -0.9601
  780TIP3    H223832   3.871   5.370  13.857 -0.8231 -0.0248  0.0495
  781TIP3   OH223833   0.755   5.531   2.275 -0.7922  0.1364 -0.0170
  781TIP3    H123834   0.848   5.553   2.271 -0.7079 -0.0664  0.6852
  781TIP3    H223835   0.711   5.607   2.237 -0.2849 -0.2887 -1.5625
  782TIP3   OH223836   6.201   0.586  10.499  0.3080  0.4836 -0.4327
  782TIP3    H123837   6.182   0.657  10.560 -0.0838 -0.9748  1.1990
  782TIP3    H223838   6.296   0.583  10.493  0.3609  0.4433  0.3588
  783TIP3   OH223839   1.195   3.928  16.039  0.7418 -0.2906 -0.0068
  783TIP3    H123840   1.278   3.926  16.087  0.3937  0.3710  0.6403
  783TIP3    H223841   1.162   3.839  16.045  1.6548 -0.7012 -0.7346
  784TIP3   OH223842   5.193   5.759  13.494  0.1561 -0.2848  0.2018
  784TIP3    H123843   5.277   5.741  13.452  0.0180 -1.4164  0.3936
  784TIP3    H223844   5.129   5.749  13.424  0.1996  1.0475 -0.0589
  785TIP3   OH223845   4.828   6.602   0.009 -0.4207  0.6861  0.2648
  785TIP3    H123846   4.817   6.518   0.055 -0.5822  1.5312  1.8445
  785TIP3    H223847   4.806   6.668   0.074 -0.0141  1.9866 -0.8640
  786TIP3   OH223848   1.908   2.361   4.237 -0.0460 -0.0566  0.1437
  786TIP3    H123849   1.956   2.442   4.216  1.1364 -0.4395  1.2260
  786TIP3    H223850   1.950   2.329   4.317 -1.0442 -1.3157  0.1868
  787TIP3   OH223851   1.725   5.292   2.065  0.0796 -0.3126 -0.2468
  787TIP3    H123852   1.748   5.378   2.101 -0.7390 -1.0515  2.2421
  787TIP3    H223853   1.771   5.229   2.120  0.1539 -1.5117 -1.6219
  788TIP3   OH223854   3.173   0.866  11.467  0.2661  0.0867  0.0481
  788TIP3    H123855   3.223   0.835  11.392 -0.6260 -0.7443 -0.2266
  788TIP3    H223856   3.234   0.860  11.541  1.0615  0.6480 -0.5452
  789TIP3   OH223857   1.255   3.283  16.866  0.2230 -0.5790 -0.3448
  789TIP3    H123858   1.288   3.368  16.894  0.9717 -1.1217  0.4635
  789TIP3    H223859   1.249   3.289  16.770 -0.0929  0.4921 -0.2652
  790TIP3   OH223860   6.550   2.443  12.341 -0.4997  0.3763  0.4571
  790TIP3    H123861   6.563   2.482  12.254 -1.3109  0.5707  0.4149
  790TIP3    H223862   6.500   2.508  12.390 -0.4550  0.0703  0.9176
  791TIP3   OH223863   5.216   6.731   0.388 -0.2098  0.1189 -0.2238
  791TIP3    H123864   5.254   6.703   0.304 -1.4571  0.0747 -0.7851
  791TIP3    H223865   5.207   6.826   0.379 -0.2267  0.1297 -0.0894
  792TIP3   OH223866   5.670   6.190  16.810  0.1274 -0.3299  0.2852
  792TIP3    H123867   5.746   6.246  16.796 -0.6194  0.3997 -1.0556
  792TIP3    H223868   5.614   6.238  16.870  0.2189 -0.3629  0.3967
  793TIP3   OH223869   2.520   1.576   3.203  0.0069 -0.4262 -0.1920
  793TIP3    H123870   2.585   1.646   3.202  1.2793 -1.5317  0.5635
  793TIP3    H223871   2.437   1.620   3.219  0.8207  0.8653  0.6655
  794TIP3   OH223872   6.237   3.726  13.316  0.4198  0.0222  0.0808
  794TIP3    H123873   6.260   3.780  13.391  0.2867 -0.4005  0.4327
  794TIP3    H223874   6.175   3.662  13.351  0.6326 -0.4032 -0.3075
  795TIP3   OH223875   2.202   5.282   4.594  0.5476 -0.0197  0.2012
  795TIP3    H123876   2.289   5.303   4.627  1.4087 -0.5772 -1.5859
  795TIP3    H223877   2.176   5.359   4.544 -0.0826  0.2153  0.8732
  796TIP3   OH223878   4.968   2.298  13.541 -0.3006  0.2406  0.2994
  796TIP3    H123879   4.896   2.282  13.480  0.0311  0.8385 -0.2593
  796TIP3    H223880   4.949   2.241  13.616 -1.8795  1.1197  0.6078
  797TIP3   OH223881   6.065   3.380  13.014  0.0084 -0.2894 -0.1516
  797TIP3    H123882   6.042   3.466  12.979 -0.5175 -0.1356  0.5272
  797TIP3    H223883   6.037   3.318  12.947 -0.9394 -0.0035 -0.0415
  798TIP3   OH223884   4.476   1.911   2.359  0.3331 -0.1853  0.1184
  798TIP3    H123885   4.558   1.941   2.399 -0.4469  3.1623 -0.5403
  798TIP3    H223886   4.455   1.977   2.293 -1.9688 -1.9275 -1.0474
  799TIP3   OH223887   4.407   0.798  12.161  0.1552 -0.3248 -0.8599
  799TIP3    H123888   4.428   0.725  12.219  2.6369 -0.0662 -1.3478
  799TIP3    H223889   4.312   0.808  12.170  0.3023 -0.7544  2.5555
  800TIP3   OH223890   0.396   4.169   6.324 -0.7243  0.8516 -0.4978
  800TIP3    H123891   0.389   4.243   6.384  1.1646  1.9021 -1.4891
  800TIP3    H223892   0.489   4.165   6.300 -1.0147 -0.9870 -1.5541
  801TIP3   OH223893   6.830   5.100  16.661  0.0618  0.2636 -0.5222
  801TIP3    H123894   6.829   5.062  16.749  0.8526 -0.2732 -0.7250
  801TIP3    H223895   6.827   5.024  16.602  0.3260  0.5731 -0.9468
  802TIP3   OH223896   2.598   3.685  15.776  0.6523 -0.5034  0.3658
  802TIP3    H123897   2.678   3.696  15.724 -0.2646  0.8640 -0.8345
  802TIP3    H223898   2.537   3.642  15.717  0.0156 -0.1435  0.7511
  803TIP3   OH223899   5.845   5.693  14.265  0.7758  0.4837 -0.2291
  803TIP3    H123900   5.804   5.729  14.343  0.3272  2.1087 -1.1755
  803TIP3    H223901   5.938   5.686  14.287  0.3725 -1.1786  1.1794
  804TIP3   OH223902   1.654   6.468   4.898 -0.3127 -0.2246  0.5930
  804TIP3    H123903   1.680   6.376   4.900 -0.4735 -0.3288 -0.9962
  804TIP3    H223904   1.712   6.508   4.834 -1.5970  0.3137 -0.2721
  805TIP3   OH223905   5.185   2.298   6.514 -0.0477  0.0337  0.0836
  805TIP3    H123906   5.224   2.337   6.592 -1.7300  0.1618  0.8793
  805TIP3    H223907   5.236   2.335   6.442  0.4866  1.1718  1.0103
  806TIP3   OH223908   5.870   0.775  13.935  0.1632 -0.2347 -0.4246
  806TIP3    H123909   5.810   0.849  13.942  0.1330 -0.1050 -1.8194
  806TIP3    H223910   5.956   0.812  13.953  0.1081  0.0763 -0.7957
  807TIP3   OH223911   4.074   3.105  10.854  0.4820  0.1344  0.0903
  807TIP3    H123912   4.117   3.146  10.779  2.5751  0.9468  1.6288
  807TIP3    H223913   3.985   3.142  10.854  0.5324  0.3481 -1.7588
  808TIP3   OH223914   2.276   1.107  11.295 -0.0746  0.1118 -0.4706
  808TIP3    H123915   2.343   1.159  11.249  0.2828 -0.3214 -0.4459
  808TIP3    H223916   2.216   1.173  11.332 -0.6389  0.4635 -1.9433
  809TIP3   OH223917   5.230   6.567  17.015 -0.1164  0.4032  0.1297
  809TIP3    H123918   5.233   6.662  17.005 -1.9187  0.2824 -2.6824
  809TIP3    H223919   5.273   6.533  16.937 -2.8355 -0.9875 -0.9048
  810TIP3   OH223920   1.518   2.468  14.888  0.2053 -0.0449 -0.3122
  810TIP3    H123921   1.472   2.435  14.811  0.0489  0.3016 -0.3711
  810TIP3    H223922   1.456   2.457  14.960 -0.0712  0.6517 -0.4356
  811TIP3   OH223923   6.689   3.027  13.109 -0.3782  0.2101  0.3095
  811TIP3    H123924   6.735   3.104  13.074 -0.4309  0.6862  1.2373
  811TIP3    H223925   6.696   2.961  13.040  2.9956 -0.2643  0.9113
  812TIP3   OH223926   2.266   4.299  14.301  0.5130  0.3829  0.5348
  812TIP3    H123927   2.327   4.362  14.339 -1.2955  1.1279  2.3945
  812TIP3    H223928   2.189   4.351  14.279  0.7565 -0.3769 -2.5783
  813TIP3   OH223929   5.586   5.949   1.595 -0.5413 -0.0194 -0.0522
  813TIP3    H123930   5.496   5.931   1.623 -0.4562  0.5019  0.5800
  813TIP3    H223931   5.580   5.963   1.501 -1.3118  1.1375  0.1500
  814TIP3   OH223932   0.597   4.328   6.055 -0.2121 -0.9644 -0.0134
  814TIP3    H123933   0.502   4.319   6.047 -0.4957  2.0964 -1.6926
  814TIP3    H223934   0.608   4.380   6.135  0.0791 -1.5025  0.2975
  815TIP3   OH223935   5.352   5.423   0.870  0.3474 -0.1800  0.2225
  815TIP3    H123936   5.398   5.380   0.943  0.6436 -0.1285  0.0661
  815TIP3    H223937   5.334   5.511   0.902  0.8406 -0.0260  0.0844
  816TIP3   OH223938   0.565   0.680  13.219 -0.9355  0.2830  0.7786
  816TIP3    H123939   0.561   0.584  13.211  1.6417  0.0893  0.7386
  816TIP3    H223940   0.591   0.709  13.132 -1.3643  0.9784  0.8842
  817TIP3   OH223941   0.661   4.262  12.812  0.1289 -0.1072  0.9006
  817TIP3    H123942   0.748   4.301  12.816 -0.4668  1.1903  3.7094
  817TIP3    H223943   0.677   4.172  12.782  2.1357  0.6904 -0.6798
  818TIP3   OH223944   3.433   6.076   0.048  0.4698 -0.1597 -0.2919
  818TIP3    H123945   3.434   5.984   0.019 -1.2549 -0.0831 -0.6951
  818TIP3    H223946   3.434   6.126  -0.033 -0.9446  0.1162 -0.1659
  819TIP3   OH223947   1.491   0.670   0.552 -0.1736 -0.3124  0.1049
  819TIP3    H123948   1.470   0.737   0.487  1.3337 -1.0196 -1.1967
  819TIP3    H223949   1.417   0.610   0.551 -0.1495 -0.3412 -1.0291
  820TIP3   OH223950   2.150   0.919  12.467  0.6135  0.5254  0.0600
  820TIP3    H123951   2.162   0.986  12.399  0.6226  0.1028 -0.3566
  820TIP3    H223952   2.239   0.898  12.494  0.6157  0.6003  0.1119
  821TIP3   OH223953   1.280   0.935   2.354 -0.0250 -0.3074 -0.2779
  821TIP3    H123954   1.244   0.986   2.282 -0.6534 -0.6762 -0.2284
  821TIP3    H223955   1.211   0.873   2.377  0.1987 -0.2341  0.6071
  822TIP3   OH223956   6.268   1.723  12.906 -0.6044  0.1210  0.0882
  822TIP3    H123957   6.254   1.760  12.819  0.6689  1.5108  0.4358
  822TIP3    H223958   6.231   1.787  12.966 -0.0986 -0.0771  0.6248
  823TIP3   OH223959   0.253   3.470   4.375 -0.0231  0.1880  0.3772
  823TIP3    H123960   0.326   3.525   4.347 -0.5639  0.3031 -0.8710
  823TIP3    H223961   0.176   3.524   4.359 -0.5742 -0.9730 -0.9892
  824TIP3   OH223962   0.830   6.529   4.917 -0.3800 -0.7090  0.6599
  824TIP3    H123963   0.766   6.471   4.877  0.5138 -0.5864 -1.0394
  824TIP3    H223964   0.850   6.593   4.849  0.0353  0.4851  1.8607
  825TIP3   OH223965   1.748   1.311  15.323  0.1936  0.3160  0.2975
  825TIP3    H123966   1.811   1.371  15.283 -0.9435  0.8131 -0.8322
  825TIP3    H223967   1.663   1.353  15.308 -0.5170 -0.9933  0.5632
  826TIP3   OH223968   1.036   2.589   3.678 -0.4594  0.4073 -0.1415
  826TIP3    H123969   1.056   2.510   3.628 -0.4800 -0.6207  1.4207
  826TIP3    H223970   1.092   2.657   3.639  0.2335 -0.5850 -0.9172
  827TIP3   OH223971   5.502   0.855  15.288  0.1334 -0.2079 -0.2692
  827TIP3    H123972   5.572   0.852  15.354  1.4148  0.5382 -1.5342
  827TIP3    H223973   5.517   0.778  15.233 -0.0270 -0.0375 -0.5536
  828TIP3   OH223974   5.666   1.884   6.125  0.4012 -0.1388 -0.2454
  828TIP3    H123975   5.661   1.869   6.220 -3.2288  0.9004 -0.1199
  828TIP3    H223976   5.590   1.939   6.106  0.9445 -0.4202 -3.8164
  829TIP3   OH223977   5.847   3.571   3.393 -1.2141  0.1580  0.0552
  829TIP3    H123978   5.861   3.583   3.487  0.2311  1.6028 -0.2956
  829TIP3    H223979   5.800   3.488   3.387 -0.9777 -0.1873  2.0205
  830TIP3   OH223980   4.398   6.692   4.657 -0.3137  0.5147 -0.1765
  830TIP3    H123981   4.403   6.688   4.561  2.3242 -0.7615 -0.0783
  830TIP3    H223982   4.446   6.771   4.681 -0.7925  0.7227  0.0925
  831TIP3   OH223983   4.620   1.432   4.306 -0.3082 -0.1495 -0.3495
  831TIP3    H123984   4.641   1.525   4.295  0.9290 -0.2270  1.1513
  831TIP3    H223985   4.586   1.425   4.395  1.7666 -1.4606  0.4145
  832TIP3   OH223986   4.808   6.197   1.864 -0.0397 -0.0630 -0.2546
  832TIP3    H123987   4.791   6.246   1.783 -0.1333 -1.4269 -1.0855
  832TIP3    H223988   4.885   6.145   1.845 -0.4218 -0.8632  0.3214
  833TIP3   OH223989   1.424   3.859   6.234 -0.4938 -0.3656 -0.6308
  833TIP3    H123990   1.423   3.780   6.288 -0.4338 -0.8007 -1.2500
  833TIP3    H223991   1.451   3.929   6.293 -2.3213 -0.4463  0.3941
  834TIP3   OH223992   4.056   0.280  11.631 -0.0920  0.1443 -0.1520
  834TIP3    H123993   3.988   0.301  11.566  0.7489 -0.0334 -1.1245
  834TIP3    H223994   4.130   0.250  11.578  1.2846  1.7617  0.7695
  835TIP3   OH223995   4.461   4.257  15.397 -0.0074 -0.2997 -0.8227
  835TIP3    H123996   4.518   4.259  15.475 -0.6686 -1.0808 -0.3035
  835TIP3    H223997   4.372   4.262  15.432 -0.3047 -0.2369 -1.5671
  836TIP3   OH223998   3.202   5.740  12.809 -0.8575 -0.1262 -0.0184
  836TIP3    H123999   3.265   5.790  12.861 -2.3776  0.2680  1.5244
  836TIP3    H224000   3.152   5.690  12.872 -2.1988 -0.3079 -1.1669
  837TIP3   OH224001   2.135   4.876  15.011  0.8689  0.0180 -0.1396
  837TIP3    H124002   2.207   4.844  14.956 -0.2978 -0.5718 -1.3982
  837TIP3    H224003   2.100   4.797  15.052  0.3273  0.1638 -0.3118
  838TIP3   OH224004   2.748   6.098  14.353  0.4426  0.0719 -0.2232
  838TIP3    H124005   2.687   6.028  14.376 -0.6731  1.8668  2.9681
  838TIP3    H224006   2.830   6.053  14.331 -0.2905 -2.2368  1.4145
  839TIP3   OH224007   2.262   5.664  10.536 -0.3039 -0.1864 -0.0422
  839TIP3    H124008   2.278   5.744  10.485 -1.8326  2.1377  2.8330
  839TIP3    H224009   2.347   5.641  10.573 -0.3342  2.2039  1.7659
  840TIP3   OH224010   6.725   5.378   4.034  0.4829  0.0457  0.6981
  840TIP3    H124011   6.821   5.375   4.041  0.4765 -0.3760  0.6625
  840TIP3    H224012   6.693   5.338   4.115  0.3403  0.0867  0.6627
  841TIP3   OH224013   2.445   1.266  12.636 -0.5965 -0.4456  0.1175
  841TIP3    H124014   2.532   1.269  12.596 -0.6602 -0.8894 -0.0630
  841TIP3    H224015   2.410   1.354  12.624  0.4827  0.2439  1.6880
  842TIP3   OH224016   6.769   5.148   1.643 -0.0537  0.3686 -0.0797
  842TIP3    H124017   6.781   5.129   1.736 -0.2999  0.0454 -0.1130
  842TIP3    H224018   6.838   5.212   1.623 -0.8805  1.5347  0.6576
  843TIP3   OH224019   6.028   0.031  14.152 -0.5931 -0.0447  0.3651
  843TIP3    H124020   6.009  -0.001  14.064 -0.2212 -0.8794  0.5854
  843TIP3    H224021   5.992   0.120  14.153 -2.5765 -0.8091  0.0999
  844TIP3   OH224022   5.068   6.751   5.041  0.1075  0.0223  0.4096
  844TIP3    H124023   4.975   6.730   5.049  0.0146 -1.1337 -2.6811
  844TIP3    H224024   5.070   6.830   4.986  0.9548  1.1677  1.9908
  845TIP3   OH224025   6.781   2.208  14.054  0.4018 -0.8964 -0.4512
  845TIP3    H124026   6.806   2.262  13.978  0.7898  0.1999  0.4250
  845TIP3    H224027   6.721   2.264  14.104  1.0120 -1.1678  0.6124
  846TIP3   OH224028   6.334   0.641  14.894 -0.0825  0.5857 -0.4402
  846TIP3    H124029   6.276   0.571  14.866 -0.2132  0.0991  1.0057
  846TIP3    H224030   6.352   0.623  14.986  1.5745  1.2706 -0.5904
  847TIP3   OH224031   2.730   4.679   4.997 -0.7128  0.8467  0.0948
  847TIP3    H124032   2.672   4.754   5.007 -1.4810  0.2439  0.2226
  847TIP3    H224033   2.715   4.648   4.907 -0.7958  0.5194  0.2198
  848TIP3   OH224034   5.179   1.999   3.285  0.3623  0.0279 -0.0918
  848TIP3    H124035   5.252   1.953   3.328  1.6133  0.7884 -1.3276
  848TIP3    H224036   5.139   1.932   3.229  1.2430  0.0476 -0.7614
  849TIP3   OH224037   1.929   3.696  12.613  0.3957 -0.6084  0.5664
  849TIP3    H124038   1.886   3.775  12.645 -0.2330  0.0269 -1.6645
  849TIP3    H224039   1.893   3.625  12.666  1.0880  0.5580  2.7205
  850TIP3   OH224040   4.704   3.526   4.868  0.2144  0.0033  0.1528
  850TIP3    H124041   4.613   3.533   4.838  0.5923  0.4344 -0.9437
  850TIP3    H224042   4.723   3.612   4.905  0.3381  0.1040 -0.1349
  851TIP3   OH224043   3.065   2.096   3.025 -0.5680  0.2958 -0.9914
  851TIP3    H124044   3.151   2.131   3.048 -0.8917  1.7333 -1.8104
  851TIP3    H224045   3.084   2.023   2.966  0.1139 -0.4718  0.1346
  852TIP3   OH224046   2.702   4.103   3.529  0.0982 -0.0214  0.3879
  852TIP3    H124047   2.683   4.084   3.437 -1.7791  3.4663 -0.0767
  852TIP3    H224048   2.634   4.057   3.577 -2.5540  2.6994 -0.4903
  853TIP3   OH224049   3.760   4.484   0.243  0.0932  0.5724 -0.0405
  853TIP3    H124050   3.778   4.450   0.330 -1.1937 -0.6209 -0.2151
  853TIP3    H224051   3.840   4.465   0.193  0.5015  0.4825  0.6327
  854TIP3   OH224052   1.675   5.177   1.212 -0.1004  0.2026  0.4253
  854TIP3    H124053   1.615   5.245   1.242  2.3613  2.2896  0.9911
  854TIP3    H224054   1.691   5.199   1.120  1.4536  1.0460  0.8708
  855TIP3   OH224055   6.630   3.863  14.461  0.3518 -0.4109  0.4343
  855TIP3    H124056   6.655   3.771  14.457 -0.6557 -0.7008  0.6240
  855TIP3    H224057   6.594   3.875  14.549 -2.1049 -0.5393 -0.4788
  856TIP3   OH224058   6.141   6.517   1.525  0.2452 -0.4446 -0.0490
  856TIP3    H124059   6.196   6.470   1.462  2.8053 -0.1710  1.8006
  856TIP3    H224060   6.061   6.466   1.531  1.3913 -2.4399 -0.9292
  857TIP3   OH224061   4.230   5.295  13.984 -0.1859 -0.4273 -0.3608
  857TIP3    H124062   4.219   5.357  14.056 -0.8113 -1.7449  0.7358
  857TIP3    H224063   4.219   5.209  14.025  0.3417 -1.2593 -1.8798
  858TIP3   OH224064   3.898   0.903  14.554  0.1935 -0.0484 -0.1825
  858TIP3    H124065   3.804   0.901  14.571  0.4184  1.0029  1.3382
  858TIP3    H224066   3.926   0.991  14.579  1.6312 -0.4101 -0.3828
  859TIP3   OH224067   2.590   6.765   0.247  0.1106  0.3712  0.1675
  859TIP3    H124068   2.643   6.730   0.319 -0.0710 -0.6467 -0.1793
  859TIP3    H224069   2.626   6.725   0.168 -1.2152 -0.4384 -0.0630
  860TIP3   OH224070   3.216   5.823   3.856  0.5133  0.7126  0.2017
  860TIP3    H124071   3.141   5.835   3.798  0.8876  1.7243 -0.0968
  860TIP3    H224072   3.292   5.823   3.797  0.6599 -2.8336  0.1885
  861TIP3   OH224073   1.725   4.021  15.598  0.1924  0.3735  0.6840
  861TIP3    H124074   1.655   4.010  15.661  0.9780  1.8306  1.8880
  861TIP3    H224075   1.795   3.963  15.629  0.2521  0.4273  0.6512
  862TIP3   OH224076   2.219   0.554  14.540  0.6274  0.0223  0.2558
  862TIP3    H124077   2.220   0.640  14.582 -0.3086 -0.2827  0.9499
  862TIP3    H224078   2.173   0.498  14.603  1.0591 -0.9444 -0.2677
  863TIP3   OH224079   5.448   5.456  13.989  0.5785 -0.4489 -0.1667
  863TIP3    H124080   5.456   5.422  14.078  1.0081 -0.7050 -0.2993
  863TIP3    H224081   5.514   5.526  13.985  0.2802 -0.1651 -0.1586
  864TIP3   OH224082   2.467   0.003  11.107  0.2185  0.0731  0.1274
  864TIP3    H124083   2.452  -0.091  11.102 -0.1106  0.1316  0.0420
  864TIP3    H224084   2.381   0.043  11.094  0.4933  0.4118 -0.7383
  865TIP3   OH224085   0.006   3.939   5.737 -0.1193  0.2639  0.0850
  865TIP3    H124086   0.032   3.910   5.649 -0.3197  0.4277 -0.0282
  865TIP3    H224087  -0.047   3.868   5.771  0.1207  0.1145  0.1497
  866TIP3   OH224088   6.029   4.193   2.329  0.6340 -0.4014  0.2337
  866TIP3    H124089   5.991   4.278   2.308  0.2808 -1.0159 -1.8456
  866TIP3    H224090   6.114   4.214   2.368  0.7329  0.9192 -0.6128
  867TIP3   OH224091   3.934   0.661  16.801  0.1450  0.2343  0.0690
  867TIP3    H124092   3.919   0.678  16.708  0.4123 -0.9663 -0.2158
  867TIP3    H224093   3.847   0.640  16.835  0.1369  0.0430 -0.0621
  868TIP3   OH224094   3.714   2.483   1.525  0.0157 -0.3680 -0.1057
  868TIP3    H124095   3.629   2.470   1.569 -0.6488  0.6905 -1.0102
  868TIP3    H224096   3.753   2.558   1.571  1.4771 -2.1273  1.7049
  869TIP3   OH224097   6.534   4.005  13.721 -0.2246 -0.2772  0.3561
  869TIP3    H124098   6.455   3.979  13.770 -0.0551 -0.1313  0.7083
  869TIP3    H224099   6.602   4.013  13.787  0.4405 -1.7673 -0.1136
  870TIP3   OH224100   4.709   5.817  15.591  0.3237 -0.4087  0.7342
  870TIP3    H124101   4.757   5.900  15.598 -0.7375  0.3040 -0.2034
  870TIP3    H224102   4.631   5.838  15.540 -0.4395 -1.7888  1.2728
  871TIP3   OH224103   3.784   1.163  14.033  0.1185  0.5005  0.2859
  871TIP3    H124104   3.690   1.145  14.039  0.4427 -2.5971 -1.6548
  871TIP3    H224105   3.816   1.152  14.122 -1.0742 -0.7217  0.6078
  872TIP3   OH224106   4.026   5.291   0.408 -0.3522 -0.4285 -0.2876
  872TIP3    H124107   4.018   5.213   0.463  2.0042  0.2632  1.2037
  872TIP3    H224108   3.938   5.326   0.403 -1.0829 -1.9864  0.8704
  873TIP3   OH224109   6.190   5.788   0.701 -0.0494  0.5302  0.2566
  873TIP3    H124110   6.126   5.785   0.629  2.1447 -1.6091 -1.7921
  873TIP3    H224111   6.175   5.707   0.749  0.6381  0.3571  0.1837
  874TIP3   OH224112   4.470   4.093  13.544  0.3333  0.1149 -0.4718
  874TIP3    H124113   4.548   4.121  13.591 -1.4184  2.0721  1.5132
  874TIP3    H224114   4.424   4.036  13.606 -0.4041 -0.0169 -1.1280
  875TIP3   OH224115   1.200   0.933  16.791  0.7774  0.0810  0.4496
  875TIP3    H124116   1.253   1.012  16.803  1.8132 -0.8738  2.7505
  875TIP3    H224117   1.260   0.861  16.808  0.1533 -1.3668 -2.6800
  876TIP3   OH224118   1.066   0.286  16.228  0.0341 -0.6215 -0.1399
  876TIP3    H124119   1.087   0.335  16.149  1.5181  0.8430  1.0825
  876TIP3    H224120   1.113   0.203  16.218  3.9408  1.2035  0.9575
  877TIP3   OH224121   4.945   2.155  13.766  0.3829  0.2799  0.1738
  877TIP3    H124122   4.936   2.186  13.856 -3.2249 -0.4512  0.1824
  877TIP3    H224123   4.955   2.060  13.774  1.6645  0.3534 -0.2162
  878TIP3   OH224124   6.202   6.682   6.066 -0.8732  0.5351  0.4493
  878TIP3    H124125   6.144   6.620   6.020  0.5302  0.0756 -0.7652
  878TIP3    H224126   6.284   6.634   6.078  0.1637  2.0682 -0.2836
  879TIP3   OH224127   1.529   2.201   1.614 -0.3005 -0.5469  0.6295
  879TIP3    H124128   1.509   2.292   1.592 -1.4862 -0.3808  2.2320
  879TIP3    H224129   1.594   2.175   1.549 -0.7445  1.0915 -0.5462
  880TIP3   OH224130   4.877   5.715   3.766 -0.3697 -1.1389 -0.1580
  880TIP3    H124131   4.879   5.621   3.782 -1.2037 -0.9705  1.1904
  880TIP3    H224132   4.908   5.754   3.848  1.1266 -0.2391 -1.1063
  881TIP3   OH224133   4.796   0.111  14.633 -0.1771 -0.4980 -0.2042
  881TIP3    H124134   4.769   0.042  14.693  1.2958 -1.3980 -0.5282
  881TIP3    H224135   4.889   0.125  14.652 -0.1700  0.5814 -0.9347
  882TIP3   OH224136   1.543   1.777   5.587 -0.7548 -0.6783 -0.4741
  882TIP3    H124137   1.563   1.685   5.572 -0.6240 -0.5811 -0.8982
  882TIP3    H224138   1.611   1.825   5.539  1.1521 -0.3462  2.3043
  883TIP3   OH224139   3.229   5.506   1.896 -0.1242 -0.1046 -0.5933
  883TIP3    H124140   3.320   5.518   1.922 -0.1633 -1.5005  0.2881
  883TIP3    H224141   3.230   5.427   1.842 -0.7752  0.0352 -0.8228
  884TIP3   OH224142   0.518   0.455  11.219  0.4351  0.8126  0.1414
  884TIP3    H124143   0.496   0.401  11.295  1.3402 -1.4705 -1.1271
  884TIP3    H224144   0.433   0.481  11.183 -0.1064 -1.2004 -0.1386
  885TIP3   OH224145   0.371   2.575  15.355 -0.2694 -0.1578 -0.0021
  885TIP3    H124146   0.291   2.560  15.405 -0.3853  0.5140  0.0160
  885TIP3    H224147   0.435   2.516  15.394  0.5538  2.4415  3.0209
  886TIP3   OH224148   1.484   2.968   0.857  0.7001  0.1467 -0.8505
  886TIP3    H124149   1.512   2.899   0.918  1.6554  1.0809 -0.2100
  886TIP3    H224150   1.395   2.990   0.886  0.9860  0.2873 -0.0505
  887TIP3   OH224151   2.587   0.521   3.203 -0.4847 -0.2459 -0.6715
  887TIP3    H124152   2.666   0.576   3.206 -0.6789  0.0258 -0.5446
  887TIP3    H224153   2.621   0.431   3.199 -0.1725 -0.1683  0.0923
  888TIP3   OH224154   2.225   2.607   0.710  0.4870  0.5030 -0.2730
  888TIP3    H124155   2.282   2.535   0.684 -1.0768 -0.6459 -0.6176
  888TIP3    H224156   2.213   2.596   0.804  0.5201  0.5355 -0.2646
  889TIP3   OH224157   4.373   5.559  14.083  0.6557  0.1544 -0.0707
  889TIP3    H124158   4.377   5.622  14.011 -0.9334 -0.4665 -0.7566
  889TIP3    H224159   4.448   5.501  14.069  1.8686  1.5826  0.3107
  890TIP3   OH224160   5.024   3.614   0.318  0.2389  0.6312 -0.0165
  890TIP3    H124161   5.007   3.612   0.224 -1.2033 -0.4176  0.2435
  890TIP3    H224162   5.085   3.541   0.333  0.2573  0.6302 -0.0971
  891TIP3   OH224163   5.329   5.148  16.298 -0.1865 -0.5194 -0.1166
  891TIP3    H124164   5.320   5.054  16.283  1.4413 -0.6382 -0.4835
  891TIP3    H224165   5.345   5.185  16.211  0.8797 -0.1412  0.2220
  892TIP3   OH224166   1.973   0.976  16.884  0.0541  0.4552 -0.2256
  892TIP3    H124167   1.979   0.883  16.861 -1.7061  0.2632 -0.0737
  892TIP3    H224168   1.928   1.016  16.810  1.9052  1.4593 -0.8582
  893TIP3   OH224169   3.198   0.668   3.086  0.2424  0.4316  0.6475
  893TIP3    H124170   3.238   0.698   3.004 -0.3791  0.2942  0.2858
  893TIP3    H224171   3.116   0.627   3.059  0.9697 -1.4368  1.1407
  894TIP3   OH224172   6.592   0.185  13.726  0.3940  0.8423 -0.3639
  894TIP3    H124173   6.560   0.109  13.773  2.2305  0.4465  0.3682
  894TIP3    H224174   6.603   0.156  13.636 -0.4024  0.7270 -0.4260
  895TIP3   OH224175   1.390   5.633   2.794  0.2117 -0.3024  0.1439
  895TIP3    H124176   1.482   5.659   2.803  0.1743 -0.0054 -0.3203
  895TIP3    H224177   1.353   5.643   2.881  0.4427  0.2689  0.1771
  896TIP3   OH224178   0.006   3.505   2.624  0.7685  0.0777 -0.0837
  896TIP3    H124179   0.038   3.464   2.704 -1.3634  0.8483  1.2280
  896TIP3    H224180  -0.011   3.596   2.649 -0.3553  0.2268 -1.2976
  897TIP3   OH224181   1.564   4.819  13.288  0.0567 -0.6827 -0.1560
  897TIP3    H124182   1.474   4.843  13.313  0.0143 -0.6666 -0.3173
  897TIP3    H224183   1.607   4.795  13.370  0.5363  1.3597  0.2416
  898TIP3   OH224184   1.465   2.942   5.245  0.0204  0.2238 -0.1104
  898TIP3    H124185   1.411   2.908   5.173  0.2238  1.3731 -0.8370
  898TIP3    H224186   1.402   2.977   5.308 -0.1421 -0.2817  0.0108
  899TIP3   OH224187   2.982   0.812   0.623 -0.6059  0.4781 -0.4485
  899TIP3    H124188   2.916   0.754   0.663  0.2945  0.3742  0.9413
  899TIP3    H224189   2.989   0.885   0.683  1.2148  0.0445 -0.0835
  900TIP3   OH224190   1.294   6.172  12.834  0.5421  0.1126  0.0018
  900TIP3    H124191   1.335   6.230  12.769  2.7375 -2.6549 -1.2927
  900TIP3    H224192   1.222   6.130  12.787  0.4521  0.0619  0.1855
  901TIP3   OH224193   0.445   1.534  12.338  0.0823 -0.0198  0.4563
  901TIP3    H124194   0.362   1.551  12.383 -0.3432  0.5830 -0.5283
  901TIP3    H224195   0.512   1.553  12.404 -0.5147  0.9974  0.7866
  902TIP3   OH224196   4.684   4.962  12.866  0.3101 -0.4612  0.1030
  902TIP3    H124197   4.662   5.025  12.797  2.5419  0.2717  0.0015
  902TIP3    H224198   4.763   4.918  12.835  0.0011 -1.8360  1.1466
  903TIP3   OH224199   0.895   5.885  12.982 -0.1502 -0.2347  0.2303
  903TIP3    H124200   0.822   5.844  13.028 -1.1706  1.1848 -0.0759
  903TIP3    H224201   0.951   5.919  13.052  0.4894 -1.7197  0.4756
  904TIP3   OH224202   6.273   4.530  12.164  0.1056  0.0497 -0.5801
  904TIP3    H124203   6.281   4.619  12.128  1.4580  1.1037  2.0711
  904TIP3    H224204   6.358   4.490  12.147  0.2232  0.0184  0.0544
  905TIP3   OH224205   6.422   3.829   3.273  0.4159 -0.2094  0.0268
  905TIP3    H124206   6.500   3.857   3.226  0.7854  0.5013  1.0204
  905TIP3    H224207   6.368   3.908   3.280  0.9941  0.0667  1.9470
  906TIP3   OH224208   1.166   2.356  11.462  0.2180  0.0773  0.4287
  906TIP3    H124209   1.244   2.353  11.407  0.6358  1.7654  0.8754
  906TIP3    H224210   1.194   2.401  11.542 -0.5210 -1.8108  1.8265
  907TIP3   OH224211   5.129   0.591   4.621  0.4335 -0.6874  0.6283
  907TIP3    H124212   5.035   0.602   4.606  0.4043 -0.1415  1.2098
  907TIP3    H224213   5.166   0.678   4.612  0.4811 -0.3632  3.2144
  908TIP3   OH224214   1.171   5.763  14.412  0.4744  0.2108 -0.0158
  908TIP3    H124215   1.124   5.843  14.436  0.2109 -0.0528  0.3613
  908TIP3    H224216   1.160   5.705  14.487  0.7825 -0.1299 -0.2291
  909TIP3   OH224217   2.908   4.642   1.960 -0.0953  0.0238  0.2232
  909TIP3    H124218   2.915   4.594   2.043 -0.7423 -1.4563 -0.5332
  909TIP3    H224219   2.814   4.645   1.942  0.0397  0.3340 -0.4519
  910TIP3   OH224220   2.356   6.523   4.435  0.0650 -0.2294 -0.6074
  910TIP3    H124221   2.321   6.608   4.459  0.1087 -0.6338  0.9694
  910TIP3    H224222   2.323   6.463   4.502  2.0015 -1.0000 -0.2694
  911TIP3   OH224223   0.283   6.811   6.200  0.0693 -0.2872 -0.2567
  911TIP3    H124224   0.370   6.784   6.171  1.3156  0.5636  2.3895
  911TIP3    H224225   0.296   6.898   6.238 -2.0479  0.0759 -0.2495
  912TIP3   OH224226   0.025   2.019  11.677 -0.4584 -0.0137 -0.3848
  912TIP3    H124227   0.041   1.926  11.661  0.4527  0.4212 -2.3093
  912TIP3    H224228   0.054   2.062  11.597 -0.1988  2.0063  0.7362
  913TIP3   OH224229   0.417   1.011  11.852 -0.0185 -0.1209 -0.1902
  913TIP3    H124230   0.469   0.990  11.929 -0.6051  0.3746  0.3570
  913TIP3    H224231   0.330   1.033  11.887 -1.0043 -2.2339 -1.1684
  914TIP3   OH224232   0.655   4.204   4.477 -0.0957 -0.4059 -0.2358
  914TIP3    H124233   0.633   4.296   4.467 -2.4776 -0.9455 -0.3369
  914TIP3    H224234   0.674   4.194   4.571  0.0867  0.1443 -0.2118
  915TIP3   OH224235   2.165   3.874   3.951 -0.1049 -0.2826 -0.2225
  915TIP3    H124236   2.069   3.874   3.947 -0.0822 -0.7909 -1.0016
  915TIP3    H224237   2.188   3.781   3.942  0.5636  0.0849 -3.4153
  916TIP3   OH224238   5.567   2.218   6.925 -0.1187  0.1225  0.0368
  916TIP3    H124239   5.646   2.264   6.894 -0.2057 -0.2557 -0.7561
  916TIP3    H224240   5.582   2.127   6.902 -0.2150 -0.1754  1.0807
  917TIP3   OH224241   5.232   6.342   1.873  0.0152  0.8710  0.5843
  917TIP3    H124242   5.153   6.390   1.899 -0.5290 -0.0091  0.5855
  917TIP3    H224243   5.239   6.271   1.937 -1.2976 -1.3013 -1.5349
  918TIP3   OH224244   3.160   2.007  14.619 -0.5867 -0.1380  0.4129
  918TIP3    H124245   3.115   2.025  14.701  0.0372  0.0368  0.7162
  918TIP3    H224246   3.090   2.010  14.553 -0.7626  1.9400  0.6258
  919TIP3   OH224247   3.714   4.776   5.550 -0.0037 -0.1077 -0.4595
  919TIP3    H124248   3.640   4.723   5.579  1.1362 -2.0647 -0.9446
  919TIP3    H224249   3.674   4.851   5.507 -1.6874  0.0151  1.1952
  920TIP3   OH224250   5.695   3.072   1.406 -0.0877 -0.0820 -0.3928
  920TIP3    H124251   5.759   3.001   1.404 -0.2158 -0.2044 -0.1660
  920TIP3    H224252   5.739   3.146   1.363 -0.7320 -0.9440 -2.6763
  921TIP3   OH224253   4.313   6.628   5.167  0.1358 -0.2928 -0.2333
  921TIP3    H124254   4.328   6.552   5.111  3.0417 -1.4158  1.8702
  921TIP3    H224255   4.394   6.679   5.160 -0.9301  1.5425  0.0728
  922TIP3   OH224256   0.345   0.147  16.420 -0.0191 -0.7282 -0.2825
  922TIP3    H124257   0.337   0.082  16.489  0.0175  1.2072  1.6289
  922TIP3    H224258   0.429   0.127  16.378  0.1885 -1.6443  0.5453
  923TIP3   OH224259   3.378   1.365   4.223 -0.0284  0.4096 -0.1591
  923TIP3    H124260   3.366   1.419   4.145 -1.0481 -0.4733 -0.6330
  923TIP3    H224261   3.400   1.278   4.189  1.7800  0.5196  0.5949
  924TIP3   OH224262   4.501   6.853  13.630 -0.8192  0.3361 -0.1707
  924TIP3    H124263   4.490   6.773  13.579 -1.9391  0.1645  0.3091
  924TIP3    H224264   4.541   6.915  13.569  0.3794 -0.6736 -0.4464
  925TIP3   OH224265   2.921   3.650   4.204  0.0100  0.2217 -0.1392
  925TIP3    H124266   2.851   3.643   4.270  0.4481  0.4719  0.3563
  925TIP3    H224267   3.002   3.654   4.255  0.2584  1.9362 -0.6191
  926TIP3   OH224268   4.723   1.007  15.115  0.2020 -0.2693 -0.2741
  926TIP3    H124269   4.741   0.982  15.205 -1.0701 -1.6138 -0.3469
  926TIP3    H224270   4.702   1.100  15.119  0.2444 -0.2982  0.8135
  927TIP3   OH224271   1.552   4.243   5.020 -0.0607  0.6575  0.0981
  927TIP3    H124272   1.527   4.152   5.035 -1.7042  1.0366 -0.0862
  927TIP3    H224273   1.538   4.285   5.105  0.2121  0.8300  0.0564
  928TIP3   OH224274   1.447   4.789   1.425  0.6027 -0.0224  0.4166
  928TIP3    H124275   1.469   4.864   1.370 -1.1193  0.8789  0.8717
  928TIP3    H224276   1.526   4.772   1.475  1.4798  0.5790 -0.7134
  929TIP3   OH224277   0.474   3.973  15.141  0.8809  0.2910  0.1932
  929TIP3    H124278   0.526   3.896  15.120  0.7385  0.5099 -0.9996
  929TIP3    H224279   0.439   4.003  15.057 -1.2092  0.1265  0.9362
  930TIP3   OH224280   1.761   3.942  10.946  0.3603  0.3616  0.3338
  930TIP3    H124281   1.726   3.860  10.911  1.0151  0.5510 -0.8468
  930TIP3    H224282   1.765   4.001  10.870 -0.6417  1.7014  1.2627
  931TIP3   OH224283   6.537   0.418  11.710  0.3924 -0.2592 -0.2608
  931TIP3    H124284   6.566   0.348  11.652 -3.3617 -1.0315 -1.4413
  931TIP3    H224285   6.496   0.373  11.783 -0.5699  0.6723 -0.2067
  932TIP3   OH224286   3.357   2.951   0.811 -0.0087 -0.0414 -0.1540
  932TIP3    H124287   3.368   3.010   0.886  1.7877 -1.0154  0.3966
  932TIP3    H224288   3.262   2.944   0.800 -0.2890  1.1106  1.2301
  933TIP3   OH224289   5.731   0.259  14.665 -0.0062  0.5480  0.2902
  933TIP3    H124290   5.678   0.222  14.595  0.7213  0.8070 -0.4146
  933TIP3    H224291   5.724   0.354  14.652 -0.0884  0.6029  0.7349
  934TIP3   OH224292   1.638   3.066   6.602 -0.4772 -0.1764 -0.2110
  934TIP3    H124293   1.553   3.104   6.623 -0.8913  0.0039 -2.0335
  934TIP3    H224294   1.686   3.138   6.560  0.4996 -0.3469  0.5725
  935TIP3   OH224295   0.406   1.206   2.957 -0.3717 -0.4187 -0.0609
  935TIP3    H124296   0.358   1.277   2.913 -0.7744  1.0027  2.5187
  935TIP3    H224297   0.498   1.227   2.942 -0.4338  1.5543  1.8526
  936TIP3   OH224298   5.194   3.161   4.570 -0.0486 -0.0476 -0.5491
  936TIP3    H124299   5.120   3.106   4.541  0.9287 -0.3010 -2.7733
  936TIP3    H224300   5.168   3.250   4.547  0.6908 -0.2397 -2.3314
  937TIP3   OH224301   0.528   3.405  12.383 -0.3696  0.6265 -0.3746
  937TIP3    H124302   0.542   3.458  12.304 -0.4599  2.6480  0.8812
  937TIP3    H224303   0.435   3.383  12.381 -0.7618  2.1222 -0.0265
  938TIP3   OH224304   3.659   0.576  16.138  0.3069  0.0853 -0.3729
  938TIP3    H124305   3.575   0.607  16.103  1.5611  2.1958 -1.7136
  938TIP3    H224306   3.724   0.605  16.074  2.4155  1.3881  2.1727
  939TIP3   OH224307   3.856   4.156   4.167  0.0979  0.3277 -0.0323
  939TIP3    H124308   3.931   4.118   4.212  1.0676  1.1802 -0.8507
  939TIP3    H224309   3.891   4.236   4.127 -1.2082  0.6427 -0.5958
  940TIP3   OH224310   3.354   6.095   2.341 -0.2258 -0.1077  0.4491
  940TIP3    H124311   3.264   6.071   2.364 -0.3460 -0.5173 -0.4138
  940TIP3    H224312   3.408   6.033   2.390 -0.4039  0.1046  0.9275
  941TIP3   OH224313   2.772   6.258  14.919 -0.3081  0.4147  0.0315
  941TIP3    H124314   2.735   6.176  14.887  0.0991  0.2794 -0.1094
  941TIP3    H224315   2.841   6.279  14.855 -0.3239  0.7974  0.1380
  942TIP3   OH224316   6.049   1.670  13.542  0.0116  0.3479  0.0461
  942TIP3    H124317   6.000   1.716  13.610  1.6614  1.6712  0.4118
  942TIP3    H224318   6.138   1.665  13.576  0.7429  0.4949 -1.7429
  943TIP3   OH224319   1.731   1.053  11.500  0.0271 -0.9274 -0.0148
  943TIP3    H124320   1.793   0.983  11.519  1.9484  0.3726 -1.1120
  943TIP3    H224321   1.733   1.109  11.578 -1.1226 -1.7811  0.6522
  944TIP3   OH224322   3.304   4.054   1.978  0.4752 -0.4026  0.2297
  944TIP3    H124323   3.220   4.033   1.937  1.0982 -0.9381 -0.8053
  944TIP3    H224324   3.280   4.106   2.055 -0.6824  1.9778 -1.5929
  945TIP3   OH224325   2.676   4.343   1.536 -0.6405 -0.0488 -0.1159
  945TIP3    H124326   2.753   4.298   1.571 -0.2505 -0.1531 -1.0660
  945TIP3    H224327   2.636   4.279   1.477 -0.3425  0.6641 -1.1169
  946TIP3   OH224328   0.280   2.020  15.199 -0.1162 -0.4817 -0.2391
  946TIP3    H124329   0.321   1.971  15.128 -1.5654 -0.2960 -1.2433
  946TIP3    H224330   0.225   1.955  15.244 -0.4575 -0.2390 -0.3036
  947TIP3   OH224331   6.682   6.281  11.957  0.1389  0.0332  0.4238
  947TIP3    H124332   6.698   6.294  11.863 -0.4356 -3.2175 -0.2429
  947TIP3    H224333   6.763   6.310  11.999  1.0094  0.1361 -1.2088
  948TIP3   OH224334   1.540   2.353   1.301 -0.2469  0.6184 -0.3852
  948TIP3    H124335   1.505   2.395   1.380  0.0458 -0.9299  0.6030
  948TIP3    H224336   1.629   2.385   1.295 -0.6617  1.7385 -0.8357
  949TIP3   OH224337   5.863   2.873  14.566 -0.0511  0.0497 -0.4120
  949TIP3    H124338   5.936   2.811  14.566  0.1629  0.2638  0.9561
  949TIP3    H224339   5.787   2.820  14.544  0.6003 -0.0252 -2.6424
  950TIP3   OH224340   3.755   2.930   1.968  0.1241 -0.1362  0.0769
  950TIP3    H124341   3.743   3.015   2.011  1.3815  0.5223 -0.8353
  950TIP3    H224342   3.841   2.935   1.928 -0.3957 -1.2801 -1.2677
  951TIP3   OH224343   5.108   5.552  10.700  0.5566  0.7193 -0.3182
  951TIP3    H124344   5.032   5.512  10.658  0.2322  1.9756 -0.9961
  951TIP3    H224345   5.150   5.481  10.748 -2.1030  0.3417  1.6625
  952TIP3   OH224346   4.763   0.622  13.337 -0.0837 -0.0714  0.1698
  952TIP3    H124347   4.723   0.709  13.342  1.2607  0.5369  0.7149
  952TIP3    H224348   4.854   0.638  13.311  0.1295 -1.3347  0.0579
  953TIP3   OH224349   3.939   0.212  16.340  0.0624 -0.0650 -0.1943
  953TIP3    H124350   3.966   0.303  16.331 -0.0276  0.0940  1.0342
  953TIP3    H224351   3.885   0.196  16.263  1.6586  0.3182 -1.4557
  954TIP3   OH224352   5.600   4.391   2.006 -0.1056 -0.1671 -0.3991
  954TIP3    H124353   5.658   4.316   2.017 -0.2933 -0.2097  0.3342
  954TIP3    H224354   5.576   4.416   2.095 -2.0218 -0.7867 -0.7029
  955TIP3   OH224355   3.868   4.174   1.697  0.1813  0.0761 -0.2885
  955TIP3    H124356   3.882   4.188   1.790 -0.6533 -0.9362  0.0077
  955TIP3    H224357   3.953   4.192   1.657  0.9763 -0.9662  0.8528
  956TIP3   OH224358   4.130   2.826  16.645 -0.3820 -0.3606  0.2400
  956TIP3    H124359   4.104   2.777  16.723  2.3159 -1.4690  0.5442
  956TIP3    H224360   4.119   2.763  16.573 -1.3249  0.1390 -0.0671
  957TIP3   OH224361   3.503   2.763   2.447  0.4414  0.0835 -0.2032
  957TIP3    H124362   3.499   2.704   2.372  1.2692  0.3803 -0.4952
  957TIP3    H224363   3.424   2.816   2.441  1.3416  1.3535 -1.9446
  958TIP3   OH224364   4.612   5.154   1.113 -0.5393  0.1292 -0.2695
  958TIP3    H124365   4.646   5.197   1.034 -0.9181 -0.0388 -0.5289
  958TIP3    H224366   4.529   5.200   1.130  0.8075  2.0723  1.6450
  959TIP3   OH224367   1.684   0.919   2.981 -0.0876 -0.1240 -0.3960
  959TIP3    H124368   1.677   0.871   3.064  1.3858  0.1645 -0.0665
  959TIP3    H224369   1.692   0.851   2.914 -2.5784 -0.3931 -0.5013
  960TIP3   OH224370   4.703   3.441   1.439  0.0163  0.4527  0.5725
  960TIP3    H124371   4.695   3.511   1.375  0.9066  0.5206  0.5144
  960TIP3    H224372   4.614   3.424   1.468 -0.1592  2.0926  1.1146
  961TIP3   OH224373   1.812   5.306  14.986  0.8000  0.3401  0.1067
  961TIP3    H124374   1.807   5.256  15.067  2.4677  0.1961  0.1386
  961TIP3    H224375   1.771   5.390  15.007  2.1314  0.6948  1.4128
  962TIP3   OH224376   2.708   5.468  11.101 -0.5102  0.1014 -0.3037
  962TIP3    H124377   2.798   5.437  11.105 -0.5507  0.1195  1.2584
  962TIP3    H224378   2.656   5.390  11.081 -0.1864  0.0125 -0.7907
  963TIP3   OH224379   4.657   5.734   0.367  0.4160 -0.6003 -1.1228
  963TIP3    H124380   4.640   5.640   0.377 -0.1495 -0.4686 -0.7690
  963TIP3    H224381   4.704   5.757   0.447  0.3693 -0.5432 -1.1120
  964TIP3   OH224382   6.228   6.432  10.994  0.0813 -0.2459 -0.6324
  964TIP3    H124383   6.271   6.510  10.958 -1.7784  0.8984 -0.5214
  964TIP3    H224384   6.147   6.466  11.033 -1.4726 -2.4037 -1.7884
  965TIP3   OH224385   5.744   3.995   0.744  0.2071 -0.0138  0.0254
  965TIP3    H124386   5.741   4.065   0.810  0.1257  0.0929 -0.0890
  965TIP3    H224387   5.837   3.978   0.732  0.2003 -0.7284  0.8892
  966TIP3   OH224388   6.728   6.331  14.124  0.7775  0.3950 -0.7315
  966TIP3    H124389   6.685   6.271  14.063  0.3016 -0.1635  0.1436
  966TIP3    H224390   6.713   6.418  14.085 -1.6217  0.2846 -0.2141
  967TIP3   OH224391   3.028   0.622  16.575  0.1835 -0.4567 -0.5852
  967TIP3    H124392   2.993   0.649  16.659 -0.2781 -2.3685 -0.1104
  967TIP3    H224393   3.013   0.697  16.517 -0.0983  0.6338  0.8453
  968TIP3   OH224394   0.562   3.784  12.918  0.4042 -0.5770  0.1654
  968TIP3    H124395   0.470   3.795  12.944  0.7437 -0.2910  1.3222
  968TIP3    H224396   0.559   3.733  12.838 -0.7883 -0.1931 -0.0511
  969TIP3   OH224397   6.300   4.716  13.769  0.2203 -0.8383 -0.3526
  969TIP3    H124398   6.271   4.758  13.850 -0.4210 -1.5241 -0.2263
  969TIP3    H224399   6.288   4.623  13.784  0.3660 -0.9896 -1.1354
  970TIP3   OH224400   5.414   6.325  11.640  0.4903  0.8522  0.1872
  970TIP3    H124401   5.329   6.327  11.596  0.7394  0.7197 -0.3042
  970TIP3    H224402   5.407   6.392  11.708 -0.3028  0.2675  0.7059
  971TIP3   OH224403   0.584   1.797   5.064 -0.2257 -0.1448  0.6376
  971TIP3    H124404   0.560   1.719   5.113 -0.3197 -0.8115 -0.4314
  971TIP3    H224405   0.656   1.835   5.113  1.6225 -2.3596 -0.1675
  972TIP3   OH224406   1.164   0.360  16.480 -0.1272 -0.2626 -0.4862
  972TIP3    H124407   1.132   0.318  16.400  1.5203 -1.3174 -0.6243
  972TIP3    H224408   1.250   0.321  16.495 -0.1111  0.4185  1.4284
  973TIP3   OH224409   0.488   0.664  10.840 -0.1299 -0.0064  0.1694
  973TIP3    H124410   0.527   0.578  10.824 -1.7526 -0.7716  0.0747
  973TIP3    H224411   0.399   0.657  10.804 -0.1803  1.8388 -0.1610
  974TIP3   OH224412   5.635   2.945  14.321  0.0048 -0.1445  0.6852
  974TIP3    H124413   5.719   2.934  14.365  0.5462 -1.1193 -0.5056
  974TIP3    H224414   5.637   3.034  14.286 -0.0763  0.3370  1.8716
  975TIP3   OH224415   5.404   4.489  11.448  0.3133 -0.4508 -0.1486
  975TIP3    H124416   5.385   4.575  11.486  0.5371 -0.7122  0.5657
  975TIP3    H224417   5.319   4.456  11.417 -0.0968 -0.7949  1.2995
  976TIP3   OH224418   2.808   2.242   4.170  0.0818 -0.6401 -0.1876
  976TIP3    H124419   2.888   2.269   4.126 -0.8051  0.8086 -1.0106
  976TIP3    H224420   2.828   2.247   4.263  0.9864 -0.4324 -0.3825
  977TIP3   OH224421   0.441   6.208   0.918  0.0293 -0.0465 -0.8638
  977TIP3    H124422   0.435   6.113   0.929  0.7190  0.0758  1.0390
  977TIP3    H224423   0.524   6.231   0.960 -0.8611  1.5721  0.1139
  978TIP3   OH224424   3.282   3.586   0.465  0.5879 -0.3315  0.3272
  978TIP3    H124425   3.261   3.507   0.416 -0.6566 -0.2650  0.7327
  978TIP3    H224426   3.378   3.590   0.464  0.7330 -2.3481  1.0794
  979TIP3   OH224427   3.029   6.482   4.375 -0.5197 -0.8829 -0.3855
  979TIP3    H124428   3.016   6.390   4.351 -2.6520 -0.4532 -1.0679
  979TIP3    H224429   2.975   6.531   4.313 -1.2036  0.6931  1.3713
  980TIP3   OH224430   1.387   4.497  16.831  0.8791  0.2485  0.1833
  980TIP3    H124431   1.317   4.435  16.853  1.8101 -0.0312  2.7502
  980TIP3    H224432   1.365   4.527  16.743 -1.3791 -1.2897  0.1118
  981TIP3   OH224433   6.043   6.281  12.094 -0.1547 -0.3003 -0.0030
  981TIP3    H124434   5.979   6.341  12.131 -0.3398  0.7229 -1.8980
  981TIP3    H224435   6.008   6.194  12.113 -1.2632  0.2212  0.4111
  982TIP3   OH224436   5.993   3.558   3.154 -0.0235 -0.1320  0.4959
  982TIP3    H124437   5.941   3.547   3.234 -0.6943 -0.1379  0.0641
  982TIP3    H224438   5.934   3.601   3.093  0.5326 -0.0093  0.0407
  983TIP3   OH224439   5.918   3.089  11.332 -0.1430  0.0884 -0.2992
  983TIP3    H124440   5.937   3.153  11.263  0.2151  0.5922  0.2649
  983TIP3    H224441   5.839   3.044  11.301  0.9882 -0.9306 -1.8945
  984TIP3   OH224442   3.468   4.190   5.415  0.7624 -0.5878  0.2450
  984TIP3    H124443   3.526   4.238   5.474  0.8722 -0.1920 -0.1720
  984TIP3    H224444   3.392   4.248   5.404 -0.3509 -1.6951  1.8587
  985TIP3   OH224445   4.232   5.738   2.178  0.2562  0.3035  0.1044
  985TIP3    H124446   4.166   5.679   2.142 -1.3172  0.3031  2.7650
  985TIP3    H224447   4.313   5.712   2.134 -0.7526 -2.4715 -0.3337
  986TIP3   OH224448   1.679   2.132  16.393 -0.3353  0.6122 -0.3006
  986TIP3    H124449   1.676   2.207  16.333  1.6868 -0.1792 -1.4624
  986TIP3    H224450   1.771   2.122  16.414 -0.6458 -1.1495  0.3761
  987TIP3   OH224451   6.412   2.854   2.041  0.0944 -0.0364  0.0524
  987TIP3    H124452   6.426   2.782   2.102  0.4883  1.8028  2.2879
  987TIP3    H224453   6.341   2.824   1.984  0.0561 -2.0462  1.0712
  988TIP3   OH224454   2.519   2.682   6.072 -0.2464  0.2724  0.2066
  988TIP3    H124455   2.547   2.764   6.115 -0.0182 -0.0780  0.7419
  988TIP3    H224456   2.481   2.630   6.143 -1.1571  0.2480 -0.2934
  989TIP3   OH224457   3.484   6.433   6.205  0.0258  0.1137 -0.0838
  989TIP3    H124458   3.507   6.500   6.141  0.2285  0.0955 -0.0328
  989TIP3    H224459   3.410   6.468   6.253 -1.6913 -0.8374 -1.8952
  990TIP3   OH224460   5.420   1.801   4.222  0.2968 -0.5471  0.3703
  990TIP3    H124461   5.363   1.879   4.224  1.6929  0.5140 -0.0149
  990TIP3    H224462   5.375   1.740   4.164 -0.5365  0.1994  0.2024
  991TIP3   OH224463   5.827   5.659  15.388 -0.0045  0.1131  0.5365
  991TIP3    H124464   5.736   5.682  15.406  0.1106  0.3492  0.8247
  991TIP3    H224465   5.862   5.733  15.338 -0.7651 -1.2168 -2.1682
  992TIP3   OH224466   5.299   2.496  11.103 -0.1144  0.1916  0.1217
  992TIP3    H124467   5.283   2.426  11.039  0.8644  0.3820 -0.3472
  992TIP3    H224468   5.394   2.499  11.112 -0.1823  1.0198  0.6499
  993TIP3   OH224469   3.791   4.992  11.496 -0.2214 -0.1057  0.0978
  993TIP3    H124470   3.738   5.031  11.428 -1.1351 -2.1406 -0.4406
  993TIP3    H224471   3.803   5.061  11.561 -0.4034  1.4805 -1.5018
  994TIP3   OH224472   4.233   4.506   5.430 -0.3023  0.1257 -0.2864
  994TIP3    H124473   4.197   4.563   5.362 -2.2549 -3.3314 -2.4664
  994TIP3    H224474   4.171   4.513   5.502 -1.3052 -0.2303 -1.0883
  995TIP3   OH224475   6.114   2.338  15.583  0.0410 -0.3800 -0.4064
  995TIP3    H124476   6.039   2.284  15.610  0.1184 -0.2967 -0.0110
  995TIP3    H224477   6.120   2.405  15.651 -0.3962  0.4628 -1.1807
  996TIP3   OH224478   4.129   2.313  13.794  0.2579 -0.5514  0.2982
  996TIP3    H124479   4.132   2.298  13.700 -0.8727  1.0695 -0.0411
  996TIP3    H224480   4.157   2.404  13.805  0.4400 -0.7304  1.5426
  997TIP3   OH224481   0.837   5.372   2.588 -0.4023 -0.5208  0.1000
  997TIP3    H124482   0.883   5.322   2.521  1.1476 -1.3483  1.7032
  997TIP3    H224483   0.766   5.315   2.616 -1.2088 -0.0730 -0.9607
  998TIP3   OH224484   5.476   0.581   2.210 -0.1291 -0.4093 -0.3556
  998TIP3    H124485   5.386   0.597   2.239 -0.4600 -0.5084 -1.2861
  998TIP3    H224486   5.508   0.666   2.182  0.6221 -0.0714  1.3964
  999TIP3   OH224487   4.259   1.906   4.015 -0.0028  0.2993 -0.3881
  999TIP3    H124488   4.203   1.981   4.037 -2.0619 -1.3588  0.3237
  999TIP3    H224489   4.314   1.893   4.092 -2.4673 -1.3095  1.2268
 1000TIP3   OH224490   3.549   5.274   3.670 -0.4014  0.2609  0.1782
 1000TIP3    H124491   3.585   5.195   3.629 -1.4181 -0.6025  0.9095
 1000TIP3    H224492   3.454   5.265   3.661 -0.5425  1.2947  0.4815
 1001TIP3   OH224493   1.295   0.477   1.602 -0.4124 -0.2426  0.7863
 1001TIP3    H124494   1.204   0.474   1.631 -0.1885  0.7735  1.6416
 1001TIP3    H224495   1.343   0.517   1.675  0.6686 -0.4438  0.2174
 1002TIP3   OH224496   4.909   1.220   1.809 -0.3603  0.0271  0.2640
 1002TIP3    H124497   4.963   1.286   1.852 -0.3123 -0.5129  1.0473
 1002TIP3    H224498   4.820   1.253   1.819 -0.3875 -0.2962  1.1520
 1003TIP3   OH224499   1.519   5.362  13.038 -0.1255 -0.2603 -0.5739
 1003TIP3    H124500   1.426   5.347  13.025  0.0723 -2.1193 -0.1447
 1003TIP3    H224501   1.532   5.356  13.132  0.4836 -0.3598 -0.6555
 1004TIP3   OH224502   2.692   1.605  13.086  0.0656  0.4546  0.3581
 1004TIP3    H124503   2.654   1.530  13.040  0.7252 -0.8073  1.7820
 1004TIP3    H224504   2.684   1.678  13.024 -1.8846 -0.4436 -0.5438
 1005TIP3   OH224505   4.047   2.644  16.181 -0.6412 -0.9081 -0.0241
 1005TIP3    H124506   3.966   2.659  16.132  0.3969 -0.1971 -1.6194
 1005TIP3    H224507   4.112   2.623  16.114  0.5720 -1.1292  1.1812
 1006TIP3   OH224508   5.698   6.441   2.281  0.4217 -0.7819 -0.0260
 1006TIP3    H124509   5.722   6.414   2.369  1.4564 -0.7001 -0.2771
 1006TIP3    H224510   5.677   6.534   2.290  1.1749 -0.6108  0.0187
 1007TIP3   OH224511   3.418   1.973   1.002 -0.0239 -0.2843  0.6154
 1007TIP3    H124512   3.404   1.981   1.096  3.0289  0.6498  1.0747
 1007TIP3    H224513   3.502   1.928   0.993  1.3933  2.4427 -1.5454
 1008TIP3   OH224514   2.617   0.099   1.424  0.3018 -0.4411  0.1058
 1008TIP3    H124515   2.528   0.071   1.445  1.3162 -3.1193  1.2869
 1008TIP3    H224516   2.660   0.109   1.509  1.3604 -0.0119 -0.4630
 1009TIP3   OH224517   0.431   3.097   1.926  0.5892 -0.3883 -0.3085
 1009TIP3    H124518   0.354   3.055   1.887 -0.8489  0.2282  1.6868
 1009TIP3    H224519   0.419   3.190   1.909  0.3244 -0.1884  0.8645
 1010TIP3   OH224520   0.595   4.756   4.587  0.2864 -0.0922 -0.0126
 1010TIP3    H124521   0.584   4.809   4.508 -0.3944 -0.6634 -0.3092
 1010TIP3    H224522   0.511   4.763   4.633  0.2859 -0.6935  0.0810
 1011TIP3   OH224523   2.354   0.986   3.773 -0.8384  0.0604 -0.3788
 1011TIP3    H124524   2.402   1.016   3.850 -0.6011  0.3832 -0.6508
 1011TIP3    H224525   2.310   1.064   3.741 -0.9203 -0.0712 -0.5845
 1012TIP3   OH224526   0.678   1.638   2.713 -0.1963  0.2714 -0.3198
 1012TIP3    H124527   0.684   1.544   2.729 -0.2666  0.5573  1.6619
 1012TIP3    H224528   0.722   1.651   2.628  1.6100 -1.3102  0.2930
 1013TIP3   OH224529   2.098   3.443  16.445  0.1347  0.1178 -0.2602
 1013TIP3    H124530   2.039   3.404  16.381 -1.4264 -0.6477  1.5725
 1013TIP3    H224531   2.070   3.535  16.451  0.9114  0.4507 -1.3067
 1014TIP3   OH224532   4.698   4.110  11.766 -0.2763 -0.3666 -0.4616
 1014TIP3    H124533   4.645   4.058  11.705  2.2132 -2.6745 -0.8592
 1014TIP3    H224534   4.751   4.167  11.709 -2.1523  1.9128 -0.0714
 1015TIP3   OH224535   5.514   0.547   1.260 -0.4852 -0.0261 -0.3607
 1015TIP3    H124536   5.488   0.459   1.288 -0.5635  0.2902  0.6113
 1015TIP3    H224537   5.572   0.533   1.186 -1.6645 -0.8385 -1.1611
 1016TIP3   OH224538   6.260   3.149  11.085  0.0970 -0.1737  0.7223
 1016TIP3    H124539   6.305   3.077  11.041 -0.0338 -0.0514  0.3833
 1016TIP3    H224540   6.330   3.209  11.111  0.1983 -0.3793  0.9283
 1017TIP3   OH224541   2.222   0.676   1.243  0.1038  0.5003  0.4574
 1017TIP3    H124542   2.192   0.672   1.152 -0.6557  2.3825  0.5667
 1017TIP3    H224543   2.146   0.647   1.294  0.4323 -0.2805  0.4985
 1018TIP3   OH224544   6.522   1.489  16.819  0.0246 -0.2751 -0.1475
 1018TIP3    H124545   6.550   1.463  16.906 -0.9885 -0.3288  0.1747
 1018TIP3    H224546   6.569   1.571  16.802 -0.7693  0.4448  1.0040
 1019TIP3   OH224547   1.054   4.467  15.308 -0.4714  0.3583  0.1244
 1019TIP3    H124548   0.987   4.515  15.358 -1.5855 -0.1294 -0.8527
 1019TIP3    H224549   1.033   4.375  15.323 -0.9963  0.1948 -1.4270
 1020TIP3   OH224550   5.772   4.207   6.236 -0.2398  0.1489  0.2039
 1020TIP3    H124551   5.818   4.285   6.268 -0.6615  0.6812 -0.4799
 1020TIP3    H224552   5.680   4.222   6.259 -0.2017 -0.5479  0.8463
 1021TIP3   OH224553   5.856   0.309   5.897  0.5437 -0.0035 -0.3241
 1021TIP3    H124554   5.898   0.345   5.975 -1.3314  1.1706  0.2171
 1021TIP3    H224555   5.881   0.368   5.826  2.0874 -0.9572 -0.6116
 1022TIP3   OH224556   3.656   0.491   3.732  0.1207  0.0065  0.1635
 1022TIP3    H124557   3.687   0.519   3.645  0.4933 -0.5844  0.1036
 1022TIP3    H224558   3.591   0.557   3.756 -0.5536 -0.2366 -0.9004
 1023TIP3   OH224559   3.972   1.393   0.871  0.4451 -0.7170  0.2344
 1023TIP3    H124560   3.943   1.448   0.944  1.4429 -1.5099  1.2805
 1023TIP3    H224561   4.023   1.323   0.913  0.8086 -1.3602 -1.2099
 1024TIP3   OH224562   1.614   1.580   4.011  0.6792  0.0311  0.2433
 1024TIP3    H124563   1.624   1.633   3.932  2.0764 -0.6898 -0.1157
 1024TIP3    H224564   1.697   1.531   4.016 -0.0621 -1.1611  1.2352
 1025TIP3   OH224565   3.815   1.843   3.082  0.3570 -0.1466 -0.1361
 1025TIP3    H124566   3.792   1.750   3.083  0.8260 -0.2742 -0.6807
 1025TIP3    H224567   3.906   1.845   3.051  0.2952  0.5046 -0.2875
 1026TIP3   OH224568   5.287   4.407  13.970 -0.6716  0.0483  0.4978
 1026TIP3    H124569   5.298   4.492  13.927 -1.7505  0.6426  1.3713
 1026TIP3    H224570   5.376   4.374  13.979 -0.3283  0.4026 -1.1840
 1027TIP3   OH224571   5.608   3.079  13.340 -0.1375 -0.2361 -0.2426
 1027TIP3    H124572   5.688   3.105  13.385 -0.3968 -0.8340  0.5955
 1027TIP3    H224573   5.631   2.998  13.295 -0.7649 -1.5552  1.6655
 1028TIP3   OH224574   1.768   0.141  16.861  0.1741  0.3292 -0.4124
 1028TIP3    H124575   1.827   0.087  16.808  0.6213  0.6251 -0.2252
 1028TIP3    H224576   1.821   0.165  16.937 -0.4116  0.0329  0.0976
 1029TIP3   OH224577   1.302   6.697  16.185 -0.0465  0.9966  0.0354
 1029TIP3    H124578   1.328   6.635  16.253 -2.1738 -0.5461 -0.4352
 1029TIP3    H224579   1.367   6.687  16.116 -0.2411 -0.5990  0.0563
 1030TIP3   OH224580   2.449   3.393   1.662 -0.2938  0.4360 -0.0767
 1030TIP3    H124581   2.453   3.314   1.716  0.8831  0.4913 -0.0528
 1030TIP3    H224582   2.373   3.381   1.606 -0.5007 -0.4216  0.3813
 1031TIP3   OH224583   2.855   2.755  15.622 -0.4189  0.6614  0.0026
 1031TIP3    H124584   2.791   2.772  15.691 -0.1534  3.1060 -0.2668
 1031TIP3    H224585   2.923   2.704  15.664 -0.5986  1.5147  1.3868
 1032TIP3   OH224586   4.298   3.008   1.188  0.3354 -0.6638 -0.1856
 1032TIP3    H124587   4.234   2.966   1.245  0.6882 -2.6555 -1.1846
 1032TIP3    H224588   4.256   3.007   1.101 -0.2549  2.4263 -0.0673
 1033TIP3   OH224589   4.094   6.030  12.674  0.5753 -0.3258 -0.1517
 1033TIP3    H124590   4.130   5.993  12.755  0.9710 -0.1221 -0.2311
 1033TIP3    H224591   4.169   6.072  12.631 -0.0102  1.3070  0.3428
 1034TIP3   OH224592   5.572   6.737   0.033  0.3914  0.1149 -1.1248
 1034TIP3    H124593   5.641   6.785   0.079 -0.7650  0.2607  0.5534
 1034TIP3    H224594   5.527   6.804  -0.020 -0.2319  0.6086 -0.0026
 1035TIP3   OH224595   6.304   6.406  12.131 -0.0545  0.2409 -0.3711
 1035TIP3    H124596   6.345   6.328  12.169 -1.1629  0.5353  1.5639
 1035TIP3    H224597   6.218   6.376  12.103  0.0288  0.4836 -0.8954
 1036TIP3   OH224598   0.375   2.701  16.857  0.6297  0.1710 -0.1064
 1036TIP3    H124599   0.457   2.750  16.864  0.7374  0.0747 -0.6394
 1036TIP3    H224600   0.356   2.700  16.763  0.8357 -1.1459 -0.1515
 1037TIP3   OH224601   1.645   6.684   3.161 -0.2418  0.2580  0.5464
 1037TIP3    H124602   1.633   6.656   3.071 -1.0682  0.4914  0.5767
 1037TIP3    H224603   1.569   6.648   3.208 -0.5991  1.3760  0.8493
 1038TIP3   OH224604   2.669   3.096  16.468  0.1634  0.2117  0.2457
 1038TIP3    H124605   2.716   3.151  16.406 -0.0069  0.4670  0.3443
 1038TIP3    H224606   2.632   3.157  16.532  0.4109 -0.0595  0.6459
 1039TIP3   OH224607   2.276   4.975   4.827  0.3019  0.0624 -0.0634
 1039TIP3    H124608   2.355   4.992   4.775 -0.3287 -0.8616 -1.4057
 1039TIP3    H224609   2.229   4.908   4.777 -1.1781  0.3552  0.8695
 1040TIP3   OH224610   2.184   0.407   5.292 -0.2425 -0.4782 -0.3238
 1040TIP3    H124611   2.154   0.347   5.360 -1.1610 -1.5724 -1.6353
 1040TIP3    H224612   2.272   0.376   5.270 -0.4152 -0.8668 -0.4672
 1041TIP3   OH224613   0.284   6.757  12.426 -0.5060  0.3526 -0.7791
 1041TIP3    H124614   0.246   6.802  12.501 -0.2079 -0.3869 -0.1722
 1041TIP3    H224615   0.347   6.819  12.390 -0.4559  0.6098 -0.2553
 1042TIP3   OH224616   2.814   3.527  14.734  0.1466  0.0674 -0.0314
 1042TIP3    H124617   2.813   3.493  14.824  0.9378  0.1252  0.0140
 1042TIP3    H224618   2.837   3.451  14.680  1.7610  0.4429  0.0536
 1043TIP3   OH224619   0.994   1.434  14.559  0.4495  0.3252 -0.2943
 1043TIP3    H124620   0.997   1.383  14.640 -0.2055  1.4945  0.4912
 1043TIP3    H224621   1.013   1.370  14.490 -1.7233 -1.3014  0.5013
 1044TIP3   OH224622   6.363   2.085  14.129  0.3638  0.2067  0.1792
 1044TIP3    H124623   6.327   2.041  14.053  0.0635  0.4614  0.1696
 1044TIP3    H224624   6.433   2.027  14.160 -0.2180 -0.4163  0.3450
 1045TIP3   OH224625   6.099   3.836  13.743  0.4567  0.1935  0.1268
 1045TIP3    H124626   6.148   3.889  13.680 -1.9664  1.6324 -0.6902
 1045TIP3    H224627   6.054   3.900  13.799 -0.0684 -1.0308  1.1620
 1046TIP3   OH224628   6.088   0.779  12.671  0.2382 -0.0410  0.1500
 1046TIP3    H124629   6.027   0.796  12.743 -1.3818  1.9173 -1.5358
 1046TIP3    H224630   6.145   0.856  12.669  1.9876 -1.2566  0.8789
 1047TIP3   OH224631   4.692   1.001   3.710 -0.6331  0.1341  0.1471
 1047TIP3    H124632   4.640   1.078   3.686 -1.1055 -0.7056 -1.7445
 1047TIP3    H224633   4.766   1.002   3.649 -1.3538 -1.5884 -0.8411
 1048TIP3   OH224634   2.912   5.371   6.161 -0.6592  0.1716  0.7026
 1048TIP3    H124635   2.886   5.284   6.190  0.8986  0.3770  2.9740
 1048TIP3    H224636   2.830   5.421   6.158 -1.3373 -0.8828  1.1662
 1049TIP3   OH224637   5.795   1.826   0.168  0.4083 -0.7384  0.7656
 1049TIP3    H124638   5.835   1.889   0.229 -0.4223 -0.6407  1.2334
 1049TIP3    H224639   5.868   1.776   0.133  1.0484  0.2336  0.6800
 1050TIP3   OH224640   5.343   2.289  15.037  0.0137 -0.7187  0.6234
 1050TIP3    H124641   5.285   2.334  15.099 -0.0044  0.7894 -0.4401
 1050TIP3    H224642   5.418   2.347  15.029  0.1613 -1.0554 -0.5209
 1051TIP3   OH224643   3.846   4.314  14.849  0.9804  0.4008 -0.2442
 1051TIP3    H124644   3.939   4.298  14.862  1.4022  1.6624 -1.5198
 1051TIP3    H224645   3.803   4.255  14.911  2.5320 -2.1608 -1.4089
 1052TIP3   OH224646   4.553   5.875  11.345 -0.2707  0.6280  0.4733
 1052TIP3    H124647   4.648   5.891  11.351  0.0742 -1.1750  0.3844
 1052TIP3    H224648   4.537   5.804  11.408 -1.6034  1.0058  0.5887
 1053TIP3   OH224649   1.621   4.485   1.332 -0.5351  0.0713  0.2625
 1053TIP3    H124650   1.586   4.496   1.243  0.2453 -3.1925 -0.5790
 1053TIP3    H224651   1.543   4.478   1.387 -1.0384  2.8442  0.0560
 1054TIP3   OH224652   3.628   3.486   3.505  0.0851  0.3152 -0.4378
 1054TIP3    H124653   3.602   3.545   3.575  0.0124 -0.6361  0.3462
 1054TIP3    H224654   3.604   3.398   3.535  0.4486 -0.1629 -1.4564
 1055TIP3   OH224655   4.741   5.600  11.857  0.9056 -0.1671  0.3579
 1055TIP3    H124656   4.775   5.582  11.769  0.0787 -1.3761  0.2577
 1055TIP3    H224657   4.678   5.670  11.844  2.4085  1.2424  0.3594
 1056TIP3   OH224658   5.412   2.034  14.957  0.0506 -1.0991 -0.7248
 1056TIP3    H124659   5.440   2.030  14.866  1.9162 -1.4970 -0.1740
 1056TIP3    H224660   5.407   2.128  14.976  2.1577 -0.9715 -0.5670
 1057TIP3   OH224661   4.209   5.929   5.689 -0.0704  0.2684 -0.2485
 1057TIP3    H124662   4.123   5.910   5.726  0.1754 -0.7773 -0.1815
 1057TIP3    H224663   4.270   5.883   5.747  0.6370  1.8738  0.3414
 1058TIP3   OH224664   2.952   4.061   4.787 -0.1866  0.4957 -0.0478
 1058TIP3    H124665   2.922   4.097   4.871  0.2036  0.6314  0.0391
 1058TIP3    H224666   2.884   4.085   4.725  0.2279  1.7174 -0.0652
 1059TIP3   OH224667   2.568   0.462   2.115  0.2009  0.1895 -0.3463
 1059TIP3    H124668   2.598   0.531   2.173 -0.9368  0.3841  0.0301
 1059TIP3    H224669   2.608   0.482   2.030  2.5290 -0.5403  0.5163
 1060TIP3   OH224670   4.329   6.243   5.516 -0.3629 -0.3611 -0.5858
 1060TIP3    H124671   4.233   6.250   5.522 -0.5554 -1.1137 -2.3534
 1060TIP3    H224672   4.345   6.154   5.487  0.9067 -0.2625 -0.2551
 1061TIP3   OH224673   3.758   4.574  14.512  0.3417 -0.9538 -0.7481
 1061TIP3    H124674   3.722   4.626  14.583  0.3124 -0.4321 -1.1406
 1061TIP3    H224675   3.729   4.485  14.530 -0.1408 -0.7329 -0.4147
 1062TIP3   OH224676   1.972   2.503   1.936  0.6025 -0.3018 -0.8525
 1062TIP3    H124677   2.015   2.504   1.851  2.5692 -1.2533  0.0429
 1062TIP3    H224678   1.947   2.411   1.949 -0.7922  0.0534 -0.8970
 1063TIP3   OH224679   1.830   4.294   1.077  0.5485  0.0789  0.0224
 1063TIP3    H124680   1.796   4.353   1.010  0.4037 -0.3769 -0.3058
 1063TIP3    H224681   1.835   4.209   1.034 -2.0836 -0.8519  1.3405
 1064TIP3   OH224682   2.622   3.531  16.967  0.0492  0.1352  0.1558
 1064TIP3    H124683   2.642   3.501  17.055 -0.2208 -3.0264 -0.7509
 1064TIP3    H224684   2.706   3.564  16.934  0.5133 -0.1026  1.0693
 1065TIP3   OH224685   4.358   0.222   3.448  0.4431 -0.5576 -0.4047
 1065TIP3    H124686   4.427   0.223   3.382  0.8790 -1.3400  0.0220
 1065TIP3    H224687   4.401   0.189   3.527 -0.3722 -0.8656 -0.0758
 1066TIP3   OH224688   0.182   4.278  14.424 -0.2599 -0.3255  0.2974
 1066TIP3    H124689   0.094   4.314  14.438 -0.8703 -2.0616  1.1445
 1066TIP3    H224690   0.173   4.185  14.442  1.5222 -0.7426 -0.7520
 1067TIP3   OH224691   1.279   1.993   1.087  0.4286  0.8592  0.2908
 1067TIP3    H124692   1.223   1.955   1.154 -0.8752  0.4280 -0.9777
 1067TIP3    H224693   1.292   1.922   1.024  1.9175  1.1402  0.2391
 1068TIP3   OH224694   4.443   1.572  13.750  0.3954 -0.0016  0.0665
 1068TIP3    H124695   4.359   1.529  13.763 -0.0458 -0.2166 -2.7774
 1068TIP3    H224696   4.422   1.665  13.746  0.0660 -0.1086 -1.5782
 1069TIP3   OH224697   4.096   4.510   4.786  0.4244 -0.1046  0.5345
 1069TIP3    H124698   4.044   4.460   4.723 -1.0808 -1.5479  2.8075
 1069TIP3    H224699   4.052   4.595   4.792  0.2292 -0.1735  0.1057
 1070TIP3   OH224700   0.665   2.792  14.543 -0.2112 -0.4795  1.1415
 1070TIP3    H124701   0.588   2.740  14.521  0.0552 -0.5248  0.2573
 1070TIP3    H224702   0.731   2.727  14.567  0.3704 -0.6510 -0.7402
 1071TIP3   OH224703   4.332   2.133   1.140 -0.6527  0.8824 -0.9388
 1071TIP3    H124704   4.329   2.198   1.070 -1.7393 -0.1098 -1.8548
 1071TIP3    H224705   4.242   2.101   1.146 -0.1106 -0.6441 -0.6252
 1072TIP3   OH224706   6.711   3.614   5.537 -0.3394 -0.1902 -0.4838
 1072TIP3    H124707   6.703   3.656   5.451 -2.6367 -0.9055 -0.6706
 1072TIP3    H224708   6.762   3.535   5.519  1.3452  0.8704 -0.6772
 1073TIP3   OH224709   2.816   6.425  11.892 -0.1494  0.4691  0.2074
 1073TIP3    H124710   2.778   6.382  11.968 -0.0061 -1.5131 -0.7793
 1073TIP3    H224711   2.904   6.389  11.885 -0.2474  0.4103 -1.0175
 1074TIP3   OH224712   1.218   3.484  15.447  0.2232  0.1012 -0.0165
 1074TIP3    H124713   1.212   3.399  15.405 -2.4559 -0.0319  0.4855
 1074TIP3    H224714   1.273   3.469  15.524 -1.0862 -1.4818  0.6628
 1075TIP3   OH224715   4.278   3.272   4.050  0.1300  0.2453 -0.0808
 1075TIP3    H124716   4.304   3.186   4.081 -0.4687  0.1560  0.1851
 1075TIP3    H224717   4.358   3.311   4.016  0.2929 -0.6281 -0.7120
 1076TIP3   OH224718   6.695   4.268   1.560 -0.2506 -0.6843  0.3008
 1076TIP3    H124719   6.600   4.274   1.554 -0.4198  0.1402  2.6918
 1076TIP3    H224720   6.726   4.351   1.522 -0.5414 -0.4635  0.5426
 1077TIP3   OH224721   3.073   2.910   5.360 -0.4614  0.2370 -0.4682
 1077TIP3    H124722   3.162   2.875   5.355 -0.8288 -0.8769  0.4667
 1077TIP3    H224723   3.085   3.005   5.364  0.6889  0.0957 -0.1854
 1078TIP3   OH224724   1.406   1.316  13.932  0.1450 -0.3444  0.4458
 1078TIP3    H124725   1.415   1.401  13.888 -3.2562  0.2367  0.5474
 1078TIP3    H224726   1.380   1.339  14.022 -1.3874 -1.4336  0.3184
 1079TIP3   OH224727   0.444   6.489   3.560 -0.1952 -0.2738 -0.2883
 1079TIP3    H124728   0.394   6.409   3.581 -2.0834  1.2670  1.4937
 1079TIP3    H224729   0.457   6.532   3.644  1.3759  1.0023 -1.1383
 1080TIP3   OH224730   6.287   3.613   1.196  0.2402  0.0554 -0.1721
 1080TIP3    H124731   6.349   3.542   1.180  0.0334 -0.3388  0.7587
 1080TIP3    H224732   6.342   3.692   1.197  0.4412 -0.0406 -1.4080
 1081TIP3   OH224733   1.819   6.049  15.940  0.1339 -0.4286  0.6297
 1081TIP3    H124734   1.903   6.006  15.955  0.7642  1.3837  2.9047
 1081TIP3    H224735   1.764   5.983  15.898  2.1797 -2.1760  0.5885
 1082TIP3   OH224736   1.749   6.275  12.762 -0.4435 -0.7151 -0.2606
 1082TIP3    H124737   1.719   6.364  12.778  1.0961 -0.1632 -0.3471
 1082TIP3    H224738   1.669   6.222  12.764 -1.2828  0.5473  0.5501
 1083TIP3   OH224739   4.306   4.409   4.508  0.8067 -0.0617  0.2569
 1083TIP3    H124740   4.258   4.470   4.453  2.1865  2.2108  1.3814
 1083TIP3    H224741   4.359   4.358   4.447  2.7194  2.7513 -0.6627
 1084TIP3   OH224742   3.316   2.820  16.682 -0.1535 -0.5358  0.1207
 1084TIP3    H124743   3.351   2.751  16.737 -0.5420 -1.5903 -0.9205
 1084TIP3    H224744   3.256   2.776  16.622 -2.5999  1.0859  1.2356
 1085TIP3   OH224745   4.444   4.210   4.367 -0.1702  0.0563  0.1523
 1085TIP3    H124746   4.496   4.132   4.386 -2.3317 -1.6641 -0.5962
 1085TIP3    H224747   4.413   4.197   4.278 -0.8203  1.6563  0.1192
 1086TIP3   OH224748   4.620   1.577  16.070 -0.1484 -0.0802  0.2273
 1086TIP3    H124749   4.679   1.507  16.099 -0.1900 -0.2116  0.0039
 1086TIP3    H224750   4.599   1.553  15.979 -1.2642 -0.5254  0.5829
 1087TIP3   OH224751   4.922   5.014  15.779  0.6601  0.1707 -0.0515
 1087TIP3    H124752   5.005   4.967  15.769  0.1128 -1.0005  0.7543
 1087TIP3    H224753   4.877   4.969  15.849  0.4967  2.4888  1.4568
 1088TIP3   OH224754   1.585   6.517   2.474  0.0124  0.2385  0.3375
 1088TIP3    H124755   1.554   6.600   2.438  0.4888  0.6932  0.9569
 1088TIP3    H224756   1.578   6.528   2.569 -0.8527 -0.7937  0.4152
 1089TIP3   OH224757   0.813   6.548   1.243  0.2086  0.0321  0.1436
 1089TIP3    H124758   0.811   6.538   1.148  2.1557 -1.4619  0.2034
 1089TIP3    H224759   0.740   6.495   1.275 -0.3851  0.4529 -0.4886
 1090TIP3   OH224760   1.632   4.917   1.256 -0.0515 -0.5720  0.0648
 1090TIP3    H124761   1.645   5.011   1.243 -0.7196 -0.4416  0.2910
 1090TIP3    H224762   1.720   4.880   1.255  0.2010  0.0232 -0.2841
 1091TIP3   OH224763   5.455   4.693  13.861  0.3357 -0.3432 -0.5103
 1091TIP3    H124764   5.385   4.755  13.879 -0.9196 -1.6576 -0.6199
 1091TIP3    H224765   5.468   4.696  13.766 -0.9539 -1.4540 -0.7535
 1092TIP3   OH224766   2.191   1.477   3.354 -0.1866 -0.5795  0.0706
 1092TIP3    H124767   2.139   1.555   3.333 -0.5727 -0.0964  2.4679
 1092TIP3    H224768   2.277   1.511   3.376 -0.0681 -0.9356  0.1634
 1093TIP3   OH224769   2.811   4.351   3.438 -0.1006  0.6573  0.5304
 1093TIP3    H124770   2.765   4.334   3.356  1.8384 -1.2136 -0.2507
 1093TIP3    H224771   2.784   4.280   3.496  0.6748  0.3651  0.5415
 1094TIP3   OH224772   0.766   4.301  10.443 -0.3349  0.3009 -0.2266
 1094TIP3    H124773   0.854   4.295  10.407 -0.2890 -1.2290  0.0679
 1094TIP3    H224774   0.765   4.384  10.491  0.8019  0.5324 -0.5699
 1095TIP3   OH224775   2.650   0.531  15.202 -0.3530  0.1105  0.4597
 1095TIP3    H124776   2.666   0.530  15.296 -0.6492  0.3652  0.5152
 1095TIP3    H224777   2.636   0.439  15.179 -1.0382  0.1250  0.8008
 1096TIP3   OH224778   0.033   5.561   1.187 -0.0727 -0.1649 -0.2377
 1096TIP3    H124779   0.047   5.581   1.279 -0.8689 -0.1109 -0.1187
 1096TIP3    H224780  -0.058   5.531   1.182  0.4353 -1.7507 -0.7485
 1097TIP3   OH224781   3.638   5.725  12.159  0.2074 -0.5002  0.5523
 1097TIP3    H124782   3.557   5.713  12.209 -0.3436 -1.0308 -0.4234
 1097TIP3    H224783   3.707   5.732  12.225 -0.6298 -0.0748  1.4002
 1098TIP3   OH224784   3.118   1.106  10.291  0.0027  0.1411 -0.2283
 1098TIP3    H124785   3.066   1.178  10.252  1.7565  0.9849 -1.1508
 1098TIP3    H224786   3.127   1.042  10.220  0.1493 -0.0319 -0.0552
 1099TIP3   OH224787   0.479   4.675   4.187  0.6895  0.1425 -0.6031
 1099TIP3    H124788   0.486   4.595   4.238 -0.6171 -0.0664 -0.7278
 1099TIP3    H224789   0.386   4.696   4.186  1.0939  2.3022  0.3987
 1100TIP3   OH224790   0.475   1.918  15.030 -0.2805  0.7538 -0.1276
 1100TIP3    H124791   0.468   1.823  15.028 -1.0234  0.7688  1.1323
 1100TIP3    H224792   0.550   1.935  15.086 -1.4470  0.9139  1.4624
 1101TIP3   OH224793   4.181   4.878   1.875  0.0899 -0.6382 -0.3266
 1101TIP3    H124794   4.116   4.809   1.888  1.4379 -1.9880 -0.5217
 1101TIP3    H224795   4.193   4.882   1.781 -0.0108 -0.0930 -0.3184
 1102TIP3   OH224796   0.681   2.203  16.192  0.0514 -0.2190 -0.4741
 1102TIP3    H124797   0.679   2.298  16.183  0.2706 -0.1605  0.0809
 1102TIP3    H224798   0.702   2.172  16.103 -2.1858  0.1242 -1.1695
 1103TIP3   OH224799   6.723   6.756   5.289  0.1251  0.2279  0.3945
 1103TIP3    H124800   6.672   6.799   5.221 -0.9518 -0.4290  0.7526
 1103TIP3    H224801   6.685   6.787   5.371 -3.1247 -3.7977  0.7790
 1104TIP3   OH224802   4.706   4.750  14.674  0.4101 -0.4665 -0.1684
 1104TIP3    H124803   4.782   4.793  14.714  0.6371  0.3528 -1.4260
 1104TIP3    H224804   4.744   4.684  14.616  0.1046 -1.0628  0.2957
 1105TIP3   OH224805   5.225   5.421   5.527 -0.4624  0.1306 -0.2488
 1105TIP3    H124806   5.289   5.377   5.582  1.4907  3.2117  0.2019
 1105TIP3    H224807   5.232   5.514   5.552 -2.5229  1.0989 -2.7743
 1106TIP3   OH224808   6.822   6.561   1.799 -0.1145 -0.2927  0.5834
 1106TIP3    H124809   6.764   6.485   1.795 -0.1495 -0.2208 -1.3832
 1106TIP3    H224810   6.769   6.634   1.767 -0.2832  0.7714  3.0436
 1107TIP3   OH224811   4.526   6.343   2.068  0.3145  0.4276 -0.3001
 1107TIP3    H124812   4.459   6.397   2.109  0.3067  0.3901 -0.2619
 1107TIP3    H224813   4.598   6.403   2.050  1.8047 -0.1280  3.0038
 1108TIP3   OH224814   4.720   0.943   4.835  0.0821 -0.1317 -0.3139
 1108TIP3    H124815   4.752   0.988   4.757  1.4646 -0.9956 -0.2808
 1108TIP3    H224816   4.756   0.993   4.909  0.8678 -0.7239 -0.2741
 1109TIP3   OH224817   4.611   1.301  12.789  0.5528 -0.7576 -0.1060
 1109TIP3    H124818   4.606   1.258  12.703  0.2495  0.8241 -0.9127
 1109TIP3    H224819   4.604   1.394  12.770 -1.6371 -0.4412  1.8185
 1110TIP3   OH224820   5.295   2.479   3.130  0.2469  0.1238 -0.1639
 1110TIP3    H124821   5.317   2.511   3.218 -1.4595  0.9258  0.0091
 1110TIP3    H224822   5.220   2.421   3.145 -1.6186  2.1088 -1.2975
 1111TIP3   OH224823   2.543   3.817  11.894  0.0797 -0.5414  0.6039
 1111TIP3    H124824   2.609   3.805  11.826  0.0523  0.8449  0.2966
 1111TIP3    H224825   2.487   3.887  11.861 -1.5506 -1.6728  0.8750
 1112TIP3   OH224826   4.102   4.166  13.215  0.2723  0.1264  0.2044
 1112TIP3    H124827   4.096   4.094  13.152  0.8923  0.6974 -0.5125
 1112TIP3    H224828   4.016   4.166  13.259  0.3025 -1.1285  0.3149
 1113TIP3   OH224829   5.352   1.409   5.388 -0.3820  0.1939 -0.0932
 1113TIP3    H124830   5.318   1.418   5.299 -0.5003  0.8003  0.0032
 1113TIP3    H224831   5.358   1.315   5.403  1.4790  0.0556 -1.4239
 1114TIP3   OH224832   2.264   1.029   5.916 -0.5768 -0.0345  0.6511
 1114TIP3    H124833   2.346   0.979   5.919 -0.2435  0.5464  1.5539
 1114TIP3    H224834   2.249   1.057   6.006 -0.5077  1.8786  0.1093
 1115TIP3   OH224835   2.679   2.106   3.546 -0.1005  0.0226  0.4544
 1115TIP3    H124836   2.641   2.104   3.634  0.9234 -0.4168  0.9022
 1115TIP3    H224837   2.698   2.198   3.531 -1.1785  0.2300  0.2856
 1116TIP3   OH224838   2.433   3.902   3.098  0.3160 -0.2060 -0.1263
 1116TIP3    H124839   2.417   3.875   3.008 -0.0933  2.1040 -0.7924
 1116TIP3    H224840   2.348   3.934   3.129  1.2995  2.9217 -0.3777
 1117TIP3   OH224841   4.452   6.576  16.487  0.0518  0.1859  0.4317
 1117TIP3    H124842   4.515   6.640  16.519  1.1748  0.1057 -1.4676
 1117TIP3    H224843   4.486   6.491  16.517  1.0057  0.1258 -0.7329
 1118TIP3   OH224844   1.155   2.913  11.818 -0.4043  0.4155  0.0425
 1118TIP3    H124845   1.183   2.917  11.727  2.2878 -1.1713  0.6805
 1118TIP3    H224846   1.144   3.004  11.844  2.0852  1.1057 -1.0114
 1119TIP3   OH224847   6.531   6.025   3.105 -0.1168  0.4467  0.4652
 1119TIP3    H124848   6.465   6.066   3.161 -0.4409 -1.2510  1.4130
 1119TIP3    H224849   6.574   5.961   3.162  1.5260  0.6712 -0.4763
 1120TIP3   OH224850   1.122   1.755  15.535  0.2837 -0.1247  0.2390
 1120TIP3    H124851   1.173   1.717  15.463 -0.3288 -2.5368  0.9846
 1120TIP3    H224852   1.130   1.850  15.522  0.5993 -0.4392 -2.7139
 1121TIP3   OH224853   1.498   5.009  13.012 -0.5319 -0.0991 -0.8054
 1121TIP3    H124854   1.469   5.095  13.044  1.7260  0.2676  0.4345
 1121TIP3    H224855   1.593   5.010  13.022 -0.5119 -3.1929  0.3287
 1122TIP3   OH224856   1.846   2.470  13.197  0.1639  0.1011 -0.2531
 1122TIP3    H124857   1.922   2.524  13.174  1.7260 -1.3932  1.0603
 1122TIP3    H224858   1.820   2.502  13.284  0.7285 -0.8011  0.2699
 1123TIP3   OH224859   0.023   4.765   4.763 -0.5652  0.0719  0.5634
 1123TIP3    H124860  -0.007   4.852   4.789  0.5373  0.6289  0.0603
 1123TIP3    H224861   0.016   4.712   4.842  0.1847  1.0303  1.3055
 1124TIP3   OH224862   6.214   2.453  16.504  0.2390 -0.1547 -0.4299
 1124TIP3    H124863   6.185   2.448  16.413 -1.5640  1.1447  0.0362
 1124TIP3    H224864   6.144   2.412  16.554 -0.0284  1.4456  0.5808
 1125TIP3   OH224865   3.689   4.016   2.780  0.0541  0.3313 -0.0307
 1125TIP3    H124866   3.689   3.983   2.690 -1.5643  0.4853 -0.1086
 1125TIP3    H224867   3.714   3.940   2.833  2.1933  0.5332 -0.6635
 1126TIP3   OH224868   4.425   4.567   6.345 -0.0457  0.0092 -0.2399
 1126TIP3    H124869   4.351   4.508   6.354 -0.6168  0.7117 -0.2028
 1126TIP3    H224870   4.410   4.635   6.411  0.8576 -0.0659  0.0606
 1127TIP3   OH224871   5.836   6.293  17.106 -0.5973 -0.8144  0.2970
 1127TIP3    H124872   5.793   6.366  17.062  1.7262 -0.1871 -1.0863
 1127TIP3    H224873   5.871   6.331  17.186  0.3150 -0.4640 -0.2573
 1128TIP3   OH224874   5.814   6.224   5.838 -0.6823 -0.5260 -0.6484
 1128TIP3    H124875   5.846   6.241   5.927  0.7936 -2.3264 -0.7806
 1128TIP3    H224876   5.724   6.195   5.850 -0.5731 -0.5217  0.2522
 1129TIP3   OH224877   3.902   2.677  11.658  0.4310 -0.1185 -0.1081
 1129TIP3    H124878   3.933   2.604  11.712  0.3450  0.2567  0.4541
 1129TIP3    H224879   3.859   2.736  11.720  0.9261  0.6459 -0.4743
 1130TIP3   OH224880   4.958   4.101   1.289 -0.2622  0.2636 -0.7106
 1130TIP3    H124881   5.032   4.066   1.240 -1.0883  0.0636 -1.8474
 1130TIP3    H224882   4.997   4.162   1.352  1.1652 -2.0096  0.7622
 1131TIP3   OH224883   5.913   5.420  14.273 -0.1165  0.5477 -0.2442
 1131TIP3    H124884   5.861   5.340  14.267  2.7278 -1.6134  1.1966
 1131TIP3    H224885   5.922   5.450  14.182 -0.7699 -1.1222 -0.8914
 1132TIP3   OH224886   1.828   2.621  16.147 -0.5763  0.5973  0.7650
 1132TIP3    H124887   1.887   2.567  16.094  0.4139  1.8658  0.5441
 1132TIP3    H224888   1.755   2.562  16.168  0.3382 -0.7415  0.3181
 1133TIP3   OH224889   6.585   1.750   3.908 -0.2636 -0.3381 -0.6490
 1133TIP3    H124890   6.538   1.785   3.833  0.0364 -1.1911 -1.2523
 1133TIP3    H224891   6.674   1.735   3.876  0.0689 -0.0145  0.0943
 1134TIP3   OH224892   1.618   1.018  12.933 -0.5475 -0.1225  0.2625
 1134TIP3    H124893   1.671   1.085  12.891  1.9128 -1.1823  1.4651
 1134TIP3    H224894   1.531   1.057  12.941  0.2495  2.0676 -0.9891
 1135TIP3   OH224895   4.010   2.533   1.546 -0.2393  0.3763  0.3374
 1135TIP3    H124896   4.104   2.524   1.534 -0.0478  0.6609  1.4457
 1135TIP3    H224897   3.996   2.509   1.638 -1.5119 -1.5185 -0.2745
 1136TIP3   OH224898   5.688   4.212  16.399  0.0157 -0.0014 -0.2875
 1136TIP3    H124899   5.623   4.255  16.455 -1.3113 -1.2482 -0.8047
 1136TIP3    H224900   5.711   4.277  16.333 -2.1694 -0.1155 -1.2303
 1137TIP3   OH224901   4.980   2.565  13.595 -0.1321  0.1092 -0.5433
 1137TIP3    H124902   4.887   2.582  13.610 -0.3070 -1.6396  0.6072
 1137TIP3    H224903   4.983   2.471  13.573  1.5887 -0.4886  1.9312
 1138TIP3   OH224904   2.969   6.684   4.679 -0.1913 -0.1558 -0.4494
 1138TIP3    H124905   3.029   6.727   4.741  0.2621 -3.6746  1.8660
 1138TIP3    H224906   2.998   6.714   4.593  2.3312  1.3290  0.7900
 1139TIP3   OH224907   5.826   4.465   2.659 -0.0240  0.0520 -0.2100
 1139TIP3    H124908   5.893   4.484   2.724 -0.6288  2.0866 -0.1169
 1139TIP3    H224909   5.836   4.371   2.641  1.1370 -0.2396  1.6790
 1140TIP3   OH224910   1.422   4.537   5.083  0.0826 -0.8296 -0.0974
 1140TIP3    H124911   1.348   4.489   5.120 -0.9632  1.3570  0.7735
 1140TIP3    H224912   1.397   4.552   4.992 -0.7348  0.1869  0.2757
 1141TIP3   OH224913   3.246   4.251   4.858 -0.5006  0.2138 -0.5942
 1141TIP3    H124914   3.291   4.167   4.857  0.3050  0.6291 -1.4940
 1141TIP3    H224915   3.204   4.256   4.944  1.9252  0.1883  0.6760
 1142TIP3   OH224916   0.078   0.916  12.888  0.0772 -0.6808 -0.0031
 1142TIP3    H124917   0.167   0.887  12.905  0.9878  0.6881 -2.0875
 1142TIP3    H224918   0.081   1.011  12.902 -0.6784 -0.4233 -1.4380
 1143TIP3   OH224919   3.033   0.246  15.582  0.1153  0.1653  0.4152
 1143TIP3    H124920   2.945   0.228  15.616 -0.0342  0.2218  0.0540
 1143TIP3    H224921   3.089   0.242  15.660 -0.4016  1.5306  0.8972
 1144TIP3   OH224922   6.556   3.312  15.936  0.1698 -0.3361  0.1007
 1144TIP3    H124923   6.461   3.312  15.945 -0.0191 -0.0506 -1.5203
 1144TIP3    H224924   6.585   3.393  15.978 -0.0941 -1.2128  2.0830
 1145TIP3   OH224925   1.540   1.081   0.404  0.2480  0.1635  0.0883
 1145TIP3    H124926   1.512   1.170   0.384  0.5342  0.2996  0.2796
 1145TIP3    H224927   1.565   1.085   0.497  3.0789  0.6286 -0.5924
 1146TIP3   OH224928   4.297   6.723  11.862 -0.1114  0.2138 -0.3551
 1146TIP3    H124929   4.282   6.788  11.931 -2.1342  0.7359 -1.2122
 1146TIP3    H224930   4.363   6.763  11.806 -1.6936  1.8316 -1.1536
 1147TIP3   OH224931   5.787   1.373   3.615 -0.2648  0.2986  0.2870
 1147TIP3    H124932   5.858   1.311   3.628  0.3479  0.8669 -0.3088
 1147TIP3    H224933   5.708   1.323   3.636  0.2466 -0.5579  0.2141
 1148TIP3   OH224934   6.093   3.828  14.076 -0.5616  0.2060 -0.6288
 1148TIP3    H124935   6.156   3.832  14.148  0.3173 -0.9674 -1.2887
 1148TIP3    H224936   6.118   3.750  14.027 -3.0893 -0.8187 -0.4422
 1149TIP3   OH224937   1.453   5.210  12.368 -0.3368 -0.2883  0.0571
 1149TIP3    H124938   1.462   5.284  12.308 -1.4146 -1.8247 -2.1544
 1149TIP3    H224939   1.539   5.200  12.408 -0.1388  2.0424  0.3395
 1150TIP3   OH224940   0.931   6.045  16.002 -0.1029  0.2703 -0.5361
 1150TIP3    H124941   0.903   5.979  15.939 -1.7916  0.4769 -0.0662
 1150TIP3    H224942   0.880   6.123  15.980  1.8904  1.4704 -1.1082
 1151TIP3   OH224943   5.818   6.146  12.840  0.1574 -0.2813  0.0737
 1151TIP3    H124944   5.829   6.091  12.762 -0.3570  0.6392 -0.6626
 1151TIP3    H224945   5.799   6.084  12.910  2.4146 -1.2974 -0.1229
 1152TIP3   OH224946   6.423   3.820  15.138 -0.8181  0.1239 -0.3020
 1152TIP3    H124947   6.464   3.850  15.219  2.6239  0.2467 -1.9030
 1152TIP3    H224948   6.438   3.725  15.137 -1.8843 -0.0598 -0.3065
 1153TIP3   OH224949   2.435   0.157  12.838 -0.4656  0.1670 -0.3231
 1153TIP3    H124950   2.430   0.067  12.871  0.2542  0.4686  0.6599
 1153TIP3    H224951   2.345   0.188  12.839 -0.8870 -0.8930 -1.7454
 1154TIP3   OH224952   3.219   3.709   5.837  0.3622 -0.5758 -0.0937
 1154TIP3    H124953   3.136   3.719   5.882 -0.7069 -0.8535 -1.8986
 1154TIP3    H224954   3.257   3.629   5.873 -1.2068 -1.6666 -0.7828
 1155TIP3   OH224955   2.534   6.467  11.462 -0.3796  0.0238  0.2277
 1155TIP3    H124956   2.555   6.405  11.532 -2.2099 -0.4294  0.4249
 1155TIP3    H224957   2.515   6.413  11.386 -1.0063  0.3946  0.1159
 1156TIP3   OH224958   6.585   0.157  11.304  0.2421  0.7967 -0.0945
 1156TIP3    H124959   6.599   0.069  11.269  0.1156  0.8984 -0.4114
 1156TIP3    H224960   6.527   0.199  11.240  0.6695  1.2603 -0.1853
 1157TIP3   OH224961   3.343   6.852   0.753 -0.6039 -0.2867  0.5975
 1157TIP3    H124962   3.410   6.916   0.776 -0.0897  0.2007 -1.9586
 1157TIP3    H224963   3.264   6.884   0.797 -0.4349  2.3071 -0.7672
 1158TIP3   OH224964   5.403   4.201  13.308  0.2909 -0.3146 -0.0107
 1158TIP3    H124965   5.405   4.124  13.251 -1.8293 -0.4810  0.0601
 1158TIP3    H224966   5.433   4.169  13.393 -1.1435 -1.2531  0.1750
 1159TIP3   OH224967   2.944   1.625  11.781 -0.0923 -0.0597 -0.2529
 1159TIP3    H124968   2.957   1.704  11.728  0.0446 -0.4048 -0.7467
 1159TIP3    H224969   2.860   1.640  11.825 -1.1869 -0.5527 -2.0375
 1160TIP3   OH224970   3.903   6.667  11.750 -0.4576  0.4919  0.0753
 1160TIP3    H124971   3.976   6.617  11.712 -2.6231 -2.3851 -0.7086
 1160TIP3    H224972   3.926   6.759  11.735  2.2809 -0.3319 -1.4606
 1161TIP3   OH224973   1.962   6.747  12.148  0.5613  0.2610  0.0027
 1161TIP3    H124974   1.868   6.744  12.165  0.5362  2.9682  0.8792
 1161TIP3    H224975   1.971   6.746  12.053 -0.4189  0.8421 -0.0991
 1162TIP3   OH224976   2.767   3.246  16.806  0.1746  0.4710 -0.2846
 1162TIP3    H124977   2.696   3.288  16.759  0.0079 -1.8360 -2.3077
 1162TIP3    H224978   2.846   3.267  16.756  0.2752 -0.4539 -0.5404
 1163TIP3   OH224979   6.385   3.513   0.512  0.6509  0.3115  0.0022
 1163TIP3    H124980   6.446   3.473   0.449  1.2070  0.2255  0.5807
 1163TIP3    H224981   6.300   3.474   0.492  0.7987  0.3722 -0.7685
 1164TIP3   OH224982   0.500   6.185   3.310 -0.1579  0.0538 -0.5128
 1164TIP3    H124983   0.453   6.154   3.233 -0.2494  0.3000 -0.5566
 1164TIP3    H224984   0.588   6.148   3.302 -0.9243 -2.2303  0.6565
 1165TIP3   OH224985   2.146   3.470   0.674 -0.3762 -0.5782  0.0959
 1165TIP3    H124986   2.206   3.534   0.712  0.1543  1.1451 -3.2705
 1165TIP3    H224987   2.069   3.472   0.730  0.5662  1.2644  1.4027
 1166TIP3   OH224988   3.735   6.086   0.098  0.1578  0.4089  1.0334
 1166TIP3    H124989   3.786   6.163   0.120  0.5079  1.6389 -3.1578
 1166TIP3    H224990   3.645   6.117   0.094  0.0915  0.2012  0.8768
 1167TIP3   OH224991   0.098   4.845   2.319  0.0172  0.2063 -0.0166
 1167TIP3    H124992   0.042   4.917   2.292  0.3793  0.6118  0.2942
 1167TIP3    H224993   0.186   4.882   2.321 -0.0999  0.5451  2.7777
 1168TIP3   OH224994   2.470   6.833   4.934 -0.4950 -0.3625  0.1053
 1168TIP3    H124995   2.517   6.911   4.962 -0.3368 -1.1795  2.4052
 1168TIP3    H224996   2.412   6.813   5.007  1.0838 -3.5954  0.6950
 1169TIP3   OH224997   1.755   2.508   6.542  0.2259  0.4256  0.5253
 1169TIP3    H124998   1.822   2.440   6.533  1.4075  1.7806 -2.2899
 1169TIP3    H224999   1.696   2.494   6.468  0.2914  2.1816  0.0882
 1170TIP3   OH225000   3.882   1.191   4.326  0.5023  0.0841 -0.1941
 1170TIP3    H125001   3.971   1.179   4.293  0.6874  0.3913  0.1869
 1170TIP3    H225002   3.828   1.134   4.271  0.6061  1.5452 -1.8890
 1171TIP3   OH225003   6.452   3.897   4.939 -0.3612  0.3103 -0.2665
 1171TIP3    H125004   6.514   3.826   4.924 -1.0169 -0.1755 -0.6970
 1171TIP3    H225005   6.486   3.941   5.018  0.3429 -0.1436 -0.3033
 1172TIP3   OH225006   0.166   0.441   4.722  0.4915  0.2990 -0.2407
 1172TIP3    H125007   0.110   0.466   4.649  1.6707  1.6422 -0.7180
 1172TIP3    H225008   0.107   0.436   4.797 -0.6570 -0.6427 -1.1530
 1173TIP3   OH225009   0.336   2.756  11.463  0.1715  0.0714  0.1622
 1173TIP3    H125010   0.391   2.769  11.385 -2.8911 -1.0311 -2.4084
 1173TIP3    H225011   0.321   2.844  11.496  1.5246  0.5769 -0.4893
 1174TIP3   OH225012   2.633   4.806   4.169 -0.9281 -0.4710 -0.4456
 1174TIP3    H125013   2.679   4.779   4.249 -0.2665  2.6634  0.4148
 1174TIP3    H225014   2.603   4.725   4.129  0.8297 -2.3332  1.7231
 1175TIP3   OH225015   4.818   5.406   1.639 -0.5369  0.1056 -0.3384
 1175TIP3    H125016   4.902   5.419   1.596 -1.1865 -1.5760 -2.2996
 1175TIP3    H225017   4.780   5.493   1.644  2.4496  1.4817  3.4023
 1176TIP3   OH225018   0.788   1.200  11.593 -0.1305 -0.2506 -0.4549
 1176TIP3    H125019   0.728   1.267  11.625  0.4611 -0.4390  1.1515
 1176TIP3    H225020   0.821   1.158  11.672  0.6848 -1.4088 -1.3779
 1177TIP3   OH225021   3.596   0.983  15.599 -0.1791 -0.0141 -0.0241
 1177TIP3    H125022   3.507   1.019  15.597 -0.4769 -0.7086  0.3030
 1177TIP3    H225023   3.641   1.028  15.528 -0.8476  0.2095 -0.3231
 1178TIP3   OH225024   1.851   3.252  16.992  0.2465  0.3347 -0.3330
 1178TIP3    H125025   1.871   3.335  16.950  0.3737  0.6132  0.2605
 1178TIP3    H225026   1.802   3.202  16.927 -1.2556  1.5030 -0.1386
 1179TIP3   OH225027   6.264   6.735   5.211 -0.7255  0.3939 -0.1571
 1179TIP3    H125028   6.345   6.782   5.190 -0.6649  0.0221 -0.7920
 1179TIP3    H225029   6.293   6.655   5.256 -0.7805  0.5877  0.2225
 1180TIP3   OH225030   3.668   6.012  12.844  0.1787  0.2990 -0.7118
 1180TIP3    H125031   3.724   5.946  12.884  0.4361 -0.1866 -1.8295
 1180TIP3    H225032   3.729   6.075  12.805  0.0073 -0.4963 -2.3707
 1181TIP3   OH225033   3.048   6.710   0.716 -0.0393  0.1193  0.6119
 1181TIP3    H125034   2.986   6.777   0.746 -0.1809  0.1927  0.1630
 1181TIP3    H225035   3.088   6.749   0.638  0.7087  0.1495  1.0002
 1182TIP3   OH225036   1.643   5.122  16.140  0.1336  0.0198 -0.4018
 1182TIP3    H125037   1.631   5.029  16.159  0.2538  0.0295 -0.2757
 1182TIP3    H225038   1.729   5.127  16.097  0.7035  0.2220  0.7252
 1183TIP3   OH225039   4.652   0.371   3.473 -0.3853  0.3059  0.2942
 1183TIP3    H125040   4.618   0.283   3.461  0.4594 -0.2246  1.5845
 1183TIP3    H225041   4.739   0.370   3.431 -1.3643  1.3220 -1.9734
 1184TIP3   OH225042   5.045   0.206  12.902 -0.0773  0.3107 -0.0483
 1184TIP3    H125043   5.138   0.227  12.892  0.8714 -3.5297 -0.7596
 1184TIP3    H225044   5.025   0.231  12.992  0.6518  4.1466 -0.7963
 1185TIP3   OH225045   0.410   4.519  14.014 -0.0907  0.0912  0.2947
 1185TIP3    H125046   0.351   4.460  14.061 -0.6804 -0.9536 -1.6507
 1185TIP3    H225047   0.470   4.552  14.081 -0.4921 -1.7882  1.6515
 1186TIP3   OH225048   1.661   3.319  16.165 -0.2607 -0.4204 -0.1605
 1186TIP3    H125049   1.668   3.251  16.098  0.7989 -2.6155  2.0040
 1186TIP3    H225050   1.738   3.374  16.152 -0.2123 -0.6650 -0.9287
 1187TIP3   OH225051   2.377   4.567  16.762 -0.6026 -0.3302 -0.1072
 1187TIP3    H125052   2.312   4.496  16.767  0.7932 -1.6800 -0.4797
 1187TIP3    H225053   2.452   4.535  16.811  0.2917  0.6447 -0.7879
 1188TIP3   OH225054   4.805   2.636   3.838 -0.0402  0.4287 -0.1577
 1188TIP3    H125055   4.737   2.700   3.819  1.8156  2.4367 -0.4201
 1188TIP3    H225056   4.801   2.624   3.933 -1.0018  0.1928 -0.2176
 1189TIP3   OH225057   4.247   6.775  12.606 -0.5061 -0.3750  0.4362
 1189TIP3    H125058   4.153   6.766  12.623 -0.4719  0.1840  0.9827
 1189TIP3    H225059   4.285   6.793  12.692  0.0800 -0.4249  0.1928
 1190TIP3   OH225060   4.740   3.475  12.232 -0.0431 -0.1064 -0.0380
 1190TIP3    H125061   4.791   3.497  12.154 -1.0065  1.4525 -0.2790
 1190TIP3    H225062   4.726   3.381  12.227  1.4353 -0.3131 -0.7840
 1191TIP3   OH225063   2.575   6.734  15.047 -0.3439  0.2088  0.3502
 1191TIP3    H125064   2.631   6.712  14.972 -2.2389 -0.9926 -0.7986
 1191TIP3    H225065   2.627   6.795  15.099  1.8284 -0.4900 -0.8817
 1192TIP3   OH225066   1.803   3.082  14.389  0.2540 -0.3529 -0.1234
 1192TIP3    H125067   1.740   3.076  14.317  0.4768  1.3662 -0.5068
 1192TIP3    H225068   1.789   3.003  14.440 -0.6530 -1.0929 -1.4598
 1193TIP3   OH225069   5.378   1.687  10.502  0.2281 -0.1884 -0.1406
 1193TIP3    H125070   5.460   1.711  10.545  0.4726  2.0652 -1.6533
 1193TIP3    H225071   5.310   1.724  10.557  0.3291 -0.4779  0.1782
 1194TIP3   OH225072   5.871   4.705   1.047  0.3705  0.3113 -0.2166
 1194TIP3    H125073   5.958   4.717   1.008  0.8721  0.9481  1.0508
 1194TIP3    H225074   5.851   4.612   1.033  0.7479  0.4055 -1.5081
 1195TIP3   OH225075   1.005   5.113   3.007 -0.5464 -0.4251 -0.1617
 1195TIP3    H125076   0.963   5.045   3.060  0.1379  0.0167  0.9858
 1195TIP3    H225077   1.028   5.182   3.070 -0.4728  0.4966 -1.1715
 1196TIP3   OH225078   2.320   3.504   3.433  0.0550  0.2401 -0.0289
 1196TIP3    H125079   2.354   3.418   3.457 -0.9581 -0.3653 -0.7202
 1196TIP3    H225080   2.332   3.509   3.338 -0.1218  0.7666 -0.0284
 1197TIP3   OH225081   5.526   1.250  11.093  0.2015 -0.1302 -0.6129
 1197TIP3    H125082   5.585   1.315  11.057  0.5484  0.2910  0.6684
 1197TIP3    H225083   5.582   1.192  11.144 -0.1278 -1.3479 -1.5676
 1198TIP3   OH225084   1.443   1.147   4.242 -0.1278 -0.2046 -0.1953
 1198TIP3    H125085   1.420   1.237   4.217 -0.4301 -0.1743  0.1671
 1198TIP3    H225086   1.492   1.113   4.168  0.7423  0.5533  0.0153
 1199TIP3   OH225087   1.733   4.092  11.234 -0.0945  0.3885 -0.2495
 1199TIP3    H125088   1.785   4.018  11.204  0.2016  0.8784 -0.9576
 1199TIP3    H225089   1.658   4.052  11.279 -0.7035 -0.3824 -1.8823
 1200TIP3   OH225090   1.511   0.779  16.969 -0.3178  0.0687  0.0498
 1200TIP3    H125091   1.599   0.743  16.958 -0.1179  1.1271 -2.3002
 1200TIP3    H225092   1.456   0.726  16.912 -0.6493  1.2275 -0.7382
 1201TIP3   OH225093   5.097   1.481  16.501  0.0903 -0.8226  0.8109
 1201TIP3    H125094   5.147   1.467  16.581  0.6227  1.1442  0.8631
 1201TIP3    H225095   5.066   1.571  16.507 -0.3623 -0.8241 -0.9190
 1202TIP3   OH225096   3.842   0.939  13.204  0.1859  0.1298  0.6891
 1202TIP3    H125097   3.777   0.938  13.274  0.3303 -3.3363  0.9594
 1202TIP3    H225098   3.796   0.976  13.129 -1.3400 -0.0048  1.5098
 1203TIP3   OH225099   6.840   6.523  16.473  0.2554 -0.7571 -0.1636
 1203TIP3    H125100   6.776   6.455  16.494 -1.1444  0.7204  0.5528
 1203TIP3    H225101   6.891   6.534  16.553  1.2299 -1.6898 -0.6261
 1204TIP3   OH225102   4.767   5.580  14.774 -0.0243 -0.2499 -0.0645
 1204TIP3    H125103   4.764   5.631  14.692 -0.4316 -0.4473 -0.1755
 1204TIP3    H225104   4.715   5.632  14.835 -1.6616 -1.2231 -0.5776
 1205TIP3   OH225105   4.643   4.068  14.588 -0.0453 -0.4952 -0.4188
 1205TIP3    H125106   4.717   4.118  14.623 -0.3662  0.3418 -0.9171
 1205TIP3    H225107   4.620   4.007  14.658  0.3495  0.0583  0.2023
 1206TIP3   OH225108   6.385   6.246  14.268  0.1929 -0.1358  0.0858
 1206TIP3    H125109   6.453   6.305  14.236 -0.6358  0.3372 -0.8590
 1206TIP3    H225110   6.306   6.299  14.270 -0.2379 -0.7879  0.7876
 1207TIP3   OH225111   1.161   5.060  15.602 -0.1032 -0.0470  0.2224
 1207TIP3    H125112   1.202   4.976  15.579 -1.6841 -0.3970 -1.5479
 1207TIP3    H225113   1.190   5.121  15.534 -1.6123 -0.0426 -0.4476
 1208TIP3   OH225114   3.330   4.112   3.416 -0.5514  0.1259 -0.1779
 1208TIP3    H125115   3.282   4.177   3.468 -0.1387 -0.4361  0.9328
 1208TIP3    H225116   3.413   4.102   3.461 -0.6392 -1.2323 -0.2889
 1209TIP3   OH225117   5.912   3.562  11.968  0.4700 -0.0336  0.3052
 1209TIP3    H125118   5.827   3.570  12.013  0.9683  0.6526  1.1620
 1209TIP3    H225119   5.901   3.612  11.887  0.3979  1.0203  0.9430
 1210TIP3   OH225120   3.643   2.675   1.970 -0.1775  0.6762 -0.1600
 1210TIP3    H125121   3.700   2.752   1.973  2.5331 -1.1542 -0.9482
 1210TIP3    H225122   3.678   2.617   2.038 -2.2116  0.1343  0.4762
 1211TIP3   OH225123   3.149   0.976   3.749  0.0914  0.2871  0.4827
 1211TIP3    H125124   3.123   1.041   3.683  0.9994 -0.5691 -0.7914
 1211TIP3    H225125   3.067   0.937   3.779 -0.2989 -0.5517 -1.5012
 1212TIP3   OH225126   3.605   0.028  16.216 -0.2123  0.0790  0.4002
 1212TIP3    H125127   3.612   0.008  16.123  1.7201  0.3019  0.4408
 1212TIP3    H225128   3.514   0.055  16.229 -0.8314 -1.1052 -1.1658
 1213TIP3   OH225129   0.471   2.447  16.563  0.4350  0.0290 -0.4030
 1213TIP3    H125130   0.517   2.371  16.526  0.1692  0.2511 -1.2063
 1213TIP3    H225131   0.537   2.491  16.617  0.8862 -0.1905 -0.7705
 1214TIP3   OH225132   5.931   3.679  13.112 -0.0729  0.7169 -0.3192
 1214TIP3    H125133   5.993   3.752  13.105  1.9058 -1.0325 -2.1638
 1214TIP3    H225134   5.938   3.633  13.028 -1.1594 -1.6766  0.8106
 1215TIP3   OH225135   1.580   0.107   2.956  0.3546 -0.0002  0.5081
 1215TIP3    H125136   1.499   0.065   2.985 -0.2694  0.1059 -0.9702
 1215TIP3    H225137   1.551   0.172   2.892  1.5438  0.7329  0.6937
 1216TIP3   OH225138   0.247   2.578   2.003 -0.0554 -0.1838  0.3628
 1216TIP3    H125139   0.324   2.610   1.957 -0.0244 -0.2867  0.3429
 1216TIP3    H225140   0.181   2.645   1.990  0.6858  0.9993  2.2176
 1217TIP3   OH225141   4.835   6.344   3.661 -0.0192  0.3207  0.0256
 1217TIP3    H125142   4.835   6.409   3.731 -0.5023  1.1216 -0.6875
 1217TIP3    H225143   4.901   6.280   3.686 -2.4463 -1.3274  2.9280
 1218TIP3   OH225144   3.257   0.887  16.680  0.2605 -0.5468  0.5858
 1218TIP3    H125145   3.250   0.862  16.587  2.1874 -0.0323  0.2444
 1218TIP3    H225146   3.169   0.911  16.705 -0.3604 -0.9273 -1.0580
 1219TIP3   OH225147   3.820   5.131   5.540 -0.7403  0.6571 -0.1796
 1219TIP3    H125148   3.745   5.071   5.541 -1.2638  1.2709 -1.1707
 1219TIP3    H225149   3.814   5.177   5.624  0.0704 -1.1222  0.8939
 1220TIP3   OH225150   3.524   0.544  13.519  0.0462  0.1167 -0.0895
 1220TIP3    H125151   3.439   0.570  13.484 -0.2910 -1.0919 -0.1914
 1220TIP3    H225152   3.509   0.458  13.559  1.2485 -0.1710 -0.2203
 1221TIP3   OH225153   1.279   2.029   4.995  0.3629 -0.1660 -0.4203
 1221TIP3    H125154   1.269   1.934   4.992  1.1233 -0.2473 -0.5614
 1221TIP3    H225155   1.287   2.055   4.904  0.9230 -0.0534 -0.3393
 1222TIP3   OH225156   0.269   1.493  10.565  0.1300  1.2305 -0.2766
 1222TIP3    H125157   0.291   1.469  10.475 -0.1986 -0.2882  0.0211
 1222TIP3    H225158   0.271   1.410  10.613 -0.4155  1.9170  0.9702
 1223TIP3   OH225159   6.346   5.440  16.992 -0.0019 -0.6978  0.0990
 1223TIP3    H125160   6.294   5.488  16.928  0.5085 -1.1188 -0.6355
 1223TIP3    H225161   6.283   5.381  17.034 -0.6226  0.5398  0.9722
 1224TIP3   OH225162   0.290   4.036  14.934 -0.1633  0.1623 -0.1467
 1224TIP3    H125163   0.275   4.081  14.851 -0.2894  0.2470 -0.0795
 1224TIP3    H225164   0.253   3.948  14.921  1.6741 -0.5342 -0.8761
 1225TIP3   OH225165   0.903   6.160  13.643 -0.0422 -0.3597  0.1355
 1225TIP3    H125166   0.952   6.238  13.670  0.4263 -0.1700 -1.1788
 1225TIP3    H225167   0.824   6.194  13.601  0.6793 -0.5330 -1.4167
 1226TIP3   OH225168   3.236   6.232  15.576 -0.5025  0.2106 -0.2656
 1226TIP3    H125169   3.287   6.311  15.592  1.9611 -1.5370  1.2526
 1226TIP3    H225170   3.210   6.237  15.484  2.9071  0.9956 -1.2995
 1227TIP3   OH225171   6.147   0.657   2.727  0.0905 -0.0198 -0.5534
 1227TIP3    H125172   6.232   0.619   2.746  0.3451  1.2941  1.1046
 1227TIP3    H225173   6.115   0.690   2.811 -1.1716  1.2583 -1.4702
 1228TIP3   OH225174   3.768   6.795   0.803 -0.3187  0.0070 -0.1937
 1228TIP3    H125175   3.710   6.851   0.751 -1.2955 -0.1861  0.6695
 1228TIP3    H225176   3.831   6.856   0.841  0.7396  0.1054 -1.9640
 1229TIP3   OH225177   1.164   1.440  11.492  0.3265 -0.0217  0.0195
 1229TIP3    H125178   1.126   1.506  11.435 -2.6069 -1.3081  0.3188
 1229TIP3    H225179   1.132   1.461  11.579  1.0425 -0.6652  0.4557
 1230TIP3   OH225180   0.438   5.968  14.324  1.0623  0.1039 -0.1624
 1230TIP3    H125181   0.532   5.957  14.340  1.3073  2.9196  0.9150
 1230TIP3    H225182   0.400   5.973  14.412 -0.3459 -2.2105 -0.5639
 1231TIP3   OH225183   4.467   3.214   0.132  0.0720  0.0373 -0.0857
 1231TIP3    H125184   4.545   3.196   0.185 -1.2397 -0.6889  1.6726
 1231TIP3    H225185   4.453   3.308   0.144 -0.2190 -0.1162  0.9169
 1232TIP3   OH225186   6.004   1.769  16.638 -0.5536 -0.6362  0.6824
 1232TIP3    H125187   5.924   1.797  16.592 -0.8819 -1.1242  0.9500
 1232TIP3    H225188   6.074   1.784  16.575 -0.9110 -0.6397  0.2773
 1233TIP3   OH225189   6.354   6.468  15.611 -0.1072  0.2200 -0.2754
 1233TIP3    H125190   6.440   6.424  15.611 -0.0893  0.1116 -2.5668
 1233TIP3    H225191   6.357   6.526  15.686  1.9909  0.2027 -0.2757
 1234TIP3   OH225192   0.489   4.604   6.347 -0.5510 -0.3146  0.2263
 1234TIP3    H125193   0.516   4.678   6.402 -1.6631 -1.0644  1.8453
 1234TIP3    H225194   0.569   4.554   6.333  0.9345  2.5542 -3.3335
 1235TIP3   OH225195   1.009   4.708  16.423 -0.2586 -0.0531  0.5300
 1235TIP3    H125196   0.982   4.722  16.333 -1.9652 -0.3333  0.9626
 1235TIP3    H225197   1.066   4.782  16.444 -0.1210  0.1868 -0.6592
 1236TIP3   OH225198   5.441   5.036   1.471 -0.1476 -0.0081 -0.4223
 1236TIP3    H125199   5.387   5.037   1.392  0.6332 -3.2012 -1.1444
 1236TIP3    H225200   5.528   5.062   1.441 -0.6471  2.7349  0.2692
 1237TIP3   OH225201   5.027   1.908  13.281 -0.5818 -0.4067 -0.6116
 1237TIP3    H125202   4.971   1.949  13.348  0.2075 -2.5387  1.4929
 1237TIP3    H225203   5.066   1.981  13.235  0.2579  1.3038  2.5082
 1238TIP3   OH225204   3.822   2.834  11.883 -0.2890 -0.6700  0.5536
 1238TIP3    H125205   3.777   2.765  11.932 -0.8444 -0.8677 -0.2290
 1238TIP3    H225206   3.757   2.905  11.876  0.7103  0.5443  2.5595
 1239TIP3   OH225207   0.654   6.097  12.459  0.7142 -0.1475 -0.0706
 1239TIP3    H125208   0.735   6.066  12.419 -0.4605  1.8097 -4.5885
 1239TIP3    H225209   0.588   6.032  12.434 -0.2372  1.6285 -2.6268
 1240TIP3   OH225210   4.475   4.413  16.033  0.4443 -0.4409  0.3041
 1240TIP3    H125211   4.463   4.507  16.025  4.1642  0.0574 -2.6252
 1240TIP3    H225212   4.542   4.403  16.100 -0.5442 -1.1099  1.2094
 1241TIP3   OH225213   4.264   5.207  16.558  0.6532 -0.5884 -0.7287
 1241TIP3    H125214   4.350   5.179  16.591  0.1022 -1.2906  0.1714
 1241TIP3    H225215   4.257   5.298  16.585  1.1708 -0.4796 -0.9354
 1242TIP3   OH225216   2.515   3.011   6.461 -0.5494 -0.0441 -0.6874
 1242TIP3    H125217   2.437   3.062   6.484 -0.5048 -0.7578  1.2356
 1242TIP3    H225218   2.483   2.921   6.453  0.2215 -0.5152  1.1830
 1243TIP3   OH225219   0.023   0.091   4.913  0.1321 -0.3518  0.0244
 1243TIP3    H125220  -0.053   0.149   4.912  1.3184  1.3039  0.4506
 1243TIP3    H225221   0.070   0.112   4.832  1.8244  1.1319  1.3018
 1244TIP3   OH225222   4.920   3.125   2.602  0.0554  0.0391  0.0321
 1244TIP3    H125223   4.866   3.049   2.581 -1.2383  1.1858 -0.9987
 1244TIP3    H225224   4.992   3.121   2.539 -0.7538  0.3744 -0.9455
 1245TIP3   OH225225   1.449   2.136   5.193 -0.7618  0.3298  0.2230
 1245TIP3    H125226   1.406   2.068   5.141 -0.3085 -0.0628  0.3498
 1245TIP3    H225227   1.500   2.186   5.130  0.6436 -0.8030  0.3952
 1246TIP3   OH225228   3.774   5.141  16.105 -0.2236 -0.2336  0.1716
 1246TIP3    H125229   3.747   5.218  16.055  1.1820  0.9533  1.1542
 1246TIP3    H225230   3.812   5.176  16.185  0.3054 -1.9707  0.7388
 1247TIP3   OH225231   1.942   6.208   1.827 -0.2796 -0.2379  0.3108
 1247TIP3    H125232   1.967   6.183   1.916 -2.3773 -0.0899  0.9956
 1247TIP3    H225233   1.980   6.295   1.815  0.3883 -0.4396  0.8789
 1248TIP3   OH225234   1.014   4.803  11.994 -0.1838 -0.0896 -0.8108
 1248TIP3    H125235   1.041   4.720  11.955  2.2037  0.7780 -1.2233
 1248TIP3    H225236   1.035   4.794  12.087  1.3735  0.4634 -1.0746
 1249TIP3   OH225237   0.063   5.829   4.881  0.1657  0.5365  0.4679
 1249TIP3    H125238   0.032   5.913   4.916  1.0512  0.3829  1.6932
 1249TIP3    H225239   0.088   5.779   4.959  0.5933 -0.4879 -0.3075
 1250TIP3   OH225240   4.756   3.139   1.206  0.0564  0.7934  0.3925
 1250TIP3    H125241   4.799   3.067   1.159 -2.2239 -0.7406  0.4921
 1250TIP3    H225242   4.794   3.136   1.294 -0.2666 -0.5451  0.5018
 1251TIP3   OH225243   3.579   6.605  16.245  0.1049  0.2656  0.4531
 1251TIP3    H125244   3.515   6.600  16.316  0.9606 -0.1087  1.2177
 1251TIP3    H225245   3.594   6.698  16.232  0.6515  0.3250  1.4352
 1252TIP3   OH225246   1.770   3.595   5.777  0.3742 -0.2532  0.0487
 1252TIP3    H125247   1.854   3.597   5.825  0.6041 -0.5442 -0.3392
 1252TIP3    H225248   1.794   3.610   5.686 -0.2777  2.7916  0.2640
 1253TIP3   OH225249   3.630   0.408   0.005  0.7981 -0.0849  0.0860
 1253TIP3    H125250   3.630   0.431   0.098 -3.5216  0.4456  0.1763
 1253TIP3    H225251   3.706   0.454  -0.031  1.2502  1.6580  2.9156
 1254TIP3   OH225252   1.024   1.513   2.496  0.3132 -0.4259  0.1002
 1254TIP3    H125253   0.962   1.533   2.426  1.2778 -0.0636 -0.6768
 1254TIP3    H225254   1.050   1.423   2.480 -0.8190 -0.9711  1.0930
 1255TIP3   OH225255   3.545   0.443   3.073 -0.8073  0.0528 -0.1070
 1255TIP3    H125256   3.570   0.434   3.165 -2.0336 -0.4308  0.1928
 1255TIP3    H225257   3.543   0.538   3.058 -1.1570  0.1537  0.5321
 1256TIP3   OH225258   2.841   1.474  17.037 -0.4047 -0.3676  0.0560
 1256TIP3    H125259   2.755   1.510  17.018  0.8705  1.8696 -2.0219
 1256TIP3    H225260   2.895   1.550  17.060  1.4792 -1.3981 -0.6634
 1257TIP3   OH225261   0.051   4.392   3.291  0.4701 -0.1051  0.2413
 1257TIP3    H125262  -0.003   4.463   3.256  0.4010  0.5428  1.6000
 1257TIP3    H225263   0.140   4.427   3.290  0.2275  0.7449  2.5755
 1258TIP3   OH225264   2.090   6.833  12.707  0.2704 -0.8550 -0.2766
 1258TIP3    H125265   2.018   6.771  12.711 -0.2194 -0.3712 -1.2243
 1258TIP3    H225266   2.092   6.862  12.615  0.1069  0.9576  0.2485
 1259TIP3   OH225267   1.330   2.077   3.114 -0.3952 -0.2480  0.0165
 1259TIP3    H125268   1.363   1.990   3.136 -1.2172 -1.2080 -2.2348
 1259TIP3    H225269   1.319   2.121   3.199  1.2662 -1.8402  1.1306
 1260TIP3   OH225270   6.264   2.763  15.900 -0.1228  0.7667 -0.7192
 1260TIP3    H125271   6.269   2.762  15.996 -0.7580 -0.3227 -0.6685
 1260TIP3    H225272   6.179   2.803  15.881 -1.2809 -1.5090 -0.6873
 1261TIP3   OH225273   1.529   1.971   0.177  0.0565 -0.1559 -0.9880
 1261TIP3    H125274   1.446   2.015   0.195  0.6453  0.2303  1.0175
 1261TIP3    H225275   1.525   1.890   0.229  0.9986 -0.0509 -0.7326
 1262TIP3   OH225276   6.797   4.011   1.642 -0.0666 -0.3636  0.2414
 1262TIP3    H125277   6.794   4.081   1.578 -1.3461 -1.7274 -1.2918
 1262TIP3    H225278   6.768   4.051   1.724  0.6770  1.2025 -0.2410
 1263TIP3   OH225279   2.356   5.478   0.775 -0.1434  0.1444 -0.2606
 1263TIP3    H125280   2.400   5.548   0.822  0.0714  0.7943 -1.3839
 1263TIP3    H225281   2.287   5.449   0.834 -0.5708  1.6629  0.0218
 1264TIP3   OH225282   6.398   5.925   5.673 -0.6452 -0.7201 -0.4665
 1264TIP3    H125283   6.319   5.978   5.676 -0.8747 -1.0748  3.0624
 1264TIP3    H225284   6.381   5.851   5.731  1.2239 -2.4711 -1.9422
 1265TIP3   OH225285   0.613   0.122   5.029 -0.0036 -0.3232 -0.4831
 1265TIP3    H125286   0.619   0.192   4.964  0.4314  0.4651  0.3640
 1265TIP3    H225287   0.619   0.041   4.979 -1.8300  0.2103 -1.6200
 1266TIP3   OH225288   2.169   0.029  16.500 -0.1275  1.0944  0.2051
 1266TIP3    H125289   2.109  -0.013  16.562  0.6801 -0.6126 -0.1318
 1266TIP3    H225290   2.147  -0.009  16.416  1.9558 -0.2025  0.1918
 1267TIP3   OH225291   0.471   1.563   3.607 -0.0197  0.5336  0.2029
 1267TIP3    H125292   0.488   1.470   3.591 -3.6899 -0.5866  1.8723
 1267TIP3    H225293   0.554   1.596   3.641  1.8070 -1.7546 -1.6638
 1268TIP3   OH225294   0.308   6.134   5.078  0.0620  0.1155 -0.8322
 1268TIP3    H125295   0.315   6.079   5.000  1.0720 -0.1324 -0.5842
 1268TIP3    H225296   0.352   6.083   5.147 -1.1909  0.1324  0.0191
 1269TIP3   OH225297   5.302   6.267   2.503 -0.6106 -0.4893  0.0665
 1269TIP3    H125298   5.359   6.190   2.494  0.2053  0.2118 -1.0078
 1269TIP3    H225299   5.362   6.341   2.503 -1.2406  0.1206  2.8827
 1270TIP3   OH225300   4.713   6.698  14.215 -0.1000  0.1659  0.1881
 1270TIP3    H125301   4.765   6.750  14.153  0.4407 -0.4138  0.1499
 1270TIP3    H225302   4.654   6.762  14.255 -0.1783  0.6213 -0.6269
 1271TIP3   OH225303   2.316   1.203  16.124  0.2982  0.1879 -0.3848
 1271TIP3    H125304   2.350   1.119  16.093 -1.9140 -0.2795 -1.8259
 1271TIP3    H225305   2.329   1.263  16.051 -0.5483  0.3705 -0.3988
 1272TIP3   OH225306   0.146   0.392  15.065 -0.1591 -0.1993 -0.3225
 1272TIP3    H125307   0.116   0.483  15.064 -1.9058 -0.7436 -0.7565
 1272TIP3    H225308   0.092   0.348  15.000  2.0935 -1.1592 -1.6944
 1273TIP3   OH225309   0.398   1.451   5.837  0.1685 -0.0623 -0.4475
 1273TIP3    H125310   0.479   1.490   5.806  0.4414 -0.5238 -0.3208
 1273TIP3    H225311   0.386   1.373   5.783  0.0580 -0.2538 -0.1520
 1274TIP3   OH225312   0.446   0.378   3.498  0.1418 -0.2569 -0.0367
 1274TIP3    H125313   0.516   0.443   3.493  0.2843  0.0784  3.5274
 1274TIP3    H225314   0.491   0.297   3.525 -0.6676 -0.3072  1.2242
 1275TIP3   OH225315   0.245   3.256   6.698  0.2217  0.3413 -0.4823
 1275TIP3    H125316   0.183   3.303   6.754  0.2142  1.1697 -1.1746
 1275TIP3    H225317   0.238   3.298   6.613  1.4041  0.1479 -0.6910
 1276TIP3   OH225318   5.448   5.316  11.008 -0.1037  0.0287 -0.1205
 1276TIP3    H125319   5.445   5.340  11.101  0.5074 -0.1585 -0.0475
 1276TIP3    H225320   5.504   5.238  11.005  1.0052  0.8226 -0.8039
 1277TIP3   OH225321   6.373   5.138  14.810  0.2743  0.6693 -0.4749
 1277TIP3    H125322   6.348   5.160  14.720 -0.6197  2.2177  0.1134
 1277TIP3    H225323   6.433   5.064  14.801 -1.0462 -0.2614 -2.2454
 1278TIP3   OH225324   0.425   1.789   1.383 -0.1021 -0.0815 -0.2391
 1278TIP3    H125325   0.346   1.740   1.364  0.5519 -0.6530 -1.5651
 1278TIP3    H225326   0.404   1.837   1.463 -0.7081 -2.6363  1.2482
 1279TIP3   OH225327   4.133   1.533   4.878  0.1316 -0.4539  0.0814
 1279TIP3    H125328   4.092   1.460   4.926  1.4173 -1.4758 -0.3284
 1279TIP3    H225329   4.224   1.532   4.907  0.5651 -0.1026 -1.2285
 1280TIP3   OH225330   4.127   0.129   5.392 -0.1607 -0.7797 -0.5940
 1280TIP3    H125331   4.124   0.139   5.487 -1.3336 -1.0572 -0.5825
 1280TIP3    H225332   4.168   0.045   5.377  0.3525 -0.5738 -0.3438
 1281TIP3   OH225333   6.041   2.362   4.060  0.4440  0.5485  0.8836
 1281TIP3    H125334   5.970   2.320   4.012  1.7959 -1.3829  0.4559
 1281TIP3    H225335   6.031   2.455   4.042 -0.6668  0.1120 -0.9585
 1282TIP3   OH225336   0.931   4.176  16.898 -0.1903  0.2953 -0.3343
 1282TIP3    H125337   0.980   4.120  16.838 -0.5244  0.1751 -0.4965
 1282TIP3    H225338   0.843   4.181  16.860 -0.4104  0.2024  0.1462
 1283TIP3   OH225339   2.710   1.968  11.649  0.5582  0.3857  0.0105
 1283TIP3    H125340   2.777   1.969  11.717  1.1611 -1.1749 -0.5081
 1283TIP3    H225341   2.663   1.886  11.662 -2.2529  2.0351  1.2236
 1284TIP3   OH225342   0.119   5.319   1.063  0.4291  0.6319  0.3190
 1284TIP3    H125343   0.088   5.393   1.114  1.0925  0.6855  0.6452
 1284TIP3    H225344   0.080   5.332   0.976 -0.3517  0.7639  0.6764
 1285TIP3   OH225345   5.124   0.993   0.085 -0.3456  0.4333  0.5743
 1285TIP3    H125346   5.105   1.081   0.051 -2.7852 -0.7591 -1.5264
 1285TIP3    H225347   5.039   0.959   0.112  0.5652 -1.2502  1.4645
 1286TIP3   OH225348   6.847   6.258   0.256 -0.4901 -0.4194  0.4432
 1286TIP3    H125349   6.821   6.175   0.295  0.2776  0.2026  2.4282
 1286TIP3    H225350   6.936   6.243   0.223 -1.5885 -1.3165 -2.4409
 1287TIP3   OH225351   6.023   3.931   4.870  0.2382 -0.1520  0.5850
 1287TIP3    H125352   6.043   3.859   4.930 -0.2180 -0.5584  0.2481
 1287TIP3    H225353   6.083   3.918   4.796 -0.3272 -0.5958  0.1985
 1288TIP3   OH225354   3.026   2.582   4.301  0.5032 -0.5449 -0.1738
 1288TIP3    H125355   3.100   2.544   4.347  1.2982 -1.0149 -1.7797
 1288TIP3    H225356   3.063   2.618   4.220 -0.7762  0.5939 -0.2873
 1289TIP3   OH225357   5.255   2.458  15.233  0.0697 -0.1607  0.1005
 1289TIP3    H125358   5.287   2.548  15.239  2.2274 -0.5155 -3.2230
 1289TIP3    H225359   5.322   2.406  15.277 -0.3848 -0.2821  0.6583
 1290TIP3   OH225360   5.571   5.604   6.034  0.3487 -0.4889 -0.4459
 1290TIP3    H125361   5.652   5.554   6.045 -0.5176 -1.3324  3.7246
 1290TIP3    H225362   5.513   5.545   5.985  0.8101 -1.8390  0.5659
 1291TIP3   OH225363   0.036   3.759   2.049 -0.0171  0.2236 -0.2758
 1291TIP3    H125364   0.013   3.696   2.117  0.7624 -2.1395 -2.0374
 1291TIP3    H225365   0.131   3.768   2.056 -0.0637  0.8392 -0.3662
 1292TIP3   OH225366   4.892   0.396   3.922  0.6307 -0.0374 -0.0396
 1292TIP3    H125367   4.926   0.348   3.846 -0.5410 -0.0967 -0.5638
 1292TIP3    H225368   4.816   0.443   3.887  0.6375  0.6855  0.8966
 1293TIP3   OH225369   1.657   6.494  16.051  0.3415 -0.8604 -0.1964
 1293TIP3    H125370   1.709   6.448  16.116  0.1971 -0.7231  0.0205
 1293TIP3    H225371   1.630   6.575  16.095  2.1654  0.3639 -1.1828
 1294TIP3   OH225372   1.619   6.654  14.255 -0.5827  0.0184  0.2913
 1294TIP3    H125373   1.530   6.629  14.282 -0.6946  0.5801  0.4469
 1294TIP3    H225374   1.666   6.663  14.338 -0.9769  1.9503  0.3590
 1295TIP3   OH225375   5.920   1.788  15.684 -0.0785 -0.2317  0.6180
 1295TIP3    H125376   5.844   1.811  15.737 -0.7917  2.4362 -1.3569
 1295TIP3    H225377   5.986   1.853  15.707  0.8540 -1.2103  0.7634
 1296TIP3   OH225378   0.040   5.360   0.767  0.3307 -0.0665 -0.1935
 1296TIP3    H125379   0.063   5.426   0.701  0.3348 -0.8082 -0.9429
 1296TIP3    H225380  -0.051   5.380   0.790  0.4517  0.4331 -0.1352
 1297TIP3   OH225381   3.033   0.279  11.965  0.4450 -0.4681 -0.2423
 1297TIP3    H125382   2.995   0.352  12.012 -1.8291 -1.5030 -0.3785
 1297TIP3    H225383   3.096   0.319  11.905 -0.9974  1.4224 -0.5595
 1298TIP3   OH225384   0.816   2.304   6.671  0.5448 -0.3581 -0.6115
 1298TIP3    H125385   0.739   2.291   6.617  0.8656 -1.8160 -0.7645
 1298TIP3    H225386   0.866   2.223   6.662  0.7227 -0.5786  1.6581
 1299TIP3   OH225387   5.109   1.894   2.502  0.5452 -0.3909 -0.3304
 1299TIP3    H125388   5.184   1.839   2.522  1.0875  0.3513 -0.2927
 1299TIP3    H225389   5.123   1.924   2.412  0.9938  0.8100  0.1092
 1300TIP3   OH225390   6.852   2.690   1.986 -0.4121 -0.6157  0.4631
 1300TIP3    H125391   6.820   2.747   1.917  0.6251  0.6988  1.0233
 1300TIP3    H225392   6.797   2.709   2.062  1.0379  1.0619  1.1892
 1301TIP3   OH225393   6.603   4.118   5.932 -0.9447  0.0614 -0.0202
 1301TIP3    H125394   6.524   4.072   5.905 -0.2917 -1.0073 -0.1775
 1301TIP3    H225395   6.655   4.127   5.852 -1.2132  1.4212 -0.0656
 1302TIP3   OH225396   4.683   4.766   3.141 -0.7257  0.6162 -0.1215
 1302TIP3    H125397   4.662   4.858   3.157  0.6372  1.7550 -3.8221
 1302TIP3    H225398   4.775   4.758   3.164 -0.7405  0.2774 -0.1791
 1303TIP3   OH225399   0.512   5.076  13.782  0.2643 -0.0877  0.1839
 1303TIP3    H125400   0.418   5.064  13.790  0.4663 -1.0018  1.4641
 1303TIP3    H225401   0.524   5.114  13.695 -1.1994 -0.7909 -0.3545
 1304TIP3   OH225402   1.425   5.118   5.241  0.0163 -0.5245  0.2891
 1304TIP3    H125403   1.403   5.121   5.147  0.6150 -1.2683  0.1214
 1304TIP3    H225404   1.490   5.187   5.252 -0.5372  0.0112  0.2991
 1305TIP3   OH225405   5.969   4.053   6.413 -0.0797  0.0771 -0.1529
 1305TIP3    H125406   5.936   3.967   6.385 -2.0250  0.1650  1.5889
 1305TIP3    H225407   5.909   4.116   6.373  0.6450  0.5523 -0.4974
 1306TIP3   OH225408   2.150   6.033  10.678 -0.2032 -0.1395  0.1176
 1306TIP3    H125409   2.124   6.069  10.594 -0.5895 -0.4584  0.0939
 1306TIP3    H225410   2.197   6.104  10.722  0.3587 -0.1008 -0.5252
 1307TIP3   OH225411   2.541   2.440   2.211 -0.0130  0.0744  0.0244
 1307TIP3    H125412   2.505   2.490   2.138  1.2124  1.6478  0.4318
 1307TIP3    H225413   2.632   2.468   2.217 -0.2671  0.6010  2.6115
 1308TIP3   OH225414   6.163   0.852   1.263 -0.2800  0.1241  0.2158
 1308TIP3    H125415   6.166   0.939   1.223  1.0888  0.8444  1.7489
 1308TIP3    H225416   6.246   0.811   1.238 -0.4188 -0.2920  0.4253
 1309TIP3   OH225417   1.438   4.882   2.056  0.4047  0.2320 -0.3419
 1309TIP3    H125418   1.465   4.790   2.047 -0.2393 -0.3669  2.6851
 1309TIP3    H225419   1.348   4.884   2.026  0.3540 -0.1830 -0.2222
 1310TIP3   OH225420   6.106   5.805   5.814 -0.4658  0.2708  0.0039
 1310TIP3    H125421   6.070   5.761   5.737  0.2831 -1.3942  0.5787
 1310TIP3    H225422   6.109   5.737   5.882  1.7817  0.8907  0.5951
 1311TIP3   OH225423   5.999   1.057  15.466 -0.0065 -0.7862  0.3925
 1311TIP3    H125424   6.052   1.010  15.530  0.5081 -2.7949 -1.3840
 1311TIP3    H225425   5.909   1.042  15.494  0.1716 -2.5559  0.0917
 1312TIP3   OH225426   3.585   6.122   3.668  0.2729  0.0428  0.5036
 1312TIP3    H125427   3.672   6.128   3.707  2.5022  0.6456 -3.8600
 1312TIP3    H225428   3.585   6.037   3.624  0.0533  1.2635 -2.0879
 1313TIP3   OH225429   5.521   0.062   3.504  0.2070 -0.0623 -0.0095
 1313TIP3    H125430   5.519  -0.033   3.505  0.1100 -0.1775 -3.1130
 1313TIP3    H225431   5.561   0.086   3.588 -0.8321 -2.7414  1.3689
 1314TIP3   OH225432   2.193   4.498  12.478  0.4657 -0.0934  0.3610
 1314TIP3    H125433   2.175   4.423  12.420 -1.3056  2.2620 -2.4147
 1314TIP3    H225434   2.233   4.563  12.421 -1.9873  2.6451  1.5399
 1315TIP3   OH225435   3.255   4.682  12.841 -0.0186  0.3146 -0.4261
 1315TIP3    H125436   3.179   4.730  12.810 -1.2316 -0.6687  0.8950
 1315TIP3    H225437   3.319   4.689  12.770 -0.5187  2.9406 -0.7051
 1316TIP3   OH225438   6.240   2.989   3.846 -0.2043  0.2936 -0.0902
 1316TIP3    H125439   6.260   3.082   3.852 -1.1336  0.6688 -2.0625
 1316TIP3    H225440   6.218   2.975   3.754 -2.8039 -1.2785  0.6519
 1317TIP3   OH225441   1.066   3.244  15.946 -0.2279  0.3599 -0.4987
 1317TIP3    H125442   1.002   3.190  15.993  0.5084  0.1865  0.3359
 1317TIP3    H225443   1.151   3.215  15.980  0.2217  1.5500 -0.5568
 1318TIP3   OH225444   0.509   2.187   2.173  0.0574 -0.1801 -0.2113
 1318TIP3    H125445   0.554   2.183   2.257 -1.3337  1.2245  0.6630
 1318TIP3    H225446   0.445   2.115   2.176 -0.4253  0.2619  0.2160
 1319TIP3   OH225447   2.887   0.568   5.573 -0.6632  0.1978 -0.1284
 1319TIP3    H125448   2.866   0.655   5.540 -0.2559 -0.0805 -1.1435
 1319TIP3    H225449   2.859   0.508   5.504 -0.7170 -0.4744  0.4568
 1320TIP3   OH225450   4.548   5.817   5.413  0.2225  0.0579  0.1428
 1320TIP3    H125451   4.486   5.744   5.421  0.1923 -0.2173 -2.1443
 1320TIP3    H225452   4.586   5.807   5.326  0.2151  2.7787 -0.2484
 1321TIP3   OH225453   0.935   3.043  16.379  0.0605 -0.5669  0.3161
 1321TIP3    H125454   0.889   3.065  16.297  1.8564  0.1291 -0.5576
 1321TIP3    H225455   0.955   2.950  16.371 -1.4943 -0.9951  0.9077
 1322TIP3   OH225456   0.179   2.472  13.645  0.2665  0.2530 -0.8283
 1322TIP3    H125457   0.088   2.450  13.665  0.5154  0.3705  0.5713
 1322TIP3    H225458   0.183   2.475  13.550 -0.8133 -1.3728 -0.9622
 1323TIP3   OH225459   3.867   4.425  16.796 -0.0038 -0.5003 -0.3046
 1323TIP3    H125460   3.961   4.419  16.812 -0.0868 -3.8546 -0.2861
 1323TIP3    H225461   3.834   4.485  16.863  1.9462 -0.2264  0.4673
 1324TIP3   OH225462   3.965   3.386  11.766  0.8093 -0.2574 -0.1582
 1324TIP3    H125463   3.925   3.299  11.769 -1.0117  0.5579  2.0596
 1324TIP3    H225464   4.060   3.369  11.762  0.5754 -2.3757  1.6357
 1325TIP3   OH225465   4.163   5.716  13.125  0.3016 -0.3541  0.2930
 1325TIP3    H125466   4.121   5.743  13.207  0.0292  0.1550 -0.0126
 1325TIP3    H225467   4.107   5.646  13.091 -0.7726  0.8725 -0.5247
 1326TIP3   OH225468   2.485   5.073  16.766  0.6066  0.0810  0.5741
 1326TIP3    H125469   2.481   5.014  16.841  1.3239  0.1046  0.6443
 1326TIP3    H225470   2.569   5.053  16.725  0.3196  0.2277 -0.0926
 1327TIP3   OH225471   6.365   5.397   3.956  0.1233 -0.3067 -0.2616
 1327TIP3    H125472   6.397   5.317   3.998  0.2047 -0.7730 -1.1822
 1327TIP3    H225473   6.273   5.378   3.938 -0.2972  0.4379  0.9701
 1328TIP3   OH225474   6.814   0.506   4.883  0.9520 -0.3851  0.4672
 1328TIP3    H125475   6.873   0.514   4.957  1.0960 -0.5205  0.3654
 1328TIP3    H225476   6.767   0.590   4.880  1.1453 -0.2758  0.5391
 1329TIP3   OH225477   2.063   6.788   2.194  0.6053 -0.1122 -0.0791
 1329TIP3    H125478   1.997   6.856   2.186  2.2677  1.3218 -3.1692
 1329TIP3    H225479   2.113   6.812   2.272  0.5369  1.6643 -0.5531
 1330TIP3   OH225480   0.362   6.502   1.193 -0.2708 -0.7999  0.1068
 1330TIP3    H125481   0.416   6.552   1.131  0.1100  1.4646  2.1197
 1330TIP3    H225482   0.277   6.494   1.150  0.0845  0.3824 -0.8713
 1331TIP3   OH225483   6.627   3.117  13.872  0.0317 -0.5590 -0.3391
 1331TIP3    H125484   6.714   3.078  13.875  0.6778  0.8109 -0.6398
 1331TIP3    H225485   6.642   3.210  13.859 -1.4905 -0.3092 -0.5665
 1332TIP3   OH225486   4.806   6.753   1.137  0.2169  0.2077  0.1073
 1332TIP3    H125487   4.789   6.767   1.230  0.3424  0.6340  0.0655
 1332TIP3    H225488   4.747   6.813   1.092  1.2745  1.1551 -0.0496
 1333TIP3   OH225489   3.078   2.876   0.919 -0.1540  0.1088  0.3736
 1333TIP3    H125490   3.078   2.800   0.861  1.1440  0.0472  0.4264
 1333TIP3    H225491   3.141   2.854   0.987  0.3060  1.2693  0.3429
 1334TIP3   OH225492   0.645   0.609  11.423  0.1062 -0.2076 -0.5316
 1334TIP3    H125493   0.625   0.561  11.342 -0.0876 -0.3180 -0.4163
 1334TIP3    H225494   0.614   0.552  11.493  1.8245 -0.9130 -0.2945
 1335TIP3   OH225495   6.415   1.049  17.041  0.5421 -0.2670  0.8957
 1335TIP3    H125496   6.335   1.101  17.046  0.9166  0.3777  0.4034
 1335TIP3    H225497   6.471   1.097  16.980  1.1536 -0.9120  0.9331
 1336TIP3   OH225498   2.581   5.273   4.395 -0.5034  0.4366 -0.2647
 1336TIP3    H125499   2.675   5.256   4.405 -0.4697  0.4493 -0.5443
 1336TIP3    H225500   2.546   5.193   4.357 -0.8521 -0.0890  1.1006
 1337TIP3   OH225501   3.081   4.962  12.196  0.3073 -0.0665 -0.7342
 1337TIP3    H125502   3.095   5.017  12.273 -3.9388 -1.1935  1.1481
 1337TIP3    H225503   3.130   4.882  12.214  0.3832  0.1801  0.1923
 1338TIP3   OH225504   4.792   5.932   0.867  0.2751 -0.4636 -0.0805
 1338TIP3    H125505   4.764   5.855   0.917  0.3048  0.2589  1.0855
 1338TIP3    H225506   4.870   5.963   0.912 -0.0466  0.5728 -0.2070
 1339TIP3   OH225507   3.679   2.314   2.639  0.0066  0.2194  0.1229
 1339TIP3    H125508   3.677   2.341   2.548 -1.6702  1.4732  0.5061
 1339TIP3    H225509   3.740   2.374   2.681 -0.1793  0.4377  0.0776
 1340TIP3   OH225510   5.585   1.278  14.689 -0.3333 -0.4245  0.0294
 1340TIP3    H125511   5.644   1.285  14.614  0.1518 -2.3947  0.1667
 1340TIP3    H225512   5.626   1.332  14.757 -0.5135  0.9686 -0.9265
 1341TIP3   OH225513   6.186   6.129   2.081 -0.6299 -0.5685 -0.2590
 1341TIP3    H125514   6.158   6.189   2.150  0.6598 -0.4703  0.2164
 1341TIP3    H225515   6.168   6.175   2.000 -0.5891  0.0366  0.0729
 1342TIP3   OH225516   4.785   1.387   6.785  0.0955 -0.5445  0.6252
 1342TIP3    H125517   4.848   1.459   6.783 -0.6095  0.0721 -0.5939
 1342TIP3    H225518   4.839   1.308   6.776  0.7573 -0.0798  0.3847
 1343TIP3   OH225519   1.183   3.468  11.965 -0.3974  0.1414 -0.1953
 1343TIP3    H125520   1.190   3.420  11.883 -2.4044  0.5269 -0.6468
 1343TIP3    H225521   1.096   3.446  11.999  0.1108  0.5358  1.4875
 1344TIP3   OH225522   4.292   2.259  16.035  0.3759  0.1058 -0.0559
 1344TIP3    H125523   4.230   2.209  16.089 -0.4973 -1.7643 -2.5738
 1344TIP3    H225524   4.246   2.340  16.015 -0.8650 -0.7975 -0.9962
 1345TIP3   OH225525   2.313   3.291  16.416  0.0201 -0.2003  0.1827
 1345TIP3    H125526   2.357   3.282  16.500  1.0660  1.4682 -0.1419
 1345TIP3    H225527   2.260   3.370  16.424  0.3227  0.1233 -0.7846
 1346TIP3   OH225528   1.805   6.489   4.189  0.4417  0.0776  0.7335
 1346TIP3    H125529   1.878   6.473   4.248  0.2670 -0.5236  0.7912
 1346TIP3    H225530   1.743   6.419   4.207  0.7235 -0.5678 -0.6949
 1347TIP3   OH225531   6.176   3.215   0.583 -0.2142  0.4665  0.0249
 1347TIP3    H125532   6.194   3.265   0.662  2.4871  0.2978 -0.3747
 1347TIP3    H225533   6.172   3.281   0.514 -2.8112  0.6391  0.2569
 1348TIP3   OH225534   4.497   0.252  16.246  0.0971  0.1036 -0.3248
 1348TIP3    H125535   4.500   0.184  16.179 -0.8699 -0.8346  0.5447
 1348TIP3    H225536   4.481   0.205  16.328 -2.9924  1.5085  0.0076
 1349TIP3   OH225537   1.989   1.990   0.158 -0.1283  0.1133  0.4133
 1349TIP3    H125538   1.908   2.040   0.173 -0.5516  0.5474 -2.6824
 1349TIP3    H225539   2.038   2.043   0.096  0.6161 -2.0709 -0.9610
 1350TIP3   OH225540   0.231   4.529  13.438 -0.0584  0.2692 -0.3263
 1350TIP3    H125541   0.138   4.550  13.427  0.3005  2.1830 -0.0852
 1350TIP3    H225542   0.273   4.568  13.361  0.6350  0.0763 -0.0509
 1351TIP3   OH225543   6.141   2.670   5.691  0.1737  0.3598  0.2283
 1351TIP3    H125544   6.090   2.608   5.639  1.7936 -0.1111 -0.8588
 1351TIP3    H225545   6.111   2.655   5.781 -1.1838 -0.2752 -0.3034
 1352TIP3   OH225546   5.117   5.589   3.199 -0.3294  0.2242 -0.0567
 1352TIP3    H125547   5.152   5.663   3.248  0.4944 -0.8318  1.0199
 1352TIP3    H225548   5.179   5.576   3.127  0.2136 -0.1890  0.4826
 1353TIP3   OH225549   4.584   1.564  14.461  0.0652  0.1882 -0.3464
 1353TIP3    H125550   4.579   1.641  14.404 -2.9514  2.9737  3.1561
 1353TIP3    H225551   4.512   1.508  14.434  0.9355 -0.4110 -1.5175
 1354TIP3   OH225552   6.662   1.068  11.443 -0.0587  0.1054 -0.2842
 1354TIP3    H125553   6.744   1.030  11.412  0.1642 -0.7661  1.2783
 1354TIP3    H225554   6.682   1.161  11.453  1.4400 -0.3654  1.9847
 1355TIP3   OH225555   2.832   4.805   3.266 -0.1672 -0.3572 -0.0039
 1355TIP3    H125556   2.784   4.736   3.312 -1.0958 -0.3396 -0.9180
 1355TIP3    H225557   2.891   4.758   3.208 -2.3839 -0.5001 -2.3177
 1356TIP3   OH225558   5.578   3.645   0.079  0.2352 -0.2967 -0.1382
 1356TIP3    H125559   5.540   3.568   0.038 -0.4416 -0.0596  0.0204
 1356TIP3    H225560   5.551   3.640   0.170 -0.3166  0.4195 -0.2469
 1357TIP3   OH225561   1.711   1.576  14.544  0.2928  0.8328  0.4233
 1357TIP3    H125562   1.747   1.574  14.456  1.2265  1.4051  0.7830
 1357TIP3    H225563   1.756   1.648  14.588  1.6564 -0.9219  2.1057
 1358TIP3   OH225564   3.661   0.750  16.735 -0.1661 -0.2343  0.5880
 1358TIP3    H125565   3.592   0.686  16.753 -0.0710 -0.8378 -1.0216
 1358TIP3    H225566   3.676   0.743  16.640  0.0774  1.9563  0.4154
 1359TIP3   OH225567   6.497   4.273   1.267  0.5611 -0.4652  0.2151
 1359TIP3    H125568   6.443   4.316   1.334 -2.4748 -0.1431 -2.1812
 1359TIP3    H225569   6.506   4.339   1.198  0.2236 -1.9435 -1.3132
 1360TIP3   OH225570   6.148   2.644   2.728 -0.3381  0.5214  0.2518
 1360TIP3    H125571   6.233   2.621   2.764  0.5325  2.4049 -0.4245
 1360TIP3    H225572   6.145   2.740   2.733 -2.2146  0.5344 -0.2098
 1361TIP3   OH225573   4.247   6.263  15.822 -0.6407 -0.1805 -0.2968
 1361TIP3    H125574   4.165   6.307  15.844 -0.4577  0.5611 -1.0111
 1361TIP3    H225575   4.265   6.291  15.732  1.0872  0.7902  0.2900
 1362TIP3   OH225576   2.741   5.214   5.602 -0.0703 -0.6299 -0.3158
 1362TIP3    H125577   2.772   5.248   5.686  2.0711  0.2796 -1.3711
 1362TIP3    H225578   2.805   5.146   5.579  0.8371  0.7745 -2.2458
 1363TIP3   OH225579   5.135   5.446  11.060  0.0358  0.1610  0.6226
 1363TIP3    H125580   5.115   5.511  11.127  0.5508 -1.0622  2.0167
 1363TIP3    H225581   5.217   5.476  11.021 -0.2952  0.9107  0.4936
 1364TIP3   OH225582   3.711   3.344   4.971 -0.1706  0.0668 -0.2139
 1364TIP3    H125583   3.770   3.334   4.897  0.7114 -1.1085  0.5998
 1364TIP3    H225584   3.742   3.279   5.035  0.0380  1.9969  1.7822
 1365TIP3   OH225585   2.417   1.287  12.301 -0.6191  0.6567 -0.4183
 1365TIP3    H125586   2.463   1.370  12.318 -0.1362  0.6129 -1.4604
 1365TIP3    H225587   2.472   1.221  12.344 -0.6309  0.7996 -0.1805
 1366TIP3   OH225588   2.026   5.715  13.075 -0.1480  0.5063 -0.3351
 1366TIP3    H125589   2.002   5.806  13.087 -1.6305 -0.0015  0.8574
 1366TIP3    H225590   1.975   5.667  13.141  0.9752 -1.1268 -0.5773
 1367TIP3   OH225591   1.700   4.463   3.574  0.0919 -0.3989  0.2438
 1367TIP3    H125592   1.755   4.413   3.635  0.3881 -0.0958  0.2215
 1367TIP3    H225593   1.686   4.547   3.617 -1.0720 -0.7743  0.6483
 1368TIP3   OH225594   5.218   4.591  15.265 -0.0155 -0.2488  0.1799
 1368TIP3    H125595   5.305   4.555  15.280  1.0495  1.4409 -1.4675
 1368TIP3    H225596   5.167   4.564  15.341  1.8313 -1.6053  1.0000
 1369TIP3   OH225597   4.115   4.136  10.741  0.2188  0.3947 -0.5812
 1369TIP3    H125598   4.121   4.226  10.709  1.8981  0.2583 -0.7448
 1369TIP3    H225599   4.133   4.082  10.664 -1.7013 -0.1514 -0.7010
 1370TIP3   OH225600   6.377   0.040   4.326 -0.5513 -0.0860  0.4274
 1370TIP3    H125601   6.392   0.121   4.375 -0.5868 -0.2151  0.6535
 1370TIP3    H225602   6.460   0.022   4.282 -0.2587 -0.4223  1.1112
 1371TIP3   OH225603   3.196   1.163   5.884  0.4946 -0.0287 -0.3399
 1371TIP3    H125604   3.231   1.117   5.961 -0.1987  0.6230  0.3798
 1371TIP3    H225605   3.214   1.255   5.901 -1.1237  0.2837 -0.1729
 1372TIP3   OH225606   6.607   4.486  13.534 -0.3689 -0.0735 -0.0832
 1372TIP3    H125607   6.681   4.540  13.562 -0.4784 -0.2935  0.6589
 1372TIP3    H225608   6.571   4.531  13.457  0.2768  0.2551 -0.1948
 1373TIP3   OH225609   5.019   3.584  14.553 -0.3440 -0.0171  0.0877
 1373TIP3    H125610   5.081   3.561  14.484 -1.5420 -3.0804 -0.1315
 1373TIP3    H225611   5.006   3.678  14.543 -0.1707 -0.2319 -3.6452
 1374TIP3   OH225612   5.707   2.842  13.250  0.0164 -0.4603 -0.3115
 1374TIP3    H125613   5.672   2.811  13.166  0.1942  0.1787 -0.6315
 1374TIP3    H225614   5.753   2.767  13.287 -0.7269 -0.9764 -0.4232
 1375TIP3   OH225615   5.820   4.142   2.553 -0.2571  0.6464  0.1424
 1375TIP3    H125616   5.811   4.047   2.544  0.4791  0.5501  0.3663
 1375TIP3    H225617   5.908   4.161   2.522 -0.2477  1.2008  0.4943
 1376TIP3   OH225618   3.895   2.347   4.080  0.2115 -0.0899  0.0699
 1376TIP3    H125619   3.962   2.280   4.094  0.9059  0.7311  0.8562
 1376TIP3    H225620   3.813   2.307   4.109  0.5738 -0.6830  0.2795
 1377TIP3   OH225621   0.087   4.996   4.498 -0.3863 -0.4752 -0.0749
 1377TIP3    H125622   0.164   4.953   4.460  0.5218  0.8184  0.2050
 1377TIP3    H225623   0.078   4.957   4.585  2.4176  2.0078  1.5106
 1378TIP3   OH225624   1.981   2.826   1.490  0.3650  0.0706  0.5841
 1378TIP3    H125625   2.066   2.871   1.497  0.7001 -0.6317  1.1215
 1378TIP3    H225626   1.988   2.774   1.410  0.0051  0.9059  0.0027
 1379TIP3   OH225627   2.862   2.917  16.150 -0.0384 -0.0683 -0.4821
 1379TIP3    H125628   2.938   2.952  16.198 -1.7012  0.2938  2.1313
 1379TIP3    H225629   2.799   2.989  16.151 -1.3014 -1.1419 -0.4173
 1380TIP3   OH225630   2.980   5.076  15.770 -0.2564 -0.0002 -0.6545
 1380TIP3    H125631   2.989   4.989  15.730 -1.9485 -0.6088  0.2091
 1380TIP3    H225632   2.948   5.132  15.699  0.8965 -0.0314 -1.2294
 1381TIP3   OH225633   2.241   3.047  15.402  0.0579 -0.6760 -0.3762
 1381TIP3    H125634   2.281   2.963  15.378 -1.5188 -1.1610 -1.4327
 1381TIP3    H225635   2.298   3.081  15.471  0.2274 -3.0545  0.7820
 1382TIP3   OH225636   1.937   3.294   3.790 -0.0077  0.6216 -0.1104
 1382TIP3    H125637   1.994   3.251   3.726  0.3045  0.4743  0.2583
 1382TIP3    H225638   1.986   3.290   3.872 -1.2837 -1.1230  0.6295
 1383TIP3   OH225639   2.462   3.658  16.791 -0.4939  0.0279 -0.2004
 1383TIP3    H125640   2.513   3.618  16.861  2.4711  2.5021 -0.7298
 1383TIP3    H225641   2.376   3.674  16.830  0.4133 -0.4908  2.1782
 1384TIP3   OH225642   4.741   0.476  14.901 -0.3324  0.5296  0.4368
 1384TIP3    H125643   4.715   0.568  14.894 -0.9345  0.3930  0.8057
 1384TIP3    H225644   4.726   0.440  14.814  0.8919  1.0236  0.0050
 1385TIP3   OH225645   3.399   3.450   5.600  0.1775 -0.5543  0.0047
 1385TIP3    H125646   3.488   3.419   5.619  0.5406 -0.9876 -2.1217
 1385TIP3    H225647   3.353   3.371   5.570 -0.9367 -0.3151  0.9972
 1386TIP3   OH225648   4.950   1.312  14.481 -0.1000  0.2863  0.2788
 1386TIP3    H125649   4.936   1.274  14.395  0.9610  0.0714  0.1943
 1386TIP3    H225650   4.944   1.239  14.542  2.6884 -0.2300  0.0524
 1387TIP3   OH225651   0.966   6.212  16.992  0.2135 -0.0767  0.6677
 1387TIP3    H125652   1.055   6.193  16.962  0.1208 -0.1384  0.4345
 1387TIP3    H225653   0.956   6.306  16.981  0.9893  0.2926  2.6449
 1388TIP3   OH225654   2.923   2.696   2.706 -0.4964 -0.0833 -0.0133
 1388TIP3    H125655   2.864   2.622   2.721 -1.3915  0.9227  1.7446
 1388TIP3    H225656   2.877   2.771   2.744  1.9217  0.7326  1.4757
 1389TIP3   OH225657   2.142   1.178  16.555 -0.4019  0.0100  0.1341
 1389TIP3    H125658   2.194   1.227  16.491 -2.7656  1.2641 -0.9778
 1389TIP3    H225659   2.115   1.243  16.620 -1.2992 -0.3672  0.1657
 1390TIP3   OH225660   1.753   2.787  13.002 -0.3570  0.0279 -0.9500
 1390TIP3    H125661   1.834   2.792  12.952 -0.5831  0.4849 -1.2818
 1390TIP3    H225662   1.691   2.841  12.953 -0.6330  0.3533 -0.2700
 1391TIP3   OH225663   0.714   3.654  15.165 -0.4328 -0.5078  0.2794
 1391TIP3    H125664   0.684   3.651  15.074 -1.2378 -0.4500  0.5390
 1391TIP3    H225665   0.655   3.596  15.213 -0.7720  0.3653  0.9676
 1392TIP3   OH225666   4.681   5.025  14.752 -0.1343  0.4490  0.0393
 1392TIP3    H125667   4.616   5.095  14.749 -0.0404  0.5960 -3.6859
 1392TIP3    H225668   4.631   4.944  14.744 -0.0119  0.4195 -0.4771
 1393TIP3   OH225669   4.470   5.216  16.140 -0.0695 -0.2429  0.2384
 1393TIP3    H125670   4.403   5.209  16.208  1.6104 -1.2611  1.9168
 1393TIP3    H225671   4.540   5.268  16.181 -0.2373  1.7678 -1.8575
 1394TIP3   OH225672   0.659   3.376  14.631 -0.4629 -0.6254 -0.6237
 1394TIP3    H125673   0.741   3.424  14.616 -0.2444 -0.2957  1.3864
 1394TIP3    H225674   0.679   3.287  14.604 -0.0004 -0.1996 -1.7649
 1395TIP3   OH225675   6.241   5.899   2.985 -0.2675  0.5056  0.0843
 1395TIP3    H125676   6.235   5.979   2.932 -0.0447  1.4408  1.4196
 1395TIP3    H225677   6.215   5.926   3.072 -0.3791 -0.9490  0.5278
 1396TIP3   OH225678   5.990   5.096  11.336 -0.7098 -0.3640  0.1595
 1396TIP3    H125679   5.924   5.105  11.268 -0.7078  0.0479  0.2101
 1396TIP3    H225680   5.970   5.165  11.399 -0.9802 -1.0085  0.8029
 1397TIP3   OH225681   3.346   0.979   2.984  0.3359 -0.0189 -0.5401
 1397TIP3    H125682   3.321   1.071   2.978  1.8244  0.4403 -0.2254
 1397TIP3    H225683   3.413   0.968   2.917 -0.6623 -1.2061 -1.3976
 1398TIP3   OH225684   6.521   0.091  10.748 -0.2091  0.5251  0.7768
 1398TIP3    H125685   6.547   0.002  10.723 -0.5156 -0.3563  3.3017
 1398TIP3    H225686   6.443   0.109  10.696  0.0296 -0.5543  0.0024
 1399TIP3   OH225687   0.794   3.408  13.261 -0.4694  0.0225 -0.7247
 1399TIP3    H125688   0.787   3.318  13.292  0.5786 -0.2975 -1.3462
 1399TIP3    H225689   0.845   3.453  13.329 -0.3709 -0.0441 -0.7536
 1400TIP3   OH225690   0.719   6.683  13.300  0.1668 -0.2212  0.0064
 1400TIP3    H125691   0.730   6.591  13.278 -0.3762 -0.3537  0.2715
 1400TIP3    H225692   0.664   6.718  13.230  0.2797 -0.1207 -0.0337
 1401TIP3   OH225693   4.800   5.609  14.000 -0.6878  0.0934 -0.3064
 1401TIP3    H125694   4.804   5.607  14.096 -0.0768 -0.4006 -0.3373
 1401TIP3    H225695   4.729   5.549  13.978  0.3244 -1.1592 -0.2235
 1402TIP3   OH225696   0.286   5.954   4.859 -0.1433  0.0867 -0.0891
 1402TIP3    H125697   0.282   6.010   4.781 -0.1418  2.7054  1.6477
 1402TIP3    H225698   0.209   5.898   4.852 -0.4311  0.6197 -1.7005
 1403TIP3   OH225699   2.887   1.245  16.871 -0.1634 -0.4576 -0.1560
 1403TIP3    H125700   2.930   1.233  16.787  0.6048  0.2332  0.1279
 1403TIP3    H225701   2.900   1.337  16.893  2.3240 -1.1938  2.1007
 1404TIP3   OH225702   0.362   0.451   3.004 -0.0695 -0.2269 -0.0743
 1404TIP3    H125703   0.338   0.468   2.913  2.1205 -3.9551 -1.5512
 1404TIP3    H225704   0.457   0.463   3.005  0.0152 -0.8996  1.5486
 1405TIP3   OH225705   2.302   3.066  16.064  0.3641  0.5560 -0.1185
 1405TIP3    H125706   2.227   3.018  16.098  1.5151 -0.6037  0.8933
 1405TIP3    H225707   2.323   3.130  16.133 -0.7121  2.0631 -1.1417
 1406TIP3   OH225708   3.035   6.125  12.693  0.4000  0.7211  0.3564
 1406TIP3    H125709   3.106   6.134  12.757  1.7496  0.8937 -1.1105
 1406TIP3    H225710   3.005   6.034  12.704 -0.4644  1.1869  2.2564
 1407TIP3   OH225711   2.483   3.642  16.514  1.1892  0.1382  0.0424
 1407TIP3    H125712   2.403   3.679  16.476  0.3538 -2.2815 -0.8000
 1407TIP3    H225713   2.470   3.649  16.608 -0.5023 -0.9702 -0.0439
 1408TIP3   OH225714   1.757   3.996  13.285 -0.1601 -0.1443 -0.1353
 1408TIP3    H125715   1.744   3.951  13.369  0.2253 -0.5969 -0.3071
 1408TIP3    H225716   1.711   3.941  13.221 -1.4202  0.8034 -0.0742
 1409TIP3   OH225717   0.416   2.238  14.827  0.4768 -0.3142  0.5145
 1409TIP3    H125718   0.372   2.293  14.892  0.2645 -0.5280  0.5544
 1409TIP3    H225719   0.457   2.169  14.878  0.8971 -0.0916  0.4801
 1410TIP3   OH225720   1.518   5.490   4.504  0.2987 -0.3374 -0.2477
 1410TIP3    H125721   1.447   5.504   4.442  0.3468 -0.7463 -0.3972
 1410TIP3    H225722   1.490   5.416   4.557  0.1262  0.1965  0.4196
 1411TIP3   OH225723   5.157   2.107   5.290 -0.1514  0.1362 -0.0070
 1411TIP3    H125724   5.146   2.155   5.372  1.3894 -0.1773  0.4184
 1411TIP3    H225725   5.130   2.017   5.312 -3.4997  0.7887 -0.9287
 1412TIP3   OH225726   5.600   3.208   1.020 -0.1758 -0.2462 -0.0212
 1412TIP3    H125727   5.661   3.226   0.948  1.0427  1.3645  1.3283
 1412TIP3    H225728   5.584   3.293   1.060 -2.2885 -0.8416  0.5219
 1413TIP3   OH225729   5.724   2.588  14.773 -0.3844  0.0054  0.6807
 1413TIP3    H125730   5.636   2.559  14.800 -0.5478  1.2708  1.6115
 1413TIP3    H225731   5.748   2.655  14.837  0.6656  0.7073 -0.3938
 1414TIP3   OH225732   0.001   2.371   1.746  0.0036  0.1041 -0.2840
 1414TIP3    H125733  -0.001   2.304   1.677 -1.1748  1.4098 -1.5852
 1414TIP3    H225734  -0.006   2.454   1.700 -0.8268  1.0381  1.4061
 1415TIP3   OH225735   0.669   5.028  13.314 -0.0283  0.3371 -0.5997
 1415TIP3    H125736   0.749   4.978  13.327  0.4081  1.2278  0.2859
 1415TIP3    H225737   0.699   5.117  13.295 -0.7707  1.0695  1.3786
 1416TIP3   OH225738   1.063   4.685   0.039 -0.0183  0.2519  0.2115
 1416TIP3    H125739   1.020   4.601   0.024  3.1533 -1.1214 -2.4383
 1416TIP3    H225740   1.080   4.718  -0.049  0.7542  2.6576  1.1879
 1417TIP3   OH225741   2.460   3.004  10.670  0.1904 -0.1654 -0.5337
 1417TIP3    H125742   2.380   2.955  10.691 -0.9512  1.6280 -0.5108
 1417TIP3    H225743   2.511   2.944  10.615 -1.5507 -1.0359 -1.2606
 1418TIP3   OH225744   1.855   5.981  15.323 -0.2695  0.4975 -0.6161
 1418TIP3    H125745   1.812   5.900  15.298  1.5603 -0.8256  0.2518
 1418TIP3    H225746   1.796   6.021  15.388 -0.2517 -1.2438  0.5392
 1419TIP3   OH225747   3.654   0.419  12.527  0.3172  0.2154  0.4993
 1419TIP3    H125748   3.563   0.440  12.552  0.2780  0.6104  0.0255
 1419TIP3    H225749   3.657   0.323  12.528 -0.7486  0.1085 -1.7254
 1420TIP3   OH225750   4.726   5.566  15.758 -0.3461 -0.3621 -0.0653
 1420TIP3    H125751   4.698   5.621  15.685 -0.7969  1.4126  1.3675
 1420TIP3    H225752   4.742   5.627  15.830  1.2457 -1.9232  1.0046
 1421TIP3   OH225753   3.557   6.175  13.587  0.1329  0.1380  0.3186
 1421TIP3    H125754   3.589   6.264  13.600 -1.3040  0.4416  2.0550
 1421TIP3    H225755   3.464   6.179  13.607 -0.6185 -1.1866 -2.4128
 1422TIP3   OH225756   4.646   0.724  15.006 -0.1372  0.2859 -0.1863
 1422TIP3    H125757   4.685   0.811  15.013  1.0671 -0.1545 -1.0857
 1422TIP3    H225758   4.552   0.739  15.016  0.0975  1.6132  0.1997
 1423TIP3   OH225759   1.498   5.738  11.790 -0.4564 -0.2321  0.0376
 1423TIP3    H125760   1.574   5.767  11.842  1.0865 -0.7361 -1.8280
 1423TIP3    H225761   1.492   5.644  11.807  0.3406 -0.4840 -1.0167
 1424TIP3   OH225762   4.649   2.752   2.172  0.5185  0.1222  0.7945
 1424TIP3    H125763   4.660   2.838   2.131 -0.7888 -0.2511 -0.4099
 1424TIP3    H225764   4.573   2.762   2.229  1.3166  0.1699  1.8942
 1425TIP3   OH225765   2.730   3.169   0.978  0.5069  0.4351 -0.4891
 1425TIP3    H125766   2.789   3.217   0.920  1.3877  0.4696  0.4175
 1425TIP3    H225767   2.760   3.078   0.973  1.3978  0.6340  0.8573
 1426TIP3   OH225768   3.244   3.835  11.442  0.2781  0.3292 -0.1506
 1426TIP3    H125769   3.276   3.825  11.532 -0.5758  0.4280  0.1791
 1426TIP3    H225770   3.206   3.750  11.421  0.4294  0.3241 -0.4019
 1427TIP3   OH225771   2.073   6.346  10.237 -0.0479 -0.2800  0.1603
 1427TIP3    H125772   2.043   6.343  10.328  0.3371 -2.0531  0.2607
 1427TIP3    H225773   2.012   6.289  10.190  1.0593 -1.1571 -0.2587
 1428TIP3   OH225774   6.724   6.272   3.691  0.3912 -0.3239  0.4355
 1428TIP3    H125775   6.815   6.246   3.701  0.4645 -0.4175 -0.3996
 1428TIP3    H225776   6.678   6.230   3.764  0.8467 -1.0869  0.2848
 1429TIP3   OH225777   2.584   1.649   6.340  0.2832 -0.1335 -0.0888
 1429TIP3    H125778   2.678   1.652   6.360  0.1888  0.0779  0.3448
 1429TIP3    H225779   2.560   1.557   6.349  0.8492 -0.5322 -2.1517
 1430TIP3   OH225780   3.958   2.350  11.243  0.1135  0.1248 -0.0466
 1430TIP3    H125781   3.980   2.401  11.321  0.0391  0.5558 -0.3062
 1430TIP3    H225782   3.865   2.365  11.229 -0.0411 -0.5410  0.2037
 1431TIP3   OH225783   2.299   4.773   2.585 -0.5061 -0.2108  0.2592
 1431TIP3    H125784   2.303   4.828   2.507  0.4096 -1.0900 -0.3512
 1431TIP3    H225785   2.206   4.761   2.602 -0.7114  0.6976 -0.1754
 1432TIP3   OH225786   1.391   6.582  14.418  0.3197  0.2717 -0.4067
 1432TIP3    H125787   1.382   6.663  14.468 -0.4904  0.6826 -1.1793
 1432TIP3    H225788   1.440   6.523  14.475 -0.8712  0.5974  1.0148
 1433TIP3   OH225789   3.383   0.302  16.036 -0.3723  0.5470  0.1710
 1433TIP3    H125790   3.423   0.313  15.949  0.4787 -2.4190  0.0806
 1433TIP3    H225791   3.422   0.372  16.089  1.3938  0.6080 -1.1143
 1434TIP3   OH225792   2.975   6.398   2.521 -0.2458 -0.1408  0.1352
 1434TIP3    H125793   2.965   6.306   2.548  0.4558  0.0908  1.2306
 1434TIP3    H225794   2.911   6.446   2.574  0.7213  0.2395  0.9779
 1435TIP3   OH225795   4.737   0.286   6.451  0.1039  0.0794  0.2829
 1435TIP3    H125796   4.681   0.273   6.528  0.5668  1.1839  0.8209
 1435TIP3    H225797   4.728   0.204   6.401  0.6197 -1.1005  2.0265
 1436TIP3   OH225798   0.483   0.252  11.389 -0.5265  0.2359 -0.4282
 1436TIP3    H125799   0.558   0.256  11.448 -1.1210 -0.5273  0.4089
 1436TIP3    H225800   0.407   0.256  11.447 -1.1618  1.5587 -1.2961
 1437TIP3   OH225801   2.587   4.751   0.883  0.0752  0.0453  0.4167
 1437TIP3    H125802   2.642   4.830   0.886 -0.0703  0.1245  1.1363
 1437TIP3    H225803   2.643   4.682   0.921  0.5174 -0.4029 -0.9944
 1438TIP3   OH225804   0.240   0.226   0.150 -0.9477 -0.0194 -0.2414
 1438TIP3    H125805   0.326   0.184   0.150 -1.0755 -0.5354 -3.7730
 1438TIP3    H225806   0.177   0.154   0.150 -1.3664  0.3318  0.2534
 1439TIP3   OH225807   6.091   6.308   4.113 -0.2201 -0.5865  0.2617
 1439TIP3    H125808   6.039   6.293   4.034 -0.0446  0.9424 -0.1730
 1439TIP3    H225809   6.046   6.380   4.158  0.5725 -0.3824  0.7488
 1440TIP3   OH225810   1.034   5.615   4.982 -0.1889 -0.3236  0.4545
 1440TIP3    H125811   1.071   5.669   5.052  0.3342  0.9544 -0.7619
 1440TIP3    H225812   0.941   5.637   4.980  0.0363  0.6137 -0.0840
 1441TIP3   OH225813   2.392   2.072   1.997  0.3558 -0.2208 -0.6583
 1441TIP3    H125814   2.407   2.078   1.903 -0.8949 -0.2365 -0.8640
 1441TIP3    H225815   2.363   2.159   2.023  0.3711 -0.3058 -0.3457
 1442TIP3   OH225816   3.278   3.030  14.812 -0.0243  0.4968  0.3406
 1442TIP3    H125817   3.295   2.992  14.725 -2.0811 -1.4895  0.7018
 1442TIP3    H225818   3.353   3.004  14.865 -0.1028 -0.8155 -0.1443
 1443TIP3   OH225819   1.334   2.985  14.663  0.1594 -0.1566  0.3754
 1443TIP3    H125820   1.383   2.926  14.720  0.9783 -0.0704 -0.2117
 1443TIP3    H225821   1.368   3.072  14.684 -1.7071  0.2555  1.9097
 1444TIP3   OH225822   0.704   3.390   0.777 -0.2722 -0.1644  0.3546
 1444TIP3    H125823   0.729   3.432   0.859 -1.7888 -0.2509  0.8846
 1444TIP3    H225824   0.657   3.311   0.804 -0.8840 -0.1336 -0.5949
 1445TIP3   OH225825   3.796   5.456   4.604  0.5148  0.4860 -0.5526
 1445TIP3    H125826   3.752   5.391   4.551  0.8260  0.4398 -0.7561
 1445TIP3    H225827   3.782   5.539   4.558  2.9914  0.1179 -2.1711
 1446TIP3   OH225828   3.350   4.964   2.257 -0.0930 -0.2881  0.3842
 1446TIP3    H125829   3.265   4.961   2.300 -0.9303  0.9120 -1.0827
 1446TIP3    H225830   3.348   5.045   2.205  1.6927 -0.5675 -0.2032
 1447TIP3   OH225831   6.274   4.504  16.507 -0.2358 -0.2276 -0.2525
 1447TIP3    H125832   6.187   4.542  16.519  0.0790  0.5179 -0.2774
 1447TIP3    H225833   6.319   4.563  16.446  0.7666  0.2048  0.8524
 1448TIP3   OH225834   6.001   0.616  14.251 -1.2389 -0.0463  0.1249
 1448TIP3    H125835   5.993   0.705  14.219  0.9076 -0.5008 -1.9583
 1448TIP3    H225836   6.071   0.621  14.316 -0.3290 -0.3440 -0.8022
 1449TIP3   OH225837   3.439   5.774   1.213  0.4346  0.4991  0.3999
 1449TIP3    H125838   3.381   5.714   1.260  2.0430 -1.0906  0.4614
 1449TIP3    H225839   3.380   5.830   1.163 -1.1556 -1.1776  0.2834
 1450TIP3   OH225840   6.300   0.137  12.598  0.3351  0.1068  0.5504
 1450TIP3    H125841   6.263   0.107  12.515  1.0032  0.6255  0.0395
 1450TIP3    H225842   6.243   0.208  12.626  0.2515  0.1034  0.3905
 1451TIP3   OH225843   1.155   6.317   4.137 -0.3215 -0.0631 -0.1427
 1451TIP3    H125844   1.062   6.305   4.119 -0.5705  1.4757 -0.0565
 1451TIP3    H225845   1.163   6.410   4.159  1.3344 -0.0327 -0.7498
 1452TIP3   OH225846   6.283   5.009   3.540 -0.1694  0.1583  0.4505
 1452TIP3    H125847   6.370   5.027   3.575 -0.0215  0.3432  0.0023
 1452TIP3    H225848   6.284   5.049   3.453 -1.2152  1.5139  1.0228
 1453TIP3   OH225849   1.389   4.282  17.085 -0.2375  0.2687 -0.1213
 1453TIP3    H125850   1.371   4.369  17.051 -2.5146  0.1295  0.5986
 1453TIP3    H225851   1.309   4.232  17.069  1.0093 -1.7507 -0.5718
 1454TIP3   OH225852   1.821   5.183  13.798  0.1755  0.5364  0.6360
 1454TIP3    H125853   1.915   5.190  13.782  0.1841  0.6194  0.7249
 1454TIP3    H225854   1.802   5.252  13.861 -0.3548  2.0862 -1.1373
 1455TIP3   OH225855   3.428   4.532   0.211  0.6260 -0.1346  0.2175
 1455TIP3    H125856   3.422   4.491   0.298 -0.3055 -1.8332 -0.5968
 1455TIP3    H225857   3.493   4.478   0.164  1.2621  0.8858 -0.1019
 1456TIP3   OH225858   3.835   5.104  11.933 -0.0266  0.0148 -0.1875
 1456TIP3    H125859   3.808   5.181  11.983 -3.0943 -1.1527  0.1911
 1456TIP3    H225860   3.930   5.101  11.943 -0.1452  1.8330  2.6180
 1457TIP3   OH225861   6.051   1.277  10.765  0.3067 -0.4453 -0.2802
 1457TIP3    H125862   6.053   1.187  10.731 -0.9418 -0.6936  0.2356
 1457TIP3    H225863   5.958   1.294  10.781  0.6288  0.5713  0.6025
 1458TIP3   OH225864   1.346   6.589  13.702 -0.1370  0.0858  0.0847
 1458TIP3    H125865   1.429   6.585  13.654  0.4152 -0.4246  1.0374
 1458TIP3    H225866   1.298   6.511  13.674  0.5717 -0.7072  1.0123
 1459TIP3   OH225867   1.976   3.201  10.763 -0.4513 -0.4903  0.2638
 1459TIP3    H125868   2.003   3.154  10.685 -0.9297 -2.4432  1.2106
 1459TIP3    H225869   1.881   3.193  10.765 -0.5465  0.4798  0.4990
 1460TIP3   OH225870   5.434   5.443  15.253  0.3083  0.5496 -0.0952
 1460TIP3    H125871   5.421   5.352  15.280  0.2971  1.0865  1.8894
 1460TIP3    H225872   5.367   5.492  15.300  1.8556  1.8677  0.8600
 1461TIP3   OH225873   2.813   3.557  13.675  0.2531  0.1862 -0.2088
 1461TIP3    H125874   2.721   3.573  13.652  0.6447  1.7775 -0.7888
 1461TIP3    H225875   2.812   3.549  13.771 -0.2763  2.0581 -0.0207
 1462TIP3   OH225876   1.991   5.781   2.654 -0.4283  0.3875  0.1223
 1462TIP3    H125877   1.958   5.863   2.691 -0.1597  1.2465 -1.4211
 1462TIP3    H225878   2.083   5.779   2.680 -0.4031  0.6559  0.0666
 1463TIP3   OH225879   2.527   6.405  14.950  0.1984 -0.6843  0.3500
 1463TIP3    H125880   2.461   6.367  14.892  1.7942 -1.0755 -1.3043
 1463TIP3    H225881   2.599   6.342  14.949  1.6663  0.9454  0.0055
 1464TIP3   OH225882   1.821   4.903  16.384  0.1470 -0.4006 -0.0646
 1464TIP3    H125883   1.728   4.907  16.358 -0.6925  1.0147  2.7788
 1464TIP3    H225884   1.836   4.811  16.405 -1.8627 -0.1221  3.1892
 1465TIP3   OH225885   4.769   6.768   6.566 -0.6879 -0.3180  0.3302
 1465TIP3    H125886   4.832   6.709   6.608 -0.8705  0.0976  1.2128
 1465TIP3    H225887   4.757   6.732   6.478 -0.7658 -1.5697  0.8286
 1466TIP3   OH225888   2.594   2.072   0.223 -0.5904 -0.2075  0.4792
 1466TIP3    H125889   2.593   1.989   0.271 -3.1617  0.2652  1.4521
 1466TIP3    H225890   2.655   2.127   0.272 -0.1670 -0.9855  0.8534
 1467TIP3   OH225891   0.444   0.389  13.343  0.0677 -0.0962  0.6366
 1467TIP3    H125892   0.532   0.365  13.372  0.4248 -0.3985 -0.6385
 1467TIP3    H225893   0.439   0.356  13.253 -1.0582  0.6410  0.4139
 1468TIP3   OH225894   1.008   3.137   4.359  0.4504  0.4550  0.4581
 1468TIP3    H125895   1.093   3.124   4.402  0.9970  2.1462 -0.0324
 1468TIP3    H225896   0.944   3.116   4.427  1.2406 -0.6585  0.9010
 1469TIP3   OH225897   5.141   3.993   1.133  0.0622 -0.4151  0.2175
 1469TIP3    H125898   5.217   3.938   1.117 -0.0114 -0.3116 -0.5461
 1469TIP3    H225899   5.129   4.042   1.051 -0.0927  0.4680  0.7516
 1470TIP3   OH225900   3.440   1.871   2.742  0.1941  0.0135 -0.2412
 1470TIP3    H125901   3.372   1.828   2.794  0.4303  0.6069  0.5823
 1470TIP3    H225902   3.439   1.825   2.658 -0.8738 -0.3113 -0.0624
 1471TIP3   OH225903   3.471   5.430   4.672 -0.2518  0.4171  0.7686
 1471TIP3    H125904   3.442   5.359   4.614 -1.0666 -0.0310  1.6967
 1471TIP3    H225905   3.467   5.508   4.618 -2.3607  0.2397  0.5608
 1472TIP3   OH225906   1.176   3.617   2.649  0.1015 -0.9253 -0.2455
 1472TIP3    H125907   1.203   3.601   2.559 -1.0396  2.4184 -1.3371
 1472TIP3    H225908   1.094   3.570   2.659  0.6851 -2.0504 -0.6150
 1473TIP3   OH225909   2.958   0.429   0.529  0.4638  0.7845 -0.3426
 1473TIP3    H125910   3.053   0.415   0.532  0.2597 -0.4851  0.8858
 1473TIP3    H225911   2.945   0.479   0.448  1.9656 -0.7768 -1.6501
 1474TIP3   OH225912   5.776   2.011   3.471  0.5358  0.0421  0.2414
 1474TIP3    H125913   5.729   2.061   3.404  1.1024  1.7733  1.0691
 1474TIP3    H225914   5.710   1.994   3.539  0.4476  0.0322  0.1545
 1475TIP3   OH225915   4.379   0.512   5.268 -0.3728  0.0555 -0.3107
 1475TIP3    H125916   4.459   0.558   5.293 -0.8483  1.3120 -1.0460
 1475TIP3    H225917   4.317   0.531   5.338 -0.4540  0.2170 -0.4268
 1476TIP3   OH225918   1.751   5.069  15.780 -0.2562 -0.1169 -0.5187
 1476TIP3    H125919   1.831   5.087  15.731 -0.6608  0.6699 -0.9015
 1476TIP3    H225920   1.682   5.070  15.714 -0.7605  0.6125  0.0165
 1477TIP3   OH225921   2.329   6.724   0.379 -0.1713 -0.0756 -0.3913
 1477TIP3    H125922   2.302   6.756   0.465 -0.2903 -1.4405  0.1080
 1477TIP3    H225923   2.422   6.743   0.374 -0.1493 -0.0528  0.0769
 1478TIP3   OH225924   6.583   1.838  15.185 -0.0525  0.2861  0.4095
 1478TIP3    H125925   6.495   1.852  15.149 -0.4457 -2.5911  0.0174
 1478TIP3    H225926   6.593   1.906  15.251 -2.4661  0.8493  0.2916
 1479TIP3   OH225927   6.508   3.739   1.998 -0.4532  0.0805 -0.0156
 1479TIP3    H125928   6.421   3.771   2.019 -0.0747  0.1244  1.6034
 1479TIP3    H225929   6.566   3.814   2.016  0.1713 -0.7101  1.4062
 1480TIP3   OH225930   3.083   2.843  14.254 -0.4804 -0.5974  0.1210
 1480TIP3    H125931   3.053   2.846  14.344 -2.4215 -1.7664 -0.4352
 1480TIP3    H225932   3.084   2.750  14.232  0.1339 -0.3404 -1.0310
 1481TIP3   OH225933   3.316   6.753   4.294  0.2109 -0.0771  0.2495
 1481TIP3    H125934   3.251   6.762   4.364 -0.3788 -0.5711 -0.2303
 1481TIP3    H225935   3.394   6.719   4.338 -0.3445 -0.9573  0.5822
 1482TIP3   OH225936   0.749   1.627  11.547 -0.2410 -0.0432 -0.2809
 1482TIP3    H125937   0.739   1.714  11.509 -2.2300 -0.1583 -0.0839
 1482TIP3    H225938   0.836   1.598  11.518  0.2814  1.8262 -0.6769
 1483TIP3   OH225939   3.929   4.376   5.015 -0.0030 -0.1257 -0.3253
 1483TIP3    H125940   3.927   4.456   5.067 -2.9502 -0.0313 -0.4418
 1483TIP3    H225941   3.866   4.318   5.057 -1.5403 -0.5356 -2.9844
 1484TIP3   OH225942   5.540   3.810   2.558  0.3100  0.2674 -0.7359
 1484TIP3    H125943   5.489   3.866   2.500 -0.6580  1.5081  1.2023
 1484TIP3    H225944   5.537   3.724   2.518 -1.8952  0.6738 -1.5646
 1485TIP3   OH225945   6.610   1.287   2.269  0.0516  0.6140 -0.2400
 1485TIP3    H125946   6.685   1.310   2.325 -0.1097  1.5306 -0.3783
 1485TIP3    H225947   6.650   1.262   2.185  0.3050 -0.9329  0.3029
 1486TIP3   OH225948   6.070   2.622   3.987 -0.5542  0.1025 -0.0501
 1486TIP3    H125949   6.119   2.697   4.023  0.3755 -0.2476 -0.5591
 1486TIP3    H225950   5.998   2.662   3.939 -1.1735  0.6167  1.2527
 1487TIP3   OH225951   5.733   4.792  16.941  0.5798 -0.0781  0.1499
 1487TIP3    H125952   5.709   4.871  16.892  2.1340  1.9484  2.3945
 1487TIP3    H225953   5.797   4.748  16.887  0.8086  1.0295 -0.5174
 1488TIP3   OH225954   2.432   6.170  14.325 -0.0375 -0.4568 -0.3844
 1488TIP3    H125955   2.365   6.191  14.260 -0.9526  0.9930  0.9535
 1488TIP3    H225956   2.384   6.129  14.397  0.1545  2.0779  1.3122
 1489TIP3   OH225957   5.439   1.656  15.967  0.5310 -0.7888 -0.0805
 1489TIP3    H125958   5.405   1.744  15.951 -0.4999 -1.2567 -0.5995
 1489TIP3    H225959   5.415   1.638  16.058 -0.9754 -1.2342 -0.5300
 1490TIP3   OH225960   1.217   2.363   2.158 -0.6158 -0.1940 -0.0051
 1490TIP3    H125961   1.287   2.384   2.096 -0.4702 -0.2852  0.1272
 1490TIP3    H225962   1.139   2.353   2.104 -0.5921  0.2194 -0.1224
 1491TIP3   OH225963   1.857   0.472   0.142  0.5361  0.4660  0.4058
 1491TIP3    H125964   1.863   0.417   0.065  0.4689 -1.2173  1.5556
 1491TIP3    H225965   1.948   0.491   0.165  0.5679  0.6048  0.1643
 1492TIP3   OH225966   6.424   2.412   0.079 -0.0694  0.1581  0.4983
 1492TIP3    H125967   6.390   2.477   0.017 -0.2697 -0.9213 -0.5659
 1492TIP3    H225968   6.500   2.375   0.035 -1.1440 -1.7556  0.1595
 1493TIP3   OH225969   5.838   5.011  16.423 -0.0864  0.7828  0.1709
 1493TIP3    H125970   5.785   5.005  16.343  2.0691  0.0403 -1.3103
 1493TIP3    H225971   5.804   4.942  16.479  0.5322 -1.0638 -1.5869
 1494TIP3   OH225972   6.083   5.961   3.185  0.2705  0.1511  0.5912
 1494TIP3    H125973   6.016   5.899   3.215  1.5558 -0.6895  1.8258
 1494TIP3    H225974   6.034   6.041   3.164 -1.0819 -0.3118  1.8315
 1495TIP3   OH225975   0.897   0.123  11.672 -0.5778  0.2299 -0.1158
 1495TIP3    H125976   0.981   0.143  11.714 -1.0197  0.8473  0.5065
 1495TIP3    H225977   0.876   0.034  11.702 -0.5570  0.4022  0.4247
 1496TIP3   OH225978   0.732   5.084  13.968  0.7068 -0.0361  0.4895
 1496TIP3    H125979   0.661   5.059  13.908  0.2391 -0.5161  1.2243
 1496TIP3    H225980   0.809   5.039  13.935  0.6579  0.4122 -0.2614
 1497TIP3   OH225981   0.144   1.024   3.975  0.0409 -0.1990  0.0083
 1497TIP3    H125982   0.214   0.972   4.014  0.5886  0.7021  0.2532
 1497TIP3    H225983   0.092   0.961   3.925  1.2134 -0.8308 -0.4352
 1498TIP3   OH225984   2.209   5.694   3.216 -0.8109 -0.2976  0.3797
 1498TIP3    H125985   2.292   5.665   3.253 -1.2249 -1.2573  0.5776
 1498TIP3    H225986   2.142   5.657   3.274 -1.4250 -0.5845 -0.4888
 1499TIP3   OH225987   1.570   2.476  12.266 -0.4012 -0.0649  0.4233
 1499TIP3    H125988   1.628   2.407  12.233 -1.2688 -0.4395 -0.3686
 1499TIP3    H225989   1.525   2.436  12.341 -1.0019 -0.4210 -0.1172
 1500TIP3   OH225990   3.962   5.829  13.317 -0.0649  0.1245  0.0607
 1500TIP3    H125991   3.898   5.900  13.317  0.3630  0.5141  0.1308
 1500TIP3    H225992   3.910   5.750  13.299 -0.6472  0.3542  0.6592
 1501TIP3   OH225993   0.286   0.649   3.818 -0.6288 -0.0846 -0.0331
 1501TIP3    H125994   0.226   0.690   3.755 -4.1449 -1.1434  2.3126
 1501TIP3    H225995   0.275   0.555   3.802 -0.3545 -0.3200  1.0765
 1502TIP3   OH225996   5.356   1.923  13.094  0.2507  0.1574 -0.2291
 1502TIP3    H125997   5.440   1.885  13.070 -0.2497 -0.4891 -1.0316
 1502TIP3    H225998   5.292   1.856  13.068 -0.5754  1.0957 -0.6569
 1503TIP3   OH225999   5.227   0.648   1.155 -0.5130  0.1339  0.4056
 1503TIP3    H126000   5.231   0.602   1.239 -2.7367 -0.8929  0.0396
 1503TIP3    H226001   5.219   0.740   1.178  0.4027  0.0139  1.2644
 1504TIP3   OH226002   6.331   6.245  16.797 -0.5491  0.2202  0.2063
 1504TIP3    H126003   6.350   6.160  16.838 -3.6309 -0.1217  1.1837
 1504TIP3    H226004   6.349   6.309  16.865 -0.4190  0.1424  0.2462
 1505TIP3   OH226005   5.900   3.835  15.845  0.5412  0.2408  0.0341
 1505TIP3    H126006   5.970   3.787  15.889  0.6661 -1.0515 -1.4729
 1505TIP3    H226007   5.823   3.822  15.900  0.7305 -1.1685 -0.0011
 1506TIP3   OH226008   5.797   6.427  12.217 -0.5424  0.1999  0.9526
 1506TIP3    H126009   5.790   6.450  12.309 -0.1616  0.9978  0.7966
 1506TIP3    H226010   5.751   6.343  12.209 -0.4537  0.0500  1.8868
 1507TIP3   OH226011   0.087   2.388   3.964 -0.0571  0.2694 -0.2883
 1507TIP3    H126012   0.064   2.344   3.882  0.1453 -0.2596 -0.0627
 1507TIP3    H226013   0.178   2.363   3.980  0.0373  0.7079 -0.1151
 1508TIP3   OH226014   2.006   1.237   0.803  0.1951 -0.1617 -0.0210
 1508TIP3    H126015   1.960   1.189   0.734  2.5446  1.8772 -3.3231
 1508TIP3    H226016   1.937   1.285   0.849 -1.6230 -2.7068  0.1292
 1509TIP3   OH226017   1.486   4.019  11.507 -0.0652  0.2160 -0.1533
 1509TIP3    H126018   1.471   4.103  11.552 -0.1847  0.4646 -0.6469
 1509TIP3    H226019   1.574   3.992  11.536  0.2139  0.8010 -0.4381
 1510TIP3   OH226020   2.243   5.665  16.949  0.3087  0.1301 -0.0431
 1510TIP3    H126021   2.263   5.574  16.971  2.7710  0.7930  0.7450
 1510TIP3    H226022   2.227   5.664  16.855 -0.7101 -1.2345  0.1015
 1511TIP3   OH226023   5.387   6.309  12.493  0.0589  0.0604  0.4169
 1511TIP3    H126024   5.438   6.389  12.486  0.7337 -0.1337  2.4960
 1511TIP3    H226025   5.447   6.240  12.464  0.0655  0.1188  0.2927
 1512TIP3   OH226026   2.832   5.831   1.803  0.3101 -0.0691  0.1515
 1512TIP3    H126027   2.899   5.775   1.842  0.3258 -0.6623 -0.7083
 1512TIP3    H226028   2.844   5.821   1.709 -0.8297 -0.0024 -0.0153
 1513TIP3   OH226029   5.563   2.467   4.062 -0.3613 -0.5630  0.5985
 1513TIP3    H126030   5.572   2.532   4.132 -0.0897 -0.4920  0.4994
 1513TIP3    H226031   5.604   2.388   4.097  0.9053 -0.1774  0.0645
 1514TIP3   OH226032   5.708   6.236   4.303  0.1119 -0.2216  0.3856
 1514TIP3    H126033   5.797   6.255   4.332  0.0697  0.1844  0.2537
 1514TIP3    H226034   5.706   6.263   4.212 -0.6061  1.3171  0.8235
 1515TIP3   OH226035   1.791   2.545   6.108  0.5854  0.1877 -0.2871
 1515TIP3    H126036   1.839   2.477   6.153 -1.8115 -1.5359 -0.1537
 1515TIP3    H226037   1.831   2.549   6.021  1.2144 -0.9087 -0.0643
 1516TIP3   OH226038   1.840   4.094  11.917  0.2316 -0.2832  0.0668
 1516TIP3    H126039   1.752   4.068  11.889 -1.1013  3.3163  0.4323
 1516TIP3    H226040   1.845   4.064  12.008 -0.3133 -1.1618 -0.1803
 1517TIP3   OH226041   2.515   0.672  16.863 -0.3099  0.9696  0.1405
 1517TIP3    H126042   2.514   0.642  16.772 -0.0156  1.3521  0.0055
 1517TIP3    H226043   2.597   0.639  16.899 -3.0213 -4.8145  2.2585
 1518TIP3   OH226044   1.209   3.228  12.704 -0.5013 -0.2633 -0.2800
 1518TIP3    H126045   1.251   3.301  12.749  1.3059 -0.6366 -1.2262
 1518TIP3    H226046   1.214   3.155  12.766  1.2394 -0.5593 -0.6985
 1519TIP3   OH226047   2.262   6.151   5.631  0.3105 -0.4505  0.2372
 1519TIP3    H126048   2.239   6.162   5.539  0.9351  0.6009  0.1965
 1519TIP3    H226049   2.340   6.204   5.643  1.1268 -1.7809  1.0224
 1520TIP3   OH226050   2.512   5.640  14.630 -0.6602 -0.3120  0.4878
 1520TIP3    H126051   2.486   5.624  14.720 -0.9269 -0.8087  0.3279
 1520TIP3    H226052   2.492   5.558  14.584 -0.4770 -0.0851 -0.0086
 1521TIP3   OH226053   4.735   1.524   2.498 -0.3317 -0.1523  0.5097
 1521TIP3    H126054   4.737   1.607   2.450 -2.4943 -0.0543  0.4664
 1521TIP3    H226055   4.825   1.492   2.495  0.6301  2.2721  0.6811
 1522TIP3   OH226056   3.264   5.889   6.304  0.2936 -0.1306  0.2041
 1522TIP3    H126057   3.178   5.850   6.288  1.2159 -1.6052 -1.5341
 1522TIP3    H226058   3.321   5.815   6.321  1.1978  0.8580  1.6703
 1523TIP3   OH226059   3.666   1.962   3.297 -0.2519 -0.2079 -0.5374
 1523TIP3    H126060   3.712   1.908   3.232  0.8814  0.5888 -0.4257
 1523TIP3    H226061   3.736   2.006   3.345 -1.1454  1.7708 -0.9712
 1524TIP3   OH226062   6.226   2.619  16.737  0.0637  0.2663 -0.1131
 1524TIP3    H126063   6.177   2.546  16.699 -1.3543 -0.1349  2.2266
 1524TIP3    H226064   6.162   2.691  16.740  0.5079  0.6489  0.3233
 1525TIP3   OH226065   0.969   5.055  11.849 -0.7461  0.5968  0.0734
 1525TIP3    H126066   1.004   4.988  11.908 -0.1969  0.1582 -0.7242
 1525TIP3    H226067   0.893   5.014  11.809 -0.2246  0.3198 -0.6512
 1526TIP3   OH226068   0.870   6.185  11.303 -0.0070  0.1094  0.4388
 1526TIP3    H126069   0.924   6.159  11.228 -0.1293  1.3991 -0.1172
 1526TIP3    H226070   0.790   6.134  11.294 -1.4358  2.5640 -2.2102
 1527TIP3   OH226071   0.397   1.739   0.500  0.4592 -0.1043 -0.1279
 1527TIP3    H126072   0.363   1.681   0.432 -1.0887  0.6636 -0.0580
 1527TIP3    H226073   0.332   1.732   0.571  0.1530  1.8163 -0.1871
 1528TIP3   OH226074   1.606   6.134  16.335  0.3185  0.6124 -0.0805
 1528TIP3    H126075   1.632   6.113  16.425  1.0087 -1.9451 -0.8203
 1528TIP3    H226076   1.512   6.115  16.332 -0.0762  2.2561  0.4634
 1529TIP3   OH226077   6.015   3.985  12.878  0.2164  0.4872  0.3008
 1529TIP3    H126078   5.929   3.949  12.902 -0.6749  1.1912 -1.5868
 1529TIP3    H226079   6.011   4.077  12.904  0.0167  0.7460 -0.5953
 1530TIP3   OH226080   5.057   0.951   4.170 -0.1509 -0.0297  0.1224
 1530TIP3    H126081   5.105   0.876   4.206  0.5433  0.3000 -0.0951
 1530TIP3    H226082   5.061   0.938   4.075  0.3662  0.5091  0.0625
 1531TIP3   OH226083   5.574   4.052  11.776  0.3004 -0.2439  0.1914
 1531TIP3    H126084   5.636   4.048  11.703  1.7845 -2.8895  1.4335
 1531TIP3    H226085   5.573   3.963  11.811 -2.6225  0.2160  1.6014
 1532TIP3   OH226086   4.178   3.649   5.659 -0.1012 -0.1334  0.8974
 1532TIP3    H126087   4.172   3.710   5.733 -2.8839  0.2839  0.4591
 1532TIP3    H226088   4.152   3.564   5.695  0.7070 -0.4027  0.8552
 1533TIP3   OH226089   6.183   1.599  15.763 -0.3350  0.8913 -1.1260
 1533TIP3    H126090   6.151   1.604  15.673 -1.4992  0.6820 -0.7414
 1533TIP3    H226091   6.104   1.589  15.816  0.2198  2.4203  0.0491
 1534TIP3   OH226092   6.165   2.413  16.964  0.6098  0.3280 -0.2013
 1534TIP3    H126093   6.225   2.451  16.899  1.5458  0.2743  0.5969
 1534TIP3    H226094   6.117   2.488  16.998 -0.8108  0.2135 -1.8178
 1535TIP3   OH226095   0.036   2.859  11.011  0.1598  0.4206 -0.1608
 1535TIP3    H126096   0.091   2.875  10.934 -2.5241  0.9540 -2.1205
 1535TIP3    H226097  -0.044   2.822  10.975 -1.2085  0.6697  2.4292
 1536TIP3   OH226098   6.623   3.008  16.181  0.2861  0.0862  0.0701
 1536TIP3    H126099   6.622   3.003  16.086 -0.0973  2.1563 -0.0741
 1536TIP3    H226100   6.561   2.941  16.209 -2.2172  1.6588 -1.3091
 1537TIP3   OH226101   3.895   0.035   5.062 -0.1957  0.3539  0.2853
 1537TIP3    H126102   3.933   0.103   5.006  1.3160 -0.7076 -0.0358
 1537TIP3    H226103   3.917   0.061   5.151  1.7035 -0.4340  0.0866
 1538TIP3   OH226104   0.027   4.946  14.989 -0.6859 -0.7614 -0.1470
 1538TIP3    H126105   0.121   4.957  14.974 -0.7485  0.7083  0.4110
 1538TIP3    H226106  -0.001   4.885  14.921  0.8231 -1.9063  0.2069
 1539TIP3   OH226107   6.190   4.421  14.367 -0.1119 -0.5875 -0.1878
 1539TIP3    H126108   6.245   4.417  14.289 -0.3961 -0.2282 -0.4108
 1539TIP3    H226109   6.170   4.514  14.378  1.6178 -0.3701  1.5181
 1540TIP3   OH226110   6.088   2.619   5.140  0.1067  0.8882 -0.0186
 1540TIP3    H126111   6.041   2.667   5.072 -1.7586  0.0954  0.6376
 1540TIP3    H226112   6.105   2.533   5.102  0.3517  0.9150  0.0253
 1541TIP3   OH226113   3.523   5.389   2.410 -0.3616 -0.5631 -0.2199
 1541TIP3    H126114   3.584   5.332   2.457  0.0654  0.0336 -0.0384
 1541TIP3    H226115   3.579   5.455   2.369 -0.8266 -0.4518 -0.6762
 1542TIP3   OH226116   2.542   6.261  11.674  0.2002 -0.0543 -0.3830
 1542TIP3    H126117   2.535   6.343  11.722 -0.9241 -0.2632 -0.1564
 1542TIP3    H226118   2.569   6.197  11.740 -0.2666 -0.1245 -0.2526
 1543TIP3   OH226119   5.630   0.662  16.495  0.0727 -0.0432 -0.4677
 1543TIP3    H126120   5.560   0.716  16.457 -1.1553 -1.0533  0.2998
 1543TIP3    H226121   5.670   0.618  16.420  0.4053  1.0962 -0.9938
 1544TIP3   OH226122   5.646   5.167   3.461  0.7452  0.0016 -0.2034
 1544TIP3    H126123   5.717   5.125   3.510  1.3097  3.0526  1.8662
 1544TIP3    H226124   5.572   5.108   3.472  1.2863 -0.2668  3.0842
 1545TIP3   OH226125   4.801   0.740   0.135 -0.2808 -0.4653  0.1061
 1545TIP3    H126126   4.780   0.823   0.178 -0.1319 -0.7277  0.6949
 1545TIP3    H226127   4.772   0.752   0.045  0.7269  0.6142 -0.0977
 1546TIP3   OH226128   5.713   0.900  15.452  0.5500  0.0049 -0.4407
 1546TIP3    H126129   5.649   0.946  15.506  1.6605  2.0815 -0.8110
 1546TIP3    H226130   5.764   0.848  15.514  0.5853  0.8703  0.2798
 1547TIP3   OH226131   5.728   3.436   1.386  0.3368  0.2911  0.6842
 1547TIP3    H126132   5.794   3.383   1.341  0.3219  0.4035  0.5303
 1547TIP3    H226133   5.772   3.469   1.464  1.8840  3.9730 -1.5286
 1548TIP3   OH226134   6.321   4.923   4.849  0.3003 -0.0689  0.6244
 1548TIP3    H126135   6.348   4.833   4.866 -0.5741 -0.2445  1.1889
 1548TIP3    H226136   6.301   4.958   4.936 -0.3587  0.3326  0.3190
 1549TIP3   OH226137   3.533   6.162  13.967 -1.1846 -0.4259  0.2201
 1549TIP3    H126138   3.582   6.105  13.908  0.6631 -2.4447  3.4064
 1549TIP3    H226139   3.581   6.245  13.965 -1.9953  0.0457 -2.0577
 1550TIP3   OH226140   1.267   2.211   1.477 -0.3344 -0.1555 -0.2859
 1550TIP3    H126141   1.182   2.166   1.483 -0.7050  0.2628 -2.0121
 1550TIP3    H226142   1.245   2.304   1.481  0.1324 -0.0546  0.0090
 1551TIP3   OH226143   1.594   3.614  11.406  0.5684  0.2511  0.0021
 1551TIP3    H126144   1.521   3.572  11.451  0.8725 -0.6587 -0.3306
 1551TIP3    H226145   1.622   3.684  11.465 -0.7399  0.8022  0.0058
 1552TIP3   OH226146   5.644   4.519  12.256  0.3329  0.7055 -0.3992
 1552TIP3    H126147   5.602   4.507  12.341  1.9959  0.1596  0.3709
 1552TIP3    H226148   5.611   4.447  12.203  1.5439 -0.7278  0.7199
 1553TIP3   OH226149   3.394   3.185  12.362 -0.5598  0.1749 -0.3566
 1553TIP3    H126150   3.344   3.107  12.384 -0.2679  0.2577  0.6500
 1553TIP3    H226151   3.469   3.153  12.312  0.4832 -0.4032  1.5186
 1554TIP3   OH226152   4.839   0.394  11.824 -0.3978  0.0541  0.3072
 1554TIP3    H126153   4.927   0.356  11.820 -0.9639 -1.2486 -3.4975
 1554TIP3    H226154   4.782   0.320  11.846 -0.7466  0.5427  1.0916
 1555TIP3   OH226155   4.725   0.486   3.015  0.2486  0.1715  0.1327
 1555TIP3    H126156   4.712   0.402   2.971  2.1044 -1.0636  1.8007
 1555TIP3    H226157   4.731   0.550   2.943 -0.2415 -1.2283 -1.2053
 1556TIP3   OH226158   0.104   4.971   0.854 -0.3842  0.4486 -0.1521
 1556TIP3    H126159   0.135   4.928   0.933 -2.1254 -1.1088 -0.2676
 1556TIP3    H226160   0.159   4.935   0.784 -0.4988 -0.0583  0.0190
 1557TIP3   OH226161   4.064   3.771   4.423  0.6333 -0.4454  0.0526
 1557TIP3    H126162   3.996   3.761   4.489  1.3921 -2.2401  0.6187
 1557TIP3    H226163   4.019   3.810   4.348 -0.9605 -1.2911  0.5192
 1558TIP3   OH226164   5.717   2.377   0.251 -0.2989 -0.2667 -0.0052
 1558TIP3    H126165   5.716   2.281   0.248 -0.6252 -0.3428  1.7089
 1558TIP3    H226166   5.759   2.398   0.334  1.7528  1.1427 -1.2914
 1559TIP3   OH226167   4.487   4.684  11.851 -0.1429  0.2005 -0.0393
 1559TIP3    H126168   4.408   4.710  11.898  0.3576 -0.9737  1.5371
 1559TIP3    H226169   4.515   4.602  11.893  1.7962  0.4737 -0.6633
 1560TIP3   OH226170   5.868   0.451   4.618 -0.0107 -0.6329 -0.2247
 1560TIP3    H126171   5.889   0.537   4.581  0.4039 -0.3106  0.7241
 1560TIP3    H226172   5.774   0.455   4.637  0.2505  0.1244  1.0554
 1561TIP3   OH226173   5.002   5.124   0.041 -0.2813  0.2636 -0.5025
 1561TIP3    H126174   5.014   5.219   0.036 -2.3104  0.5449 -0.7118
 1561TIP3    H226175   4.929   5.112   0.102 -0.5883 -1.1213 -1.1169
 1562TIP3   OH226176   0.485   5.283   0.212  0.0153  0.4736  0.7014
 1562TIP3    H126177   0.519   5.229   0.141  1.2042  0.3762  1.3131
 1562TIP3    H226178   0.408   5.326   0.175  0.5873  0.4028 -0.6354
 1563TIP3   OH226179   3.674   0.472   1.444 -0.0740  0.0987 -0.2587
 1563TIP3    H126180   3.643   0.562   1.435  0.4241  0.1190 -2.3000
 1563TIP3    H226181   3.615   0.420   1.389 -0.6532 -0.9312  1.2662
 1564TIP3   OH226182   6.451   0.489  15.123  0.3486 -0.5627 -0.2094
 1564TIP3    H126183   6.405   0.409  15.147 -2.4571  1.5526  2.2286
 1564TIP3    H226184   6.503   0.510  15.200  1.1024 -0.0529 -0.8493
 1565TIP3   OH226185   0.663   2.953  11.427 -0.2773 -0.6691 -0.0997
 1565TIP3    H126186   0.751   2.971  11.462 -1.1700 -0.8286  2.4852
 1565TIP3    H226187   0.677   2.885  11.362  1.5282 -0.6992  0.2473
 1566TIP3   OH226188   5.808   3.969   0.132 -0.3889 -0.4720  0.0667
 1566TIP3    H126189   5.749   3.941   0.202 -3.6566  0.3487 -2.1187
 1566TIP3    H226190   5.824   4.061   0.150  0.8990 -0.8572  1.0387
 1567TIP3   OH226191   6.641   0.200  14.943 -0.2409  0.1239 -0.4185
 1567TIP3    H126192   6.629   0.294  14.929  1.1663  0.4803  0.5083
 1567TIP3    H226193   6.637   0.161  14.856 -0.2581  1.1306 -0.8782
 1568TIP3   OH226194   4.416   4.607  14.020  0.8516  0.4274 -0.1059
 1568TIP3    H126195   4.377   4.681  13.974  1.5642  0.7964 -0.1263
 1568TIP3    H226196   4.341   4.553  14.047  0.3337  1.1154 -0.1511
 1569TIP3   OH226197   4.864   4.331  13.225 -0.2499  0.2208  0.2108
 1569TIP3    H126198   4.958   4.337  13.213 -0.3764 -0.0010 -1.0201
 1569TIP3    H226199   4.851   4.252  13.277  0.2811  0.7690  1.2172
 1570TIP3   OH226200   2.060   0.348   5.600  0.5128  0.0643  0.0465
 1570TIP3    H126201   1.999   0.421   5.591  0.7330  0.0883 -1.5552
 1570TIP3    H226202   2.040   0.310   5.686 -2.1906 -0.3357 -0.6864
 1571TIP3   OH226203   3.183   2.780  11.279 -1.3172 -0.7366  0.1012
 1571TIP3    H126204   3.178   2.835  11.357 -1.3566  1.3468 -1.3167
 1571TIP3    H226205   3.123   2.708  11.297 -0.9990 -0.5568  2.1503
 1572TIP3   OH226206   3.820   1.879   4.907 -0.2149 -0.7067 -0.6452
 1572TIP3    H126207   3.898   1.838   4.942  0.3919 -0.4491 -1.6398
 1572TIP3    H226208   3.788   1.935   4.978  0.5137 -0.7974 -0.2356
 1573TIP3   OH226209   0.333   4.678  12.481 -0.4007  0.6413 -0.2870
 1573TIP3    H126210   0.350   4.586  12.499 -1.0587  0.7898  1.2713
 1573TIP3    H226211   0.399   4.703  12.416  0.4742 -0.6513  0.0729
 1574TIP3   OH226212   0.260   2.790   6.131  0.1470 -0.4049  0.0653
 1574TIP3    H126213   0.224   2.866   6.178 -0.1992 -2.3536  3.2547
 1574TIP3    H226214   0.221   2.714   6.175  1.2714 -2.4974 -2.3002
 1575TIP3   OH226215   0.343   1.465   4.799  0.3174  0.2828  0.5172
 1575TIP3    H126216   0.290   1.538   4.829  0.5043  0.3231  0.7551
 1575TIP3    H226217   0.316   1.391   4.853 -0.0933  0.1001  0.0626
 1576TIP3   OH226218   0.494   3.861  16.078  0.0368 -0.3717  0.0610
 1576TIP3    H126219   0.458   3.810  16.004  3.4166 -1.9259 -0.6925
 1576TIP3    H226220   0.511   3.948  16.041 -2.5793  0.3762  0.4105
 1577TIP3   OH226221   4.519   2.194  11.027  0.0415  0.5426 -0.6214
 1577TIP3    H126222   4.464   2.243  10.966  0.0378 -0.9807 -1.8864
 1577TIP3    H226223   4.579   2.145  10.971  1.3234  0.5653  0.6784
 1578TIP3   OH226224   5.052   4.466  16.589  0.3509  0.6240  0.3256
 1578TIP3    H126225   5.015   4.440  16.673  2.4112 -0.1190  1.0673
 1578TIP3    H226226   5.139   4.501  16.611 -0.0694  2.8337 -1.2526
 1579TIP3   OH226227   3.012   1.215   2.659 -0.2936 -0.5822  0.4582
 1579TIP3    H126228   2.934   1.166   2.681  0.1947 -1.4229  0.3489
 1579TIP3    H226229   3.043   1.177   2.577 -1.7578  2.0964 -1.5173
 1580TIP3   OH226230   3.733   5.040  11.224  0.1871 -0.2620 -0.4267
 1580TIP3    H126231   3.676   5.022  11.149  1.1508  1.7806 -1.7369
 1580TIP3    H226232   3.817   5.003  11.199  0.2309 -0.5702  0.1639
 1581TIP3   OH226233   6.778   1.954   4.739 -0.1272 -0.1940  0.0473
 1581TIP3    H126234   6.743   2.031   4.694  0.5907 -0.0911 -0.3481
 1581TIP3    H226235   6.817   1.901   4.669 -0.0586 -0.6119  0.3989
 1582TIP3   OH226236   6.529   0.955   1.005 -0.1890 -0.7656 -0.4436
 1582TIP3    H126237   6.543   0.960   1.099 -1.1648 -2.9991 -0.1030
 1582TIP3    H226238   6.611   0.921   0.970  0.1993  0.1324 -0.4512
 1583TIP3   OH226239   4.350   3.360  16.959  0.3891 -0.0614 -0.0614
 1583TIP3    H126240   4.268   3.388  16.920 -0.3940 -0.2253  1.3906
 1583TIP3    H226241   4.355   3.408  17.042  0.8727 -1.3977  0.7086
 1584TIP3   OH226242   0.522   0.731   5.595 -0.2843  0.6393 -0.3104
 1584TIP3    H126243   0.494   0.650   5.639  0.3046  0.4649 -0.2460
 1584TIP3    H226244   0.471   0.800   5.636 -0.3309  0.3719  0.0825
 1585TIP3   OH226245   2.579   3.596  16.038  0.4905 -0.6589 -0.5362
 1585TIP3    H126246   2.573   3.622  15.947  0.1531 -0.4825 -0.4646
 1585TIP3    H226247   2.609   3.505  16.035  0.8766 -0.5261 -0.8060
 1586TIP3   OH226248   6.499   1.057   6.738  0.1695 -0.1238  0.1475
 1586TIP3    H126249   6.544   1.046   6.654  1.5557 -3.2360  1.1625
 1586TIP3    H226250   6.560   1.105   6.793  0.5128 -0.6834  0.2590
 1587TIP3   OH226251   5.266   5.453   2.492  0.7413  0.1638 -0.0104
 1587TIP3    H126252   5.271   5.358   2.503  1.0470  0.1711 -0.0653
 1587TIP3    H226253   5.348   5.476   2.448  0.4545  0.3910 -0.4353
 1588TIP3   OH226254   2.050   4.893   0.259  0.1682 -0.6553  0.1144
 1588TIP3    H126255   1.966   4.876   0.218 -0.8773  1.0906  1.4299
 1588TIP3    H226256   2.066   4.817   0.315 -2.0928  0.3056  2.2364
 1589TIP3   OH226257   1.135   6.537   1.901  0.4213 -0.2060  0.2661
 1589TIP3    H126258   1.049   6.531   1.941  0.7509 -2.4974  0.7855
 1589TIP3    H226259   1.119   6.535   1.807 -0.0582 -2.9706  0.3443
 1590TIP3   OH226260   0.075   1.642  13.935  0.3426 -0.0363  0.1896
 1590TIP3    H126261   0.041   1.713  13.988 -0.7404 -0.8077  0.5595
 1590TIP3    H226262   0.103   1.683  13.853  2.6424  1.2808  1.5305
 1591TIP3   OH226263   6.146   3.567  14.010 -0.1009 -0.0324  0.2494
 1591TIP3    H126264   6.198   3.514  14.070 -1.1656 -0.4342  0.8385
 1591TIP3    H226265   6.150   3.520  13.927  0.0168 -0.3489  0.4329
 1592TIP3   OH226266   6.826   6.022   0.527  0.5926  0.7268 -0.1940
 1592TIP3    H126267   6.783   6.104   0.550  1.5083  1.4777 -1.1002
 1592TIP3    H226268   6.914   6.047   0.500  1.1392 -0.6344  0.2170
 1593TIP3   OH226269   2.026   3.714  11.598 -0.0385  0.2292  0.1507
 1593TIP3    H126270   1.959   3.675  11.542  0.0339  2.0643 -1.3307
 1593TIP3    H226271   1.979   3.780  11.649  0.7282  2.7564 -2.1190
 1594TIP3   OH226272   4.012   2.875  14.383  0.3333 -0.0421  0.3513
 1594TIP3    H126273   3.929   2.904  14.346 -0.0303 -0.1071  1.0925
 1594TIP3    H226274   3.993   2.790  14.421  2.1541 -3.1854 -4.7815
 1595TIP3   OH226275   6.803   3.708  12.667 -0.4442 -0.1494  0.1730
 1595TIP3    H126276   6.814   3.775  12.735  0.3359 -0.2730  0.1856
 1595TIP3    H226277   6.803   3.757  12.585  1.7977 -0.2301  0.0656
 1596TIP3   OH226278   1.898   5.471  14.773  0.0489 -0.4425  0.0945
 1596TIP3    H126279   1.839   5.547  14.776 -1.4425 -1.5597  0.3906
 1596TIP3    H226280   1.870   5.416  14.847  1.2956 -1.1543  0.0701
 1597TIP3   OH226281   6.717   6.092   2.150 -0.5100 -0.3159 -0.4156
 1597TIP3    H126282   6.687   6.024   2.210 -1.5781  0.6976  0.2519
 1597TIP3    H226283   6.658   6.166   2.166  0.7086  0.8300 -0.9914
 1598TIP3   OH226284   4.607   2.922   0.129  0.0364  0.9962 -0.1485
 1598TIP3    H126285   4.658   2.841   0.132  1.7614  2.0352  0.0345
 1598TIP3    H226286   4.517   2.893   0.117  0.2966 -1.0347  2.0938
 1599TIP3   OH226287   0.368   1.455   1.125  0.8847  0.3436 -0.2653
 1599TIP3    H126288   0.321   1.538   1.122 -3.3178 -1.7384 -0.2159
 1599TIP3    H226289   0.436   1.464   1.058 -1.2798  2.8583 -2.3992
 1600TIP3   OH226290   3.212   1.789  13.812  0.2200 -0.0015 -0.2801
 1600TIP3    H126291   3.232   1.714  13.868 -0.7035  1.2595  1.8591
 1600TIP3    H226292   3.181   1.751  13.730  1.8207 -1.9260 -0.0486
 1601TIP3   OH226293   3.346   3.172  11.074 -0.0025  0.2387 -0.0531
 1601TIP3    H126294   3.433   3.142  11.101  0.1230  1.5328  1.0750
 1601TIP3    H226295   3.288   3.147  11.147 -0.5237 -0.2743 -0.6249
 1602TIP3   OH226296   3.888   0.007  14.894 -0.5400 -0.1651  0.3469
 1602TIP3    H126297   3.826   0.077  14.875  0.9599  0.8048 -1.2450
 1602TIP3    H226298   3.846  -0.072  14.860 -0.5030  0.6267 -1.6907
 1603TIP3   OH226299   2.093   3.650   4.315  0.2459 -0.6735 -0.6135
 1603TIP3    H126300   2.149   3.616   4.385 -0.4605 -1.8322 -0.6002
 1603TIP3    H226301   2.026   3.583   4.302 -1.4701  0.9026 -0.2735
 1604TIP3   OH226302   5.380   3.799   1.938  1.0443  0.0086  0.0703
 1604TIP3    H126303   5.301   3.831   1.895  0.9668 -1.6107 -1.0985
 1604TIP3    H226304   5.420   3.876   1.977  0.6354  1.4427 -2.1835
 1605TIP3   OH226305   1.103   0.489  16.017  0.2211  0.4090 -0.0014
 1605TIP3    H126306   1.062   0.566  16.057  0.2255  2.0888 -2.9443
 1605TIP3    H226307   1.048   0.471  15.941 -1.0578 -3.9730  1.6759
 1606TIP3   OH226308   0.867   2.882  11.904  0.0899 -0.2436  0.2708
 1606TIP3    H126309   0.811   2.811  11.872  0.6433  0.0103 -1.3643
 1606TIP3    H226310   0.956   2.850  11.891  0.3410  0.5922 -0.1421
 1607TIP3   OH226311   0.533   5.744  14.641  0.2383 -0.4407 -0.1380
 1607TIP3    H126312   0.530   5.658  14.683 -0.8639 -0.9006 -1.1117
 1607TIP3    H226313   0.441   5.772  14.638  0.4195  0.0652 -1.2609
 1608TIP3   OH226314   1.998   0.071   0.915  0.4678 -0.2092 -0.2095
 1608TIP3    H126315   2.034   0.157   0.896 -0.0988  0.5225  1.7896
 1608TIP3    H226316   1.904   0.081   0.903  0.1821  0.0406  1.8463
 1609TIP3   OH226317   2.283   6.730  14.289  0.1220 -0.6060 -0.1975
 1609TIP3    H126318   2.311   6.772  14.370 -0.2668  1.2623 -0.9776
 1609TIP3    H226319   2.292   6.637  14.306 -1.6043 -0.3865  2.6357
 1610TIP3   OH226320   4.109   5.065   2.645 -0.8537 -0.3713  0.2220
 1610TIP3    H126321   4.182   5.065   2.583 -1.7218 -0.8211 -0.8504
 1610TIP3    H226322   4.150   5.054   2.731  0.2828 -1.8029 -0.4467
 1611TIP3   OH226323   4.940   3.479  12.654  0.0123 -0.2116  0.4563
 1611TIP3    H126324   4.907   3.390  12.667  1.0205 -0.9076 -1.5191
 1611TIP3    H226325   4.890   3.513  12.580  0.8791  0.2063  0.0487
 1612TIP3   OH226326   4.001   3.987  11.911 -0.0988 -0.4436 -0.3926
 1612TIP3    H126327   3.959   4.052  11.967  1.7552 -0.0215  0.5811
 1612TIP3    H226328   4.041   4.039  11.841 -1.1842 -0.8429 -1.3326
 1613TIP3   OH226329   6.833   3.207   4.747 -0.0782 -0.1274  0.4607
 1613TIP3    H126330   6.864   3.292   4.715  0.9506 -1.1785 -1.4701
 1613TIP3    H226331   6.826   3.152   4.669 -0.6042 -1.8822  1.6742
 1614TIP3   OH226332   5.882   2.835   5.886  0.1349 -0.3686  0.3039
 1614TIP3    H126333   5.920   2.748   5.872 -0.0943 -0.3220 -0.6756
 1614TIP3    H226334   5.818   2.822   5.957 -0.8088 -1.2842 -0.6700
 1615TIP3   OH226335   3.560   4.198   4.523  0.0960  0.2406 -0.3674
 1615TIP3    H126336   3.618   4.204   4.447  0.0945  1.8734 -0.2751
 1615TIP3    H226337   3.515   4.114   4.512  0.5510  0.1568 -1.8346
 1616TIP3   OH226338   6.694   0.724   6.269 -0.2574 -0.0481 -0.4173
 1616TIP3    H126339   6.759   0.677   6.217  0.7861  0.3573  0.4886
 1616TIP3    H226340   6.715   0.816   6.257 -1.0625  0.1208 -0.6072
 1617TIP3   OH226341   5.372   0.581   0.395  0.2655  0.2803 -0.1551
 1617TIP3    H126342   5.312   0.557   0.324 -0.2845 -2.6619  1.1491
 1617TIP3    H226343   5.317   0.578   0.473  1.2148  1.8527  0.6075
 1618TIP3   OH226344   1.214   3.209   3.046  0.6590 -0.0257  0.3020
 1618TIP3    H126345   1.145   3.264   3.009  2.3610 -0.0129 -3.2511
 1618TIP3    H226346   1.197   3.122   3.010  2.5163  0.0196 -0.7824
 1619TIP3   OH226347   4.286   1.166  14.773  0.5854  0.1916 -0.2105
 1619TIP3    H126348   4.195   1.151  14.799  0.5235 -0.6431 -0.8531
 1619TIP3    H226349   4.290   1.134  14.682  1.9320 -1.4305  0.3765
 1620TIP3   OH226350   6.105   3.640  15.935 -0.2995 -0.2264  0.4222
 1620TIP3    H126351   6.064   3.562  15.899 -0.1420 -1.0330  1.9133
 1620TIP3    H226352   6.154   3.609  16.011 -0.5972  1.3669  1.3096
 1621TIP3   OH226353   4.307   6.768  15.587 -0.1459  0.3511  0.0018
 1621TIP3    H126354   4.334   6.781  15.677  0.3753  0.6652 -0.1969
 1621TIP3    H226355   4.343   6.683  15.562 -2.1660 -0.7994  0.7808
 1622TIP3   OH226356   5.034   6.624  14.436 -0.0608 -0.4666  0.4085
 1622TIP3    H126357   5.034   6.583  14.523  1.2489 -1.9664 -0.2390
 1622TIP3    H226358   4.984   6.564  14.381  0.5488 -0.4094 -0.2267
 1623TIP3   OH226359   4.317   5.563   1.140 -0.5093  0.3162 -0.2302
 1623TIP3    H126360   4.337   5.638   1.085  0.5610  0.3104  0.1318
 1623TIP3    H226361   4.264   5.506   1.084 -1.2583  1.2862 -0.5304
 1624TIP3   OH226362   3.620   3.339  16.914  0.1709 -0.2728  0.1763
 1624TIP3    H126363   3.666   3.423  16.919  0.4598 -0.4556  0.7661
 1624TIP3    H226364   3.551   3.346  16.981  0.6185 -0.7468  0.6990
 1625TIP3   OH226365   3.662   2.624   2.668  0.6031 -0.3726 -0.2944
 1625TIP3    H126366   3.596   2.644   2.602  1.5762  2.3964 -0.5770
 1625TIP3    H226367   3.746   2.635   2.623  1.2717  0.1478  1.0001
 1626TIP3   OH226368   2.946   1.533  16.207 -0.3991 -0.1205  0.3349
 1626TIP3    H126369   2.978   1.443  16.206  0.4819  0.1896 -0.7972
 1626TIP3    H226370   2.985   1.572  16.285 -1.0601 -0.7966  1.0241
 1627TIP3   OH226371   5.861   0.215   5.349  0.0042  0.0738 -0.3261
 1627TIP3    H126372   5.873   0.199   5.256 -0.5671  1.4604 -0.6606
 1627TIP3    H226373   5.942   0.258   5.377 -0.9575  2.4873 -0.9192
 1628TIP3   OH226374   1.933   4.473  12.105  0.1929 -0.1810 -0.5165
 1628TIP3    H126375   1.965   4.546  12.157 -0.3640 -0.6434  0.5168
 1628TIP3    H226376   1.854   4.443  12.151  0.5575 -1.5984 -0.7535
 1629TIP3   OH226377   5.920   2.154   6.647 -0.1640 -0.0200 -0.1906
 1629TIP3    H126378   5.963   2.070   6.631  1.0360  0.8576 -1.8180
 1629TIP3    H226379   5.897   2.187   6.560  1.3971  2.3295  0.1812
 1630TIP3   OH226380   2.230   1.951  11.032  0.6351  0.0909  0.1946
 1630TIP3    H126381   2.252   1.861  11.060  1.0865  0.9462  2.9525
 1630TIP3    H226382   2.314   1.988  11.006  0.4244 -0.3060 -1.0944
 1631TIP3   OH226383   6.632   3.984   2.274 -0.5235  0.5786 -0.0211
 1631TIP3    H126384   6.725   3.994   2.254 -0.4504  0.2643  0.1422
 1631TIP3    H226385   6.620   4.033   2.356 -0.1615 -0.6408  0.7914
 1632TIP3   OH226386   0.554   6.526  12.747 -0.3236  0.4014  0.4904
 1632TIP3    H126387   0.603   6.493  12.822 -1.0811 -1.0047  0.4196
 1632TIP3    H226388   0.463   6.504  12.768 -1.1751  4.0912  1.2295
 1633TIP3   OH226389   4.305   6.062   3.628 -0.0103  0.0417 -0.5618
 1633TIP3    H126390   4.217   6.046   3.595 -0.2828 -0.8063  0.5260
 1633TIP3    H226391   4.357   6.079   3.550 -1.2880  1.4137 -1.1791
 1634TIP3   OH226392   3.024   2.367  12.397  0.1832  0.0327 -0.0550
 1634TIP3    H126393   3.010   2.342  12.305  1.3912 -0.9085 -0.0091
 1634TIP3    H226394   3.067   2.291  12.436  1.3405  1.1022  0.8305
 1635TIP3   OH226395   2.634   4.770  13.727  0.2742  0.2538 -0.0193
 1635TIP3    H126396   2.668   4.783  13.639 -0.3130  0.2113 -0.2559
 1635TIP3    H226397   2.545   4.806  13.724 -0.7586 -2.1320 -0.2111
 1636TIP3   OH226398   4.814   2.485  13.881 -0.0709 -0.5217 -0.0726
 1636TIP3    H126399   4.835   2.566  13.926 -1.1460 -0.8309  1.0592
 1636TIP3    H226400   4.758   2.511  13.808  2.2765  0.0623 -1.7709
 1637TIP3   OH226401   2.462   2.269  14.799  0.3214 -0.7760 -0.4923
 1637TIP3    H126402   2.542   2.317  14.776  0.3837 -0.6547 -0.0309
 1637TIP3    H226403   2.412   2.265  14.718  0.4222 -0.1309 -0.5940
 1638TIP3   OH226404   4.836   3.324   0.827  0.0737  0.2970  0.7677
 1638TIP3    H126405   4.761   3.296   0.774  0.3483  0.5537  0.2453
 1638TIP3    H226406   4.907   3.266   0.800  0.8335  1.8938 -0.8043
 1639TIP3   OH226407   4.997   6.109  11.777  0.1643  0.0115 -0.1681
 1639TIP3    H126408   5.072   6.162  11.805 -0.0126  0.1432  0.0547
 1639TIP3    H226409   4.958   6.159  11.706  0.1503  0.0535 -0.1309
 1640TIP3   OH226410   2.065   6.420  15.536  0.0688 -0.2192 -0.0924
 1640TIP3    H126411   1.972   6.442  15.542  0.2474  0.2788  1.2526
 1640TIP3    H226412   2.068   6.345  15.477 -1.3137 -0.9447  0.6855
 1641TIP3   OH226413   2.439   1.522   0.999 -0.0135 -0.1202 -0.7305
 1641TIP3    H126414   2.511   1.538   0.938 -0.4396  0.1035 -1.1799
 1641TIP3    H226415   2.477   1.465   1.066  0.8568  0.7929 -0.4243
 1642TIP3   OH226416   0.803   0.479  14.593  0.4834  0.2411  0.5596
 1642TIP3    H126417   0.798   0.521  14.507  0.0604 -0.7135  0.1017
 1642TIP3    H226418   0.718   0.437  14.604  1.1028 -1.0062  0.7276
 1643TIP3   OH226419   2.865   5.390   0.812  0.5756 -0.3163  0.2370
 1643TIP3    H126420   2.775   5.364   0.795  0.7409  0.0833 -1.3855
 1643TIP3    H226421   2.912   5.308   0.825  0.1738 -0.5765  0.0547
 1644TIP3   OH226422   0.170   0.387  13.382 -0.2555  0.2619  0.5133
 1644TIP3    H126423   0.259   0.357  13.401 -0.2626 -0.9563 -1.2237
 1644TIP3    H226424   0.120   0.365  13.461  0.2759 -2.2278  0.2326
 1645TIP3   OH226425   0.539   1.442   3.983  0.0690  0.1325  0.4985
 1645TIP3    H126426   0.630   1.452   3.957 -0.2442  2.7746  0.1258
 1645TIP3    H226427   0.501   1.384   3.917  0.6531  2.0697 -1.6550
 1646TIP3   OH226428   3.925   2.157  14.963  0.5668  0.1867 -0.2017
 1646TIP3    H126429   3.906   2.251  14.958 -0.8846 -0.0393  0.5039
 1646TIP3    H226430   3.906   2.124  14.875  0.5883  0.4743 -0.3151
 1647TIP3   OH226431   5.903   4.524  12.164 -0.3469 -0.1899 -0.5611
 1647TIP3    H126432   5.828   4.542  12.220  1.2196  1.3191  1.1756
 1647TIP3    H226433   5.958   4.464  12.215  1.1660  1.3059 -0.3525
 1648TIP3   OH226434   5.299   5.098   1.233 -0.2279 -0.2050  0.4498
 1648TIP3    H126435   5.246   5.095   1.153 -0.2446 -0.1658  0.4593
 1648TIP3    H226436   5.304   5.191   1.254  0.0850 -0.1842  0.2899
 1649TIP3   OH226437   0.226   1.007   5.421 -0.0167 -0.2383 -0.0966
 1649TIP3    H126438   0.307   0.960   5.440 -1.3229 -3.0740 -1.0006
 1649TIP3    H226439   0.179   1.009   5.505  0.4623  0.3852  0.1663
 1650TIP3   OH226440   3.834   3.503  11.566 -0.4338 -0.0329 -0.0174
 1650TIP3    H126441   3.886   3.446  11.509  0.2903 -0.5338  1.1187
 1650TIP3    H226442   3.861   3.480  11.654  0.0688  2.2697  0.4803
 1651TIP3   OH226443   1.236   3.055   5.398 -0.3565  0.0780 -0.1495
 1651TIP3    H126444   1.174   3.012   5.339 -0.3221 -0.3223  0.1057
 1651TIP3    H226445   1.238   3.146   5.368  0.8719 -0.4506 -1.8318
 1652TIP3   OH226446   3.996   0.467  15.797 -0.2589 -0.6648  0.4197
 1652TIP3    H126447   4.030   0.529  15.862 -0.4742 -1.1228  0.9869
 1652TIP3    H226448   4.073   0.418  15.769  0.4926  1.7608 -2.2607
 1653TIP3   OH226449   3.166   6.468  11.939 -0.2326 -0.3594  0.0861
 1653TIP3    H126450   3.183   6.381  11.902  2.2281 -0.2829  0.8621
 1653TIP3    H226451   3.193   6.461  12.030  0.3496  1.3010  0.0779
 1654TIP3   OH226452   2.305   2.268   5.359 -0.1496 -0.4315  0.0944
 1654TIP3    H126453   2.363   2.277   5.283 -0.8486 -0.5617 -0.4640
 1654TIP3    H226454   2.219   2.296   5.326  0.1241  2.7042  1.6681
 1655TIP3   OH226455   3.601   5.124  13.997 -0.5272 -1.1052 -0.1883
 1655TIP3    H126456   3.557   5.187  13.939  1.3094  0.1694 -0.2858
 1655TIP3    H226457   3.602   5.042  13.948 -1.3716 -0.7505 -0.8218
 1656TIP3   OH226458   2.023   4.983  11.936 -0.1265 -0.2893 -0.3208
 1656TIP3    H126459   2.115   5.005  11.919 -0.5943  1.3131 -0.9968
 1656TIP3    H226460   2.005   5.021  12.022  0.0202 -1.2343  0.1399
 1657TIP3   OH226461   1.018   2.345   1.950  0.2872  0.1791 -0.0041
 1657TIP3    H126462   0.999   2.438   1.956 -0.8094  0.0453 -1.1077
 1657TIP3    H226463   1.016   2.325   1.856  0.3905 -0.9761  0.2161
 1658TIP3   OH226464   3.041   0.036  13.532 -0.4226 -1.1891  0.0366
 1658TIP3    H126465   2.978   0.001  13.469 -1.7195 -3.5984  2.4693
 1658TIP3    H226466   3.118  -0.021  13.523  0.4366  0.0667 -1.0418
 1659TIP3   OH226467   6.166   4.733   0.979 -0.2768 -0.6623 -0.2138
 1659TIP3    H126468   6.209   4.659   0.935  1.0641  0.5949 -1.1263
 1659TIP3    H226469   6.213   4.810   0.947 -0.1160  0.4429  2.4688
 1660TIP3   OH226470   2.718   3.540  16.662  0.0476 -0.0433  0.5934
 1660TIP3    H126471   2.808   3.565  16.642  0.0012  0.1007  0.5670
 1660TIP3    H226472   2.664   3.605  16.617 -0.1649 -1.7459 -1.7996
 1661TIP3   OH226473   0.761   5.255   3.347 -0.0448 -0.1306 -0.4501
 1661TIP3    H126474   0.696   5.195   3.384  0.6316 -0.2359  0.6185
 1661TIP3    H226475   0.724   5.342   3.360  1.0912  0.0436  2.6383
 1662TIP3   OH226476   4.473   3.056  11.326  0.2673 -0.6483 -0.4070
 1662TIP3    H126477   4.499   3.135  11.373 -0.5157  0.4940 -1.8033
 1662TIP3    H226478   4.533   3.050  11.252  1.9456 -2.8233  0.9964
 1663TIP3   OH226479   1.826   5.703   0.771  0.2572  0.5645 -0.2971
 1663TIP3    H126480   1.771   5.628   0.750  1.3800  0.0592 -1.6508
 1663TIP3    H226481   1.834   5.702   0.866 -0.9874 -0.1039 -0.1842
 1664TIP3   OH226482   3.434   5.842  15.478 -0.2951  0.1639 -0.0216
 1664TIP3    H126483   3.477   5.778  15.422  1.1139 -0.3081  1.5139
 1664TIP3    H226484   3.451   5.926  15.435  0.5809 -0.2072 -0.4299
 1665TIP3   OH226485   2.129   4.709   0.504 -0.2669  0.7461  0.0127
 1665TIP3    H126486   2.068   4.675   0.569 -0.6797  1.2245 -0.1218
 1665TIP3    H226487   2.151   4.797   0.535  1.0038  0.2804  0.5020
 1666TIP3   OH226488   3.524   1.166  14.143  0.6252 -0.0157 -0.4809
 1666TIP3    H126489   3.564   1.230  14.201 -1.2290  1.3381 -0.6283
 1666TIP3    H226490   3.513   1.088  14.197  2.0951  0.0535 -0.0434
 1667TIP3   OH226491   4.769   4.105   2.019  0.6793  0.0406  0.1160
 1667TIP3    H126492   4.793   4.016   1.993  0.3607 -0.3853  1.2472
 1667TIP3    H226493   4.744   4.147   1.936 -1.6060 -1.6738 -0.1918
 1668TIP3   OH226494   3.405   4.775   0.486 -0.2818  0.7918 -0.1263
 1668TIP3    H126495   3.354   4.814   0.415  0.4305  2.4828  0.2389
 1668TIP3    H226496   3.363   4.690   0.502 -2.3612  1.6835 -0.4937
 1669TIP3   OH226497   1.396   4.493   5.522 -0.4721 -0.2191 -0.0986
 1669TIP3    H126498   1.416   4.435   5.596 -0.8731 -0.7918 -0.4303
 1669TIP3    H226499   1.456   4.465   5.453 -2.3335 -1.9708 -1.1104
 1670TIP3   OH226500   2.431   3.536  13.999 -0.1056 -0.4024 -0.4735
 1670TIP3    H126501   2.406   3.471  13.934 -0.6815 -0.2960 -0.3645
 1670TIP3    H226502   2.350   3.555  14.046  0.0183  0.4984 -0.5994
 1671TIP3   OH226503   5.282   2.760  15.263 -0.0813 -0.1663 -0.0246
 1671TIP3    H126504   5.338   2.832  15.233 -0.8877 -0.2026 -1.7599
 1671TIP3    H226505   5.277   2.772  15.357  1.8286  0.5594  0.0261
 1672TIP3   OH226506   2.965   6.326   3.074 -0.1964  0.3412  0.1764
 1672TIP3    H126507   3.012   6.269   3.135 -1.5521  1.1643  2.1097
 1672TIP3    H226508   3.016   6.323   2.994  2.0487 -0.3131  1.5420
 1673TIP3   OH226509   1.958   2.775  16.885  0.2059  0.3542 -0.2860
 1673TIP3    H126510   1.866   2.794  16.864  0.1909  0.3349 -0.2362
 1673TIP3    H226511   2.003   2.779  16.801  0.6963  3.3329 -0.0012
 1674TIP3   OH226512   2.296   2.449  11.699 -0.2346 -0.3092 -0.3233
 1674TIP3    H126513   2.274   2.403  11.618  0.7857 -0.1087 -0.7378
 1674TIP3    H226514   2.385   2.419  11.720  0.8455  2.1033 -1.0909
 1675TIP3   OH226515   0.043   1.894   2.991 -0.4175  0.2731 -0.0084
 1675TIP3    H126516   0.074   1.815   2.946 -1.0545  0.8014 -1.4429
 1675TIP3    H226517   0.106   1.962   2.965 -0.0933  0.3387  0.9100
 1676TIP3   OH226518   0.341   0.843  13.794  0.2627 -0.1649 -0.1115
 1676TIP3    H126519   0.339   0.906  13.865 -0.3206 -0.4241  0.1089
 1676TIP3    H226520   0.329   0.896  13.715 -1.4190 -0.0982  0.1506
 1677TIP3   OH226521   2.226   0.841   4.231 -0.5606 -0.3814  0.2358
 1677TIP3    H126522   2.213   0.864   4.139  2.2200  1.4055  0.1691
 1677TIP3    H226523   2.277   0.914   4.267  1.7201 -2.7337  2.1893
 1678TIP3   OH226524   1.317   1.563   5.681 -0.0678 -0.1950 -0.3725
 1678TIP3    H126525   1.351   1.627   5.743 -2.3843  0.0618  0.7375
 1678TIP3    H226526   1.263   1.614   5.620  0.8355 -0.6759 -1.6366
 1679TIP3   OH226527   6.494   5.719  12.870  0.4260  0.2000  0.0023
 1679TIP3    H126528   6.409   5.682  12.894  0.2295  0.4234 -0.3304
 1679TIP3    H226529   6.492   5.722  12.774  0.7941  0.2484 -0.0056
 1680TIP3   OH226530   5.666   0.535  16.797  0.1765 -0.1907 -0.8786
 1680TIP3    H126531   5.631   0.452  16.826 -1.0388 -0.0669 -1.9003
 1680TIP3    H226532   5.605   0.565  16.730 -0.3036  2.2755  0.5456
 1681TIP3   OH226533   5.071   3.709   2.051 -0.7059 -0.2731 -0.0133
 1681TIP3    H126534   5.002   3.701   2.116 -1.4839  0.3886 -0.7226
 1681TIP3    H226535   5.073   3.802   2.030 -0.9380 -0.5550 -1.3966
 1682TIP3   OH226536   0.638   0.203  11.623  0.3277 -0.1381 -0.5082
 1682TIP3    H126537   0.620   0.162  11.708 -0.9006  0.6217 -0.3768
 1682TIP3    H226538   0.727   0.177  11.602 -0.4903 -3.2218 -0.6234
 1683TIP3   OH226539   3.643   4.329   2.337  0.1466  0.9617  0.0968
 1683TIP3    H126540   3.635   4.334   2.432 -0.7525 -0.9670  0.1665
 1683TIP3    H226541   3.569   4.276   2.309  1.1656  0.3246 -1.5406
 1684TIP3   OH226542   3.255   0.774   1.393 -0.4663 -0.4437 -0.0078
 1684TIP3    H126543   3.266   0.758   1.487 -0.1959 -1.5531 -0.2221
 1684TIP3    H226544   3.190   0.710   1.365  1.3100 -1.8440 -1.0674
 1685TIP3   OH226545   2.210   2.901   6.265  0.3342  0.0171  0.4641
 1685TIP3    H126546   2.218   2.919   6.171  1.0072 -1.9116  0.1072
 1685TIP3    H226547   2.271   2.963   6.306 -1.2183  2.0605 -0.1714
 1686TIP3   OH226548   0.702   0.560  16.697  0.2406  0.4014 -0.0068
 1686TIP3    H126549   0.740   0.498  16.635  1.0774  0.7465  0.1493
 1686TIP3    H226550   0.769   0.573  16.764 -0.5198  0.2926  0.8034
 1687TIP3   OH226551   4.748   2.907  14.186 -0.1160  0.1928  0.1318
 1687TIP3    H126552   4.754   2.812  14.182 -0.3180  0.1130  1.3487
 1687TIP3    H226553   4.654   2.924  14.195  0.0205  0.4153  1.3491
 1688TIP3   OH226554   4.848   3.333   4.754 -0.1854 -0.1513 -0.7007
 1688TIP3    H126555   4.798   3.260   4.789  1.5246 -0.4412  1.3256
 1688TIP3    H226556   4.805   3.411   4.789 -0.2679 -0.3149 -0.4386
 1689TIP3   OH226557   0.499   4.506  16.771 -0.4345  0.1000 -0.5068
 1689TIP3    H126558   0.478   4.528  16.680  0.9614  1.3563 -0.5774
 1689TIP3    H226559   0.425   4.454  16.801 -2.0432  1.6198 -1.6470
 1690TIP3   OH226560   4.306   5.324  11.840 -0.1139 -0.0001  0.3937
 1690TIP3    H126561   4.344   5.250  11.888  0.5606 -1.2547 -1.8824
 1690TIP3    H226562   4.380   5.361  11.792 -1.1143 -0.4192 -1.5777
 1691TIP3   OH226563   5.386   4.814   3.196 -0.4393  0.4401  0.7015
 1691TIP3    H126564   5.307   4.812   3.249  0.3880 -0.9261  1.9680
 1691TIP3    H226565   5.382   4.735   3.142 -0.0338  0.4627  0.6303
 1692TIP3   OH226566   0.232   0.980  12.607 -0.4188  1.0873  0.1459
 1692TIP3    H126567   0.156   0.922  12.607 -1.2741  2.1267  1.5074
 1692TIP3    H226568   0.291   0.944  12.673 -0.2718  0.9478 -0.0602
 1693TIP3   OH226569   4.139   6.662  13.050  0.5865  0.0205 -0.5081
 1693TIP3    H126570   4.087   6.598  13.098  0.6896 -0.0373 -0.4728
 1693TIP3    H226571   4.229   6.630  13.058  0.7509  0.6511  0.2654
 1694TIP3   OH226572   4.767   3.595   1.807  0.4725 -0.5511  0.1501
 1694TIP3    H126573   4.690   3.538   1.820  0.9591 -1.5815 -1.2921
 1694TIP3    H226574   4.813   3.557   1.732  3.6687 -1.3803  2.3204
 1695TIP3   OH226575   2.553   2.418   1.266  0.1945  0.4441  0.1326
 1695TIP3    H126576   2.598   2.353   1.320  0.6358  1.8229  1.5095
 1695TIP3    H226577   2.461   2.390   1.266  0.2286  0.2815  1.4234
 1696TIP3   OH226578   3.713   3.011   4.301 -0.6239  0.3219 -0.1811
 1696TIP3    H126579   3.637   3.057   4.264 -1.4038 -0.2900  0.6089
 1696TIP3    H226580   3.733   2.943   4.237  1.1470  2.2511 -1.8473
 1697TIP3   OH226581   2.091   1.120   1.085 -0.4278 -0.2096 -0.2856
 1697TIP3    H126582   2.051   1.131   0.998  0.5396 -0.1246 -0.7344
 1697TIP3    H226583   2.182   1.096   1.066 -0.5823 -1.7016  0.6999
 1698TIP3   OH226584   0.760   0.759   1.907  0.3564  0.3872 -0.1655
 1698TIP3    H126585   0.822   0.813   1.859  0.4063  0.6250  0.1667
 1698TIP3    H226586   0.764   0.791   1.997  0.3627 -0.1427  0.0313
 1699TIP3   OH226587   5.205   2.754  13.769 -0.9732  0.0136  0.0704
 1699TIP3    H126588   5.110   2.750  13.757 -1.0228 -0.7652  0.6517
 1699TIP3    H226589   5.222   2.845  13.796 -1.7154 -0.1684  1.2441
 1700TIP3   OH226590   2.057   4.305   6.208 -0.9263  0.0949  0.0345
 1700TIP3    H126591   2.059   4.213   6.181 -0.5012 -0.3711  1.5793
 1700TIP3    H226592   2.145   4.322   6.241 -0.7425  1.3307 -1.0178
 1701TIP3   OH226593   5.803   0.386  10.246  0.4997  0.3028 -1.1218
 1701TIP3    H126594   5.856   0.450  10.294 -0.3958 -0.1932  0.6400
 1701TIP3    H226595   5.746   0.440  10.190  0.1294  1.0536 -0.0627
 1702TIP3   OH226596   0.200   1.612  11.891 -0.8917  0.5707  0.6286
 1702TIP3    H126597   0.286   1.643  11.921 -0.8499  0.8631  0.2023
 1702TIP3    H226598   0.194   1.523  11.927 -0.4029  0.5388  0.6483
 1703TIP3   OH226599   0.610   4.890  15.304  0.0003 -0.6294  0.1119
 1703TIP3    H126600   0.574   4.940  15.378 -1.5209 -1.5572  0.0487
 1703TIP3    H226601   0.547   4.819  15.290 -0.3092  0.0881 -2.7543
 1704TIP3   OH226602   5.180   4.971   4.947 -0.0245  0.5592  0.3666
 1704TIP3    H126603   5.253   5.032   4.955 -0.8776  1.8169 -1.0476
 1704TIP3    H226604   5.109   5.012   4.996 -0.5734  0.6782 -0.5129
 1705TIP3   OH226605   1.308   4.597   6.251 -0.1081 -0.4102 -0.4891
 1705TIP3    H126606   1.295   4.681   6.296  0.4248 -1.1464  1.0836
 1705TIP3    H226607   1.372   4.617   6.183 -2.0676  1.0710 -2.0408
 1706TIP3   OH226608   2.031   2.390  15.220  0.1541  0.1458 -0.0875
 1706TIP3    H126609   2.023   2.309  15.271 -0.4297 -0.4888 -1.1456
 1706TIP3    H226610   2.084   2.365  15.144  0.5770  0.9387 -0.0556
 1707TIP3   OH226611   5.931   4.590  10.767  0.1070  0.4753 -0.0499
 1707TIP3    H126612   5.838   4.567  10.773 -0.1791  1.3138 -0.9636
 1707TIP3    H226613   5.974   4.507  10.743 -0.2461 -0.1437  1.3438
 1708TIP3   OH226614   2.661   2.982   2.912  0.3099 -0.1362  0.2582
 1708TIP3    H126615   2.755   2.990   2.902  0.4998 -1.4498  0.8018
 1708TIP3    H226616   2.629   2.960   2.824  0.6860 -1.0314  0.3336
 1709TIP3   OH226617   3.613   3.219  13.367  0.3749  0.1710 -0.0384
 1709TIP3    H126618   3.704   3.208  13.339  0.2036  2.0003 -1.5762
 1709TIP3    H226619   3.611   3.306  13.408 -0.4889 -0.2989  0.9759
 1710TIP3   OH226620   5.681   0.133   0.559 -0.1447  1.0844  0.1565
 1710TIP3    H126621   5.597   0.130   0.605  0.5104  0.9400  1.3882
 1710TIP3    H226622   5.688   0.047   0.517 -1.2583  1.6112 -1.2162
 1711TIP3   OH226623   0.196   4.836  15.480  0.5400 -0.2654  0.3688
 1711TIP3    H126624   0.161   4.750  15.454 -0.9524  0.1634  0.8756
 1711TIP3    H226625   0.236   4.820  15.565  1.3204 -0.6841 -0.0565
 1712TIP3   OH226626   4.571   0.487  11.858 -0.2608 -0.4910  0.4124
 1712TIP3    H126627   4.665   0.474  11.852 -0.4176 -1.4467 -0.1382
 1712TIP3    H226628   4.544   0.430  11.931 -0.3992 -0.1066  0.6654
 1713TIP3   OH226629   2.622   0.045  16.084  0.7457 -0.0202  0.2597
 1713TIP3    H126630   2.600  -0.040  16.047  2.7329 -0.5987  0.3036
 1713TIP3    H226631   2.588   0.109  16.021 -0.4554 -0.8235  0.0615
 1714TIP3   OH226632   3.956   4.564  14.281 -0.0275 -0.0474 -0.2364
 1714TIP3    H126633   3.871   4.605  14.297 -0.2003  0.0285 -1.2528
 1714TIP3    H226634   4.019   4.623  14.321 -0.4157  0.1767  0.0533
 1715TIP3   OH226635   4.012   2.817   0.769  0.1931  0.1768  0.4307
 1715TIP3    H126636   3.934   2.761   0.770  0.4092 -0.1195  0.8326
 1715TIP3    H226637   4.081   2.763   0.733  0.2643  0.3719  0.2725
 1716TIP3   OH226638   1.408   6.760   2.740  0.1282  0.0625  0.0593
 1716TIP3    H126639   1.378   6.842   2.699 -0.1025 -0.4524 -0.8190
 1716TIP3    H226640   1.341   6.740   2.805 -0.4247 -0.0443 -0.5389
 1717TIP3   OH226641   2.801   6.428  11.618 -0.2998 -1.2252 -0.0923
 1717TIP3    H126642   2.783   6.414  11.711  0.7237  0.1821  0.3604
 1717TIP3    H226643   2.776   6.346  11.576 -2.2389 -1.3639  1.1935
 1718TIP3   OH226644   1.741   0.405   4.937 -0.0017 -0.5994  0.3817
 1718TIP3    H126645   1.728   0.454   4.856 -0.2482 -1.3408 -0.0349
 1718TIP3    H226646   1.819   0.444   4.976 -0.9705  1.0721  0.7842
 1719TIP3   OH226647   2.402   5.571  15.338 -0.4436  0.2315  0.1360
 1719TIP3    H126648   2.448   5.533  15.263  0.9772 -1.1955  1.6445
 1719TIP3    H226649   2.349   5.499  15.374  1.1390 -0.0275  2.1604
 1720TIP3   OH226650   5.474   3.135  16.646  0.5250  0.4596  0.2322
 1720TIP3    H126651   5.541   3.197  16.676  0.9892  0.3273 -0.5006
 1720TIP3    H226652   5.518   3.083  16.578 -0.1794  0.0462  0.0789
 1721TIP3   OH226653   0.912   2.593   4.772  0.0143  0.3946  0.4443
 1721TIP3    H126654   0.927   2.589   4.678  0.7269  0.8512  0.5323
 1721TIP3    H226655   0.821   2.622   4.781 -0.3008 -0.4041 -0.0971
 1722TIP3   OH226656   2.172   6.235   3.209  0.0081  0.0794 -0.0144
 1722TIP3    H126657   2.171   6.330   3.195 -0.9355  0.2592  1.1413
 1722TIP3    H226658   2.090   6.216   3.253  0.0270 -1.3461 -0.5326
 1723TIP3   OH226659   3.936   1.199  14.484  0.0810 -0.2708  0.5823
 1723TIP3    H126660   4.019   1.226  14.523 -0.1979 -0.1101  1.0754
 1723TIP3    H226661   3.870   1.230  14.546 -0.2651 -1.8575  1.0315
 1724TIP3   OH226662   2.396   2.819   5.849  0.4234 -0.1324 -0.0264
 1724TIP3    H126663   2.384   2.755   5.778 -1.8881 -0.8343  0.8858
 1724TIP3    H226664   2.456   2.776   5.910  0.8605 -0.3555 -0.5976
 1725TIP3   OH226665   3.902   4.580  15.841 -0.1130 -0.6597 -0.7216
 1725TIP3    H126666   3.850   4.519  15.893 -0.9991  1.6025  1.2360
 1725TIP3    H226667   3.886   4.554  15.750 -1.8210 -2.2134 -0.0400
 1726TIP3   OH226668   5.927   3.766  11.394 -0.6035 -0.2250 -0.2865
 1726TIP3    H126669   5.986   3.838  11.374 -0.3728 -0.4273 -0.3388
 1726TIP3    H226670   5.985   3.691  11.408 -0.8285 -0.3488 -0.0068
 1727TIP3   OH226671   1.284   0.878  14.425 -0.5056  0.1293  0.4149
 1727TIP3    H126672   1.345   0.864  14.497  0.7520 -0.1803 -0.6530
 1727TIP3    H226673   1.313   0.817  14.357 -1.3311  0.7690 -0.5421
 1728TIP3   OH226674   1.211   6.806  11.600 -0.3608  0.1698 -0.2595
 1728TIP3    H126675   1.238   6.801  11.508 -0.4929  1.1547 -0.3633
 1728TIP3    H226676   1.128   6.758  11.603 -1.7626  2.3606 -1.2470
 1729TIP3   OH226677   4.128   5.558  15.259  0.1442 -0.2251  0.2993
 1729TIP3    H126678   4.110   5.579  15.168 -0.0579 -1.4763  0.0327
 1729TIP3    H226679   4.223   5.553  15.265  0.1395 -0.6557  0.0304
 1730TIP3   OH226680   1.775   0.636  14.629  0.3048  0.8677 -0.4879
 1730TIP3    H126681   1.815   0.722  14.641  2.2778 -0.0660 -0.0086
 1730TIP3    H226682   1.703   0.635  14.692  0.1417  2.1988 -0.6075
 1731TIP3   OH226683   2.612   5.667  13.648  0.2213 -0.5314 -0.1949
 1731TIP3    H126684   2.649   5.579  13.648 -0.7683 -0.9950  1.6493
 1731TIP3    H226685   2.541   5.663  13.584  1.8934 -0.2303 -2.1755
 1732TIP3   OH226686   4.277   1.464   0.452 -0.3390  0.2085 -0.2048
 1732TIP3    H126687   4.210   1.492   0.514  0.4862 -1.0775  1.3561
 1732TIP3    H226688   4.230   1.407   0.391 -1.0050  0.7922 -0.2487
 1733TIP3   OH226689   5.008   4.055  14.420  0.7734  0.1593 -0.0240
 1733TIP3    H126690   5.094   4.053  14.378  0.5148  0.6570 -0.5943
 1733TIP3    H226691   4.953   4.104  14.359  0.4805  1.2422  1.0683
 1734TIP3   OH226692   2.379   2.247  13.780 -0.6104  0.1630  0.3459
 1734TIP3    H126693   2.285   2.246  13.797 -0.9703  2.6306 -1.0134
 1734TIP3    H226694   2.394   2.329  13.734  1.9260 -1.0210 -1.1767
 1735TIP3   OH226695   2.000   4.507  15.773 -0.3721 -0.1054  0.5915
 1735TIP3    H126696   1.965   4.419  15.767  0.5207 -0.4575  0.3781
 1735TIP3    H226697   1.991   4.531  15.866  0.6457 -0.9711  0.9342
 1736TIP3   OH226698   2.475   2.476   5.459 -0.4063  0.2399  0.2391
 1736TIP3    H126699   2.415   2.408   5.428 -0.2160 -0.4386  1.3020
 1736TIP3    H226700   2.443   2.556   5.419 -1.3167 -0.2980 -0.1452
 1737TIP3   OH226701   4.192   5.250  15.392  0.0918 -0.2650 -0.4319
 1737TIP3    H126702   4.110   5.214  15.426  0.0932 -1.4449 -1.5878
 1737TIP3    H226703   4.179   5.253  15.297  1.3121 -0.2653 -0.6111
 1738TIP3   OH226704   4.774   5.987   3.119 -0.2852 -0.2137  0.6734
 1738TIP3    H126705   4.841   5.922   3.141 -1.0536 -0.8901  1.0601
 1738TIP3    H226706   4.707   5.977   3.187 -1.0016  0.1254  0.0324
 1739TIP3   OH226707   2.870   4.856   5.662 -0.0236 -0.6198  0.5947
 1739TIP3    H126708   2.929   4.781   5.654 -1.5044 -1.6269 -1.8110
 1739TIP3    H226709   2.914   4.926   5.613  1.5429  0.3700  3.1525
 1740TIP3   OH226710   2.941   1.640  14.254  0.1930 -0.0102 -0.2895
 1740TIP3    H126711   2.874   1.580  14.222  1.0755 -0.6680 -0.9877
 1740TIP3    H226712   2.898   1.691  14.323 -0.9325 -0.5805 -0.5480
 1741TIP3   OH226713   0.878   3.492   3.712  0.9942 -0.9140 -0.2966
 1741TIP3    H126714   0.900   3.399   3.703  0.6223 -1.0867  0.5383
 1741TIP3    H226715   0.808   3.507   3.648  0.1992 -1.5068  0.4125
 1742TIP3   OH226716   3.907   3.522  11.169  0.4976  0.1495  0.0776
 1742TIP3    H126717   3.892   3.434  11.136 -0.1845 -0.0184  0.8044
 1742TIP3    H226718   3.819   3.557  11.184  0.6224  1.9428 -2.6709
 1743TIP3   OH226719   4.958   1.160  16.728 -0.5433 -0.0304 -0.0607
 1743TIP3    H126720   4.913   1.244  16.722  0.1842  0.4487  0.9487
 1743TIP3    H226721   4.897   1.103  16.774 -0.4197  0.4098  0.6644
 1744TIP3   OH226722   3.064   3.804   3.100 -0.7141  0.3675  0.4218
 1744TIP3    H126723   3.113   3.730   3.135 -2.1352  0.5671  3.0750
 1744TIP3    H226724   3.123   3.879   3.110  0.1429 -0.1009 -0.8434
 1745TIP3   OH226725   1.968   3.259  14.516 -0.5819 -0.8681  0.5322
 1745TIP3    H126726   2.043   3.318  14.508 -1.0888 -0.1116  1.1159
 1745TIP3    H226727   1.958   3.220  14.429  2.1872 -3.1613  1.0827
 1746TIP3   OH226728   5.539   3.710   0.379  0.6314 -0.4471  0.1517
 1746TIP3    H126729   5.586   3.793   0.366  0.0738 -0.3812 -1.6843
 1746TIP3    H226730   5.461   3.735   0.429 -0.1270  0.3842 -1.3733
 1747TIP3   OH226731   2.480   3.621  13.471 -0.2492 -0.4226  0.0873
 1747TIP3    H126732   2.448   3.664  13.391 -0.9473 -1.4638 -0.2178
 1747TIP3    H226733   2.512   3.692  13.525 -0.3284  0.3684 -0.8738
 1748TIP3   OH226734   6.797   6.627   3.411  0.1257 -0.5483 -0.2163
 1748TIP3    H126735   6.875   6.664   3.370 -1.1145 -0.4552 -2.6571
 1748TIP3    H226736   6.819   6.535   3.425  1.1415 -0.2254  0.4460
 1749TIP3   OH226737   3.112   1.613  16.418 -0.3319  0.5087 -0.4195
 1749TIP3    H126738   3.177   1.675  16.385 -0.2213  1.3491  1.2987
 1749TIP3    H226739   3.163   1.550  16.469 -0.6254 -0.1658 -0.9410
 1750TIP3   OH226740   5.113   4.115  16.872  0.0270  0.2484 -0.5257
 1750TIP3    H126741   5.206   4.139  16.870  0.3210 -0.2174  2.2926
 1750TIP3    H226742   5.109   4.030  16.829  1.1623 -0.2623  0.3171
 1751TIP3   OH226743   1.577   3.805  10.620  0.0911  0.0963  0.1414
 1751TIP3    H126744   1.482   3.802  10.609 -0.0408 -1.0698  1.3799
 1751TIP3    H226745   1.591   3.807  10.715  1.3099  0.8407 -0.0178
 1752TIP3   OH226746   5.812   3.440  10.946 -0.2330 -0.8121  0.6965
 1752TIP3    H126747   5.833   3.507  10.880  0.4058 -1.6651  0.0172
 1752TIP3    H226748   5.790   3.491  11.024  1.4809  0.2135  0.5736
 1753TIP3   OH226749   2.311   0.013   0.018 -0.0934  0.3537 -0.4855
 1753TIP3    H126750   2.294  -0.075   0.052 -3.0500  1.1605  0.4067
 1753TIP3    H226751   2.232   0.036  -0.030  0.1634  2.9157  0.1765
 1754TIP3   OH226752   0.542   5.456  14.670  0.0117  0.3347 -0.4123
 1754TIP3    H126753   0.458   5.427  14.705 -0.5955  3.6926  1.2876
 1754TIP3    H226754   0.607   5.411  14.724 -0.7815  0.0428  0.3193
 1755TIP3   OH226755   2.857   2.929   0.108 -0.2363 -0.0179 -0.4580
 1755TIP3    H126756   2.848   2.998   0.042 -1.1703  1.7088  1.3821
 1755TIP3    H226757   2.771   2.925   0.151  0.4524 -0.7954  0.9235
 1756TIP3   OH226758   5.979   1.039  16.989 -0.3590  0.0570 -0.3006
 1756TIP3    H126759   5.907   0.976  16.993 -0.2760  0.0126  0.6657
 1756TIP3    H226760   5.962   1.090  16.910 -0.1972 -1.4518 -1.3510
 1757TIP3   OH226761   3.906   3.336   4.061 -0.0586  0.3517  0.5409
 1757TIP3    H126762   3.970   3.407   4.063 -1.5546  1.8092 -0.2712
 1757TIP3    H226763   3.889   3.316   4.153  1.2194  0.2201  0.7674
 1758TIP3   OH226764   2.084   6.262  12.211  0.2629 -0.2317  0.3473
 1758TIP3    H126765   2.065   6.342  12.260  0.1547 -0.4207  0.6140
 1758TIP3    H226766   2.024   6.197  12.247  1.3440 -0.8284  1.1649
 1759TIP3   OH226767   2.010   2.415   6.218 -0.2189  0.2275 -0.2406
 1759TIP3    H126768   2.013   2.510   6.229  3.2108  0.2421 -0.2906
 1759TIP3    H226769   2.077   2.396   6.152 -1.2141 -2.2113 -0.6690
 1760TIP3   OH226770   6.461   2.861   0.480  0.0407 -0.3753 -0.8518
 1760TIP3    H126771   6.510   2.850   0.561  0.6927  1.5365 -0.9322
 1760TIP3    H226772   6.394   2.792   0.482 -0.3404 -0.0112  1.5707
 1761TIP3   OH226773   4.729   1.409   2.092  0.3434 -0.2057 -0.5078
 1761TIP3    H126774   4.738   1.319   2.122 -0.3928 -0.0527  0.1935
 1761TIP3    H226775   4.818   1.438   2.077  0.5614 -1.2788 -1.4405
 1762TIP3   OH226776   5.811   4.709   4.128  0.9718 -0.1888 -0.0787
 1762TIP3    H126777   5.879   4.656   4.168  0.0887  0.5616  2.5961
 1762TIP3    H226778   5.780   4.656   4.054  2.1375 -2.0455  0.6975
 1763TIP3   OH226779   3.378   5.213  12.219 -0.2129  0.5420 -0.8019
 1763TIP3    H126780   3.312   5.243  12.156 -0.4255  1.4322 -0.1793
 1763TIP3    H226781   3.347   5.246  12.303  0.2269 -0.3702 -0.2702
 1764TIP3   OH226782   5.340   4.735   4.290 -0.4572 -0.3540 -0.6766
 1764TIP3    H126783   5.277   4.700   4.352  1.1120 -2.8411 -0.3649
 1764TIP3    H226784   5.357   4.824   4.320 -2.6377 -0.1494  0.0917
 1765TIP3   OH226785   5.100   4.849   5.285  0.4071 -0.0568  0.2800
 1765TIP3    H126786   5.031   4.846   5.218 -0.3565  0.5681  1.0153
 1765TIP3    H226787   5.141   4.763   5.281  0.5316  0.0510 -1.1533
 1766TIP3   OH226788   1.943   1.899   3.372  0.1038  0.2136  0.2773
 1766TIP3    H126789   1.870   1.931   3.425  0.7316 -1.3686  2.2247
 1766TIP3    H226790   1.960   1.969   3.309 -1.6012  1.5779  1.2521
 1767TIP3   OH226791   2.570   5.434   5.277  0.7868  0.0393  0.1540
 1767TIP3    H126792   2.610   5.498   5.219 -0.2862 -0.1516 -0.8331
 1767TIP3    H226793   2.535   5.367   5.219  2.2087 -1.6688  1.1776
 1768TIP3   OH226794   2.918   0.370  16.423  0.5509  0.2666 -1.0010
 1768TIP3    H126795   2.963   0.432  16.481  2.6408 -0.3297 -1.8725
 1768TIP3    H226796   2.884   0.303  16.482 -0.0184  1.2187 -0.2222
 1769TIP3   OH226797   5.384   2.413   2.882  0.0993 -0.5519  0.0220
 1769TIP3    H126798   5.359   2.441   2.970  0.1282 -1.4679  0.3304
 1769TIP3    H226799   5.402   2.495   2.835 -0.7504 -0.0151  0.6045
 1770TIP3   OH226800   6.513   2.876   0.750 -0.1899 -0.0654 -0.1909
 1770TIP3    H126801   6.514   2.801   0.809  0.5703 -0.4399 -0.6589
 1770TIP3    H226802   6.423   2.908   0.754 -0.6983 -1.3710 -0.4448
 1771TIP3   OH226803   3.563   4.294  11.489 -0.1446 -0.0152 -0.3042
 1771TIP3    H126804   3.560   4.339  11.405  0.2771  1.8108  0.5859
 1771TIP3    H226805   3.564   4.201  11.468  0.6124  0.4121 -2.3183
 1772TIP3   OH226806   1.074   2.758   0.079  0.4508  0.1558  0.2169
 1772TIP3    H126807   1.127   2.802   0.012  1.3565 -1.9030 -0.5093
 1772TIP3    H226808   1.138   2.723   0.141 -0.1470 -1.0044  0.2029
 1773TIP3   OH226809   3.886   4.856  13.777 -0.1833  0.5700  0.2032
 1773TIP3    H126810   3.888   4.867  13.872  0.4023  1.2993  0.1122
 1773TIP3    H226811   3.805   4.807  13.760 -0.4934  0.7862  1.0371
 1774TIP3   OH226812   6.388   1.201  13.383  0.3650 -0.1823  0.4986
 1774TIP3    H126813   6.483   1.197  13.396  0.2605  0.2015  1.4475
 1774TIP3    H226814   6.364   1.289  13.411 -0.1209  0.1513 -0.8547
 1775TIP3   OH226815   1.729   1.616  12.233  0.1476 -0.3023  0.0313
 1775TIP3    H126816   1.721   1.548  12.300 -1.3101 -0.3141 -0.1218
 1775TIP3    H226817   1.811   1.596  12.188 -0.0787 -1.7504  0.2133
 1776TIP3   OH226818   1.635   6.272   5.447  0.1024  0.1078 -0.4277
 1776TIP3    H126819   1.673   6.257   5.534 -0.9970 -2.0472 -0.2457
 1776TIP3    H226820   1.541   6.257   5.460 -0.2546  1.0594 -1.7380
 1777TIP3   OH226821   0.895   5.114  15.017  0.2005  0.4198 -0.3641
 1777TIP3    H126822   0.879   5.134  14.925  0.0992  0.7496 -0.2758
 1777TIP3    H226823   0.964   5.048  15.016 -0.0724  0.1339 -0.6921
 1778TIP3   OH226824   2.693   3.069   5.782  0.3460 -1.0455 -0.0200
 1778TIP3    H126825   2.787   3.051   5.782  0.6234  0.2788  0.8530
 1778TIP3    H226826   2.681   3.129   5.708  0.0576 -1.7684 -0.5694
 1779TIP3   OH226827   5.843   5.957  14.095 -0.0779 -0.1397  0.3047
 1779TIP3    H126828   5.910   5.888  14.093  0.3425  0.2186  1.3689
 1779TIP3    H226829   5.878   6.021  14.156 -1.4088  0.0582  0.8725
 1780TIP3   OH226830   5.487   2.396   1.205 -0.3811 -0.5196 -0.1926
 1780TIP3    H126831   5.577   2.427   1.219 -0.9233  0.2571  1.9044
 1780TIP3    H226832   5.471   2.412   1.112  0.9593  1.2873 -0.1743
 1781TIP3   OH226833   1.827   6.853   3.033 -0.1854 -0.4411  0.6060
 1781TIP3    H126834   1.771   6.929   3.047  0.9499  0.3089  1.2174
 1781TIP3    H226835   1.786   6.783   3.083 -0.6391  0.0662  0.9500
 1782TIP3   OH226836   4.997   5.639   2.582  0.5590  0.7684  0.0096
 1782TIP3    H126837   4.988   5.681   2.668 -0.8684 -0.6206  0.5756
 1782TIP3    H226838   5.087   5.607   2.581  0.4378  0.3456  1.2141
 1783TIP3   OH226839   1.605   5.421   2.723 -0.1424  0.8148  0.0353
 1783TIP3    H126840   1.636   5.511   2.738 -2.0466  1.2135  2.1151
 1783TIP3    H226841   1.532   5.431   2.662  1.3300  0.3066 -1.8929
 1784TIP3   OH226842   1.626   5.731  12.554 -0.3159 -0.0918 -0.0016
 1784TIP3    H126843   1.587   5.669  12.616 -0.7946  1.1570  1.0021
 1784TIP3    H226844   1.569   5.728  12.478  0.0643 -1.3756 -0.2668
 1785TIP3   OH226845   3.358   2.586  13.229 -0.0945 -0.4550 -1.0715
 1785TIP3    H126846   3.275   2.576  13.182 -0.9385 -1.7269  0.5917
 1785TIP3    H226847   3.416   2.523  13.187  0.3203  0.9192 -2.7050
 1786TIP3   OH226848   1.917   4.110   5.804 -0.1218 -0.6019 -0.6975
 1786TIP3    H126849   1.964   4.192   5.817  1.0164 -1.3374 -0.0632
 1786TIP3    H226850   1.911   4.071   5.891 -3.1294  0.0730 -0.4834
 1787TIP3   OH226851   4.408   1.759   1.011 -0.2568 -0.0031 -0.1432
 1787TIP3    H126852   4.361   1.790   1.088 -0.8718  0.0693 -0.5360
 1787TIP3    H226853   4.372   1.673   0.993  1.5212 -1.0410  0.9984
 1788TIP3   OH226854   4.368   4.749  15.711  0.0577 -0.0883 -0.4067
 1788TIP3    H126855   4.337   4.785  15.794 -1.0839  0.7183 -1.1544
 1788TIP3    H226856   4.298   4.691  15.682  1.5098 -2.3767  0.3593
 1789TIP3   OH226857   3.749   1.659  16.993 -0.8649  0.0062  0.1822
 1789TIP3    H126858   3.776   1.602  16.920  0.4963 -0.9740  1.4100
 1789TIP3    H226859   3.758   1.748  16.958  0.3925 -0.4187 -0.6399
 1790TIP3   OH226860   6.090   2.910  15.711 -0.0925 -0.7850  0.1308
 1790TIP3    H126861   6.018   2.969  15.691  1.4322  0.9237 -0.5269
 1790TIP3    H226862   6.080   2.838  15.648 -0.2865  0.2479 -1.0512
 1791TIP3   OH226863   0.225   1.622   0.733 -0.4523 -0.5126 -0.3634
 1791TIP3    H126864   0.220   1.711   0.770 -1.6897 -0.4468 -0.6516
 1791TIP3    H226865   0.139   1.584   0.751  0.2678 -1.8943  0.3166
 1792TIP3   OH226866   6.037   0.881   1.486  0.1065  0.4864 -0.4193
 1792TIP3    H126867   6.019   0.810   1.549  1.7845  1.7429  1.6258
 1792TIP3    H226868   6.082   0.838   1.414  0.2664 -0.6755  0.3458
 1793TIP3   OH226869   3.095   5.708  16.830  0.1825  0.3262 -0.0155
 1793TIP3    H126870   3.086   5.731  16.738  1.2886 -0.8424 -0.4400
 1793TIP3    H226871   3.124   5.617  16.829 -2.3281 -0.6066  1.5253
 1794TIP3   OH226872   6.615   0.268   4.087 -0.3380 -0.3630  0.1879
 1794TIP3    H126873   6.637   0.184   4.126 -0.6584 -0.2134  0.7030
 1794TIP3    H226874   6.699   0.313   4.077 -0.1053 -0.9481 -0.5860
 1795TIP3   OH226875   5.335   3.981  12.859 -0.3002 -0.0821 -0.1678
 1795TIP3    H126876   5.269   4.036  12.815 -0.3063 -0.9586 -1.3026
 1795TIP3    H226877   5.416   3.999  12.813  0.2230  0.7473  1.0209
 1796TIP3   OH226878   1.253   1.922  15.267 -0.0301 -0.6745  0.1293
 1796TIP3    H126879   1.298   1.988  15.214  0.4834  0.9523  2.4131
 1796TIP3    H226880   1.167   1.960  15.285 -0.8911 -2.0160 -0.9701
 1797TIP3   OH226881   3.319   2.170  16.459  0.1424 -0.2442  0.2536
 1797TIP3    H126882   3.405   2.195  16.426  0.6187 -0.8025  1.0418
 1797TIP3    H226883   3.257   2.204  16.394  0.6569  3.4869  1.4756
 1798TIP3   OH226884   4.879   1.868  12.870  0.6174  0.2666 -0.5592
 1798TIP3    H126885   4.911   1.780  12.891  1.0156  0.7927  1.1486
 1798TIP3    H226886   4.940   1.927  12.914 -1.2918  1.3469  0.7453
 1799TIP3   OH226887   0.945   4.519   3.408 -0.3977 -0.1702 -0.1526
 1799TIP3    H126888   0.943   4.473   3.492 -1.0282  0.9277  0.4614
 1799TIP3    H226889   0.877   4.586   3.417 -0.3327  0.0830 -1.4739
 1800TIP3   OH226890   3.198   1.484  15.136  0.2821  0.0206 -0.3709
 1800TIP3    H126891   3.132   1.545  15.105 -1.7483 -1.5951  0.4996
 1800TIP3    H226892   3.211   1.508  15.228 -1.2853 -1.3698  0.2724
 1801TIP3   OH226893   5.442   1.976   2.313 -0.0089  0.1877 -0.6224
 1801TIP3    H126894   5.530   2.012   2.326 -0.9569  2.4934 -0.2573
 1801TIP3    H226895   5.412   2.015   2.231 -2.2955  2.9912  1.3524
 1802TIP3   OH226896   6.111   6.170  11.800 -0.0601 -0.7238 -0.4635
 1802TIP3    H126897   6.079   6.080  11.811 -2.0474 -0.0127 -0.0399
 1802TIP3    H226898   6.078   6.217  11.877 -0.7021  0.7836 -1.6081
 1803TIP3   OH226899   0.249   0.851   1.664  0.2379  0.0449  0.2544
 1803TIP3    H126900   0.289   0.860   1.577  0.3107 -0.2264  0.2598
 1803TIP3    H226901   0.157   0.872   1.650 -0.0024 -1.1763 -0.1323
 1804TIP3   OH226902   0.473   5.583  15.771  0.1173  0.0351  0.2719
 1804TIP3    H126903   0.440   5.493  15.776 -1.3982  0.6297  2.0187
 1804TIP3    H226904   0.436   5.618  15.690  0.1122 -0.6757 -0.0387
 1805TIP3   OH226905   4.769   3.556  11.222 -1.0178 -0.1569 -0.2685
 1805TIP3    H126906   4.789   3.645  11.250 -0.5519 -0.1258 -0.6868
 1805TIP3    H226907   4.823   3.542  11.145  1.1082 -1.7761  1.3807
 1806TIP3   OH226908   5.544   2.339  14.121 -0.3667  0.0807  0.1946
 1806TIP3    H126909   5.507   2.420  14.158 -0.0657 -0.0350  0.7552
 1806TIP3    H226910   5.493   2.324  14.041 -1.1785  0.2127  0.6744
 1807TIP3   OH226911   4.074   2.985   0.978 -0.2546 -0.2732  0.0866
 1807TIP3    H126912   4.102   3.063   0.929  0.4892 -1.3685 -1.3053
 1807TIP3    H226913   4.062   2.918   0.911  0.6092 -1.7768  1.3731
 1808TIP3   OH226914   1.744   6.645  14.510 -0.3458  0.1494 -0.3074
 1808TIP3    H126915   1.729   6.560  14.551  0.9121 -1.0370 -2.1179
 1808TIP3    H226916   1.736   6.709  14.581  1.2445 -1.7035  1.6727
 1809TIP3   OH226917   4.885   3.618  12.015  0.2983  0.3468 -0.5337
 1809TIP3    H126918   4.878   3.713  12.014 -0.9998  0.2728 -0.8258
 1809TIP3    H226919   4.893   3.593  11.923 -1.0124  0.1103 -0.6138
 1810TIP3   OH226920   5.118   1.089  13.649 -0.7678  0.4561 -0.5175
 1810TIP3    H126921   5.063   1.092  13.570  0.7273 -1.9588 -1.7657
 1810TIP3    H226922   5.092   1.166  13.699 -1.2644  2.5665 -3.7351
 1811TIP3   OH226923   6.116   6.784  16.503  0.6141  0.6108 -0.8572
 1811TIP3    H126924   6.087   6.704  16.459 -2.2027 -0.1313  1.9368
 1811TIP3    H226925   6.080   6.855  16.450 -0.4693 -0.1529 -1.1934
 1812TIP3   OH226926   4.627   5.415  10.894 -0.0799 -0.5472  0.0225
 1812TIP3    H126927   4.607   5.507  10.910 -3.3272 -0.8771 -1.2214
 1812TIP3    H226928   4.644   5.410  10.800 -0.7915 -1.2857 -0.0836
 1813TIP3   OH226929   0.042   3.837  14.091 -0.6107  0.3060  0.5040
 1813TIP3    H126930   0.066   3.799  14.175  0.4620  2.1357  1.0914
 1813TIP3    H226931  -0.013   3.912  14.114 -2.5658 -0.7092 -0.5999
 1814TIP3   OH226932   1.266   2.783  13.125 -0.0751  0.3547 -0.3017
 1814TIP3    H126933   1.272   2.745  13.038 -2.0379  0.0565 -0.3418
 1814TIP3    H226934   1.295   2.714  13.184 -1.6788 -0.5276 -0.5167
 1815TIP3   OH226935   1.557   6.073  15.193 -0.3445 -0.3079 -0.1124
 1815TIP3    H126936   1.546   6.028  15.277 -1.0042  1.0433  0.5478
 1815TIP3    H226937   1.544   6.165  15.213  1.7957  0.3080 -1.2909
 1816TIP3   OH226938   0.564   1.612  15.348  0.3149 -0.3181 -0.3665
 1816TIP3    H126939   0.525   1.565  15.422  1.1819 -0.0084  0.3007
 1816TIP3    H226940   0.521   1.575  15.271  0.0919 -1.3357  0.2300
 1817TIP3   OH226941   6.534   5.330  14.944  0.2910 -0.7652  0.2874
 1817TIP3    H126942   6.594   5.263  14.977  0.6296 -0.7628 -0.3172
 1817TIP3    H226943   6.458   5.282  14.912  1.0277 -0.9734 -1.2332
 1818TIP3   OH226944   0.938   1.722   4.963  0.3207  0.1417  0.1602
 1818TIP3    H126945   0.870   1.678   4.911  2.5581 -1.3481 -1.6594
 1818TIP3    H226946   1.013   1.728   4.905  2.7108 -0.7983  2.9479
 1819TIP3   OH226947   1.353   1.212   2.885  0.3756 -0.0712  0.0516
 1819TIP3    H126948   1.412   1.192   2.958 -0.1497 -1.9304  0.0305
 1819TIP3    H226949   1.405   1.194   2.807  0.2682 -0.2321  0.0154
 1820TIP3   OH226950   5.777   2.115  13.544  1.1108  0.4654 -0.2527
 1820TIP3    H126951   5.695   2.086  13.583  0.7715  0.7368 -0.7391
 1820TIP3    H226952   5.802   2.044  13.485 -0.5911  1.7372 -2.7193
 1821TIP3   OH226953   6.625   0.215  15.220 -0.2417  0.6938  0.1271
 1821TIP3    H126954   6.535   0.246  15.209 -0.0707  1.0418 -0.3549
 1821TIP3    H226955   6.658   0.205  15.130 -1.9435 -6.1592 -0.2718
 1822TIP3   OH226956   6.804   1.440  12.017  0.2382 -0.0689 -0.4852
 1822TIP3    H126957   6.777   1.428  12.108  1.2505  0.9030 -0.0381
 1822TIP3    H226958   6.769   1.363  11.971  0.1963 -0.8604  0.8227
 1823TIP3   OH226959   1.071   5.625  14.171  0.1154  0.1624  0.3121
 1823TIP3    H126960   1.040   5.585  14.252  1.6260 -0.0745  0.7909
 1823TIP3    H226961   1.060   5.719  14.185  2.5748  0.3154  1.8107
 1824TIP3   OH226962   3.145   2.992   2.973  0.0193  0.3971  0.2051
 1824TIP3    H126963   3.108   2.904   2.977  0.0923  0.3009 -0.9062
 1824TIP3    H226964   3.209   2.988   2.902  0.2780  1.2523  0.3755
 1825TIP3   OH226965   1.553   0.857  13.975  0.0777  0.3917 -0.1807
 1825TIP3    H126966   1.600   0.871  14.058  0.3075 -0.0212 -0.2438
 1825TIP3    H226967   1.468   0.899  13.989 -0.1790 -0.3529  0.5450
 1826TIP3   OH226968   1.131   1.286   3.680 -0.0913  0.1174 -0.2431
 1826TIP3    H126969   1.215   1.260   3.717  1.7826  2.2078 -2.6939
 1826TIP3    H226970   1.126   1.381   3.697 -1.1626  0.3274 -1.5674
 1827TIP3   OH226971   0.139   2.231   1.146  0.0321 -0.5090  0.7637
 1827TIP3    H126972   0.204   2.296   1.176  0.1255  0.5175 -1.4722
 1827TIP3    H226973   0.190   2.152   1.130  0.2062 -0.6390  1.8808
 1828TIP3   OH226974   4.864   2.674  11.428 -0.0029 -0.0497 -0.3324
 1828TIP3    H126975   4.778   2.680  11.471  0.9631  1.9600  1.4802
 1828TIP3    H226976   4.902   2.593  11.463  0.1457  0.7687  1.4898
 1829TIP3   OH226977   5.763   4.818   0.453 -0.3287  0.2263  0.1250
 1829TIP3    H126978   5.832   4.824   0.386  0.0335 -0.1400  0.4621
 1829TIP3    H226979   5.732   4.908   0.463  0.2758  0.4384  0.1442
 1830TIP3   OH226980   5.255   4.874  16.979  0.4049  0.4207 -0.0582
 1830TIP3    H126981   5.192   4.907  17.042  2.0542 -0.8354  2.4217
 1830TIP3    H226982   5.239   4.779  16.977  1.9142  0.1231  0.3671
 1831TIP3   OH226983   4.180   3.134   5.266 -0.2308 -0.3249 -0.0477
 1831TIP3    H126984   4.108   3.144   5.204 -0.1767  0.0913 -0.0453
 1831TIP3    H226985   4.175   3.042   5.294 -0.7109 -0.3188 -0.1062
 1832TIP3   OH226986   0.198   6.411   3.209 -0.9420  0.0602  0.3141
 1832TIP3    H126987   0.236   6.331   3.172  0.0021 -0.7412  2.7999
 1832TIP3    H226988   0.269   6.475   3.207 -1.1043  0.2335  0.0865
 1833TIP3   OH226989   2.666   2.220   3.055  0.0642 -0.2893  0.1720
 1833TIP3    H126990   2.758   2.246   3.056  0.3645 -1.2640 -0.4355
 1833TIP3    H226991   2.650   2.188   3.144  0.2055  0.2234  0.3868
 1834TIP3   OH226992   2.749   5.742  11.716  0.5215  0.1400 -0.2056
 1834TIP3    H126993   2.669   5.746  11.767  1.2765 -1.6139  1.2240
 1834TIP3    H226994   2.782   5.832  11.715 -0.6719  0.6027  0.4715
 1835TIP3   OH226995   3.433   1.547  12.087 -0.0456 -0.5763  0.3040
 1835TIP3    H126996   3.383   1.498  12.022 -1.4696  0.5197  0.5134
 1835TIP3    H226997   3.451   1.631  12.044  0.7404 -0.5724  0.6192
 1836TIP3   OH226998   3.387   6.345  10.753  0.5520  0.3534  0.1844
 1836TIP3    H126999   3.468   6.328  10.705  0.3103  0.7258 -0.3694
 1836TIP3    H227000   3.399   6.302  10.838  1.3323  0.4234  0.1119
 1837TIP3   OH227001   0.210   5.099  15.324 -0.0157  0.0307  0.8792
 1837TIP3    H127002   0.183   5.158  15.395 -0.4422 -0.3103  1.0094
 1837TIP3    H227003   0.169   5.015  15.346 -0.6589  0.0721 -0.0889
 1838TIP3   OH227004   5.958   5.942  11.136  0.3246  0.4127  0.2545
 1838TIP3    H127005   5.901   5.908  11.205  0.3394 -0.6969 -0.2518
 1838TIP3    H227006   5.899   5.983  11.073 -0.2286 -2.3249 -1.2061
 1839TIP3   OH227007   2.401   3.272   3.561 -0.2697  0.0762 -0.1408
 1839TIP3    H127008   2.492   3.302   3.569 -0.8602  2.7785 -2.1570
 1839TIP3    H227009   2.408   3.193   3.506  0.8043  1.0649 -1.5101
 1840TIP3   OH227010   4.418   6.397  12.462 -0.1722 -0.2471  0.1522
 1840TIP3    H127011   4.474   6.338  12.411  0.2310 -1.8841  2.3208
 1840TIP3    H227012   4.480   6.450  12.513 -0.5711  0.9635 -0.5849
 1841TIP3   OH227013   1.789   5.476   3.857 -0.5300  0.0669  0.2719
 1841TIP3    H127014   1.825   5.425   3.784 -1.1083 -1.7205  1.1913
 1841TIP3    H227015   1.695   5.463   3.852 -0.4927 -1.8644  2.4988
 1842TIP3   OH227016   1.039   5.886  11.715 -0.6094 -0.3198 -0.4263
 1842TIP3    H127017   1.051   5.839  11.633  2.2493  1.3198 -1.0967
 1842TIP3    H227018   1.096   5.839  11.777  0.6909  0.9522 -0.5946
 1843TIP3   OH227019   0.214   2.832  13.995 -0.2925  0.1996 -0.7137
 1843TIP3    H127020   0.308   2.834  13.976 -0.2741  0.9596 -0.5562
 1843TIP3    H227021   0.181   2.756  13.946  0.7039 -1.1886  0.6677
 1844TIP3   OH227022   3.225   2.812  13.886 -0.4852 -0.3363 -0.4103
 1844TIP3    H127023   3.192   2.791  13.799  0.4939  0.4299 -0.9926
 1844TIP3    H227024   3.148   2.840  13.935 -1.3529 -2.4340 -0.4584
 1845TIP3   OH227025   0.220   0.510   0.698 -0.9098  0.2267 -0.3764
 1845TIP3    H127026   0.232   0.593   0.743 -1.1921  0.3583 -0.5385
 1845TIP3    H227027   0.141   0.523   0.645 -1.0624 -0.2054 -0.2596
 1846TIP3   OH227028   1.091   0.763  14.648  0.2348 -0.3663  0.8528
 1846TIP3    H127029   1.047   0.720  14.721  0.5754 -1.0047  0.6907
 1846TIP3    H227030   1.089   0.699  14.577  0.5029 -0.0085  0.5168
 1847TIP3   OH227031   6.134   3.932   3.574  0.3007 -0.3199  0.3203
 1847TIP3    H127032   6.167   3.882   3.500  1.0055  1.2427 -0.4540
 1847TIP3    H227033   6.063   3.985   3.538 -0.9245 -1.2377  1.2860
 1848TIP3   OH227034   4.741   3.097   5.614 -0.4602 -0.4526  0.3688
 1848TIP3    H127035   4.802   3.168   5.598 -0.2346 -1.0144 -1.4292
 1848TIP3    H227036   4.729   3.055   5.529 -1.7890 -1.6073  1.0773
 1849TIP3   OH227037   0.859   0.415  12.203  0.0382 -0.1641 -0.0142
 1849TIP3    H127038   0.836   0.444  12.291 -0.4583 -0.2948 -0.1000
 1849TIP3    H227039   0.899   0.329  12.216  0.1186 -0.1110  0.0966
 1850TIP3   OH227040   4.260   4.361  11.837 -0.2117  0.5823  0.2688
 1850TIP3    H127041   4.225   4.297  11.775  0.8118  0.3310 -0.0726
 1850TIP3    H227042   4.347   4.383  11.802 -0.0343  1.2042  1.0688
 1851TIP3   OH227043   4.064   4.814  14.333 -0.3010 -0.5187  0.2547
 1851TIP3    H127044   4.015   4.850  14.259  0.7982  1.9185  0.5809
 1851TIP3    H227045   4.048   4.876  14.404  3.0303  0.4326  0.3919
 1852TIP3   OH227046   6.586   1.643   0.642 -0.9663  0.2308  0.6960
 1852TIP3    H127047   6.564   1.561   0.686 -1.7298  0.5512  0.9228
 1852TIP3    H227048   6.537   1.710   0.690  0.6493  1.0008  1.3402
 1853TIP3   OH227049   4.321   4.236  12.403 -0.1860  0.1753 -0.2922
 1853TIP3    H127050   4.363   4.271  12.324  0.3038  0.7631  0.2196
 1853TIP3    H227051   4.250   4.182  12.370  0.9100 -0.7762 -1.1885
 1854TIP3   OH227052   0.977   0.275   5.734 -0.0322 -0.4744  0.1700
 1854TIP3    H127053   0.908   0.277   5.667 -1.0046 -0.0008  1.1488
 1854TIP3    H227054   0.932   0.247   5.814  0.9675 -0.3962  0.7772
 1855TIP3   OH227055   1.214   5.278   1.823 -0.3996  0.1809 -0.5878
 1855TIP3    H127056   1.150   5.349   1.827 -0.6547 -0.0949  0.9555
 1855TIP3    H227057   1.278   5.299   1.891 -0.4571 -1.0067 -0.1323
 1856TIP3   OH227058   0.904   1.859  16.053 -0.1595  0.4588  0.0550
 1856TIP3    H127059   0.840   1.856  16.124  0.1239 -0.8775  0.2699
 1856TIP3    H227060   0.953   1.778  16.061  1.6795  1.5085 -0.0235
 1857TIP3   OH227061   0.553   1.163  13.859 -0.5777  0.3397 -0.2623
 1857TIP3    H127062   0.611   1.234  13.831  0.8494 -1.1521 -1.2385
 1857TIP3    H227063   0.470   1.182  13.816  0.3699  0.3672 -2.1862
 1858TIP3   OH227064   4.477   2.291   2.793  0.2319 -0.8223 -0.2979
 1858TIP3    H127065   4.471   2.384   2.770  0.5697 -0.9228 -0.8023
 1858TIP3    H227066   4.524   2.251   2.720  1.9793 -1.0264  0.8719
 1859TIP3   OH227067   0.486   1.304   5.318  0.3280  0.0939  0.6300
 1859TIP3    H127068   0.402   1.334   5.282  0.2286 -0.3931  0.4514
 1859TIP3    H227069   0.528   1.256   5.246 -0.2577 -1.6405  1.3867
 1860TIP3   OH227070   1.047   4.674  14.860  0.1685  0.1579 -0.0915
 1860TIP3    H127071   1.007   4.624  14.788 -0.9178  0.5017  0.2585
 1860TIP3    H227072   1.141   4.669  14.843 -0.0313 -0.4161 -1.1073
 1861TIP3   OH227073   2.027   3.190   2.975  0.0844 -0.5204  0.0724
 1861TIP3    H127074   2.117   3.223   2.979  0.2401 -1.0347  1.8284
 1861TIP3    H227075   2.034   3.105   2.931 -0.1653  1.1243 -3.4583
 1862TIP3   OH227076   5.818   3.836  14.126  0.0663 -0.4377 -0.3456
 1862TIP3    H127077   5.841   3.872  14.040 -1.6883 -0.4685 -0.8754
 1862TIP3    H227078   5.897   3.847  14.178  1.1648 -0.3768 -1.9462
 1863TIP3   OH227079   2.034   4.383   3.138 -0.2330  0.1579  0.1650
 1863TIP3    H127080   2.037   4.288   3.150  0.3351  0.2402  0.7857
 1863TIP3    H227081   1.981   4.397   3.060  1.2931 -0.7721 -1.1065
 1864TIP3   OH227082   0.836   0.986  11.749 -0.4610 -0.2190 -0.2523
 1864TIP3    H127083   0.768   0.954  11.690 -1.1123 -1.5743  1.1664
 1864TIP3    H227084   0.905   0.920  11.745  0.4241  0.7167 -1.0213
 1865TIP3   OH227085   4.187   2.875   6.104 -0.5022 -0.3275 -0.0969
 1865TIP3    H127086   4.226   2.905   6.186 -1.0598 -0.1891  0.1209
 1865TIP3    H227087   4.253   2.815   6.067  0.3978  0.7516 -0.2901
 1866TIP3   OH227088   1.687   3.890  14.999 -0.0174  0.4925  0.4812
 1866TIP3    H127089   1.687   3.973  15.046  0.1189 -0.5617  2.4176
 1866TIP3    H227090   1.715   3.826  15.063 -0.7326 -1.1693 -0.8003
 1867TIP3   OH227091   0.824   2.849  12.275  0.8791 -0.5320  0.3877
 1867TIP3    H127092   0.742   2.855  12.226  1.9041 -0.3422 -1.3561
 1867TIP3    H227093   0.838   2.938  12.308  0.9308 -0.3030 -0.2390
 1868TIP3   OH227094   3.923   1.659  11.613  0.3847 -0.2285 -0.8892
 1868TIP3    H127095   3.950   1.684  11.525  1.1197  0.8121 -0.3861
 1868TIP3    H227096   3.916   1.564  11.610  0.3447 -0.1995 -2.0819
 1869TIP3   OH227097   1.187   4.857  14.146  0.1759 -1.4679 -0.0391
 1869TIP3    H127098   1.200   4.915  14.071  1.5656 -0.7761  0.6888
 1869TIP3    H227099   1.196   4.914  14.222  0.2211 -2.4027  0.6762
 1870TIP3   OH227100   2.513   2.077  12.893  0.3391 -0.4482 -0.2033
 1870TIP3    H127101   2.564   2.029  12.828  0.8302 -0.3718  0.1199
 1870TIP3    H227102   2.463   2.141  12.841  1.6648  0.4658 -0.4272
 1871TIP3   OH227103   2.163   5.596   1.112 -0.2497  0.3217  0.7680
 1871TIP3    H127104   2.213   5.677   1.102 -1.0969  0.6088 -1.8743
 1871TIP3    H227105   2.136   5.573   1.023 -0.8522 -2.3744  1.5385
 1872TIP3   OH227106   1.241   5.364   0.654 -0.3317 -0.2020  0.3669
 1872TIP3    H127107   1.226   5.322   0.739  1.3393 -1.6700 -0.0097
 1872TIP3    H227108   1.335   5.357   0.641 -0.6864 -1.1143 -2.1412
 1873TIP3   OH227109   4.178   2.757   2.748 -0.1172  0.4149  0.4555
 1873TIP3    H127110   4.102   2.746   2.806  0.7211  1.0671  1.7318
 1873TIP3    H227111   4.225   2.674   2.754 -1.2304 -0.3908 -1.1673
 1874TIP3   OH227112   1.864   4.750   4.658 -0.6524  0.5178  0.1715
 1874TIP3    H127113   1.857   4.774   4.566 -0.0702  0.0161 -0.0153
 1874TIP3    H227114   1.786   4.699   4.676 -1.2080  1.3618  0.2007
 1875TIP3   OH227115   6.596   6.217   3.951 -0.3899  0.3002 -0.3305
 1875TIP3    H127116   6.571   6.138   3.999  1.7845 -1.0680 -1.2707
 1875TIP3    H227117   6.655   6.263   4.011 -1.7797  1.3552  0.2791
 1876TIP3   OH227118   5.449   4.698  10.297 -0.0368  0.2748  0.0981
 1876TIP3    H127119   5.461   4.732  10.385 -0.5430  0.4927  0.0918
 1876TIP3    H227120   5.354   4.701  10.283  0.1708  2.4481 -1.2989
 1877TIP3   OH227121   1.076   6.424   6.076  0.0076  0.5195 -0.1985
 1877TIP3    H127122   1.070   6.504   6.128  0.4898  0.0357  0.6179
 1877TIP3    H227123   1.163   6.389   6.094 -1.0850 -1.5150  1.4767
 1878TIP3   OH227124   2.635   2.380  10.881 -0.2027  0.7003  0.7324
 1878TIP3    H127125   2.550   2.342  10.861  0.1737 -0.0726  0.5156
 1878TIP3    H227126   2.641   2.458  10.826 -0.6409  0.5801  0.5118
 1879TIP3   OH227127   1.187   4.259  12.328 -0.3029 -0.3497  0.0987
 1879TIP3    H127128   1.142   4.182  12.292 -2.0082  0.8046 -0.3490
 1879TIP3    H227129   1.236   4.225  12.404  0.0664 -2.0876 -0.8602
 1880TIP3   OH227130   5.264   1.027   0.789 -0.4252 -0.7166  0.3307
 1880TIP3    H127131   5.187   0.994   0.743  0.0556 -0.2270 -0.8699
 1880TIP3    H227132   5.327   0.955   0.786  0.6617  0.2262 -2.3798
 1881TIP3   OH227133   3.928   0.305   3.185 -0.1716 -0.0150 -0.0063
 1881TIP3    H127134   4.017   0.278   3.163  0.0098 -1.2358  2.0020
 1881TIP3    H227135   3.928   0.400   3.172  1.6977  0.1382  0.8008
 1882TIP3   OH227136   1.718   5.556  15.065 -0.3405 -0.1654  0.3275
 1882TIP3    H127137   1.634   5.590  15.097 -1.0326 -1.2731 -0.2271
 1882TIP3    H227138   1.732   5.602  14.982 -2.3458 -2.5833 -1.5209
 1883TIP3   OH227139   3.060   0.635  11.741  0.3046 -0.4409  0.1689
 1883TIP3    H127140   3.011   0.669  11.667  1.5876  2.7509  0.6023
 1883TIP3    H227141   3.151   0.634  11.712  0.6731 -0.4243  1.2489
 1884TIP3   OH227142   2.852   0.623  16.222 -0.5568  0.6220  0.4431
 1884TIP3    H127143   2.775   0.588  16.267 -0.8446  0.6962  0.0150
 1884TIP3    H227144   2.826   0.628  16.130  0.1896  0.0257  0.1884
 1885TIP3   OH227145   6.057   4.452   0.648  0.2269 -0.3771  0.1675
 1885TIP3    H127146   6.068   4.547   0.654  0.9576 -0.4120 -0.4998
 1885TIP3    H227147   6.123   4.424   0.584 -1.9674 -0.9311 -2.0178
 1886TIP3   OH227148   0.388   6.208   1.254  0.6040 -0.3547 -0.4461
 1886TIP3    H127149   0.396   6.224   1.348  1.0431  0.4014 -0.5964
 1886TIP3    H227150   0.360   6.292   1.218  1.7687 -0.2343 -1.1437
 1887TIP3   OH227151   4.403   2.788   1.981 -0.6509 -0.0744 -0.1530
 1887TIP3    H127152   4.448   2.708   1.956 -1.5855 -0.3897 -0.9401
 1887TIP3    H227153   4.385   2.778   2.074  1.9240  0.6062  0.4868
 1888TIP3   OH227154   1.260   3.587   3.627  0.1535  0.4468 -0.6478
 1888TIP3    H127155   1.345   3.576   3.669  0.5774 -1.1194 -1.8109
 1888TIP3    H227156   1.204   3.625   3.695  1.3525  0.0021  0.6293
 1889TIP3   OH227157   1.293   1.545   6.095  0.1512  0.0740 -0.2539
 1889TIP3    H127158   1.312   1.635   6.068 -0.0578  0.6750  1.4444
 1889TIP3    H227159   1.229   1.555   6.165  0.6686 -1.3617  0.4606
 1890TIP3   OH227160   4.278   2.937   4.674  0.0657  0.0159  0.2657
 1890TIP3    H127161   4.336   2.888   4.733 -0.0951  0.5854  0.9121
 1890TIP3    H227162   4.293   2.898   4.588 -0.0770 -1.1856  0.7610
 1891TIP3   OH227163   6.771   1.673   4.935  0.2579  0.6182 -0.8444
 1891TIP3    H127164   6.722   1.616   4.876 -1.6687  1.7613 -0.4564
 1891TIP3    H227165   6.718   1.752   4.941 -0.0220  0.3303  2.9111
 1892TIP3   OH227166   5.001   3.753  16.917 -0.1146 -0.4643 -0.1203
 1892TIP3    H127167   4.991   3.826  16.978 -0.8806 -1.3948  0.8828
 1892TIP3    H227168   4.914   3.714  16.911  0.1010 -0.8078 -1.2963
 1893TIP3   OH227169   0.246   4.520   6.323 -0.3116  0.3611 -0.1049
 1893TIP3    H127170   0.256   4.436   6.367 -0.5398 -1.2765 -2.9548
 1893TIP3    H227171   0.330   4.564   6.336 -0.2885 -0.1265  1.6657
 1894TIP3   OH227172   2.223   3.707  11.801 -0.1957 -0.0308  0.1808
 1894TIP3    H127173   2.154   3.688  11.738 -2.1743 -0.7150  2.4302
 1894TIP3    H227174   2.289   3.639  11.785 -1.1414 -0.8333 -0.4345
 1895TIP3   OH227175   6.131   0.635  15.751  0.3068  0.0179  0.3059
 1895TIP3    H127176   6.160   0.602  15.665  0.0793 -0.6985  0.4940
 1895TIP3    H227177   6.205   0.617  15.809  0.3363  0.2025  0.3229
 1896TIP3   OH227178   3.998   1.895  16.287  0.3358  0.3041 -0.1382
 1896TIP3    H127179   3.992   1.927  16.377  0.0070  0.2511 -0.1388
 1896TIP3    H227180   3.964   1.966  16.233 -2.3097 -0.7328  0.0054
 1897TIP3   OH227181   6.192   1.074  14.142  0.6024 -0.5025  0.1531
 1897TIP3    H127182   6.196   1.149  14.083  1.1440 -1.7373 -1.4610
 1897TIP3    H227183   6.284   1.057  14.166  0.5462 -0.9853  0.0466
 1898TIP3   OH227184   1.218   2.971  15.194  0.6909  0.0900  0.5265
 1898TIP3    H127185   1.199   3.005  15.107  0.5186  1.5689  1.1049
 1898TIP3    H227186   1.151   2.905  15.210  0.8422 -0.3296 -0.5254
 1899TIP3   OH227187   2.105   0.773   4.550 -0.2814 -0.4417  0.3735
 1899TIP3    H127188   2.145   0.789   4.636  0.1164  0.2174  0.0776
 1899TIP3    H227189   2.176   0.791   4.488 -0.5444 -0.9933 -0.0898
 1900TIP3   OH227190   1.014   1.970   4.445 -0.0530 -0.4354  0.8281
 1900TIP3    H127191   0.938   2.029   4.448  0.1356 -0.2513  2.2960
 1900TIP3    H227192   0.986   1.893   4.494  1.2253  0.2761  2.7769
 1901TIP3   OH227193   0.646   4.363  14.237  0.3906 -0.0743 -0.0789
 1901TIP3    H127194   0.643   4.458  14.252 -0.1286 -0.5144  3.3710
 1901TIP3    H227195   0.567   4.330  14.279  1.2926 -2.1856  0.0497
 1902TIP3   OH227196   0.889   2.357  16.513  0.2006 -0.4256 -0.2833
 1902TIP3    H127197   0.795   2.340  16.505 -0.1448  1.8282 -1.8740
 1902TIP3    H227198   0.902   2.375  16.606 -0.7534 -1.5745  0.0989
 1903TIP3   OH227199   2.305   5.192  10.948  0.1912  0.1476 -0.2884
 1903TIP3    H127200   2.285   5.192  10.855  0.6044  1.7032 -0.4096
 1903TIP3    H227201   2.296   5.101  10.975 -0.8075 -0.1819 -1.6500
 1904TIP3   OH227202   4.136   4.269  15.841 -0.8199  0.6091 -0.2495
 1904TIP3    H127203   4.086   4.200  15.798 -0.3123 -0.4175  0.7657
 1904TIP3    H227204   4.147   4.238  15.931 -1.3406  2.4112  0.4907
 1905TIP3   OH227205   5.726   1.644  15.441  0.4086 -0.0897 -0.3836
 1905TIP3    H127206   5.772   1.562  15.457 -0.6713 -0.4628  1.0273
 1905TIP3    H227207   5.793   1.703  15.407  1.4434 -1.2176 -0.3758
 1906TIP3   OH227208   6.739   4.339  14.495  0.3379  0.0697 -0.4595
 1906TIP3    H127209   6.750   4.416  14.551  1.8077  0.0333 -0.6685
 1906TIP3    H227210   6.692   4.276  14.550 -0.0742  0.7794  0.0153
 1907TIP3   OH227211   5.447   4.423   0.338  0.1520 -0.1382  0.2235
 1907TIP3    H127212   5.516   4.356   0.333  0.7989  0.4532  0.9094
 1907TIP3    H227213   5.494   4.506   0.323 -0.3592  0.2973  0.9711
 1908TIP3   OH227214   1.385   6.140   5.196 -0.1516  0.3101 -0.3017
 1908TIP3    H127215   1.341   6.135   5.281 -0.2659 -0.7518 -0.4108
 1908TIP3    H227216   1.314   6.144   5.132 -0.0719  0.4287 -0.3837
 1909TIP3   OH227217   6.698   6.788   1.705 -0.0507 -0.7117 -0.5427
 1909TIP3    H127218   6.717   6.878   1.730 -1.0135 -0.9197  1.0677
 1909TIP3    H227219   6.692   6.790   1.610  3.4504  0.2109 -0.9001
 1910TIP3   OH227220   5.633   3.452   1.116  0.0945 -0.2982  0.0216
 1910TIP3    H127221   5.676   3.451   1.202 -0.5200 -1.1734  0.3266
 1910TIP3    H227222   5.629   3.545   1.093  1.9236 -0.1627  0.0931
 1911TIP3   OH227223   2.143   6.700  11.077  0.0720  0.0334  0.3897
 1911TIP3    H127224   2.215   6.676  11.019  0.6051  0.9224  0.6634
 1911TIP3    H227225   2.171   6.668  11.163 -1.3659 -2.6181 -0.0070
 1912TIP3   OH227226   3.495   6.710  14.473 -0.6533 -0.0931  0.4189
 1912TIP3    H127227   3.478   6.747  14.560  1.3320 -0.0373  0.8191
 1912TIP3    H227228   3.484   6.616  14.484 -2.7173  0.0519  0.1148
 1913TIP3   OH227229   3.680   2.200   6.123 -0.5358 -0.4920  0.2697
 1913TIP3    H127230   3.770   2.173   6.105 -0.4739  0.0120 -0.1997
 1913TIP3    H227231   3.626   2.127   6.091 -0.2907 -0.8471  0.6645
 1914TIP3   OH227232   6.494   5.185   1.611 -0.0700  0.0217 -0.3629
 1914TIP3    H127233   6.586   5.156   1.607 -0.8981 -2.9230 -0.0552
 1914TIP3    H227234   6.498   5.278   1.589  3.2068  0.5047  1.5949
 1915TIP3   OH227235   6.124   4.008   5.504 -0.0735  0.1136  0.1171
 1915TIP3    H127236   6.149   3.955   5.579 -1.8403 -1.3732 -0.2560
 1915TIP3    H227237   6.110   4.095   5.539  3.1281  0.4850  0.7188
 1916TIP3   OH227238   2.444   2.383  11.269  0.2089 -0.5588 -0.1506
 1916TIP3    H127239   2.505   2.330  11.217  0.2111 -0.4098 -0.3007
 1916TIP3    H227240   2.357   2.353  11.243  0.2130 -0.5873 -0.1317
 1917TIP3   OH227241   3.382   1.948   4.747  0.3768 -0.1582  0.5675
 1917TIP3    H127242   3.424   1.887   4.686 -0.6962  0.5144 -0.8679
 1917TIP3    H227243   3.330   1.891   4.805  1.5765 -0.8140  1.0554
 1918TIP3   OH227244   3.546   4.035   1.362 -0.7907  0.2379 -0.0810
 1918TIP3    H127245   3.632   4.071   1.383 -0.6387  0.9096 -1.6737
 1918TIP3    H227246   3.493   4.050   1.440  0.1691  1.0517  0.4302
 1919TIP3   OH227247   0.766   6.443   5.350  0.7257  0.0525 -0.2165
 1919TIP3    H127248   0.839   6.441   5.412  0.3626  3.2627  0.5062
 1919TIP3    H227249   0.776   6.527   5.304 -2.0106  0.2172 -0.6876
 1920TIP3   OH227250   3.936   5.981   0.426 -0.3972  0.0929 -0.1682
 1920TIP3    H127251   3.891   5.913   0.376  0.9267 -1.1439  0.2412
 1920TIP3    H227252   3.866   6.041   0.452 -1.6243 -1.0832 -0.5829
 1921TIP3   OH227253   2.697   1.398  12.572 -0.7401 -1.0386  0.2274
 1921TIP3    H127254   2.660   1.468  12.625 -1.8668 -0.7946 -0.8283
 1921TIP3    H227255   2.766   1.441  12.521 -1.1227 -0.7888 -0.0859
 1922TIP3   OH227256   0.895   1.844   3.320 -0.4384  0.0842  0.0325
 1922TIP3    H127257   0.882   1.805   3.406 -0.5516  1.9827  0.9231
 1922TIP3    H227258   0.814   1.824   3.272 -0.2202 -1.3059  0.1932
 1923TIP3   OH227259   4.744   3.051  11.545  0.1584  0.1652 -0.0173
 1923TIP3    H127260   4.764   3.136  11.505 -0.0679  0.5729  0.7120
 1923TIP3    H227261   4.683   3.009  11.483  1.2499 -0.0133 -0.9987
 1924TIP3   OH227262   0.279   0.312   5.044 -0.0003 -0.3524 -0.2711
 1924TIP3    H127263   0.212   0.378   5.059  0.0193 -0.2740 -0.5140
 1924TIP3    H227264   0.349   0.334   5.106 -0.5190 -0.8972  0.5240
 1925TIP3   OH227265   0.140   6.276   1.555 -0.2172 -0.1558 -0.3269
 1925TIP3    H127266   0.083   6.200   1.558 -0.6171  0.1562  0.0651
 1925TIP3    H227267   0.088   6.344   1.513 -0.2573  0.2298  0.3295
 1926TIP3   OH227268   3.863   4.718   5.150  0.0398  0.2338  0.0700
 1926TIP3    H127269   3.933   4.702   5.213 -0.4652 -2.3228  0.0957
 1926TIP3    H227270   3.788   4.669   5.184 -1.0038  0.8631 -1.2244
 1927TIP3   OH227271   4.158   2.107   2.782  0.5603  0.5453  0.1483
 1927TIP3    H127272   4.206   2.123   2.701 -0.8257 -0.2327 -0.8674
 1927TIP3    H227273   4.226   2.107   2.850  2.0024 -0.4262 -1.2037
 1928TIP3   OH227274   6.432   5.954   6.111  0.4504 -0.3870  0.1223
 1928TIP3    H127275   6.459   5.974   6.200 -0.9255 -0.1552  0.5121
 1928TIP3    H227276   6.403   5.862   6.115  1.3382 -0.6992 -0.3334
 1929TIP3   OH227277   5.901   3.033  16.447  0.0895  0.0496 -0.4352
 1929TIP3    H127278   5.885   2.989  16.530 -0.6461  2.2649  0.6656
 1929TIP3    H227279   5.997   3.040  16.441  0.1605 -0.4976  0.0008
 1930TIP3   OH227280   5.370   1.495   2.900 -0.2782 -0.7366 -0.2346
 1930TIP3    H127281   5.397   1.471   2.812  1.1798 -0.1749  0.0122
 1930TIP3    H227282   5.384   1.590   2.904 -1.6727 -0.5309  0.1702
 1931TIP3   OH227283   4.108   1.801   5.763  0.0560  0.1565  0.1011
 1931TIP3    H127284   4.124   1.854   5.841  1.1944 -0.3137  0.2106
 1931TIP3    H227285   4.151   1.717   5.782  1.3646  0.4208 -1.4736
 1932TIP3   OH227286   2.292   5.102  16.053 -0.2491 -0.2824 -0.1890
 1932TIP3    H127287   2.308   5.008  16.059 -0.1220 -0.2419  0.1132
 1932TIP3    H227288   2.374   5.138  16.019  1.0855  0.1518  3.1045
 1933TIP3   OH227289   5.179   4.909  15.825 -0.1749 -0.0057  0.3417
 1933TIP3    H127290   5.236   4.958  15.884 -2.0838  0.4864  1.8799
 1933TIP3    H227291   5.202   4.817  15.840  3.3240  0.1952 -2.4542
 1934TIP3   OH227292   4.808   1.323   1.294 -0.2028  0.6903  0.4122
 1934TIP3    H127293   4.848   1.389   1.236 -1.6719  0.4205 -0.9900
 1934TIP3    H227294   4.726   1.363   1.323  0.4282  0.7408  2.2311
 1935TIP3   OH227295   4.220   0.198  16.770  0.5153 -0.3191  0.2343
 1935TIP3    H127296   4.240   0.291  16.785 -0.6451  0.0608 -0.4249
 1935TIP3    H227297   4.191   0.166  16.856 -0.9152  0.4399  0.0624
 1936TIP3   OH227298   5.283   4.847  14.835  0.5294  0.4212  0.2984
 1936TIP3    H127299   5.217   4.784  14.864  0.7975 -0.7727 -1.4878
 1936TIP3    H227300   5.341   4.796  14.779  0.2767  2.3973 -1.9179
 1937TIP3   OH227301   0.605   4.038   2.818  0.1196 -0.8190 -0.4430
 1937TIP3    H127302   0.576   4.051   2.908  0.4216 -0.2071 -0.4263
 1937TIP3    H227303   0.553   3.964   2.786  0.2110 -1.2168  0.3169
 1938TIP3   OH227304   5.496   5.450  10.592  0.1512 -0.3865 -0.2268
 1938TIP3    H127305   5.562   5.462  10.524  0.0450  1.8102 -0.0225
 1938TIP3    H227306   5.496   5.356  10.610  2.0237 -0.6558 -1.4113
 1939TIP3   OH227307   6.819   3.973  12.518  0.0323 -0.3929 -0.1175
 1939TIP3    H127308   6.824   4.031  12.594 -2.0844  0.0903 -0.2823
 1939TIP3    H227309   6.778   4.027  12.450 -2.9399 -2.2720  0.0123
 1940TIP3   OH227310   6.035   0.205  13.567  0.0724  0.9636 -0.2477
 1940TIP3    H127311   6.036   0.286  13.618  1.0175  1.0920 -0.4508
 1940TIP3    H227312   5.980   0.145  13.618 -1.0836  1.8965 -0.3724
 1941TIP3   OH227313   2.347   6.296  13.149 -0.0555 -0.1616  0.0111
 1941TIP3    H127314   2.357   6.324  13.240 -0.4053 -0.2832  0.0911
 1941TIP3    H227315   2.257   6.264  13.144 -0.1463  0.1534 -0.4596
 1942TIP3   OH227316   1.245   3.989   5.844 -0.1655 -0.5037 -0.3971
 1942TIP3    H127317   1.326   3.981   5.894 -0.0128 -0.3368 -0.6143
 1942TIP3    H227318   1.268   4.043   5.769 -0.5105 -0.3474 -0.3935
 1943TIP3   OH227319   5.995   3.699  14.352  0.3050 -0.0237  0.1138
 1943TIP3    H127320   5.917   3.709  14.407  1.4056  0.2032  1.6681
 1943TIP3    H227321   5.966   3.639  14.282 -0.9500 -0.8501  1.2752
 1944TIP3   OH227322   1.116   1.496  15.883  0.1563  0.2321 -0.0577
 1944TIP3    H127323   1.108   1.481  15.789  0.4315  1.6687 -0.3361
 1944TIP3    H227324   1.180   1.568  15.891  0.6794 -0.3395  1.2599
 1945TIP3   OH227325   0.637   4.034  17.000 -0.1874  0.5271 -0.0532
 1945TIP3    H127326   0.659   4.109  17.055  1.0607 -0.3836  0.7508
 1945TIP3    H227327   0.619   4.072  16.914 -0.7569  1.8400  0.6235
 1946TIP3   OH227328   2.926   6.794   6.070  0.0562  0.2079  0.5729
 1946TIP3    H127329   2.919   6.889   6.067  1.2627  0.4219  2.7111
 1946TIP3    H227330   2.994   6.773   6.006 -0.4769  0.7251 -0.1777
 1947TIP3   OH227331   4.267   2.404   0.307  0.4575 -0.2018  0.1556
 1947TIP3    H127332   4.187   2.451   0.282  0.8345  0.4488  0.1537
 1947TIP3    H227333   4.295   2.445   0.388  2.3113  1.4844 -1.2566
 1948TIP3   OH227334   3.920   0.897  11.291 -0.0223  0.4361  0.2584
 1948TIP3    H127335   3.831   0.868  11.312  0.4420 -1.6275 -0.3527
 1948TIP3    H227336   3.964   0.901  11.375 -0.1405 -0.6767  0.3992
 1949TIP3   OH227337   3.117   5.310  14.306 -0.0459 -0.1069  0.5660
 1949TIP3    H127338   3.199   5.336  14.348 -0.2693  2.0567 -0.2054
 1949TIP3    H227339   3.049   5.340  14.366 -0.3180  1.0014 -0.2793
 1950TIP3   OH227340   5.110   0.030  14.520  0.2145  0.0193  0.0571
 1950TIP3    H127341   5.148   0.026  14.607  0.8683  1.7096 -0.1209
 1950TIP3    H227342   5.088  -0.061  14.500  1.8756 -0.6943  1.1818
 1951TIP3   OH227343   0.092   6.477  11.556 -0.0156  0.0408 -0.2806
 1951TIP3    H127344   0.167   6.436  11.599 -0.5225 -0.8142 -0.1682
 1951TIP3    H227345   0.120   6.566  11.536  0.7056  0.0098  0.5712
 1952TIP3   OH227346   5.719   6.291  16.256 -0.0899 -0.4593 -0.0812
 1952TIP3    H127347   5.628   6.262  16.244  0.1330 -0.6248 -1.5544
 1952TIP3    H227348   5.742   6.261  16.344 -1.5259 -0.2145  0.4160
 1953TIP3   OH227349   3.495   2.876   5.902 -0.1067 -0.3381  0.2157
 1953TIP3    H127350   3.571   2.836   5.944  0.1406 -0.1267 -0.0279
 1953TIP3    H227351   3.425   2.871   5.968  0.1366 -0.4751  0.4619
 1954TIP3   OH227352   6.347   4.894   4.576 -0.5847 -0.0545 -0.3972
 1954TIP3    H127353   6.331   4.916   4.668 -1.9080 -0.0625 -0.6047
 1954TIP3    H227354   6.268   4.846   4.549 -1.2830  1.9369 -2.1720
 1955TIP3   OH227355   4.407   0.453  14.903 -0.1000 -0.2294 -0.3468
 1955TIP3    H127356   4.316   0.481  14.912  0.5257  1.7072  0.6326
 1955TIP3    H227357   4.426   0.405  14.984  0.1520  0.6897  0.1549
 1956TIP3   OH227358   1.143   0.150  15.527  0.5502 -0.2141  0.0911
 1956TIP3    H127359   1.121   0.113  15.612  0.2457 -0.2560 -0.0032
 1956TIP3    H227360   1.201   0.224  15.547 -1.3141  1.2258  0.5220
 1957TIP3   OH227361   5.633   5.032  16.201 -0.3149 -0.3448 -0.1426
 1957TIP3    H127362   5.557   4.977  16.217 -1.4945  0.7510 -1.6386
 1957TIP3    H227363   5.599   5.106  16.150  1.5984  0.6314 -0.1088
 1958TIP3   OH227364   4.990   2.305  12.803  0.4688 -0.1284 -0.3207
 1958TIP3    H127365   4.937   2.254  12.864  1.5198 -0.2788  0.4984
 1958TIP3    H227366   5.061   2.341  12.856  0.6106  0.9364 -1.1836
 1959TIP3   OH227367   5.409   0.267   0.050  0.0607  0.2829 -0.3321
 1959TIP3    H127368   5.326   0.300   0.086 -0.2286 -0.7799  0.0244
 1959TIP3    H227369   5.459   0.239   0.127 -0.6237 -2.1719 -0.6998
 1960TIP3   OH227370   0.637   5.660   0.547 -0.1863  0.0868 -0.1700
 1960TIP3    H127371   0.697   5.674   0.621 -0.9528 -0.2363  0.5302
 1960TIP3    H227372   0.621   5.566   0.547 -0.7635  0.1808 -0.2892
 1961TIP3   OH227373   5.173   3.167  16.545 -0.1150  0.5950 -0.0510
 1961TIP3    H127374   5.252   3.187  16.596 -0.8652  1.9653  0.6272
 1961TIP3    H227375   5.161   3.072  16.556  0.1503  0.7294  1.7429
 1962TIP3   OH227376   5.886   5.801   3.248 -0.2820 -0.3944  0.5727
 1962TIP3    H127377   5.810   5.854   3.224  1.5012  2.3663  0.7020
 1962TIP3    H227378   5.892   5.735   3.178 -2.1321 -0.0068 -0.0021
 1963TIP3   OH227379   1.927   4.484  13.639 -0.2218  0.6775 -0.3461
 1963TIP3    H127380   1.841   4.518  13.664 -0.6910 -0.5383 -0.2680
 1963TIP3    H227381   1.908   4.402  13.593  0.9388 -0.1376  0.5712
 1964TIP3   OH227382   2.480   3.948   2.191 -0.2501  0.2280  0.1414
 1964TIP3    H127383   2.433   3.895   2.127  0.0172 -0.4442  0.4925
 1964TIP3    H227384   2.449   4.037   2.176  1.2106  0.4330 -2.2510
 1965TIP3   OH227385   0.310   1.562  11.105  0.2901  0.2670  0.7056
 1965TIP3    H127386   0.358   1.573  11.187 -0.0049  0.0353  0.9126
 1965TIP3    H227387   0.229   1.611  11.118  0.0308 -0.1667  0.7371
 1966TIP3   OH227388   1.545   1.414   5.717  0.3593  0.5192  0.3161
 1966TIP3    H127389   1.467   1.450   5.675 -0.3027 -0.5890  0.5683
 1966TIP3    H227390   1.615   1.426   5.653 -0.1527  0.9193 -0.1721
 1967TIP3   OH227391   1.178   6.304  13.547  0.1894  0.6566 -0.3363
 1967TIP3    H127392   1.151   6.327  13.636  1.1573  1.6663 -0.2879
 1967TIP3    H227393   1.228   6.223  13.557 -0.9456 -0.0536 -0.1679
 1968TIP3   OH227394   5.342   5.987   5.166 -0.1193  0.3808 -0.3596
 1968TIP3    H127395   5.272   6.052   5.163  0.4881  1.0459 -0.6092
 1968TIP3    H227396   5.423   6.040   5.165  0.3789 -0.3698 -0.2585
 1969TIP3   OH227397   1.494   2.792  16.235  0.4272  0.2531 -0.0009
 1969TIP3    H127398   1.531   2.869  16.192  0.9230  0.5087  0.8790
 1969TIP3    H227399   1.408   2.780  16.193  1.2201 -0.0047 -1.6626
 1970TIP3   OH227400   1.484   3.368  11.601  0.0406 -0.0949 -0.1988
 1970TIP3    H127401   1.555   3.406  11.652  1.8411  1.6848 -3.6370
 1970TIP3    H227402   1.527   3.307  11.541 -1.5464 -0.1860 -1.3272
 1971TIP3   OH227403   2.239   1.208  13.943  0.5534 -0.0396  0.1511
 1971TIP3    H127404   2.250   1.191  14.037  0.6447 -0.9556 -0.0227
 1971TIP3    H227405   2.312   1.161  13.902 -0.0279 -0.4205 -0.4544
 1972TIP3   OH227406   6.117   6.817   3.447  0.3767 -0.2959  0.3080
 1972TIP3    H127407   6.022   6.817   3.433  0.6744 -0.0873 -2.1211
 1972TIP3    H227408   6.152   6.774   3.369  2.4012  1.7011  0.0517
 1973TIP3   OH227409   6.674   1.045   2.011  0.2121  1.0307 -0.0049
 1973TIP3    H127410   6.695   1.138   2.003  0.1624  0.9814 -0.7179
 1973TIP3    H227411   6.587   1.037   1.971  1.2664  0.2530 -2.2736
 1974TIP3   OH227412   2.231   3.815  11.438  0.6128 -0.6760 -0.1260
 1974TIP3    H127413   2.161   3.787  11.496 -1.2586 -1.9075 -2.7783
 1974TIP3    H227414   2.277   3.734  11.415  2.2836 -0.0209  0.7060
 1975TIP3   OH227415   4.206   5.883  13.671  0.1044  0.4828  0.0224
 1975TIP3    H127416   4.182   5.826  13.744 -0.6087  1.5738  0.6669
 1975TIP3    H227417   4.278   5.936  13.705  0.0719  0.6839 -0.2200
 1976TIP3   OH227418   6.023   0.564  11.979 -0.2571  0.1960 -0.6491
 1976TIP3    H127419   6.073   0.610  11.911  0.9052 -1.1686 -0.7676
 1976TIP3    H227420   6.076   0.573  12.058 -1.4649  1.5289  0.0576
 1977TIP3   OH227421   3.865   5.108  16.789  0.1561 -0.1157 -0.3072
 1977TIP3    H127422   3.848   5.021  16.826  0.6428 -1.0166 -2.0550
 1977TIP3    H227423   3.947   5.097  16.740  0.4490  1.4512 -0.2237
 1978TIP3   OH227424   4.321   1.724  15.664  0.4778 -0.7446 -0.1173
 1978TIP3    H127425   4.401   1.719  15.612 -1.1401 -1.1854 -2.7621
 1978TIP3    H227426   4.315   1.816  15.691 -0.1810  0.3626 -3.5708
 1979TIP3   OH227427   1.316   5.614  15.565 -0.1758 -0.0808 -0.4336
 1979TIP3    H127428   1.271   5.623  15.481 -2.2266  0.5405  0.6630
 1979TIP3    H227429   1.299   5.524  15.591 -0.5477  0.0579 -0.1767
 1980TIP3   OH227430   0.261   5.597  14.096  0.2478 -0.5236  0.4367
 1980TIP3    H127431   0.192   5.551  14.145 -0.8121  0.0816 -0.4428
 1980TIP3    H227432   0.279   5.675  14.149 -0.3740 -0.2441  0.2513
 1981TIP3   OH227433   5.818   4.008  16.962  0.2985  0.1876 -0.3628
 1981TIP3    H127434   5.822   3.977  17.052 -1.0533  1.8590  0.3249
 1981TIP3    H227435   5.726   4.000  16.938  0.0161  2.8048 -0.3992
 1982TIP3   OH227436   0.114   3.720  10.406 -0.2746 -0.0111  0.3250
 1982TIP3    H127437   0.079   3.636  10.376 -0.0154 -0.3988  1.0890
 1982TIP3    H227438   0.152   3.759  10.327  0.2944 -0.9613  0.1175
 1983TIP3   OH227439   2.741   3.341   5.700 -0.2132  0.5403 -0.5392
 1983TIP3    H127440   2.764   3.396   5.775 -0.4551 -0.7227  0.4880
 1983TIP3    H227441   2.824   3.304   5.671 -0.0080  1.6088 -1.4100
 1984TIP3   OH227442   2.405   4.238   3.257 -0.7219 -0.0290  0.1861
 1984TIP3    H127443   2.472   4.171   3.274  1.3834  1.4124 -1.8705
 1984TIP3    H227444   2.349   4.199   3.190 -1.6069 -0.9613  1.4063
 1985TIP3   OH227445   1.036   0.592   1.904  0.3085 -0.4236  0.7426
 1985TIP3    H127446   1.060   0.524   1.840  0.2389  0.4807 -0.2656
 1985TIP3    H227447   0.942   0.606   1.890  0.6666  1.1957 -0.4075
 1986TIP3   OH227448   6.379   4.951   6.413 -0.3222  0.9656  0.3582
 1986TIP3    H127449   6.420   4.945   6.499 -1.4175 -1.9098  0.8042
 1986TIP3    H227450   6.440   4.909   6.354 -0.3990  1.2373  0.0851
 1987TIP3   OH227451   3.785   2.464   6.117  0.1750  0.1234 -1.2296
 1987TIP3    H127452   3.775   2.369   6.119 -1.1040  0.2004 -2.5288
 1987TIP3    H227453   3.811   2.484   6.027  1.1124  0.9660 -0.7944
 1988TIP3   OH227454   6.360   5.851  16.476  0.1393  0.2632  0.6119
 1988TIP3    H127455   6.286   5.893  16.520 -1.5644  1.5404 -3.0619
 1988TIP3    H227456   6.338   5.758  16.478  0.4854  0.1650  2.8808
 1989TIP3   OH227457   3.060   0.827  12.681  0.4829  0.9135  0.0654
 1989TIP3    H127458   3.040   0.895  12.745  0.3056 -0.1544  1.1820
 1989TIP3    H227459   3.147   0.797  12.704 -0.0118 -0.2339  0.5256
 1990TIP3   OH227460   0.261   0.010   1.105  0.3254  0.4591 -0.1402
 1990TIP3    H127461   0.288   0.102   1.118  3.1938 -0.5144  1.9470
 1990TIP3    H227462   0.293  -0.012   1.018  2.7305  0.5916  0.6297
 1991TIP3   OH227463   5.990   2.162  12.882 -0.4359 -0.6443  1.0655
 1991TIP3    H127464   5.929   2.155  12.808  0.0214  1.4432  0.4006
 1991TIP3    H227465   5.983   2.079  12.928 -0.4834 -2.1606 -1.5237
 1992TIP3   OH227466   5.751   5.037  15.676  0.3740 -0.0104  0.4245
 1992TIP3    H127467   5.831   5.054  15.726 -0.7481  1.0108  1.9385
 1992TIP3    H227468   5.768   4.954  15.632  2.5819  0.5750  0.0209
 1993TIP3   OH227469   0.625   6.838   1.802 -0.1221  0.2391  0.4663
 1993TIP3    H127470   0.549   6.884   1.838  0.8718  2.7146 -0.4170
 1993TIP3    H227471   0.701   6.883   1.839  0.9006  0.1815 -1.4273
 1994TIP3   OH227472   2.598   2.739  11.018  0.1569  0.3622  0.4923
 1994TIP3    H127473   2.622   2.825  10.984 -0.2597 -0.7244 -2.8952
 1994TIP3    H227474   2.516   2.754  11.065 -1.9063  1.4193 -3.0477
 1995TIP3   OH227475   2.422   3.418   3.826  0.2032 -0.5267 -0.3216
 1995TIP3    H127476   2.433   3.384   3.738  1.6126 -2.0658  0.3773
 1995TIP3    H227477   2.505   3.396   3.870 -0.6870 -0.3600  1.5310
 1996TIP3   OH227478   5.729   4.750   2.272 -0.0622  0.6849  0.1581
 1996TIP3    H127479   5.764   4.831   2.309  0.7428 -0.3307  1.7403
 1996TIP3    H227480   5.781   4.736   2.193  0.4424  1.2211  0.3821
 1997TIP3   OH227481   6.341   6.390   2.048  0.2335 -0.1169 -0.1019
 1997TIP3    H127482   6.252   6.425   2.034  0.8397  2.7992  2.3693
 1997TIP3    H227483   6.395   6.468   2.062  3.2203 -1.8158 -1.2583
 1998TIP3   OH227484   2.078   2.466  14.894  0.4429  0.2020  0.0642
 1998TIP3    H127485   2.117   2.432  14.813  0.6437 -0.1582  0.3094
 1998TIP3    H227486   1.985   2.447  14.886  0.2801  1.1704 -0.5778
 1999TIP3   OH227487   0.366   3.184  16.180 -0.0975  0.7832  0.0335
 1999TIP3    H127488   0.412   3.132  16.114  0.0120 -0.9823  1.4070
 1999TIP3    H227489   0.319   3.251  16.130  0.8665  0.2136 -1.7157
 2000TIP3   OH227490   3.807   3.620  13.458 -0.1936  0.0620  0.1312
 2000TIP3    H127491   3.792   3.594  13.367  1.7556 -0.2240 -0.1618
 2000TIP3    H227492   3.832   3.538  13.502  0.2056  0.4265  0.5954
 2001TIP3   OH227493   4.888   3.841  15.755  0.4605 -0.4843 -0.4599
 2001TIP3    H127494   4.815   3.822  15.695  0.7968 -1.1152 -0.6723
 2001TIP3    H227495   4.853   3.910  15.813 -0.7475 -1.6421  0.2474
 2002TIP3   OH227496   2.271   2.983  11.269 -0.0078  0.1828  0.4059
 2002TIP3    H127497   2.292   2.893  11.243  0.5367  0.8170 -1.5155
 2002TIP3    H227498   2.230   3.022  11.192 -0.7615  1.4383  1.3947
 2003TIP3   OH227499   0.579   1.808   0.849  0.8213  0.2791 -0.5686
 2003TIP3    H127500   0.521   1.779   0.778 -0.7800  0.2671  0.6805
 2003TIP3    H227501   0.615   1.726   0.884  1.5741  0.2815 -1.2936
 2004TIP3   OH227502   5.138   2.403  11.321 -0.2822 -0.8042  0.1901
 2004TIP3    H127503   5.201   2.450  11.266 -2.3713  0.7004 -1.0543
 2004TIP3    H227504   5.075   2.366  11.260 -1.1439 -1.4869  1.4413
 2005TIP3   OH227505   6.429   0.038   6.190  0.0109  0.1989  0.5595
 2005TIP3    H127506   6.411   0.065   6.279 -0.6610 -0.4314  0.6229
 2005TIP3    H227507   6.443  -0.057   6.195  4.0132  0.6044  0.6258
 2006TIP3   OH227508   1.000   4.792  13.260  0.2522 -0.0956 -0.3121
 2006TIP3    H127509   0.961   4.842  13.332 -0.6008 -0.1462 -0.7273
 2006TIP3    H227510   1.077   4.843  13.234  0.3804  0.0889  0.4212
 2007TIP3   OH227511   5.730   2.324   2.813 -0.0558  0.0819 -0.1660
 2007TIP3    H127512   5.656   2.285   2.859  0.1251  0.8757  0.8287
 2007TIP3    H227513   5.789   2.353   2.882  0.4301  0.9091 -0.9012
 2008TIP3   OH227514   4.668   1.922   0.775  0.7965 -0.5976 -0.0732
 2008TIP3    H127515   4.614   1.914   0.696  1.4882 -0.7549 -0.5383
 2008TIP3    H227516   4.607   1.952   0.842  0.0375 -1.1654 -0.4834
 2009TIP3   OH227517   2.578   4.902   1.385 -0.0557  0.3326  0.0988
 2009TIP3    H127518   2.618   4.942   1.308 -1.6548  0.6258 -0.6350
 2009TIP3    H227519   2.513   4.842   1.348  1.2684 -1.8840  1.1954
 2010TIP3   OH227520   1.118   0.570  16.654 -0.1726 -0.0801 -0.0210
 2010TIP3    H127521   1.117   0.515  16.576 -2.0593  0.7532 -0.6381
 2010TIP3    H227522   1.045   0.537  16.707 -0.8627  1.3130 -0.0640
 2011TIP3   OH227523   4.120   1.122  11.288  0.0688  0.5387  0.8428
 2011TIP3    H127524   4.027   1.145  11.292 -0.1335 -0.0589 -0.2074
 2011TIP3    H227525   4.122   1.029  11.309  0.3219  0.3405 -0.0163
 2012TIP3   OH227526   4.816   6.673   5.143 -0.8523  0.4435 -0.2137
 2012TIP3    H127527   4.740   6.622   5.116 -1.1601  1.5068 -1.4494
 2012TIP3    H227528   4.781   6.759   5.165  0.0240  1.1181 -1.3289
 2013TIP3   OH227529   1.284   2.645   5.887  0.5471  0.0081  0.2535
 2013TIP3    H127530   1.309   2.586   5.815  0.9479  0.6010 -0.1072
 2013TIP3    H227531   1.358   2.639   5.948  0.4187 -0.1410  0.3947
 2014TIP3   OH227532   0.983   2.101   3.756 -0.0737 -0.0234 -0.2401
 2014TIP3    H127533   0.954   2.185   3.791  1.1137  0.3466 -0.1027
 2014TIP3    H227534   1.064   2.082   3.804 -1.2269 -2.1319  1.0315
 2015TIP3   OH227535   5.866   6.422  13.726  0.0278 -0.2450 -0.2654
 2015TIP3    H127536   5.880   6.340  13.774  0.0766 -0.4696 -0.6637
 2015TIP3    H227537   5.772   6.439  13.735  0.0893 -0.1127  0.1854
 2016TIP3   OH227538   3.674   2.391  11.277  0.4776  0.0804  0.8100
 2016TIP3    H127539   3.670   2.338  11.357  0.4945  2.6552  2.6668
 2016TIP3    H227540   3.604   2.456  11.288  0.5811  0.5823 -1.2266
 2017TIP3   OH227541   1.983   0.436   3.689  0.1984 -0.1669 -0.4292
 2017TIP3    H127542   1.906   0.430   3.746 -1.4842 -0.4492 -2.6241
 2017TIP3    H227543   1.989   0.351   3.647  2.1953 -0.3974  0.2402
 2018TIP3   OH227544   1.104   1.059   5.137 -0.3148  0.3156  0.0690
 2018TIP3    H127545   1.160   1.045   5.214 -2.2412 -1.6232  1.2416
 2018TIP3    H227546   1.043   1.128   5.164 -3.0352 -2.4368  1.7089
 2019TIP3   OH227547   5.391   0.379   3.638  0.2065  0.0284 -0.2659
 2019TIP3    H127548   5.433   0.316   3.697 -1.5647 -2.7501 -1.7351
 2019TIP3    H227549   5.460   0.406   3.578  0.6486 -1.9863 -0.7183
 2020TIP3   OH227550   4.942   6.756  15.370 -0.2285  0.1319 -0.0375
 2020TIP3    H127551   5.010   6.821  15.353  0.1657 -0.5032 -0.9592
 2020TIP3    H227552   4.886   6.759  15.293  0.2714 -1.1865 -0.4755
 2021TIP3   OH227553   2.515   1.486  15.731  0.4401  0.4044  0.1981
 2021TIP3    H127554   2.454   1.560  15.738  1.3459  1.1084  1.0374
 2021TIP3    H227555   2.489   1.426  15.800 -0.2697 -0.0512 -0.4559
 2022TIP3   OH227556   3.837   3.917  10.493 -0.1460  0.3864 -0.2603
 2022TIP3    H127557   3.861   3.998  10.448 -0.8797  0.8962  0.2550
 2022TIP3    H227558   3.742   3.913  10.486 -0.2065  0.1081  0.6197
 2023TIP3   OH227559   2.893   6.083   6.208 -0.1812 -0.2361 -0.6288
 2023TIP3    H127560   2.882   6.010   6.147  0.7260 -1.0420  0.1387
 2023TIP3    H227561   2.987   6.091   6.220 -0.3380 -1.0326  1.7342
 2024TIP3   OH227562   2.976   5.022   3.617 -0.0931 -0.0796 -0.8219
 2024TIP3    H127563   3.017   4.961   3.556  0.8717 -1.5486  1.1833
 2024TIP3    H227564   2.889   4.986   3.631  0.4294 -0.9722  0.2580
 2025TIP3   OH227565   5.110   6.574   4.473 -0.6931  0.4831 -0.0826
 2025TIP3    H127566   5.204   6.556   4.472 -0.9610 -1.1180  0.7588
 2025TIP3    H227567   5.068   6.488   4.470 -2.1006  1.0280  1.8037
 2026TIP3   OH227568   1.477   5.919   1.743 -0.0766 -0.5779 -0.6184
 2026TIP3    H127569   1.536   5.890   1.674 -0.2796  0.8894 -1.4704
 2026TIP3    H227570   1.531   5.974   1.799 -0.4663  0.2655 -1.0505
 2027TIP3   OH227571   3.841   5.744  16.125  0.0692 -0.1864  0.2021
 2027TIP3    H127572   3.856   5.743  16.031 -1.6853  0.2480 -0.1171
 2027TIP3    H227573   3.929   5.736  16.164  0.7438 -1.3048 -1.4386
 2028TIP3   OH227574   5.351   1.099  11.403  0.3606  0.1836  0.3234
 2028TIP3    H127575   5.303   1.029  11.447 -2.0354  1.9729  0.7922
 2028TIP3    H227576   5.307   1.107  11.318  1.9363 -0.1771 -0.5549
 2029TIP3   OH227577   0.024   1.017  15.025 -0.4928 -0.3377  0.0627
 2029TIP3    H127578  -0.005   1.066  14.948 -0.2349  0.5765  0.5387
 2029TIP3    H227579  -0.028   1.051  15.097  0.1671 -0.2829  0.5218
 2030TIP3   OH227580   3.525   1.136  17.017  0.6011 -0.4224 -0.4278
 2030TIP3    H127581   3.600   1.078  17.008  1.3853  0.6874 -1.3989
 2030TIP3    H227582   3.484   1.137  16.930 -0.9174 -1.4663  0.2290
 2031TIP3   OH227583   3.107   0.434   3.205 -0.7094  0.0935  0.2732
 2031TIP3    H127584   3.160   0.512   3.188 -0.1590 -0.0987  1.0581
 2031TIP3    H227585   3.150   0.364   3.156 -1.0904  0.2331 -0.2720
 2032TIP3   OH227586   0.735   6.045   4.749  0.0279 -0.4076  0.1542
 2032TIP3    H127587   0.777   5.969   4.708 -2.8937 -0.6731 -2.7734
 2032TIP3    H227588   0.778   6.121   4.709 -0.3428 -0.6348 -0.7055
 2033TIP3   OH227589   2.189   1.172   0.558 -0.0069 -0.2313 -0.0024
 2033TIP3    H127590   2.148   1.096   0.518 -0.3038 -0.6977  1.1406
 2033TIP3    H227591   2.195   1.237   0.487 -0.9027 -0.8626 -0.6751
 2034TIP3   OH227592   0.044   6.212  11.450 -0.1958  0.0025 -0.2638
 2034TIP3    H127593   0.097   6.206  11.371 -0.4389  1.9651 -0.6288
 2034TIP3    H227594   0.040   6.306  11.469  0.2126 -0.4349  2.3408
 2035TIP3   OH227595   3.761   1.907   3.769  0.1532  0.4332  0.2062
 2035TIP3    H127596   3.724   1.902   3.857 -1.1648 -1.8518 -0.3903
 2035TIP3    H227597   3.685   1.920   3.712  0.8805  0.8874 -0.6919
 2036TIP3   OH227598   6.105   1.697  13.905  0.6628 -0.4932 -0.6706
 2036TIP3    H127599   6.161   1.628  13.870 -0.4245 -1.0716 -1.3155
 2036TIP3    H227600   6.025   1.652  13.932  0.9655  0.1247  1.4453
 2037TIP3   OH227601   0.745   4.039   5.300  0.7381 -0.5064 -0.2826
 2037TIP3    H127602   0.753   3.951   5.263  0.4627 -0.4001 -0.6019
 2037TIP3    H227603   0.812   4.043   5.368 -0.3559 -1.5413  0.8957
 2038TIP3   OH227604   1.396   2.378   0.164 -0.0064  0.7074  0.2479
 2038TIP3    H127605   1.466   2.313   0.169  0.4931  0.9404 -2.2871
 2038TIP3    H227606   1.441   2.462   0.168 -0.4484  0.9105  1.3718
 2039TIP3   OH227607   6.324   2.845  12.051 -0.3552  0.5802  0.1370
 2039TIP3    H127608   6.350   2.936  12.037  2.1214 -0.0467  0.3102
 2039TIP3    H227609   6.349   2.800  11.970 -0.1897 -0.2126  0.6162
 2040TIP3   OH227610   6.807   0.151   0.455  0.9746 -0.3065  0.1666
 2040TIP3    H127611   6.838   0.241   0.446  0.5824  0.0073  1.6736
 2040TIP3    H227612   6.846   0.120   0.537  1.4641 -1.6735 -0.5563
 2041TIP3   OH227613   4.195   4.846  11.963 -0.4004 -0.3759  0.0693
 2041TIP3    H127614   4.138   4.883  11.897 -1.0937  0.7193  1.2391
 2041TIP3    H227615   4.138   4.790  12.016  0.1729 -1.3637 -0.3231
 2042TIP3   OH227616   4.759   6.521   4.774 -0.2703  0.2334 -0.0885
 2042TIP3    H127617   4.824   6.577   4.732  0.3176 -0.5558 -0.2633
 2042TIP3    H227618   4.796   6.433   4.767 -0.9020 -0.1037  0.6937
 2043TIP3   OH227619   4.698   1.986  13.955  0.5727 -0.4115 -0.0349
 2043TIP3    H127620   4.660   2.054  14.011  1.6270 -0.7278  1.1135
 2043TIP3    H227621   4.679   2.015  13.866 -0.6311  0.4203  0.4669
 2044TIP3   OH227622   5.130   0.525  11.984 -0.4222 -0.4447 -0.0615
 2044TIP3    H127623   5.164   0.469  11.914 -0.5391  0.8310 -1.1788
 2044TIP3    H227624   5.207   0.549  12.035 -0.4012 -1.7936  0.5962
 2045TIP3   OH227625   4.017   5.394   1.695 -0.1800  0.6020 -0.2865
 2045TIP3    H127626   4.065   5.471   1.663  2.5211 -0.3791  1.0697
 2045TIP3    H227627   4.064   5.368   1.774 -3.1182 -0.4503  1.2708
 2046TIP3   OH227628   1.163   0.606   1.335 -0.3849 -0.4536  0.2888
 2046TIP3    H127629   1.081   0.570   1.368 -1.2843  1.7168  0.6231
 2046TIP3    H227630   1.138   0.690   1.297  1.6360  0.0683  0.0263
 2047TIP3   OH227631   5.035   3.861   5.402  0.2936  1.1641  0.6283
 2047TIP3    H127632   5.074   3.886   5.318 -0.8430  0.0064 -0.2875
 2047TIP3    H227633   5.033   3.766   5.400  1.8732  1.0163  2.7791
 2048TIP3   OH227634   6.649   4.361   3.777 -0.5613  0.5309 -0.1227
 2048TIP3    H127635   6.593   4.439   3.771 -0.0021  1.1421  1.8380
 2048TIP3    H227636   6.670   4.340   3.686 -1.3689  2.2003 -0.7477
 2049TIP3   OH227637   5.305   5.338   3.855 -0.1767  0.0968  0.3894
 2049TIP3    H127638   5.389   5.333   3.809 -0.9551  0.0468 -1.1111
 2049TIP3    H227639   5.290   5.249   3.885  0.0653 -0.0139  0.1928
 2050TIP3   OH227640   2.008   5.235   4.024  0.6789  0.1517 -0.8638
 2050TIP3    H127641   1.964   5.182   4.091 -0.1552  0.3380 -1.2498
 2050TIP3    H227642   1.996   5.185   3.943 -1.1629  1.4546 -1.4598
 2051TIP3   OH227643   6.634   2.751   4.261 -0.1018 -0.2526  0.1505
 2051TIP3    H127644   6.605   2.706   4.181  1.2420 -1.1017  0.0954
 2051TIP3    H227645   6.673   2.832   4.229 -0.5802 -0.0674  0.0398
 2052TIP3   OH227646   1.745   3.771   4.852 -0.9540  0.5029  0.1231
 2052TIP3    H127647   1.686   3.733   4.916 -1.8808  1.3447 -0.2065
 2052TIP3    H227648   1.740   3.866   4.866  1.3425  0.5706  0.9600
 2053TIP3   OH227649   6.155   3.670   0.821  0.3070 -0.3071  0.4076
 2053TIP3    H127650   6.084   3.697   0.879 -0.1867 -1.3217  0.2928
 2053TIP3    H227651   6.226   3.732   0.840 -1.3236  2.2346 -1.1429
 2054TIP3   OH227652   1.850   4.534  14.034 -0.0705  0.7678  0.0298
 2054TIP3    H127653   1.937   4.570  14.051  0.4476 -0.5669  0.2477
 2054TIP3    H227654   1.864   4.442  14.015 -1.4653  0.4581  0.3439
 2055TIP3   OH227655   1.146   5.680  12.344 -0.0432  0.0426 -0.2100
 2055TIP3    H127656   1.068   5.707  12.296 -0.2054 -0.0161  0.0185
 2055TIP3    H227657   1.123   5.595  12.381  0.1412  0.0090 -0.1702
 2056TIP3   OH227658   0.995   3.126  14.727  0.5684  0.4239  0.1508
 2056TIP3    H127659   1.031   3.121  14.639  1.0494  0.3517  0.3523
 2056TIP3    H227660   0.966   3.217  14.736  1.4337  0.6932  0.2755
 2057TIP3   OH227661   2.708   3.167   1.917 -0.3808 -0.0932  0.2237
 2057TIP3    H127662   2.689   3.173   1.823  0.0912  1.0530  0.1881
 2057TIP3    H227663   2.768   3.092   1.924  0.0832  0.1996 -0.4814
 2058TIP3   OH227664   2.584   5.709   2.765  0.2412 -0.8893 -0.0888
 2058TIP3    H127665   2.566   5.762   2.688 -0.3406 -1.0443 -0.0688
 2058TIP3    H227666   2.670   5.671   2.750  0.4013 -0.4211 -0.3737
 2059TIP3   OH227667   1.634   1.651  16.378 -1.2364 -0.2443 -0.0369
 2059TIP3    H127668   1.575   1.726  16.379 -2.2188 -0.9818 -0.2989
 2059TIP3    H227669   1.585   1.582  16.423 -0.1223 -0.5618  0.7068
 2060TIP3   OH227670   3.495   1.074   0.908  0.1757 -0.1943  0.3584
 2060TIP3    H127671   3.477   1.132   0.982 -0.6287 -0.1310  0.1306
 2060TIP3    H227672   3.590   1.078   0.897  0.3462 -0.4217  1.5526
 2061TIP3   OH227673   5.494   1.675   4.687  0.5912  0.1444  0.3731
 2061TIP3    H127674   5.475   1.603   4.748  0.6088 -0.0724  0.1256
 2061TIP3    H227675   5.495   1.633   4.601 -0.1481  0.5822  0.1455
 2062TIP3   OH227676   1.426   0.437   2.955 -0.0021  0.7075 -0.1455
 2062TIP3    H127677   1.511   0.411   2.991 -0.5163  0.9993  1.3649
 2062TIP3    H227678   1.448   0.504   2.890  1.0951 -1.1602 -1.8234
 2063TIP3   OH227679   0.718   2.337   3.539 -0.6610  0.0227  0.1169
 2063TIP3    H127680   0.807   2.318   3.510 -0.9730 -1.0544 -0.1770
 2063TIP3    H227681   0.673   2.252   3.538 -1.2241  0.2542  1.9293
 2064TIP3   OH227682   2.794   2.898   0.936 -0.2673 -0.1051  0.1680
 2064TIP3    H127683   2.887   2.889   0.913  0.5798  2.2133  2.2259
 2064TIP3    H227684   2.748   2.885   0.853  2.1919  2.6403 -1.8452
 2065TIP3   OH227685   6.291   6.733  14.518 -0.4482  0.4800  0.4285
 2065TIP3    H127686   6.211   6.771  14.555  0.7724  0.6503  3.1304
 2065TIP3    H227687   6.282   6.639  14.532 -1.1753  0.2251 -1.4839
 2066TIP3   OH227688   0.709   5.626   4.616 -0.6861  0.0744 -0.0614
 2066TIP3    H127689   0.631   5.663   4.574 -0.5255 -2.6902 -3.1938
 2066TIP3    H227690   0.690   5.532   4.624  1.5174 -0.3335  1.0907
 2067TIP3   OH227691   6.519   1.360  13.670  0.0882  0.1661 -0.0296
 2067TIP3    H127692   6.434   1.393  13.641  0.0778  1.0176  0.9294
 2067TIP3    H227693   6.507   1.265  13.677 -0.4394  0.1429 -0.9991
 2068TIP3   OH227694   1.998   2.411   3.191  0.2419 -0.0904 -0.4809
 2068TIP3    H127695   1.942   2.393   3.115  0.1857 -1.5429 -0.1324
 2068TIP3    H227696   2.083   2.434   3.154 -0.4110  1.6132 -1.0088
 2069TIP3   OH227697   0.083   3.684  16.116  0.0522 -0.2986 -0.4531
 2069TIP3    H127698   0.099   3.778  16.128 -1.3625 -0.3085  2.5697
 2069TIP3    H227699   0.037   3.678  16.032 -0.0339  1.7455 -0.6170
 2070TIP3   OH227700   0.311   5.632   4.291 -0.1504  0.1174 -0.5008
 2070TIP3    H127701   0.216   5.638   4.280 -0.2960 -0.7734  0.1562
 2070TIP3    H227702   0.323   5.602   4.381  0.8231  1.9707  0.0489
 2071TIP3   OH227703   6.177   2.094  14.556 -0.3048  0.0477  0.3412
 2071TIP3    H127704   6.194   2.113  14.649  0.7256 -2.1746  0.6909
 2071TIP3    H227705   6.086   2.119  14.542 -0.5410  0.2366  2.0271
 2072TIP3   OH227706   4.482   6.168   1.417  0.2619  0.0484  0.5596
 2072TIP3    H127707   4.465   6.134   1.505  1.7594 -0.6099  0.6259
 2072TIP3    H227708   4.418   6.123   1.361  0.5516 -0.9902  1.0400
 2073TIP3   OH227709   2.055   3.930   1.826  0.1104 -0.2497 -0.1969
 2073TIP3    H127710   2.047   3.842   1.790  0.8088 -0.2983 -0.2587
 2073TIP3    H227711   2.009   3.986   1.764 -2.8708 -0.8708  1.2901
 2074TIP3   OH227712   0.298   3.590  14.216  0.7591 -0.2182  0.3881
 2074TIP3    H127713   0.388   3.562  14.202  0.0874 -1.8266 -1.0836
 2074TIP3    H227714   0.250   3.510  14.236 -0.9273 -0.0230 -2.3401
 2075TIP3   OH227715   6.097   6.098   3.502  0.2449  0.4513  0.8013
 2075TIP3    H127716   6.164   6.158   3.534 -0.0333  1.8276 -1.0313
 2075TIP3    H227717   6.066   6.138   3.421 -1.9112 -0.7909  0.9356
 2076TIP3   OH227718   1.476   4.596   3.115  0.8922 -0.1437  0.0758
 2076TIP3    H127719   1.478   4.663   3.047 -1.3998 -0.9966 -0.9164
 2076TIP3    H227720   1.495   4.515   3.070 -1.7979 -0.8920  0.1044
 2077TIP3   OH227721   6.257   6.187   3.763 -0.0946 -0.1829  0.1191
 2077TIP3    H127722   6.277   6.186   3.856 -0.4804  2.1561  0.2858
 2077TIP3    H227723   6.333   6.230   3.722 -0.7507  0.5119 -0.3914
 2078TIP3   OH227724   4.456   1.295   1.102 -0.0199 -0.3168  0.2287
 2078TIP3    H127725   4.533   1.310   1.046  0.1213  0.8321  0.7197
 2078TIP3    H227726   4.474   1.210   1.143  1.2369  0.1699  0.7241
 2079TIP3   OH227727   3.310   2.922  12.419 -0.1575  0.1759 -0.0547
 2079TIP3    H127728   3.297   2.831  12.445  2.1704 -0.5964 -1.2743
 2079TIP3    H227729   3.400   2.941  12.445  0.2194  1.2899 -2.0366
 2080TIP3   OH227730   0.003   0.076  14.036 -0.3185  0.0395 -0.0964
 2080TIP3    H127731  -0.058   0.009  14.065 -0.5450 -0.0226 -0.6949
 2080TIP3    H227732   0.086   0.031  14.026 -0.0715  0.1970  1.0637
 2081TIP3   OH227733   0.652   4.401  13.260 -0.2625 -0.3903  0.2095
 2081TIP3    H127734   0.691   4.487  13.274 -1.1001 -0.0751  0.7443
 2081TIP3    H227735   0.590   4.392  13.333 -0.7155 -1.1304 -0.2600
 2082TIP3   OH227736   3.629   2.882  10.977  0.0292  0.3577 -0.3788
 2082TIP3    H127737   3.604   2.881  10.885 -3.5177 -0.2900  0.4656
 2082TIP3    H227738   3.591   2.963  11.011  2.8090  1.5262  0.2780
 2083TIP3   OH227739   5.794   4.921  13.496 -0.0649  0.9788  0.1359
 2083TIP3    H127740   5.836   4.921  13.410  0.9537 -0.7797  0.5893
 2083TIP3    H227741   5.701   4.936  13.477  0.3455  2.1379 -1.1178
 2084TIP3   OH227742   5.872   4.175   4.590 -0.3870  0.4029 -0.7745
 2084TIP3    H127743   5.831   4.158   4.675 -0.1755 -1.6751 -1.0241
 2084TIP3    H227744   5.936   4.103   4.581  1.2804  1.9228 -1.6519
 2085TIP3   OH227745   5.775   3.551  15.770  0.2690  0.1131  0.3101
 2085TIP3    H127746   5.845   3.512  15.822  0.1820 -2.6208 -1.4189
 2085TIP3    H227747   5.818   3.622  15.722  1.2357  0.1936  1.2615
 2086TIP3   OH227748   4.216   2.831   1.802 -0.0137 -0.5803 -0.2963
 2086TIP3    H127749   4.279   2.812   1.872  1.1581 -2.0357 -1.6939
 2086TIP3    H227750   4.265   2.818   1.721 -1.6835 -0.1278 -1.4201
 2087TIP3   OH227751   0.179   5.083   4.140  0.0529  0.5196  0.3024
 2087TIP3    H127752   0.216   5.093   4.228 -2.4767  1.0016  1.4007
 2087TIP3    H227753   0.166   5.172   4.109  0.1406  0.3583 -0.2079
 2088TIP3   OH227754   0.754   0.912  14.680 -0.0220 -0.3965 -0.0151
 2088TIP3    H127755   0.706   0.931  14.599 -0.2703 -1.1045 -0.0378
 2088TIP3    H227756   0.728   0.982  14.740 -0.3599 -0.2502 -0.3324
 2089TIP3   OH227757   5.990   3.494   4.883 -0.5548 -0.2814 -0.4838
 2089TIP3    H127758   5.998   3.402   4.857  0.9706 -0.7897  1.4541
 2089TIP3    H227759   6.019   3.544   4.806 -1.8133 -1.3576 -1.7106
 2090TIP3   OH227760   0.030   1.561  16.925 -0.7703  0.2883 -0.0280
 2090TIP3    H127761   0.064   1.592  16.841 -0.5430 -0.1711 -0.1093
 2090TIP3    H227762  -0.009   1.475  16.905  0.3618 -0.3823  0.5490
 2091TIP3   OH227763   4.137   3.118   0.103  0.0797  0.2392 -0.4080
 2091TIP3    H127764   4.135   3.080   0.015 -0.3294 -1.1324  0.1862
 2091TIP3    H227765   4.231   3.122   0.125  0.2454  1.4343 -1.2452
 2092TIP3   OH227766   6.753   6.725   0.986  0.1489  0.2493  0.4874
 2092TIP3    H127767   6.834   6.689   0.949  0.3493 -0.4279  1.5342
 2092TIP3    H227768   6.683   6.683   0.937  0.4071  1.3527 -0.8984
 2093TIP3   OH227769   5.080   5.694  13.991 -0.5255  0.0403 -0.4292
 2093TIP3    H127770   4.985   5.689  13.997 -0.6361 -0.3228 -1.9780
 2093TIP3    H227771   5.105   5.613  13.945  0.5910 -0.1610  0.4926
 2094TIP3   OH227772   6.818   3.625  16.927 -0.0649  0.0965  0.1337
 2094TIP3    H127773   6.826   3.592  17.017  3.0440 -0.6334 -0.2809
 2094TIP3    H227774   6.908   3.629  16.896 -1.0062  1.0477 -2.7408
 2095TIP3   OH227775   0.197   6.724  15.321 -0.2634 -0.2926  0.1863
 2095TIP3    H127776   0.279   6.773  15.314  1.3182 -2.6140  1.2159
 2095TIP3    H227777   0.180   6.693  15.232 -1.7154  2.5855 -0.6553
 2096TIP3   OH227778   4.192   2.277  12.866  0.5904  0.0749 -0.0821
 2096TIP3    H127779   4.276   2.260  12.823 -0.1259 -0.1853 -1.4326
 2096TIP3    H227780   4.182   2.372  12.863  0.4673  0.0477 -0.6714
 2097TIP3   OH227781   0.507   5.942   0.842 -0.3618 -0.0248 -0.7500
 2097TIP3    H127782   0.571   5.895   0.894 -1.4671 -3.2732 -2.0883
 2097TIP3    H227783   0.544   5.943   0.754 -0.9861  0.4187 -1.0132
 2098TIP3   OH227784   2.105   0.349   2.441 -0.7810  0.0466 -0.3172
 2098TIP3    H127785   2.058   0.393   2.371  1.9246  0.5447 -1.9603
 2098TIP3    H227786   2.196   0.374   2.429  0.4669 -3.4403  0.6345
 2099TIP3   OH227787   3.027   6.404  16.125 -0.0622 -0.1513 -0.2074
 2099TIP3    H127788   2.962   6.475  16.125 -0.1554 -0.2158  0.7573
 2099TIP3    H227789   2.994   6.342  16.191  0.0471 -1.0718 -1.0089
 2100TIP3   OH227790   2.452   3.003   1.980 -0.6879 -0.2462  0.0447
 2100TIP3    H127791   2.521   3.069   1.989 -0.8994 -0.1124  0.8468
 2100TIP3    H227792   2.480   2.932   2.037 -1.1367 -0.2515  0.2653
 2101TIP3   OH227793   5.723   3.826   3.380 -0.1055  0.0980  0.0757
 2101TIP3    H127794   5.801   3.773   3.369  1.5411  2.0392  1.5870
 2101TIP3    H227795   5.681   3.793   3.459  0.0365  0.0378  0.1246
 2102TIP3   OH227796   6.843   0.945  11.997  0.1759 -0.0489  0.2561
 2102TIP3    H127797   6.924   0.967  12.043  0.6362 -0.9462 -0.1075
 2102TIP3    H227798   6.812   0.866  12.041 -0.0962 -0.1455 -0.1110
 2103TIP3   OH227799   0.596   6.747   0.681  0.2832 -0.0649  0.4019
 2103TIP3    H127800   0.677   6.768   0.727  0.8210 -0.0198 -0.5323
 2103TIP3    H227801   0.610   6.658   0.649  0.0553  0.0186  0.0631
 2104TIP3   OH227802   3.878   3.592   2.003  0.0453  0.2304 -0.7023
 2104TIP3    H127803   3.945   3.548   2.054  0.5193 -0.0870 -1.5829
 2104TIP3    H227804   3.851   3.666   2.057 -0.2962 -0.7581  0.5014
 2105TIP3   OH227805   3.960   1.475   2.773  0.1024 -0.0325  0.1575
 2105TIP3    H127806   4.043   1.445   2.808  0.1475  0.0186  0.0943
 2105TIP3    H227807   3.969   1.468   2.678  0.2344  0.4872  0.1268
 2106TIP3   OH227808   1.666   4.142  15.089  0.0068  0.1205 -0.2184
 2106TIP3    H127809   1.573   4.159  15.103 -0.2482 -0.1712 -1.4363
 2106TIP3    H227810   1.707   4.159  15.174 -1.0319  1.0761  0.1114
 2107TIP3   OH227811   4.574   1.371  14.917  0.4326  0.1578 -0.1009
 2107TIP3    H127812   4.548   1.443  14.860  1.1934  0.8738  0.4388
 2107TIP3    H227813   4.491   1.337  14.951 -0.0518 -0.4562 -1.8027
 2108TIP3   OH227814   6.747   5.002  15.289  0.4199  0.1236  0.4962
 2108TIP3    H127815   6.833   4.992  15.247  0.0277 -0.6038 -0.1427
 2108TIP3    H227816   6.738   4.924  15.344 -0.6881 -0.8661 -1.0033
 2109TIP3   OH227817   1.423   2.333   5.908 -0.3936 -0.3039  0.0542
 2109TIP3    H127818   1.433   2.418   5.951  2.4730 -0.4804 -0.0376
 2109TIP3    H227819   1.410   2.271   5.980  0.5990 -0.1244  0.4099
 2110TIP3   OH227820   5.951   6.337   4.703  0.2518 -0.2448 -0.0764
 2110TIP3    H127821   5.890   6.264   4.717 -0.8270  0.3722 -1.3245
 2110TIP3    H227822   5.931   6.368   4.615  2.3045  0.0794 -0.4673
 2111TIP3   OH227823   0.306   0.150  15.035 -0.3458 -0.4932  0.3116
 2111TIP3    H127824   0.261   0.227  15.069  0.0598 -0.3864  0.6169
 2111TIP3    H227825   0.367   0.126  15.104 -0.3420 -0.9806  0.1382
 2112TIP3   OH227826   0.549   1.075   4.576  0.1785 -0.4651 -0.0468
 2112TIP3    H127827   0.502   1.122   4.645  0.9070 -1.8667  1.4675
 2112TIP3    H227828   0.517   0.985   4.581  1.3612 -0.9379 -0.4864
 2113TIP3   OH227829   2.078   5.047  13.931 -0.0549  0.4453  0.3035
 2113TIP3    H127830   2.083   5.121  13.992 -1.9670  0.0504  1.0276
 2113TIP3    H227831   2.149   5.062  13.869 -0.4374  2.9757  0.3435
 2114TIP3   OH227832   2.175   5.846   0.053 -0.2638 -0.0823  0.3350
 2114TIP3    H127833   2.210   5.786  -0.013  1.3666 -0.0855  1.1401
 2114TIP3    H227834   2.103   5.891   0.010 -0.6165 -1.6053 -0.7398
 2115TIP3   OH227835   4.510   1.626   2.133  0.2577  0.3020 -0.0027
 2115TIP3    H127836   4.557   1.544   2.151 -0.2332 -0.0748 -0.3898
 2115TIP3    H227837   4.491   1.662   2.219  0.7494  0.1647  0.1654
 2116TIP3   OH227838   1.080   5.970   4.749  0.1167 -0.2451  0.0663
 2116TIP3    H127839   1.056   6.044   4.804 -0.2646 -0.7602  0.6025
 2116TIP3    H227840   0.999   5.945   4.705  0.6085  0.7758 -1.5096
 2117TIP3   OH227841   4.129   6.838   1.980 -0.8257  0.0372  0.9422
 2117TIP3    H127842   4.109   6.747   1.958  0.1791  0.0387 -0.1179
 2117TIP3    H227843   4.088   6.889   1.910 -0.3310  0.2920  0.8291
 2118TIP3   OH227844   4.809   0.740  14.144 -0.1019 -0.5106  0.4067
 2118TIP3    H127845   4.830   0.773  14.231  2.3249 -0.7895  0.0056
 2118TIP3    H227846   4.714   0.730  14.144 -0.4510  1.9113  2.1375
 2119TIP3   OH227847   5.551   2.882  14.054 -0.4180 -0.0509  0.0361
 2119TIP3    H127848   5.474   2.938  14.040  0.1221  0.6717 -0.0656
 2119TIP3    H227849   5.570   2.891  14.148  1.1555  1.9290 -0.4029
 2120TIP3   OH227850   5.975   2.445   5.585 -0.2485  0.0580 -0.6012
 2120TIP3    H127851   5.992   2.364   5.538  0.0276  0.0870 -0.5529
 2120TIP3    H227852   5.951   2.417   5.673  0.5620  0.0523 -0.3747
 2121TIP3   OH227853   5.516   5.789  15.919  0.2658  0.3491 -0.0404
 2121TIP3    H127854   5.477   5.750  15.840 -1.0675  0.5099  0.5099
 2121TIP3    H227855   5.536   5.879  15.894 -0.6059  0.5426 -0.0574
 2122TIP3   OH227856   2.670   3.845  14.919  0.0389 -0.0659 -0.1159
 2122TIP3    H127857   2.625   3.858  14.835  0.3910 -0.3656 -0.3481
 2122TIP3    H227858   2.728   3.921  14.927  1.1806 -0.8438 -0.8942
 2123TIP3   OH227859   3.106   4.830   0.395 -0.7957 -0.5714 -0.1065
 2123TIP3    H127860   3.065   4.772   0.460 -0.3222 -0.6128  0.1580
 2123TIP3    H227861   3.032   4.868   0.347 -1.1383 -0.7844  0.2453
 2124TIP3   OH227862   2.307   0.004   0.631  0.2598  0.1675  0.3829
 2124TIP3    H127863   2.308   0.091   0.671 -0.6932  0.1797  0.3973
 2124TIP3    H227864   2.400  -0.018   0.620  0.5358  0.5974  1.6465
 2125TIP3   OH227865   4.841   4.567  15.555  0.6713  0.0595  0.4017
 2125TIP3    H127866   4.795   4.501  15.606  0.3973 -0.0996 -0.0447
 2125TIP3    H227867   4.849   4.642  15.614  0.6963 -0.2548  0.8007
 2126TIP3   OH227868   3.190   2.994  16.462  0.0997  0.0645 -0.0130
 2126TIP3    H127869   3.185   2.933  16.388  0.5378 -2.6961  2.0640
 2126TIP3    H227870   3.108   2.980  16.510  0.2165  1.1444  0.5405
 2127TIP3   OH227871   5.948   1.118   3.686  0.3316 -0.3117 -0.0521
 2127TIP3    H127872   6.015   1.060   3.649  0.3098 -0.4507  0.1228
 2127TIP3    H227873   5.988   1.151   3.767 -0.2178 -1.2366  0.6198
 2128TIP3   OH227874   3.404   3.165  15.591 -0.0420  0.0719 -0.0748
 2128TIP3    H127875   3.315   3.196  15.605 -0.3422 -0.9375  0.2948
 2128TIP3    H227876   3.458   3.222  15.646 -0.6791 -0.5979  1.2843
 2129TIP3   OH227877   1.750   2.136   0.205  0.2201 -0.4124 -0.2391
 2129TIP3    H127878   1.675   2.076   0.198 -3.2176  3.5449 -1.3195
 2129TIP3    H227879   1.760   2.172   0.117  4.5507 -1.7537 -0.5006
 2130TIP3   OH227880   4.154   4.776  16.383 -0.0358  0.0470 -0.4463
 2130TIP3    H127881   4.243   4.756  16.412  0.1943  0.5189 -0.8161
 2130TIP3    H227882   4.165   4.838  16.310 -0.6817  0.5031 -0.1695
 2131TIP3   OH227883   2.246   6.636  13.105  0.5007  0.1956  0.1044
 2131TIP3    H127884   2.181   6.659  13.172  1.5202  1.0184  0.8317
 2131TIP3    H227885   2.328   6.626  13.154  0.8190 -1.4789 -0.6996
 2132TIP3   OH227886   6.271   3.969   6.656  0.1062 -0.3508  0.5129
 2132TIP3    H127887   6.290   3.877   6.673  0.8480  0.1197  2.5933
 2132TIP3    H227888   6.357   4.011   6.654 -0.2819  0.4956  1.0372
 2133TIP3   OH227889   4.305   4.210  16.332  0.7785  0.3056 -0.1813
 2133TIP3    H127890   4.336   4.300  16.337  1.4004  0.0533  0.7646
 2133TIP3    H227891   4.366   4.166  16.272 -0.0375  0.6905 -1.3434
 2134TIP3   OH227892   6.062   1.024  12.140 -0.4633 -0.1574  0.1064
 2134TIP3    H127893   6.067   1.034  12.235 -1.0038  2.0754 -0.0544
 2134TIP3    H227894   6.117   1.093  12.105  0.4422 -1.4932 -1.2463
 2135TIP3   OH227895   3.219   6.449  16.382  0.6703  0.4927  0.4164
 2135TIP3    H127896   3.240   6.541  16.364  1.5653 -0.0559 -1.5955
 2135TIP3    H227897   3.299   6.412  16.417  1.5336 -0.3132 -2.1724
 2136TIP3   OH227898   6.469   5.854   0.049  0.1448  0.2610 -0.0152
 2136TIP3    H127899   6.408   5.822   0.116 -0.0932  0.2448 -0.2399
 2136TIP3    H227900   6.516   5.776   0.020 -0.8885 -0.0198 -1.0315
 2137TIP3   OH227901   4.370   0.346  14.611 -0.2951 -0.8075 -0.4375
 2137TIP3    H127902   4.334   0.412  14.552  0.3028 -0.9610 -0.9914
 2137TIP3    H227903   4.392   0.395  14.691 -1.2210 -0.6213 -0.2857
 2138TIP3   OH227904   3.609   4.418   1.710 -0.1840 -0.3491  0.7716
 2138TIP3    H127905   3.599   4.500   1.759  1.0430  0.1330  0.2697
 2138TIP3    H227906   3.584   4.350   1.772 -0.9612  0.3862  1.2942
 2139TIP3   OH227907   1.940   4.408   4.177  0.4765  0.4932 -0.1389
 2139TIP3    H127908   1.923   4.498   4.149  0.6984  0.3874 -0.6098
 2139TIP3    H227909   1.971   4.417   4.267 -1.4868  0.7469  0.5726
 2140TIP3   OH227910   5.085   2.974  11.869 -0.0886  0.0940  0.0858
 2140TIP3    H127911   5.176   2.946  11.883 -0.9147 -2.3495  1.1774
 2140TIP3    H227912   5.061   3.018  11.950  0.4104  1.8458 -0.6562
 2141TIP3   OH227913   3.354   2.977  14.523 -0.0635 -0.4288  0.3282
 2141TIP3    H127914   3.281   3.036  14.505 -0.4948 -0.8927  0.5205
 2141TIP3    H227915   3.338   2.901  14.467 -0.5789 -1.2079  1.4725
 2142TIP3   OH227916   3.314   2.792   5.325 -0.0142  0.0608 -0.1167
 2142TIP3    H127917   3.332   2.754   5.239  1.1074  0.4566 -0.0735
 2142TIP3    H227918   3.300   2.716   5.382  0.6101 -0.2466 -0.3652
 2143TIP3   OH227919   2.393   1.841   5.841 -0.3367 -0.1136  0.1360
 2143TIP3    H127920   2.420   1.885   5.922  2.4470  0.2133 -0.8647
 2143TIP3    H227921   2.317   1.890   5.811  0.9936  2.3598  0.5217
 2144TIP3   OH227922   6.676   2.273   3.996  0.7446  0.1860 -0.3550
 2144TIP3    H127923   6.683   2.292   3.902 -2.8647  2.5804 -0.3297
 2144TIP3    H227924   6.744   2.326   4.036  0.4517  1.4537 -1.4530
 2145TIP3   OH227925   4.478   1.794  11.954  0.2528 -0.1192 -0.1206
 2145TIP3    H127926   4.515   1.812  11.868 -0.5305  0.5218 -0.3393
 2145TIP3    H227927   4.400   1.850  11.959 -0.4773 -1.1548  0.4682
 2146TIP3   OH227928   3.045   4.676   3.159  0.4477 -0.0359  0.0784
 2146TIP3    H127929   3.085   4.590   3.152  1.7366  0.5262  0.1469
 2146TIP3    H227930   3.119   4.736   3.171 -0.3296  1.1874 -0.8843
 2147TIP3   OH227931   6.034   1.303   1.574  0.2763 -0.5323 -0.1410
 2147TIP3    H127932   6.098   1.366   1.542 -1.6473  1.0958 -1.0182
 2147TIP3    H227933   5.949   1.339   1.547 -1.2160 -1.3307  2.9729
 2148TIP3   OH227934   1.395   0.046  15.472  0.0622  0.1836  0.2412
 2148TIP3    H127935   1.301   0.036  15.488 -0.1755  1.5778 -0.1170
 2148TIP3    H227936   1.417  -0.026  15.413 -0.8774  0.0583  0.0290
 2149TIP3   OH227937   4.532   3.525  13.215 -0.6016 -0.6590 -0.8209
 2149TIP3    H127938   4.565   3.597  13.161  0.5610 -0.4216  0.1800
 2149TIP3    H227939   4.607   3.466  13.225  0.2377  0.7668  3.0169
 2150TIP3   OH227940   5.086   3.518  16.158  0.3134  0.1933  0.1466
 2150TIP3    H127941   5.084   3.556  16.246  0.7258 -0.0465  0.2650
 2150TIP3    H227942   5.179   3.505  16.140  0.2641  0.6438 -0.5029
 2151TIP3   OH227943   1.771   1.457   0.678 -0.2919  0.1368  0.0824
 2151TIP3    H127944   1.711   1.490   0.745  0.2067  0.7961  0.2220
 2151TIP3    H227945   1.745   1.504   0.598  1.9163  2.8118  0.7624
 2152TIP3   OH227946   6.102   5.647   3.030  0.4572  0.0209 -0.4865
 2152TIP3    H127947   6.036   5.623   2.965  1.2911  0.6909 -1.5921
 2152TIP3    H227948   6.136   5.731   3.001  0.8840  0.3155  0.7983
 2153TIP3   OH227949   4.925   0.448  13.614 -0.5260 -0.0136 -0.5142
 2153TIP3    H127950   4.908   0.419  13.703 -0.6310 -0.3593 -0.6417
 2153TIP3    H227951   4.938   0.542  13.620  2.5772 -0.3849  0.3469
 2154TIP3   OH227952   3.882   0.288   3.450  0.3535  0.2497 -0.0877
 2154TIP3    H127953   3.888   0.293   3.354  0.4999 -2.0917 -0.2588
 2154TIP3    H227954   3.796   0.247   3.466  0.7971 -0.4143  0.7051
 2155TIP3   OH227955   0.273   1.058   4.738 -0.3174  0.1681 -0.2617
 2155TIP3    H127956   0.224   1.024   4.813 -1.1392 -0.3208 -1.0065
 2155TIP3    H227957   0.306   0.980   4.694 -0.7527  0.4074 -1.0158
 2156TIP3   OH227958   0.971   3.401  14.793  0.5020  0.0317 -0.3046
 2156TIP3    H127959   1.038   3.408  14.861 -0.6006  1.3501  0.7232
 2156TIP3    H227960   0.982   3.480  14.741 -0.0532  0.1166 -0.3013
 2157TIP3   OH227961   5.500   5.112   4.886  0.4217 -0.2227 -0.4346
 2157TIP3    H127962   5.449   5.073   4.816  0.0987  0.5011 -0.6192
 2157TIP3    H227963   5.511   5.042   4.950 -1.7556 -0.1210  0.1233
 2158TIP3   OH227964   3.872   0.944  12.373 -0.4984  0.0443  0.4095
 2158TIP3    H127965   3.909   0.923  12.459 -0.2666  0.9662  0.5489
 2158TIP3    H227966   3.822   0.866  12.348 -0.6830 -0.1777  1.4406
 2159TIP3   OH227967   5.773   5.522   2.239 -0.1653  0.6000  0.1795
 2159TIP3    H127968   5.694   5.506   2.188 -0.1408 -0.3925  0.4241
 2159TIP3    H227969   5.742   5.537   2.328  0.0074 -2.7587  0.9263
 2160TIP3   OH227970   1.104   1.181   0.637 -0.5443 -0.0877  0.1537
 2160TIP3    H127971   1.176   1.240   0.614 -0.8534  0.2836  0.1312
 2160TIP3    H227972   1.048   1.181   0.559 -1.1401  0.4844  0.5719
 2161TIP3   OH227973   5.997   4.713  16.838  0.0005  0.0721  0.2250
 2161TIP3    H127974   6.083   4.674  16.854  0.1725  0.2651 -0.1932
 2161TIP3    H227975   6.016   4.805  16.819 -0.0170 -0.3880 -2.3945
 2162TIP3   OH227976   4.075   5.283  15.077 -1.0706 -0.1145  0.2669
 2162TIP3    H127977   4.141   5.227  15.035 -1.2397 -0.9499  1.0872
 2162TIP3    H227978   4.104   5.372  15.058  0.6605 -0.4548  1.1474
 2163TIP3   OH227979   3.058   1.010   0.135 -0.5615 -0.5265 -0.0211
 2163TIP3    H127980   3.152   1.010   0.114 -0.0956 -0.6018  1.9166
 2163TIP3    H227981   3.037   1.102   0.150 -0.3809 -0.6649  1.1751
 2164TIP3   OH227982   3.029   6.318   4.060 -0.1385  0.0534 -0.4536
 2164TIP3    H127983   3.004   6.410   4.053  0.4901  0.2447 -0.2607
 2164TIP3    H227984   3.007   6.280   3.975 -3.0891 -0.3178  0.3662
 2165TIP3   OH227985   0.864   0.407  11.685  0.0757  0.2685 -0.0095
 2165TIP3    H127986   0.919   0.391  11.608  0.6463 -2.2471  0.8272
 2165TIP3    H227987   0.842   0.320  11.717  1.2710  1.1547  3.6825
 2166TIP3   OH227988   3.347   4.523   4.389  0.8205  0.0854  0.6681
 2166TIP3    H127989   3.326   4.523   4.482 -1.0767 -0.2928  0.2810
 2166TIP3    H227990   3.276   4.573   4.348  1.5200  0.0868 -0.5945
 2167TIP3   OH227991   2.257   2.409   1.370  0.1108 -0.4108 -0.0231
 2167TIP3    H127992   2.314   2.480   1.400  1.2984 -0.6097 -1.6935
 2167TIP3    H227993   2.178   2.454   1.340  0.6077  0.1698 -0.4961
 2168TIP3   OH227994   0.786   4.744   0.862  0.0219  0.0663 -0.1047
 2168TIP3    H127995   0.824   4.744   0.950 -0.5795 -0.1119  0.1627
 2168TIP3    H227996   0.831   4.672   0.817 -2.2397 -2.4329  1.2550
 2169TIP3   OH227997   3.006   5.777  15.069  0.1846 -0.4040 -0.0437
 2169TIP3    H127998   2.944   5.833  15.116 -0.1682 -0.9360  0.1366
 2169TIP3    H227999   3.039   5.716  15.134  0.5947 -0.3873 -0.2304
 2170TIP3   OH228000   1.064   5.991   2.930 -0.1717 -0.2247  0.4161
 2170TIP3    H128001   1.071   5.953   2.842 -0.0140 -1.7940  1.0737
 2170TIP3    H228002   1.145   6.039   2.943 -0.7800  1.2253 -0.8061
 2171TIP3   OH228003   6.839   5.777   2.710  0.2079 -1.1666  1.0155
 2171TIP3    H128004   6.820   5.725   2.631 -1.6488  0.2296  0.4951
 2171TIP3    H228005   6.755   5.785   2.755  0.6487  0.5504  1.5925
 2172TIP3   OH228006   5.314   0.971   1.948  0.4044 -0.3962  0.0770
 2172TIP3    H128007   5.361   0.892   1.922  0.2596  0.0212 -1.5555
 2172TIP3    H228008   5.350   1.040   1.892 -1.3831  0.1345 -0.4902
 2173TIP3   OH228009   5.181   2.661  12.441 -0.9841 -0.3537  0.3819
 2173TIP3    H128010   5.172   2.628  12.351 -0.0959  0.1293  0.1031
 2173TIP3    H228011   5.217   2.586  12.490 -3.0433 -1.1688  0.7393
 2174TIP3   OH228012   2.733   3.774  15.165  0.1623 -0.0906  0.2320
 2174TIP3    H128013   2.699   3.805  15.081 -1.2514 -0.0184  0.7872
 2174TIP3    H228014   2.827   3.765  15.152 -0.1642 -1.2395 -1.7184
 2175TIP3   OH228015   0.276   0.904  10.989  0.1359  0.7265  0.7104
 2175TIP3    H128016   0.361   0.936  11.019 -0.7419  2.3127  1.7061
 2175TIP3    H228017   0.239   0.978  10.940 -0.6257  0.0295  0.2019
 2176TIP3   OH228018   2.204   2.886  10.760  0.7972  0.3837 -0.0547
 2176TIP3    H128019   2.134   2.859  10.700  0.5595  0.3603  0.2278
 2176TIP3    H228020   2.254   2.805  10.775 -0.3865 -0.1371  1.4194
 2177TIP3   OH228021   4.606   0.531  15.668 -0.3833  0.4273  0.2356
 2177TIP3    H128022   4.564   0.615  15.651 -0.8475  0.5150  1.7429
 2177TIP3    H228023   4.553   0.490  15.737  0.3010 -0.7511  0.0968
 2178TIP3   OH228024   5.005   1.721   5.244 -0.5776  0.2009 -0.2076
 2178TIP3    H128025   4.959   1.753   5.321  1.3728 -0.3253  1.2596
 2178TIP3    H228026   5.097   1.721   5.269  0.0356 -0.8957 -2.2113
 2179TIP3   OH228027   0.666   2.523   1.721 -0.3945  0.5720  0.0914
 2179TIP3    H128028   0.712   2.440   1.715  0.1600  0.9371 -0.9288
 2179TIP3    H228029   0.676   2.563   1.635 -3.4407  0.2564 -0.5298
 2180TIP3   OH228030   2.840   3.694  16.058 -0.6323  0.7143 -0.6035
 2180TIP3    H128031   2.853   3.617  16.002 -1.0659  1.0666 -1.2004
 2180TIP3    H228032   2.746   3.710  16.056 -0.4277  1.9917 -1.5023
 2181TIP3   OH228033   5.944   2.846  12.690  0.5010  0.0616 -0.3011
 2181TIP3    H128034   6.017   2.864  12.749  1.1518  0.0013 -1.0617
 2181TIP3    H228035   5.955   2.910  12.619 -2.7072  3.1143  1.6161
 2182TIP3   OH228036   3.798   1.204  11.087  0.0483  0.0557  0.2767
 2182TIP3    H128037   3.708   1.213  11.054  0.6550  1.4945 -1.1298
 2182TIP3    H228038   3.832   1.126  11.044 -0.4893 -0.4463  0.7471
 2183TIP3   OH228039   4.866   5.533   5.543 -0.5863 -0.3052  0.6062
 2183TIP3    H128040   4.906   5.618   5.566 -0.1144 -0.5008  0.5180
 2183TIP3    H228041   4.860   5.487   5.627 -1.5914  0.1192  0.7858
 2184TIP3   OH228042   6.611   4.514   1.778 -0.8305 -0.2175  0.3276
 2184TIP3    H128043   6.594   4.540   1.687  1.1316 -0.4258 -0.1346
 2184TIP3    H228044   6.571   4.427   1.786 -0.9686 -0.2239 -0.3448
 2185TIP3   OH228045   1.894   1.316  14.919  0.1084 -1.0156 -0.2130
 2185TIP3    H128046   1.858   1.267  14.992 -1.2768 -0.2433 -0.3432
 2185TIP3    H228047   1.818   1.337  14.864  0.7663  0.5214 -0.5882
 2186TIP3   OH228048   1.738   6.837   1.994 -0.7388  0.7202 -0.0012
 2186TIP3    H128049   1.819   6.884   2.014 -1.6968  2.5405 -0.2169
 2186TIP3    H228050   1.717   6.791   2.075  0.6247  0.0091 -0.0260
 2187TIP3   OH228051   4.636   6.156  12.610  0.2066 -0.4830  0.0722
 2187TIP3    H128052   4.553   6.195  12.635  1.0900  1.6601 -0.1357
 2187TIP3    H228053   4.628   6.139  12.516  1.0182  2.7140 -0.6876
 2188TIP3   OH228054   6.614   0.909  16.425 -0.1750 -0.0538  0.4102
 2188TIP3    H128055   6.613   1.002  16.444 -0.3203  0.3690 -1.4271
 2188TIP3    H228056   6.700   0.892  16.387 -0.3186 -0.5477  0.2865
 2189TIP3   OH228057   0.124   6.360  10.359 -0.5099 -0.2878  0.3043
 2189TIP3    H128058   0.041   6.315  10.374 -0.1896 -1.3947 -1.0407
 2189TIP3    H228059   0.191   6.295  10.379 -0.0407 -1.3162 -3.6434
 2190TIP3   OH228060   3.434   0.755  14.294 -0.0625 -0.2066 -0.0666
 2190TIP3    H128061   3.407   0.832  14.244  1.3877 -0.6549 -1.6293
 2190TIP3    H228062   3.526   0.770  14.314 -0.1478 -0.8887  0.8918
 2191TIP3   OH228063   1.384   4.925  15.445 -0.2147  0.2594  0.5755
 2191TIP3    H128064   1.392   4.840  15.487  1.7185  0.3764  0.5510
 2191TIP3    H228065   1.372   4.905  15.352 -3.2153  0.0240  0.9209
 2192TIP3   OH228066   1.311   3.428   4.232 -0.1222  0.6059  0.3720
 2192TIP3    H128067   1.302   3.371   4.309  0.3459 -1.6699 -1.1458
 2192TIP3    H228068   1.365   3.377   4.172  1.5354  3.3017 -0.5736
 2193TIP3   OH228069   4.783   5.274   1.878  0.0490 -0.1444  0.5882
 2193TIP3    H128070   4.802   5.296   1.787 -0.1498  0.6733  0.7330
 2193TIP3    H228071   4.860   5.225   1.908 -0.1848 -1.0393 -0.2108
 2194TIP3   OH228072   3.771   1.023  12.038  0.0849 -0.0008  0.8209
 2194TIP3    H128073   3.816   1.096  12.082  1.6275  2.3799 -3.9914
 2194TIP3    H228074   3.680   1.051  12.032  0.5758  1.4813 -0.5707
 2195TIP3   OH228075   2.817   4.435  16.313 -0.5176 -0.0056 -1.0836
 2195TIP3    H128076   2.908   4.458  16.332 -1.4076  0.4322  3.6340
 2195TIP3    H228077   2.823   4.348  16.271  2.0393  0.6529 -2.2974
 2196TIP3   OH228078   3.061   5.586   4.007  0.0504 -0.5928 -0.4939
 2196TIP3    H128079   3.016   5.560   4.088  1.1849 -1.5695 -0.1524
 2196TIP3    H228080   3.087   5.503   3.966  0.9250 -0.0748 -1.0239
 2197TIP3   OH228081   4.936   0.185  11.227 -0.0338 -0.5965  0.1379
 2197TIP3    H128082   4.925   0.266  11.276 -2.7087 -0.7514 -0.0254
 2197TIP3    H228083   4.857   0.179  11.172  0.5306 -2.8223 -0.5613
 2198TIP3   OH228084   2.141   2.694  16.183  0.6840  0.0615  0.3281
 2198TIP3    H128085   2.176   2.605  16.184 -1.3540 -0.8186 -0.6840
 2198TIP3    H228086   2.103   2.707  16.269  1.0254 -0.0222  0.4925
 2199TIP3   OH228087   5.690   2.449  15.789  0.6145 -0.4098  0.1418
 2199TIP3    H128088   5.613   2.482  15.835  0.2553 -0.9085 -0.0959
 2199TIP3    H228089   5.696   2.357  15.815  0.7580 -0.5387 -0.3445
 2200TIP3   OH228090   0.916   3.102   0.547  0.9840  0.5543 -0.4592
 2200TIP3    H128091   0.895   3.173   0.486 -0.2230 -0.7346 -1.6113
 2200TIP3    H228092   0.924   3.145   0.632 -1.4122  1.8780 -0.8095
 2201TIP3   OH228093   5.065   0.106  16.166  0.5302  0.4924 -0.1397
 2201TIP3    H128094   4.989   0.091  16.110 -0.5093 -2.2986  1.8124
 2201TIP3    H228095   5.034   0.165  16.234  0.7608  1.0464 -0.5061
 2202TIP3   OH228096   3.474   1.170  11.874  0.4050 -0.4643  0.0075
 2202TIP3    H128097   3.382   1.190  11.860  0.6769  0.2888 -0.7651
 2202TIP3    H228098   3.494   1.208  11.960  0.8728  2.6230 -1.3543
 2203TIP3   OH228099   2.366   5.536  16.316 -0.0584 -0.5434 -0.1939
 2203TIP3    H128100   2.338   5.562  16.404 -0.8417  1.2816 -0.9159
 2203TIP3    H228101   2.285   5.510  16.272  0.4606 -2.4203 -0.1131
 2204TIP3   OH228102   0.170   5.767   5.461  0.0858  0.3110  0.4144
 2204TIP3    H128103   0.124   5.684   5.466  0.3172  0.1237 -0.4666
 2204TIP3    H228104   0.109   5.826   5.417  0.1082  0.4812  0.6088
 2205TIP3   OH228105   1.351   1.746   5.903 -0.3573  0.0434  0.2615
 2205TIP3    H128106   1.399   1.828   5.891  1.0244 -0.6185  1.0726
 2205TIP3    H228107   1.262   1.774   5.925  0.5788  1.4349  2.7331
 2206TIP3   OH228108   3.724   3.219   2.695 -0.6108  0.2542 -0.4640
 2206TIP3    H128109   3.792   3.285   2.680 -0.8518  0.6990  0.3425
 2206TIP3    H228110   3.707   3.182   2.609 -0.1682  0.9541 -0.8615
 2207TIP3   OH228111   1.174   0.758   5.337  0.4346  0.0273  0.4246
 2207TIP3    H128112   1.083   0.761   5.367 -0.5404  0.0209 -2.3122
 2207TIP3    H228113   1.201   0.667   5.352  0.0711  0.0607  1.3697
 2208TIP3   OH228114   2.309   3.705   4.177  0.1015  0.2674  0.0278
 2208TIP3    H128115   2.365   3.628   4.173  1.3206  0.6442  4.4291
 2208TIP3    H228116   2.220   3.670   4.185 -0.1156 -0.3856 -3.5806
 2209TIP3   OH228117   1.249   3.535   0.624  0.4572 -0.0511 -0.4507
 2209TIP3    H128118   1.201   3.475   0.566  1.0675 -0.7716 -0.2223
 2209TIP3    H228119   1.338   3.499   0.627  0.3232 -0.2865  1.3056
 2210TIP3   OH228120   6.074   0.371   5.408  0.0196 -0.3348 -0.6048
 2210TIP3    H128121   6.152   0.316   5.401  0.9046  0.8387 -0.2381
 2210TIP3    H228122   6.100   0.455   5.371 -1.4608 -0.2789 -1.6248
 2211TIP3   OH228123   1.208   3.704   4.683 -0.8000 -0.1832  0.3760
 2211TIP3    H128124   1.200   3.616   4.719  0.1261  0.2671  1.7468
 2211TIP3    H228125   1.274   3.696   4.614 -0.2029 -0.4352  0.9698
 2212TIP3   OH228126   6.208   4.690   2.790 -0.0497  0.7440 -0.2370
 2212TIP3    H128127   6.243   4.696   2.701  1.6220 -1.2069  0.2012
 2212TIP3    H228128   6.282   4.714   2.846 -1.2006  2.3607  0.6618
 2213TIP3   OH228129   2.511   2.138  13.221 -0.1273 -0.1802 -0.4336
 2213TIP3    H128130   2.481   2.091  13.143 -0.4829  0.0649 -0.4509
 2213TIP3    H228131   2.489   2.080  13.294  2.7748 -1.7167 -0.6587
 2214TIP3   OH228132   4.218   4.402   2.699 -0.6483 -0.2282 -0.1000
 2214TIP3    H128133   4.240   4.488   2.663 -0.2656 -0.3089 -0.0625
 2214TIP3    H228134   4.140   4.418   2.752 -1.6008 -0.2364 -1.4665
 2215TIP3   OH228135   4.834   2.870   5.744  0.4574  0.0420 -0.0668
 2215TIP3    H128136   4.769   2.925   5.700  1.0169 -1.2431 -2.6678
 2215TIP3    H228137   4.915   2.921   5.739  0.7934 -0.5889 -1.7413
 2216TIP3   OH228138   3.663   6.087   6.408 -0.0113  0.0806 -0.1243
 2216TIP3    H128139   3.677   6.049   6.321 -2.5908  0.3302 -0.7310
 2216TIP3    H228140   3.599   6.029   6.449  0.0503  0.8064  1.0332
 2217TIP3   OH228141   4.121   5.530   3.716  0.0858  0.2350  0.3179
 2217TIP3    H128142   4.162   5.616   3.702  1.0361 -0.2852 -0.2170
 2217TIP3    H228143   4.188   5.467   3.690 -0.3421 -0.6948  1.3834
 2218TIP3   OH228144   2.454   5.724   4.961 -0.0084 -0.3176  0.3895
 2218TIP3    H128145   2.485   5.790   4.899 -0.8519  0.4490  0.7475
 2218TIP3    H228146   2.388   5.675   4.914 -1.2155  0.7735  0.8816
 2219TIP3   OH228147   2.128   0.438   0.235  0.4333 -0.2352 -0.6467
 2219TIP3    H128148   2.153   0.508   0.174  2.5134  0.7416  1.1755
 2219TIP3    H228149   2.173   0.360   0.202  1.9335  0.3915 -0.1710
 2220TIP3   OH228150   3.287   5.869  11.494  0.0382 -0.2382 -0.2948
 2220TIP3    H128151   3.277   5.850  11.400 -0.2371  0.7848 -0.4804
 2220TIP3    H228152   3.380   5.855  11.510 -0.1521 -1.8916 -0.3618
 2221TIP3   OH228153   2.596   3.389  12.899 -0.6554  0.1780  0.1275
 2221TIP3    H128154   2.509   3.353  12.916 -0.0594 -0.6785  1.5174
 2221TIP3    H228155   2.596   3.473  12.944 -0.3955 -0.3276  1.0840
 2222TIP3   OH228156   2.038   2.491  13.407 -0.0322 -0.2763 -0.4177
 2222TIP3    H128157   2.034   2.396  13.409 -0.8358 -0.2401 -0.1100
 2222TIP3    H228158   1.946   2.519  13.403  0.1125  0.5193  1.1570
 2223TIP3   OH228159   4.186   3.897  15.773 -0.4994  0.3962 -0.1944
 2223TIP3    H128160   4.202   3.861  15.861 -1.5354  0.1762 -0.0868
 2223TIP3    H228161   4.209   3.825  15.714 -3.1862 -0.7992  0.0404
 2224TIP3   OH228162   1.577   6.770   3.960 -0.3025 -0.2236 -0.1337
 2224TIP3    H128163   1.553   6.682   3.931 -0.4483 -0.1613 -0.2058
 2224TIP3    H228164   1.494   6.813   3.977 -0.2148 -0.2707  0.4184
 2225TIP3   OH228165   4.473   5.819   0.196 -0.3877  0.1061 -0.0709
 2225TIP3    H128166   4.508   5.762   0.266  1.4919 -2.3907 -2.8033
 2225TIP3    H228167   4.524   5.900   0.203  0.4290 -0.4631  0.8810
 2226TIP3   OH228168   6.120   1.445   0.970  0.0272 -0.5034 -0.1496
 2226TIP3    H128169   6.069   1.374   0.932  0.0193 -0.9545  0.6792
 2226TIP3    H228170   6.096   1.523   0.919 -0.6288 -0.9264 -0.4905
 2227TIP3   OH228171   4.203   2.059  14.816 -0.3266 -0.3375 -0.1026
 2227TIP3    H128172   4.282   2.112  14.828  0.4868 -1.2888 -1.0230
 2227TIP3    H228173   4.145   2.085  14.888 -0.1627  2.1057 -0.7578
 2228TIP3   OH228174   1.095   4.773  15.460 -0.6790  0.3029 -0.2559
 2228TIP3    H128175   1.007   4.745  15.432 -0.0986 -2.2984  0.2172
 2228TIP3    H228176   1.152   4.702  15.431  1.8676  3.2399 -3.2260
 2229TIP3   OH228177   0.831   0.407   2.700 -0.0759  0.8988  0.8351
 2229TIP3    H128178   0.841   0.371   2.788  1.7030  0.8507  0.6418
 2229TIP3    H228179   0.804   0.497   2.714  0.3027  0.9237  1.4423
 2230TIP3   OH228180   3.363   0.792  11.290 -0.5382 -0.0217 -0.0460
 2230TIP3    H128181   3.371   0.712  11.240  1.3706 -0.0098  0.1770
 2230TIP3    H228182   3.370   0.862  11.225  1.0064 -0.0205  0.0865
 2231TIP3   OH228183   1.370   6.342   4.344  0.1118 -0.4818  0.3256
 2231TIP3    H128184   1.339   6.424   4.383  0.7309 -0.2162  0.2718
 2231TIP3    H228185   1.294   6.307   4.297 -0.3003 -0.1954  0.7673
 2232TIP3   OH228186   5.829   1.000   5.344  1.2104 -0.3296 -0.0495
 2232TIP3    H128187   5.840   0.948   5.264  1.0335  1.3987 -1.2693
 2232TIP3    H228188   5.903   1.060   5.344  2.1444 -1.4065  2.0352
 2233TIP3   OH228189   0.885   6.572  10.551 -0.3932  0.0004  0.2033
 2233TIP3    H128190   0.976   6.587  10.577 -0.3628 -0.8453  0.5853
 2233TIP3    H228191   0.891   6.543  10.459 -0.2397 -0.5316  0.3784
 2234TIP3   OH228192   0.689   6.134   1.981 -0.1041 -0.0758 -0.6159
 2234TIP3    H128193   0.611   6.106   1.932  1.9300 -2.4600 -2.7633
 2234TIP3    H228194   0.702   6.065   2.046  0.9463 -0.4393 -1.1886
 2235TIP3   OH228195   4.035   0.946   4.035  0.2301  0.3939 -0.1593
 2235TIP3    H128196   4.057   1.037   4.056  2.0956  0.2322 -1.1682
 2235TIP3    H228197   3.970   0.922   4.101  0.5092  2.1139  0.8258
 2236TIP3   OH228198   4.762   2.500  16.713  0.1390  0.1784  0.9471
 2236TIP3    H128199   4.814   2.498  16.794  2.4506  0.9860 -0.4101
 2236TIP3    H228200   4.824   2.527  16.645 -1.4842 -1.2890 -1.2917
 2237TIP3   OH228201   5.507   3.746   4.196 -0.0192 -0.1175 -0.2061
 2237TIP3    H128202   5.505   3.742   4.291 -0.4243 -0.1754 -0.2152
 2237TIP3    H228203   5.416   3.735   4.169 -0.0576  0.8766 -0.5538
 2238TIP3   OH228204   4.174   5.913  15.148 -0.3292 -0.2334 -0.1649
 2238TIP3    H128205   4.216   5.948  15.070 -0.9873  0.1299 -0.3601
 2238TIP3    H228206   4.083   5.900  15.123 -0.8659  1.1411  0.9110
 2239TIP3   OH228207   2.980   3.909   5.576  0.1014 -0.0110  0.3632
 2239TIP3    H128208   2.888   3.936   5.568  0.1206 -0.2373 -0.9645
 2239TIP3    H228209   2.978   3.815   5.558  0.6463  0.0754 -0.1755
 2240TIP3   OH228210   0.451   4.975   1.249  0.1774 -0.1657 -0.0124
 2240TIP3    H128211   0.406   5.060   1.252 -1.3392 -0.9598  1.4630
 2240TIP3    H228212   0.420   4.929   1.328  2.4482 -1.3566  0.2557
 2241TIP3   OH228213   1.403   0.168  12.623  0.0656  0.1410 -0.2070
 2241TIP3    H128214   1.454   0.087  12.625 -0.9068 -0.4875 -0.0462
 2241TIP3    H228215   1.468   0.237  12.612  0.8338 -0.7486 -1.6123
 2242TIP3   OH228216   2.031   0.392   1.990 -0.5861 -0.4175  0.4932
 2242TIP3    H128217   1.995   0.405   2.078 -2.1060 -0.4624 -0.0914
 2242TIP3    H228218   2.016   0.476   1.946  1.0863 -0.0562  0.5557
 2243TIP3   OH228219   4.712   4.458  16.815 -0.0132 -0.0708  0.0548
 2243TIP3    H128220   4.784   4.401  16.792 -2.1620 -2.2908 -1.7745
 2243TIP3    H228221   4.654   4.455  16.739 -1.0915  3.2831  0.5485
 2244TIP3   OH228222   2.520   0.967   6.293 -0.0790  0.0382 -1.1972
 2244TIP3    H128223   2.451   1.027   6.322  0.6978  1.0275 -1.3361
 2244TIP3    H228224   2.535   0.991   6.202  0.6912  0.0791 -1.0633
 2245TIP3   OH228225   5.461   4.922  15.657  0.0185  0.4132  0.2321
 2245TIP3    H128226   5.442   4.900  15.748 -0.4803 -0.3093 -0.0384
 2245TIP3    H228227   5.539   4.978  15.661  0.9222 -0.8575  0.9913
 2246TIP3   OH228228   6.786   4.843  15.668  1.1836 -0.4372 -1.0307
 2246TIP3    H128229   6.840   4.773  15.705 -0.0673 -0.6135  0.5836
 2246TIP3    H228230   6.791   4.830  15.573  2.5858 -1.4632 -0.8454
 2247TIP3   OH228231   1.051   4.121  10.961 -0.6173 -0.4362  0.1931
 2247TIP3    H128232   1.063   4.049  10.899  1.1104  1.0490 -1.3028
 2247TIP3    H228233   0.991   4.181  10.917  1.8323  1.4003 -0.9088
 2248TIP3   OH228234   5.172   6.448  12.702 -0.6702 -0.1082  0.0622
 2248TIP3    H128235   5.171   6.363  12.658  0.5811 -0.4930  0.7196
 2248TIP3    H228236   5.213   6.507  12.640  0.3320 -0.4611  0.3736
 2249TIP3   OH228237   2.087   2.568  16.981 -0.3281 -0.2135  0.5499
 2249TIP3    H128238   2.043   2.644  16.942  0.2898 -0.2417 -0.2240
 2249TIP3    H228239   2.104   2.594  17.071  0.4395  0.8252  0.1261
 2250TIP3   OH228240   3.978   4.657   1.831 -0.0398  0.1528  0.4123
 2250TIP3    H128241   3.927   4.606   1.894 -0.3169 -0.0740  0.0076
 2250TIP3    H228242   3.918   4.673   1.759  0.0862  0.9437  0.4774
 2251TIP3   OH228243   5.137   3.845  10.698  0.1464  0.1444  0.7734
 2251TIP3    H128244   5.141   3.873  10.606 -3.2262 -0.0673  0.4477
 2251TIP3    H228245   5.107   3.922  10.746  1.9166  0.2667  1.8004
 2252TIP3   OH228246   5.337   3.128  13.283  0.2583  0.0328  0.5286
 2252TIP3    H128247   5.429   3.110  13.298  0.3808  0.8664  0.8543
 2252TIP3    H228248   5.295   3.112  13.368  0.5459  2.2619  1.1503
 2253TIP3   OH228249   3.434   6.200   6.076  0.3940 -0.2261 -0.4398
 2253TIP3    H128250   3.443   6.285   6.120  0.3904  0.2016 -1.2399
 2253TIP3    H228251   3.342   6.197   6.050  0.0678 -1.0611  0.7139
 2254TIP3   OH228252   6.816   5.938  11.715 -0.2935 -0.7680 -0.3423
 2254TIP3    H128253   6.896   5.961  11.763 -0.4164 -2.5618  0.8209
 2254TIP3    H228254   6.746   5.978  11.766 -0.2090  0.3299 -1.0509
 2255TIP3   OH228255   1.308   1.774  16.195 -0.5940  0.1059  0.0461
 2255TIP3    H128256   1.385   1.828  16.211 -0.6420 -0.0838  0.9290
 2255TIP3    H228257   1.236   1.821  16.236 -0.8191 -0.1082 -0.0991
 2256TIP3   OH228258   3.647   1.023  11.539 -0.2758 -0.5081  0.1655
 2256TIP3    H128259   3.664   0.987  11.626  1.0931  0.9462  0.5526
 2256TIP3    H228260   3.646   0.947  11.481  1.9093 -1.2637  1.0215
 2257TIP3   OH228261   3.179   4.125  16.493 -0.0050 -0.3505 -0.1358
 2257TIP3    H128262   3.101   4.154  16.540  0.6613 -0.0631  0.8072
 2257TIP3    H228263   3.169   4.031  16.485  0.6901 -0.6772  2.1623
 2258TIP3   OH228264   5.721   5.623  10.173 -0.1134 -0.3376 -0.1429
 2258TIP3    H128265   5.705   5.718  10.169 -1.1317 -0.5350 -1.5382
 2258TIP3    H228266   5.804   5.610  10.128 -0.3665 -0.1737 -0.6679
 2259TIP3   OH228267   4.481   1.799  16.060 -0.4789 -0.2814  0.3347
 2259TIP3    H128268   4.497   1.705  16.068  0.2443 -0.3292 -1.3763
 2259TIP3    H228269   4.556   1.832  16.010  0.0198  1.4719  2.0761
 2260TIP3   OH228270   4.787   5.637  10.634 -0.1518  0.0496 -0.1343
 2260TIP3    H128271   4.716   5.692  10.599  0.9793  0.8940 -1.2036
 2260TIP3    H228272   4.755   5.547  10.624 -0.8912  0.3948 -1.0494
 2261TIP3   OH228273   2.411   2.651   1.139 -0.1300 -0.2206 -0.2590
 2261TIP3    H128274   2.432   2.740   1.110  1.0424 -0.4088 -0.0026
 2261TIP3    H228275   2.453   2.642   1.224  1.0928 -1.5368 -0.9609
 2262TIP3   OH228276   6.725   1.135  16.560  0.1080 -0.5182 -0.0979
 2262TIP3    H128277   6.659   1.204  16.558  0.1857 -0.4601 -1.4682
 2262TIP3    H228278   6.765   1.137  16.473 -0.2777 -2.6710 -0.3842
 2263TIP3   OH228279   2.711   2.941  13.261 -0.1253  0.2496 -0.8922
 2263TIP3    H128280   2.781   3.004  13.279 -0.3516  1.0788 -2.7050
 2263TIP3    H228281   2.695   2.898  13.345  1.5741  1.0379 -0.1207
 2264TIP3   OH228282   5.092   6.509  15.405  0.1517 -0.6242  0.0290
 2264TIP3    H128283   5.064   6.598  15.427  0.7543  0.0128 -1.5777
 2264TIP3    H228284   5.182   6.520  15.374 -0.1394 -1.6081 -1.2533
 2265TIP3   OH228285   6.801   2.666  13.434 -0.0775 -0.1669  0.4996
 2265TIP3    H128286   6.773   2.626  13.517  0.2208 -1.2947  0.0760
 2265TIP3    H228287   6.859   2.601  13.395 -3.3170 -1.5617 -2.5263
 2266TIP3   OH228288   6.406   5.449  14.653  0.3396 -0.3802  0.1497
 2266TIP3    H128289   6.327   5.444  14.599  0.4221 -0.5842  0.0485
 2266TIP3    H228290   6.374   5.447  14.743  0.2282 -0.4540  0.1092
 2267TIP3   OH228291   1.550   0.752  12.894  0.1061 -0.2830 -0.0089
 2267TIP3    H128292   1.588   0.840  12.905  1.4396 -0.7185 -0.8570
 2267TIP3    H228293   1.565   0.709  12.978  1.4492 -0.4160 -0.2990
 2268TIP3   OH228294   0.363   1.757   4.771  0.0118 -0.0204  0.9287
 2268TIP3    H128295   0.400   1.690   4.714 -0.6356  1.0074 -0.7888
 2268TIP3    H228296   0.428   1.828   4.769  0.8278 -0.6572  2.9553
 2269TIP3   OH228297   2.741   0.831  13.229  0.0919 -0.2578  0.5102
 2269TIP3    H128298   2.665   0.780  13.201 -0.6032  0.9416  0.1235
 2269TIP3    H228299   2.710   0.885  13.301  0.5480  0.2857  0.3181
 2270TIP3   OH228300   3.258   4.742   0.142  0.2525  0.4295  0.0141
 2270TIP3    H128301   3.196   4.737   0.214  0.3817  0.4210  0.1265
 2270TIP3    H228302   3.315   4.666   0.154  2.1746  2.0038  1.6907
 2271TIP3   OH228303   1.273   0.952   3.612  0.0029 -0.0093  0.1336
 2271TIP3    H128304   1.209   1.011   3.572  0.7891  0.6729 -0.1507
 2271TIP3    H228305   1.357   0.981   3.577  0.2826 -2.4402 -1.4286
 2272TIP3   OH228306   5.796   1.052  14.604 -0.2702  0.1120  0.0646
 2272TIP3    H128307   5.756   1.098  14.677 -1.6290 -1.5662  0.4169
 2272TIP3    H228308   5.858   0.992  14.644 -1.2658 -1.0600 -0.1036
 2273TIP3   OH228309   6.326   0.327   4.027 -0.4110  0.2890  0.1021
 2273TIP3    H128310   6.324   0.234   4.049  1.3396 -0.0296 -0.9259
 2273TIP3    H228311   6.413   0.357   4.055 -0.3037  1.1988 -1.1167
 2274TIP3   OH228312   4.025   1.742   4.992 -0.4556 -0.0884  0.3056
 2274TIP3    H128313   4.011   1.742   5.087  0.7250  0.8406  0.5054
 2274TIP3    H228314   4.093   1.677   4.978  1.0856  1.4088  0.4308
 2275TIP3   OH228315   6.205   2.429  15.856  0.4174  0.0287 -0.5170
 2275TIP3    H128316   6.151   2.480  15.917  0.3869 -1.1576  0.4821
 2275TIP3    H228317   6.291   2.471  15.859  0.6059 -0.4019  0.8800
 2276TIP3   OH228318   1.080   6.515  16.442  0.3127 -0.0104 -0.4912
 2276TIP3    H128319   1.081   6.483  16.532 -0.6062  1.0136 -0.0935
 2276TIP3    H228320   1.163   6.563  16.432  0.3366  0.0215 -0.1359
 2277TIP3   OH228321   4.877   2.367   4.375 -0.0629 -0.2577 -0.2398
 2277TIP3    H128322   4.805   2.421   4.408  0.2925  0.5098 -0.6993
 2277TIP3    H228323   4.936   2.358   4.450  0.1605  0.4784 -0.3285
 2278TIP3   OH228324   4.016   6.567  12.761 -0.2577 -0.1731  0.3398
 2278TIP3    H128325   3.940   6.528  12.806 -0.9663  0.4985 -0.2484
 2278TIP3    H228326   3.978   6.632  12.702  0.6669 -0.9060 -1.1153
 2279TIP3   OH228327   2.881   3.238  15.475  0.0837 -0.0390 -0.2624
 2279TIP3    H128328   2.922   3.250  15.560  0.9432  3.2608 -1.0081
 2279TIP3    H228329   2.866   3.143  15.469  0.4492 -0.4606  3.2734
 2280TIP3   OH228330   5.605   5.887   3.303  0.2779 -0.0519  1.0664
 2280TIP3    H128331   5.612   5.983   3.302  0.3247 -0.0583  0.6452
 2280TIP3    H228332   5.532   5.869   3.362 -0.2550  0.2806  0.5215
 2281TIP3   OH228333   5.795   3.337  12.325  0.1982  0.5649 -0.5372
 2281TIP3    H128334   5.802   3.407  12.389 -0.3896  1.3401 -1.2892
 2281TIP3    H228335   5.739   3.374  12.256 -0.0901 -0.6321 -0.9638
 2282TIP3   OH228336   2.790   1.690  15.179 -0.0908 -0.3272  0.2265
 2282TIP3    H128337   2.828   1.713  15.264  0.9620  0.1780 -0.3564
 2282TIP3    H228338   2.865   1.687  15.119 -0.7574 -1.1384 -0.5943
 2283TIP3   OH228339   0.093   3.556  14.787 -0.0414 -0.2954  0.0032
 2283TIP3    H128340  -0.001   3.561  14.806  0.0498 -0.1542  0.4331
 2283TIP3    H228341   0.098   3.516  14.700 -0.5617  1.1104 -0.7038
 2284TIP3   OH228342   2.708   1.182   3.315 -0.0552  0.1848  0.7234
 2284TIP3    H128343   2.639   1.206   3.376 -0.4908  0.6612  0.0566
 2284TIP3    H228344   2.746   1.265   3.288 -0.0075 -0.0089  0.1870
 2285TIP3   OH228345   0.903   6.810   2.854  0.0352 -0.2342  0.0581
 2285TIP3    H128346   0.893   6.790   2.761  0.6303  0.8606 -0.2543
 2285TIP3    H228347   0.997   6.802   2.870 -0.0236 -0.0769  0.4811
 2286TIP3   OH228348   6.673   4.516  13.876  0.7627 -0.0315 -0.0717
 2286TIP3    H128349   6.639   4.556  13.956  0.8721 -2.2690  1.1551
 2286TIP3    H228350   6.604   4.531  13.811 -0.0626  0.3826  0.8710
 2287TIP3   OH228351   3.454   2.093   0.226  0.3054 -0.1786  0.2453
 2287TIP3    H128352   3.490   2.160   0.283  0.3122  1.2385 -1.3386
 2287TIP3    H228353   3.399   2.039   0.283 -0.8084  1.9934  1.3364
 2288TIP3   OH228354   5.053   4.796   2.483  0.4641 -0.3363  0.1442
 2288TIP3    H128355   5.080   4.707   2.458  0.0689 -0.6598  0.8222
 2288TIP3    H228356   5.073   4.850   2.407  1.2866 -0.9000 -0.0490
 2289TIP3   OH228357   5.463   4.760   5.789 -0.1189 -0.0558  0.7520
 2289TIP3    H128358   5.446   4.687   5.849 -0.4981  0.5318  1.3858
 2289TIP3    H228359   5.503   4.827   5.845  3.9183 -1.1453 -0.5350
 2290TIP3   OH228360   4.706   2.885   1.002 -0.3451 -0.3009 -0.3763
 2290TIP3    H128361   4.732   2.801   1.041 -1.0615  0.2041  1.2864
 2290TIP3    H228362   4.628   2.911   1.051 -1.8485 -0.0011 -2.7533
 2291TIP3   OH228363   2.106   4.565   3.970 -0.2001  0.1930 -0.1003
 2291TIP3    H128364   2.153   4.483   3.986  1.2646  1.0880  0.3824
 2291TIP3    H228365   2.168   4.633   3.996 -0.9647  1.4902 -1.5369
 2292TIP3   OH228366   0.170   4.722   1.362  0.3378 -0.0441 -0.1424
 2292TIP3    H128367   0.194   4.740   1.271 -2.5929  0.3148 -0.9634
 2292TIP3    H228368   0.177   4.806   1.406 -1.0211  0.4625 -0.8186
 2293TIP3   OH228369   1.651   6.437   2.097 -0.1053  0.2854  0.3300
 2293TIP3    H128370   1.617   6.356   2.134 -1.9238  0.3870 -0.9762
 2293TIP3    H228371   1.635   6.504   2.164 -1.8867  0.1861  0.0516
 2294TIP3   OH228372   5.106   5.401   3.669  0.3854  0.8520  0.3384
 2294TIP3    H128373   5.098   5.479   3.725 -2.9266 -0.1377  1.4887
 2294TIP3    H228374   5.164   5.342   3.718  0.5428  1.4478  0.8819
 2295TIP3   OH228375   6.285   6.494   4.349 -0.2583  0.4937  0.1939
 2295TIP3    H128376   6.339   6.467   4.274 -1.6061  1.5911 -1.2586
 2295TIP3    H228377   6.230   6.419   4.368  0.1165  0.1914  0.0871
 2296TIP3   OH228378   5.333   2.497  14.685 -0.1347  0.6315 -0.0711
 2296TIP3    H128379   5.384   2.443  14.625 -4.1004 -0.9175 -2.4067
 2296TIP3    H228380   5.308   2.573  14.634  0.1040  1.5704  1.1599
 2297TIP3   OH228381   2.848   1.505  11.519 -0.1968  0.9237 -0.8635
 2297TIP3    H128382   2.874   1.509  11.611  1.3317  0.5229 -1.2532
 2297TIP3    H228383   2.868   1.416  11.491  0.0287  1.2418 -1.7757
 2298TIP3   OH228384   3.721   0.524  11.927 -0.9588  0.0659 -0.3808
 2298TIP3    H128385   3.726   0.597  11.988 -1.0856 -0.6180  0.4756
 2298TIP3    H228386   3.654   0.550  11.864  0.9792  1.9050 -1.8165
 2299TIP3   OH228387   1.245   2.417  14.273  0.3274 -0.4014  0.1345
 2299TIP3    H128388   1.201   2.487  14.322 -0.3059  0.8318 -2.0357
 2299TIP3    H228389   1.202   2.337  14.302 -0.2514  0.3051  1.3156
 2300TIP3   OH228390   4.513   1.096   1.305  0.3580 -0.1063  0.1090
 2300TIP3    H128391   4.583   1.144   1.348  0.0075 -1.5010  2.4060
 2300TIP3    H228392   4.521   1.006   1.337 -1.5909 -0.6320 -0.6716
 2301TIP3   OH228393   4.561   0.808  15.883 -0.3646 -0.2641 -0.0125
 2301TIP3    H128394   4.602   0.837  15.965  1.6856 -2.1296 -0.2619
 2301TIP3    H228395   4.627   0.824  15.816 -1.3316 -0.3871 -1.0211
 2302TIP3   OH228396   2.150   1.813  12.176  0.4322 -0.0529 -0.1965
 2302TIP3    H128397   2.226   1.871  12.180 -0.0938  0.7092 -0.8045
 2302TIP3    H228398   2.088   1.860  12.120 -0.2562 -0.9266 -0.1816
 2303TIP3   OH228399   5.925   0.971   0.658  0.0699 -0.4795 -0.0200
 2303TIP3    H128400   6.011   0.964   0.616 -0.2379 -0.0659 -0.7359
 2303TIP3    H228401   5.866   1.000   0.588 -0.9108 -1.9380  0.1485
 2304TIP3   OH228402   5.494   6.297  13.554  0.4177  0.7071 -0.5079
 2304TIP3    H128403   5.497   6.359  13.627 -0.7251  1.6800 -1.2605
 2304TIP3    H228404   5.558   6.230  13.578 -0.1389  0.8229  1.5532
 2305TIP3   OH228405   4.705   4.593   3.881 -0.1765 -0.3096  0.7982
 2305TIP3    H128406   4.719   4.585   3.787  0.6541 -2.0941  1.0386
 2305TIP3    H228407   4.646   4.669   3.890 -0.0635  0.0538 -1.1116
 2306TIP3   OH228408   3.508   6.780  13.140  0.2137 -0.1169 -0.4469
 2306TIP3    H128409   3.440   6.794  13.074  0.5830 -0.7316 -0.9659
 2306TIP3    H228410   3.577   6.843  13.117 -0.9237  1.8972  1.2071
 2307TIP3   OH228411   0.522   3.814   2.633 -0.6188  0.2637  0.1487
 2307TIP3    H128412   0.448   3.796   2.575 -1.9533  0.5901  1.6837
 2307TIP3    H228413   0.513   3.750   2.704 -0.9116  1.8851  1.6356
 2308TIP3   OH228414   5.033   3.242  11.946 -1.0089 -0.0596  0.4500
 2308TIP3    H128415   5.057   3.296  12.022 -1.0455 -0.0348  0.4442
 2308TIP3    H228416   4.946   3.207  11.969 -1.9821  1.6251 -0.4737
 2309TIP3   OH228417   5.245   6.638  14.750 -0.0646  0.3184  0.1190
 2309TIP3    H128418   5.164   6.643  14.699  0.5695  0.8728 -0.8584
 2309TIP3    H228419   5.250   6.723  14.794  1.0934  1.2181 -1.6033
 2310TIP3   OH228420   6.196   0.552  15.505 -0.2335 -0.1987  0.2814
 2310TIP3    H128421   6.108   0.515  15.499 -0.5314  0.5045  0.1298
 2310TIP3    H228422   6.255   0.478  15.496 -0.8186 -0.8250  1.3650
 2311TIP3   OH228423   6.683   2.264  14.879 -0.5211 -0.7764 -0.2920
 2311TIP3    H128424   6.660   2.176  14.848 -1.6181 -1.3674  1.9793
 2311TIP3    H228425   6.693   2.254  14.974  0.7131  1.2897 -0.1512
 2312TIP3   OH228426   5.522   6.540  12.541  0.4934 -1.0257  0.4439
 2312TIP3    H128427   5.607   6.572  12.511 -1.2073  2.9361 -0.8699
 2312TIP3    H228428   5.531   6.530  12.635  2.1766  0.3404  0.4740
 2313TIP3   OH228429   0.475   3.930  11.691  0.6578 -0.1189  0.7883
 2313TIP3    H128430   0.415   3.867  11.730  1.1963 -2.0715 -1.3072
 2313TIP3    H228431   0.562   3.892  11.707  1.0894  0.7290  0.5082
 2314TIP3   OH228432   2.040   3.708  16.432  0.1400 -0.2673  0.0720
 2314TIP3    H128433   1.995   3.782  16.391  0.0805 -0.5539 -0.3896
 2314TIP3    H228434   2.131   3.737  16.440  0.2655 -0.4074 -0.7688
 2315TIP3   OH228435   1.863   6.039  11.071 -0.0453  0.5349  0.6107
 2315TIP3    H128436   1.899   6.108  11.127 -1.6509  2.1719 -0.2744
 2315TIP3    H228437   1.871   6.073  10.982 -0.6590 -0.5456  0.1239
 2316TIP3   OH228438   4.526   1.345   3.234  0.1015  0.2979  0.4315
 2316TIP3    H128439   4.559   1.376   3.318 -2.1237  0.0133  1.4820
 2316TIP3    H228440   4.535   1.250   3.238  2.2047  0.3861 -0.7044
 2317TIP3   OH228441   0.435   2.398   2.412  0.2978 -0.3290  0.2271
 2317TIP3    H128442   0.477   2.312   2.411  0.5790 -0.2138  0.9981
 2317TIP3    H228443   0.417   2.415   2.505 -0.1018  0.2730  0.0458
 2318TIP3   OH228444   2.917   0.261  12.360  0.0030 -0.4058  0.1354
 2318TIP3    H128445   2.823   0.245  12.361  0.2090 -1.8986  1.9463
 2318TIP3    H228446   2.953   0.188  12.308  0.0917  1.2458 -2.3090
 2319TIP3   OH228447   5.073   4.628  16.338 -0.2484 -0.0880  0.1457
 2319TIP3    H128448   5.115   4.685  16.402 -0.6474  0.8349 -0.3968
 2319TIP3    H228449   5.059   4.546  16.384  1.5381 -0.2061  0.5369
 2320TIP3   OH228450   4.608   2.323  15.291  0.3159 -0.4744 -0.1784
 2320TIP3    H128451   4.533   2.343  15.235  0.0892 -0.3614  0.1622
 2320TIP3    H228452   4.584   2.358  15.376  1.1978  0.4865 -0.3109
 2321TIP3   OH228453   1.486   0.431   3.915  0.3001  0.6772 -0.3521
 2321TIP3    H128454   1.441   0.363   3.964  1.9221  0.3471  0.7560
 2321TIP3    H228455   1.449   0.513   3.949  0.3407  0.4131  0.3444
 2322TIP3   OH228456   5.647   4.032   4.260 -0.4151 -0.2357 -0.5173
 2322TIP3    H128457   5.591   3.984   4.199  0.9303 -1.4889 -0.8119
 2322TIP3    H228458   5.593   4.106   4.289 -1.9084 -0.9287 -1.4206
 2323TIP3   OH228459   0.729   6.181  16.627 -0.4027  0.0806 -0.0815
 2323TIP3    H128460   0.824   6.188  16.613 -0.1545  1.0748  1.7738
 2323TIP3    H228461   0.721   6.120  16.701 -1.2052 -0.0165 -0.2470
 2324TIP3   OH228462   6.100   3.255  14.177  0.1664 -0.1137 -0.1542
 2324TIP3    H128463   6.126   3.253  14.085 -0.5279  0.1807 -0.3639
 2324TIP3    H228464   6.046   3.177  14.188 -1.0543  0.6641 -0.4101
 2325TIP3   OH228465   2.348   5.142  13.407 -0.1183  0.5436  0.3131
 2325TIP3    H128466   2.360   5.156  13.313  1.5786 -0.4121  0.3426
 2325TIP3    H228467   2.298   5.061  13.413 -1.9489  1.6295  0.2436
 2326TIP3   OH228468   5.351   4.168   3.503  0.2315  0.1378  0.2506
 2326TIP3    H128469   5.376   4.245   3.553  1.3039 -0.0333  0.0142
 2326TIP3    H228470   5.419   4.160   3.436 -0.2967 -0.5598 -0.2224
 2327TIP3   OH228471   2.700   0.180   4.519 -0.3854  0.2574  0.6912
 2327TIP3    H128472   2.742   0.111   4.467 -3.1038 -1.4007  0.4784
 2327TIP3    H228473   2.725   0.261   4.476  0.2853 -0.8229 -1.0602
 2328TIP3   OH228474   0.736   0.721  13.659 -0.1809 -0.0881 -0.6256
 2328TIP3    H128475   0.693   0.797  13.698  0.5232 -0.5047  1.0493
 2328TIP3    H228476   0.763   0.750  13.573 -1.7255  0.9068 -0.8061
 2329TIP3   OH228477   3.128   4.429   1.819 -0.1053 -0.2347  0.4367
 2329TIP3    H128478   3.198   4.381   1.775 -0.9063 -1.2373  0.2195
 2329TIP3    H228479   3.173   4.491   1.875  0.9755 -1.5871  1.1182
 2330TIP3   OH228480   1.572   3.516   1.864 -0.8928 -0.0832  0.4054
 2330TIP3    H128481   1.563   3.609   1.844 -0.9888 -0.5458 -1.9372
 2330TIP3    H228482   1.483   3.488   1.886 -0.9522  0.2654  0.6233
 2331TIP3   OH228483   0.804   5.638   4.043  0.6666 -0.0662  0.3994
 2331TIP3    H128484   0.816   5.563   3.984  1.3603  0.7602 -0.5531
 2331TIP3    H228485   0.772   5.708   3.986 -1.2809  0.0258  1.5079
 2332TIP3   OH228486   4.122   0.855   2.903  0.2421  0.3862  0.1217
 2332TIP3    H128487   4.163   0.770   2.888 -1.9770 -0.7517  0.0766
 2332TIP3    H228488   4.028   0.837   2.902 -0.4302  3.2275 -2.2144
 2333TIP3   OH228489   2.220   1.779   2.835  0.1500 -0.2922 -0.7242
 2333TIP3    H128490   2.201   1.831   2.913 -0.3383 -1.4617 -0.0339
 2333TIP3    H228491   2.142   1.788   2.780 -0.2836 -0.9637 -0.2244
 2334TIP3   OH228492   4.006   6.261  15.610 -0.6292 -0.2210  0.1405
 2334TIP3    H128493   3.977   6.351  15.596  1.5796  0.8290  1.7725
 2334TIP3    H228494   4.041   6.233  15.525 -0.5037  0.7726 -0.1412
 2335TIP3   OH228495   2.312   1.659   2.462  0.3445 -0.2183  0.9905
 2335TIP3    H128496   2.407   1.670   2.453 -0.0199  1.9590 -1.4833
 2335TIP3    H228497   2.302   1.575   2.508  3.4342 -1.4204 -0.2453
 2336TIP3   OH228498   0.508   5.892   3.216  0.5104 -0.4726 -0.5572
 2336TIP3    H128499   0.573   5.847   3.163 -0.6367 -1.1490 -1.4542
 2336TIP3    H228500   0.440   5.918   3.153 -0.7329 -0.9995  0.5076
 2337TIP3   OH228501   4.061   3.656   0.558 -0.5501  0.0667  0.0526
 2337TIP3    H128502   4.095   3.745   0.561  1.0453 -0.4106 -1.6777
 2337TIP3    H228503   4.078   3.621   0.646  0.2836  0.9498  0.2619
 2338TIP3   OH228504   3.453   2.372   5.189 -0.4986 -0.1287  0.5997
 2338TIP3    H128505   3.447   2.326   5.273 -1.2782 -2.1611 -0.5168
 2338TIP3    H228506   3.364   2.369   5.154 -0.1705  0.6707 -0.3364
 2339TIP3   OH228507   5.773   2.375   1.334 -0.4406  0.2484 -0.1840
 2339TIP3    H128508   5.814   2.435   1.273 -1.5927 -0.0120 -1.2553
 2339TIP3    H228509   5.747   2.430   1.408  0.7861  0.5998  0.0092
 2340TIP3   OH228510   5.610   3.616  13.553 -0.4636 -0.1138  0.3834
 2340TIP3    H128511   5.685   3.666  13.519 -0.4956  0.5585  1.2730
 2340TIP3    H228512   5.558   3.597  13.475 -0.6132  1.5235  0.0407
 2341TIP3   OH228513   6.356   6.246  10.751  0.0199 -0.7291 -0.3680
 2341TIP3    H128514   6.435   6.297  10.763 -1.4292  1.4646  0.3573
 2341TIP3    H228515   6.374   6.193  10.673  1.7816  0.5210 -0.8754
 2342TIP3   OH228516   6.805   4.125  15.665 -0.0988 -0.0530  0.1843
 2342TIP3    H128517   6.811   4.037  15.628  0.9459  0.6621 -1.4820
 2342TIP3    H228518   6.882   4.170  15.631  0.8999  0.7592  3.1982
 2343TIP3   OH228519   5.263   6.240  12.896 -0.3878 -0.2771 -0.5406
 2343TIP3    H128520   5.210   6.320  12.899 -1.7589 -1.1322 -0.6425
 2343TIP3    H228521   5.300   6.232  12.984  0.2580  0.7676 -0.7024
 2344TIP3   OH228522   3.502   3.106  14.283  0.8251  0.3221  0.4456
 2344TIP3    H128523   3.448   3.029  14.303  1.0624  0.0537  0.0498
 2344TIP3    H228524   3.449   3.157  14.222  1.2748 -0.2623 -0.4575
 2345TIP3   OH228525   0.486   6.054   4.004  0.2680  0.5525  0.1589
 2345TIP3    H128526   0.426   6.085   4.072  0.7554  1.7864  0.0554
 2345TIP3    H228527   0.511   5.967   4.033 -1.2402  0.1640  0.4213
 2346TIP3   OH228528   3.876   1.593  16.149  0.2444  0.2547  0.1224
 2346TIP3    H128529   3.817   1.665  16.124 -0.0760 -0.5140 -1.4898
 2346TIP3    H228530   3.820   1.515  16.148  0.5849 -0.0339  1.8851
 2347TIP3   OH228531   6.573   5.339  13.781  0.2740 -0.1074 -0.2063
 2347TIP3    H128532   6.577   5.244  13.766 -1.8298 -0.3603  0.4755
 2347TIP3    H228533   6.622   5.377  13.708  1.3815 -1.7101 -0.3492
 2348TIP3   OH228534   3.854   2.157   5.820 -0.2207  0.2222  0.6066
 2348TIP3    H128535   3.891   2.108   5.893  2.2188 -1.5948 -1.6649
 2348TIP3    H228536   3.905   2.130   5.744 -2.1877  2.4803 -1.7227
 2349TIP3   OH228537   0.531   6.726   2.948  0.7169 -0.3712 -0.3290
 2349TIP3    H128538   0.620   6.697   2.970  0.1317 -1.6758  0.4589
 2349TIP3    H228539   0.535   6.747   2.855  1.9495 -0.0094 -0.2067
 2350TIP3   OH228540   3.695   3.822   5.101  0.3875  0.4425  0.4738
 2350TIP3    H128541   3.636   3.850   5.171 -0.4393 -1.8486  0.7574
 2350TIP3    H228542   3.661   3.738   5.072  1.1953  0.9095 -2.1509
 2351TIP3   OH228543   1.862   4.157   2.033  0.4562 -0.7312 -0.0513
 2351TIP3    H128544   1.768   4.171   2.044  0.5922  0.1053  0.1531
 2351TIP3    H228545   1.869   4.085   1.970 -0.3194 -1.0959  0.2694
 2352TIP3   OH228546   2.433   0.432  10.612  0.3931 -0.1137  0.0502
 2352TIP3    H128547   2.493   0.474  10.674  1.0557 -2.5475  1.1911
 2352TIP3    H228548   2.346   0.451  10.646  0.7422 -1.4363  1.8687
 2353TIP3   OH228549   5.850   1.775   1.608 -0.0586 -0.1873  0.1595
 2353TIP3    H128550   5.833   1.869   1.605 -0.8912 -0.3357  0.1573
 2353TIP3    H228551   5.906   1.758   1.531 -0.0173  0.2762  0.0864
 2354TIP3   OH228552   5.618   3.099   5.759 -0.1561  0.2358  0.3823
 2354TIP3    H128553   5.545   3.134   5.810 -0.9613 -1.9329  0.7905
 2354TIP3    H228554   5.602   3.132   5.670 -0.7942  0.9959  0.7664
 2355TIP3   OH228555   5.109   3.786  14.389  0.1277  0.3754  0.4520
 2355TIP3    H128556   5.040   3.848  14.367  0.1500 -0.0822 -0.9688
 2355TIP3    H228557   5.183   3.840  14.416 -0.2583  0.9187  0.4290
 2356TIP3   OH228558   3.372   6.687  15.840  0.3101 -0.2498 -0.0797
 2356TIP3    H128559   3.317   6.664  15.915  0.5937  0.7442  0.4524
 2356TIP3    H228560   3.389   6.603  15.796 -0.2500 -0.7836  0.6908
 2357TIP3   OH228561   1.910   0.589   5.618 -0.0311  0.3172 -0.7868
 2357TIP3    H128562   1.956   0.664   5.580  1.3622  1.1045  2.1719
 2357TIP3    H228563   1.902   0.610   5.711 -2.4722 -1.8406 -0.3877
 2358TIP3   OH228564   1.160   4.616  15.100 -0.3689  0.1353  0.1114
 2358TIP3    H128565   1.139   4.527  15.129 -0.5507 -0.0815 -0.6817
 2358TIP3    H228566   1.075   4.657  15.087 -0.3433 -0.3597 -1.9107
 2359TIP3   OH228567   3.007   5.879   2.983  0.2773 -0.0183  0.1423
 2359TIP3    H128568   3.020   5.792   2.946 -0.5781 -0.1808  0.1937
 2359TIP3    H228569   3.094   5.906   3.011  0.8769 -0.0855 -1.5353
 2360TIP3   OH228570   6.814   1.977   6.075  0.4026  0.4207 -0.2051
 2360TIP3    H128571   6.875   1.963   6.147 -0.4606  2.3677  0.9725
 2360TIP3    H228572   6.758   1.900   6.075  1.1969 -0.1641  0.4129
 2361TIP3   OH228573   0.973   6.277  14.617 -0.5442  0.1451 -0.5108
 2361TIP3    H128574   0.986   6.333  14.540 -3.0681  1.4735 -0.0625
 2361TIP3    H228575   0.880   6.255  14.615 -0.2497 -1.4362  1.1152
 2362TIP3   OH228576   1.600   1.221   1.372 -0.1727  0.3897 -0.4706
 2362TIP3    H128577   1.543   1.297   1.386 -1.4463 -0.6455  0.2612
 2362TIP3    H228578   1.640   1.206   1.458 -1.2762 -0.7709 -0.1269
 2363TIP3   OH228579   1.635   5.067   0.054 -0.1091  0.1258  0.1997
 2363TIP3    H128580   1.607   5.104  -0.030  0.0944  0.0715  0.1098
 2363TIP3    H228581   1.676   5.141   0.100  2.0221 -0.4057 -0.7360
 2364TIP3   OH228582   2.042   5.877   4.940  0.5973 -0.3382  0.3095
 2364TIP3    H128583   2.120   5.918   4.902  0.0922 -0.7339 -1.2531
 2364TIP3    H228584   1.984   5.862   4.865 -0.2631 -1.6094  1.1785
 2365TIP3   OH228585   3.259   6.615   5.954  0.2166  0.3852 -0.2278
 2365TIP3    H128586   3.309   6.658   6.024  0.1556  0.3656 -0.1726
 2365TIP3    H228587   3.227   6.535   5.994 -0.0133  0.4864 -0.2095
 2366TIP3   OH228588   2.968   3.384  17.073  0.2044 -0.1545  0.1468
 2366TIP3    H128589   2.922   3.427  17.001  1.9093 -0.0037 -0.9148
 2366TIP3    H228590   2.943   3.292  17.065 -2.2631  0.3155  1.4951
 2367TIP3   OH228591   2.939   3.734   1.772 -0.3677 -0.0940  0.2855
 2367TIP3    H128592   2.908   3.783   1.696  1.5110  0.8504  0.0575
 2367TIP3    H228593   2.945   3.643   1.741  0.8428  0.3538 -0.9100
 2368TIP3   OH228594   5.153   4.711  10.577  0.3450 -0.4023 -0.4027
 2368TIP3    H128595   5.090   4.639  10.574  0.3156 -0.4921  1.3141
 2368TIP3    H228596   5.199   4.706  10.494 -0.7505 -1.4026 -0.9787
 2369TIP3   OH228597   0.012   5.931  17.031 -0.1782 -0.0143  0.4516
 2369TIP3    H128598   0.013   6.025  17.049 -1.3974  0.0977 -0.0179
 2369TIP3    H228599   0.091   5.916  16.978 -1.2105  1.1840 -1.5194
 2370TIP3   OH228600   5.941   2.065  14.059  0.1633 -0.1497  1.0404
 2370TIP3    H128601   5.896   2.144  14.090  0.0480  0.0253  0.4303
 2370TIP3    H228602   6.029   2.072  14.096  0.4648  0.7609  0.1910
 2371TIP3   OH228603   2.862   4.822  15.390 -0.6137 -0.4223  0.1580
 2371TIP3    H128604   2.952   4.788  15.396 -1.7557 -3.6895  0.9775
 2371TIP3    H228605   2.829   4.815  15.479 -2.0580 -0.4591 -0.3641
 2372TIP3   OH228606   4.085   6.738   0.818 -0.1014  0.4947  0.3679
 2372TIP3    H128607   4.137   6.678   0.765  0.5403 -0.2714  1.8011
 2372TIP3    H228608   4.003   6.691   0.834  0.4930 -0.1713  1.6900
 2373TIP3   OH228609   0.249   3.441   1.463  0.0174  0.1337  0.3085
 2373TIP3    H128610   0.300   3.359   1.459 -0.4029 -0.1424  0.6121
 2373TIP3    H228611   0.267   3.476   1.550  0.4869  0.5610  0.0494
 2374TIP3   OH228612   3.049   0.563   3.427  0.2251 -0.1349 -0.0324
 2374TIP3    H128613   3.080   0.487   3.376 -1.3944 -0.3075 -0.8212
 2374TIP3    H228614   3.008   0.619   3.362 -1.0305  0.1166  0.9521
 2375TIP3   OH228615   6.212   1.222  14.849 -0.1308  0.1767  0.2486
 2375TIP3    H128616   6.241   1.134  14.872  0.1602 -0.0611 -0.9639
 2375TIP3    H228617   6.120   1.225  14.877  0.0989 -0.2256  1.0482
 2376TIP3   OH228618   5.178   0.473  11.433 -0.2768 -0.2999  0.1057
 2376TIP3    H128619   5.148   0.408  11.496 -0.7666  1.1434  1.4222
 2376TIP3    H228620   5.099   0.499  11.385 -0.1038 -0.5694 -0.3348
 2377TIP3   OH228621   5.139   3.067   4.173  0.2853  0.5747  0.5012
 2377TIP3    H128622   5.072   3.121   4.214  1.6564  2.4083  0.4640
 2377TIP3    H228623   5.180   3.125   4.109  0.8896 -0.9808 -0.5799
 2378TIP3   OH228624   0.855   5.189  10.555 -0.4405  0.6337  0.1530
 2378TIP3    H128625   0.893   5.258  10.500 -0.7807  0.5919 -0.1361
 2378TIP3    H228626   0.789   5.234  10.607  3.2700  1.8672  4.4314
 2379TIP3   OH228627   1.920   4.197  16.426  0.4440 -0.2537  0.3476
 2379TIP3    H128628   1.864   4.250  16.483  0.3238  0.0356 -0.0411
 2379TIP3    H228629   1.999   4.250  16.414 -0.7186  1.0665 -2.1929
 2380TIP3   OH228630   4.334   1.075  13.343 -0.3316 -0.0370 -0.0463
 2380TIP3    H128631   4.269   1.008  13.321 -0.2220 -0.7006  1.5372
 2380TIP3    H228632   4.283   1.148  13.377 -0.4308  0.6437 -1.5480
 2381TIP3   OH228633   2.215   1.749  14.248  0.3534 -0.1996 -0.6906
 2381TIP3    H128634   2.260   1.685  14.193 -1.1883 -0.7790 -1.3425
 2381TIP3    H228635   2.151   1.697  14.297  0.4378  0.5820  0.2900
 2382TIP3   OH228636   3.963   5.813  12.582 -0.4318  0.1971  0.6118
 2382TIP3    H128637   3.991   5.902  12.603 -0.3389  0.4181 -0.4076
 2382TIP3    H228638   3.984   5.763  12.661 -0.8204  1.1402  1.3300
 2383TIP3   OH228639   5.056   3.098  16.223  1.1086 -0.2660 -0.6398
 2383TIP3    H128640   5.020   3.052  16.147  1.5256  1.2447 -1.7921
 2383TIP3    H228641   5.131   3.146  16.189  2.1861 -0.6706  1.0447
 2384TIP3   OH228642   6.729   4.418  16.094 -0.1847 -0.2951  0.5841
 2384TIP3    H128643   6.708   4.443  16.004  0.9741  1.1582  0.6668
 2384TIP3    H228644   6.655   4.365  16.122  0.2540 -2.3615 -1.8147
 2385TIP3   OH228645   3.165   5.949   4.812  0.4058 -0.2487  0.2959
 2385TIP3    H128646   3.128   5.876   4.860  1.6185 -1.3980 -0.4338
 2385TIP3    H228647   3.211   6.001   4.878  0.7728 -0.9668  0.6160
 2386TIP3   OH228648   2.075   4.935  10.687  0.2149 -0.3044 -0.2444
 2386TIP3    H128649   2.134   5.010  10.690  0.4331 -0.3744 -1.8869
 2386TIP3    H228650   2.099   4.888  10.607  0.0918 -2.1418  0.7402
 2387TIP3   OH228651   4.334   0.510   2.062 -0.2279  0.2146  0.8002
 2387TIP3    H128652   4.343   0.505   1.967 -0.7700 -1.9820  0.8095
 2387TIP3    H228653   4.415   0.472   2.096 -0.6791 -0.4270  1.1810
 2388TIP3   OH228654   3.565   5.194  10.753  0.0370  0.1835 -0.2552
 2388TIP3    H128655   3.634   5.255  10.782 -0.3376  0.8636 -0.7553
 2388TIP3    H228656   3.487   5.248  10.746  0.0388  0.0286 -2.2489
 2389TIP3   OH228657   0.065   1.568   0.957  0.0597  0.0833 -0.9095
 2389TIP3    H128658  -0.029   1.578   0.942  0.0352  1.3721 -0.0948
 2389TIP3    H228659   0.073   1.494   1.017 -0.6878  1.4955  1.0515
 2390TIP3   OH228660   4.727   4.209   4.073 -0.2431  0.3098 -0.1311
 2390TIP3    H128661   4.782   4.217   3.996  0.5032 -2.3641  0.0014
 2390TIP3    H228662   4.786   4.224   4.147 -0.2506 -0.1155 -0.0361
 2391TIP3   OH228663   3.282   2.728  14.693 -0.3984 -0.7478  0.4168
 2391TIP3    H128664   3.262   2.675  14.616 -0.0059  0.0962 -0.2769
 2391TIP3    H228665   3.339   2.672  14.746  1.6398 -0.3578 -1.2268
 2392TIP3   OH228666   5.219   4.107   3.103  0.0417 -0.1664 -0.4129
 2392TIP3    H128667   5.195   4.158   3.026  0.8940 -2.0288 -2.0128
 2392TIP3    H228668   5.150   4.125   3.167 -1.8297 -0.0683 -2.3419
 2393TIP3   OH228669   6.728   6.453  15.778  0.4746  0.6925 -0.3598
 2393TIP3    H128670   6.808   6.406  15.802 -1.5168 -2.9450 -0.1684
 2393TIP3    H228671   6.722   6.523  15.842  2.6373  0.0295  0.6756
 2394TIP3   OH228672   6.056   5.088   3.284  0.0211  0.1845 -0.2307
 2394TIP3    H128673   5.978   5.069   3.335  0.9595 -0.7313  0.9333
 2394TIP3    H228674   6.027   5.086   3.193 -1.2592 -0.3042  0.1744
 2395TIP3   OH228675   1.073   4.405  13.113 -0.0292  0.1234  0.0601
 2395TIP3    H128676   1.124   4.463  13.169 -0.8240  1.4269 -0.5224
 2395TIP3    H228677   1.139   4.358  13.062  0.6313  1.2053 -0.1245
 2396TIP3   OH228678   3.411   4.657  11.400 -1.1654  0.1364 -0.1275
 2396TIP3    H128679   3.363   4.603  11.337  0.3863 -0.5132 -0.8063
 2396TIP3    H228680   3.415   4.603  11.479  0.5214 -0.8688 -0.8559
 2397TIP3   OH228681   1.754   2.233   4.033  0.1352  0.9901  0.0361
 2397TIP3    H128682   1.810   2.303   4.067  1.4571  0.6516 -1.3209
 2397TIP3    H228683   1.788   2.153   4.073  0.7351  0.7695 -0.8772
 2398TIP3   OH228684   3.807   5.815   0.126 -0.1920 -0.1498 -0.0016
 2398TIP3    H128685   3.799   5.805   0.221 -0.0555  0.4366  0.0745
 2398TIP3    H228686   3.762   5.897   0.107 -2.0705 -1.2707 -0.7311
 2399TIP3   OH228687   2.270   2.939   3.085 -0.1140  0.3022 -0.1366
 2399TIP3    H128688   2.326   2.999   3.135 -1.1312  0.1850  1.2018
 2399TIP3    H228689   2.330   2.872   3.053  0.4410 -0.3837  2.1182
 2400TIP3   OH228690   1.395   2.367   1.945  0.2633 -0.1757  0.1641
 2400TIP3    H128691   1.362   2.433   1.884  0.4603 -0.4482 -0.2490
 2400TIP3    H228692   1.488   2.361   1.925  0.0633 -1.3273 -0.5590
 2401TIP3   OH228693   3.032   1.847  12.028 -0.1237 -0.4771  0.1506
 2401TIP3    H128694   3.001   1.836  12.118 -1.0729  1.1126  0.0636
 2401TIP3    H228695   3.108   1.905  12.036 -0.3773 -0.1044 -0.0713
 2402TIP3   OH228696   1.695   4.438   3.306  0.4863 -0.2158  0.5350
 2402TIP3    H128697   1.700   4.452   3.400  3.1011  1.0212  0.2801
 2402TIP3    H228698   1.715   4.523   3.267 -0.1135 -0.7927 -1.1644
 2403TIP3   OH228699   5.676   3.901  15.347 -0.3199  0.0470  0.4305
 2403TIP3    H128700   5.705   3.912  15.257 -1.7263 -0.1159 -0.0575
 2403TIP3    H228701   5.706   3.814  15.372  2.0268  0.9150  0.9142
 2404TIP3   OH228702   2.092   3.307   4.614  0.0787 -0.0228  0.1485
 2404TIP3    H128703   2.014   3.351   4.649 -0.1387 -0.2730 -0.0134
 2404TIP3    H228704   2.146   3.291   4.691  1.1116  2.3156  0.0052
 2405TIP3   OH228705   3.937   2.682  14.989  0.8214  0.0745 -0.1723
 2405TIP3    H128706   3.971   2.685  14.899 -1.8016 -2.9069 -1.4665
 2405TIP3    H228707   3.896   2.767  15.001 -1.2935 -0.3685 -3.0431
 2406TIP3   OH228708   2.515   4.939  13.204  0.5736  0.2979 -0.0250
 2406TIP3    H128709   2.427   4.904  13.194  0.3876  0.9634 -0.8210
 2406TIP3    H228710   2.522   4.962  13.297 -0.3611  0.9309 -0.1044
 2407TIP3   OH228711   6.072   0.924   4.337 -0.2186 -0.1764 -0.0701
 2407TIP3    H128712   6.036   0.945   4.251  0.8547  1.6010 -0.1244
 2407TIP3    H228713   6.146   0.866   4.319  0.0020  0.1912 -0.3576
 2408TIP3   OH228714   5.133   4.794   1.329  0.2148  0.0994  0.2569
 2408TIP3    H128715   5.155   4.876   1.372  0.7064  1.0410 -1.6866
 2408TIP3    H228716   5.061   4.815   1.270 -0.9209 -1.3100  1.0487
 2409TIP3   OH228717   4.547   3.024  13.027 -0.6126 -0.5262 -0.0345
 2409TIP3    H128718   4.625   2.979  13.059  0.3942  0.6457 -0.7601
 2409TIP3    H228719   4.476   2.995  13.085 -0.0685 -3.1427 -0.5450
 2410TIP3   OH228720   2.640   6.184  16.850  0.2496  0.0088 -0.8461
 2410TIP3    H128721   2.593   6.144  16.923  0.6059 -0.5204 -0.9019
 2410TIP3    H228722   2.600   6.146  16.772 -1.5035  2.0542 -1.0401
 2411TIP3   OH228723   2.388   0.614   3.357  0.1141  0.1974 -0.0020
 2411TIP3    H128724   2.454   0.575   3.300  1.2296  0.9908  0.6900
 2411TIP3    H228725   2.359   0.542   3.413 -0.0797 -0.3050 -0.7403
 2412TIP3   OH228726   1.605   3.607   1.026 -0.7440  0.4379 -0.2822
 2412TIP3    H128727   1.538   3.590   0.961 -0.4783 -0.6270 -0.2888
 2412TIP3    H228728   1.562   3.589   1.110 -0.4329 -0.3804 -0.2942
 2413TIP3   OH228729   3.134   6.701  13.314 -0.6092 -0.2562  0.2976
 2413TIP3    H128730   3.153   6.724  13.224 -0.9034  0.1704  0.3398
 2413TIP3    H228731   3.218   6.704  13.359 -0.5554  0.1739  0.1740
 2414TIP3   OH228732   6.648   4.291  12.597 -0.7425 -0.2577  0.1740
 2414TIP3    H128733   6.581   4.223  12.595  0.3647 -1.4491 -3.6491
 2414TIP3    H228734   6.614   4.361  12.541  0.4087 -0.0985 -0.3689
 2415TIP3   OH228735   2.130   3.267  16.655  0.0782  0.3457 -0.6508
 2415TIP3    H128736   2.159   3.296  16.742 -0.6388 -1.3266  0.2052
 2415TIP3    H228737   2.119   3.348  16.605  0.9746  1.3254  0.6581
 2416TIP3   OH228738   1.938   3.059  14.709  0.3203 -0.2616  0.7676
 2416TIP3    H128739   1.940   3.131  14.647 -2.1161  0.7447  1.7483
 2416TIP3    H228740   1.983   3.093  14.787  1.4125 -0.7548  0.3847
 2417TIP3   OH228741   1.500   0.537   2.111 -0.3024  0.4928  0.0227
 2417TIP3    H128742   1.523   0.484   2.187  0.4284  0.5868 -0.1283
 2417TIP3    H228743   1.405   0.547   2.117 -0.6703 -1.8900 -0.6420
 2418TIP3   OH228744   1.905   5.920   2.371  0.2702  0.1274  0.6360
 2418TIP3    H128745   1.908   5.882   2.283 -0.5911  2.8234 -0.6916
 2418TIP3    H228746   1.970   5.871   2.421  0.2895 -1.9616 -1.2823
 2419TIP3   OH228747   3.663   2.704  14.215  0.7870  0.5599 -0.3304
 2419TIP3    H128748   3.620   2.679  14.133 -1.8151  0.1364  1.0380
 2419TIP3    H228749   3.658   2.799  14.217  1.0565  0.5866 -0.7336
 2420TIP3   OH228750   1.593   3.293   2.989 -0.1199  0.6259 -0.1855
 2420TIP3    H128751   1.553   3.373   3.023 -0.0969  0.5006  0.1415
 2420TIP3    H228752   1.688   3.309   2.994 -0.1124  1.2620 -1.7696
 2421TIP3   OH228753   1.858   6.834  11.242  0.3856 -0.0719  0.1933
 2421TIP3    H128754   1.812   6.819  11.324  0.6592  0.6835  0.4981
 2421TIP3    H228755   1.933   6.774  11.245  1.2276  0.9674  1.1960
 2422TIP3   OH228756   2.507   4.200  11.843 -0.0756  0.1417  0.3635
 2422TIP3    H128757   2.465   4.283  11.820 -1.5511 -0.0958  1.9143
 2422TIP3    H228758   2.437   4.135  11.833  1.1343 -0.9971 -1.1155
 2423TIP3   OH228759   5.525   6.347  14.888 -0.6493 -0.4143 -0.2475
 2423TIP3    H128760   5.580   6.366  14.963 -2.1357  0.3450  0.6987
 2423TIP3    H228761   5.586   6.316  14.821  0.5206 -3.1995  1.8913
 2424TIP3   OH228762   0.653   5.337  15.846  0.1911 -0.1617  0.2256
 2424TIP3    H128763   0.591   5.329  15.919  0.4808 -0.3065  0.4550
 2424TIP3    H228764   0.739   5.336  15.887  0.3723 -0.7303 -0.1602
 2425TIP3   OH228765   3.790   5.249   0.858  0.0366  0.3528  0.3888
 2425TIP3    H128766   3.874   5.219   0.823 -0.9978  0.3161 -2.2839
 2425TIP3    H228767   3.770   5.188   0.929  0.7544 -1.6521 -1.0675
 2426TIP3   OH228768   5.682   4.741  14.486 -0.2387  0.4941 -0.0659
 2426TIP3    H128769   5.709   4.657  14.450 -0.4869  0.5495 -0.3919
 2426TIP3    H228770   5.749   4.802  14.457 -0.7790  0.6666 -1.0309
 2427TIP3   OH228771   0.161   1.983   4.144  0.4121 -0.9094 -0.8849
 2427TIP3    H128772   0.066   1.990   4.155  0.3848 -0.5914 -1.3296
 2427TIP3    H228773   0.192   1.956   4.230 -0.1799 -1.9571 -0.9807
 2428TIP3   OH228774   2.317   0.843  12.106 -0.4567  0.7393  0.3614
 2428TIP3    H128775   2.305   0.920  12.163 -1.7498  0.5580  0.3610
 2428TIP3    H228776   2.234   0.796  12.111  0.6824 -1.3326  1.3112
 2429TIP3   OH228777   5.906   2.139   4.723 -0.0999 -0.1440  0.6977
 2429TIP3    H128778   5.937   2.184   4.644  2.6426  1.0363  2.3271
 2429TIP3    H228779   5.810   2.140   4.714  0.0557  1.1513 -1.9257
 2430TIP3   OH228780   5.316   3.832   3.027  0.1602  0.1687  0.0598
 2430TIP3    H128781   5.264   3.913   3.032 -0.6452 -0.3078 -0.4238
 2430TIP3    H228782   5.341   3.826   2.935 -1.4102 -1.1116 -0.3261
 2431TIP3   OH228783   4.224   0.893  14.232 -0.3114  0.6652 -0.4927
 2431TIP3    H128784   4.215   0.827  14.163  0.5618  0.7464 -0.6931
 2431TIP3    H228785   4.211   0.843  14.313 -0.2723  0.3599 -0.6710
 2432TIP3   OH228786   0.389   4.578  11.881 -0.0047 -0.3515 -0.6375
 2432TIP3    H128787   0.412   4.546  11.794  1.4124  0.7099 -0.6918
 2432TIP3    H228788   0.422   4.512  11.941 -0.4667 -0.8015 -0.8689
 2433TIP3   OH228789   0.036   6.269   5.836 -0.0283 -0.3098 -0.4974
 2433TIP3    H128790   0.042   6.364   5.825  2.0795 -0.4796 -1.5396
 2433TIP3    H228791  -0.024   6.241   5.767 -0.8966  0.2822  0.0061
 2434TIP3   OH228792   3.117   4.472  11.494  0.4622  0.0260 -0.3447
 2434TIP3    H128793   3.106   4.547  11.435  3.1312  0.1649 -0.7733
 2434TIP3    H228794   3.202   4.486  11.535 -0.3663 -1.1958  1.9474
 2435TIP3   OH228795   4.026   4.174  14.113 -0.4175 -0.4253 -0.1206
 2435TIP3    H128796   4.005   4.132  14.197  2.4916 -2.6335 -0.3616
 2435TIP3    H228797   4.083   4.247  14.136 -0.4818 -0.3810 -0.1011
 2436TIP3   OH228798   0.536   6.045  14.077  0.5770 -0.5802 -0.0644
 2436TIP3    H128799   0.481   6.021  14.151  0.4216  1.8173  0.6847
 2436TIP3    H228800   0.574   5.962  14.047 -3.2147 -2.3716 -0.5167
 2437TIP3   OH228801   4.268   4.544   0.852  0.1144 -0.0513  0.1800
 2437TIP3    H128802   4.187   4.591   0.870  0.3724 -0.1795  1.8167
 2437TIP3    H228803   4.241   4.452   0.844 -0.2827  0.2285 -2.2579
 2438TIP3   OH228804   4.573   0.334  11.354 -0.0447  0.6382 -0.2898
 2438TIP3    H128805   4.617   0.290  11.427 -0.6412  0.7830  0.1640
 2438TIP3    H228806   4.602   0.287  11.276  0.7492  0.5990  0.0192
 2439TIP3   OH228807   5.474   2.786   2.520 -0.4477 -0.1179  0.2805
 2439TIP3    H128808   5.438   2.754   2.437 -0.2968  0.3343  0.0390
 2439TIP3    H228809   5.569   2.786   2.507 -0.4121 -0.2753  0.5369
 2440TIP3   OH228810   2.189   0.766   3.235 -0.5057 -0.1729  0.2001
 2440TIP3    H128811   2.193   0.731   3.146 -1.3238 -1.0395  0.4924
 2440TIP3    H228812   2.258   0.720   3.282  0.1271  0.5050 -0.0515
 2441TIP3   OH228813   5.466   1.736  16.635 -0.0400 -0.2058  0.7000
 2441TIP3    H128814   5.546   1.743  16.583 -1.6919  0.0464 -1.9766
 2441TIP3    H228815   5.468   1.815  16.690  1.3065  0.0443  0.3525
 2442TIP3   OH228816   3.403   1.252   3.199  0.7136  0.7415 -0.2676
 2442TIP3    H128817   3.343   1.301   3.257 -1.1620 -1.0863 -0.5427
 2442TIP3    H228818   3.357   1.248   3.115 -0.5461 -3.5524  0.3833
 2443TIP3   OH228819   2.592   1.199   1.370 -0.1203 -0.0379 -0.3666
 2443TIP3    H128820   2.668   1.144   1.386 -0.6825 -0.8391 -0.4085
 2443TIP3    H228821   2.536   1.185   1.447 -1.0919 -0.9506 -1.2040
 2444TIP3   OH228822   5.618   5.623   2.886  0.1861 -0.0059 -0.4552
 2444TIP3    H128823   5.565   5.659   2.815  0.7840 -0.3367 -1.0763
 2444TIP3    H228824   5.617   5.691   2.953 -2.3574 -0.6158  0.2624
 2445TIP3   OH228825   6.051   0.012  15.481 -0.1467 -0.2423  0.2785
 2445TIP3    H128826   5.981  -0.039  15.523  0.1557 -1.2022 -0.3488
 2445TIP3    H228827   6.007   0.059  15.410 -0.1489 -0.9331 -0.1876
 2446TIP3   OH228828   4.485   1.871   5.192  0.2973 -0.2541  0.7564
 2446TIP3    H128829   4.472   1.780   5.165 -0.4247 -0.1479  0.7192
 2446TIP3    H228830   4.420   1.886   5.260 -1.4691  0.9991 -1.0673
 2447TIP3   OH228831   1.568   6.648  11.748  1.0558  0.2078  0.0367
 2447TIP3    H128832   1.590   6.604  11.830  2.8252  0.1160 -0.4339
 2447TIP3    H228833   1.608   6.735  11.755 -1.4450  1.4110  0.4938
 2448TIP3   OH228834   3.478   3.175   5.034  0.5447 -0.4054  0.1892
 2448TIP3    H128835   3.471   3.114   4.960  0.8446  0.2540 -0.3985
 2448TIP3    H228836   3.553   3.230   5.012  0.1050  0.3636  0.5660
 2449TIP3   OH228837   3.971   0.949   4.431 -0.5069 -0.4388  0.1340
 2449TIP3    H128838   3.918   1.025   4.458 -0.4332 -1.0637  2.1848
 2449TIP3    H228839   4.003   0.912   4.513  2.4697 -0.5889 -0.9734
 2450TIP3   OH228840   2.308   2.079   3.786  0.1324  0.0224 -0.1431
 2450TIP3    H128841   2.235   2.130   3.819  0.2622  0.4581 -0.5189
 2450TIP3    H228842   2.281   2.054   3.697  1.0895  1.5566 -0.9132
 2451TIP3   OH228843   3.794   4.180   5.151  0.7584  0.3563  0.1217
 2451TIP3    H128844   3.745   4.113   5.104  0.0069  0.1493  1.1752
 2451TIP3    H228845   3.761   4.176   5.241  3.7368 -0.8659  1.2963
 2452TIP3   OH228846   2.555   4.408   0.534  0.8164 -0.5353  0.0941
 2452TIP3    H128847   2.537   4.498   0.507  0.2043 -0.7821 -0.3327
 2452TIP3    H228848   2.639   4.387   0.493  0.2098 -0.6818 -1.1054
 2453TIP3   OH228849   4.854   0.523   4.682 -0.1088 -0.1044  0.0655
 2453TIP3    H128850   4.798   0.592   4.717 -0.2275 -1.0266  1.7732
 2453TIP3    H228851   4.819   0.506   4.594 -1.0763  0.8852  0.2414
 2454TIP3   OH228852   1.248   1.417   0.835  0.1588 -0.1523 -0.5902
 2454TIP3    H128853   1.321   1.355   0.840  0.4635  0.2261 -0.1438
 2454TIP3    H228854   1.219   1.414   0.744  0.7469 -0.3021 -0.7761
 2455TIP3   OH228855   2.032   1.732   3.967 -0.9537  0.0717 -0.7513
 2455TIP3    H128856   2.113   1.688   3.938 -1.7451 -0.3700 -2.4591
 2455TIP3    H228857   1.998   1.675   4.036 -0.9559 -1.0219 -1.6063
 2456TIP3   OH228858   1.683   4.941  12.325 -0.1138 -0.5322 -0.4846
 2456TIP3    H128859   1.605   4.898  12.359 -0.0063 -0.4170 -0.0942
 2456TIP3    H228860   1.669   5.034  12.341  0.5545 -0.5893  0.5405
 2457TIP3   OH228861   2.318   0.247   0.167 -0.2749  0.2766  0.4234
 2457TIP3    H128862   2.378   0.238   0.241  1.1479 -0.3692 -0.7732
 2457TIP3    H228863   2.340   0.174   0.109 -0.3528  1.5943 -1.3236
 2458TIP3   OH228864   0.599   6.300   4.060 -0.3164  0.7353  0.3907
 2458TIP3    H128865   0.559   6.370   4.009 -0.9508 -0.1422 -0.3500
 2458TIP3    H228866   0.550   6.222   4.036  0.6375 -0.0436  0.8997
 2459TIP3   OH228867   1.584   3.324  13.207  0.5838 -0.1227 -0.6180
 2459TIP3    H128868   1.616   3.277  13.130 -0.6016  0.2842 -1.3813
 2459TIP3    H228869   1.499   3.358  13.181 -0.3252 -0.8309  1.2021
 2460TIP3   OH228870   5.009   5.126  12.905  0.3960  0.2714 -0.4820
 2460TIP3    H128871   5.005   5.114  12.810  0.4000 -0.7988 -0.3625
 2460TIP3    H228872   4.952   5.058  12.940  2.0156 -0.6986  0.3583
 2461TIP3   OH228873   2.680   2.206  16.210 -0.6694  0.9573  0.4465
 2461TIP3    H128874   2.748   2.245  16.266  0.2889  0.7279 -0.5180
 2461TIP3    H228875   2.599   2.248  16.238 -0.1942  0.9892  1.8727
 2462TIP3   OH228876   2.313   6.666   2.811  0.6499  0.2514  0.2369
 2462TIP3    H128877   2.257   6.646   2.886  0.3956 -1.1132 -0.2931
 2462TIP3    H228878   2.346   6.754   2.829 -0.5753  0.5347  1.2250
 2463TIP3   OH228879   1.500   6.063  12.968 -0.5083 -0.0745 -0.0987
 2463TIP3    H128880   1.570   6.043  12.906 -0.4350  0.5771 -0.2420
 2463TIP3    H228881   1.426   6.090  12.913  0.0699  2.1187  0.0972
 2464TIP3   OH228882   2.768   1.660  16.377 -0.4395 -0.4987 -0.2469
 2464TIP3    H128883   2.839   1.638  16.316 -0.6582 -0.3911 -0.5396
 2464TIP3    H228884   2.729   1.739  16.341  0.3149  0.3607  0.7761
 2465TIP3   OH228885   6.693   1.691   5.482  0.7381 -0.0972  0.4264
 2465TIP3    H128886   6.736   1.606   5.476  0.9846  0.0489  0.0273
 2465TIP3    H228887   6.663   1.698   5.572  0.3358 -0.7912  0.3494
 2466TIP3   OH228888   2.319   6.666   1.399  0.2307 -0.3358 -0.2127
 2466TIP3    H128889   2.342   6.758   1.411  1.5887 -0.6900  0.0778
 2466TIP3    H228890   2.223   6.665   1.393  0.0386  0.8746  1.7782
 2467TIP3   OH228891   6.370   3.028   3.397 -0.3102 -0.0193 -0.1122
 2467TIP3    H128892   6.450   3.064   3.435 -0.0982 -0.1472 -0.4340
 2467TIP3    H228893   6.339   3.097   3.338 -0.3733 -0.0171 -0.0758
 2468TIP3   OH228894   2.817   4.320   1.062 -0.2427 -0.1302  0.4140
 2468TIP3    H128895   2.849   4.245   1.013  0.3644  0.9268 -0.8763
 2468TIP3    H228896   2.889   4.383   1.059 -0.4817  0.2710  2.0308
 2469TIP3   OH228897   0.612   0.977   2.491 -0.2469  0.2315  0.5412
 2469TIP3    H128898   0.618   0.915   2.419 -1.0463  1.1896 -0.3945
 2469TIP3    H228899   0.595   0.923   2.568  1.5396 -0.8921  0.2101
 2470TIP3   OH228900   2.823   4.010   5.886  0.2650  0.1986  0.1732
 2470TIP3    H128901   2.887   3.984   5.952 -1.0626  1.6058  2.1458
 2470TIP3    H228902   2.836   4.105   5.877 -0.2116  0.1734 -0.8709
 2471TIP3   OH228903   2.351   6.269  14.814  0.5883 -0.2659 -0.1102
 2471TIP3    H128904   2.394   6.279  14.730 -1.2351 -1.7185 -1.2962
 2471TIP3    H228905   2.257   6.268  14.794  0.0568  0.1239  2.0292
 2472TIP3   OH228906   6.530   6.125   4.837  0.2333 -0.1286  0.1522
 2472TIP3    H128907   6.604   6.084   4.880  0.8212 -0.0341 -0.7431
 2472TIP3    H228908   6.511   6.203   4.890 -0.0888 -0.8625  1.1398
 2473TIP3   OH228909   3.734   3.075   5.119  0.3954 -0.1401  0.3053
 2473TIP3    H128910   3.658   3.030   5.157 -0.9996  1.1162 -0.9042
 2473TIP3    H228911   3.781   3.005   5.072 -1.0514 -0.6228 -0.5013
 2474TIP3   OH228912   0.994   4.007  13.508  0.4584  0.0173 -0.0395
 2474TIP3    H128913   1.042   4.060  13.572  0.4363  0.0128 -0.0195
 2474TIP3    H228914   0.979   3.924  13.554  2.8652 -1.0330 -0.9684
 2475TIP3   OH228915   1.520   3.135  12.938 -0.0177  0.3715 -0.4320
 2475TIP3    H128916   1.523   3.071  12.867 -0.7643  0.1862 -0.2977
 2475TIP3    H228917   1.605   3.178  12.934  0.1982 -0.0934 -1.0174
 2476TIP3   OH228918   6.057   1.196   6.324 -0.7215  0.1521  0.6324
 2476TIP3    H128919   6.024   1.107   6.332  0.8726 -0.7702 -1.8995
 2476TIP3    H228920   5.989   1.251   6.363 -0.8190 -2.2128  4.2847
 2477TIP3   OH228921   3.670   1.270   1.996 -0.1736  0.4483 -0.0362
 2477TIP3    H128922   3.627   1.354   2.015  0.8186  0.5294  2.1565
 2477TIP3    H228923   3.757   1.279   2.034  0.3120 -1.2308 -0.6708
 2478TIP3   OH228924   4.406   5.592   6.073 -0.4565  0.0958  0.3527
 2478TIP3    H128925   4.425   5.502   6.047 -2.0748 -0.0267 -0.5401
 2478TIP3    H228926   4.370   5.584   6.161  0.5247  0.0192  0.7629
 2479TIP3   OH228927   3.482   1.538  16.638  0.0861  0.1061 -0.0746
 2479TIP3    H128928   3.516   1.536  16.548  0.4571  2.1021 -0.0191
 2479TIP3    H228929   3.532   1.470  16.683 -2.1218 -3.0161 -1.9756
 2480TIP3   OH228930   6.261   5.970  12.097 -0.3390 -0.1413  0.1740
 2480TIP3    H128931   6.289   6.060  12.079 -0.9738  0.1338  0.5298
 2480TIP3    H228932   6.175   5.979  12.137 -0.4340 -0.9164  0.1612
 2481TIP3   OH228933   6.804   3.681  13.704  0.6458  0.8666  0.6395
 2481TIP3    H128934   6.814   3.612  13.639  0.2590 -0.3806  1.8789
 2481TIP3    H228935   6.712   3.680  13.728  0.3598  2.6523 -0.1917
 2482TIP3   OH228936   0.387   6.278  16.648 -0.5258  0.0412  0.5347
 2482TIP3    H128937   0.426   6.234  16.723  0.2664 -0.6909 -0.2678
 2482TIP3    H228938   0.374   6.208  16.584  0.9124  0.9785 -0.8497
 2483TIP3   OH228939   2.700   0.346  10.871 -0.0921 -0.6084 -0.0914
 2483TIP3    H128940   2.730   0.275  10.927  0.3654 -0.3794 -0.0388
 2483TIP3    H228941   2.765   0.349  10.800 -0.7204 -0.9653 -0.6962
 2484TIP3   OH228942   3.907   2.480  16.345  0.5577  0.2203 -0.3347
 2484TIP3    H128943   3.890   2.404  16.290  0.0400  0.0663  0.0308
 2484TIP3    H228944   3.946   2.544  16.285  1.1035 -0.3641 -0.6182
 2485TIP3   OH228945   2.872   3.871  13.528 -0.6489 -0.3947  0.0834
 2485TIP3    H128946   2.911   3.951  13.563 -0.8997 -0.5448  0.7302
 2485TIP3    H228947   2.873   3.883  13.433  3.5289 -1.5794 -0.2027
 2486TIP3   OH228948   0.456   4.524  14.636 -0.2129  0.3390 -0.3133
 2486TIP3    H128949   0.491   4.613  14.641  0.9061  0.0516 -2.0063
 2486TIP3    H228950   0.464   4.489  14.725 -2.2725  2.4617  0.7992
 2487TIP3   OH228951   0.272   5.634  14.569  0.3990 -0.3227  0.0195
 2487TIP3    H128952   0.278   5.545  14.603  0.9430  0.1729  1.2556
 2487TIP3    H228953   0.232   5.624  14.482  0.2678 -1.7404  0.2289
 2488TIP3   OH228954   1.913   2.382  11.220 -0.3413 -0.1535 -0.0827
 2488TIP3    H128955   1.966   2.410  11.145  0.5380  0.5001  0.7532
 2488TIP3    H228956   1.828   2.423  11.205  0.4556  1.7975  0.3072
 2489TIP3   OH228957   2.120   2.999   0.813 -0.3161  0.2383  0.4107
 2489TIP3    H128958   2.028   3.004   0.840 -0.7084 -1.6980 -0.3796
 2489TIP3    H228959   2.167   2.978   0.894 -0.9312 -1.2938  0.4166
 2490TIP3   OH228960   5.294   6.519   4.199  0.6873  0.3354  0.0615
 2490TIP3    H128961   5.381   6.508   4.237  0.9183  0.2085 -0.4944
 2490TIP3    H228962   5.278   6.438   4.151  0.4344  0.5239 -0.1769
 2491TIP3   OH228963   5.229   1.460   0.154  0.1176  0.1359 -0.6535
 2491TIP3    H128964   5.296   1.525   0.133  0.0949  0.7497  1.0234
 2491TIP3    H228965   5.147   1.500   0.124  0.2197  0.4667 -0.4986
 2492TIP3   OH228966   4.207   6.560   1.853 -0.1293 -0.8265  0.3027
 2492TIP3    H128967   4.203   6.497   1.925 -0.2054 -0.0310  1.0187
 2492TIP3    H228968   4.274   6.525   1.794 -2.4322 -3.3083 -1.0635
 2493TIP3   OH228969   4.832   5.932  10.807  0.4714 -0.3285  0.2449
 2493TIP3    H128970   4.738   5.949  10.795  0.6288 -0.0471 -0.7170
 2493TIP3    H228971   4.875   5.999  10.755  1.2225 -0.3169  0.8661
 2494TIP3   OH228972   6.516   5.555   0.169 -0.0050  0.4470 -0.2731
 2494TIP3    H128973   6.558   5.555   0.083 -0.3155 -0.1010 -0.4331
 2494TIP3    H228974   6.422   5.555   0.150 -0.0848 -0.7917  0.0407
 2495TIP3   OH228975   3.325   4.449   2.109 -0.1544  0.6517  0.1116
 2495TIP3    H128976   3.320   4.537   2.071  1.0337  0.3900 -0.6956
 2495TIP3    H228977   3.406   4.412   2.074 -2.0384 -1.8688 -1.9300
 2496TIP3   OH228978   4.579   2.314   5.062  0.0559  0.3437 -0.0673
 2496TIP3    H128979   4.590   2.255   4.987  0.2966 -0.0903  0.3086
 2496TIP3    H228980   4.491   2.297   5.093  1.2561 -2.3775  2.1913
 2497TIP3   OH228981   2.084   6.140   2.964  0.1618  0.1101 -0.1897
 2497TIP3    H128982   2.134   6.176   3.037  1.3028  0.0659 -0.9280
 2497TIP3    H228983   2.078   6.211   2.901 -0.7257  0.1139 -0.1108
 2498TIP3   OH228984   1.737   3.121   3.722  0.1014 -0.3385 -0.4323
 2498TIP3    H128985   1.685   3.159   3.651 -2.1386 -0.3818  1.0880
 2498TIP3    H228986   1.805   3.186   3.739 -0.4885  0.5501 -1.3388
 2499TIP3   OH228987   2.875   3.590  11.378 -0.1992  0.4780 -0.3031
 2499TIP3    H128988   2.937   3.578  11.306 -0.7337 -0.1586 -0.6771
 2499TIP3    H228989   2.848   3.501  11.401 -1.5413  0.7648 -0.6662
 2500TIP3   OH228990   2.947   1.680   3.375 -0.1015  0.1416 -0.0287
 2500TIP3    H128991   2.977   1.771   3.376 -1.1577  0.5098  0.4859
 2500TIP3    H228992   2.940   1.658   3.282  0.1726  0.5786 -0.1557
 2501TIP3   OH228993   0.945   6.526   3.705 -0.1204  0.5330  0.5160
 2501TIP3    H128994   0.949   6.552   3.613 -2.1005  1.4026  0.6206
 2501TIP3    H228995   0.894   6.446   3.706  0.0833  0.4035  0.8504
 2502TIP3   OH228996   3.604   5.062   4.781  0.3436 -0.6386  0.3243
 2502TIP3    H128997   3.586   5.133   4.842 -0.2693 -0.6053  0.1103
 2502TIP3    H228998   3.620   4.986   4.837 -0.6877 -0.7197  0.5316
 2503TIP3   OH228999   4.912   4.087  10.335  0.2358  0.6187  0.2237
 2503TIP3    H129000   4.882   4.162  10.387 -1.5302  0.8220 -0.9810
 2503TIP3    H229001   4.840   4.072  10.273  1.6939 -0.4301 -1.2805
 2504TIP3   OH229002   3.010   5.231  16.310  0.1414  0.3503  0.4603
 2504TIP3    H129003   2.919   5.257  16.327  0.2759  0.6661  0.7067
 2504TIP3    H229004   3.014   5.221  16.215 -0.0285  0.8017  0.4003
 2505TIP3   OH229005   3.951   4.639  15.116 -0.2783 -0.1317 -0.5263
 2505TIP3    H129006   4.009   4.667  15.045 -0.8189  1.9449 -0.2420
 2505TIP3    H229007   3.871   4.612  15.071 -0.6666  1.2974 -0.7584
 2506TIP3   OH229008   3.717   5.756  14.469  0.6097  0.0312  0.4103
 2506TIP3    H129009   3.699   5.849  14.477  1.0719  0.0117  2.2539
 2506TIP3    H229010   3.785   5.750  14.402  1.8118  1.2151  1.4759
 2507TIP3   OH229011   1.794   2.728   1.144  0.2430 -0.0320  0.2783
 2507TIP3    H129012   1.865   2.726   1.080  1.8726 -0.9622  2.0120
 2507TIP3    H229013   1.779   2.822   1.159  1.6619  0.2102  0.4074
 2508TIP3   OH229014   4.492   0.255  12.327  0.1031  0.0467  0.4428
 2508TIP3    H129015   4.476   0.166  12.357  0.9030 -0.1452  0.3173
 2508TIP3    H229016   4.522   0.302  12.404 -0.0697  0.1397  0.4524
 2509TIP3   OH229017   2.928   6.452  17.023 -0.3635 -0.2238  0.0308
 2509TIP3    H129018   2.929   6.413  16.936  1.4302 -0.8976  0.3032
 2509TIP3    H229019   2.987   6.397  17.075 -1.7056 -0.0884  1.7985
 2510TIP3   OH229020   4.624   6.144   5.869 -0.0762 -0.0490  0.4005
 2510TIP3    H129021   4.648   6.141   5.776 -1.0401  0.2944  0.1295
 2510TIP3    H229022   4.558   6.213   5.875  0.5979  0.5330  1.5002
 2511TIP3   OH229023   2.418   3.093   3.900  0.1718  0.9491 -0.1188
 2511TIP3    H129024   2.447   3.169   3.952 -0.5704  1.3919 -0.3388
 2511TIP3    H229025   2.485   3.082   3.833  1.0936  0.4330  0.8631
 2512TIP3   OH229026   2.480   4.570  11.480 -0.6908 -0.4668  0.8250
 2512TIP3    H129027   2.547   4.571  11.548  0.1076  0.0277  0.0501
 2512TIP3    H229028   2.416   4.505  11.510  0.9397 -2.1760  0.8040
 2513TIP3   OH229029   1.799   1.744   6.510 -0.0010 -0.2836  0.0666
 2513TIP3    H129030   1.856   1.815   6.540  1.2419 -0.6402 -1.3739
 2513TIP3    H229031   1.726   1.788   6.467  0.1957  0.1400  0.1645
 2514TIP3   OH229032   6.542   2.063  15.449  0.3870  0.5104 -0.2699
 2514TIP3    H129033   6.496   1.979  15.457  0.2210  0.5164 -1.0721
 2514TIP3    H229034   6.478   2.128  15.477 -0.1969  0.5350 -1.5498
 2515TIP3   OH229035   6.531   6.334  16.641 -0.3447 -0.1938  0.1755
 2515TIP3    H129036   6.451   6.294  16.676  0.4841 -0.0902  2.3564
 2515TIP3    H229037   6.501   6.415  16.599 -1.4667 -0.5420  0.2667
 2516TIP3   OH229038   3.392   3.547   3.323  0.8437  0.3946 -0.6006
 2516TIP3    H129039   3.428   3.583   3.404  0.6829  1.9664 -1.1935
 2516TIP3    H229040   3.467   3.543   3.263  0.9457 -0.6825 -0.4278
 2517TIP3   OH229041   1.667   0.811   5.832 -0.4529 -0.0895  0.4696
 2517TIP3    H129042   1.631   0.823   5.920 -1.5739  0.1266 -0.0005
 2517TIP3    H229043   1.756   0.779   5.847 -0.2253  1.0099  1.6925
 2518TIP3   OH229044   3.475   6.261   1.011  0.5194  0.0191  0.1951
 2518TIP3    H129045   3.417   6.225   0.944  0.2537 -1.0291  0.9522
 2518TIP3    H229046   3.484   6.190   1.075  1.6116  0.6200  0.7371
 2519TIP3   OH229047   6.854   5.040   2.952 -0.3361  0.0627  0.1116
 2519TIP3    H129048   6.836   5.090   3.032 -0.6657 -0.5735  0.4428
 2519TIP3    H229049   6.906   5.100   2.898 -0.7441  0.7722  0.4844
 2520TIP3   OH229050   0.323   6.374  16.261  0.7418  0.8193 -0.2415
 2520TIP3    H129051   0.356   6.350  16.174  2.4084 -4.6613  1.5400
 2520TIP3    H229052   0.232   6.345  16.262  0.9991  0.0167  0.1120
 2521TIP3   OH229053   2.935   6.457  14.030  0.2006 -0.5487 -0.0391
 2521TIP3    H129054   2.914   6.435  14.121  2.5008 -3.0844  0.0196
 2521TIP3    H229055   3.009   6.518  14.037  1.1327 -1.6336 -0.1487
 2522TIP3   OH229056   1.609   1.971  11.393  0.1731 -0.1645  0.1516
 2522TIP3    H129057   1.657   1.938  11.469 -0.9345 -1.0980  0.4775
 2522TIP3    H229058   1.628   2.065  11.391  2.6331 -0.6059 -0.2165
 2523TIP3   OH229059   3.628   2.050   4.770 -0.6679  0.4265 -1.1074
 2523TIP3    H129060   3.540   2.019   4.788  0.2271 -1.4814  0.2929
 2523TIP3    H229061   3.685   1.978   4.796  1.4579  2.5007  0.3935
 2524TIP3   OH229062   4.000   0.157  10.647  0.3673 -0.2541  0.1547
 2524TIP3    H129063   3.929   0.145  10.583 -0.2416  3.8647 -0.2137
 2524TIP3    H229064   4.080   0.155  10.594  0.2024 -0.7566 -0.0875
 2525TIP3   OH229065   1.852   4.110  12.704 -0.0567  0.3019 -0.8511
 2525TIP3    H129066   1.947   4.099  12.716 -0.3322 -0.6995  0.6878
 2525TIP3    H229067   1.834   4.068  12.619  0.9536  1.1623 -1.5277
 2526TIP3   OH229068   6.345   4.384  16.803  0.0515  0.0342  0.4082
 2526TIP3    H129069   6.303   4.333  16.734 -1.4940 -0.0770  1.4006
 2526TIP3    H229070   6.384   4.318  16.861  1.4833  0.1306 -0.3747
 2527TIP3   OH229071   0.718   2.624  11.903 -0.8047 -0.7739 -0.1772
 2527TIP3    H129072   0.699   2.534  11.876  0.8105 -1.3841  0.5763
 2527TIP3    H229073   0.710   2.622  11.999  1.5945 -0.7756  0.0866
 2528TIP3   OH229074   6.519   3.613  13.624 -0.0976  0.0813 -0.2678
 2528TIP3    H129075   6.482   3.690  13.581  0.9599  0.0941 -1.1923
 2528TIP3    H229076   6.449   3.581  13.681 -1.3954  0.2973 -1.6855
 2529TIP3   OH229077   1.742   0.423  15.777 -0.2764 -0.4625 -0.0296
 2529TIP3    H129078   1.741   0.510  15.817 -1.7731 -0.2901 -0.3898
 2529TIP3    H229079   1.749   0.440  15.683 -1.4837 -0.6733 -0.1731
 2530TIP3   OH229080   2.380   5.510   2.879  0.2323 -0.0572  0.0060
 2530TIP3    H129081   2.311   5.571   2.853  0.1280 -0.6240 -1.0952
 2530TIP3    H229082   2.335   5.440   2.926  0.3061  0.5149  0.9480
 2531TIP3   OH229083   4.175   4.854   0.810  0.1244  0.0777  0.0082
 2531TIP3    H129084   4.185   4.899   0.894  0.1066  0.6819 -0.3083
 2531TIP3    H229085   4.092   4.807   0.817 -0.1644  0.6033  0.1104
 2532TIP3   OH229086   6.014   6.824  15.075 -0.4925  0.0579  0.3278
 2532TIP3    H129087   6.070   6.760  15.118 -0.7014  0.3450  1.0456
 2532TIP3    H229088   6.074   6.876  15.021  0.0563  0.7769  1.5830
 2533TIP3   OH229089   3.129   1.983   5.922 -0.7232  0.0923  0.3749
 2533TIP3    H129090   3.053   2.024   5.881 -1.3081 -1.1752  0.1189
 2533TIP3    H229091   3.093   1.935   5.996 -0.5783 -2.3720 -1.0369
 2534TIP3   OH229092   3.759   1.516   3.952 -0.0250 -0.1030  0.2206
 2534TIP3    H129093   3.720   1.504   3.865 -0.0887 -1.8572  0.4740
 2534TIP3    H229094   3.719   1.449   4.006 -0.6445  1.5138  1.8821
 2535TIP3   OH229095   1.844   1.388  16.780 -0.5720 -0.6235  0.2099
 2535TIP3    H129096   1.835   1.388  16.685 -1.6031 -0.5935  0.2902
 2535TIP3    H229097   1.932   1.354  16.796 -0.2144 -0.1819 -0.7628
 2536TIP3   OH229098   4.649   1.567   3.404  0.5767  0.3856 -0.1541
 2536TIP3    H129099   4.716   1.572   3.336  0.6740 -0.8450 -0.1716
 2536TIP3    H229100   4.616   1.656   3.412  3.2924  1.4064  0.9316
 2537TIP3   OH229101   0.930   6.242   1.142  0.7244 -0.4496 -0.0194
 2537TIP3    H129102   0.945   6.154   1.176 -0.4288 -0.4839  0.4414
 2537TIP3    H229103   0.851   6.234   1.088  1.8197 -0.1385 -1.7445
 2538TIP3   OH229104   1.795   1.809  13.372  0.5508 -0.0329 -0.4394
 2538TIP3    H129105   1.860   1.791  13.440  0.6182 -0.3061 -0.5710
 2538TIP3    H229106   1.819   1.895  13.338  1.0254 -0.2596 -0.6874
 2539TIP3   OH229107   2.573   6.844  17.065  0.2941  0.3967 -0.2509
 2539TIP3    H129108   2.619   6.921  17.097  0.0403 -0.2914  1.9582
 2539TIP3    H229109   2.489   6.845  17.111  0.9204 -2.0123  1.1153
 2540TIP3   OH229110   6.013   0.567   5.692 -0.1260  0.2672 -0.1658
 2540TIP3    H129111   5.939   0.557   5.632 -0.2567  1.6920 -0.2892
 2540TIP3    H229112   6.059   0.483   5.689 -0.5411  0.0671 -1.7104
 2541TIP3   OH229113   3.415   5.957  14.641  0.0985 -0.6328 -0.5008
 2541TIP3    H129114   3.388   5.936  14.552  0.1250  0.1447 -0.7037
 2541TIP3    H229115   3.502   5.996  14.630  0.2875 -0.9380 -0.0910
 2542TIP3   OH229116   2.673   4.926  14.469 -0.1720 -0.1565 -0.0106
 2542TIP3    H129117   2.644   4.943  14.379 -2.2554 -0.7248  0.5111
 2542TIP3    H229118   2.645   5.004  14.517 -1.3230 -0.9386  0.6058
 2543TIP3   OH229119   2.293   3.448  15.629  0.0719 -0.0259 -0.1345
 2543TIP3    H129120   2.274   3.406  15.545 -0.1475  0.9125 -0.5634
 2543TIP3    H229121   2.317   3.538  15.606 -0.5955  0.4166  0.8510
 2544TIP3   OH229122   4.137   0.006  11.559 -0.1090 -0.6471  0.1919
 2544TIP3    H129123   4.057   0.056  11.544  1.4841  1.4780 -1.8902
 2544TIP3    H229124   4.113  -0.084  11.536 -2.4990 -0.6049  2.0733
 2545TIP3   OH229125   5.981   1.520   2.577  0.0609 -0.0674 -0.3209
 2545TIP3    H129126   5.991   1.595   2.518 -0.6231  0.3763  0.1137
 2545TIP3    H229127   6.017   1.550   2.660  1.1635 -0.7455 -0.5243
 2546TIP3   OH229128   5.602   3.082   6.123  0.2826  0.2427  0.1739
 2546TIP3    H129129   5.530   3.059   6.182  0.2082  2.5020  1.0761
 2546TIP3    H229130   5.565   3.149   6.066  1.8596  2.1265  1.2670
 2547TIP3   OH229131   2.932   2.279  13.328  0.1236  0.5580 -0.0271
 2547TIP3    H129132   3.007   2.339  13.330  0.2609  0.4234  2.4665
 2547TIP3    H229133   2.870   2.321  13.269  1.1614  1.9513 -0.1973
 2548TIP3   OH229134   4.293   6.184  12.560  0.3224  0.2083 -0.0287
 2548TIP3    H129135   4.297   6.190  12.464 -1.6102 -0.2998 -0.1867
 2548TIP3    H229136   4.322   6.269  12.591  0.1421  0.6743 -1.1083
 2549TIP3   OH229137   3.326   4.748   1.563 -0.6138 -0.2358  0.1309
 2549TIP3    H129138   3.369   4.719   1.643  0.8322 -0.6440 -0.7423
 2549TIP3    H229139   3.304   4.666   1.517 -3.7849 -0.1127  1.2126
 2550TIP3   OH229140   2.781   4.047   3.899 -0.0443  0.0070  0.1624
 2550TIP3    H129141   2.807   4.003   3.818  0.0238  1.6617 -0.7434
 2550TIP3    H229142   2.819   3.993   3.968  3.2512  0.6220 -1.0071
 2551TIP3   OH229143   0.168   2.530   6.137 -0.1100  0.0418  0.3014
 2551TIP3    H129144   0.113   2.464   6.179  0.6099 -0.3608  0.6338
 2551TIP3    H229145   0.139   2.531   6.045 -0.7929 -0.0262  0.5154
 2552TIP3   OH229146   5.693   4.385   4.506 -0.7578 -0.5788 -0.2437
 2552TIP3    H129147   5.756   4.378   4.433  0.9149  3.0799  0.6037
 2552TIP3    H229148   5.739   4.346   4.580 -0.4422 -0.0386 -0.1475
 2553TIP3   OH229149   3.802   3.318   3.011  0.0160 -0.5046  0.3419
 2553TIP3    H129150   3.774   3.394   2.960  0.4499 -2.3476 -2.8961
 2553TIP3    H229151   3.844   3.356   3.089 -3.7032  2.4552  1.2141
 2554TIP3   OH229152   4.911   3.239  14.628  0.3618 -0.0195  0.2881
 2554TIP3    H129153   4.887   3.275  14.714  1.2505  2.4323 -0.3905
 2554TIP3    H229154   4.942   3.315  14.579  0.9329 -1.5516 -1.8484
 2555TIP3   OH229155   3.787   3.941   4.002 -0.1892  0.2275 -0.5551
 2555TIP3    H129156   3.809   4.023   4.047  1.8444 -0.4916 -0.1344
 2555TIP3    H229157   3.717   3.965   3.942 -1.0575  1.8276  0.9849
 2556TIP3   OH229158   1.755   1.336  15.611  0.3951 -0.6629 -0.2576
 2556TIP3    H129159   1.741   1.293  15.527  1.2386  1.0041 -1.3215
 2556TIP3    H229160   1.837   1.299  15.643  0.6297 -0.5411 -0.7038
 2557TIP3   OH229161   0.840   4.151   2.731  0.0015  0.0583 -0.1220
 2557TIP3    H129162   0.771   4.115   2.788  0.2187  0.9647  0.7389
 2557TIP3    H229163   0.874   4.226   2.779  0.8884  0.2465 -1.0148
 2558TIP3   OH229164   1.590   4.660  13.991 -0.1724  0.0867  0.1979
 2558TIP3    H129165   1.657   4.702  14.044 -1.6255  1.2629  1.2158
 2558TIP3    H229166   1.590   4.569  14.018  0.8274  0.1295  0.3589
 2559TIP3   OH229167   0.571   2.720   2.725  0.1487  0.4015  0.2949
 2559TIP3    H129168   0.586   2.688   2.636  1.0568 -0.0749  0.5963
 2559TIP3    H229169   0.478   2.703   2.742  0.2713 -0.7257 -0.0964
 2560TIP3   OH229170   6.094   0.356   3.881  0.2222 -0.1521 -0.6734
 2560TIP3    H129171   6.100   0.261   3.868  1.1614 -0.2722  0.4419
 2560TIP3    H229172   6.177   0.379   3.922 -0.1409  1.1069 -0.6245
 2561TIP3   OH229173   5.495   3.320  12.872 -0.2479 -0.2592  0.1490
 2561TIP3    H129174   5.461   3.287  12.789  0.9539 -1.5247  0.1258
 2561TIP3    H229175   5.479   3.414  12.869 -1.6606 -0.4967 -0.8093
 2562TIP3   OH229176   4.147   0.176  14.204 -0.6296 -0.0119  0.0488
 2562TIP3    H129177   4.138   0.139  14.116  2.4747 -2.7017  0.6609
 2562TIP3    H229178   4.232   0.220  14.203 -0.5921 -0.0001  1.6702
 2563TIP3   OH229179   5.463   5.083  15.094  0.4511  0.1774 -0.2402
 2563TIP3    H129180   5.500   5.035  15.020 -0.1721 -0.3653 -0.2104
 2563TIP3    H229181   5.397   5.024  15.130  3.1824 -1.1830  3.0524
 2564TIP3   OH229182   0.192   3.857  13.873 -0.2115 -0.5027  0.2452
 2564TIP3    H129183   0.131   3.845  13.946  0.9635 -0.7858  1.2203
 2564TIP3    H229184   0.276   3.824  13.906 -0.2615 -3.7372 -2.3020
 2565TIP3   OH229185   0.155   3.823  14.802  0.6166 -0.6780 -0.0986
 2565TIP3    H129186   0.208   3.798  14.726 -1.8841 -1.0425 -1.8438
 2565TIP3    H229187   0.129   3.740  14.842  1.4764 -0.5000  0.8445
 2566TIP3   OH229188   3.125   3.601  15.802 -0.4952  0.3823 -0.1981
 2566TIP3    H129189   3.143   3.678  15.748 -0.4656  0.8615  0.4807
 2566TIP3    H229190   3.143   3.630  15.892 -0.5708 -0.3900  0.0725
 2567TIP3   OH229191   4.835   3.668  16.343 -0.3970 -0.2663 -0.2574
 2567TIP3    H129192   4.844   3.641  16.251 -1.7323  0.9451 -0.7758
 2567TIP3    H229193   4.802   3.589  16.387 -0.2591 -0.7042 -0.9146
 2568TIP3   OH229194   0.993   6.667   1.408  0.0795 -0.2820  0.2658
 2568TIP3    H129195   0.917   6.621   1.372  0.1085  0.8525 -1.3564
 2568TIP3    H229196   0.999   6.747   1.357  0.8852  0.8677  2.0535
 2569TIP3   OH229197   6.718   0.400  16.329 -0.5368  0.4218  0.5204
 2569TIP3    H129198   6.773   0.350  16.389  0.7033 -0.2843 -1.1036
 2569TIP3    H229199   6.642   0.345  16.313  0.8915 -1.1554 -1.3771
 2570TIP3   OH229200   5.042   6.050  13.250 -0.3018  0.9164  0.5311
 2570TIP3    H129201   5.020   6.062  13.158  0.2093 -1.0635  0.1025
 2570TIP3    H229202   4.970   5.998  13.285  0.3921  0.1075  0.7786
 2571TIP3   OH229203   6.573   2.549  12.816 -0.5166  0.3782 -0.4919
 2571TIP3    H129204   6.535   2.635  12.797 -0.2682  1.2597  2.5170
 2571TIP3    H229205   6.524   2.517  12.892 -1.1271 -2.5942 -1.9572
 2572TIP3   OH229206   1.811   4.417   2.310  0.7337 -0.0638  0.1249
 2572TIP3    H129207   1.770   4.504   2.300 -0.3169 -0.4255  1.0621
 2572TIP3    H229208   1.840   4.414   2.401 -0.5239 -1.1981  0.5295
 2573TIP3   OH229209   0.063   4.174  12.176  0.2902  0.1985  0.2702
 2573TIP3    H129210   0.071   4.231  12.252  2.0260 -2.5423  2.3247
 2573TIP3    H229211  -0.005   4.111  12.200  0.4014 -0.3321 -0.7410
 2574TIP3   OH229212   1.061   4.893  15.020 -0.2633 -0.1120  0.9527
 2574TIP3    H129213   1.035   4.818  14.967 -1.7371 -0.4063  2.0276
 2574TIP3    H229214   1.037   4.868  15.110 -0.4619  1.4858  1.3718
 2575TIP3   OH229215   0.543   6.577  11.666 -0.2232 -1.1852  0.9281
 2575TIP3    H129216   0.517   6.586  11.574  1.0551 -0.4051  0.6141
 2575TIP3    H229217   0.495   6.647  11.711 -0.4292 -1.2146  0.7552
 2576TIP3   OH229218   2.963   2.714  16.337 -0.1248 -0.2023  0.1824
 2576TIP3    H129219   2.886   2.753  16.297  0.5743  1.7431  0.6144
 2576TIP3    H229220   3.001   2.660  16.268 -0.6376  0.6293 -0.7844
 2577TIP3   OH229221   5.091   4.398  12.182  0.1931  0.1667  0.4380
 2577TIP3    H129222   5.085   4.396  12.277 -0.1642 -1.0240  0.4033
 2577TIP3    H229223   5.101   4.491  12.161  0.5947  0.4125  1.6464
 2578TIP3   OH229224   0.972   2.878   0.838 -0.3910 -0.4695 -0.4079
 2578TIP3    H129225   1.031   2.856   0.910 -0.7416 -0.5757 -0.1452
 2578TIP3    H229226   1.003   2.826   0.764  0.5090  0.3097 -0.5838
 2579TIP3   OH229227   3.429   1.020   4.667  0.1424 -0.0609 -0.3581
 2579TIP3    H129228   3.461   0.976   4.588  0.9063  1.7184 -1.0781
 2579TIP3    H229229   3.334   1.004   4.666  0.1653 -0.2486 -1.5285
 2580TIP3   OH229230   5.960   4.841   2.840  0.5588 -0.3214  0.1769
 2580TIP3    H129231   6.013   4.777   2.793  0.6789 -0.5359  0.5965
 2580TIP3    H229232   6.010   4.860   2.920  1.1930  1.3264 -0.5664
 2581TIP3   OH229233   4.697   0.380  13.473 -1.0475  0.1584  0.3190
 2581TIP3    H129234   4.688   0.472  13.451 -0.5537  0.5283  1.5395
 2581TIP3    H229235   4.791   0.369  13.492 -1.0984 -0.5874  0.1736
 2582TIP3   OH229236   0.678   3.642   3.089 -0.6650  0.4216  0.5436
 2582TIP3    H129237   0.619   3.685   3.027  1.3055  0.9776 -1.0372
 2582TIP3    H229238   0.634   3.560   3.111 -1.4404  0.2032 -1.6081
 2583TIP3   OH229239   0.340   3.361   1.127 -0.4716  0.3004 -0.5926
 2583TIP3    H129240   0.347   3.271   1.094 -1.1452 -0.6463  1.6792
 2583TIP3    H229241   0.255   3.391   1.097 -0.7183 -0.2373 -0.4547
 2584TIP3   OH229242   4.508   2.159  14.091 -0.2868 -0.0105 -0.8595
 2584TIP3    H129243   4.515   2.254  14.076 -2.1710  0.0922 -1.3549
 2584TIP3    H229244   4.448   2.151  14.165 -0.4318 -0.8307 -1.0553
 2585TIP3   OH229245   2.458   0.189   4.636  0.1026  0.4810 -0.2292
 2585TIP3    H129246   2.404   0.250   4.586  0.2489 -1.2997 -2.7308
 2585TIP3    H229247   2.548   0.207   4.608  0.3331  0.3639  0.4165
 2586TIP3   OH229248   0.345   4.371   6.110  0.1394 -0.9062  0.2129
 2586TIP3    H129249   0.322   4.423   6.187 -0.1973  0.2964 -0.6590
 2586TIP3    H229250   0.270   4.313   6.097 -0.8657  0.4850 -0.5058
 2587TIP3   OH229251   4.054   3.039  11.532 -0.6032 -0.0156 -0.3079
 2587TIP3    H129252   4.027   3.020  11.442  3.1598 -2.1195 -1.1910
 2587TIP3    H229253   4.114   2.968  11.555  1.3302  2.2908  2.5574
 2588TIP3   OH229254   0.313   1.286  15.745  0.8892  0.4453 -0.3492
 2588TIP3    H129255   0.239   1.323  15.793  0.5118 -1.6942  0.8438
 2588TIP3    H229256   0.362   1.362  15.714 -1.8964  1.9613 -1.4159
 2589TIP3   OH229257   6.644   1.435  11.163 -0.1319 -0.1746 -0.5668
 2589TIP3    H129258   6.705   1.460  11.232 -1.1845  0.9368  0.0010
 2589TIP3    H229259   6.604   1.354  11.195 -0.8688  0.5156  0.3328
 2590TIP3   OH229260   5.928   4.129  14.164 -0.1847  0.1880 -0.6297
 2590TIP3    H129261   5.852   4.105  14.217  1.2908 -2.7854  0.3355
 2590TIP3    H229262   6.001   4.135  14.226  1.2805 -1.8034 -2.0331
 2591TIP3   OH229263   0.343   3.291   2.764  0.3269  0.1054 -0.0335
 2591TIP3    H129264   0.327   3.287   2.670  1.3699 -1.4966 -0.1792
 2591TIP3    H229265   0.422   3.344   2.773 -1.0103  2.2133  0.1767
 2592TIP3   OH229266   5.855   4.018   1.865  0.9453  0.0629 -0.4873
 2592TIP3    H129267   5.934   4.070   1.848  2.6608 -2.1097  0.4465
 2592TIP3    H229268   5.808   4.018   1.781  1.7740  1.5805 -0.9948
 2593TIP3   OH229269   3.655   0.136  12.576  0.2834  0.1077 -0.9023
 2593TIP3    H129270   3.640   0.095  12.491  2.2197  0.4492 -1.4714
 2593TIP3    H229271   3.697   0.068  12.629 -0.3807  0.0738 -0.4158
 2594TIP3   OH229272   4.833   4.346   2.523  0.3895  0.1051  0.2580
 2594TIP3    H129273   4.759   4.332   2.582  1.4788  0.6994  1.8158
 2594TIP3    H229274   4.822   4.280   2.455 -0.7984 -0.7336  1.2231
 2595TIP3   OH229275   0.352   4.386   2.878  0.3398  0.0759 -0.4591
 2595TIP3    H129276   0.330   4.435   2.799  0.5931 -0.8075 -1.0907
 2595TIP3    H229277   0.273   4.336   2.898  0.2524  0.3510 -0.1051
 2596TIP3   OH229278   2.615   5.570  14.896 -0.1594  0.7518 -0.0754
 2596TIP3    H129279   2.667   5.642  14.862 -0.9075  1.1471 -0.4009
 2596TIP3    H229280   2.641   5.563  14.988  0.3569  1.0319 -0.1964
 2597TIP3   OH229281   4.774   4.518   0.475 -0.7279 -0.1256  0.2238
 2597TIP3    H129282   4.692   4.469   0.478  0.0208 -1.9858 -3.4283
 2597TIP3    H229283   4.752   4.596   0.423 -0.2825 -0.4496 -0.4566
 2598TIP3   OH229284   1.596   0.781   3.191 -0.0335 -0.4388  0.4121
 2598TIP3    H129285   1.557   0.693   3.192 -0.5211 -0.2428 -0.3917
 2598TIP3    H229286   1.649   0.784   3.271  0.1471 -1.5316  0.3576
 2599TIP3   OH229287   1.622   3.696   6.434  0.1043  0.0348 -0.3813
 2599TIP3    H129288   1.648   3.603   6.432  0.3649 -0.0502  2.3481
 2599TIP3    H229289   1.527   3.694   6.440  0.0203  0.0134 -1.5623
 2600TIP3   OH229290   2.614   2.096   5.914  0.7423 -0.0618  0.0378
 2600TIP3    H129291   2.633   2.182   5.950  0.0137 -0.2607  0.9620
 2600TIP3    H229292   2.540   2.065   5.966  0.6817 -1.0396 -0.6083
 2601TIP3   OH229293   4.061   6.266   2.803  0.0928 -0.1284  0.3488
 2601TIP3    H129294   4.127   6.313   2.751  0.6819 -0.6286  0.6241
 2601TIP3    H229295   4.111   6.198   2.847 -0.3822  0.3487  1.6557
 2602TIP3   OH229296   2.244   4.403  12.106 -0.5218  0.2619  0.1818
 2602TIP3    H129297   2.169   4.448  12.068 -0.0482 -0.3394 -1.5506
 2602TIP3    H229298   2.210   4.364  12.187 -1.9751  0.3143 -0.3723
 2603TIP3   OH229299   4.063   2.635   4.083  0.1949 -0.1397 -0.5851
 2603TIP3    H129300   4.002   2.563   4.065  1.9777 -1.5820 -1.0920
 2603TIP3    H229301   4.091   2.621   4.174 -2.0170  1.9816  0.5575
 2604TIP3   OH229302   2.675   0.348   0.926  0.2945  0.1450 -0.1404
 2604TIP3    H129303   2.632   0.314   0.848  1.6766 -1.1750 -0.3554
 2604TIP3    H229304   2.743   0.406   0.892  1.6940 -1.3551 -0.0208
 2605TIP3   OH229305   3.187   4.502  12.488 -0.3940 -0.0578  0.9908
 2605TIP3    H129306   3.129   4.489  12.563 -0.0565 -0.5426  1.1707
 2605TIP3    H229307   3.259   4.556  12.521  0.3293 -1.1954  1.3128
 2606TIP3   OH229308   0.232   3.293   2.225 -0.0531  0.1245 -1.0097
 2606TIP3    H129309   0.161   3.316   2.165 -1.5598  0.9458  0.9506
 2606TIP3    H229310   0.293   3.366   2.220 -0.8161  0.7988 -0.6259
 2607TIP3   OH229311   3.152   0.104   5.174 -0.2274 -0.6189 -0.1906
 2607TIP3    H129312   3.134   0.061   5.090 -0.0878 -1.3361  0.1421
 2607TIP3    H229313   3.197   0.037   5.226 -0.7200 -0.3363  0.6187
 2608TIP3   OH229314   6.488   4.548  12.877  0.0746 -0.0042 -0.2069
 2608TIP3    H129315   6.576   4.515  12.858  0.2371 -1.6921  2.8889
 2608TIP3    H229316   6.494   4.642  12.859  2.1234 -0.2703 -1.2474
 2609TIP3   OH229317   1.376   6.802   6.089 -0.3498 -0.0823 -0.2066
 2609TIP3    H129318   1.424   6.782   6.009 -1.8987  2.1448 -1.8381
 2609TIP3    H229319   1.368   6.898   6.089 -1.7613 -0.1220  1.7866
 2610TIP3   OH229320   6.788   0.659   4.294 -0.3192  0.2067  0.0882
 2610TIP3    H129321   6.703   0.661   4.250 -0.3712 -0.1322  0.1711
 2610TIP3    H229322   6.825   0.746   4.278 -0.2906  0.0623 -0.7170
 2611TIP3   OH229323   6.304   2.757   1.105  0.0522  0.0926 -0.1013
 2611TIP3    H129324   6.380   2.699   1.104  0.6366  0.8491 -1.2810
 2611TIP3    H229325   6.240   2.712   1.161  0.5982 -1.5357 -0.7269
 2612TIP3   OH229326   3.846   1.450  11.262  0.4743 -0.4250  0.4802
 2612TIP3    H129327   3.843   1.370  11.209  0.1790  1.1255 -2.0103
 2612TIP3    H229328   3.754   1.468  11.283  0.4240 -0.1121  0.0040
 2613TIP3   OH229329   1.246   5.064  14.316 -0.0721 -0.4027  0.6846
 2613TIP3    H129330   1.239   5.159  14.309  0.0108 -0.3548  1.2066
 2613TIP3    H229331   1.319   5.050  14.376 -0.0465 -0.7973  0.5625
 2614TIP3   OH229332   4.465   3.065  13.967 -0.0685 -0.1580  0.0027
 2614TIP3    H129333   4.459   2.978  14.006  0.8153 -0.1114  0.2679
 2614TIP3    H229334   4.432   3.054  13.878 -1.6488 -0.3710  0.5960
 2615TIP3   OH229335   5.434   4.267   5.981  0.6869  0.0448  0.3305
 2615TIP3    H129336   5.469   4.188   6.020  0.7554 -0.5683 -0.9314
 2615TIP3    H229337   5.379   4.306   6.050  0.0902 -1.4589  0.7336
 2616TIP3   OH229338   1.266   5.069  15.062 -0.1620 -0.6640 -0.0153
 2616TIP3    H129339   1.207   5.000  15.033 -1.3189 -0.2971  1.3814
 2616TIP3    H229340   1.224   5.106  15.140  1.6337 -0.0064  0.6876
 2617TIP3   OH229341   1.042   5.512   4.149 -0.4738  0.1742 -0.1556
 2617TIP3    H129342   1.043   5.604   4.177 -0.5724  0.7721 -1.9637
 2617TIP3    H229343   0.963   5.505   4.095  0.6131 -0.3876 -1.7671
 2618TIP3   OH229344   3.084   6.067  11.491  0.1118 -0.1969  0.0678
 2618TIP3    H129345   2.999   6.032  11.464  0.8060 -0.9070 -1.3177
 2618TIP3    H229346   3.142   5.990  11.494  0.7752  0.3084  0.7648
 2619TIP3   OH229347   0.723   1.074   3.605  0.0453  0.0833 -0.3252
 2619TIP3    H129348   0.775   1.117   3.673  1.3947  0.3984 -1.5018
 2619TIP3    H229349   0.752   0.983   3.608 -0.2095  0.0080 -0.1861
 2620TIP3   OH229350   1.507   6.800   2.445  0.2820  0.0149  0.0853
 2620TIP3    H129351   1.439   6.859   2.413  0.9846  0.1549 -1.2153
 2620TIP3    H229352   1.503   6.809   2.540 -0.9901  0.6001  0.0068
 2621TIP3   OH229353   2.466   5.187   5.153 -0.5064  0.3835  0.3654
 2621TIP3    H129354   2.401   5.117   5.149  0.4628 -0.5912  1.1086
 2621TIP3    H229355   2.471   5.220   5.063  0.5575 -1.9553 -0.5104
 2622TIP3   OH229356   2.976   3.847   1.103  0.1796 -0.2360  0.0575
 2622TIP3    H129357   2.948   3.843   1.195 -3.6011  4.4323 -0.4715
 2622TIP3    H229358   3.036   3.922   1.099  0.6448 -0.6514 -1.2115
 2623TIP3   OH229359   2.807   2.703   3.009 -0.7180 -0.3124 -0.2309
 2623TIP3    H129360   2.834   2.726   3.097  0.5808 -1.3034 -0.3456
 2623TIP3    H229361   2.735   2.641   3.021 -0.9019 -0.0371  0.1129
 2624TIP3   OH229362   6.186   2.135   5.084  1.2122  0.1188  0.2335
 2624TIP3    H129363   6.250   2.143   5.155  2.8843 -4.2693 -0.3938
 2624TIP3    H229364   6.238   2.147   5.004  0.0364  1.8305 -0.3020
 2625TIP3   OH229365   2.690   4.532  15.776  0.8517 -0.2142  0.1979
 2625TIP3    H129366   2.627   4.586  15.729  0.3354 -1.3009 -0.4140
 2625TIP3    H229367   2.759   4.515  15.712  1.4323  0.3903  0.6473
 2626TIP3   OH229368   6.113   1.608   2.795  0.5409 -0.1252  0.4390
 2626TIP3    H129369   6.201   1.577   2.774  1.1145  3.0704 -2.9966
 2626TIP3    H229370   6.126   1.694   2.835 -0.9729  0.8059 -0.9473
 2627TIP3   OH229371   5.053   2.244  12.542 -0.6031 -0.3428 -0.4719
 2627TIP3    H129372   4.992   2.260  12.469 -0.7327 -1.0378 -0.5217
 2627TIP3    H229373   5.003   2.271  12.620 -0.1950  1.1200 -0.6818
 2628TIP3   OH229374   2.779   0.655  12.142 -0.0519  0.4793  0.1118
 2628TIP3    H129375   2.704   0.703  12.107  0.1561 -0.0544 -1.1009
 2628TIP3    H229376   2.789   0.688  12.232 -2.0549  0.1793  0.4819
 2629TIP3   OH229377   4.830   4.639  14.459 -0.6837  0.1358 -0.0791
 2629TIP3    H129378   4.874   4.706  14.406  0.0493 -1.5439 -1.7100
 2629TIP3    H229379   4.757   4.610  14.404 -0.3080 -1.1775  0.0925
 2630TIP3   OH229380   5.840   3.601  13.864  0.1192  0.1477 -0.6501
 2630TIP3    H129381   5.890   3.524  13.893 -0.6452  0.5253  1.9819
 2630TIP3    H229382   5.750   3.570  13.857 -0.1496  0.6982  0.1735
 2631TIP3   OH229383   1.050   4.546  11.928  0.1510  0.1965 -0.3795
 2631TIP3    H129384   0.966   4.543  11.882 -0.0389  0.5106 -0.0558
 2631TIP3    H229385   1.036   4.492  12.006 -0.4839  2.0899  0.8676
 2632TIP3   OH229386   5.166   4.697  10.272 -0.1680  0.1412  0.0083
 2632TIP3    H129387   5.166   4.601  10.280  3.4469 -0.1147 -1.1810
 2632TIP3    H229388   5.114   4.714  10.194  0.6840 -1.0880 -0.8810
 2633TIP3   OH229389   5.306   4.543  11.817 -0.0076 -0.0666  0.2401
 2633TIP3    H129390   5.399   4.522  11.825  0.4567  1.3368 -1.1731
 2633TIP3    H229391   5.296   4.629  11.857 -0.5627  0.1032 -0.2402
 2634TIP3   OH229392   3.390   1.449  14.921 -0.8519  0.0849  0.5748
 2634TIP3    H129393   3.334   1.446  14.998 -0.5458 -3.2293  0.7826
 2634TIP3    H229394   3.478   1.434  14.954 -0.3244  1.3781 -0.1712
 2635TIP3   OH229395   0.524   3.019  12.791 -0.3806 -0.4804 -0.3710
 2635TIP3    H129396   0.432   3.040  12.806 -0.3125  0.9479 -1.7784
 2635TIP3    H229397   0.535   3.023  12.696  1.3301  0.1967 -0.1799
 2636TIP3   OH229398   2.178   4.628  15.556  0.3600 -0.2863  0.0732
 2636TIP3    H129399   2.120   4.578  15.613  0.8534 -2.5630 -1.3111
 2636TIP3    H229400   2.120   4.693  15.515 -0.2099  0.6616  2.2119
 2637TIP3   OH229401   0.371   5.120   2.855 -0.6285  0.0526  0.4514
 2637TIP3    H129402   0.419   5.199   2.829  0.3438 -0.2614  1.2438
 2637TIP3    H229403   0.362   5.070   2.774 -0.8978  0.7730  0.0194
 2638TIP3   OH229404   6.093   2.966  14.030 -0.9180 -0.9646 -0.0923
 2638TIP3    H129405   6.115   2.875  14.007 -1.2657 -1.5100  1.5956
 2638TIP3    H229406   6.166   3.017  13.996 -0.2700 -1.9862 -0.3031
 2639TIP3   OH229407   1.809   1.937   5.457 -0.2191  0.6186  0.3125
 2639TIP3    H129408   1.886   1.992   5.441 -0.3383  0.6798 -0.0606
 2639TIP3    H229409   1.745   1.965   5.391 -0.2943  0.0528  0.1468
 2640TIP3   OH229410   4.541   0.397   2.172 -0.9919 -0.1839 -0.5824
 2640TIP3    H129411   4.603   0.464   2.202 -0.1674 -0.8534 -0.7272
 2640TIP3    H229412   4.597   0.331   2.131 -1.6817 -1.4212  0.4065
 2641TIP3   OH229413   1.011   3.187  13.381 -0.7173  0.1263 -0.0797
 2641TIP3    H129414   0.938   3.165  13.323 -0.7328  0.7557 -0.2981
 2641TIP3    H229415   0.969   3.202  13.466 -1.0183  1.7721 -0.4889
 2642TIP3   OH229416   4.933   4.943   1.517 -0.1758 -0.1933 -0.5027
 2642TIP3    H129417   5.013   4.994   1.526  0.2059 -1.0988  1.6929
 2642TIP3    H229418   4.866   4.995   1.563 -0.2176 -0.7717  0.0880
 2643TIP3   OH229419   0.747   2.862  15.364 -0.1811 -0.2963 -0.9811
 2643TIP3    H129420   0.810   2.838  15.295 -0.0405 -0.4690 -0.7941
 2643TIP3    H229421   0.686   2.789  15.366 -1.8616  0.9516 -2.8544
 2644TIP3   OH229422   1.115   3.730  11.963 -0.1217 -0.5530 -0.2355
 2644TIP3    H129423   1.151   3.702  12.047 -1.0254 -0.4465  0.1938
 2644TIP3    H229424   1.069   3.654  11.929  0.0564 -0.5295 -0.5370
 2645TIP3   OH229425   5.281   1.211  11.178 -0.1594 -0.4115 -0.1279
 2645TIP3    H129426   5.258   1.149  11.109 -0.4042  0.0856 -0.4944
 2645TIP3    H229427   5.375   1.225  11.167  0.2204 -1.8499  0.8886
 2646TIP3   OH229428   3.684   2.724   5.708 -0.7753 -0.0270 -0.7799
 2646TIP3    H129429   3.664   2.792   5.771 -1.4044  0.2259 -1.2455
 2646TIP3    H229430   3.754   2.761   5.654 -0.6546 -0.0103 -0.6111
 2647TIP3   OH229431   4.286   2.014   6.154  0.2501 -0.0604 -0.3628
 2647TIP3    H129432   4.250   2.099   6.181  0.1878  0.3213 -1.5582
 2647TIP3    H229433   4.223   1.982   6.090 -0.4845 -1.7110  1.1057
 2648TIP3   OH229434   5.361   5.644  17.071 -0.0736  0.2031 -0.1100
 2648TIP3    H129435   5.406   5.563  17.048 -1.1480 -0.5225  0.2964
 2648TIP3    H229436   5.329   5.678  16.988  0.5942  0.3599 -0.3124
 2649TIP3   OH229437   0.225   3.094   0.249  0.1986  0.6768 -0.1074
 2649TIP3    H129438   0.212   3.018   0.306  0.4216  1.0204  0.4097
 2649TIP3    H229439   0.207   3.061   0.161 -0.8646  0.3179  0.2305
 2650TIP3   OH229440   6.776   0.297   2.433  0.3789 -0.1053  0.2848
 2650TIP3    H129441   6.776   0.392   2.423  1.9228 -0.2174 -1.0347
 2650TIP3    H229442   6.702   0.267   2.380 -0.4491  0.3546  1.1320
 2651TIP3   OH229443   2.647   0.801   5.282 -0.3699 -0.2957 -0.0220
 2651TIP3    H129444   2.624   0.851   5.203  0.5849 -1.8811 -1.3766
 2651TIP3    H229445   2.646   0.710   5.253  0.7998 -0.8699  1.6129
 2652TIP3   OH229446   4.386   1.025  12.721  0.0684  0.2729 -0.3936
 2652TIP3    H129447   4.352   1.089  12.658  1.7012 -0.4261 -2.0908
 2652TIP3    H229448   4.475   1.057  12.741  0.1077 -0.3202  0.4154
 2653TIP3   OH229449   5.751   0.721   0.734 -0.1081  0.1021  0.1065
 2653TIP3    H129450   5.663   0.682   0.731 -1.2763  2.5458 -2.3641
 2653TIP3    H229451   5.781   0.705   0.823 -2.8533 -1.2603  0.9194
 2654TIP3   OH229452   4.958   2.512  16.533  0.0220 -0.6711 -0.4562
 2654TIP3    H129453   4.963   2.442  16.468  2.1167 -1.0896  0.0840
 2654TIP3    H229454   5.043   2.555  16.529 -0.6654  0.8775  0.3307
 2655TIP3   OH229455   2.498   0.886  15.704  0.0320 -0.1385 -0.4900
 2655TIP3    H129456   2.559   0.953  15.672 -1.0229  0.8322 -0.5465
 2655TIP3    H229457   2.415   0.908  15.663 -0.5587 -0.9259  0.2480
 2656TIP3   OH229458   6.848   2.743  14.844  0.3994 -0.9728 -0.7210
 2656TIP3    H129459   6.889   2.746  14.758 -0.1007 -1.0196 -0.9689
 2656TIP3    H229460   6.861   2.653  14.875  1.4386 -0.6905 -0.3117
 2657TIP3   OH229461   0.363   4.848  16.087  0.0371 -0.5793 -0.2512
 2657TIP3    H129462   0.416   4.914  16.131  2.9984 -2.8856 -0.0400
 2657TIP3    H229463   0.281   4.847  16.135  0.3893  1.9076  0.5839
 2658TIP3   OH229464   1.419   1.277   3.852 -0.7377  0.2038  0.3749
 2658TIP3    H129465   1.499   1.270   3.799  0.1079 -0.5124  1.6564
 2658TIP3    H229466   1.390   1.186   3.862 -1.7877  0.4742 -0.1728
 2659TIP3   OH229467   2.247   5.308   1.175 -0.3553 -0.3120  0.0004
 2659TIP3    H129468   2.184   5.262   1.229 -1.8881  0.3667 -1.1389
 2659TIP3    H229469   2.214   5.398   1.171  0.7973  0.1128 -0.4583
 2660TIP3   OH229470   1.276   6.816  12.283  0.2697  0.2438  0.7855
 2660TIP3    H129471   1.271   6.773  12.198 -1.3693  0.2533  0.8495
 2660TIP3    H229472   1.346   6.880  12.273  0.1325  0.2136 -0.5497
 2661TIP3   OH229473   1.385   1.493  16.225  0.1180  0.1048  0.4408
 2661TIP3    H129474   1.353   1.468  16.138 -0.9845  0.2031  0.8067
 2661TIP3    H229475   1.363   1.586  16.233 -0.2752 -0.0360  1.0316
 2662TIP3   OH229476   0.159   1.770  15.332  0.2197  0.0813  0.9545
 2662TIP3    H129477   0.137   1.813  15.415  1.3506  1.0979  0.7462
 2662TIP3    H229478   0.124   1.681  15.342 -0.5535  0.4847  2.1166
 2663TIP3   OH229479   1.202   5.884   1.209 -0.1480  0.2814  0.6336
 2663TIP3    H129480   1.159   5.918   1.130 -0.2286 -0.3633  0.3928
 2663TIP3    H229481   1.280   5.839   1.176  0.3247  0.8049  1.0074
 2664TIP3   OH229482   4.271   2.736   4.428 -0.1868 -0.2374  0.3815
 2664TIP3    H129483   4.219   2.796   4.375 -1.0779 -1.6409 -0.4214
 2664TIP3    H229484   4.278   2.657   4.374  2.9397 -0.0778  0.4116
 2665TIP3   OH229485   1.699   4.732  15.298 -0.4374  0.1415 -1.0645
 2665TIP3    H129486   1.714   4.797  15.367  0.0055  1.7330 -2.5880
 2665TIP3    H229487   1.605   4.735  15.282 -0.5580 -0.3149 -0.4709
 2666TIP3   OH229488   3.955   5.158   1.131 -0.3707  0.2531 -0.2569
 2666TIP3    H129489   3.905   5.190   1.207  0.7671  0.9974  0.1871
 2666TIP3    H229490   3.904   5.083   1.100 -0.5055 -0.5168  1.6851
 2667TIP3   OH229491   3.769   6.132  15.472  0.0936  0.0119  0.2067
 2667TIP3    H129492   3.711   6.208  15.463 -0.6235 -0.3951  1.1048
 2667TIP3    H229493   3.838   6.162  15.532  0.5320  0.3412 -0.4563
 2668TIP3   OH229494   6.589   3.634  13.191  0.5889  0.2324 -0.3434
 2668TIP3    H129495   6.616   3.573  13.259  0.5854  0.9303  0.2954
 2668TIP3    H229496   6.494   3.631  13.192  0.5937 -0.3139 -0.8413
 2669TIP3   OH229497   0.139   4.516  12.734  0.1411 -0.5081 -0.4395
 2669TIP3    H129498   0.168   4.426  12.747  1.4774  0.0448  0.5725
 2669TIP3    H229499   0.219   4.568  12.737 -0.5871  0.7078 -1.1972
 2670TIP3   OH229500   1.873   1.582  15.485  0.1027 -0.0189  0.7400
 2670TIP3    H129501   1.833   1.652  15.434  0.9219 -0.6936 -0.9000
 2670TIP3    H229502   1.800   1.527  15.514 -0.3681  0.3451  0.2485
 2671TIP3   OH229503   3.744   3.220  11.964  0.2440  0.4409 -0.3913
 2671TIP3    H129504   3.694   3.301  11.961  1.9307  1.5931  0.4655
 2671TIP3    H229505   3.827   3.241  11.923  0.6503 -0.9220 -0.3381
 2672TIP3   OH229506   4.304   1.471  14.624 -0.6814 -0.0490 -0.7161
 2672TIP3    H129507   4.381   1.500  14.673 -1.9443  3.0622 -0.3955
 2672TIP3    H229508   4.306   1.523  14.544 -1.7097 -0.9900 -1.3820
 2673TIP3   OH229509   3.124   5.261  16.039  0.0901 -0.1581 -0.6735
 2673TIP3    H129510   3.162   5.176  16.064 -0.8899 -0.5540 -0.4637
 2673TIP3    H229511   3.144   5.269  15.946 -0.4669 -0.9864 -0.8766
 2674TIP3   OH229512   1.951   0.478  16.775 -0.1778  0.9597 -0.1892
 2674TIP3    H129513   2.004   0.420  16.719  0.0835  1.0714 -0.0609
 2674TIP3    H229514   1.992   0.564  16.765  0.0137  0.9335  0.3557
 2675TIP3   OH229515   6.794   0.767  15.540  0.1090 -0.8188 -0.1068
 2675TIP3    H129516   6.837   0.703  15.484  0.5685  0.3505 -1.1418
 2675TIP3    H229517   6.848   0.770  15.620 -0.6105 -2.5677  0.4912
 2676TIP3   OH229518   5.853   4.221   4.324  0.1378 -0.1305 -0.4683
 2676TIP3    H129519   5.798   4.186   4.254  0.9562 -1.4210 -0.5071
 2676TIP3    H229520   5.850   4.153   4.392  0.7950  0.2939 -0.0083
 2677TIP3   OH229521   0.327   3.647  12.610 -0.3137  0.5537 -0.0981
 2677TIP3    H129522   0.278   3.729  12.623 -1.6537 -0.2834  0.3467
 2677TIP3    H229523   0.306   3.621  12.521 -0.9238  0.0599  0.1787
 2678TIP3   OH229524   6.033   1.544  11.310 -0.1841  0.0936 -0.4582
 2678TIP3    H129525   6.051   1.579  11.397 -0.5007  1.3839 -0.8969
 2678TIP3    H229526   6.089   1.595  11.251 -0.1150 -0.6371 -1.0482
 2679TIP3   OH229527   2.594   6.176   1.701  0.3971 -0.8432 -0.1819
 2679TIP3    H129528   2.678   6.130   1.704  0.5932 -0.5235 -0.6391
 2679TIP3    H229529   2.529   6.107   1.690  0.7547 -0.9717 -1.7496
 2680TIP3   OH229530   0.370   5.818  16.501 -0.5751  0.0640 -0.1545
 2680TIP3    H129531   0.337   5.728  16.505 -3.0244  0.9144  1.2462
 2680TIP3    H229532   0.464   5.810  16.514 -0.7458 -2.2771  0.0282
 2681TIP3   OH229533   4.086   1.293  14.042  0.1670 -0.4766 -0.3566
 2681TIP3    H129534   4.092   1.388  14.054 -1.0789 -0.1549 -1.9848
 2681TIP3    H229535   4.025   1.264  14.110 -1.0448  0.1993 -1.1385
 2682TIP3   OH229536   4.426   1.885  11.170  0.0281 -0.0307 -0.4042
 2682TIP3    H129537   4.409   1.809  11.114  0.3756 -0.3076 -0.1379
 2682TIP3    H229538   4.341   1.901  11.213 -0.0113 -0.3636 -0.3488
 2683TIP3   OH229539   3.592   3.628   3.153 -0.1580  0.2663  0.2046
 2683TIP3    H129540   3.657   3.558   3.156 -0.0952  0.2591 -0.9269
 2683TIP3    H229541   3.597   3.662   3.063 -2.9080 -0.8423 -0.4591
 2684TIP3   OH229542   3.309   2.533  14.194  0.2804  0.1397 -0.0092
 2684TIP3    H129543   3.223   2.557  14.160  1.5459  1.2021 -2.7760
 2684TIP3    H229544   3.312   2.572  14.281 -2.2132 -0.4511  0.4197
 2685TIP3   OH229545   5.286   2.003   1.845 -0.8285  0.5461 -0.0466
 2685TIP3    H129546   5.279   2.096   1.826 -0.0258  0.4310 -0.9511
 2685TIP3    H229547   5.328   1.965   1.768  0.8435 -0.2262  1.1839
 2686TIP3   OH229548   6.460   6.850  13.856 -0.1122 -0.3961 -0.4845
 2686TIP3    H129549   6.386   6.868  13.913  0.0761  0.7633 -0.5784
 2686TIP3    H229550   6.473   6.756  13.862  0.6784 -0.1901  2.3730
 2687TIP3   OH229551   5.848   1.526   3.365 -0.1778 -0.3982 -0.0293
 2687TIP3    H129552   5.796   1.491   3.292 -0.3579 -0.7323  0.2584
 2687TIP3    H229553   5.815   1.480   3.442 -0.3475  0.3352  0.3363
 2688TIP3   OH229554   5.451   1.159   2.889  0.2681 -0.3387  0.2937
 2688TIP3    H129555   5.527   1.184   2.836  0.1096 -2.4498 -1.0346
 2688TIP3    H229556   5.383   1.222   2.864  0.5967 -0.4780 -1.0591
 2689TIP3   OH229557   6.374   2.335   6.080  0.5474 -0.0509 -0.2820
 2689TIP3    H129558   6.456   2.287   6.092 -0.3099 -0.8666  3.8934
 2689TIP3    H229559   6.391   2.422   6.116 -0.4752 -0.3344  0.9286
 2690TIP3   OH229560   4.583   0.342   4.279  0.1404 -0.5057 -0.5340
 2690TIP3    H129561   4.587   0.378   4.190  1.6892  0.8426  0.0322
 2690TIP3    H229562   4.494   0.362   4.308 -0.0214  0.0792 -1.3791
 2691TIP3   OH229563   4.996   4.354   0.232  0.1571  0.4377  0.7129
 2691TIP3    H129564   5.070   4.360   0.292 -0.5080  0.0120  1.5917
 2691TIP3    H229565   5.026   4.296   0.162  0.9137  0.8936  0.6466
 2692TIP3   OH229566   5.337   2.386  13.322 -0.3236 -0.1782  0.0203
 2692TIP3    H129567   5.296   2.456  13.271 -3.1115 -1.5317  0.2077
 2692TIP3    H229568   5.285   2.381  13.403 -0.2184 -2.3711  0.0237
 2693TIP3   OH229569   5.148   1.410  14.675  0.3793  0.3862 -0.0895
 2693TIP3    H129570   5.214   1.341  14.670  0.0776  0.0835  0.1182
 2693TIP3    H229571   5.104   1.406  14.590  1.0833  1.0532 -0.5034
 2694TIP3   OH229572   6.263   5.079  11.880  0.1187  0.0260  0.2189
 2694TIP3    H129573   6.297   5.096  11.792  0.0298  0.8290  0.3376
 2694TIP3    H229574   6.171   5.058  11.867 -0.4648  2.2710  0.2832
 2695TIP3   OH229575   0.891   4.201   4.181  0.7054  0.3972  0.7012
 2695TIP3    H129576   0.853   4.230   4.099 -0.5988  0.2665  1.2328
 2695TIP3    H229577   0.858   4.112   4.193  1.4703  0.1449  1.0165
 2696TIP3   OH229578   1.045   3.071  14.036  0.0072 -0.0832  0.3653
 2696TIP3    H129579   1.084   2.991  14.071  0.9813  0.0444 -0.3761
 2696TIP3    H229580   0.951   3.062  14.053  0.2012 -1.0307  0.9716
 2697TIP3   OH229581   1.203   5.377  15.710  0.6071 -0.6106 -0.2088
 2697TIP3    H129582   1.197   5.346  15.620 -1.0455 -0.6264 -0.1172
 2697TIP3    H229583   1.158   5.310  15.762  0.4894 -0.0116  0.4809
 2698TIP3   OH229584   4.347   1.294   5.211 -0.1304  0.1962  0.5520
 2698TIP3    H129585   4.303   1.213   5.239  0.7729 -0.0253  1.3740
 2698TIP3    H229586   4.352   1.347   5.290  0.4281  0.5124  0.3102
 2699TIP3   OH229587   0.044   1.786  13.243  0.0123 -0.8903  0.6330
 2699TIP3    H129588   0.132   1.814  13.267 -0.0981  0.1818 -0.1723
 2699TIP3    H229589  -0.003   1.783  13.326 -0.1574  1.9961  0.7302
 2700TIP3   OH229590   3.166   1.406  12.996  0.0620  0.8198  0.0904
 2700TIP3    H129591   3.194   1.351  12.923 -0.3966 -0.8807  1.1476
 2700TIP3    H229592   3.090   1.454  12.962 -0.1751  0.0097 -0.5397
 2701TIP3   OH229593   2.223   1.123  15.081  0.2544  0.3660  0.1203
 2701TIP3    H129594   2.144   1.139  15.134 -0.7097 -1.9435 -0.5085
 2701TIP3    H229595   2.206   1.170  14.999 -0.3881  0.0392  0.0613
 2702TIP3   OH229596   0.282   1.361  11.550  0.1154  0.0544 -0.4954
 2702TIP3    H129597   0.309   1.324  11.634 -1.7591  0.0008  0.1409
 2702TIP3    H229598   0.277   1.455  11.566  1.6582  0.2658 -1.1453
 2703TIP3   OH229599   5.072   4.926   2.240  0.1267 -0.1878  0.0992
 2703TIP3    H129600   5.040   4.996   2.295  1.4230  0.4645  0.0598
 2703TIP3    H229601   5.011   4.923   2.166 -0.8964 -0.2422  0.9225
 2704TIP3   OH229602   2.379   5.801  15.495 -0.4366  0.8163 -0.5884
 2704TIP3    H129603   2.389   5.729  15.432  1.0417 -0.3096  0.8260
 2704TIP3    H229604   2.291   5.790  15.531 -0.8135  0.6907 -1.5338
 2705TIP3   OH229605   1.143   6.710   6.130 -0.3172  0.6991 -0.3530
 2705TIP3    H129606   1.233   6.744   6.127 -0.0129  0.0387  0.6233
 2705TIP3    H229607   1.092   6.781   6.168 -0.0418  0.7681 -0.1075
 2706TIP3   OH229608   0.500   4.618  12.260 -0.6482 -0.2704 -0.0256
 2706TIP3    H129609   0.469   4.528  12.255 -0.9700 -0.2289  0.9200
 2706TIP3    H229610   0.557   4.629  12.184 -0.1960 -1.4328  0.1255
 2707TIP3   OH229611   3.306   4.562  11.176  0.2698  0.2078  0.6930
 2707TIP3    H129612   3.373   4.607  11.124 -0.7132  0.0179 -0.8200
 2707TIP3    H229613   3.232   4.551  11.115 -0.3530 -1.4571  1.6710
 2708TIP3   OH229614   2.280   4.368  11.590 -0.3742 -0.0328  0.3167
 2708TIP3    H129615   2.253   4.276  11.590 -0.7269  0.0603  0.8771
 2708TIP3    H229616   2.210   4.413  11.542  0.1273 -0.1424 -0.5196
 2709TIP3   OH229617   6.476   1.071  14.222  0.5609  0.6951  0.2934
 2709TIP3    H129618   6.505   1.127  14.150  1.8549  1.3607  1.2822
 2709TIP3    H229619   6.453   1.132  14.292 -0.3709  0.0493  0.5682
 2710TIP3   OH229620   0.369   4.769   2.931  0.1972 -0.0932  0.4709
 2710TIP3    H129621   0.347   4.696   2.988 -2.3345  0.9897  1.0402
 2710TIP3    H229622   0.413   4.832   2.988  2.0636 -0.9535  0.0563
 2711TIP3   OH229623   5.071   2.264  16.078  0.3110  0.5164 -0.0786
 2711TIP3    H129624   4.990   2.265  16.130 -0.5123 -0.8268 -1.2588
 2711TIP3    H229625   5.104   2.175  16.087 -0.0727  0.1275 -2.1396
 2712TIP3   OH229626   0.886   0.507   1.414  0.1634 -0.0026 -0.4615
 2712TIP3    H129627   0.886   0.506   1.318 -0.4307  0.2991 -0.4706
 2712TIP3    H229628   0.800   0.543   1.437  0.1109 -0.5421  0.1915
 2713TIP3   OH229629   4.058   3.594   3.679 -0.5705 -0.1358  0.7507
 2713TIP3    H129630   4.099   3.675   3.648 -4.0054  2.2681  2.0203
 2713TIP3    H229631   4.024   3.553   3.600  1.8863 -0.9166 -0.0058
 2714TIP3   OH229632   4.626   2.076   3.927 -0.1067  0.0393 -0.6117
 2714TIP3    H129633   4.608   2.064   4.020  1.5582  0.3632 -0.2127
 2714TIP3    H229634   4.672   1.996   3.901 -1.1983 -0.3676 -1.3522
 2715TIP3   OH229635   0.947   5.857   3.542 -0.4343  0.5009 -0.2102
 2715TIP3    H129636   0.939   5.908   3.622 -1.3040  0.8151 -0.4897
 2715TIP3    H229637   0.983   5.918   3.478  2.0227 -0.2193  0.3669
 2716TIP3   OH229638   1.569   3.847   5.541  0.7071 -0.4639  0.0865
 2716TIP3    H129639   1.582   3.760   5.501  1.6183 -0.1980 -0.2240
 2716TIP3    H229640   1.542   3.828   5.630 -2.2762 -1.0908 -0.8481
 2717TIP3   OH229641   1.708   2.747  13.279  0.2746 -0.0563 -0.1104
 2717TIP3    H129642   1.718   2.762  13.184 -0.9836 -0.6067 -0.3520
 2717TIP3    H229643   1.625   2.701  13.287  0.4867 -0.2365  1.2592
 2718TIP3   OH229644   2.240   2.792  15.722  0.1548 -0.4832 -0.5358
 2718TIP3    H129645   2.300   2.859  15.755  2.6937 -3.1752  0.7354
 2718TIP3    H229646   2.164   2.799  15.779  1.3220 -0.1214  1.0440
 2719TIP3   OH229647   1.303   3.881   4.053 -0.0699  0.3026  0.2802
 2719TIP3    H129648   1.239   3.945   4.085  0.1148 -0.0105  1.3053
 2719TIP3    H229649   1.312   3.818   4.124  0.1411 -0.5866 -0.5202
 2720TIP3   OH229650   4.155   3.577  15.005 -0.0913  0.0598 -0.3608
 2720TIP3    H129651   4.087   3.635  14.970 -0.0987  0.3235  0.0704
 2720TIP3    H229652   4.158   3.504  14.944  0.4650  0.8867 -1.3640
 2721TIP3   OH229653   0.089   6.617   6.327  0.4276  0.3324  0.4568
 2721TIP3    H129654   0.174   6.586   6.358 -0.3527 -0.1887  2.1991
 2721TIP3    H229655   0.026   6.578   6.388 -1.1627 -0.1896 -1.4390
 2722TIP3   OH229656   4.944   6.598  13.398  0.0090  0.7932 -0.0436
 2722TIP3    H129657   4.885   6.567  13.329  0.5738 -0.8189  0.1510
 2722TIP3    H229658   4.921   6.690  13.410 -0.9584  0.7759 -1.4970
 2723TIP3   OH229659   4.299   2.653  10.850  0.0934  0.5261  0.7518
 2723TIP3    H129660   4.225   2.710  10.872 -0.0256  0.8517 -0.4447
 2723TIP3    H229661   4.374   2.713  10.841 -0.0254  0.5177 -0.4762
 2724TIP3   OH229662   4.484   0.306   2.628  0.4251  0.4074 -0.0669
 2724TIP3    H129663   4.443   0.285   2.544 -0.4514  0.7917  0.2471
 2724TIP3    H229664   4.446   0.391   2.652 -0.9000 -0.6123  1.6740
 2725TIP3   OH229665   4.526   5.727   4.713 -0.4195 -0.2596  0.1523
 2725TIP3    H129666   4.502   5.647   4.666 -0.0053  0.9016 -2.1837
 2725TIP3    H229667   4.607   5.704   4.759 -0.7439 -1.4179  0.1729
 2726TIP3   OH229668   0.382   4.092   2.586  0.2956 -0.0118  0.2398
 2726TIP3    H129669   0.470   4.127   2.573  0.4635 -0.8601 -1.1432
 2726TIP3    H229670   0.367   4.097   2.680  2.1130 -0.5482  0.5895
 2727TIP3   OH229671   0.056   4.139  12.766  0.1378 -0.2718  0.2331
 2727TIP3    H129672   0.052   4.051  12.804  1.3166  0.1618  1.4383
 2727TIP3    H229673   0.036   4.198  12.838  0.2953  0.4982 -0.3353
 2728TIP3   OH229674   1.077   3.635  14.275 -0.6027 -0.2238  0.6795
 2728TIP3    H129675   1.036   3.628  14.189 -0.8645 -0.4644  0.8217
 2728TIP3    H229676   1.156   3.687  14.260 -0.2978 -0.8252  0.1699
 2729TIP3   OH229677   0.317   5.021  13.082  0.3145  0.3375  0.0084
 2729TIP3    H129678   0.316   4.941  13.134  1.7150  1.8818  2.6072
 2729TIP3    H229679   0.235   5.065  13.104  0.3754  0.4515  0.0091
 2730TIP3   OH229680   0.335   6.188  13.883 -0.2613  0.0336  0.1315
 2730TIP3    H129681   0.406   6.127  13.904  0.7515  1.0289 -0.3370
 2730TIP3    H229682   0.295   6.207  13.968 -0.4892 -1.1273  0.3097
 2731TIP3   OH229683   2.939   2.029  16.268 -0.5753  0.1528  0.1578
 2731TIP3    H129684   2.979   1.960  16.215 -2.6173 -1.0958  0.1291
 2731TIP3    H229685   2.934   1.991  16.356 -1.6124  0.2916  0.1661
 2732TIP3   OH229686   4.681   2.128   2.929 -0.0378 -0.4197 -0.5735
 2732TIP3    H129687   4.673   2.180   3.009 -0.2241  1.4632 -1.7580
 2732TIP3    H229688   4.595   2.133   2.888 -0.1065 -1.8279 -0.6529
 2733TIP3   OH229689   3.280   0.843   0.870 -0.2558  0.5057  0.0067
 2733TIP3    H129690   3.315   0.904   0.935 -0.9242  1.7744 -0.7833
 2733TIP3    H229691   3.338   0.853   0.795 -2.1285  2.5381 -1.2751
 2734TIP3   OH229692   1.259   5.496   2.171  0.2243 -0.3133 -0.3880
 2734TIP3    H129693   1.200   5.515   2.245 -0.0601 -0.7192 -0.5070
 2734TIP3    H229694   1.338   5.462   2.211  0.0900 -0.4841 -0.2677
 2735TIP3   OH229695   6.066   3.574  16.583 -0.2508 -0.7669 -0.1098
 2735TIP3    H129696   6.053   3.482  16.560 -0.0822 -0.7174 -0.4149
 2735TIP3    H229697   6.046   3.621  16.502 -0.3002 -0.5379  0.0351
 2736TIP3   OH229698   6.325   2.670   4.920 -0.6818 -0.3002 -0.1629
 2736TIP3    H129699   6.241   2.686   4.876 -0.4117 -1.6317 -1.2104
 2736TIP3    H229700   6.390   2.708   4.860 -0.4448 -0.4027  0.0315
 2737TIP3   OH229701   2.870   1.267  15.705 -0.1368 -0.6187 -0.4590
 2737TIP3    H129702   2.949   1.215  15.719 -0.2343 -0.3304  1.3710
 2737TIP3    H229703   2.891   1.354  15.738 -1.1569 -0.4956 -0.0915
 2738TIP3   OH229704   3.239   1.974  13.441 -0.0216 -0.4927 -0.1016
 2738TIP3    H129705   3.263   1.942  13.354  0.4502  1.8394 -0.8854
 2738TIP3    H229706   3.309   1.942  13.498  0.4847 -0.7651 -0.8504
 2739TIP3   OH229707   6.700   0.415   1.566  0.1924  0.0468 -0.2462
 2739TIP3    H129708   6.665   0.503   1.582 -0.5968 -0.7815  3.8808
 2739TIP3    H229709   6.794   0.427   1.558  0.0164  1.3288 -0.5380
 2740TIP3   OH229710   5.513   0.938  10.505  0.4750  0.7551  0.5388
 2740TIP3    H129711   5.468   1.009  10.459 -1.8207 -0.4424  0.8386
 2740TIP3    H229712   5.478   0.941  10.594 -2.1114 -2.5840 -0.1595
 2741TIP3   OH229713   2.760   3.909   2.018  0.0060 -0.4030  0.0411
 2741TIP3    H129714   2.738   3.821   1.990 -0.9811 -0.7729  1.7930
 2741TIP3    H229715   2.700   3.926   2.091 -0.2922  1.9643 -0.6638
 2742TIP3   OH229716   5.428   1.219   4.612 -0.4989  0.0486  0.2633
 2742TIP3    H129717   5.505   1.262   4.650 -1.3317 -0.0629  2.1673
 2742TIP3    H229718   5.422   1.255   4.524  2.2752 -0.6358 -0.2942
 2743TIP3   OH229719   6.285   1.771   0.970  0.0527  0.0805  0.6272
 2743TIP3    H129720   6.226   1.842   0.997 -0.3117  0.4703 -1.1243
 2743TIP3    H229721   6.247   1.737   0.889 -0.0250 -2.4525  1.6375
 2744TIP3   OH229722   6.620   2.129  10.314  0.5112 -0.3752  0.1009
 2744TIP3    H129723   6.689   2.117  10.248  0.7397  2.2212 -0.2412
 2744TIP3    H229724   6.539   2.135  10.263  0.4973  0.1230  0.1766
 2745TIP3   OH229725   4.717   1.584   1.096  0.9675  0.0676  0.4134
 2745TIP3    H129726   4.674   1.570   1.180 -1.1373  1.5266 -0.3531
 2745TIP3    H229727   4.668   1.530   1.034  1.4964  0.2180 -0.1479
 2746TIP3   OH229728   1.751   0.906  13.154  0.4492 -0.3518  0.0495
 2746TIP3    H129729   1.690   0.835  13.177  1.3607 -1.3460 -0.4961
 2746TIP3    H229730   1.706   0.954  13.085 -0.4612  0.0109  0.8763
 2747TIP3   OH229731   5.848   6.228  11.289 -0.1235 -0.1936 -0.5461
 2747TIP3    H129732   5.761   6.258  11.313  0.7558  2.0901  0.0467
 2747TIP3    H229733   5.879   6.180  11.366  0.1072  1.2411  0.2782
 2748TIP3   OH229734   1.001   6.080  11.092  0.6477  0.0232  0.5940
 2748TIP3    H129735   1.012   6.000  11.041 -1.5901 -1.3214  2.0610
 2748TIP3    H229736   1.087   6.122  11.090  1.6958 -2.0396 -0.7983
 2749TIP3   OH229737   6.398   5.674   5.801  0.3592 -0.4807 -0.6436
 2749TIP3    H129738   6.448   5.707   5.875 -0.6282 -0.1904 -0.0834
 2749TIP3    H229739   6.320   5.635   5.840  0.2305 -1.0958 -1.4781
 2750TIP3   OH229740   5.868   6.706  12.682 -0.0030 -0.1669  0.1375
 2750TIP3    H129741   5.816   6.630  12.710 -0.9342  0.3708 -0.0905
 2750TIP3    H229742   5.955   6.689  12.717 -0.6918 -0.3519  1.8670
 2751TIP3   OH229743   4.508   2.988   5.229  0.2413 -0.2076 -0.1472
 2751TIP3    H129744   4.437   2.925   5.240  0.2957 -0.1220  0.7497
 2751TIP3    H229745   4.465   3.068   5.199  0.1334 -0.5600 -0.9769
 2752TIP3   OH229746   0.318   4.015   0.052  0.4529  0.4103 -0.5012
 2752TIP3    H129747   0.360   4.010   0.138  0.1114 -0.9556 -0.3819
 2752TIP3    H229748   0.363   4.086   0.006  1.4667  0.3435  0.3704
 2753TIP3   OH229749   1.250   1.553  15.290 -0.5760 -0.1324 -0.2616
 2753TIP3    H129750   1.318   1.616  15.266 -0.8431 -0.2044 -1.2942
 2753TIP3    H229751   1.287   1.468  15.266 -2.0992  0.0069 -3.8588
 2754TIP3   OH229752   0.757   5.375   3.997  0.1739 -0.3175  0.5169
 2754TIP3    H129753   0.668   5.382   3.963 -0.2737 -2.6877  1.0288
 2754TIP3    H229754   0.796   5.302   3.947  2.2095  1.3143 -0.4201
 2755TIP3   OH229755   0.138   2.348  16.441  0.2335  0.0036 -0.6267
 2755TIP3    H129756   0.194   2.270  16.447  1.1774  0.7585  2.8010
 2755TIP3    H229757   0.055   2.320  16.479  0.3027  0.3921 -0.1682
 2756TIP3   OH229758   0.974   2.094  16.207  0.0541  0.3312 -0.0704
 2756TIP3    H129759   0.946   2.025  16.147  0.9049  0.7529 -0.9657
 2756TIP3    H229760   0.893   2.140  16.229 -0.8096 -1.8050  1.7413
 2757TIP3   OH229761   0.117   2.077   4.914  0.2255 -0.1654  0.7002
 2757TIP3    H129762   0.063   2.032   4.849 -0.5142  0.5859  0.7873
 2757TIP3    H229763   0.168   2.007   4.955  1.0996 -0.6027 -1.0306
 2758TIP3   OH229764   1.417   0.868   0.738  0.3250 -0.6662  0.1675
 2758TIP3    H129765   1.400   0.863   0.832  3.5318 -1.2123  0.8622
 2758TIP3    H229766   1.441   0.779   0.714  3.5727  0.1512 -0.1132
 2759TIP3   OH229767   1.918   0.390  15.169 -0.2559 -0.3836 -0.0957
 2759TIP3    H129768   1.827   0.419  15.176 -0.2681 -0.6895  1.3743
 2759TIP3    H229769   1.912   0.294  15.175  0.0165 -0.5831 -2.1277
 2760TIP3   OH229770   3.782   1.058  15.793 -0.2063  0.1788 -0.0298
 2760TIP3    H129771   3.716   1.055  15.724 -0.4754  1.1910  0.1782
 2760TIP3    H229772   3.808   0.966  15.805 -1.7331 -0.2664  0.0541
 2761TIP3   OH229773   6.643   1.501  13.279  0.2408  0.1487 -0.2175
 2761TIP3    H129774   6.692   1.427  13.315 -1.4464 -1.3671 -0.8627
 2761TIP3    H229775   6.645   1.487  13.184  0.2328  1.1739 -0.3815
 2762TIP3   OH229776   3.527   1.536  16.053  0.0922 -0.1374  0.3067
 2762TIP3    H129777   3.591   1.466  16.038 -0.0991 -0.4144  0.7623
 2762TIP3    H229778   3.489   1.516  16.139  0.0793  0.5594  0.4727
 2763TIP3   OH229779   0.607   2.246  16.939  0.0457  0.7639 -0.0546
 2763TIP3    H129780   0.638   2.188  17.009  0.3171 -0.4297 -1.1139
 2763TIP3    H229781   0.553   2.311  16.983 -0.5623 -0.5141  1.1511
 2764TIP3   OH229782   2.975   2.775  13.933 -0.1450 -0.3923  1.0910
 2764TIP3    H129783   2.925   2.708  13.886  0.0334  0.5713 -0.5587
 2764TIP3    H229784   2.940   2.858  13.900  2.1001  0.3172  0.3464
 2765TIP3   OH229785   2.135   2.657  11.289  0.0177 -0.0427 -0.4344
 2765TIP3    H129786   2.086   2.679  11.210 -0.0362 -0.7562 -0.6022
 2765TIP3    H229787   2.071   2.614  11.346  0.3994 -0.8107 -0.5810
 2766TIP3   OH229788   6.732   0.106   2.165  0.0291 -0.0318 -0.2390
 2766TIP3    H129789   6.709   0.056   2.243  0.3080 -0.6623 -0.5542
 2766TIP3    H229790   6.712   0.197   2.188 -0.4475 -0.2797  0.3545
 2767TIP3   OH229791   4.580   0.079   3.855  0.0202  0.4454  0.0183
 2767TIP3    H129792   4.556   0.171   3.848  0.9394  0.6296 -0.9353
 2767TIP3    H229793   4.620   0.070   3.941 -1.4902  0.5685  0.7798
 2768TIP3   OH229794   4.284   6.839   1.401 -0.5164 -0.1329  0.2076
 2768TIP3    H129795   4.304   6.777   1.471 -2.1138  0.0055  0.8097
 2768TIP3    H229796   4.233   6.788   1.338  1.6163 -0.5011 -1.3616
 2769TIP3   OH229797   2.479   5.496  16.821  0.3924  0.1474 -0.3086
 2769TIP3    H129798   2.549   5.474  16.883  1.2304 -0.8843 -1.5627
 2769TIP3    H229799   2.442   5.411  16.796 -1.5311  0.6798  0.5213
 2770TIP3   OH229800   4.427   3.055  15.956 -0.2644 -0.2306 -0.1892
 2770TIP3    H129801   4.335   3.034  15.973  0.6190 -3.1286  1.6490
 2770TIP3    H229802   4.466   3.067  16.042  1.2775 -0.0417 -0.8736
 2771TIP3   OH229803   6.468   6.197   1.877 -0.0897 -0.3635 -0.3452
 2771TIP3    H129804   6.554   6.236   1.894  0.2803 -1.4156  0.3231
 2771TIP3    H229805   6.407   6.255   1.922  0.4358 -0.4492  0.5145
 2772TIP3   OH229806   0.015   3.503  13.927 -0.3463 -0.2272 -0.2531
 2772TIP3    H129807   0.018   3.590  13.887 -0.3009 -0.5136 -0.8710
 2772TIP3    H229808  -0.015   3.519  14.017  2.1299  0.7420  0.4913
 2773TIP3   OH229809   2.620   2.603  15.408  0.4870 -0.0668 -1.2575
 2773TIP3    H129810   2.564   2.525  15.403 -0.8312  0.8578 -1.4172
 2773TIP3    H229811   2.645   2.607  15.501 -0.9163  0.2872 -0.8623
 2774TIP3   OH229812   5.027   1.836   3.126  0.1448 -0.0561 -0.4321
 2774TIP3    H129813   4.972   1.868   3.054  0.9349 -1.2594 -1.6110
 2774TIP3    H229814   5.024   1.741   3.118  0.9386 -0.1812  0.6105
 2775TIP3   OH229815   3.807   2.262   1.396 -0.1912 -0.3704  0.1161
 2775TIP3    H129816   3.824   2.266   1.302 -0.3454 -1.2391  0.0445
 2775TIP3    H229817   3.756   2.341   1.414  2.0132  1.1672 -0.0381
 2776TIP3   OH229818   3.547   5.314   5.891  0.2499  0.0764  0.3605
 2776TIP3    H129819   3.634   5.336   5.857  0.2599 -0.1047  0.2647
 2776TIP3    H229820   3.486   5.346   5.824  0.2746 -0.3740  0.1161
 2777TIP3   OH229821   4.979   1.105  15.414  0.1149  0.2236 -0.0948
 2777TIP3    H129822   4.889   1.072  15.406 -0.1604  1.1628 -1.1071
 2777TIP3    H229823   5.028   1.032  15.451 -0.9794 -0.4538  0.0589
 2778TIP3   OH229824   2.776   4.724   6.270 -0.2887 -0.7736  0.0515
 2778TIP3    H129825   2.706   4.742   6.334 -2.9560 -3.3668 -1.8731
 2778TIP3    H229826   2.754   4.779   6.195  0.3304 -0.9133 -0.2356
 2779TIP3   OH229827   5.089   3.702  15.849  0.1702  0.7621 -0.1403
 2779TIP3    H129828   5.007   3.745  15.823 -0.5142  0.5395  1.4821
 2779TIP3    H229829   5.076   3.610  15.827 -0.6546  0.4674  1.4556
 2780TIP3   OH229830   4.726   3.218  11.305 -0.3867 -0.7457  0.2026
 2780TIP3    H129831   4.731   3.311  11.287 -1.2438 -0.6502  0.3980
 2780TIP3    H229832   4.748   3.176  11.222 -0.6342 -0.3603 -0.0606
 2781TIP3   OH229833   3.297   3.925   0.340  0.0994 -0.7606 -0.3461
 2781TIP3    H129834   3.232   3.880   0.394  0.0913 -1.8733 -1.2400
 2781TIP3    H229835   3.245   3.977   0.279  0.0190 -1.5494 -0.9753
 2782TIP3   OH229836   2.756   4.818   2.799  0.3168  0.2858 -0.0079
 2782TIP3    H129837   2.845   4.794   2.826  0.4797  0.5372 -0.3188
 2782TIP3    H229838   2.761   4.827   2.704  0.2969  1.7127  0.1124
 2783TIP3   OH229839   0.354   1.319  14.195  0.0391 -0.5791 -0.1331
 2783TIP3    H129840   0.349   1.353  14.106 -0.5513 -1.2797 -0.3814
 2783TIP3    H229841   0.298   1.378  14.246  0.0240 -0.4395 -0.3102
 2784TIP3   OH229842   0.783   6.598   2.944  0.5552 -0.2374  0.2344
 2784TIP3    H129843   0.845   6.666   2.919 -1.0481  1.6824  1.1881
 2784TIP3    H229844   0.739   6.574   2.863  0.6624  0.3749 -0.0112
 2785TIP3   OH229845   4.392   3.913  14.237 -0.5306 -0.3529 -0.2058
 2785TIP3    H129846   4.300   3.921  14.212 -1.3039 -1.0367  2.1543
 2785TIP3    H229847   4.435   3.986  14.193 -2.2051  0.0340 -1.2935
 2786TIP3   OH229848   3.633   6.756  13.785  0.3722 -0.5139 -0.4838
 2786TIP3    H129849   3.707   6.709  13.823 -0.2935 -0.9696  0.2750
 2786TIP3    H229850   3.614   6.826  13.848  0.6179  0.0609 -1.0381
 2787TIP3   OH229851   2.444   1.307   1.627 -0.0503  0.0434 -0.3898
 2787TIP3    H129852   2.371   1.358   1.590 -0.4969 -0.5824 -0.3959
 2787TIP3    H229853   2.402   1.227   1.659  0.7222 -0.5965 -0.9379
 2788TIP3   OH229854   4.493   5.935   3.087 -0.1371  0.2758  0.5678
 2788TIP3    H129855   4.562   5.940   3.020  0.9666  1.0609  1.7227
 2788TIP3    H229856   4.493   5.844   3.115 -1.4166 -0.3570 -1.2713
 2789TIP3   OH229857   3.493   5.936  12.077 -0.3971  0.6932  0.5039
 2789TIP3    H129858   3.564   5.888  12.120 -0.5168  0.2767  0.2430
 2789TIP3    H229859   3.420   5.933  12.139 -0.3297  0.7402  0.5853
 2790TIP3   OH229860   2.779   3.867   4.125 -0.6093  0.0106  0.5947
 2790TIP3    H129861   2.718   3.857   4.053  0.5601 -0.2655 -0.3909
 2790TIP3    H229862   2.807   3.778   4.147  0.7277  0.2220 -0.1391
 2791TIP3   OH229863   0.762   5.952   1.755  0.0040  0.4759 -0.5968
 2791TIP3    H129864   0.700   5.992   1.817  0.4619 -1.0448  0.9361
 2791TIP3    H229865   0.707   5.921   1.683 -0.9949 -0.5179  0.5498
 2792TIP3   OH229866   0.288   6.221  13.256 -0.2758  0.0526  0.1860
 2792TIP3    H129867   0.224   6.291  13.256 -1.4603 -0.9989  0.1930
 2792TIP3    H229868   0.372   6.265  13.268 -1.0046  1.4381  0.3641
 2793TIP3   OH229869   2.019   4.074  13.951 -0.2400 -0.3252  0.1612
 2793TIP3    H129870   2.051   4.158  13.917 -1.8599 -0.2535 -1.2911
 2793TIP3    H229871   1.957   4.098  14.020  1.1421 -0.4252  1.4934
 2794TIP3   OH229872   2.735   5.276  14.289  0.3858  0.1030 -0.1163
 2794TIP3    H129873   2.759   5.340  14.356  1.1092 -0.8102  0.5283
 2794TIP3    H229874   2.762   5.316  14.206 -2.3318  2.1203 -0.1558
 2795TIP3   OH229875   3.023   1.995  15.782  0.1321  0.5208 -0.5700
 2795TIP3    H129876   3.017   2.079  15.827 -1.4565  0.2354 -0.1992
 2795TIP3    H229877   2.939   1.953  15.797  1.5061 -1.9947  0.8896
 2796TIP3   OH229878   4.021   0.628   1.645 -0.1680 -1.2210 -0.1452
 2796TIP3    H129879   3.942   0.682   1.644  2.0700  2.3784  0.2932
 2796TIP3    H229880   4.011   0.573   1.723 -1.4612  0.5008  0.9848
 2797TIP3   OH229881   6.840   0.193  16.465  0.3651  0.0310 -0.0872
 2797TIP3    H129882   6.898   0.138  16.411  1.4651 -0.1997  1.2810
 2797TIP3    H229883   6.809   0.135  16.534 -0.2837  0.5584  0.0694
 2798TIP3   OH229884   3.716   2.898  13.175  0.1467  0.1580 -0.1204
 2798TIP3    H129885   3.797   2.857  13.205  0.2068 -0.3238 -0.9068
 2798TIP3    H229886   3.647   2.855  13.226  0.2084 -0.9544 -0.9378
 2799TIP3   OH229887   1.946   6.034  11.459 -0.2277  0.2418  0.6696
 2799TIP3    H129888   1.970   5.942  11.473 -0.5781  0.0808  0.2269
 2799TIP3    H229889   1.899   6.059  11.539 -0.2066  0.0084  0.7555
 2800TIP3   OH229890   6.506   6.842   5.164 -0.5414 -0.1764 -0.7037
 2800TIP3    H129891   6.505   6.832   5.069  0.4225  0.2445 -0.7756
 2800TIP3    H229892   6.528   6.934   5.179  1.5402 -0.7062 -0.1034
 2801TIP3   OH229893   6.279   5.403   1.970 -0.0720  0.4868  0.4942
 2801TIP3    H129894   6.258   5.382   2.061 -1.0804 -1.0079 -0.0354
 2801TIP3    H229895   6.240   5.489   1.955 -0.9043  0.2386  1.1748
 2802TIP3   OH229896   3.373   3.459   1.958  0.1254  0.1860 -0.6335
 2802TIP3    H129897   3.297   3.470   2.015  0.2285 -0.7706 -0.3016
 2802TIP3    H229898   3.353   3.513   1.881 -1.1337 -0.4661 -0.7920
 2803TIP3   OH229899   4.587   5.237   0.427 -0.3138 -0.0521  0.3471
 2803TIP3    H129900   4.579   5.333   0.424  1.9030  0.3506  2.9524
 2803TIP3    H229901   4.527   5.211   0.496 -0.4993 -0.4795  0.0231
 2804TIP3   OH229902   3.615   3.653  11.792  0.1854 -0.2498  0.0904
 2804TIP3    H129903   3.689   3.712  11.780 -0.6707  0.7996 -0.2218
 2804TIP3    H229904   3.587   3.632  11.703  0.8951 -1.7019  0.1820
 2805TIP3   OH229905   2.394   6.434   1.601 -0.3453 -0.2126  0.0138
 2805TIP3    H129906   2.314   6.409   1.554 -0.2835 -2.0339  0.8105
 2805TIP3    H229907   2.424   6.513   1.556 -2.1010 -0.0010 -0.8669
 2806TIP3   OH229908   1.900   4.145  13.552  0.2341  0.6585  0.2339
 2806TIP3    H129909   1.869   4.066  13.596 -0.1186 -0.2766 -1.5892
 2806TIP3    H229910   1.823   4.201  13.546 -0.1045  0.1207 -0.5604
 2807TIP3   OH229911   0.892   6.120   0.312 -0.1232  0.9253  1.0455
 2807TIP3    H129912   0.957   6.162   0.255  0.2621 -0.3162  0.5416
 2807TIP3    H229913   0.934   6.039   0.341 -1.0642  0.5994  1.5327
 2808TIP3   OH229914   0.905   1.106   5.812  0.1781  0.1230  0.1006
 2808TIP3    H129915   0.891   1.078   5.903  0.2507  1.5191  0.5617
 2808TIP3    H229916   0.939   1.195   5.819  0.9563 -0.0342 -1.2868
 2809TIP3   OH229917   0.519   2.437   0.376 -0.3839 -0.2401  0.4915
 2809TIP3    H129918   0.571   2.486   0.312 -0.2382 -1.4276 -0.3198
 2809TIP3    H229919   0.552   2.347   0.370 -0.0658 -0.3225  2.5363
 2810TIP3   OH229920   2.636   5.318  13.965  0.3017  0.4940 -0.3126
 2810TIP3    H129921   2.576   5.389  13.941  0.0072  0.3550 -0.0006
 2810TIP3    H229922   2.722   5.349  13.939  0.2146  1.0839  0.0877
 2811TIP3   OH229923   3.665   6.377  13.920  0.2888 -0.0966 -0.0577
 2811TIP3    H129924   3.654   6.415  13.833  1.7628  0.4042 -0.0608
 2811TIP3    H229925   3.760   6.376  13.934  0.0468  0.8602  1.9919
 2812TIP3   OH229926   6.369   1.758  15.843 -0.0263  0.5726 -0.7959
 2812TIP3    H129927   6.426   1.765  15.766 -1.0984  1.4190 -1.5409
 2812TIP3    H229928   6.301   1.696  15.817  0.0934  0.1865 -0.2041
 2813TIP3   OH229929   6.015   5.615   1.496  0.2902  0.0733  0.3430
 2813TIP3    H129930   6.086   5.558   1.467  1.3458  0.4935  1.9898
 2813TIP3    H229931   6.013   5.604   1.591 -1.2289  0.8064  0.4275
 2814TIP3   OH229932   6.426   2.948  15.786 -0.1777 -0.3190  0.3471
 2814TIP3    H129933   6.484   2.972  15.859  0.2536 -0.8512  0.1869
 2814TIP3    H229934   6.364   2.886  15.824 -0.6422  0.2388  0.5153
 2815TIP3   OH229935   5.402   1.796  12.480  0.5360 -0.2466  0.1220
 2815TIP3    H129936   5.391   1.754  12.394 -0.2415 -1.4361  0.7792
 2815TIP3    H229937   5.323   1.849  12.490 -0.3710 -1.6799  0.9313
 2816TIP3   OH229938   5.636   1.229   6.122 -0.3685  0.5768  0.3265
 2816TIP3    H129939   5.680   1.313   6.140 -0.4890  0.4049  1.5483
 2816TIP3    H229940   5.674   1.168   6.185  3.1600 -1.6059 -3.4341
 2817TIP3   OH229941   6.587   5.719   2.829  0.2280  0.4116  0.2529
 2817TIP3    H129942   6.583   5.675   2.745 -1.1314 -1.2928  1.1422
 2817TIP3    H229943   6.504   5.766   2.836  1.3575  2.6995 -0.3699
 2818TIP3   OH229944   6.212   3.102   1.468 -0.0422 -0.4410  0.0911
 2818TIP3    H129945   6.275   3.058   1.526  0.2300  2.3266  2.0782
 2818TIP3    H229946   6.243   3.192   1.462 -2.0810  0.2276 -1.4958
 2819TIP3   OH229947   3.569   0.908   2.428 -1.1257 -0.1196  0.3245
 2819TIP3    H129948   3.626   0.838   2.460 -0.0379  1.6683  2.5608
 2819TIP3    H229949   3.585   0.910   2.334 -1.3257 -2.9219  0.1362
 2820TIP3   OH229950   0.424   5.422  11.016 -0.2335 -0.2398  0.1379
 2820TIP3    H129951   0.347   5.416  10.960 -0.6483  0.6089  0.6016
 2820TIP3    H229952   0.498   5.423  10.955 -0.6538  0.1418 -0.3693
 2821TIP3   OH229953   1.525   4.005   0.322  0.4434  0.2270 -0.1326
 2821TIP3    H129954   1.456   4.067   0.345  0.0031 -1.1432  2.5940
 2821TIP3    H229955   1.596   4.061   0.289 -0.2696  2.1126  1.3427
 2822TIP3   OH229956   2.599   6.736   4.117  0.7711 -0.4616  0.0239
 2822TIP3    H129957   2.519   6.684   4.125 -0.6360  1.6832  0.5797
 2822TIP3    H229958   2.608   6.752   4.023 -1.6610  2.3947  0.1424
 2823TIP3   OH229959   2.428   4.300   1.014 -0.0840 -0.2702 -0.4978
 2823TIP3    H129960   2.487   4.347   0.956  0.2954  0.7993  0.6947
 2823TIP3    H229961   2.340   4.317   0.979  0.0646  1.1487 -0.2408
 2824TIP3   OH229962   1.115   5.417  11.442 -0.7413 -0.0223 -0.5207
 2824TIP3    H129963   1.191   5.378  11.486 -0.4037 -0.7322 -1.6665
 2824TIP3    H229964   1.040   5.390  11.495 -0.2228  0.4655  0.4778
 2825TIP3   OH229965   3.832   4.052   1.988 -0.4248  0.1383 -0.2537
 2825TIP3    H129966   3.813   4.030   2.080 -0.7260  0.2838 -0.2813
 2825TIP3    H229967   3.842   4.147   1.988 -0.9257  0.1931 -0.4605
 2826TIP3   OH229968   3.898   6.523  12.003 -0.1208 -0.2102  0.3531
 2826TIP3    H129969   3.988   6.502  12.027  0.1799  0.3049 -0.2931
 2826TIP3    H229970   3.906   6.597  11.943 -1.1180  1.4388  2.1677
 2827TIP3   OH229971   2.985   4.569   4.527 -0.0931 -0.0879  0.5610
 2827TIP3    H129972   3.069   4.615   4.522  0.5973 -1.3821 -1.7064
 2827TIP3    H229973   3.001   4.497   4.588 -0.2117  0.8294  1.6954
 2828TIP3   OH229974   4.685   2.390  11.162  0.2723 -0.0429  0.6185
 2828TIP3    H129975   4.628   2.316  11.140  0.3086 -0.2277  1.1313
 2828TIP3    H229976   4.641   2.466  11.124  0.8113 -0.4591 -0.9129
 2829TIP3   OH229977   3.739   6.244   3.460  0.4560 -0.1750  0.1383
 2829TIP3    H129978   3.780   6.320   3.501 -1.0889  0.8717 -0.1901
 2829TIP3    H229979   3.671   6.218   3.521 -0.8723  0.4722 -0.9994
 2830TIP3   OH229980   5.388   3.824  12.195  0.3452 -0.2263  0.1280
 2830TIP3    H129981   5.355   3.772  12.268  0.2927 -0.9016 -0.3641
 2830TIP3    H229982   5.311   3.848  12.145  0.4147 -0.1163  0.0741
 2831TIP3   OH229983   6.503   4.464   0.385 -0.6722 -0.1185 -0.2131
 2831TIP3    H129984   6.548   4.543   0.414  0.0029 -0.9965  1.2749
 2831TIP3    H229985   6.469   4.485   0.298  1.2651  1.0974 -0.7245
 2832TIP3   OH229986   2.994   6.230   4.315  0.3581 -0.3613 -0.3826
 2832TIP3    H129987   2.920   6.169   4.307 -1.3811  1.7447 -1.4318
 2832TIP3    H229988   3.022   6.247   4.226 -0.2841  1.5320 -0.2862
 2833TIP3   OH229989   1.337   4.017   5.573  0.8272 -0.4634  0.1283
 2833TIP3    H129990   1.421   3.974   5.557  0.1680 -1.7264 -0.0182
 2833TIP3    H229991   1.272   3.959   5.535 -0.1122  0.6072  0.0425
 2834TIP3   OH229992   5.434   5.877   5.919  0.1853  0.0864 -0.0737
 2834TIP3    H129993   5.370   5.947   5.930  0.0203 -0.3422  2.1790
 2834TIP3    H229994   5.388   5.797   5.945  1.3264 -0.3613  0.6935
 2835TIP3   OH229995   6.173   6.016   5.322  0.1207 -0.0752  0.0755
 2835TIP3    H129996   6.226   5.975   5.254  1.2308 -1.1390  1.5251
 2835TIP3    H229997   6.235   6.036   5.392 -0.6916  2.5026  0.1740
 2836TIP3   OH229998   3.353   3.027  16.878 -0.5479 -0.0277  0.3290
 2836TIP3    H129999   3.357   2.972  16.956 -1.0567 -1.4658 -0.5975
 2836TIP3    H230000   3.361   2.965  16.805  1.1006  1.3929 -0.7677
 2837TIP3   OH230001   4.214   2.105  16.843  0.0235 -0.2729 -0.5775
 2837TIP3    H130002   4.276   2.176  16.825 -0.3858 -0.3862 -2.7788
 2837TIP3    H230003   4.252   2.058  16.917  1.1106  1.2894 -0.0919
 2838TIP3   OH230004   2.212   6.148  16.053  0.0132  0.0032  0.2983
 2838TIP3    H130005   2.215   6.052  16.064 -0.4541 -0.1765 -1.0051
 2838TIP3    H230006   2.275   6.166  15.983 -0.6753  0.5305 -0.1881
 2839TIP3   OH230007   1.214   3.996  14.169  0.7349  1.1946 -0.3035
 2839TIP3    H130008   1.186   3.916  14.124 -1.4454  2.6240 -1.7097
 2839TIP3    H230009   1.229   4.059  14.099 -0.1521  2.7580  0.8498
 2840TIP3   OH230010   3.302   1.730  16.728 -0.3010 -0.1491 -0.0657
 2840TIP3    H130011   3.364   1.662  16.702 -0.1169 -0.1437  0.3632
 2840TIP3    H230012   3.340   1.811  16.696 -0.7769 -0.2942 -1.0495
 2841TIP3   OH230013   5.025   2.705  15.867 -0.2668 -0.7734 -0.4647
 2841TIP3    H130014   5.079   2.653  15.926 -0.4060 -1.5438 -0.9958
 2841TIP3    H230015   5.079   2.780  15.843  0.0840 -0.8747  0.0120
 2842TIP3   OH230016   1.319   1.011   1.475  0.1216 -0.1449 -0.0227
 2842TIP3    H130017   1.308   0.953   1.550 -1.5679  0.2774  0.1081
 2842TIP3    H230018   1.396   0.978   1.429  0.0287 -1.6044  0.8231
 2843TIP3   OH230019   2.644   1.922  10.302  0.0408 -0.8214 -0.0103
 2843TIP3    H130020   2.553   1.895  10.295 -0.0530 -0.0758 -3.1866
 2843TIP3    H230021   2.647   2.009  10.262  2.0888 -0.6968  0.2965
 2844TIP3   OH230022   2.120   3.817  12.456 -0.6068  0.5094  0.0416
 2844TIP3    H130023   2.088   3.902  12.425 -2.1578  0.1460  0.5521
 2844TIP3    H230024   2.045   3.779  12.502  1.2745  0.6460  3.5151
 2845TIP3   OH230025   4.067   0.557   3.447  0.1603 -0.7056  0.4691
 2845TIP3    H130026   4.144   0.579   3.500 -1.5131  0.4794  2.5650
 2845TIP3    H230027   4.039   0.471   3.479  0.1113 -0.7500  0.3091
 2846TIP3   OH230028   5.023   1.507   1.170  0.7998  0.1987  0.0055
 2846TIP3    H130029   4.978   1.567   1.110  0.6591 -0.0013 -0.0920
 2846TIP3    H230030   5.087   1.562   1.215 -0.2856  0.7337  0.9579
 2847TIP3   OH230031   2.626   4.982  11.891 -0.6801  0.1919 -0.1583
 2847TIP3    H130032   2.716   4.952  11.880 -0.6649  0.1636  0.0399
 2847TIP3    H230033   2.634   5.077  11.902 -0.6765  0.1901 -0.1442
 2848TIP3   OH230034   5.564   0.803  14.978 -0.7106  0.5570  0.0377
 2848TIP3    H130035   5.474   0.768  14.978 -0.9254  0.8843  2.7930
 2848TIP3    H230036   5.560   0.879  14.919 -1.7491 -0.4524 -1.2687
 2849TIP3   OH230037   6.718   5.997  14.779  0.3973  0.1339  0.6105
 2849TIP3    H130038   6.752   5.960  14.860 -1.1226 -0.3245  1.0691
 2849TIP3    H230039   6.650   5.936  14.751 -0.0653  1.0151 -0.2580
 2850TIP3   OH230040   1.084   0.918   0.697 -0.0814  0.0610  0.2374
 2850TIP3    H130041   1.083   1.009   0.668 -0.3077 -0.4613 -1.4817
 2850TIP3    H230042   1.171   0.906   0.735  0.0455  0.9196  0.2343
 2851TIP3   OH230043   2.808   0.035  12.067 -0.4020 -0.0393  0.1415
 2851TIP3    H130044   2.882   0.025  12.007 -0.2170  2.1426 -0.0895
 2851TIP3    H230045   2.847   0.035  12.154 -0.3288 -0.4541  0.1097
 2852TIP3   OH230046   5.202   4.928  10.732  0.0327  0.0924 -0.3422
 2852TIP3    H130047   5.189   4.833  10.731  1.8500 -0.1948  0.3455
 2852TIP3    H230048   5.201   4.954  10.640 -0.0614 -0.6507 -0.5524
 2853TIP3   OH230049   4.185   1.080   5.280  0.2212  0.5179 -0.1521
 2853TIP3    H130050   4.245   1.049   5.348  1.1885  1.8861 -0.3454
 2853TIP3    H230051   4.148   1.000   5.243  1.1947 -0.3272  0.6458
 2854TIP3   OH230052   0.511   1.986   4.219  0.1827 -0.1494  0.1991
 2854TIP3    H130053   0.554   1.992   4.134  0.0273 -0.2419  0.1145
 2854TIP3    H230054   0.583   1.976   4.281  0.2722 -0.5820  0.0295
 2855TIP3   OH230055   1.815   6.590  16.977  0.1358  0.2212  0.2580
 2855TIP3    H130056   1.779   6.503  16.961 -0.0977 -0.0947  2.2394
 2855TIP3    H230057   1.739   6.645  16.994  0.4210  0.0603  2.2238
 2856TIP3   OH230058   3.094   0.778  16.100 -0.6291 -0.3812  0.1466
 2856TIP3    H130059   3.004   0.790  16.132 -1.2083 -2.2099 -0.6156
 2856TIP3    H230060   3.083   0.730  16.018  1.0171  0.4133 -0.5844
 2857TIP3   OH230061   6.498   4.183  16.952 -0.0216  0.3505  0.6576
 2857TIP3    H130062   6.440   4.215  17.021  1.1049  2.3286  0.7557
 2857TIP3    H230063   6.528   4.098  16.984 -1.7368 -0.0773  1.2391
 2858TIP3   OH230064   0.214   5.494   6.061 -0.0394 -0.4608  0.4972
 2858TIP3    H130065   0.257   5.579   6.069  0.2478 -0.6782  1.3739
 2858TIP3    H230066   0.141   5.509   6.002 -0.1512  0.4575  0.8567
 2859TIP3   OH230067   4.090   1.296   1.817  0.1059  0.3015  0.0545
 2859TIP3    H130068   4.133   1.362   1.763  2.3728  1.0927  2.5682
 2859TIP3    H230069   4.154   1.278   1.887 -1.7406 -2.2219  1.2480
 2860TIP3   OH230070   4.763   1.964   6.088  0.9486  0.7386  0.1854
 2860TIP3    H130071   4.749   1.941   6.180  1.8735  2.0859  0.6935
 2860TIP3    H230072   4.699   1.912   6.041  0.2410  0.2438  1.6205
 2861TIP3   OH230073   1.568   4.419  11.818 -0.2132  0.0695  0.2061
 2861TIP3    H130074   1.494   4.467  11.780  0.7447  1.0827 -0.4330
 2861TIP3    H230075   1.539   4.327  11.819 -1.7550  0.5391  0.6587
 2862TIP3   OH230076   2.034   2.213  13.214  0.1500 -0.1426  0.1790
 2862TIP3    H130077   2.036   2.138  13.155  0.6893  0.7505 -0.9853
 2862TIP3    H230078   1.965   2.269  13.179 -0.6432 -0.3354  1.3757
 2863TIP3   OH230079   3.598   6.816  15.939  0.0800 -0.2559  0.0425
 2863TIP3    H130080   3.518   6.765  15.932  0.0581 -0.1873 -0.2050
 2863TIP3    H230081   3.616   6.846  15.850 -0.7960  1.5239  0.4262
 2864TIP3   OH230082   3.696   6.371  13.338 -0.6822 -0.0769  0.4762
 2864TIP3    H130083   3.657   6.409  13.259 -0.5444  0.6790  0.7612
 2864TIP3    H230084   3.789   6.361  13.317 -0.6218  0.2419  0.5763
 2865TIP3   OH230085   4.374   1.548   6.240  0.0828  0.5951  0.5835
 2865TIP3    H130086   4.301   1.488   6.250  1.9171 -1.8608  0.2839
 2865TIP3    H230087   4.448   1.502   6.281  1.7228  2.4082 -0.1861
 2866TIP3   OH230088   2.333   2.564  10.918  0.2360 -0.2378 -0.3980
 2866TIP3    H130089   2.374   2.478  10.916 -1.9749 -1.3803 -0.2595
 2866TIP3    H230090   2.313   2.583  10.826  0.2761 -0.1156 -0.3804
 2867TIP3   OH230091   3.467   2.886  11.380  0.2599  0.0308 -0.3062
 2867TIP3    H130092   3.427   2.915  11.298 -2.7739 -0.3866  0.8857
 2867TIP3    H230093   3.530   2.955  11.401  1.6752 -0.2098 -3.2611
 2868TIP3   OH230094   3.604   6.124  11.722 -0.1574 -0.4428  0.4057
 2868TIP3    H130095   3.541   6.147  11.790 -0.7551  3.0278 -1.1257
 2868TIP3    H230096   3.688   6.156  11.756  0.4707 -2.7606  1.3092
 2869TIP3   OH230097   3.001   3.290   0.608 -0.2237  0.4731 -0.0098
 2869TIP3    H130098   3.013   3.227   0.680 -0.0244  0.7446  0.1989
 2869TIP3    H230099   3.035   3.245   0.531 -1.8071 -0.4056 -0.2398
 2870TIP3   OH230100   4.045   1.021  14.896  0.7697  0.1437  0.2337
 2870TIP3    H130101   3.959   0.981  14.908  0.3484  1.2046  0.9437
 2870TIP3    H230102   4.097   0.954  14.854 -0.4375 -0.4935 -0.2966
 2871TIP3   OH230103   6.677   6.174   6.630  0.3650  0.0393  0.0321
 2871TIP3    H130104   6.650   6.108   6.565  0.5836 -0.4765  0.4528
 2871TIP3    H230105   6.595   6.219   6.653  0.0280 -0.7666  0.4730
 2872TIP3   OH230106   2.969   4.837   0.998  0.0481 -0.8150  0.7972
 2872TIP3    H130107   2.907   4.803   1.062  0.1429  1.8097  2.4395
 2872TIP3    H230108   2.920   4.905   0.952  1.2773  0.4563  1.2811
 2873TIP3   OH230109   3.682   1.865  13.338 -0.3850 -0.6221  0.2800
 2873TIP3    H130110   3.673   1.770  13.329 -1.6730 -0.4548 -0.4358
 2873TIP3    H230111   3.662   1.882  13.430  1.4750 -1.1871  0.8273
 2874TIP3   OH230112   3.315   3.889  16.312  0.0156  0.1297 -0.0712
 2874TIP3    H130113   3.361   3.931  16.385  0.2721  0.9922 -0.7071
 2874TIP3    H230114   3.384   3.849  16.260  0.0225  0.9922 -0.7527
 2875TIP3   OH230115   5.302   0.604  13.002  0.4392  0.5830 -0.3599
 2875TIP3    H130116   5.310   0.571  13.092  2.0710  3.3532  0.6382
 2875TIP3    H230117   5.208   0.607  12.986  0.1544 -1.3159  0.6677
 2876TIP3   OH230118   4.829   3.398   5.533 -0.2183  0.3000  0.6492
 2876TIP3    H130119   4.769   3.431   5.467  1.0969 -0.2389 -0.8742
 2876TIP3    H230120   4.803   3.442   5.614 -1.0283  1.9889 -0.4868
 2877TIP3   OH230121   1.117   5.038   1.328  0.4007 -0.1673 -0.1667
 2877TIP3    H130122   1.165   5.033   1.410  0.7633  0.5058 -0.3237
 2877TIP3    H230123   1.036   5.083   1.350  0.0254 -0.9121  0.0134
 2878TIP3   OH230124   2.666   5.002  11.569 -0.4303 -0.4419 -0.1347
 2878TIP3    H130125   2.699   5.064  11.634 -1.7481 -1.1754  1.3007
 2878TIP3    H230126   2.733   4.934  11.563  0.9881  0.9977 -1.6617
 2879TIP3   OH230127   6.560   2.234   4.447 -0.3101 -0.1701 -0.1101
 2879TIP3    H130128   6.477   2.189   4.432 -0.2234 -1.6496  3.1809
 2879TIP3    H230129   6.624   2.164   4.462  1.1486  0.9803 -0.6422
 2880TIP3   OH230130   1.886   0.211   4.330 -0.4570  0.0427  0.4421
 2880TIP3    H130131   1.935   0.147   4.278 -0.5932  0.6328 -0.4340
 2880TIP3    H230132   1.935   0.217   4.412  0.8951  0.5330 -0.3707
 2881TIP3   OH230133   0.508   1.270  16.530 -0.6843  0.9638  0.4667
 2881TIP3    H130134   0.558   1.242  16.606 -1.5464 -0.3410  0.5901
 2881TIP3    H230135   0.545   1.355  16.506  0.1439  1.0101  1.8334
 2882TIP3   OH230136   4.423   4.687   1.106 -0.5600 -0.2926  0.2595
 2882TIP3    H130137   4.413   4.765   1.161  0.5741  0.2557 -0.2751
 2882TIP3    H230138   4.393   4.615   1.160  1.6528  0.0509  2.0669
 2883TIP3   OH230139   5.625   3.377   4.951  0.7139 -0.2352  0.5567
 2883TIP3    H130140   5.609   3.327   4.872 -1.5685  3.3179 -1.4930
 2883TIP3    H230141   5.563   3.342   5.015 -1.9717  0.7513 -1.3119
 2884TIP3   OH230142   4.582   6.608  11.853  0.5205 -0.5804 -0.0476
 2884TIP3    H130143   4.573   6.555  11.933  1.0304 -0.9941 -0.2568
 2884TIP3    H230144   4.546   6.693  11.877  0.7433 -0.6718  0.6539
 2885TIP3   OH230145   0.533   2.616   3.919 -0.4730  0.1404  0.2430
 2885TIP3    H130146   0.571   2.657   3.842  0.2723 -1.6596 -0.4034
 2885TIP3    H230147   0.483   2.686   3.961 -0.0758  1.4230 -1.3097
 2886TIP3   OH230148   4.413   0.386  13.150  0.3512  0.2594 -0.6212
 2886TIP3    H130149   4.488   0.427  13.106 -0.3953  2.0310 -0.3500
 2886TIP3    H230150   4.337   0.433  13.115 -0.6391 -1.4177 -0.8056
 2887TIP3   OH230151   1.675   1.488   5.491  0.6671  0.4417 -0.0057
 2887TIP3    H130152   1.684   1.405   5.444 -2.6165  0.1040 -0.2162
 2887TIP3    H230153   1.731   1.549   5.441  0.5976 -0.8811 -1.8093
 2888TIP3   OH230154   3.416   0.727  16.057  0.3502  0.1217  0.2826
 2888TIP3    H130155   3.330   0.765  16.043 -0.6205 -1.6262  1.1225
 2888TIP3    H230156   3.470   0.761  15.986 -0.7316  2.0729  0.3530
 2889TIP3   OH230157   1.971   4.277   0.480  0.2378 -0.2943  0.0690
 2889TIP3    H130158   2.056   4.290   0.523 -0.0532 -0.4931  0.7147
 2889TIP3    H230159   1.910   4.330   0.531  0.0525  0.2429 -0.6953
 2890TIP3   OH230160   4.286   5.153  15.759  0.2842  0.3564 -0.0207
 2890TIP3    H130161   4.252   5.100  15.831 -1.4136  1.5698  0.1086
 2890TIP3    H230162   4.251   5.110  15.680 -0.3586  0.7611  0.0396
 2891TIP3   OH230163   4.845   1.680   4.104 -0.5091 -0.0211  0.0560
 2891TIP3    H130164   4.886   1.767   4.104 -0.2722  0.1075 -4.3140
 2891TIP3    H230165   4.916   1.621   4.079 -1.4643 -0.8631 -0.7313
 2892TIP3   OH230166   4.477   2.414   0.656  0.3625 -0.4593 -0.6164
 2892TIP3    H130167   4.424   2.339   0.682  0.0226 -0.2517 -0.7084
 2892TIP3    H230168   4.492   2.462   0.737  0.1480 -0.3511 -0.6407
 2893TIP3   OH230169   5.344   4.998  11.282 -0.3718 -0.1265  0.4685
 2893TIP3    H130170   5.412   5.014  11.217  1.7803  0.6392  2.7771
 2893TIP3    H230171   5.299   5.082  11.292  1.4550  0.7277  2.2101
 2894TIP3   OH230172   0.750   5.375  13.891  0.2509  0.0543  0.0296
 2894TIP3    H130173   0.695   5.302  13.919 -0.4744  0.1223 -1.1657
 2894TIP3    H230174   0.747   5.437  13.964 -2.3199  0.6396 -0.4812
 2895TIP3   OH230175   0.023   5.952   3.140 -0.7304  0.2622 -0.1195
 2895TIP3    H130176   0.007   5.873   3.088 -0.0610  0.6822 -0.9933
 2895TIP3    H230177   0.074   5.922   3.215 -0.9736 -0.2259 -0.1468
 2896TIP3   OH230178   2.073   5.054   1.423 -0.6168  0.2717 -0.3638
 2896TIP3    H130179   2.001   4.993   1.408  0.0545 -0.6241 -0.0526
 2896TIP3    H230180   2.152   5.000   1.418  0.2755  1.6465 -3.3015
 2897TIP3   OH230181   1.372   4.895  12.103 -0.0966 -0.3346  0.3919
 2897TIP3    H130182   1.466   4.876  12.094 -0.1011 -0.2949  0.2697
 2897TIP3    H230183   1.368   4.989  12.117 -0.1448 -0.2793  0.0134
 2898TIP3   OH230184   4.047   3.498   6.131  0.2132  0.7768  0.0715
 2898TIP3    H130185   4.061   3.492   6.226 -0.8571  1.7570  0.3131
 2898TIP3    H230186   4.134   3.520   6.096  0.7731 -0.2945  0.7307
 2899TIP3   OH230187   3.390   0.517   2.204  0.1194 -0.2732 -0.1650
 2899TIP3    H130188   3.445   0.585   2.243 -1.0334  0.0975  0.8753
 2899TIP3    H230189   3.365   0.552   2.119  0.2809  0.2123 -0.0148
 2900TIP3   OH230190   0.606   3.136   4.206 -0.1113  0.1500 -0.1400
 2900TIP3    H130191   0.607   3.042   4.226  0.4136  0.4240  1.2666
 2900TIP3    H230192   0.515   3.154   4.182 -0.8004 -0.3036  1.8747
 2901TIP3   OH230193   5.703   5.938  13.002 -0.0593  0.0221  0.6315
 2901TIP3    H130194   5.701   5.843  13.010 -1.8399  0.0402  0.6688
 2901TIP3    H230195   5.612   5.964  12.994  0.3123  1.8225  1.6789
 2902TIP3   OH230196   2.132   0.669  15.787 -0.5362 -0.1193  0.3641
 2902TIP3    H130197   2.066   0.627  15.732 -0.0085 -1.0446  0.4261
 2902TIP3    H230198   2.208   0.680  15.730 -0.0490 -0.9188  0.8551
 2903TIP3   OH230199   6.366   0.208  14.714 -0.5366  0.0445  0.0128
 2903TIP3    H130200   6.340   0.169  14.630  2.0853 -0.5095 -0.6183
 2903TIP3    H230201   6.374   0.301  14.696  1.6819 -0.2747 -0.8739
 2904TIP3   OH230202   0.960   4.167  13.264 -0.5862  0.2280  0.0643
 2904TIP3    H130203   0.994   4.244  13.310  0.8353  0.0806 -0.7044
 2904TIP3    H230204   1.035   4.109  13.254 -1.8279 -1.7161  1.4412
 2905TIP3   OH230205   2.598   4.023   3.267 -0.0925 -0.4170  0.0171
 2905TIP3    H130206   2.529   3.982   3.214 -1.5310 -1.1888  2.3411
 2905TIP3    H230207   2.679   3.984   3.234 -0.8484 -0.4392 -1.9607
 2906TIP3   OH230208   6.099   5.991  10.879  0.6813 -0.6626 -0.0049
 2906TIP3    H130209   6.017   5.995  10.830  0.4566 -1.6968  0.2630
 2906TIP3    H230210   6.152   5.927  10.832  2.4482  1.8635 -1.7629
 2907TIP3   OH230211   0.765   6.251  15.924  0.0975 -0.6327 -0.2339
 2907TIP3    H130212   0.684   6.252  15.974  0.1871 -1.8395 -0.0271
 2907TIP3    H230213   0.757   6.324  15.863 -0.3599  0.3690  0.9799
 2908TIP3   OH230214   1.516   0.540  14.065  0.0331 -0.1311  0.1979
 2908TIP3    H130215   1.585   0.591  14.023 -0.4212  1.3482  1.1691
 2908TIP3    H230216   1.517   0.456  14.019  2.5452 -0.2090  0.2612
 2909TIP3   OH230217   3.429   6.045   5.477  0.3123 -0.1429  0.3957
 2909TIP3    H130218   3.475   5.976   5.526 -0.8484 -0.1574  1.5259
 2909TIP3    H230219   3.457   6.127   5.519 -0.2267 -0.1113  0.6951
 2910TIP3   OH230220   0.068   5.084   3.421 -0.2661 -0.2195  0.3464
 2910TIP3    H130221   0.098   5.016   3.362  0.1599 -0.3110  0.6599
 2910TIP3    H230222   0.005   5.040   3.478  0.9593 -0.6989  1.3933
 2911TIP3   OH230223   3.734   5.412  15.961  0.0054 -0.5430  0.1275
 2911TIP3    H130224   3.644   5.431  15.931 -0.6120 -1.3455  1.4173
 2911TIP3    H230225   3.787   5.419  15.881 -0.9285  1.5594 -0.3811
 2912TIP3   OH230226   6.543   4.970   2.492  0.1336 -0.0552  0.0317
 2912TIP3    H130227   6.480   4.986   2.562 -0.9003  2.9858 -1.4352
 2912TIP3    H230228   6.610   5.037   2.504  1.0797 -0.8419 -0.6681
 2913TIP3   OH230229   4.798   3.070   2.263 -0.5644 -0.3952  0.0831
 2913TIP3    H130230   4.837   3.154   2.240  0.9645 -1.0448  0.1891
 2913TIP3    H230231   4.868   3.007   2.252 -1.6874 -1.6831 -0.0111
 2914TIP3   OH230232   2.960   0.761   5.036  0.2586 -0.0178 -0.2987
 2914TIP3    H130233   2.869   0.789   5.046  0.4638  1.6437 -2.3716
 2914TIP3    H230234   2.973   0.755   4.941  1.7446 -2.3307 -0.0166
 2915TIP3   OH230235   1.989   5.109   0.788  0.8254  0.1380  0.1129
 2915TIP3    H130236   1.942   5.126   0.870  1.8450 -2.9718  1.4909
 2915TIP3    H230237   2.045   5.033   0.808  1.0385 -0.8194 -3.5008
 2916TIP3   OH230238   4.665   0.793   2.415 -0.3326 -0.0619  0.7260
 2916TIP3    H130239   4.686   0.883   2.442  0.4617  0.2535 -0.8229
 2916TIP3    H230240   4.569   0.791   2.411 -0.3649  0.6730  0.9521
 2917TIP3   OH230241   3.210   6.118   2.757  0.3726  0.5784 -0.4937
 2917TIP3    H130242   3.236   6.082   2.841  0.3500  0.7825 -0.3996
 2917TIP3    H230243   3.285   6.171   2.729  0.9538 -0.5919 -1.2544
 2918TIP3   OH230244   6.526   1.266   1.596  0.6183 -0.2676  0.6856
 2918TIP3    H130245   6.498   1.355   1.619 -1.6915 -0.2578 -1.6502
 2918TIP3    H230246   6.514   1.215   1.676 -1.2202  0.8720  1.1828
 2919TIP3   OH230247   4.539   2.112  11.500  0.3505  0.4305  0.4526
 2919TIP3    H130248   4.456   2.122  11.547 -0.0902 -0.1228 -0.1906
 2919TIP3    H230249   4.573   2.201  11.494  0.7789  0.4488  2.4370
 2920TIP3   OH230250   2.191   3.203   1.156  0.2137 -0.2584 -0.2234
 2920TIP3    H130251   2.167   3.287   1.118  2.5401  0.5847 -0.0039
 2920TIP3    H230252   2.122   3.184   1.219  0.0448  1.9010  0.3114
 2921TIP3   OH230253   3.318   5.188  10.396 -0.5923 -0.2484  0.4880
 2921TIP3    H130254   3.233   5.229  10.409 -0.4606  0.1067  0.2399
 2921TIP3    H230255   3.359   5.238  10.325 -0.4502 -0.8326  0.1413
 2922TIP3   OH230256   5.764   2.136  11.459 -0.4368 -0.5954  0.1997
 2922TIP3    H130257   5.840   2.122  11.517  1.3746  2.4700 -1.1562
 2922TIP3    H230258   5.769   2.065  11.396  1.9836  0.0367 -0.4274
 2923TIP3   OH230259   4.737   6.382  15.240 -0.2824 -0.2100 -0.4071
 2923TIP3    H130260   4.725   6.393  15.334  1.1966 -0.4617 -0.1675
 2923TIP3    H230261   4.651   6.404  15.202 -1.0615 -0.6776  1.0219
 2924TIP3   OH230262   5.401   2.455   1.477  0.7569  0.1457 -0.7658
 2924TIP3    H130263   5.360   2.469   1.391 -0.8683 -0.8366 -0.1974
 2924TIP3    H230264   5.436   2.367   1.473  0.0156 -0.1886 -0.1927
 2925TIP3   OH230265   6.209   2.811   4.523 -0.1031  0.0682 -0.3715
 2925TIP3    H130266   6.242   2.744   4.462  1.6914 -1.0873  1.6956
 2925TIP3    H230267   6.150   2.763   4.582  0.4059  0.5047  0.5147
 2926TIP3   OH230268   1.048   1.590  12.795 -0.0314 -0.2362 -0.3508
 2926TIP3    H130269   1.142   1.581  12.813  0.3411 -0.0076 -2.0217
 2926TIP3    H230270   1.040   1.572  12.702 -1.6732 -0.2983 -0.2201
 2927TIP3   OH230271   2.101   0.307   3.942  0.2589 -0.1987  0.8361
 2927TIP3    H130272   2.088   0.341   4.031 -1.9659 -1.8427  1.2474
 2927TIP3    H230273   2.047   0.363   3.887  0.2166 -0.2666  0.8084
 2928TIP3   OH230274   4.531   4.045  11.549  0.0220  0.2340 -0.0338
 2928TIP3    H130275   4.455   4.096  11.523  0.3972 -0.4495 -2.7395
 2928TIP3    H230276   4.550   3.990  11.473  2.9038 -0.0065  0.7685
 2929TIP3   OH230277   6.607   3.744   2.368  0.4312 -0.0835  0.0841
 2929TIP3    H130278   6.524   3.721   2.410  0.0083 -1.5924 -1.5081
 2929TIP3    H230279   6.592   3.832   2.333 -0.7501 -0.5818 -0.7382
 2930TIP3   OH230280   4.428   3.079  13.688 -0.4579  0.4320  0.2212
 2930TIP3    H130281   4.461   3.007  13.635 -1.5807 -1.1134  1.5334
 2930TIP3    H230282   4.482   3.154  13.662  0.5475 -0.7734 -1.4041
 2931TIP3   OH230283   4.542   6.447  15.852  0.2371  0.2411 -0.1570
 2931TIP3    H130284   4.458   6.404  15.841 -0.0549  0.4130  1.1673
 2931TIP3    H230285   4.589   6.391  15.915  0.7045  0.6941 -0.0969
 2932TIP3   OH230286   5.466   5.804  12.939  0.3557  0.4655 -0.0652
 2932TIP3    H130287   5.496   5.720  12.975 -0.3922 -0.2012 -0.9435
 2932TIP3    H230288   5.372   5.806  12.956  0.5004  1.5397  0.7111
 2933TIP3   OH230289   3.534   0.506   2.618  0.2402 -0.0051 -0.1716
 2933TIP3    H130290   3.471   0.469   2.556 -2.1700 -0.3857  2.2880
 2933TIP3    H230291   3.577   0.577   2.570 -0.8705 -0.8026 -2.4910
 2934TIP3   OH230292   5.309   4.715  11.567  0.2774  0.0226  0.5172
 2934TIP3    H130293   5.226   4.762  11.578  0.2632  0.7067 -1.9966
 2934TIP3    H230294   5.357   4.733  11.648 -2.5848 -1.7483  2.8132
 2935TIP3   OH230295   6.317   0.297  14.330 -0.2999  0.2554 -0.1041
 2935TIP3    H130296   6.332   0.333  14.242  1.8213  0.6695  0.3705
 2935TIP3    H230297   6.366   0.355  14.388 -0.5809 -0.7881  1.2144
 2936TIP3   OH230298   2.062   2.620   3.549  0.2134 -0.2506  0.6644
 2936TIP3    H130299   2.102   2.654   3.628 -0.0336 -0.3999  0.8569
 2936TIP3    H230300   1.968   2.633   3.562 -0.0919 -2.7671  1.6204
 2937TIP3   OH230301   0.272   5.587   1.042 -0.1475  0.4712 -0.2448
 2937TIP3    H130302   0.301   5.499   1.069 -0.8962 -0.8483 -3.3688
 2937TIP3    H230303   0.193   5.602   1.094  0.3590 -0.3569  0.8311
 2938TIP3   OH230304   6.508   5.584   2.033 -0.3513  0.3117 -0.4121
 2938TIP3    H130305   6.573   5.541   2.089 -2.2278 -0.5064  1.2736
 2938TIP3    H230306   6.459   5.511   1.994 -2.0853  0.8428  0.6540
 2939TIP3   OH230307   4.458   0.230   4.942  0.0739  0.3001  0.0051
 2939TIP3    H130308   4.389   0.288   4.912 -0.7679 -0.3225  0.6730
 2939TIP3    H230309   4.505   0.205   4.863 -0.2834  0.9722 -0.4231
 2940TIP3   OH230310   2.117   3.969   6.652  0.4365 -0.2799 -0.2709
 2940TIP3    H130311   2.108   4.063   6.667  0.0383 -0.3251 -0.2226
 2940TIP3    H230312   2.139   3.962   6.559 -0.1320 -0.1707 -0.4158
 2941TIP3   OH230313   2.866   0.215   6.023 -0.2836  0.3887  0.3479
 2941TIP3    H130314   2.772   0.216   6.003 -0.5738 -0.9053  1.4581
 2941TIP3    H230315   2.902   0.288   5.974 -1.6501  0.0846 -1.1921
 2942TIP3   OH230316   5.937   0.211   6.354 -0.1503 -0.2226  0.0722
 2942TIP3    H130317   5.952   0.176   6.266  0.8612 -0.6189  0.3853
 2942TIP3    H230318   5.941   0.134   6.411  0.2073  0.1536  0.5675
 2943TIP3   OH230319   6.746   3.947  16.845  0.0696  0.5279 -0.2021
 2943TIP3    H130320   6.743   3.953  16.941  1.2499 -1.4873  0.0176
 2943TIP3    H230321   6.688   3.874  16.824  1.7906 -0.7578 -0.7447
 2944TIP3   OH230322   4.006   5.612   0.823  0.7291  0.0763  1.0640
 2944TIP3    H130323   3.910   5.603   0.824  0.4597  2.3880  0.6133
 2944TIP3    H230324   4.035   5.566   0.902 -0.8818  0.4934  1.9515
 2945TIP3   OH230325   5.406   1.966   4.673 -0.9692 -0.1867  0.4763
 2945TIP3    H130326   5.445   1.903   4.614 -0.0515  0.1180  0.7441
 2945TIP3    H230327   5.368   1.913   4.744  0.1423 -0.4292  0.9041
 2946TIP3   OH230328   0.203   1.977  13.510  0.0997 -0.0504  0.0035
 2946TIP3    H130329   0.289   1.943  13.535  0.1300  0.2118  0.2457
 2946TIP3    H230330   0.221   2.035  13.436  0.1486  0.1489  0.1745
 2947TIP3   OH230331   5.058   3.263   5.574 -0.3114  0.2178 -0.0092
 2947TIP3    H130332   5.056   3.267   5.670  0.6064  1.0077 -0.0039
 2947TIP3    H230333   4.980   3.311   5.546  0.5965  2.0008  0.3502
 2948TIP3   OH230334   0.731   5.096  14.669 -0.0215 -0.7103  0.0635
 2948TIP3    H130335   0.736   5.181  14.714  1.2509 -0.0528 -1.2475
 2948TIP3    H230336   0.639   5.086  14.646  0.0540  1.1247 -1.2117
 2949TIP3   OH230337   1.066   6.753  14.328  0.1126  0.1869  0.2107
 2949TIP3    H130338   1.068   6.678  14.387 -0.5588 -0.4988 -0.6012
 2949TIP3    H230339   1.109   6.721  14.248  1.1111  1.1289  0.3516
 2950TIP3   OH230340   1.201   0.551   3.131 -0.0365  0.2976 -0.0389
 2950TIP3    H130341   1.167   0.633   3.168 -0.7154  0.8640 -1.8444
 2950TIP3    H230342   1.290   0.546   3.165 -0.2747  1.3290  0.8170
 2951TIP3   OH230343   4.152   4.073  13.508 -0.1931 -0.3950 -0.2303
 2951TIP3    H130344   4.080   4.127  13.477 -2.0617 -0.9062  2.8321
 2951TIP3    H230345   4.133   3.985  13.473 -0.9716 -0.4827  0.3929
 2952TIP3   OH230346   5.005   4.303  15.828 -0.2316 -0.4594  0.0631
 2952TIP3    H130347   5.008   4.209  15.809 -0.7231 -0.3182 -0.7680
 2952TIP3    H230348   4.963   4.341  15.752 -0.7339  0.3574  0.7369
 2953TIP3   OH230349   4.135   2.876   5.290 -0.3204 -0.0232 -1.0469
 2953TIP3    H130350   4.108   2.856   5.201 -0.0434 -0.8422 -0.9572
 2953TIP3    H230351   4.184   2.799   5.318  0.2735  0.5495 -0.4651
 2954TIP3   OH230352   3.477   6.824  14.716  0.0105 -0.1312  0.3453
 2954TIP3    H130353   3.502   6.772  14.792 -0.1994  0.7181  1.0026
 2954TIP3    H230354   3.409   6.883  14.748 -0.8551 -0.5021 -0.7611
 2955TIP3   OH230355   3.307   1.599  13.369  0.2766  0.2989 -0.4038
 2955TIP3    H130356   3.332   1.557  13.287  1.6267  0.9335 -0.3453
 2955TIP3    H230357   3.388   1.598  13.421 -0.4562  0.2541  0.7710
 2956TIP3   OH230358   3.855   0.960   5.232 -0.1203  0.3234 -0.3180
 2956TIP3    H130359   3.927   0.904   5.259 -0.0745  0.7021  0.3656
 2956TIP3    H230360   3.776   0.917   5.265 -0.1823  0.0826 -0.7740
 2957TIP3   OH230361   0.703   2.788   0.915 -0.3507 -0.0307 -0.4831
 2957TIP3    H130362   0.632   2.839   0.876 -0.1389  0.9374  0.3526
 2957TIP3    H230363   0.780   2.808   0.861 -0.1046  1.1429  0.2591
 2958TIP3   OH230364   3.185   2.768   0.451 -0.1736  0.4827 -0.5012
 2958TIP3    H130365   3.117   2.766   0.519 -0.3696  0.6023 -0.6884
 2958TIP3    H230366   3.263   2.734   0.493 -0.2016  0.8897 -0.1080
 2959TIP3   OH230367   3.177   5.070   2.585 -0.0473 -0.0809  0.1386
 2959TIP3    H130368   3.154   5.006   2.518 -0.2785 -1.9545  1.9103
 2959TIP3    H230369   3.271   5.082   2.575 -0.3272  0.9740 -1.5647
 2960TIP3   OH230370   2.076   1.695   1.293 -0.2482  0.1865  0.2265
 2960TIP3    H130371   2.066   1.750   1.371 -1.7987  1.0744 -0.5395
 2960TIP3    H230372   1.991   1.651   1.284  0.0504 -0.2190 -0.7157
 2961TIP3   OH230373   0.830   3.072  10.759  0.1147  0.3488  0.0887
 2961TIP3    H130374   0.781   2.995  10.729 -0.1138 -0.4276  2.2474
 2961TIP3    H230375   0.845   3.123  10.680  2.1857 -2.9600 -1.9117
 2962TIP3   OH230376   1.945   5.481  11.266 -0.1223 -0.3605  0.1551
 2962TIP3    H130377   1.944   5.564  11.219 -1.3297  0.0622  0.8672
 2962TIP3    H230378   1.997   5.423  11.211 -0.5446  0.4366 -1.1301
 2963TIP3   OH230379   5.934   6.199   1.663 -0.1905  0.2105  0.0700
 2963TIP3    H130380   5.979   6.232   1.585  0.9646  0.2548  0.7283
 2963TIP3    H230381   5.841   6.207   1.643  0.0787 -0.4004 -1.5640
 2964TIP3   OH230382   5.760   5.487  13.738  0.0661 -0.0005 -0.1720
 2964TIP3    H130383   5.670   5.457  13.751 -0.2414  0.1811 -1.6863
 2964TIP3    H230384   5.753   5.554  13.670  1.2689  0.5448  0.2073
 2965TIP3   OH230385   4.187   3.584   0.815  0.2677  0.2139  0.4221
 2965TIP3    H130386   4.127   3.551   0.882 -0.0506  1.2650  0.6774
 2965TIP3    H230387   4.253   3.633   0.864  1.6058 -1.2904  0.1779
 2966TIP3   OH230388   0.696   3.318   5.429  0.0204  0.0387 -0.2831
 2966TIP3    H130389   0.619   3.263   5.440 -0.1178  0.2838 -0.0107
 2966TIP3    H230390   0.759   3.285   5.493  0.3803 -0.5752 -0.9448
 2967TIP3   OH230391   2.669   6.766   3.142  0.5678 -0.1503 -0.9540
 2967TIP3    H130392   2.664   6.810   3.057  1.4435  0.2608 -0.8024
 2967TIP3    H230393   2.718   6.685   3.123  0.1121 -0.4246 -0.9776
 2968TIP3   OH230394   5.420   5.904   1.895 -0.2187  0.1437 -0.1597
 2968TIP3    H130395   5.481   5.830   1.897 -0.4010 -0.0055  1.6902
 2968TIP3    H230396   5.413   5.932   1.987 -2.2235  0.7264 -0.4383
 2969TIP3   OH230397   5.235   5.616   3.790 -0.0732  0.7264  0.2806
 2969TIP3    H130398   5.266   5.530   3.817  1.3874  1.2098  0.2273
 2969TIP3    H230399   5.229   5.666   3.872 -0.6399  0.6707  0.2787
 2970TIP3   OH230400   2.715   1.861  14.167  0.1513  0.2788  0.3303
 2970TIP3    H130401   2.678   1.773  14.164  1.5302 -0.2880 -2.0075
 2970TIP3    H230402   2.775   1.859  14.242  0.2912 -0.8344  0.2057
 2971TIP3   OH230403   2.728   1.865   4.830  0.0512 -0.2909 -0.5929
 2971TIP3    H130404   2.676   1.924   4.776 -0.3691 -0.5175 -0.4409
 2971TIP3    H230405   2.744   1.914   4.911 -1.2139 -0.7694 -0.0285
 2972TIP3   OH230406   0.331   2.222   4.148 -0.0553 -0.6723  0.4046
 2972TIP3    H130407   0.379   2.197   4.227  0.3691 -0.1747  0.3144
 2972TIP3    H230408   0.265   2.154   4.137 -1.6250  0.4018  2.4362
 2973TIP3   OH230409   5.664   6.295  13.306 -0.4533  0.0754 -0.0272
 2973TIP3    H130410   5.622   6.268  13.387 -0.7727  2.4918  0.6728
 2973TIP3    H230411   5.752   6.321  13.333  0.2809 -1.3798 -0.8871
 2974TIP3   OH230412   6.144   5.772  10.732  0.1231 -0.0819 -0.1046
 2974TIP3    H130413   6.200   5.699  10.702 -0.5048  0.1667 -1.9980
 2974TIP3    H230414   6.076   5.729  10.783 -1.0411 -1.0759 -2.3357
 2975TIP3   OH230415   2.813   0.276  13.930  0.5489 -0.1298  0.2762
 2975TIP3    H130416   2.754   0.351  13.919 -1.2228 -1.5017  0.0803
 2975TIP3    H230417   2.861   0.271  13.848 -0.7202 -0.3495 -0.4759
 2976TIP3   OH230418   1.224   6.774   3.724  1.0658 -0.4646 -0.4302
 2976TIP3    H130419   1.309   6.786   3.681  0.6286 -0.8179 -1.4321
 2976TIP3    H230420   1.161   6.816   3.665  0.6000  0.3488  0.6079
 2977TIP3   OH230421   2.869   5.512   4.922  0.3301  0.1991  0.2399
 2977TIP3    H130422   2.915   5.429   4.909  0.4110  0.3882 -0.8119
 2977TIP3    H230423   2.903   5.546   5.005 -1.0395 -1.6562  1.6474
 2978TIP3   OH230424   1.047   2.060   1.555  0.1668  0.3903 -0.1159
 2978TIP3    H130425   0.977   2.052   1.490 -0.0676 -0.2723  0.2088
 2978TIP3    H230426   1.034   1.985   1.613  1.5578 -0.1308 -0.4418
 2979TIP3   OH230427   1.767   3.496  11.013  0.2477 -0.5225  0.2044
 2979TIP3    H130428   1.709   3.545  11.071  1.2764  0.2448  0.6317
 2979TIP3    H230429   1.743   3.524  10.925 -1.4189 -1.7910  0.2109
 2980TIP3   OH230430   6.019   1.284  15.753 -0.0017 -0.5225  0.2209
 2980TIP3    H130431   5.963   1.248  15.684 -1.1382 -1.5300  1.6183
 2980TIP3    H230432   5.972   1.362  15.783 -0.3847 -1.0306  0.9805
 2981TIP3   OH230433   1.758   2.508   4.695 -0.1987 -0.1537 -0.4121
 2981TIP3    H130434   1.665   2.532   4.705  0.3170  1.2711  1.8594
 2981TIP3    H230435   1.779   2.463   4.777  0.9052 -1.3215 -1.3127
 2982TIP3   OH230436   1.119   5.426  16.747 -0.0234  0.0269 -0.1686
 2982TIP3    H130437   1.128   5.352  16.687  0.5442  0.0294 -0.0973
 2982TIP3    H230438   1.074   5.391  16.823 -0.9309  0.0691 -0.6778
 2983TIP3   OH230439   3.867   3.348  15.693  0.0593  0.3932  0.2883
 2983TIP3    H130440   3.926   3.299  15.750  1.4995 -1.4812 -2.5666
 2983TIP3    H230441   3.891   3.440  15.707  1.1061 -0.0843  1.8620
 2984TIP3   OH230442   5.673   2.381  16.279 -0.1109 -0.2764  0.1021
 2984TIP3    H130443   5.660   2.334  16.361  0.0321 -1.7964 -0.7106
 2984TIP3    H230444   5.634   2.324  16.212  2.9922 -0.8854 -1.3517
 2985TIP3   OH230445   4.340   6.183  16.067 -0.0051  0.3453  0.5752
 2985TIP3    H130446   4.317   6.191  15.975 -1.5313 -1.4579  0.7404
 2985TIP3    H230447   4.319   6.269  16.105 -1.4820  0.4153 -0.3404
 2986TIP3   OH230448   5.699   5.363   2.913  0.1725  0.4575 -0.0136
 2986TIP3    H130449   5.675   5.456   2.912  2.0194  0.9637  0.5826
 2986TIP3    H230450   5.711   5.341   3.005 -0.5454 -0.4942 -0.1179
 2987TIP3   OH230451   6.428   4.402  15.371 -0.1638  0.0582  0.2002
 2987TIP3    H130452   6.480   4.329  15.335 -0.0084  0.6114 -0.7460
 2987TIP3    H230453   6.338   4.380  15.347 -0.1929 -0.1601  0.5124
 2988TIP3   OH230454   6.645   5.473   2.940  0.2287  0.1510  0.4421
 2988TIP3    H130455   6.638   5.550   2.885  0.6099 -1.0955 -1.4362
 2988TIP3    H230456   6.739   5.456   2.948  0.1779  0.2186  1.3792
 2989TIP3   OH230457   2.426   2.387   0.436  0.1768 -0.0480  0.0950
 2989TIP3    H130458   2.415   2.416   0.345 -1.1149  2.1455  0.8518
 2989TIP3    H230459   2.381   2.303   0.441  0.2598 -0.1851 -1.3012
 2990TIP3   OH230460   3.840   5.311  13.694  0.5481  0.5949  0.1609
 2990TIP3    H130461   3.746   5.303  13.708  0.7086  0.0245  0.9362
 2990TIP3    H230462   3.868   5.224  13.665  1.2968 -0.1369  2.7868
 2991TIP3   OH230463   5.757   5.172   5.309  0.0649 -0.8493 -0.1083
 2991TIP3    H130464   5.824   5.203   5.370  1.1349 -1.4814 -0.9036
 2991TIP3    H230465   5.761   5.076   5.317 -0.3338 -0.9102 -0.5936
 2992TIP3   OH230466   2.656   6.778   6.146 -0.2509  1.0952 -0.5815
 2992TIP3    H130467   2.640   6.869   6.172  1.6831  1.3259 -0.0126
 2992TIP3    H230468   2.742   6.781   6.103 -0.5919 -0.3311 -1.4206
 2993TIP3   OH230469   0.721   5.337   0.367  0.2988  0.5809 -0.1773
 2993TIP3    H130470   0.691   5.368   0.452  0.1473  2.4798 -0.8528
 2993TIP3    H230471   0.640   5.319   0.318  0.3841 -0.4989  0.0604
 2994TIP3   OH230472   4.427   0.736  14.435 -0.0968 -0.5739  0.0659
 2994TIP3    H130473   4.472   0.723  14.518 -0.0677 -0.3527  0.0860
 2994TIP3    H230474   4.341   0.773  14.459  0.1522  0.0874 -0.0325
 2995TIP3   OH230475   2.247   3.793   2.033 -0.1849 -0.8778 -0.3669
 2995TIP3    H130476   2.236   3.758   1.945 -2.5681 -1.9706  0.2953
 2995TIP3    H230477   2.206   3.880   2.030 -1.5720 -1.5018 -0.0082
 2996TIP3   OH230478   2.464   5.715  11.846 -0.1680  0.2221  0.7789
 2996TIP3    H130479   2.502   5.689  11.930 -1.3110  1.1064  1.6101
 2996TIP3    H230480   2.389   5.769  11.870 -0.9343 -0.0769 -0.8201
 2997TIP3   OH230481   0.518   2.501  12.839 -0.1255 -0.2996 -0.4533
 2997TIP3    H130482   0.522   2.470  12.748  0.4889 -0.4369 -0.3808
 2997TIP3    H230483   0.426   2.527  12.851 -0.3173 -0.7117 -0.9721
 2998TIP3   OH230484   0.687   0.534   5.923  0.8491  0.0136  0.3697
 2998TIP3    H130485   0.725   0.566   5.841  2.8340 -2.2268  0.3001
 2998TIP3    H230486   0.602   0.497   5.897  1.4697 -0.7045 -0.7226
 2999TIP3   OH230487   5.464   1.481  16.557  0.9057 -0.5364  0.3889
 2999TIP3    H130488   5.500   1.437  16.634 -0.3223  0.3514  1.5299
 2999TIP3    H230489   5.441   1.569  16.588  1.8687  0.4109 -1.4252
 3000TIP3   OH230490   4.820   4.000  10.833  0.0487 -0.4159 -0.2487
 3000TIP3    H130491   4.742   3.987  10.780 -0.5791  1.2226  0.2324
 3000TIP3    H230492   4.822   3.924  10.892 -0.7172 -0.8750 -0.7996
 3001TIP3   OH230493   2.764   4.645  16.053  0.6354 -0.0567 -0.1867
 3001TIP3    H130494   2.825   4.687  16.113 -0.2696 -0.4540  1.0498
 3001TIP3    H230495   2.819   4.610  15.983  1.7816 -0.1383  0.7354
 3002TIP3   OH230496   1.167   6.049   6.229  0.2232  0.4315  0.1748
 3002TIP3    H130497   1.159   5.988   6.156  0.1655  1.8456 -1.0368
 3002TIP3    H230498   1.124   6.129   6.199 -1.1085  0.5986  2.3315
 3003TIP3   OH230499   4.380   2.132   0.716  0.2547 -0.3639  0.6400
 3003TIP3    H130500   4.369   2.037   0.727 -1.0026 -0.1307  1.6497
 3003TIP3    H230501   4.292   2.165   0.699  0.8210  0.5233 -0.8870
 3004TIP3   OH230502   4.482   1.506   4.900  0.1710 -0.1614 -0.2319
 3004TIP3    H130503   4.531   1.569   4.847 -0.9112 -0.9756 -2.2891
 3004TIP3    H230504   4.462   1.553   4.981  2.8210  0.7517 -0.0189
 3005TIP3   OH230505   0.004   1.470   3.610  0.3523  0.3370  0.2003
 3005TIP3    H130506  -0.065   1.536   3.616  0.3067  0.3512 -0.4586
 3005TIP3    H230507   0.016   1.456   3.516 -0.2224 -1.2085  0.3259
 3006TIP3   OH230508   1.486   2.974  16.707  0.3015 -0.0744  0.2348
 3006TIP3    H130509   1.413   3.012  16.658  0.9086  1.1995  0.2946
 3006TIP3    H230510   1.488   2.882  16.678 -1.2932 -0.1450  0.2186
 3007TIP3   OH230511   4.365   1.947   3.101 -0.1613  0.0088  0.4333
 3007TIP3    H130512   4.350   1.871   3.045  0.0623  0.4959 -0.2902
 3007TIP3    H230513   4.340   2.022   3.048  0.9282  0.5471  0.6558
 3008TIP3   OH230514   0.685   5.338  13.604  1.3377 -0.0485  0.4117
 3008TIP3    H130515   0.711   5.352  13.695  0.5980  0.3243  0.5703
 3008TIP3    H230516   0.594   5.365  13.601  1.5539  0.6092 -0.6059
 3009TIP3   OH230517   5.567   4.958   5.127  0.0709  0.4431 -0.1271
 3009TIP3    H130518   5.503   4.889   5.145 -0.9809  1.1548 -1.0145
 3009TIP3    H230519   5.551   5.024   5.195 -0.8400  1.0742 -0.9309
 3010TIP3   OH230520   4.499   6.115   2.589 -0.5218 -0.3263  0.1667
 3010TIP3    H130521   4.438   6.046   2.616  0.9691 -1.5046  0.6731
 3010TIP3    H230522   4.504   6.106   2.494  1.4327 -2.5781  0.3888
 3011TIP3   OH230523   0.984   0.234  14.929  0.4172  0.4947 -0.0834
 3011TIP3    H130524   0.893   0.246  14.903  0.1858  0.7473  0.8152
 3011TIP3    H230525   0.985   0.151  14.977  0.9224 -0.1880 -1.2178
 3012TIP3   OH230526   1.852   5.315   3.641  0.2581  0.2390  0.0872
 3012TIP3    H130527   1.764   5.283   3.621  0.8983 -1.7162  0.1410
 3012TIP3    H230528   1.900   5.307   3.559  0.8066 -0.2827  0.4498
 3013TIP3   OH230529   5.535   2.176   1.573  0.3886 -0.2887 -0.6791
 3013TIP3    H130530   5.561   2.259   1.613  0.2858 -0.7477  0.3789
 3013TIP3    H230531   5.476   2.136   1.637  2.1424 -2.1801 -0.1332
 3014TIP3   OH230532   1.186   5.005  13.146  0.3482  0.0482 -0.2884
 3014TIP3    H130533   1.127   5.060  13.198 -1.1059  0.7250 -2.5392
 3014TIP3    H230534   1.257   5.063  13.120 -0.0760  0.2972 -0.8931
 3015TIP3   OH230535   6.385   2.203  13.146 -0.1233 -1.2005 -0.1107
 3015TIP3    H130536   6.455   2.161  13.196 -1.3039 -1.5277  1.3534
 3015TIP3    H230537   6.314   2.212  13.209 -0.5420  1.4213 -0.8619
 3016TIP3   OH230538   1.133   5.619  12.999 -0.3090  0.2006 -0.1761
 3016TIP3    H130539   1.179   5.703  13.000 -0.2094  0.1440  0.0153
 3016TIP3    H230540   1.195   5.558  12.960 -0.6368  0.3626 -0.9579
 3017TIP3   OH230541   5.529   5.419   4.951 -0.1568  0.2573  0.0661
 3017TIP3    H130542   5.546   5.439   4.859 -0.5458 -0.7443 -0.2465
 3017TIP3    H230543   5.528   5.323   4.954 -4.2190  0.1341  0.2618
 3018TIP3   OH230544   2.955   5.957  16.216  0.1727 -0.3560 -0.1299
 3018TIP3    H130545   2.966   5.974  16.122 -1.3302 -1.8010 -0.6160
 3018TIP3    H230546   2.895   5.883  16.220  2.1479 -1.9711  1.9501
 3019TIP3   OH230547   3.604   0.300   4.120 -0.1786  0.2464 -0.4170
 3019TIP3    H130548   3.640   0.324   4.206 -2.9667 -1.2369  1.3133
 3019TIP3    H230549   3.660   0.346   4.058  2.4237  0.8645  2.1164
 3020TIP3   OH230550   5.049   3.555   5.391  0.0373 -0.5213 -0.8633
 3020TIP3    H130551   4.972   3.543   5.335 -1.6337  1.5786  0.8059
 3020TIP3    H230552   5.025   3.514   5.474 -0.9314  3.1677  0.8923
 3021TIP3   OH230553   3.299   6.294  14.604  0.0074  1.1696  0.1482
 3021TIP3    H130554   3.232   6.311  14.538  0.2678 -0.8646 -0.7451
 3021TIP3    H230555   3.303   6.373  14.657 -0.7735  2.5827 -1.8052
 3022TIP3   OH230556   4.857   6.590   4.152 -0.1676 -0.2434  0.0658
 3022TIP3    H130557   4.807   6.661   4.112  0.3662  0.1130  0.0275
 3022TIP3    H230558   4.851   6.606   4.246  0.9187  0.5300  0.0236
 3023TIP3   OH230559   6.264   1.438  13.465  0.1970 -0.5614  0.6489
 3023TIP3    H130560   6.205   1.448  13.539  0.7764  1.6095  0.8872
 3023TIP3    H230561   6.210   1.398  13.396 -1.9711  2.3117  0.4704
 3024TIP3   OH230562   6.818   2.301   3.694 -0.3161  0.6402 -0.0326
 3024TIP3    H130563   6.869   2.264   3.621 -0.6343  0.2144 -0.0413
 3024TIP3    H230564   6.730   2.314   3.658 -0.1165  1.8133 -0.1595
 3025TIP3   OH230565   2.046   6.733   4.367  0.5086 -0.2346 -0.0763
 3025TIP3    H130566   2.048   6.642   4.335  1.7638 -0.0618 -0.5371
 3025TIP3    H230567   2.026   6.785   4.289 -1.6828 -0.1947  0.4557
 3026TIP3   OH230568   3.270   4.884  11.433 -0.0459 -0.3437 -0.0468
 3026TIP3    H130569   3.312   4.931  11.361 -0.2858  0.0765  0.0870
 3026TIP3    H230570   3.306   4.795  11.427 -1.9364 -1.0649 -2.2600
 3027TIP3   OH230571   5.677   6.656  14.810 -0.5695  0.0238 -0.3771
 3027TIP3    H130572   5.758   6.613  14.781 -0.9584  0.2315 -1.8791
 3027TIP3    H230573   5.692   6.676  14.902  0.9775 -0.1991 -0.5501
 3028TIP3   OH230574   3.589   3.340  15.785  0.3299  0.8151 -0.5778
 3028TIP3    H130575   3.666   3.348  15.729  0.6678  0.8047 -0.1220
 3028TIP3    H230576   3.552   3.428  15.790  1.8856  1.4480  1.3978
 3029TIP3   OH230577   4.388   6.281  14.218  0.9688 -0.3459 -0.7754
 3029TIP3    H130578   4.359   6.349  14.278  0.7548 -0.3712 -0.8495
 3029TIP3    H230579   4.388   6.201  14.272 -1.1246 -0.7463 -1.2785
 3030TIP3   OH230580   0.664   3.394  13.011  0.8260 -0.4120  0.1378
 3030TIP3    H130581   0.710   3.316  12.979  0.2342 -0.0806 -1.5919
 3030TIP3    H230582   0.695   3.404  13.101  3.9190 -0.4072 -0.8094
 3031TIP3   OH230583   2.990   5.458  11.062 -0.4279  0.2347 -0.6076
 3031TIP3    H130584   3.062   5.437  11.121 -0.8897 -1.6530 -0.6563
 3031TIP3    H230585   3.031   5.508  10.991  0.8827 -0.8972 -0.6927
 3032TIP3   OH230586   1.013   0.313   4.480 -0.7303 -0.2278  0.2690
 3032TIP3    H130587   1.103   0.339   4.499 -0.4442 -1.7940  1.2187
 3032TIP3    H230588   0.979   0.384   4.426  0.1099  1.8457  2.3168
 3033TIP3   OH230589   3.997   3.479   4.546  0.4285 -0.5401  0.0664
 3033TIP3    H130590   4.014   3.477   4.452 -1.4826 -0.0659 -0.3329
 3033TIP3    H230591   3.942   3.557   4.559  1.0418 -0.3224  1.6557
 3034TIP3   OH230592   6.428   6.177   3.502 -0.0310 -0.3965  0.0079
 3034TIP3    H130593   6.507   6.128   3.478  0.8377 -0.1850  2.2146
 3034TIP3    H230594   6.460   6.265   3.521 -0.8331 -0.2366  0.6573
 3035TIP3   OH230595   1.513   0.519   4.425  0.3545 -0.0010  0.2356
 3035TIP3    H130596   1.477   0.526   4.514 -0.4264  1.0175 -0.1454
 3035TIP3    H230597   1.546   0.606   4.406  1.2875 -0.4330 -0.1704
 3036TIP3   OH230598   1.156   4.595   2.902 -0.3470  0.1773 -0.1002
 3036TIP3    H130599   1.120   4.542   2.973 -3.5033 -0.0598 -1.6925
 3036TIP3    H230600   1.136   4.686   2.927  0.4129  0.2627  0.2320
 3037TIP3   OH230601   0.433   3.855   3.696  0.3247  0.5820  0.1246
 3037TIP3    H130602   0.503   3.909   3.732  0.5461  1.1920 -1.1524
 3037TIP3    H230603   0.453   3.849   3.602  0.5975 -2.1473  0.2566
 3038TIP3   OH230604   0.619   1.551  14.130 -0.1821 -0.0981 -0.2639
 3038TIP3    H130605   0.630   1.626  14.072 -0.0131 -0.5812 -0.8642
 3038TIP3    H230606   0.562   1.582  14.200  0.0564  0.6485 -0.3975
 3039TIP3   OH230607   1.150   6.702  13.416  0.0656 -0.0441 -0.0685
 3039TIP3    H130608   1.187   6.739  13.497 -1.3174  0.1723  0.4883
 3039TIP3    H230609   1.215   6.637  13.389  0.3290 -0.4826  1.5006
 3040TIP3   OH230610   1.848   5.916  10.488 -0.4836 -0.2760 -0.0213
 3040TIP3    H130611   1.811   6.001  10.512 -0.1726 -0.5963  1.7151
 3040TIP3    H230612   1.787   5.853  10.526 -0.6574 -0.8559 -1.2157
 3041TIP3   OH230613   2.980   3.869  11.689  0.1745 -0.2393 -0.4985
 3041TIP3    H130614   3.013   3.847  11.776 -1.0178 -1.0289 -0.2278
 3041TIP3    H230615   3.031   3.945  11.663  2.2635 -1.4448 -0.1451
 3042TIP3   OH230616   5.307   4.552  16.692  0.3811  0.5353  0.2026
 3042TIP3    H130617   5.402   4.558  16.698  0.3229  3.1716 -0.3791
 3042TIP3    H230618   5.277   4.563  16.783  0.6079 -0.8760  0.4700
 3043TIP3   OH230619   2.834   4.324   4.695 -0.2420 -0.0809 -0.0840
 3043TIP3    H130620   2.826   4.418   4.715 -0.2583  0.1506 -1.1240
 3043TIP3    H230621   2.862   4.284   4.778  3.2108  1.2862 -0.4253
 3044TIP3   OH230622   5.657   6.579  14.110  0.3570  0.0086  0.1279
 3044TIP3    H130623   5.678   6.663  14.149  0.7375  0.4257 -0.9449
 3044TIP3    H230624   5.574   6.594  14.064  1.1122  0.2097 -1.2316
 3045TIP3   OH230625   1.835   1.530   1.283 -0.1060  0.0268  0.6470
 3045TIP3    H130626   1.868   1.441   1.294  2.9020  0.7023 -1.6242
 3045TIP3    H230627   1.745   1.519   1.253 -0.0973 -2.1827  1.2721
 3046TIP3   OH230628   3.379   3.776   3.877  0.2304  0.4396  0.0667
 3046TIP3    H130629   3.303   3.811   3.924 -0.1856 -1.7551  1.1351
 3046TIP3    H230630   3.415   3.710   3.936  1.9277  0.1800 -1.1840
 3047TIP3   OH230631   3.679   2.279  11.914  0.5997 -0.0740  0.2495
 3047TIP3    H130632   3.764   2.264  11.956  1.2704  0.7351 -0.7795
 3047TIP3    H230633   3.648   2.361  11.952  1.4791  0.9692 -1.2058
 3048TIP3   OH230634   1.386   5.053  11.013  0.0120  0.5329  0.5015
 3048TIP3    H130635   1.307   5.018  10.971  0.2149  0.1198  0.4557
 3048TIP3    H230636   1.359   5.138  11.048  0.1508  1.5011 -1.5865
 3049TIP3   OH230637   3.613   3.332  16.537  0.0840 -0.4192 -0.0677
 3049TIP3    H130638   3.542   3.321  16.599  2.3296 -3.4385  2.2588
 3049TIP3    H230639   3.584   3.287  16.458 -1.6665  0.9608 -0.2632
 3050TIP3   OH230640   1.131   0.538   4.108 -0.3116 -0.6211 -0.3994
 3050TIP3    H130641   1.086   0.622   4.093  1.1785  0.2625 -0.1962
 3050TIP3    H230642   1.071   0.472   4.074 -0.9859  0.6292 -1.7789
 3051TIP3   OH230643   6.680   0.842   3.624  0.3377 -0.1137  0.6913
 3051TIP3    H130644   6.730   0.923   3.631 -0.3942  0.5023 -0.8159
 3051TIP3    H230645   6.688   0.801   3.710 -1.1359  2.6295  2.2449
 3052TIP3   OH230646   0.519   3.238  15.174 -0.4299  0.4146  0.4117
 3052TIP3    H130647   0.513   3.144  15.157  2.6099  0.0906  0.5048
 3052TIP3    H230648   0.540   3.276  15.088 -1.1418  0.9503  0.4685
 3053TIP3   OH230649   0.812   0.604   3.768  0.2757  0.4854  0.3846
 3053TIP3    H130650   0.792   0.534   3.706  2.4225  1.9708 -2.1855
 3053TIP3    H230651   0.726   0.633   3.799 -0.9075 -0.4059 -1.8247
 3054TIP3   OH230652   6.160   5.393  16.760 -0.0648 -0.8651  0.2950
 3054TIP3    H130653   6.106   5.324  16.722 -1.6738  0.8101 -0.6408
 3054TIP3    H230654   6.098   5.450  16.804  0.9566  0.9414 -0.4848
 3055TIP3   OH230655   0.335   0.259   0.672  0.0827  0.0499  0.0499
 3055TIP3    H130656   0.252   0.211   0.672 -0.8579  1.5592 -1.4136
 3055TIP3    H230657   0.309   0.352   0.673  1.7429  0.5684 -0.9406
 3056TIP3   OH230658   6.731   0.586   2.440 -0.0421 -0.6471  0.2600
 3056TIP3    H130659   6.755   0.655   2.502  2.6654 -1.8445  0.6817
 3056TIP3    H230660   6.751   0.624   2.354 -1.0076 -0.0511  0.2725
 3057TIP3   OH230661   0.239   2.044  16.011 -0.1510  0.6040  0.1356
 3057TIP3    H130662   0.308   2.037  16.078  0.5171 -1.1309 -0.6659
 3057TIP3    H230663   0.283   2.017  15.930 -1.4908  0.5722 -0.5945
 3058TIP3   OH230664   4.664   0.352  14.632  0.4631  0.3987  0.6688
 3058TIP3    H130665   4.568   0.354  14.635  0.4356 -0.6617  0.7590
 3058TIP3    H230666   4.686   0.260  14.622  1.4219  0.7826 -1.5233
 3059TIP3   OH230667   4.787   1.201  15.609 -0.2221 -0.2872 -0.6476
 3059TIP3    H130668   4.729   1.154  15.549 -2.0254  0.7361  0.2110
 3059TIP3    H230669   4.743   1.284  15.625  1.9420  0.9426 -0.6253
 3060TIP3   OH230670   3.373   2.590  10.422  0.1071 -0.5245  0.2251
 3060TIP3    H130671   3.425   2.634  10.490 -0.8807  0.1971  0.5384
 3060TIP3    H230672   3.370   2.499  10.449 -0.7816 -0.1452  1.5086
 3061TIP3   OH230673   4.012   4.267   5.394 -0.5481  1.1649  0.0742
 3061TIP3    H130674   4.094   4.256   5.442 -1.5878 -2.2188  1.3518
 3061TIP3    H230675   4.025   4.218   5.313 -0.7475  2.0852 -0.5318
 3062TIP3   OH230676   4.198   4.495  16.349  0.1680  0.0181  0.3710
 3062TIP3    H130677   4.279   4.545  16.343  1.0143 -1.1512  1.4282
 3062TIP3    H230678   4.129   4.557  16.325  1.1644  1.6553  1.5357
 3063TIP3   OH230679   2.198   5.422  11.594 -0.4146  0.1478 -0.2640
 3063TIP3    H130680   2.184   5.516  11.600  2.0276  0.5999 -0.6805
 3063TIP3    H230681   2.204   5.393  11.685  1.5753  0.9337 -0.0820
 3064TIP3   OH230682   3.081   0.854   1.858  0.1141 -0.3481  0.1376
 3064TIP3    H130683   3.031   0.874   1.779 -1.5204  0.4519  1.2961
 3064TIP3    H230684   3.152   0.918   1.859  0.3606 -0.5888 -0.8292
 3065TIP3   OH230685   3.131   3.685  12.980 -0.2630 -0.1463 -0.0359
 3065TIP3    H130686   3.103   3.776  12.994  1.6404  1.0587 -2.9939
 3065TIP3    H230687   3.051   3.640  12.952 -0.8775  1.1560 -0.4783
 3066TIP3   OH230688   0.531   6.512   4.829  0.0842 -0.1759 -0.0824
 3066TIP3    H130689   0.446   6.522   4.871  0.7134 -0.0023  1.1916
 3066TIP3    H230690   0.525   6.428   4.782 -0.2636 -0.9670  1.3218
 3067TIP3   OH230691   1.838   2.786  11.484 -0.5313 -0.2075 -0.0188
 3067TIP3    H130692   1.808   2.788  11.393  1.0621 -1.1856 -0.6025
 3067TIP3    H230693   1.857   2.694  11.501 -2.6469 -0.3802  1.9920
 3068TIP3   OH230694   1.379   4.322  16.186 -0.4254 -0.1596 -0.2476
 3068TIP3    H130695   1.287   4.301  16.173 -0.5098  0.2648 -0.3554
 3068TIP3    H230696   1.398   4.389  16.120 -0.5343  1.1331  0.9975
 3069TIP3   OH230697   2.778   5.034   4.081  0.2058 -0.3563 -0.1268
 3069TIP3    H130698   2.726   4.954   4.089 -0.7277  0.1316 -1.1056
 3069TIP3    H230699   2.849   5.022   4.144 -0.9326 -1.1493  1.0591
 3070TIP3   OH230700   4.874   5.086   5.432 -0.0623 -0.4991 -0.2594
 3070TIP3    H130701   4.904   5.176   5.443 -0.8184 -0.2289 -0.3975
 3070TIP3    H230702   4.845   5.060   5.519 -2.1647  0.2457 -0.6761
 3071TIP3   OH230703   0.780   2.822  14.295  0.1513 -0.0643  0.6498
 3071TIP3    H130704   0.692   2.840  14.260 -1.4067 -3.6833  2.1972
 3071TIP3    H230705   0.773   2.841  14.388  0.8150 -0.8951  0.8775
 3072TIP3   OH230706   3.530   0.772  15.797 -0.1230  0.0538  0.5058
 3072TIP3    H130707   3.563   0.826  15.725 -2.0444 -1.0655 -1.3684
 3072TIP3    H230708   3.438   0.757  15.775 -0.8122 -0.3254  3.2753
 3073TIP3   OH230709   3.581   3.616   2.351 -0.5233  0.3287 -0.5615
 3073TIP3    H130710   3.506   3.663   2.315 -0.9729 -0.2350 -0.3628
 3073TIP3    H230711   3.549   3.577   2.432 -0.0633 -0.0536 -0.5565
 3074TIP3   OH230712   5.281   2.054  13.999  0.2346  0.3934 -0.0820
 3074TIP3    H130713   5.260   2.114  13.928 -1.5948 -1.5489 -1.3049
 3074TIP3    H230714   5.317   1.977  13.955 -0.8564 -0.8206  1.0701
 3075TIP3   OH230715   4.255   0.940  10.740 -0.2399  0.1188  0.3004
 3075TIP3    H130716   4.236   0.856  10.783 -1.6531  0.5987  0.6757
 3075TIP3    H230717   4.284   0.997  10.812  1.1387 -0.1522 -0.0220
 3076TIP3   OH230718   6.135   1.782   4.042  0.4567 -0.0806 -0.0944
 3076TIP3    H130719   6.144   1.689   4.020  0.7019  0.0057 -0.3729
 3076TIP3    H230720   6.060   1.786   4.101 -0.6389 -0.2388 -1.4445
 3077TIP3   OH230721   5.688   5.994  13.858  0.1083 -0.2811  0.1989
 3077TIP3    H130722   5.742   5.985  13.938 -0.3159 -0.9500  0.4153
 3077TIP3    H230723   5.601   6.018  13.891  0.1017  0.1297 -0.1125
 3078TIP3   OH230724   3.600   5.298  14.547  0.2394  0.3312  0.2535
 3078TIP3    H130725   3.641   5.379  14.516  0.8716  0.2611  0.8765
 3078TIP3    H230726   3.642   5.281  14.632 -0.4825 -0.2034  0.5142
 3079TIP3   OH230727   4.651   2.137   4.834 -0.2241  0.2625 -0.2186
 3079TIP3    H130728   4.574   2.183   4.799 -0.8849 -1.9671 -1.8789
 3079TIP3    H230729   4.706   2.120   4.758 -0.6963 -2.8895  0.0297
 3080TIP3   OH230730   1.801   6.572   5.497  0.7128  0.3941 -0.2379
 3080TIP3    H130731   1.771   6.565   5.588  0.1767 -0.2199 -0.4498
 3080TIP3    H230732   1.842   6.488   5.478 -0.5306 -0.0649 -1.0189
 3081TIP3   OH230733   3.787   1.118   5.026 -0.1855  0.5362  0.6327
 3081TIP3    H130734   3.693   1.099   5.022  0.0660 -0.5978 -0.9481
 3081TIP3    H230735   3.818   1.070   5.102 -0.7490  0.1945  0.6590
 3082TIP3   OH230736   1.303   4.642  14.783 -0.6911  0.1774 -0.3041
 3082TIP3    H130737   1.343   4.557  14.769 -1.7661 -0.5806  0.9679
 3082TIP3    H230738   1.358   4.685  14.848 -0.7462  0.0298 -0.1618
 3083TIP3   OH230739   6.634   0.026   2.434 -0.1966 -0.4891  0.1984
 3083TIP3    H130740   6.714   0.009   2.483  0.1556 -3.3198 -1.1247
 3083TIP3    H230741   6.614  -0.058   2.391 -3.0478  0.5291 -0.7119
 3084TIP3   OH230742   1.999   0.971  16.261  0.1875  0.0057  0.1201
 3084TIP3    H130743   1.907   0.963  16.288  0.5088  2.4501  2.2826
 3084TIP3    H230744   2.030   0.880  16.260 -1.6906 -0.7389  1.4709
 3085TIP3   OH230745   1.076   3.714   1.355 -0.0998  0.3454  0.2111
 3085TIP3    H130746   1.055   3.644   1.416  1.2690 -0.0087  0.3053
 3085TIP3    H230747   1.067   3.675   1.268 -0.6160  0.4263  0.2297
 3086TIP3   OH230748   1.960   4.264  15.505  0.0500  0.3807 -0.4889
 3086TIP3    H130749   2.016   4.262  15.427  0.0907  0.7146 -0.4692
 3086TIP3    H230750   1.895   4.332  15.486 -1.1906 -0.9119 -1.0911
 3087TIP3   OH230751   3.299   0.651   1.964  0.0177  0.2473 -0.3788
 3087TIP3    H130752   3.320   0.597   1.888  1.0962  0.0820  0.0185
 3087TIP3    H230753   3.203   0.654   1.966 -0.0850 -1.7336 -0.3548
 3088TIP3   OH230754   5.000   3.117  12.883 -0.2583 -0.5905  0.0478
 3088TIP3    H130755   4.944   3.052  12.840  0.4413 -0.9527 -0.3520
 3088TIP3    H230756   4.968   3.201  12.853 -2.1557 -0.6413  1.7592
 3089TIP3   OH230757   6.415   2.958  10.984 -0.2500 -0.7043 -0.7547
 3089TIP3    H130758   6.457   3.016  10.921 -1.7220 -1.0910 -2.1727
 3089TIP3    H230759   6.354   2.905  10.932 -1.6171 -0.9767  0.9976
 3090TIP3   OH230760   2.339   1.525  10.528  0.4332 -0.3606  0.5801
 3090TIP3    H130761   2.275   1.463  10.563 -0.7043  0.0260 -0.6940
 3090TIP3    H230762   2.401   1.471  10.480  1.7653 -0.8513  2.7270
 3091TIP3   OH230763   2.811   2.437  13.132 -0.2017 -0.0111 -0.0571
 3091TIP3    H130764   2.806   2.373  13.062  0.7409  0.5589 -0.6621
 3091TIP3    H230765   2.733   2.491  13.121  0.1638  0.3460 -0.9398
 3092TIP3   OH230766   2.262   4.876  13.120  0.7730 -0.0369 -0.0069
 3092TIP3    H130767   2.240   4.847  13.032  2.9066 -0.4067 -0.4648
 3092TIP3    H230768   2.220   4.962  13.128 -1.7545 -1.1477 -0.3155
 3093TIP3   OH230769   3.168   2.904  16.185 -0.3150 -0.4815 -0.1685
 3093TIP3    H130770   3.210   2.962  16.122  1.4236 -0.6186  0.7813
 3093TIP3    H230771   3.165   2.819  16.142 -0.9595 -0.1582 -0.7785
 3094TIP3   OH230772   6.281   4.368  13.460 -0.0493 -0.1569  0.3005
 3094TIP3    H130773   6.230   4.356  13.540 -0.5278  1.1320  0.2138
 3094TIP3    H230774   6.342   4.295  13.459  0.8178  0.4771  2.4696
 3095TIP3   OH230775   5.537   2.354  16.910 -0.0144 -0.2172  0.5615
 3095TIP3    H130776   5.476   2.280  16.910  0.5835 -0.7197  0.0510
 3095TIP3    H230777   5.615   2.321  16.865 -0.2698  1.1349 -0.9601
 3096TIP3   OH230778   2.410   2.594  11.452  0.0017  0.7931  0.0865
 3096TIP3    H130779   2.424   2.513  11.403  0.2856  1.0817 -0.3108
 3096TIP3    H230780   2.321   2.620  11.428 -0.2876  0.3319  0.6164
 3097TIP3   OH230781   4.766   5.612  15.390 -0.0534 -0.2750 -0.5729
 3097TIP3    H130782   4.686   5.564  15.413 -0.5135  0.5963 -0.3238
 3097TIP3    H230783   4.772   5.682  15.455  1.1599 -0.5893 -0.3263
 3098TIP3   OH230784   2.647   6.632  12.973  0.1335  0.1550  0.4934
 3098TIP3    H130785   2.593   6.665  13.044  0.7032 -1.2429  1.6403
 3098TIP3    H230786   2.726   6.599  13.017  0.8349 -0.0628 -0.8744
 3099TIP3   OH230787   4.716   3.065  15.617 -0.4968  0.1801  0.0550
 3099TIP3    H130788   4.662   2.987  15.631 -0.8146  0.3820 -0.0315
 3099TIP3    H230789   4.676   3.109  15.542 -3.0527  2.7492  2.6594
 3100TIP3   OH230790   4.470   2.823  12.809  0.2895  0.3527  0.1611
 3100TIP3    H130791   4.472   2.778  12.894  0.3618 -0.7959 -0.4227
 3100TIP3    H230792   4.439   2.911  12.829 -2.6236 -0.7401  1.0228
 3101TIP3   OH230793   5.556   4.867  15.923 -0.5426  0.6226  0.0672
 3101TIP3    H130794   5.650   4.870  15.903 -0.0621  0.4223  2.1039
 3101TIP3    H230795   5.530   4.777  15.905 -0.2352  0.5592 -0.0645
 3102TIP3   OH230796   2.977   2.303   3.395  0.1040  0.4170  0.4673
 3102TIP3    H130797   2.980   2.364   3.320  1.2711  0.5380  0.6045
 3102TIP3    H230798   3.068   2.277   3.408 -0.3055 -0.8664  0.8308
 3103TIP3   OH230799   0.447   1.530   3.239 -0.4024 -0.2027 -0.0656
 3103TIP3    H130800   0.369   1.560   3.286 -1.4674 -0.3990 -1.6317
 3103TIP3    H230801   0.457   1.439   3.265  1.8690  0.8380  3.4130
 3104TIP3   OH230802   4.573   0.047   4.639 -0.4687  0.0861  0.0737
 3104TIP3    H130803   4.651   0.045   4.583 -1.5136 -1.0975 -1.3782
 3104TIP3    H230804   4.541   0.137   4.631  0.1956  0.3227 -0.0600
 3105TIP3   OH230805   6.392   0.604  14.186 -0.1911 -0.0419 -0.3534
 3105TIP3    H130806   6.455   0.551  14.235 -0.0206 -1.3318 -1.9053
 3105TIP3    H230807   6.431   0.692  14.185  0.2035 -0.1658  1.0528
 3106TIP3   OH230808   6.606   0.200  11.570  0.1729  0.0779  0.4213
 3106TIP3    H130809   6.625   0.164  11.483 -1.0177  0.5639 -0.0665
 3106TIP3    H230810   6.519   0.166  11.591 -0.4358  1.6147  0.5150
 3107TIP3   OH230811   0.286   1.415   1.527 -0.8260  0.1571  0.1020
 3107TIP3    H130812   0.239   1.443   1.449  0.6567  0.4846 -0.7206
 3107TIP3    H230813   0.301   1.321   1.514 -2.6473 -0.3282  1.1575
 3108TIP3   OH230814   4.467   0.798   0.036 -0.5593 -0.1880 -0.1676
 3108TIP3    H130815   4.398   0.757  -0.016 -0.5875  0.3789 -0.5885
 3108TIP3    H230816   4.548   0.757   0.004 -0.5018  0.6669 -1.1942
 3109TIP3   OH230817   4.610   3.557  15.717 -0.6529  0.0392 -0.4346
 3109TIP3    H130818   4.525   3.522  15.691 -0.0840 -0.9561 -1.0181
 3109TIP3    H230819   4.611   3.647  15.682 -0.8257 -0.4882 -1.8668
 3110TIP3   OH230820   4.055   4.046  15.283  0.1126 -0.0075 -0.2584
 3110TIP3    H130821   4.150   4.035  15.276  0.7979  1.0999  4.3114
 3110TIP3    H230822   4.024   3.962  15.318 -0.4500  0.0327 -0.6423
 3111TIP3   OH230823   2.282   1.414   2.611 -0.1643  0.1397 -0.2551
 3111TIP3    H130824   2.189   1.402   2.628  0.1570 -0.6847  1.0880
 3111TIP3    H230825   2.306   1.342   2.553  0.1755 -1.3687  1.6535
 3112TIP3   OH230826   1.504   6.758  15.226  0.1688  0.6704  0.1113
 3112TIP3    H130827   1.445   6.697  15.181  0.3215  0.0733  0.7074
 3112TIP3    H230828   1.528   6.822  15.159 -1.0263  0.8291 -0.1817
 3113TIP3   OH230829   3.305   6.576   3.653 -0.3004  0.4941 -0.3550
 3113TIP3    H130830   3.332   6.492   3.617 -1.6725 -0.5133  0.8451
 3113TIP3    H230831   3.324   6.568   3.747  1.9361  2.5292 -0.5401
 3114TIP3   OH230832   3.519   4.174  13.049 -0.2400 -0.4448  0.2989
 3114TIP3    H130833   3.442   4.231  13.059 -0.2630 -0.6220  1.2330
 3114TIP3    H230834   3.593   4.229  13.073 -0.3847 -1.1566  2.6464
 3115TIP3   OH230835   5.892   5.962  12.642  0.3962 -0.2623 -0.2322
 3115TIP3    H130836   5.972   5.966  12.695 -1.5383  0.3045  2.9299
 3115TIP3    H230837   5.851   5.880  12.669  0.8893 -1.7361 -3.5449
 3116TIP3   OH230838   2.280   5.897   5.793 -0.8066 -0.2846  0.3165
 3116TIP3    H130839   2.248   5.808   5.785 -2.5359  0.2501  0.7665
 3116TIP3    H230840   2.265   5.936   5.707 -0.3992 -0.3327  0.2262
 3117TIP3   OH230841   0.154   4.753   3.496 -0.0640 -0.6454 -0.2087
 3117TIP3    H130842   0.146   4.789   3.408  0.6736  0.6622  0.2269
 3117TIP3    H230843   0.064   4.733   3.522 -0.3728 -0.2588 -0.9380
 3118TIP3   OH230844   4.068   4.908   3.444  0.1145 -0.1113 -0.5824
 3118TIP3    H130845   4.123   4.881   3.518  0.4605 -0.2209 -0.8758
 3118TIP3    H230846   4.119   4.975   3.400 -0.8044  1.1574  0.2268
 3119TIP3   OH230847   1.041   1.870   4.113  0.5719 -0.2821 -0.5917
 3119TIP3    H130848   1.034   1.944   4.173  1.8517 -0.2789 -0.4329
 3119TIP3    H230849   1.069   1.908   4.030  2.4982 -0.6948 -0.1775
 3120TIP3   OH230850   2.123   6.486  12.903  0.0029 -0.9333 -0.0805
 3120TIP3    H130851   2.172   6.404  12.897 -0.1557 -1.0256 -0.1075
 3120TIP3    H230852   2.174   6.539  12.965 -0.2709 -1.3201  0.4858
 3121TIP3   OH230853   0.744   1.032   5.257 -0.2770 -0.7661 -0.0838
 3121TIP3    H130854   0.712   1.068   5.339 -1.2011 -0.9802 -0.3461
 3121TIP3    H230855   0.829   0.994   5.279 -0.6198 -1.0208  0.8179
 3122TIP3   OH230856   6.446   6.445  11.683 -0.1631 -0.1011 -0.4087
 3122TIP3    H130857   6.495   6.430  11.602  0.2705  0.6395 -0.2895
 3122TIP3    H230858   6.405   6.360  11.702 -0.2347 -0.2941 -1.3765
 3123TIP3   OH230859   1.750   2.531  12.960 -0.1363 -0.1273  0.0171
 3123TIP3    H130860   1.768   2.504  13.050  0.1278 -0.0579 -0.0147
 3123TIP3    H230861   1.748   2.626  12.963 -0.1451 -0.1254 -0.0462
 3124TIP3   OH230862   0.060   1.194   1.682 -0.4306 -0.0025 -0.0837
 3124TIP3    H130863   0.044   1.100   1.692  1.2054 -0.1551  1.8940
 3124TIP3    H230864   0.004   1.221   1.610 -1.5729 -2.3306 -0.1501
 3125TIP3   OH230865   3.000   4.894   1.698 -0.0493  0.2916  0.2413
 3125TIP3    H130866   3.085   4.919   1.734 -0.3656  2.5421 -0.4371
 3125TIP3    H230867   3.008   4.911   1.604 -0.3901 -2.1425 -0.2959
 3126TIP3   OH230868   4.543   4.966  15.638 -0.2644 -0.7939  0.9400
 3126TIP3    H130869   4.491   4.892  15.670  0.6702 -2.0707 -0.3215
 3126TIP3    H230870   4.528   4.965  15.543 -0.6271  0.9835  0.9532
 3127TIP3   OH230871   4.829   4.197  14.983 -0.2860 -0.4386  0.0517
 3127TIP3    H130872   4.882   4.206  14.903  0.7889 -0.5560  0.7309
 3127TIP3    H230873   4.856   4.271  15.037 -1.3551 -0.0885  0.1299
 3128TIP3   OH230874   6.565   2.754  11.102  0.4515 -0.2163  0.0418
 3128TIP3    H130875   6.621   2.733  11.027 -1.0389 -0.9731 -0.8996
 3128TIP3    H230876   6.496   2.809  11.066 -0.3366 -0.6577  0.8330
 3129TIP3   OH230877   4.570   5.770  10.526  0.4225 -0.1502 -0.0513
 3129TIP3    H130878   4.568   5.847  10.582  0.7460  0.3775 -0.7536
 3129TIP3    H230879   4.590   5.804  10.439  0.1313 -0.9790 -0.4522
 3130TIP3   OH230880   3.958   2.818   2.208 -0.0749  0.0307  0.8993
 3130TIP3    H130881   4.015   2.750   2.172  0.4238  0.7851  0.2070
 3130TIP3    H230882   3.991   2.833   2.296  0.4764  0.0944  0.6889
 3131TIP3   OH230883   4.010   5.510   5.644 -0.0848  0.4161  0.2747
 3131TIP3    H130884   4.004   5.591   5.592 -1.7856  1.5021  2.0113
 3131TIP3    H230885   4.100   5.508   5.676  0.5672  0.4925 -1.4544
 3132TIP3   OH230886   6.004   0.150   1.842  0.5576  0.3716  0.6396
 3132TIP3    H130887   6.048   0.073   1.876  1.6080  1.1343  1.0448
 3132TIP3    H230888   5.999   0.135   1.747  2.1250  0.4715  0.5209
 3133TIP3   OH230889   1.387   6.337   0.596 -0.1347 -0.2655 -0.1715
 3133TIP3    H130890   1.429   6.264   0.642  0.1899  0.1378  0.1766
 3133TIP3    H230891   1.350   6.297   0.517 -0.0777 -0.8319  0.0836
 3134TIP3   OH230892   2.101   0.670  13.752 -0.3445 -0.1320 -0.6401
 3134TIP3    H130893   2.098   0.575  13.766  1.9820 -0.1852 -0.1785
 3134TIP3    H230894   2.107   0.706  13.840  1.1145  0.2835 -0.8862
 3135TIP3   OH230895   4.119   6.694   1.199 -0.1481  0.5416 -0.4522
 3135TIP3    H130896   4.168   6.617   1.229 -2.6288 -0.2428  2.0131
 3135TIP3    H230897   4.076   6.664   1.118  0.1919 -0.1169 -0.4017
 3136TIP3   OH230898   5.516   2.384  13.837  0.0313 -0.3200 -0.2500
 3136TIP3    H130899   5.495   2.334  13.758 -1.4360  0.1013 -0.1418
 3136TIP3    H230900   5.474   2.469  13.825  0.9656  0.2616  0.3853
 3137TIP3   OH230901   2.659   5.885  14.532  0.4380 -0.7547  0.2261
 3137TIP3    H130902   2.602   5.832  14.588  0.7939 -2.7330 -1.1815
 3137TIP3    H230903   2.746   5.873  14.569  0.4054 -0.4627  0.3987
 3138TIP3   OH230904   6.702   6.230  16.442 -0.1338 -0.4119 -0.3527
 3138TIP3    H130905   6.725   6.137  16.444 -0.1826 -0.4360 -0.7238
 3138TIP3    H230906   6.622   6.236  16.493 -0.2133 -0.6002 -0.4524
 3139TIP3   OH230907   0.458   2.194   0.887 -0.3328  0.3715  0.1463
 3139TIP3    H130908   0.423   2.116   0.930 -0.8208  0.7388  0.4215
 3139TIP3    H230909   0.529   2.223   0.944 -0.2724  0.2450  0.1381
 3140TIP3   OH230910   4.720   5.763  16.827  0.0467 -0.2623  0.0772
 3140TIP3    H130911   4.800   5.815  16.827 -0.1897  0.1007  0.9454
 3140TIP3    H230912   4.652   5.823  16.856 -0.2202 -1.0632  1.1320
 3141TIP3   OH230913   6.106   3.036  16.078  0.4135 -0.0040  0.4176
 3141TIP3    H130914   6.022   3.075  16.053  0.6819  0.7378  0.6395
 3141TIP3    H230915   6.091   2.942  16.072  0.3082  0.1048 -2.0499
 3142TIP3   OH230916   1.215   3.944   1.921 -0.0262 -0.4304 -0.2996
 3142TIP3    H130917   1.212   3.957   1.826 -0.4396  1.0204 -0.1215
 3142TIP3    H230918   1.278   4.010   1.952 -0.4180 -0.4133  0.4853
 3143TIP3   OH230919   3.183   3.788   0.810 -0.0900  0.7928 -0.7660
 3143TIP3    H130920   3.221   3.701   0.824  0.4706  1.3231  1.5264
 3143TIP3    H230921   3.090   3.772   0.799 -0.1808 -0.0819  0.8463
 3144TIP3   OH230922   4.982   6.320   1.089 -0.1609  0.3234 -0.5325
 3144TIP3    H130923   4.925   6.339   1.014 -0.1218  1.7419 -0.2327
 3144TIP3    H230924   5.001   6.406   1.127  1.5811 -0.1773 -0.1838
 3145TIP3   OH230925   2.219   1.880  14.725  0.0005  0.1333  0.1694
 3145TIP3    H130926   2.268   1.928  14.792  0.3876  0.5256 -0.3877
 3145TIP3    H230927   2.160   1.944  14.687 -1.3991 -0.4679  1.2216
 3146TIP3   OH230928   4.994   4.945   4.399 -0.2775 -0.0221 -0.1651
 3146TIP3    H130929   5.039   5.023   4.430 -0.3372  0.0817 -0.3382
 3146TIP3    H230930   4.939   4.918   4.472  0.5337 -0.5107  0.2832
 3147TIP3   OH230931   3.704   5.756   5.273 -0.5930 -0.2869  0.2943
 3147TIP3    H130932   3.705   5.843   5.234  0.4914 -0.6654 -0.5667
 3147TIP3    H230933   3.612   5.739   5.290 -1.2001 -0.2534 -2.4767
 3148TIP3   OH230934   2.548   1.708   4.079 -0.7529 -0.2119  0.3122
 3148TIP3    H130935   2.469   1.754   4.052 -0.1151  1.5013  1.1994
 3148TIP3    H230936   2.620   1.760   4.041  0.0004 -0.3504  1.4910
 3149TIP3   OH230937   2.567   2.671   1.369  0.1702 -0.2331  0.6511
 3149TIP3    H130938   2.588   2.582   1.343  0.8309 -0.1897  1.0179
 3149TIP3    H230939   2.638   2.696   1.428 -0.6732  0.0783  1.5636
 3150TIP3   OH230940   5.680   4.270  11.118 -0.2733 -0.0085  0.1435
 3150TIP3    H130941   5.754   4.251  11.061 -0.4155 -0.9799  0.2694
 3150TIP3    H230942   5.625   4.329  11.066  0.4015  0.4338 -0.0854
 3151TIP3   OH230943   5.828   6.081   1.304  0.1819  0.7246  0.2657
 3151TIP3    H130944   5.824   6.023   1.228 -1.1837  0.4498  0.5199
 3151TIP3    H230945   5.860   6.025   1.375 -0.2868  0.4982  0.3043
 3152TIP3   OH230946   0.990   4.610  16.671 -0.0585 -0.0654 -0.2901
 3152TIP3    H130947   0.972   4.641  16.583 -2.1811 -2.3393 -0.7953
 3152TIP3    H230948   1.027   4.523  16.659 -0.1034 -0.2988  1.0444
 3153TIP3   OH230949   0.073   4.106   3.184 -0.1943 -0.4876 -0.3372
 3153TIP3    H130950   0.101   4.043   3.251 -2.7054 -0.8462  0.4542
 3153TIP3    H230951   0.094   4.192   3.221 -0.0864 -0.7409  0.1910
 3154TIP3   OH230952   3.735   2.833   4.087 -0.0312  0.3183  0.3562
 3154TIP3    H130953   3.807   2.867   4.034 -0.1087 -1.6266 -1.0934
 3154TIP3    H230954   3.708   2.752   4.044 -2.7244  0.6491  1.1787
 3155TIP3   OH230955   4.499   4.655   4.052 -0.1351 -0.3831  0.2955
 3155TIP3    H130956   4.471   4.629   3.965 -0.3892 -0.5722  0.4329
 3155TIP3    H230957   4.557   4.585   4.081 -0.3675 -0.5214  0.4360
 3156TIP3   OH230958   3.981   2.691  12.216  0.0847  0.2641  0.3797
 3156TIP3    H130959   4.035   2.719  12.141  2.0701 -0.8388  1.3067
 3156TIP3    H230960   4.034   2.713  12.292 -1.7796  1.1029  1.4986
 3157TIP3   OH230961   1.427   5.662  12.348  0.7384 -0.2135  0.2320
 3157TIP3    H130962   1.450   5.720  12.276 -1.9302 -0.7530 -1.1817
 3157TIP3    H230963   1.351   5.703  12.389 -0.3881 -1.9436  0.0260
 3158TIP3   OH230964   4.290   0.983   3.095  0.3504 -0.4119 -0.2320
 3158TIP3    H130965   4.286   0.899   3.140  0.7917 -0.3079  0.0114
 3158TIP3    H230966   4.242   0.969   3.014 -0.4421 -0.6056  0.2588
 3159TIP3   OH230967   5.579   6.162   5.170  0.4713 -0.8481 -0.0734
 3159TIP3    H130968   5.587   6.203   5.084  1.2984 -0.8070  0.0141
 3159TIP3    H230969   5.669   6.147   5.198  0.1972 -1.6033  0.4344
 3160TIP3   OH230970   1.673   6.391  14.576 -0.0276  0.0087  0.2122
 3160TIP3    H130971   1.586   6.387  14.617 -0.8784  2.4188 -1.1266
 3160TIP3    H230972   1.710   6.304  14.589 -2.8006 -1.2297  0.5086
 3161TIP3   OH230973   3.435   5.007  10.570  0.5839  0.1695  0.2423
 3161TIP3    H130974   3.495   5.061  10.622 -0.7182  0.8404  1.0922
 3161TIP3    H230975   3.371   5.068  10.535 -2.6233 -0.9620  3.5324
 3162TIP3   OH230976   4.661   3.596  14.863 -0.2058 -0.5978 -0.3264
 3162TIP3    H130977   4.614   3.680  14.860 -1.1338 -0.9416  1.9371
 3162TIP3    H230978   4.746   3.615  14.825 -1.5552  0.4618 -3.1344
 3163TIP3   OH230979   1.451   4.143   3.138 -0.3994  0.0561  0.1593
 3163TIP3    H130980   1.542   4.152   3.110 -0.3379 -1.5744 -0.2759
 3163TIP3    H230981   1.407   4.106   3.061 -0.9017 -1.5013  1.1659
 3164TIP3   OH230982   2.497   4.147   5.579  0.0316  0.9097 -0.6560
 3164TIP3    H130983   2.424   4.167   5.520 -0.0952  1.4662 -0.3250
 3164TIP3    H230984   2.455   4.139   5.665 -0.0649 -1.7628 -0.8878
 3165TIP3   OH230985   3.498   5.201  11.465 -0.1798 -0.1091 -0.0821
 3165TIP3    H130986   3.444   5.201  11.386  0.6664  0.1700 -0.6689
 3165TIP3    H230987   3.583   5.234  11.436  0.0273  0.3695  1.0275
 3166TIP3   OH230988   3.962   1.997   0.026  0.5235 -0.2819 -0.2746
 3166TIP3    H130989   3.976   1.913   0.070 -0.8475  0.2793  1.3677
 3166TIP3    H230990   3.962   2.061   0.098 -0.1984  0.8958 -1.2915
 3167TIP3   OH230991   2.291   1.515   1.234  0.4593 -0.3912 -0.5648
 3167TIP3    H130992   2.217   1.574   1.240  0.3579 -0.6851  2.2785
 3167TIP3    H230993   2.343   1.549   1.161  0.1722  2.9612  0.6180
 3168TIP3   OH230994   2.380   4.151   4.562  0.0438 -0.3685  0.5450
 3168TIP3    H130995   2.394   4.171   4.470  1.2237 -0.7009  0.6341
 3168TIP3    H230996   2.287   4.168   4.577  0.1960  1.3521 -0.2818
 3169TIP3   OH230997   1.521   5.812   1.509 -0.3625 -0.1764 -0.1471
 3169TIP3    H130998   1.552   5.722   1.500  2.5896  0.7580 -0.4031
 3169TIP3    H230999   1.429   5.808   1.485 -0.3813 -3.1507  0.0767
 3170TIP3   OH231000   4.889   2.760  17.001  0.6509 -0.6770  0.0742
 3170TIP3    H131001   4.818   2.702  17.031  0.7767 -1.3647 -0.9110
 3170TIP3    H231002   4.843   2.837  16.966  0.4891 -0.0772  1.5579
 3171TIP3   OH231003   5.603   5.174   5.589 -0.1194 -0.9003 -0.5407
 3171TIP3    H131004   5.517   5.162   5.629  0.3418 -3.8376 -0.1519
 3171TIP3    H231005   5.583   5.196   5.498 -1.2117  1.1374  0.1383
 3172TIP3   OH231006   6.268   3.150  16.261 -0.0017  0.6152 -0.5776
 3172TIP3    H131007   6.228   3.091  16.196  1.6699 -1.1446 -0.1018
 3172TIP3    H231008   6.218   3.135  16.341  2.4157 -2.9660  0.5397
 3173TIP3   OH231009   1.250   3.430   5.851  0.1371 -0.1350 -0.4156
 3173TIP3    H131010   1.327   3.472   5.812  0.7220 -0.6204  0.2023
 3173TIP3    H231011   1.176   3.480   5.816  0.4793 -1.5364 -3.4797
 3174TIP3   OH231012   4.436   3.535   0.638  0.6899  0.6610 -0.4276
 3174TIP3    H131013   4.371   3.537   0.708  0.6076 -0.3035 -0.4566
 3174TIP3    H231014   4.501   3.601   0.663  0.6114  0.3952  0.5176
 3175TIP3   OH231015   4.412   2.820   1.600  0.5070  0.8683 -0.3379
 3175TIP3    H131016   4.477   2.837   1.669  1.0192  0.4108 -0.7013
 3175TIP3    H231017   4.400   2.905   1.557  1.4083  0.7990 -0.7347
 3176TIP3   OH231018   1.005   6.670  15.268  0.5655  0.7019  0.4223
 3176TIP3    H131019   0.982   6.762  15.283  1.2156  0.8558  0.4982
 3176TIP3    H231020   1.011   6.662  15.173  0.7290  0.7976  0.4237
 3177TIP3   OH231021   3.028   5.046  10.636  0.6174 -0.3639  0.2987
 3177TIP3    H131022   2.971   4.973  10.612  0.0629  0.6114 -1.5595
 3177TIP3    H231023   3.032   5.100  10.557  2.4702  0.6831  1.0414
 3178TIP3   OH231024   2.059   3.522  14.871  0.1355 -0.0502 -0.2283
 3178TIP3    H131025   1.964   3.534  14.863 -0.0257  0.6373  2.0239
 3178TIP3    H231026   2.086   3.488  14.786 -2.3592 -1.8464 -0.4123
 3179TIP3   OH231027   2.153   1.248  13.027 -0.2132 -0.0300 -0.2814
 3179TIP3    H131028   2.129   1.159  13.051  1.0327 -0.2129  0.4011
 3179TIP3    H231029   2.240   1.239  12.988  1.3899  1.1523  2.6537
 3180TIP3   OH231030   5.147   1.253   2.987 -0.5325 -0.5263 -0.0832
 3180TIP3    H131031   5.162   1.246   3.081  1.5409 -1.4714 -0.4165
 3180TIP3    H231032   5.083   1.185   2.967  1.0326 -2.2060  0.3148
 3181TIP3   OH231033   1.528   6.747  10.241 -0.3846  0.3098  0.3870
 3181TIP3    H131034   1.616   6.782  10.250 -0.8534  1.5721  0.3261
 3181TIP3    H231035   1.476   6.793  10.307 -1.0931 -0.0608  0.1086
 3182TIP3   OH231036   0.529   5.739   1.080 -0.4042  0.0711  0.4361
 3182TIP3    H131037   0.500   5.829   1.095  0.3966  1.0078 -2.9433
 3182TIP3    H231038   0.450   5.693   1.052 -0.5834 -0.0171  1.0633
 3183TIP3   OH231039   2.228   0.799   0.775  0.4438 -0.2880 -0.0412
 3183TIP3    H131040   2.195   0.823   0.688 -0.1267  2.9146  0.9187
 3183TIP3    H231041   2.302   0.858   0.790  1.4589 -1.7897  1.0962
 3184TIP3   OH231042   4.449   2.257  12.766 -0.1426  0.0065  0.5615
 3184TIP3    H131043   4.521   2.216  12.718  0.8311  1.6425  0.5170
 3184TIP3    H231044   4.471   2.242  12.858  0.2479  0.4449  0.5467
 3185TIP3   OH231045   3.878   5.778  14.062 -0.2812 -0.2030 -0.3232
 3185TIP3    H131046   3.966   5.750  14.035 -0.2449  1.2481 -1.8563
 3185TIP3    H231047   3.887   5.872  14.079 -1.6228  0.0444 -0.9052
 3186TIP3   OH231048   5.071   5.353   0.813  0.1956  0.5859 -0.6474
 3186TIP3    H131049   5.040   5.267   0.785 -1.9096  1.3963 -0.9330
 3186TIP3    H231050   5.162   5.337   0.840  0.1663 -1.5225 -1.5712
 3187TIP3   OH231051   1.161   3.068   4.949 -0.0246 -0.1242  0.2885
 3187TIP3    H131052   1.235   3.072   4.889  1.6947 -0.8276  2.2243
 3187TIP3    H231053   1.136   3.159   4.963  0.4298  0.1157 -0.4389
 3188TIP3   OH231054   0.893   6.586  15.514 -0.0504  0.0301 -0.3722
 3188TIP3    H131055   0.805   6.581  15.478  0.0428 -1.4415 -0.4699
 3188TIP3    H231056   0.948   6.610  15.439 -0.3874  1.2284 -0.2470
 3189TIP3   OH231057   0.668   1.958   1.538  0.1048  0.1938  0.0838
 3189TIP3    H131058   0.729   1.998   1.600  0.2685 -0.5086  0.3888
 3189TIP3    H231059   0.713   1.966   1.453  0.6861 -0.4170  0.3218
 3190TIP3   OH231060   0.337   2.221  13.222 -0.2417 -0.0252  0.2091
 3190TIP3    H131061   0.308   2.193  13.136  0.5357 -0.4878  0.0933
 3190TIP3    H231062   0.414   2.168  13.241 -0.8203 -0.4613  1.5056
 3191TIP3   OH231063   2.180   5.201   5.947  0.7486  0.5430 -0.4786
 3191TIP3    H131064   2.087   5.196   5.927  0.8951  0.9799 -1.3425
 3191TIP3    H231065   2.184   5.201   6.043 -0.0383 -0.8973 -0.4176
 3192TIP3   OH231066   0.005   2.750  12.807 -0.0529  0.1953 -0.7494
 3192TIP3    H131067   0.023   2.732  12.899  0.3180 -0.9268 -1.0389
 3192TIP3    H231068  -0.019   2.665  12.769  3.0823 -0.0575 -2.4590
 3193TIP3   OH231069   0.696   6.280  14.673 -0.2314 -0.4287 -0.7208
 3193TIP3    H131070   0.660   6.257  14.587  0.7549 -2.1206 -0.7201
 3193TIP3    H231071   0.659   6.215  14.732 -0.7304  0.5994  0.1277
 3194TIP3   OH231072   5.149   3.241   1.184 -0.7154  0.1238  0.0863
 3194TIP3    H131073   5.156   3.326   1.141 -1.5231 -0.1815 -0.6600
 3194TIP3    H231074   5.236   3.202   1.176  0.1413  1.5351  1.8641
 3195TIP3   OH231075   2.529   1.937  13.677 -0.2375  0.1713  0.3030
 3195TIP3    H131076   2.587   1.959  13.750 -1.0646  1.8373  0.4915
 3195TIP3    H231077   2.574   1.971  13.599 -0.4542  0.5050  0.3225
 3196TIP3   OH231078   3.850   3.054   0.295  0.0763 -0.1095  0.1293
 3196TIP3    H131079   3.757   3.044   0.271  0.2949 -0.8108 -0.4673
 3196TIP3    H231080   3.897   3.049   0.211  0.6426  0.4958  0.4013
 3197TIP3   OH231081   4.490   5.779  14.204  0.1976 -0.5083  0.1818
 3197TIP3    H131082   4.460   5.696  14.166 -1.0494  0.0416 -0.1111
 3197TIP3    H231083   4.416   5.839  14.189  0.0561 -0.0040  2.5867
 3198TIP3   OH231084   0.642   6.392   1.386  0.2178  0.5507 -0.0242
 3198TIP3    H131085   0.550   6.416   1.400 -0.2662 -0.8651 -0.5994
 3198TIP3    H231086   0.678   6.387   1.475 -0.8304 -0.8872  0.3742
 3199TIP3   OH231087   1.682   1.979   2.444 -0.1782 -0.7088 -0.1722
 3199TIP3    H131088   1.588   1.978   2.461 -0.1859 -1.1155 -0.2172
 3199TIP3    H231089   1.718   2.041   2.507 -0.5595 -0.0238 -0.6187
 3200TIP3   OH231090   3.593   4.580   5.729  0.3305 -0.6698  0.0720
 3200TIP3    H131091   3.561   4.671   5.724 -0.0312 -0.7347  1.0289
 3200TIP3    H231092   3.599   4.562   5.823  0.5396 -1.5924 -0.1135
 3201TIP3   OH231093   4.675   3.818  15.558  0.5698  0.0299 -0.2971
 3201TIP3    H131094   4.644   3.864  15.480  0.0680 -1.0554 -0.7554
 3201TIP3    H231095   4.628   3.860  15.631  2.1748  2.0933 -0.3492
 3202TIP3   OH231096   4.070   1.869  12.886 -0.0632 -0.4084  0.0242
 3202TIP3    H131097   4.097   1.843  12.797 -1.6901 -0.0271 -0.6181
 3202TIP3    H231098   3.988   1.821  12.901 -0.2673  0.2138  0.9781
 3203TIP3   OH231099   5.384   0.311  13.158 -0.2000  0.2399  0.0382
 3203TIP3    H131100   5.321   0.251  13.117 -0.2966  1.5719 -1.9053
 3203TIP3    H231101   5.461   0.257  13.174 -0.8025 -0.7422 -0.2431
 3204TIP3   OH231102   2.824   4.419   0.387 -0.2074 -0.3278  0.3189
 3204TIP3    H131103   2.848   4.383   0.302  1.3424 -0.1363  0.6394
 3204TIP3    H231104   2.810   4.512   0.371 -0.3347 -0.3694  0.1900
 3205TIP3   OH231105   3.878   0.059   3.645  0.4781 -0.5715  0.0601
 3205TIP3    H131106   3.946   0.037   3.581  0.9335  2.6734 -0.7374
 3205TIP3    H231107   3.916   0.129   3.698 -2.3574  1.8831 -0.8598
 3206TIP3   OH231108   1.981   5.092   1.903 -0.1257 -0.4647  0.5860
 3206TIP3    H131109   1.921   5.141   1.847  1.1432 -0.8977 -1.2229
 3206TIP3    H231110   2.040   5.158   1.940 -1.0030 -0.1724  1.5036
 3207TIP3   OH231111   0.227   4.731   4.156 -0.4017 -0.0632 -0.2980
 3207TIP3    H131112   0.221   4.657   4.095  1.4587 -0.3806 -0.1598
 3207TIP3    H231113   0.212   4.808   4.101 -1.6994 -0.4747 -0.5679
 3208TIP3   OH231114   6.415   2.989   2.947  0.2152 -0.0919 -0.0340
 3208TIP3    H131115   6.436   2.913   3.001  0.0636 -0.1032  0.0099
 3208TIP3    H231116   6.466   2.977   2.867  0.8690  0.2014  0.3301
 3209TIP3   OH231117   2.406   2.002   6.068 -0.0747  0.6611  0.0917
 3209TIP3    H131118   2.430   2.011   6.160  1.2207  3.9863 -0.4103
 3209TIP3    H231119   2.310   2.003   6.068 -0.1481 -1.2191  1.4363
 3210TIP3   OH231120   3.094   4.482  14.191 -0.1970  0.6967  0.1104
 3210TIP3    H131121   3.125   4.544  14.258  0.9026 -0.6890  0.9378
 3210TIP3    H231122   3.154   4.494  14.118  2.4817 -1.9088  1.6708
 3211TIP3   OH231123   4.889   2.726   3.035 -0.3156 -0.0054 -0.5886
 3211TIP3    H131124   4.878   2.821   3.041 -1.5165 -0.1317 -0.4746
 3211TIP3    H231125   4.924   2.701   3.121 -1.6174  0.1589  0.0276
 3212TIP3   OH231126   1.028   4.550   2.397  0.0464 -0.2788  0.5166
 3212TIP3    H131127   1.040   4.471   2.345  0.0734  1.4812 -2.4029
 3212TIP3    H231128   0.935   4.571   2.389 -0.0384 -0.1975  1.5842
 3213TIP3   OH231129   2.074   4.047  14.326 -0.7992  0.1827 -0.0256
 3213TIP3    H131130   2.109   4.135  14.316 -1.5553  0.3762 -1.1539
 3213TIP3    H231131   2.040   4.045  14.416 -0.4108  0.9023  0.1434
 3214TIP3   OH231132   6.658   5.346   4.294 -0.1798  0.3948 -0.4085
 3214TIP3    H131133   6.688   5.256   4.306 -0.4199  0.3956  0.2089
 3214TIP3    H231134   6.736   5.399   4.308 -0.2023  0.3261 -0.0151
 3215TIP3   OH231135   5.290   5.608   2.995 -0.3656 -0.0506 -0.4469
 3215TIP3    H131136   5.284   5.693   2.950 -1.9399  0.3076  0.3620
 3215TIP3    H231137   5.365   5.618   3.054 -0.0931  0.5181 -0.8740
 3216TIP3   OH231138   6.585   2.063  13.783 -0.4295  0.4056  0.3970
 3216TIP3    H131139   6.490   2.066  13.795 -1.0115  2.7172 -3.2647
 3216TIP3    H231140   6.610   2.154  13.769  2.4166 -0.1443  1.2184
 3217TIP3   OH231141   1.589   4.772  14.368 -0.2902  0.4494 -0.0318
 3217TIP3    H131142   1.612   4.805  14.281 -2.3434  0.8952 -0.4472
 3217TIP3    H231143   1.524   4.834  14.401 -0.5335 -0.4504  1.2665
 3218TIP3   OH231144   6.406   2.135  11.641 -0.0404  0.0363  0.0238
 3218TIP3    H131145   6.434   2.225  11.628 -1.3646  0.4752  0.1557
 3218TIP3    H231146   6.403   2.124  11.736  1.4102 -0.5825  0.0315
 3219TIP3   OH231147   4.043   4.505   5.669  0.0546 -0.1807 -0.4078
 3219TIP3    H131148   4.120   4.509   5.725  1.2148  1.6318 -2.0422
 3219TIP3    H231149   3.993   4.584   5.691 -1.0404 -0.9862  0.1419
 3220TIP3   OH231150   6.512   2.002   1.921 -0.0271  0.3567  0.0232
 3220TIP3    H131151   6.586   1.998   1.860 -0.1308  0.6699 -0.1261
 3220TIP3    H231152   6.466   2.083   1.898  0.5026  1.0196  1.1549
 3221TIP3   OH231153   1.213   1.425   3.187  0.1620 -0.4126 -0.2082
 3221TIP3    H131154   1.123   1.411   3.217  0.0133 -1.7010 -1.1817
 3221TIP3    H231155   1.259   1.345   3.211  1.0737  0.2514  0.3154
 3222TIP3   OH231156   2.229   6.071  14.539 -0.8041  0.1187  0.0913
 3222TIP3    H131157   2.198   6.146  14.589  0.1628 -0.7765  2.1222
 3222TIP3    H231158   2.200   5.994  14.588 -0.5892 -0.8407 -1.2099
 3223TIP3   OH231159   4.775   2.503   0.557 -0.0008 -0.2691  0.1939
 3223TIP3    H131160   4.846   2.443   0.580  0.8901  0.4624 -0.5545
 3223TIP3    H231161   4.695   2.458   0.585  0.6777 -1.5503  0.1442
 3224TIP3   OH231162   6.664   0.457  13.306  0.2626  0.1841 -1.0012
 3224TIP3    H131163   6.654   0.487  13.396  0.1680 -0.6868 -0.7088
 3224TIP3    H231164   6.751   0.415  13.304  0.0473 -0.2616 -1.1726
 3225TIP3   OH231165   3.599   0.821   4.172  0.0141 -0.4578 -0.3610
 3225TIP3    H131166   3.685   0.779   4.178 -0.1712 -1.1537 -2.0498
 3225TIP3    H231167   3.538   0.749   4.156 -0.6012  0.2065 -1.1040
 3226TIP3   OH231168   4.032   2.079  16.064  0.0653 -0.1874  0.0543
 3226TIP3    H131169   4.031   2.075  15.969  0.0121 -0.2353  0.0569
 3226TIP3    H231170   4.103   2.020  16.090 -0.2594 -0.5780  0.0646
 3227TIP3   OH231171   6.071   4.970  16.126 -0.1217  0.3587  0.5138
 3227TIP3    H131172   6.002   5.037  16.125 -0.6943 -0.2272 -0.0340
 3227TIP3    H231173   6.148   5.015  16.091 -0.6400  0.5993 -0.3389
 3228TIP3   OH231174   6.725   3.478  14.143 -0.7028  0.7936  0.2080
 3228TIP3    H131175   6.677   3.396  14.135 -0.0564  0.5153 -1.2822
 3228TIP3    H231176   6.664   3.538  14.185 -1.2245 -0.4124  1.2149
 3229TIP3   OH231177   5.417   2.799  14.945  0.1661 -0.3210 -0.1162
 3229TIP3    H131178   5.327   2.808  14.915  0.4795 -2.4821 -1.9986
 3229TIP3    H231179   5.468   2.854  14.885  0.1289  1.4001  1.3292
 3230TIP3   OH231180   4.345   3.512   0.150 -0.1846  0.4732 -0.4766
 3230TIP3    H131181   4.328   3.545   0.238  1.7242 -0.3103  0.2273
 3230TIP3    H231182   4.413   3.568   0.115 -0.7273  0.5977 -1.3657
 3231TIP3   OH231183   5.695   0.359  11.467 -0.0850 -0.4818 -0.3118
 3231TIP3    H131184   5.601   0.362  11.450 -0.0453 -0.6619 -0.5774
 3231TIP3    H231185   5.736   0.393  11.388  0.1490 -2.5683 -1.1666
 3232TIP3   OH231186   3.511   1.879  16.633  0.0556  0.3135  0.3951
 3232TIP3    H131187   3.562   1.953  16.601  0.3781 -0.4169 -0.8513
 3232TIP3    H231188   3.577   1.816  16.664  0.0383 -0.9161 -1.8298
 3233TIP3   OH231189   6.395   3.040   5.467  0.3893  0.0746  0.1572
 3233TIP3    H131190   6.306   3.005   5.479  0.1195  0.3992 -0.7723
 3233TIP3    H231191   6.420   3.072   5.554 -0.5646  0.3344  0.3530
 3234TIP3   OH231192   1.464   5.634  11.384 -0.3836 -0.3427  0.4352
 3234TIP3    H131193   1.528   5.568  11.408  0.4965 -0.0559 -0.9792
 3234TIP3    H231194   1.457   5.690  11.461 -0.3369 -1.4461  1.2613
 3235TIP3   OH231195   4.127   4.466  15.259 -0.3385 -0.5929  0.2296
 3235TIP3    H131196   4.042   4.490  15.222 -0.7665 -4.5875 -2.0556
 3235TIP3    H231197   4.107   4.436  15.348 -1.2762 -0.9934 -0.1000
 3236TIP3   OH231198   3.309   0.364  15.360 -0.1019  0.3148  0.2220
 3236TIP3    H131199   3.265   0.281  15.344 -0.4960  0.5749 -0.0555
 3236TIP3    H231200   3.326   0.365  15.454  0.3468 -0.2975  0.1477
 3237TIP3   OH231201   3.950   6.651   1.853 -0.0266  0.1796 -0.0281
 3237TIP3    H131202   4.032   6.602   1.859  0.2804  0.7707  0.7673
 3237TIP3    H231203   3.916   6.651   1.942 -0.4810  0.6373 -0.2017
 3238TIP3   OH231204   5.738   5.625  13.144  0.2830 -0.1481 -0.5395
 3238TIP3    H131205   5.759   5.555  13.206 -0.2505 -0.8196 -1.1007
 3238TIP3    H231206   5.818   5.676  13.137 -0.1256  0.9623  1.9944
 3239TIP3   OH231207   0.711   1.721  10.481  0.0799 -0.8573 -0.0782
 3239TIP3    H131208   0.639   1.685  10.532 -0.0203 -0.0735  0.3554
 3239TIP3    H231209   0.790   1.682  10.519 -0.0827 -1.3746 -0.2665
 3240TIP3   OH231210   2.658   1.564   2.196 -0.1134 -0.1999 -0.3904
 3240TIP3    H131211   2.609   1.629   2.146  0.6678 -0.1529 -1.1120
 3240TIP3    H231212   2.673   1.606   2.281 -0.8644 -0.0130 -0.3502
 3241TIP3   OH231213   0.448   6.482  14.667  0.6958 -0.3272  0.6113
 3241TIP3    H131214   0.417   6.463  14.578 -1.4554 -3.0224  1.7838
 3241TIP3    H231215   0.534   6.439  14.671  1.3716  0.8601 -0.4754
 3242TIP3   OH231216   3.178   6.323   0.060  0.5212  0.4619  0.5223
 3242TIP3    H131217   3.256   6.313   0.006  0.1519  1.4172 -0.2234
 3242TIP3    H231218   3.142   6.235   0.067  1.6853  0.0035  0.9224
 3243TIP3   OH231219   0.132   0.362  16.199  0.4564  0.0364  0.2579
 3243TIP3    H131220   0.154   0.275  16.232  1.2976  0.7721  1.7022
 3243TIP3    H231221   0.036   0.365  16.203  0.1646 -1.7239 -2.3072
 3244TIP3   OH231222   1.967   1.628   1.007 -0.0327  0.1876 -0.3785
 3244TIP3    H131223   1.925   1.643   1.092 -0.3855 -1.5447 -0.2114
 3244TIP3    H231224   1.956   1.711   0.960 -0.0475  1.1016  1.1606
 3245TIP3   OH231225   2.003   1.051  12.678  0.6487 -0.4522 -0.6525
 3245TIP3    H131226   1.974   0.989  12.745  0.1594  0.3571 -0.0920
 3245TIP3    H231227   2.064   1.002  12.624  1.3238 -1.0291  0.6046
 3246TIP3   OH231228   3.633   0.143   3.405 -0.1463  0.2098 -0.5401
 3246TIP3    H131229   3.601   0.229   3.380  3.1691  1.7106 -0.0426
 3246TIP3    H231230   3.631   0.143   3.501 -0.1740 -0.3179 -0.5329
 3247TIP3   OH231231   1.799   0.669   0.722  0.4805  0.2848  0.2400
 3247TIP3    H131232   1.838   0.752   0.748 -0.6692  0.3532  1.8970
 3247TIP3    H231233   1.724   0.658   0.781  0.5991 -1.9136  0.0698
 3248TIP3   OH231234   3.466   6.486  15.056 -0.9996 -0.2356  0.4307
 3248TIP3    H131235   3.507   6.482  14.970 -1.0684  4.8216 -0.1328
 3248TIP3    H231236   3.539   6.490  15.118 -0.5940  2.4450 -0.0760
 3249TIP3   OH231237   3.611   6.370   4.643  0.1539 -0.2083  0.0504
 3249TIP3    H131238   3.679   6.404   4.585  1.0473 -1.2319  0.4612
 3249TIP3    H231239   3.531   6.415   4.616  0.4896 -0.8233 -2.1454
 3250TIP3   OH231240   3.732   5.398   5.503 -0.0498 -0.5283 -0.0717
 3250TIP3    H131241   3.744   5.306   5.478 -2.5509 -1.6318  2.2652
 3250TIP3    H231242   3.805   5.417   5.561  1.7422 -0.2090 -2.2744
 3251TIP3   OH231243   2.258   5.564  13.008  0.1141 -0.6045  0.0061
 3251TIP3    H131244   2.168   5.592  13.023  0.3076  0.0198  0.0155
 3251TIP3    H231245   2.310   5.619  13.066  0.4061 -1.7551  0.8632
 3252TIP3   OH231246   6.279   5.304   0.289 -0.1437  0.6274 -0.3407
 3252TIP3    H131247   6.370   5.273   0.284  0.3581  2.1622 -1.4042
 3252TIP3    H231248   6.283   5.381   0.346 -1.4554 -1.3723  2.7150
 3253TIP3   OH231249   2.357   0.636  15.274  0.1682 -0.2934 -0.2170
 3253TIP3    H131250   2.388   0.580  15.203  1.1580  0.6331 -0.5299
 3253TIP3    H231251   2.392   0.595  15.353 -1.2418 -1.5398 -0.1748
 3254TIP3   OH231252   3.720   4.046  14.575 -0.0126 -0.4530  0.4189
 3254TIP3    H131253   3.797   4.015  14.622  0.2438  1.1411  1.1323
 3254TIP3    H231254   3.671   3.967  14.554  1.7977 -1.5117 -0.0448
 3255TIP3   OH231255   4.930   5.024  16.402 -0.7986  0.2493  0.5900
 3255TIP3    H131256   4.887   5.109  16.412 -1.4452 -0.0823  0.6720
 3255TIP3    H231257   4.921   4.982  16.488 -0.2987  0.1772  0.6121
 3256TIP3   OH231258   3.694   0.716  12.398 -0.5614 -0.2853 -0.0366
 3256TIP3    H131259   3.613   0.764  12.418  0.2861  0.8189  0.9538
 3256TIP3    H231260   3.735   0.704  12.484  1.0349  0.5043 -0.6666
 3257TIP3   OH231261   4.952   3.268  14.349  0.5923 -0.4057  0.4145
 3257TIP3    H131262   4.936   3.347  14.298  1.3149 -1.7947 -2.1194
 3257TIP3    H231263   4.908   3.198  14.301  0.4082 -1.6696  2.2952
 3258TIP3   OH231264   0.906   0.763   0.561  0.5833 -0.0733  0.0658
 3258TIP3    H131265   0.959   0.733   0.487  1.8665 -2.0804  1.6754
 3258TIP3    H231266   0.969   0.797   0.624 -0.1203 -1.2592  1.4820
 3259TIP3   OH231267   3.815   4.092   2.266  0.1898 -0.2510  0.2041
 3259TIP3    H131268   3.870   4.045   2.328  0.9933  0.3454 -0.0313
 3259TIP3    H231269   3.792   4.174   2.311  0.7103  0.1493 -0.2460
 3260TIP3   OH231270   0.704   3.596   0.959 -0.1863 -0.1998  0.1881
 3260TIP3    H131271   0.656   3.654   1.019 -0.6293 -1.9746  1.6256
 3260TIP3    H231272   0.761   3.655   0.910 -2.2215  1.7514 -0.0435
 3261TIP3   OH231273   2.148   1.378   1.603  0.0726 -0.2244  0.0613
 3261TIP3    H131274   2.157   1.450   1.541  2.0302  0.8318  1.4453
 3261TIP3    H231275   2.070   1.331   1.575 -0.7233  1.8712 -1.4647
 3262TIP3   OH231276   2.470   4.292   2.756 -0.3202  0.7112  0.2001
 3262TIP3    H131277   2.448   4.383   2.773  0.2994  0.6765  1.3136
 3262TIP3    H231278   2.561   4.284   2.784  0.4157  0.3148 -2.1308
 3263TIP3   OH231279   2.820   6.560  13.144  0.0717  0.1772  0.0852
 3263TIP3    H131280   2.783   6.529  13.227 -1.0891  0.3167 -0.3722
 3263TIP3    H231281   2.903   6.600  13.170 -0.5508  0.7681  1.2817
 3264TIP3   OH231282   5.538   1.636   3.868 -0.3844 -0.0201 -0.1638
 3264TIP3    H131283   5.491   1.717   3.888 -0.7504  0.5248 -2.8756
 3264TIP3    H231284   5.627   1.663   3.850  0.1068 -0.5833  1.2345
 3265TIP3   OH231285   6.524   4.526   5.449 -0.4445 -0.7297 -0.8121
 3265TIP3    H131286   6.429   4.522   5.438 -0.5525 -0.6757  0.0814
 3265TIP3    H231287   6.548   4.614   5.419 -0.7052 -0.6626 -0.8200
 3266TIP3   OH231288   0.819   1.942  12.525 -0.1651 -0.6135  0.5740
 3266TIP3    H131289   0.745   1.980  12.571 -1.1003  0.7186 -1.8362
 3266TIP3    H231290   0.791   1.853  12.504 -1.1708 -0.1023 -0.3698
 3267TIP3   OH231291   4.118   4.100  12.708  0.3308  0.0602 -0.6781
 3267TIP3    H131292   4.119   4.194  12.693  0.4555  0.2025  0.1563
 3267TIP3    H231293   4.027   4.080  12.728  0.6407  0.3784  1.2403
 3268TIP3   OH231294   6.532   2.040   1.159 -0.5009  0.0778  0.1946
 3268TIP3    H131295   6.601   2.092   1.200  0.8132  0.2853 -2.0785
 3268TIP3    H231296   6.451   2.086   1.180  0.3817  1.6548  0.2807
 3269TIP3   OH231297   5.738   4.645   4.484 -0.2017 -0.0248 -0.4427
 3269TIP3    H131298   5.669   4.691   4.436  0.3168 -1.0877 -2.3177
 3269TIP3    H231299   5.721   4.552   4.467  0.3030 -0.4350  1.0803
 3270TIP3   OH231300   3.757   2.532  16.712 -0.0129 -0.5425 -0.3241
 3270TIP3    H131301   3.776   2.521  16.806  1.0248 -0.6058 -0.5336
 3270TIP3    H231302   3.777   2.447  16.674 -1.1668 -0.7539 -0.5103
 3271TIP3   OH231303   5.076   1.246  17.097 -0.1273 -0.4083  0.3584
 3271TIP3    H131304   4.993   1.279  17.064  0.4412 -2.3614 -3.7087
 3271TIP3    H231305   5.142   1.284  17.039  1.7198 -0.1702  2.4600
 3272TIP3   OH231306   6.016   4.033   1.226 -1.1452 -0.2351  0.2833
 3272TIP3    H131307   6.057   4.036   1.312  2.3597  2.2276 -1.2375
 3272TIP3    H231308   6.011   4.124   1.198 -0.0036 -0.9999 -2.9504
 3273TIP3   OH231309   1.744   0.341  14.602 -0.3294 -0.0839 -0.6780
 3273TIP3    H131310   1.805   0.301  14.664 -2.0060 -0.5457  0.7592
 3273TIP3    H231311   1.757   0.435  14.612  0.7116 -0.1744 -1.0271
 3274TIP3   OH231312   1.565   1.869  16.710  0.0368 -0.0190 -0.0655
 3274TIP3    H131313   1.583   1.912  16.794 -1.4761 -1.4166  1.0410
 3274TIP3    H231314   1.502   1.926  16.667 -0.1360  0.0812  0.3130
 3275TIP3   OH231315   6.502   5.582   2.565 -0.3428  0.5452 -0.5305
 3275TIP3    H131316   6.498   5.492   2.534 -1.4224  0.1862  0.5367
 3275TIP3    H231317   6.547   5.630   2.496  0.1313 -0.7816 -1.1754
 3276TIP3   OH231318   6.777   3.303  13.200 -0.1421 -0.0802 -0.1306
 3276TIP3    H131319   6.716   3.347  13.259  0.1436 -0.3053  0.3399
 3276TIP3    H231320   6.778   3.358  13.122 -1.8510 -0.7138 -0.6352
 3277TIP3   OH231321   3.228   5.510  12.267  0.0985 -0.2824  0.2648
 3277TIP3    H131322   3.246   5.470  12.352 -1.6233  0.7407  1.1537
 3277TIP3    H231323   3.181   5.443  12.218 -0.9506 -0.0837  0.9850
 3278TIP3   OH231324   3.100   2.380  13.881  0.0878  0.1614  0.0184
 3278TIP3    H131325   3.090   2.453  13.941 -0.3269  0.3791 -0.3153
 3278TIP3    H231326   3.190   2.349  13.895 -0.1423 -0.0661  1.0555
 3279TIP3   OH231327   4.464   6.446  14.854  0.0656 -0.3102 -0.0726
 3279TIP3    H131328   4.499   6.356  14.851  1.5356  0.2313  0.0041
 3279TIP3    H231329   4.535   6.500  14.818 -0.0715  1.0374  1.5744
 3280TIP3   OH231330   5.343   0.714   6.251 -0.4652  0.3429 -0.0822
 3280TIP3    H131331   5.358   0.659   6.327 -0.1488  1.0060  0.3499
 3280TIP3    H231332   5.259   0.757   6.269 -1.4233 -1.0282 -1.0653
 3281TIP3   OH231333   6.685   4.844   2.841  0.4456 -0.1809  0.3607
 3281TIP3    H131334   6.699   4.840   2.935  1.0433 -0.4012  0.2676
 3281TIP3    H231335   6.728   4.925   2.813 -0.9913  0.6686  0.4708
 3282TIP3   OH231336   6.136   0.911  15.630 -0.2309 -0.6083  0.0406
 3282TIP3    H131337   6.149   0.912  15.725 -3.2638 -2.8977  0.6478
 3282TIP3    H231338   6.200   0.848  15.597  3.0094  2.4460 -0.0485
 3283TIP3   OH231339   5.854   2.917   5.187 -0.4261 -0.6832 -0.5907
 3283TIP3    H131340   5.797   2.990   5.212 -0.1402 -0.4476 -0.6253
 3283TIP3    H231341   5.794   2.846   5.165 -0.7128 -0.3547 -0.8771
 3284TIP3   OH231342   5.001   1.145  16.391  0.0478  0.6767 -0.7056
 3284TIP3    H131343   5.052   1.192  16.325 -0.7982  2.0574 -0.4075
 3284TIP3    H231344   5.038   1.174  16.474 -0.1438  0.4135 -0.5291
 3285TIP3   OH231345   1.003   2.454  13.115  0.2613 -0.2061  0.1075
 3285TIP3    H131346   1.004   2.549  13.119 -0.8983 -0.1973  0.6710
 3285TIP3    H231347   1.050   2.426  13.194 -2.4212 -0.0504  1.8926
 3286TIP3   OH231348   2.371   1.225   4.632  0.5937 -0.0144  0.1450
 3286TIP3    H131349   2.352   1.292   4.697  0.3763 -0.0179  0.0886
 3286TIP3    H231350   2.383   1.273   4.550  2.0993  0.0962  0.4169
 3287TIP3   OH231351   3.085   5.636   3.511  0.8155  0.6869  0.3121
 3287TIP3    H131352   2.991   5.646   3.526  0.7023  0.1161  0.0377
 3287TIP3    H231353   3.115   5.582   3.585  0.4364 -1.3103 -0.9293
 3288TIP3   OH231354   5.829   5.512   4.069 -0.3875  0.0730 -0.2508
 3288TIP3    H131355   5.840   5.465   4.152 -0.2248  3.4910  1.8478
 3288TIP3    H231356   5.918   5.523   4.037 -0.2747  0.5335  0.2139
 3289TIP3   OH231357   1.497   0.911  16.468 -0.3326  0.9193  0.3114
 3289TIP3    H131358   1.474   0.832  16.516  1.2969  0.3296  0.1574
 3289TIP3    H231359   1.592   0.911  16.464 -0.3638  1.4291 -2.1066
 3290TIP3   OH231360   2.876   5.001  13.224  0.0997 -0.1793 -0.2622
 3290TIP3    H131361   2.937   5.046  13.283  0.5164 -0.2019 -0.6728
 3290TIP3    H231362   2.885   5.047  13.141  0.2789 -0.8072 -0.5964
 3291TIP3   OH231363   0.760   5.699  16.172 -0.3732 -0.0768 -0.2153
 3291TIP3    H131364   0.754   5.700  16.077  0.4366  1.4475 -0.2837
 3291TIP3    H231365   0.738   5.609  16.197  2.7425 -1.5178 -2.0520
 3292TIP3   OH231366   3.339   5.054  16.200  0.0364  0.7405 -0.6199
 3292TIP3    H131367   3.313   4.992  16.268  2.8763  0.6864  0.5502
 3292TIP3    H231368   3.295   5.022  16.121 -0.7659 -1.1349  0.5068
 3293TIP3   OH231369   3.312   4.955   1.348  0.1384 -0.4190  0.5398
 3293TIP3    H131370   3.346   5.015   1.414 -0.1412 -0.7146  0.9556
 3293TIP3    H231371   3.324   4.868   1.386 -0.4010 -0.5675  0.3758
 3294TIP3   OH231372   1.134   4.214   1.480  0.2221 -0.2458 -0.1085
 3294TIP3    H131373   1.071   4.283   1.462 -0.4263 -0.7441  0.2390
 3294TIP3    H231374   1.101   4.138   1.432  1.7331  0.0584 -1.7508
 3295TIP3   OH231375   1.494   0.537  13.658  0.0097  0.0242  0.4711
 3295TIP3    H131376   1.556   0.601  13.693 -0.2762 -0.5961  2.2063
 3295TIP3    H231377   1.408   0.575  13.676 -0.1717  0.5098 -1.2120
 3296TIP3   OH231378   0.107   3.641   4.979  0.1098 -0.2384  0.1343
 3296TIP3    H131379   0.017   3.646   4.946  0.4728 -0.2694 -0.8912
 3296TIP3    H231380   0.119   3.550   5.003 -0.4382 -0.0499  1.2005
 3297TIP3   OH231381   0.378   4.983   3.413  0.1941  0.1120 -0.1023
 3297TIP3    H131382   0.404   4.949   3.327 -2.6254 -0.1518 -0.9509
 3297TIP3    H231383   0.351   5.073   3.396 -0.1716  0.1305  0.5532
 3298TIP3   OH231384   1.790   4.291  12.228 -0.1335  0.3766 -0.2647
 3298TIP3    H131385   1.848   4.214  12.226  0.5200  0.8459  0.2240
 3298TIP3    H231386   1.702   4.254  12.229  0.1763 -0.3828  0.3272
 3299TIP3   OH231387   5.624   2.288  15.126  0.0890 -0.6036  0.5470
 3299TIP3    H131388   5.556   2.259  15.186  1.7078 -1.3581  2.1143
 3299TIP3    H231389   5.664   2.363  15.169 -1.3710  1.5305 -1.5759
 3300TIP3   OH231390   5.313   3.638   5.279  0.5128 -0.0053 -0.2713
 3300TIP3    H131391   5.392   3.620   5.330  0.4972  0.0667 -0.2197
 3300TIP3    H231392   5.242   3.605   5.334  0.5690 -0.9096 -0.7323
 3301TIP3   OH231393   2.164   6.624  13.972  0.3134  0.3830  0.6699
 3301TIP3    H131394   2.170   6.536  14.009 -0.9716 -0.2013 -0.4129
 3301TIP3    H231395   2.192   6.613  13.881 -2.0926  0.5537 -0.1644
 3302TIP3   OH231396   3.101   3.815  16.727 -0.2884  0.1737 -0.0105
 3302TIP3    H131397   3.010   3.823  16.755 -0.3408 -0.8654  0.1661
 3302TIP3    H231398   3.098   3.831  16.632 -0.6484  0.2498  0.0111
 3303TIP3   OH231399   0.164   2.922   4.803  0.5050  0.4605  0.3769
 3303TIP3    H131400   0.113   2.898   4.726  0.2578 -0.7546  0.8999
 3303TIP3    H231401   0.223   2.848   4.817  1.8127  1.4496  0.3123
 3304TIP3   OH231402   2.623   6.111   2.667 -0.7458 -0.5450  0.1824
 3304TIP3    H131403   2.642   6.097   2.574 -1.9451  0.4834 -0.2422
 3304TIP3    H231404   2.681   6.182   2.693  0.7132 -1.8413  0.6708
 3305TIP3   OH231405   2.614   3.362   4.822 -0.2987  0.0859  0.0985
 3305TIP3    H131406   2.622   3.429   4.755  1.3174  0.4351  0.5968
 3305TIP3    H231407   2.623   3.279   4.775  1.5296  0.3459 -0.0507
 3306TIP3   OH231408   6.738   1.075  15.615  0.3567 -0.1434  0.4359
 3306TIP3    H131409   6.734   1.138  15.686  0.0348 -0.7627  0.9750
 3306TIP3    H231410   6.829   1.046  15.614  1.2721  2.3735 -1.6558
 3307TIP3   OH231411   4.014   2.134  10.975 -0.1166  0.7032 -0.1457
 3307TIP3    H131412   4.049   2.140  11.064 -0.2036  0.7856 -0.1169
 3307TIP3    H231413   4.026   2.222  10.939 -0.1180  0.6806 -0.2017
 3308TIP3   OH231414   6.082   6.725  10.695  0.0278  0.0582 -0.5293
 3308TIP3    H131415   6.004   6.719  10.749  0.5983  0.4912  0.3620
 3308TIP3    H231416   6.050   6.724  10.605 -1.0512  1.0014 -0.1676
 3309TIP3   OH231417   6.516   3.465  15.431  0.3106  0.5912  0.1162
 3309TIP3    H131418   6.581   3.394  15.426  0.0971  0.2347  1.8089
 3309TIP3    H231419   6.476   3.454  15.517  0.5405  3.0266  0.5837
 3310TIP3   OH231420   5.978   6.001   5.521  0.6812 -0.1301 -0.3818
 3310TIP3    H131421   6.047   5.998   5.455  1.7569  0.0331  0.6771
 3310TIP3    H231422   5.958   5.910   5.539  0.7386 -0.1838 -0.5876
 3311TIP3   OH231423   1.514   2.541   6.063  0.1141  0.6208 -0.0411
 3311TIP3    H131424   1.608   2.558   6.070 -0.1291  1.4108  2.0576
 3311TIP3    H231425   1.475   2.592   6.135 -1.5137 -2.6448  1.6014
 3312TIP3   OH231426   6.841   4.566  15.016  0.4911  0.2590  0.3800
 3312TIP3    H131427   6.801   4.559  15.102  0.8994 -0.5038  0.5139
 3312TIP3    H231428   6.837   4.477  14.980 -1.1682  0.8504 -1.0638
 3313TIP3   OH231429   6.724   1.931  11.363  0.2754 -0.2598  0.0169
 3313TIP3    H131430   6.785   1.968  11.299 -1.3504  0.4681 -1.1873
 3313TIP3    H231431   6.647   1.987  11.357 -1.4261 -2.5179 -0.2128
 3314TIP3   OH231432   5.956   4.401   3.602 -0.1866 -0.8602 -0.1846
 3314TIP3    H131433   6.051   4.398   3.599 -0.1596 -0.5415  0.3767
 3314TIP3    H231434   5.932   4.352   3.681 -0.5344 -1.6686 -0.7633
 3315TIP3   OH231435   2.057   6.711  15.032  0.3234  0.1239  0.9231
 3315TIP3    H131436   1.999   6.638  15.057 -0.4605 -0.3211 -1.8368
 3315TIP3    H231437   2.136   6.668  14.998  0.2880  0.5708  0.2551
 3316TIP3   OH231438   0.533   3.157  14.315  0.0797  0.4220  0.2992
 3316TIP3    H131439   0.508   3.153  14.407  0.1785 -0.3918  0.2991
 3316TIP3    H231440   0.604   3.221  14.312  1.5176 -1.0590  1.1408
 3317TIP3   OH231441   2.661   2.965  10.873  0.0335 -0.1486 -0.0941
 3317TIP3    H131442   2.721   2.916  10.816 -2.0617 -2.5131 -0.4402
 3317TIP3    H231443   2.577   2.963  10.827 -1.4254 -0.9682  2.4360
 3318TIP3   OH231444   5.745   3.924   4.841  0.2282  0.1526 -0.0092
 3318TIP3    H131445   5.695   3.938   4.922  0.6440  0.5976  0.1765
 3318TIP3    H231446   5.829   3.967   4.857  0.6338 -0.4834 -0.3580
 3319TIP3   OH231447   0.582   3.607  12.710 -0.4854  0.1883  0.2143
 3319TIP3    H131448   0.576   3.527  12.762 -1.4644 -0.2516 -0.5372
 3319TIP3    H231449   0.505   3.604  12.653 -0.3426  1.4965 -0.0681
 3320TIP3   OH231450   4.121   2.251   0.661  0.6596  0.8261  0.4370
 3320TIP3    H131451   4.128   2.331   0.713  0.6534  0.0627  1.6278
 3320TIP3    H231452   4.034   2.217   0.682  0.4272  0.7967 -0.5185
 3321TIP3   OH231453   2.374   4.861  13.713  0.1891 -0.1222  0.2800
 3321TIP3    H131454   2.319   4.869  13.635 -0.6576 -1.4646  0.7032
 3321TIP3    H231455   2.331   4.793  13.766  0.5484  0.9861  2.0800
 3322TIP3   OH231456   0.700   0.136  14.834 -0.1840 -0.4068 -0.2802
 3322TIP3    H131457   0.738   0.105  14.751  1.1758 -1.4548  0.6950
 3322TIP3    H231458   0.647   0.063  14.865 -0.6940 -0.0123 -0.2140
 3323TIP3   OH231459   1.663   4.668   5.588 -0.7151 -0.2539 -0.2421
 3323TIP3    H131460   1.612   4.601   5.633 -1.1181  0.4590  0.3915
 3323TIP3    H231461   1.661   4.744   5.647 -1.9474  1.0082 -1.7946
 3324TIP3   OH231462   4.160   6.388   3.949 -0.2685 -0.2882 -0.2553
 3324TIP3    H131463   4.239   6.359   3.904 -0.6444 -0.7373 -0.6429
 3324TIP3    H231464   4.188   6.463   4.002  0.2885 -0.0725 -0.8421
 3325TIP3   OH231465   1.062   3.989   1.336  0.2398 -0.3366 -0.2751
 3325TIP3    H131466   1.064   3.894   1.348  1.2129 -0.3882 -0.7484
 3325TIP3    H231467   0.986   4.005   1.280  1.2167 -1.0661 -1.8791
 3326TIP3   OH231468   3.170   6.173   6.257  0.4338 -0.2683  0.6767
 3326TIP3    H131469   3.191   6.080   6.250 -1.1385 -0.5663 -0.7230
 3326TIP3    H231470   3.211   6.200   6.339  1.4052 -2.0531  0.8394
 3327TIP3   OH231471   6.006   4.252  12.899  0.5506  0.9299  0.1903
 3327TIP3    H131472   6.074   4.314  12.925  0.2552  1.9559 -1.3682
 3327TIP3    H231473   6.016   4.242  12.804 -0.2764 -0.3693  0.2054
 3328TIP3   OH231474   2.390   1.989   4.788 -0.4094 -0.0663 -0.1241
 3328TIP3    H131475   2.368   1.999   4.695  0.4725 -1.8251 -0.5658
 3328TIP3    H231476   2.365   1.899   4.809  1.7005 -0.5209  0.6435
 3329TIP3   OH231477   1.183   4.350  16.867 -0.3001 -0.6826 -0.1283
 3329TIP3    H131478   1.139   4.348  16.782  0.4128  1.9200 -0.6531
 3329TIP3    H231479   1.214   4.261  16.880  0.3820 -0.9943 -3.0863
 3330TIP3   OH231480   2.760   0.442   4.453  0.2160 -0.1190  0.3116
 3330TIP3    H131481   2.831   0.499   4.480  0.4405 -0.4778  0.4917
 3330TIP3    H231482   2.680   0.484   4.485  0.3988 -0.0241  0.6387
 3331TIP3   OH231483   2.720   3.133   3.778 -0.3109 -0.2158  0.2660
 3331TIP3    H131484   2.746   3.119   3.870  2.0385 -0.0226 -0.3009
 3331TIP3    H231485   2.672   3.053   3.755 -2.6419  0.5163  2.1510
 3332TIP3   OH231486   2.994   2.415   5.589 -0.9307 -0.0882  0.3043
 3332TIP3    H131487   3.061   2.405   5.656 -1.2964 -0.4932  0.6172
 3332TIP3    H231488   3.021   2.492   5.539 -0.3944 -0.0740  0.6102
 3333TIP3   OH231489   4.226   2.883  16.999  0.0396  0.6404 -1.4247
 3333TIP3    H131490   4.241   2.865  17.092  0.5553  0.8075 -1.4721
 3333TIP3    H231491   4.304   2.931  16.971 -0.4493  1.2525 -1.7657
 3334TIP3   OH231492   4.079   2.038   4.490 -0.0239 -0.3249  0.4367
 3334TIP3    H131493   4.032   2.099   4.548 -2.4970 -1.1712 -0.5627
 3334TIP3    H231494   4.045   1.952   4.513 -0.7360 -0.7402 -1.8995
 3335TIP3   OH231495   2.301   2.092   5.031  0.0726 -0.4455 -0.1668
 3335TIP3    H131496   2.337   2.176   5.059 -2.2871  0.5552  0.0981
 3335TIP3    H231497   2.344   2.075   4.947 -0.6907  1.9644 -1.1301
 3336TIP3   OH231498   3.841   5.705   3.055 -0.7727 -0.3195 -0.0438
 3336TIP3    H131499   3.872   5.792   3.078 -2.3416  0.2489  0.0372
 3336TIP3    H231500   3.825   5.662   3.139  0.8691 -1.0411 -0.0720
 3337TIP3   OH231501   3.721   2.816   4.987 -0.4205  0.0219 -0.6418
 3337TIP3    H131502   3.691   2.729   4.964 -0.9829 -0.0349  0.2527
 3337TIP3    H231503   3.759   2.851   4.906 -1.8626 -0.3417 -1.5261
 3338TIP3   OH231504   0.048   4.800   1.748  0.2989 -0.2508  0.8285
 3338TIP3    H131505   0.023   4.710   1.766 -1.5679  0.1974  0.6942
 3338TIP3    H231506   0.111   4.822   1.818  1.1577 -1.7630  0.5763
 3339TIP3   OH231507   1.583   4.540  16.296 -0.4774  0.2573  0.4777
 3339TIP3    H131508   1.524   4.471  16.268  1.4999 -1.6145  0.6516
 3339TIP3    H231509   1.566   4.549  16.390 -0.1125 -0.6701  0.6395
 3340TIP3   OH231510   5.089   0.674   5.459  0.9201 -0.8271 -0.2262
 3340TIP3    H131511   5.159   0.693   5.396  0.4444  0.2263 -0.4672
 3340TIP3    H231512   5.118   0.714   5.540  1.5676 -2.2502  0.2736
 3341TIP3   OH231513   3.316   4.195  12.346 -0.0137  0.4389  0.1962
 3341TIP3    H131514   3.383   4.127  12.348 -0.4118 -0.0311 -1.2880
 3341TIP3    H231515   3.364   4.277  12.353  0.4373  0.0522  2.6159
 3342TIP3   OH231516   1.326   0.777   2.066  0.5675 -0.4414 -0.4150
 3342TIP3    H131517   1.272   0.722   2.123  2.5544 -1.8455  0.2358
 3342TIP3    H231518   1.394   0.812   2.123  1.4178 -0.2034 -1.5272
 3343TIP3   OH231519   3.477   2.516   3.228 -0.4194  0.3638  0.1503
 3343TIP3    H131520   3.451   2.438   3.277 -2.2017  1.6520  1.3850
 3343TIP3    H231521   3.422   2.513   3.149 -2.3009  1.5522  1.3487
 3344TIP3   OH231522   0.394   4.733  15.319  0.2740 -0.4595  0.5402
 3344TIP3    H131523   0.326   4.773  15.372  0.5511  0.9182 -0.1049
 3344TIP3    H231524   0.346   4.687  15.250 -0.0331  0.6509 -0.0159
 3345TIP3   OH231525   1.513   2.531   4.055 -0.1865 -0.3454  0.2541
 3345TIP3    H131526   1.555   2.559   4.136  1.6424 -0.7367 -0.5296
 3345TIP3    H231527   1.498   2.612   4.006  2.1177 -0.3720 -0.5936
 3346TIP3   OH231528   4.489   2.005  15.228  0.1541 -0.0237  0.1770
 3346TIP3    H131529   4.512   2.018  15.136  1.7352  1.8789  0.7665
 3346TIP3    H231530   4.498   1.911  15.242  3.0152 -0.0089 -0.9034
 3347TIP3   OH231531   1.532   5.095  15.629  0.5200  0.3923  0.0638
 3347TIP3    H131532   1.486   5.173  15.599  0.7769  0.1544 -0.9867
 3347TIP3    H231533   1.502   5.025  15.571 -0.7477 -0.6126  1.8505
 3348TIP3   OH231534   5.252   3.091  11.101 -0.4364  0.0643  0.0955
 3348TIP3    H131535   5.184   3.113  11.164 -0.6991 -0.1732 -0.0985
 3348TIP3    H231536   5.235   3.148  11.026 -1.8606 -1.5508 -0.9073
 3349TIP3   OH231537   0.878   3.017   0.065  0.1225  0.3651 -0.1368
 3349TIP3    H131538   0.931   2.937   0.063 -1.2047 -0.5425 -1.6659
 3349TIP3    H231539   0.897   3.060  -0.019  2.4596  2.8864  1.4938
 3350TIP3   OH231540   5.858   0.237   1.130  0.4397 -0.4482 -0.0466
 3350TIP3    H131541   5.946   0.264   1.104  0.1648  0.2361 -0.3142
 3350TIP3    H231542   5.871   0.164   1.190  1.2004 -0.1312  0.1816
 3351TIP3   OH231543   4.566   6.347   3.697  0.3492  0.7289  0.2580
 3351TIP3    H131544   4.661   6.356   3.688  0.1688  3.0840 -0.0079
 3351TIP3    H231545   4.536   6.319   3.610  0.7530  0.3266  0.2456
 3352TIP3   OH231546   5.873   3.547   4.111 -0.2434  0.2814 -0.4371
 3352TIP3    H131547   5.781   3.523   4.123 -0.1401  0.0741 -0.0346
 3352TIP3    H231548   5.906   3.485   4.045 -0.0738 -0.4514  0.3283
 3353TIP3   OH231549   4.320   4.979   0.170  0.4210  0.2933 -0.0821
 3353TIP3    H131550   4.255   4.993   0.239  1.5651  1.4966  0.7855
 3353TIP3    H231551   4.268   4.959   0.092 -0.8946 -1.9641  1.2582
 3354TIP3   OH231552   5.202   5.112  13.959  0.1071 -0.1988 -0.0138
 3354TIP3    H131553   5.159   5.182  13.909 -0.4837 -1.3584 -1.1878
 3354TIP3    H231554   5.130   5.068  14.004  0.2955 -0.9598 -0.4520
 3355TIP3   OH231555   0.293   3.784   1.290 -0.4337  0.6976 -0.2215
 3355TIP3    H131556   0.199   3.796   1.304 -0.8993 -1.9230 -0.5644
 3355TIP3    H231557   0.329   3.768   1.377 -0.3129  1.4404 -0.1233
 3356TIP3   OH231558   3.006   3.978   1.956  0.3299 -0.2832 -0.1405
 3356TIP3    H131559   2.914   3.956   1.946  0.4169 -0.9807  0.4452
 3356TIP3    H231560   3.023   3.969   2.050  0.7600  0.8178 -0.0975
 3357TIP3   OH231561   0.069   0.308  16.710 -0.3503  0.9377 -0.2802
 3357TIP3    H131562   0.029   0.389  16.742  0.4865  0.8264  1.0900
 3357TIP3    H231563   0.049   0.308  16.616 -0.6206  2.5807 -0.2563
 3358TIP3   OH231564   4.785   6.644  12.929  0.2833  0.7839 -0.0302
 3358TIP3    H131565   4.711   6.676  12.878 -1.6329  0.9001  2.5772
 3358TIP3    H231566   4.823   6.723  12.969  2.1220  0.7662 -1.6143
 3359TIP3   OH231567   5.727   1.650   1.028  0.4246 -0.6233  0.7695
 3359TIP3    H131568   5.713   1.744   1.014  1.7174 -0.6482 -0.9872
 3359TIP3    H231569   5.642   1.618   1.060 -0.9056  0.6673 -1.2054
 3360TIP3   OH231570   6.828   5.511   5.440  0.8495 -0.3111  0.1783
 3360TIP3    H131571   6.786   5.560   5.510  0.3809 -0.2957 -0.1106
 3360TIP3    H231572   6.809   5.419   5.460  1.3550 -0.3576  0.4781
 3361TIP3   OH231573   1.032   1.859   1.950  0.3779  0.1105 -0.3209
 3361TIP3    H131574   0.979   1.788   1.915 -0.4812  0.4186  0.3028
 3361TIP3    H231575   1.103   1.870   1.887 -0.5022 -0.0750 -1.3726
 3362TIP3   OH231576   4.628   0.469   0.503  0.2287 -0.0346 -0.0288
 3362TIP3    H131577   4.653   0.445   0.592  2.9071  0.7891 -0.4877
 3362TIP3    H231578   4.619   0.565   0.505  1.1929  0.0835 -0.8278
 3363TIP3   OH231579   1.323   1.783  14.993 -0.0116  0.1106  0.4716
 3363TIP3    H131580   1.335   1.874  15.021 -0.2559 -0.2088  1.6618
 3363TIP3    H231581   1.248   1.752  15.043 -0.9229 -0.3029 -1.0774
 3364TIP3   OH231582   3.133   4.354   1.425  0.4087  0.0730 -0.1899
 3364TIP3    H131583   3.044   4.342   1.459  0.0924  1.5558 -0.3921
 3364TIP3    H231584   3.189   4.358   1.502  0.2553 -0.5244 -0.0460
 3365TIP3   OH231585   0.847   6.296   4.335  0.1098  0.0571  0.1090
 3365TIP3    H131586   0.862   6.254   4.250  1.5165  2.0572 -0.7211
 3365TIP3    H231587   0.767   6.347   4.323  0.2170  0.2083  0.0353
 3366TIP3   OH231588   4.192   2.676   1.266 -0.2468 -0.0421  0.2750
 3366TIP3    H131589   4.157   2.587   1.253  1.8694 -0.8477 -0.4177
 3366TIP3    H231590   4.123   2.734   1.232 -0.5164 -1.5632 -2.0538
 3367TIP3   OH231591   1.703   3.874  11.445  0.1707  0.4359  0.0253
 3367TIP3    H131592   1.769   3.905  11.508 -0.1356  4.3808 -1.3116
 3367TIP3    H231593   1.754   3.833  11.375  1.1608  2.1961 -0.3333
 3368TIP3   OH231594   6.121   6.819   0.505  0.1374 -0.0549 -0.2144
 3368TIP3    H131595   6.055   6.752   0.489  0.1687  0.0157 -0.6547
 3368TIP3    H231596   6.204   6.771   0.508 -0.0226 -0.2754  1.3240
 3369TIP3   OH231597   6.453   4.264  11.217 -0.2939 -0.4551  0.0338
 3369TIP3    H131598   6.527   4.289  11.162 -0.8351  0.3902 -0.3218
 3369TIP3    H231599   6.419   4.183  11.178  0.9184 -1.3126  0.6723
 3370TIP3   OH231600   3.018   6.446  10.406 -0.6378  0.4310  0.3490
 3370TIP3    H131601   3.000   6.497  10.327  1.5893  2.8146  1.2743
 3370TIP3    H231602   3.041   6.359  10.373  2.2423  1.8714 -1.8995
 3371TIP3   OH231603   3.146   3.417   1.021 -0.0940  0.7592 -0.2450
 3371TIP3    H131604   3.078   3.471   1.060 -0.9040  0.2285 -0.8725
 3371TIP3    H231605   3.139   3.435   0.927  1.2498  1.3812 -0.2545
 3372TIP3   OH231606   6.668   1.149   4.877  0.2981 -0.1672 -0.8058
 3372TIP3    H131607   6.607   1.222   4.867  2.2502  1.4265 -1.6959
 3372TIP3    H231608   6.677   1.138   4.972 -0.4476  0.3283 -0.6674
 3373TIP3   OH231609   6.209   3.447   3.508 -0.5301  0.0987  0.5372
 3373TIP3    H131610   6.295   3.489   3.499 -1.4465  2.1066  0.4440
 3373TIP3    H231611   6.183   3.465   3.599 -0.4006 -1.4623  0.9042
 3374TIP3   OH231612   6.394   1.545   1.266  0.3707  0.2137  0.3202
 3374TIP3    H131613   6.422   1.631   1.233 -0.0304  0.6559  1.0997
 3374TIP3    H231614   6.396   1.488   1.189 -0.7217  1.2704 -0.5412
 3375TIP3   OH231615   4.663   1.422   5.711 -0.4715  0.3044 -0.1246
 3375TIP3    H131616   4.725   1.416   5.784 -0.1827 -2.3352 -0.4948
 3375TIP3    H231617   4.679   1.509   5.674  1.5492  0.5110  1.0456
 3376TIP3   OH231618   6.490   4.858  15.045 -0.5270  0.2181  0.5904
 3376TIP3    H131619   6.581   4.885  15.035 -0.4323 -0.2218  0.2307
 3376TIP3    H231620   6.446   4.895  14.969 -0.8042  1.0731  1.1595
 3377TIP3   OH231621   1.215   3.375  16.603  0.2101 -0.0033 -0.7720
 3377TIP3    H131622   1.221   3.418  16.517 -0.1675 -1.7021 -1.7126
 3377TIP3    H231623   1.123   3.354  16.613  0.2265  0.3452  0.1480
 3378TIP3   OH231624   3.866   2.937   3.276  0.2919  0.1478  0.1424
 3378TIP3    H131625   3.813   3.016   3.278  0.3969  0.2101  0.4370
 3378TIP3    H231626   3.813   2.871   3.321  0.3868  0.1615  0.2733
 3379TIP3   OH231627   5.527   5.503  13.034  0.2878  0.1972  0.6629
 3379TIP3    H131628   5.504   5.423  13.082  0.4600  0.3981  1.0900
 3379TIP3    H231629   5.587   5.549  13.093  2.6551 -0.7866 -0.8359
 3380TIP3   OH231630   4.792   3.745   2.562  0.1303  0.5768  0.6354
 3380TIP3    H131631   4.709   3.787   2.540  0.2536  1.3986  1.6703
 3380TIP3    H231632   4.819   3.701   2.481 -0.4462  1.7607 -0.2353
 3381TIP3   OH231633   6.421   3.162   2.438 -0.4664  0.0869  0.4333
 3381TIP3    H131634   6.389   3.185   2.525 -1.8410 -0.2108  0.0421
 3381TIP3    H231635   6.435   3.067   2.442 -0.9657  0.0016  0.2076
 3382TIP3   OH231636   2.269   5.551   1.822 -0.4405 -0.3178 -0.4599
 3382TIP3    H131637   2.273   5.598   1.739 -1.9862 -1.3064 -1.1475
 3382TIP3    H231638   2.176   5.537   1.837 -0.3235  1.1083  2.2303
 3383TIP3   OH231639   4.113   6.605   4.109  0.2371 -0.0659 -0.6017
 3383TIP3    H131640   4.099   6.698   4.127 -1.5140 -0.2145 -1.0334
 3383TIP3    H231641   4.040   6.581   4.052 -0.3848 -2.1513  0.9779
 3384TIP3   OH231642   6.168   2.281  11.289  0.9540 -0.0155 -0.5382
 3384TIP3    H131643   6.195   2.221  11.359 -0.9165  0.1654  0.3928
 3384TIP3    H231644   6.178   2.368  11.327 -0.9614  0.0517 -0.1106
 3385TIP3   OH231645   6.012   1.190   5.342  0.1012  0.5808  0.1643
 3385TIP3    H131646   6.081   1.236   5.294 -0.3728  0.9507 -0.1787
 3385TIP3    H231647   5.953   1.260   5.372  0.9065  0.4555  2.1532
 3386TIP3   OH231648   1.058   5.847   3.151 -0.1869 -0.4269  0.1788
 3386TIP3    H131649   1.057   5.891   3.066  2.0166 -0.6795 -0.0345
 3386TIP3    H231650   1.102   5.909   3.210  0.7311 -1.3082  0.4621
 3387TIP3   OH231651   0.235   2.123  15.521 -0.2807  0.3370  0.2754
 3387TIP3    H131652   0.301   2.155  15.460 -0.5592 -0.4024 -0.4350
 3387TIP3    H231653   0.153   2.163  15.492 -0.1204  1.4687  1.3199
 3388TIP3   OH231654   6.357   5.422   2.750 -0.0925  0.1702 -0.3627
 3388TIP3    H131655   6.278   5.414   2.804 -0.2788  0.2462 -0.6244
 3388TIP3    H231656   6.347   5.506   2.705  1.6892  1.8639  2.1160
 3389TIP3   OH231657   5.475   4.541   5.950  0.4389  0.3590  0.1905
 3389TIP3    H131658   5.457   4.450   5.925 -0.7514  0.7948 -0.5840
 3389TIP3    H231659   5.495   4.536   6.044 -0.0733 -0.6501  0.2616
 3390TIP3   OH231660   4.332   3.200   4.770 -0.3171 -0.6249  0.7808
 3390TIP3    H131661   4.290   3.243   4.696  0.6969  0.3123  0.7205
 3390TIP3    H231662   4.330   3.107   4.749 -0.5142 -0.4108 -0.1625
 3391TIP3   OH231663   5.534   1.977  12.139  0.3032  0.0321  0.3770
 3391TIP3    H131664   5.569   1.921  12.069  0.4589  2.4193 -1.6151
 3391TIP3    H231665   5.607   1.991  12.198  1.0807  0.2883 -0.6097
 3392TIP3   OH231666   6.199   2.833  12.516  0.0288 -0.0602  0.0140
 3392TIP3    H131667   6.271   2.895  12.503  0.0394  0.0215  0.4553
 3392TIP3    H231668   6.140   2.877  12.577  0.2664 -0.6717  0.6897
 3393TIP3   OH231669   3.893   6.381  11.135  0.4812 -0.4379  0.9213
 3393TIP3    H131670   3.947   6.304  11.115 -0.3816 -0.1699 -3.4267
 3393TIP3    H231671   3.804   6.356  11.110 -0.0992  1.4208  0.9593
 3394TIP3   OH231672   2.070   5.471  12.796 -0.6389 -0.4583  0.1720
 3394TIP3    H131673   2.032   5.384  12.784  1.5084 -1.4079 -0.2717
 3394TIP3    H231674   2.158   5.454  12.831  0.9234  1.3365 -2.4699
 3395TIP3   OH231675   1.311   1.278  14.973  0.3365 -0.3028  0.2921
 3395TIP3    H131676   1.277   1.227  14.899  0.4334  1.8252 -1.3380
 3395TIP3    H231677   1.269   1.239  15.050 -0.2182 -2.2638 -0.9066
 3396TIP3   OH231678   0.127   4.996  11.672  0.0605 -0.0768 -0.4141
 3396TIP3    H131679   0.116   5.088  11.648  1.1877 -0.0216 -0.7865
 3396TIP3    H231680   0.073   4.985  11.750  0.8654  1.2173  0.3588
 3397TIP3   OH231681   5.374   5.177   2.474 -0.1955 -0.2996 -0.3966
 3397TIP3    H131682   5.316   5.104   2.494 -1.3615  0.0827 -2.1796
 3397TIP3    H231683   5.425   5.190   2.554 -0.9717 -2.1170  0.4348
 3398TIP3   OH231684   0.451   6.504   0.927 -0.3936  0.3087 -1.0541
 3398TIP3    H131685   0.479   6.518   0.836  1.5852 -3.1077 -1.1568
 3398TIP3    H231686   0.402   6.422   0.924  1.0612 -0.7315  1.1088
 3399TIP3   OH231687   4.315   2.292   6.317 -0.4791 -0.1392  0.0587
 3399TIP3    H131688   4.341   2.210   6.358 -1.3317 -1.1030 -1.2445
 3399TIP3    H231689   4.389   2.350   6.330 -0.4970 -0.5405  2.4644
 3400TIP3   OH231690   0.579   1.164  14.135  0.3460 -0.2294  0.4257
 3400TIP3    H131691   0.568   1.151  14.040 -0.8781  1.8367  0.2064
 3400TIP3    H231692   0.492   1.191  14.165  0.3368 -2.3226  2.4736
 3401TIP3   OH231693   0.739   3.958   3.723 -0.2413  0.0454 -0.3241
 3401TIP3    H131694   0.703   3.947   3.811  2.6337  1.3754  1.1750
 3401TIP3    H231695   0.831   3.978   3.737  1.2109 -2.9713 -3.8062
 3402TIP3   OH231696   3.215   3.574  11.320  0.5103  0.0491 -0.1092
 3402TIP3    H131697   3.295   3.527  11.297  1.1111  1.0049 -0.0508
 3402TIP3    H231698   3.183   3.530  11.398  1.6505  0.3743  0.5728
 3403TIP3   OH231699   3.402   2.320  15.054 -0.2692  0.3644 -0.0296
 3403TIP3    H131700   3.313   2.353  15.044 -0.3826 -0.1194 -0.7290
 3403TIP3    H231701   3.392   2.243  15.110 -0.4869 -0.4428 -1.1419
 3404TIP3   OH231702   1.856   6.323  11.802  0.0264  0.2223  0.2297
 3404TIP3    H131703   1.871   6.392  11.738 -0.1708 -0.6745 -0.8123
 3404TIP3    H231704   1.936   6.319  11.853  1.1597 -0.6366 -1.5283
 3405TIP3   OH231705   2.121   1.320  16.823 -0.1711 -0.0315  0.6528
 3405TIP3    H131706   2.197   1.264  16.837  0.2462  0.6414  1.1504
 3405TIP3    H231707   2.156   1.409  16.822 -1.1170  0.4185  2.4630
 3406TIP3   OH231708   5.234   1.899   1.316 -0.2181 -0.6479 -0.0711
 3406TIP3    H131709   5.286   1.977   1.335  0.2835 -0.8267 -0.6586
 3406TIP3    H231710   5.152   1.913   1.362  0.6331 -0.7176  1.5326
 3407TIP3   OH231711   1.873   3.722  10.319 -0.3212 -0.4739 -0.1726
 3407TIP3    H131712   1.937   3.763  10.260 -1.1297 -0.7929 -1.3211
 3407TIP3    H231713   1.823   3.796  10.355  1.8173 -0.0626  2.1958
 3408TIP3   OH231714   2.222   2.126   1.407 -0.5730 -0.3871  0.6543
 3408TIP3    H131715   2.220   2.219   1.427  1.4079 -0.2652  0.4346
 3408TIP3    H231716   2.143   2.091   1.449 -1.6005  1.4280  0.3544
 3409TIP3   OH231717   0.624   0.730  12.117  0.0639 -0.1073  0.0598
 3409TIP3    H131718   0.580   0.689  12.192  0.1435  1.6135  1.1154
 3409TIP3    H231719   0.653   0.657  12.062 -2.3034 -1.3600  0.3596
 3410TIP3   OH231720   3.897   6.378  13.780 -0.2327  0.1931  0.8023
 3410TIP3    H131721   3.918   6.466  13.749  0.6646 -0.7949 -1.6583
 3410TIP3    H231722   3.981   6.333  13.783 -0.6575 -0.5497  2.2032
 3411TIP3   OH231723   2.912   4.241   1.965 -0.4165  0.6832  0.2688
 3411TIP3    H131724   2.966   4.178   2.013 -1.8356 -0.6703  0.1866
 3411TIP3    H231725   2.972   4.283   1.904  0.4319 -1.2456 -0.3093
 3412TIP3   OH231726   3.202   4.627  14.937 -0.1740  0.0549 -0.4297
 3412TIP3    H131727   3.135   4.592  14.878 -0.1402 -0.3419 -0.2366
 3412TIP3    H231728   3.273   4.656  14.879  0.0818 -0.8054 -0.5693
 3413TIP3   OH231729   3.646   3.606   1.855  0.1843 -0.2091 -0.3116
 3413TIP3    H131730   3.594   3.647   1.924  0.0068 -2.9371  1.3476
 3413TIP3    H231731   3.735   3.607   1.890  0.7393  1.3651 -1.6229
 3414TIP3   OH231732   0.410   6.278  12.405  0.1971  0.4115  0.1043
 3414TIP3    H131733   0.397   6.247  12.316 -0.7014  3.3307 -0.8913
 3414TIP3    H231734   0.472   6.216  12.444 -0.4587 -1.7354 -2.0485
 3415TIP3   OH231735   0.048   1.138  11.257 -0.3931  0.0296  0.2660
 3415TIP3    H131736   0.103   1.088  11.316 -1.4794 -0.3133  1.0087
 3415TIP3    H231737   0.050   1.227  11.292  0.3741  0.2178 -0.2221
 3416TIP3   OH231738   2.800   4.371   4.431 -0.1388 -0.1525 -0.5149
 3416TIP3    H131739   2.769   4.337   4.515  0.2102  0.1369 -0.2677
 3416TIP3    H231740   2.893   4.349   4.428 -0.0941  0.0558 -0.7190
 3417TIP3   OH231741   2.169   1.363  12.396  0.4812  0.3554 -0.7357
 3417TIP3    H131742   2.259   1.346  12.369  1.2625 -0.1870  1.9050
 3417TIP3    H231743   2.174   1.374  12.491 -2.3215 -0.3941 -0.4031
 3418TIP3   OH231744   1.093   3.371  13.149 -0.2110  0.2175  0.1149
 3418TIP3    H131745   1.010   3.417  13.143  0.2046  0.8267 -1.4345
 3418TIP3    H231746   1.079   3.304  13.217 -2.1617 -0.1215 -0.5696
 3419TIP3   OH231747   6.652   2.848  16.943  0.0644 -0.4565 -0.0458
 3419TIP3    H131748   6.631   2.941  16.941 -1.6923 -0.8298 -0.6068
 3419TIP3    H231749   6.661   2.823  16.851  0.2442 -0.8994  0.0885
 3420TIP3   OH231750   5.991   3.009   4.480 -0.4131 -0.1107 -0.2252
 3420TIP3    H131751   5.946   3.079   4.526 -1.6703 -1.8268  1.3102
 3420TIP3    H231752   6.080   3.011   4.514 -1.1428 -0.9198  1.9125
 3421TIP3   OH231753   2.185   0.553  12.127 -0.1699  0.4132  0.0496
 3421TIP3    H131754   2.098   0.594  12.123 -0.6808 -0.5645  0.5882
 3421TIP3    H231755   2.215   0.570  12.216  0.7238  1.7685 -0.4950
 3422TIP3   OH231756   5.515   6.446  13.130  0.2349 -0.2471  0.4963
 3422TIP3    H131757   5.429   6.413  13.158  0.3148 -0.5018  0.4444
 3422TIP3    H231758   5.578   6.399  13.186  0.2663  1.0602  1.6245
 3423TIP3   OH231759   5.799   0.416   1.792  0.1899 -0.5819 -0.3859
 3423TIP3    H131760   5.855   0.493   1.781  2.0800 -1.9832 -1.0928
 3423TIP3    H231761   5.764   0.399   1.704  1.6543 -1.8353 -0.7719
 3424TIP3   OH231762   2.502   4.974  16.268  0.4530  0.1206 -0.2620
 3424TIP3    H131763   2.471   4.961  16.358 -0.4084  0.7771 -0.4530
 3424TIP3    H231764   2.488   4.889  16.225 -1.0455  0.3769 -0.3231
 3425TIP3   OH231765   5.517   0.617  17.058  0.2423  0.2434 -0.5168
 3425TIP3    H131766   5.565   0.575  17.129  1.3625 -0.6618 -1.7415
 3425TIP3    H231767   5.565   0.698  17.040 -0.2346  0.6405 -0.0558
 3426TIP3   OH231768   2.581   4.957   0.252  0.1506 -0.2120  0.3697
 3426TIP3    H131769   2.632   4.991   0.178  1.4025 -2.6501 -0.0133
 3426TIP3    H231770   2.636   4.974   0.329  0.2545 -0.3605  0.3290
 3427TIP3   OH231771   5.451   4.257   0.083 -0.0787 -0.0293 -0.3385
 3427TIP3    H131772   5.530   4.241   0.134  0.3320  0.6577 -0.7503
 3427TIP3    H231773   5.401   4.175   0.089  0.6004 -0.4216  0.0200
 3428TIP3   OH231774   6.399   4.775   2.954  0.1307  0.0037  0.2813
 3428TIP3    H131775   6.427   4.713   3.022 -2.2692 -0.2744  1.1001
 3428TIP3    H231776   6.471   4.837   2.947  1.2897 -1.1172  1.6422
 3429TIP3   OH231777   6.220   4.503  16.100 -0.0853 -0.2900  0.0266
 3429TIP3    H131778   6.156   4.552  16.049  0.0949  0.2445  0.3092
 3429TIP3    H231779   6.221   4.546  16.185 -0.0632 -0.9054  0.3463
 3430TIP3   OH231780   2.393   2.362   3.975  0.2586 -0.8931  0.5212
 3430TIP3    H131781   2.472   2.318   3.942 -0.7760 -2.6562  0.2833
 3430TIP3    H231782   2.384   2.331   4.065 -1.1050 -2.1043 -0.0030
 3431TIP3   OH231783   1.847   3.896   5.428 -0.1705 -0.1346  0.0080
 3431TIP3    H131784   1.910   3.911   5.498 -0.4841 -0.9903  0.4843
 3431TIP3    H231785   1.763   3.922   5.466 -0.2799 -0.1968 -0.1907
 3432TIP3   OH231786   4.382   5.616  15.910  0.1343  0.0762  0.0336
 3432TIP3    H131787   4.317   5.646  15.974 -1.3559 -1.3661 -0.7363
 3432TIP3    H231788   4.378   5.520  15.916  1.0868 -0.0505 -1.1410
 3433TIP3   OH231789   6.280   2.018  15.347  0.7230 -0.4620  0.1485
 3433TIP3    H131790   6.318   2.105  15.333  1.7010 -1.1179 -1.5437
 3433TIP3    H231791   6.198   2.019  15.299  0.0974 -0.0760  1.1969
 3434TIP3   OH231792   5.434   0.390   2.019  0.8369 -0.3750  0.1206
 3434TIP3    H131793   5.444   0.312   2.074  0.7907 -0.1775  0.4115
 3434TIP3    H231794   5.463   0.462   2.075 -1.9832  0.2187  0.9747
 3435TIP3   OH231795   2.136   0.652  12.714  0.0024  1.1107 -0.1450
 3435TIP3    H131796   2.100   0.564  12.725  1.1615  0.6431  0.0382
 3435TIP3    H231797   2.222   0.638  12.674 -0.8512  2.2939 -2.6830
 3436TIP3   OH231798   3.121   3.077   1.452 -0.1824  1.0115  0.4609
 3436TIP3    H131799   3.131   3.129   1.373  1.5976  1.8673  1.2096
 3436TIP3    H231800   3.036   3.033   1.441 -0.9350  2.7020 -0.9633
 3437TIP3   OH231801   3.632   3.829   3.525  0.3135  0.3855  0.3312
 3437TIP3    H131802   3.674   3.873   3.599 -0.6238  1.0673  0.4802
 3437TIP3    H231803   3.685   3.852   3.449  0.6852  0.5317  0.6336
 3438TIP3   OH231804   4.628   3.513  14.024  0.0858 -0.2121  0.1789
 3438TIP3    H131805   4.600   3.550  14.109  0.6815  0.8908 -0.0844
 3438TIP3    H231806   4.658   3.589  13.974  1.5949 -1.0982 -0.3059
 3439TIP3   OH231807   6.440   0.537  13.188 -0.2719  0.6799 -0.2995
 3439TIP3    H131808   6.510   0.489  13.232 -1.1998 -0.7556 -0.3389
 3439TIP3    H231809   6.481   0.619  13.161  2.0341 -0.9884 -2.2810
 3440TIP3   OH231810   1.085   1.297   0.106 -0.7243 -0.5436 -0.4774
 3440TIP3    H131811   1.065   1.273   0.016 -0.4879  0.7280 -0.8796
 3440TIP3    H231812   1.151   1.366   0.099 -0.4249 -0.6893  0.6815
 3441TIP3   OH231813   5.647   3.623  15.247  0.3582 -0.2624 -0.7254
 3441TIP3    H131814   5.557   3.628  15.277  0.6433 -0.2945  0.1768
 3441TIP3    H231815   5.642   3.577  15.163 -0.6706  1.5653 -1.7219
 3442TIP3   OH231816   3.223   6.830  13.060  0.2199  0.1631  0.0753
 3442TIP3    H131817   3.213   6.908  13.115 -0.3058 -0.3252  0.6807
 3442TIP3    H231818   3.151   6.834  12.998 -0.1346 -0.1307  0.4659
 3443TIP3   OH231819   3.546   3.774  14.106  0.4901  0.5530 -0.2155
 3443TIP3    H131820   3.486   3.829  14.055  0.7510  0.8479 -0.2092
 3443TIP3    H231821   3.502   3.689  14.111  0.3284  0.6043 -0.6871
 3444TIP3   OH231822   1.800   6.807   0.458  0.0580  0.5101  0.2599
 3444TIP3    H131823   1.867   6.739   0.456  1.3843  1.7903 -0.3040
 3444TIP3    H231824   1.722   6.763   0.491  0.4064 -1.6749 -1.6327
 3445TIP3   OH231825   1.198   0.742   0.940 -0.0147  0.1984 -0.0902
 3445TIP3    H131826   1.175   0.801   0.868 -0.8695  1.0410  0.8489
 3445TIP3    H231827   1.201   0.799   1.018 -0.1369 -0.8741  0.7169
 3446TIP3   OH231828   3.417   3.763   5.246 -0.7463 -0.0812  0.4362
 3446TIP3    H131829   3.467   3.692   5.286 -2.0854 -1.0453  0.4636
 3446TIP3    H231830   3.382   3.812   5.320 -0.4070  0.1829  0.4217
 3447TIP3   OH231831   1.417   3.578   4.811 -0.1895 -0.2386 -0.1156
 3447TIP3    H131832   1.390   3.657   4.857 -1.6796 -1.0474  0.4833
 3447TIP3    H231833   1.504   3.598   4.778 -0.3016  1.4400  0.5002
 3448TIP3   OH231834   5.078   1.373  11.285 -0.0311  0.0025  0.6602
 3448TIP3    H131835   4.998   1.325  11.308 -0.7622  2.0630  2.8635
 3448TIP3    H231836   5.143   1.305  11.267 -1.7439 -1.7481  0.7023
 3449TIP3   OH231837   1.371   5.184   0.357 -0.4274 -0.2992 -0.1053
 3449TIP3    H131838   1.360   5.133   0.437 -0.3239  1.3117  0.9562
 3449TIP3    H231839   1.285   5.184   0.316 -0.5786 -0.7704  0.2116
 3450TIP3   OH231840   2.861   5.196  15.438  0.2800  0.2753 -0.4629
 3450TIP3    H131841   2.905   5.219  15.356  0.0607 -0.1784 -0.7124
 3450TIP3    H231842   2.786   5.142  15.411 -0.4493  1.0667 -0.0445
 3451TIP3   OH231843   3.165   0.881   5.140  0.0682 -0.6177  0.0920
 3451TIP3    H131844   3.087   0.842   5.101  0.5081 -0.5470 -0.9118
 3451TIP3    H231845   3.142   0.897   5.231 -1.9205  1.5811 -0.7080
 3452TIP3   OH231846   2.929   4.623   5.492  0.6083  0.8278 -0.5480
 3452TIP3    H131847   2.856   4.637   5.432  0.7618  1.3128 -0.6304
 3452TIP3    H231848   2.981   4.554   5.451  1.1567  1.7226 -1.4078
 3453TIP3   OH231849   2.360   4.305   1.412 -0.3983 -0.4310  0.0247
 3453TIP3    H131850   2.315   4.264   1.338 -0.9636 -0.0421  0.1442
 3453TIP3    H231851   2.439   4.252   1.424 -2.7038 -3.8181  2.4212
 3454TIP3   OH231852   5.772   5.389   5.599 -0.1495  0.0214  0.3488
 3454TIP3    H131853   5.841   5.336   5.560 -1.6266 -0.8498 -1.2028
 3454TIP3    H231854   5.704   5.325   5.623 -0.8624  0.9561  0.8705
 3455TIP3   OH231855   5.375   4.427  16.324  0.5809 -0.6747 -0.1483
 3455TIP3    H131856   5.419   4.418  16.409  0.4337 -2.0014 -0.1946
 3455TIP3    H231857   5.433   4.482  16.272  0.5117  0.4581  0.9064
 3456TIP3   OH231858   2.463   2.103  16.405  0.0607 -0.1449  0.5252
 3456TIP3    H131859   2.389   2.136  16.353  1.3990  1.0289 -0.7131
 3456TIP3    H231860   2.502   2.182  16.443  1.9479 -0.5039 -0.5813
 3457TIP3   OH231861   3.405   4.614  15.155 -0.0552  0.4133  0.5647
 3457TIP3    H131862   3.440   4.699  15.128  0.4896 -0.3011 -1.1139
 3457TIP3    H231863   3.346   4.589  15.083 -0.0329 -0.7324  0.9363
 3458TIP3   OH231864   4.543   0.181  12.859 -0.5234 -0.3461  0.2755
 3458TIP3    H131865   4.629   0.224  12.862 -0.6447 -0.1520  1.0423
 3458TIP3    H231866   4.562   0.090  12.836 -0.2747  0.1368 -1.5726
 3459TIP3   OH231867   2.843   5.475  17.001 -0.3830 -0.0520 -0.2648
 3459TIP3    H131868   2.922   5.421  17.006  0.0622  0.6218  0.2054
 3459TIP3    H231869   2.875   5.563  16.983 -1.0327  0.2304 -0.0770
 3460TIP3   OH231870   0.510   6.721  11.106  0.1144 -0.2561  0.1436
 3460TIP3    H131871   0.545   6.803  11.141 -1.6774 -0.4157  2.6246
 3460TIP3    H231872   0.437   6.748  11.051 -0.5210 -0.1313  1.0169
 3461TIP3   OH231873   3.286   2.587   3.425  0.2138 -0.3218  0.4305
 3461TIP3    H131874   3.318   2.627   3.344  0.4133  0.1358  0.7309
 3461TIP3    H231875   3.365   2.575   3.477  0.0394 -0.2822  0.7029
 3462TIP3   OH231876   0.310   0.371  15.303  0.3587 -0.0769  0.2734
 3462TIP3    H131877   0.392   0.402  15.265 -0.5155  0.4285 -1.2614
 3462TIP3    H231878   0.244   0.387  15.236 -0.8149 -1.5728  1.0128
 3463TIP3   OH231879   2.885   0.446   0.790  0.3776  0.2596 -0.0135
 3463TIP3    H131880   2.894   0.438   0.695  2.0714  0.1915  0.1124
 3463TIP3    H231881   2.971   0.418   0.824 -0.7244 -1.3452  1.6241
 3464TIP3   OH231882   3.867   6.165  14.735  0.0449 -0.4426  0.0865
 3464TIP3    H131883   3.941   6.109  14.710  1.5013  1.3663  0.1824
 3464TIP3    H231884   3.905   6.231  14.793 -1.0873  2.0587 -1.8153
 3465TIP3   OH231885   1.151   3.443  13.636 -0.2682 -0.2904 -0.4454
 3465TIP3    H131886   1.074   3.476  13.590 -0.3476  0.6500  0.3255
 3465TIP3    H231887   1.221   3.446  13.571 -0.2039  1.7389 -0.3331
 3466TIP3   OH231888   4.764   3.647   0.080 -0.5062  0.0969 -0.3140
 3466TIP3    H131889   4.746   3.617  -0.009  0.8804  2.3321 -1.4461
 3466TIP3    H231890   4.850   3.608   0.101 -0.3853  0.3509 -0.3382
 3467TIP3   OH231891   5.281   2.041  12.221  0.3171 -0.0458  0.2924
 3467TIP3    H131892   5.360   2.012  12.174 -1.0523 -0.7157 -1.7485
 3467TIP3    H231893   5.237   1.959  12.245 -0.5930  0.3119 -0.1337
 3468TIP3   OH231894   0.465   5.616  15.259 -0.4793  0.4585  0.4375
 3468TIP3    H131895   0.475   5.521  15.266 -1.6481  0.3389  0.6209
 3468TIP3    H231896   0.550   5.651  15.287  0.3582 -0.5515 -0.7148
 3469TIP3   OH231897   1.222   5.203  16.296  0.3561  0.3740 -0.3061
 3469TIP3    H131898   1.289   5.248  16.244  0.7829 -0.8398 -0.8340
 3469TIP3    H231899   1.207   5.121  16.250  0.3176 -0.4821  1.1610
 3470TIP3   OH231900   6.439   6.413   4.134  0.2975 -1.0219 -0.3033
 3470TIP3    H131901   6.408   6.383   4.048 -0.8915 -1.5038  0.2802
 3470TIP3    H231902   6.498   6.485   4.113  1.8195 -2.5536 -1.6594
 3471TIP3   OH231903   3.535   5.690  10.890  0.4523  0.2776  0.0548
 3471TIP3    H131904   3.602   5.649  10.835  1.8079  1.1171  0.9963
 3471TIP3    H231905   3.457   5.695  10.835  0.5359 -2.5254 -0.4510
 3472TIP3   OH231906   6.471   6.541  12.940 -0.1399 -0.2325  1.4700
 3472TIP3    H131907   6.557   6.538  12.897  0.3244  2.1773  2.0761
 3472TIP3    H231908   6.424   6.611  12.895 -1.1307 -0.3315  2.3150
 3473TIP3   OH231909   2.618   3.140  15.301 -0.1093 -0.5472 -0.1072
 3473TIP3    H131910   2.549   3.150  15.366  1.8428  1.8420  1.7796
 3473TIP3    H231911   2.685   3.087  15.344  1.2965  1.2289  0.0165
 3474TIP3   OH231912   5.279   3.723   2.307  0.2136 -0.1549  0.4246
 3474TIP3    H131913   5.325   3.806   2.319  1.5632 -0.6657 -0.8315
 3474TIP3    H231914   5.209   3.742   2.245  1.7457 -0.2945 -1.4452
 3475TIP3   OH231915   0.289   5.550  12.019 -0.2961  0.1198 -0.0913
 3475TIP3    H131916   0.198   5.579  12.021  0.3689  2.3376  0.6760
 3475TIP3    H231917   0.311   5.532  12.110  0.0664 -0.3779 -0.2715
 3476TIP3   OH231918   0.167   3.935   3.686 -0.1400  0.5919 -0.1126
 3476TIP3    H131919   0.258   3.915   3.705 -0.7138  0.0665  2.3783
 3476TIP3    H231920   0.150   4.017   3.733 -0.0555  2.8259 -3.5498
 3477TIP3   OH231921   4.310   2.566   3.787  0.2423 -0.0036 -0.3772
 3477TIP3    H131922   4.337   2.612   3.708  1.2130 -1.6027 -1.0102
 3477TIP3    H231923   4.310   2.634   3.855  0.2042  1.2177 -1.5469
 3478TIP3   OH231924   1.252   3.924  12.617  0.0450 -0.3115  0.4440
 3478TIP3    H131925   1.346   3.904  12.611 -0.3788 -2.3875  0.0058
 3478TIP3    H231926   1.219   3.912  12.528 -0.4080  1.9147  0.2630
 3479TIP3   OH231927   4.556   4.185   0.721  0.1273  0.6738  0.0423
 3479TIP3    H131928   4.627   4.126   0.696  0.9594  1.1698  1.1745
 3479TIP3    H231929   4.586   4.228   0.800 -0.4214  2.6880 -0.7695
 3480TIP3   OH231930   5.231   3.570   1.392 -0.4679 -0.3642  0.0333
 3480TIP3    H131931   5.187   3.506   1.447 -0.6779  0.0190  0.3173
 3480TIP3    H231932   5.324   3.556   1.408 -0.3916 -2.1134 -1.6116
 3481TIP3   OH231933   2.118   4.526   0.272 -0.7132  0.0274  0.4591
 3481TIP3    H131934   2.194   4.475   0.244 -0.4391  0.1435  0.9906
 3481TIP3    H231935   2.143   4.564   0.356 -1.3700  0.0452  0.6538
 3482TIP3   OH231936   4.795   6.126   6.115 -0.3073 -0.4506  0.3414
 3482TIP3    H131937   4.710   6.102   6.080 -0.0273  0.2655 -0.8996
 3482TIP3    H231938   4.816   6.057   6.179 -1.0834 -1.5155 -0.5290
 3483TIP3   OH231939   4.670   3.479   3.830  0.1850  0.4413  0.1614
 3483TIP3    H131940   4.732   3.516   3.768  0.3074  2.0548  1.1587
 3483TIP3    H231941   4.640   3.398   3.790  1.4157  0.6498 -1.2582
 3484TIP3   OH231942   1.344   6.547  12.085  0.0491 -0.1842  0.2595
 3484TIP3    H131943   1.302   6.462  12.097 -0.1896  0.1468  1.9592
 3484TIP3    H231944   1.292   6.589  12.017 -0.2146 -1.1396 -0.1559
 3485TIP3   OH231945   6.279   2.682   1.459 -0.4369  0.0756 -0.1971
 3485TIP3    H131946   6.374   2.689   1.451 -0.4161 -1.4198 -1.9177
 3485TIP3    H231947   6.265   2.634   1.540  0.4590 -2.0124 -1.1879
 3486TIP3   OH231948   2.601   2.054   3.271  0.7797  0.5222 -0.7563
 3486TIP3    H131949   2.611   2.054   3.366  1.1267  1.1938 -0.7910
 3486TIP3    H231950   2.690   2.041   3.237  0.4349 -1.6109 -0.9846
 3487TIP3   OH231951   6.269   2.828  16.479 -0.0549 -0.0651  0.3276
 3487TIP3    H131952   6.314   2.821  16.394 -0.3891 -1.0151  0.2143
 3487TIP3    H231953   6.226   2.743  16.490 -1.8407  0.8107  0.4252
 3488TIP3   OH231954   0.050   5.061   2.653  0.0916  0.1199  0.4376
 3488TIP3    H131955   0.090   4.983   2.691  0.2519 -0.1282 -0.2204
 3488TIP3    H231956   0.107   5.085   2.580 -0.0253  0.7819  0.5519
 3489TIP3   OH231957   5.862   1.032   1.151 -0.5601  0.8496 -0.3234
 3489TIP3    H131958   5.805   0.966   1.189  0.4707  1.5457  2.7187
 3489TIP3    H231959   5.919   0.984   1.092 -0.3710 -0.8503  1.1800
 3490TIP3   OH231960   0.951   3.125   4.640  0.2766  0.1631  0.2609
 3490TIP3    H131961   0.941   3.220   4.635  0.0962  0.1331 -0.0227
 3490TIP3    H231962   0.863   3.093   4.662  1.1628  0.3328  5.0699
 3491TIP3   OH231963   1.531   0.955   1.797  0.4310  0.0116 -0.2035
 3491TIP3    H131964   1.526   0.864   1.767  0.9154 -0.2742  0.5691
 3491TIP3    H231965   1.440   0.985   1.795  0.3019 -0.3847 -0.7627
 3492TIP3   OH231966   2.478   0.086   2.167 -0.3461 -0.0415 -0.1917
 3492TIP3    H131967   2.545   0.083   2.099  0.6767  0.1620  0.7841
 3492TIP3    H231968   2.415   0.151   2.136  0.8545  1.1028 -0.2829
 3493TIP3   OH231969   5.359   6.133   3.029 -0.2165  0.0069 -0.0584
 3493TIP3    H131970   5.451   6.111   3.039 -0.0764 -0.4977 -1.9896
 3493TIP3    H231971   5.321   6.121   3.116  1.4539 -0.1258  0.6857
 3494TIP3   OH231972   3.037   5.234  10.435 -0.1176  0.0715  0.6420
 3494TIP3    H131973   2.960   5.247  10.380 -0.8214  1.3181  1.8704
 3494TIP3    H231974   3.087   5.315  10.427  1.4169 -0.9394 -0.6009
 3495TIP3   OH231975   4.197   3.515   4.343  0.0878 -0.0386  0.3735
 3495TIP3    H131976   4.170   3.603   4.370 -0.4544 -0.0930  0.0137
 3495TIP3    H231977   4.233   3.527   4.256  0.8588 -0.0347  0.6839
 3496TIP3   OH231978   4.520   5.434  11.700 -0.2190 -0.3934  0.4318
 3496TIP3    H131979   4.616   5.436  11.703 -0.2332  1.8647  1.3661
 3496TIP3    H231980   4.500   5.393  11.616  1.6221  1.5820 -1.0800
 3497TIP3   OH231981   1.355   0.863   0.065  0.2707  0.0796  0.1357
 3497TIP3    H131982   1.337   0.954   0.043 -2.2581 -0.8111 -2.1121
 3497TIP3    H231983   1.436   0.842   0.018  0.8443  1.0964  0.6355
 3498TIP3   OH231984   6.019   4.225   3.813  0.4274 -0.3301  0.1413
 3498TIP3    H131985   6.032   4.227   3.908  0.1677 -0.1114  0.1721
 3498TIP3    H231986   5.991   4.135   3.795  0.1887 -0.2923  0.3126
 3499TIP3   OH231987   5.704   2.155  11.170  0.1380 -0.1483  1.0139
 3499TIP3    H131988   5.674   2.079  11.220 -0.1192  0.6983  2.1809
 3499TIP3    H231989   5.628   2.182  11.119  0.2016 -0.6060  0.6697
 3500TIP3   OH231990   4.478   4.970  11.712 -0.8759 -0.0029  0.4764
 3500TIP3    H131991   4.459   5.046  11.766  0.5223  0.6818  0.0547
 3500TIP3    H231992   4.488   4.898  11.773  1.8878  0.9772  1.3525
 3501TIP3   OH231993   2.709   0.922  16.901 -0.6083  0.2585  0.4338
 3501TIP3    H131994   2.689   1.015  16.912  0.1399  0.6747 -1.3586
 3501TIP3    H231995   2.624   0.880  16.893 -0.9619  0.7549  1.3729
 3502TIP3   OH231996   0.406   1.182  15.082  0.2623 -0.2179  0.1521
 3502TIP3    H131997   0.385   1.263  15.128  1.3779 -0.7009  1.5828
 3502TIP3    H231998   0.353   1.185  15.002 -0.3857  1.4831  0.6114
 3503TIP3   OH231999   0.856   3.292  10.976  0.3315  0.4616 -0.2519
 3503TIP3    H132000   0.827   3.379  10.950  3.0971  1.3795 -0.6322
 3503TIP3    H232001   0.871   3.246  10.893  0.4088  0.1971 -0.0924
 3504TIP3   OH232002   5.132   2.638   1.339 -0.2085  0.0953 -0.4939
 3504TIP3    H132003   5.161   2.647   1.248  0.1716  0.0706 -0.3781
 3504TIP3    H232004   5.119   2.728   1.369  1.8800  0.2662  0.1183
 3505TIP3   OH232005   2.171   1.847  15.270 -0.0414 -0.4102 -0.6519
 3505TIP3    H132006   2.187   1.817  15.360  0.6867  2.1662  0.1464
 3505TIP3    H232007   2.255   1.835  15.226 -0.1286 -0.7549 -0.7317
 3506TIP3   OH232008   4.259   0.936  15.255  0.1774  0.1686  0.5583
 3506TIP3    H132009   4.311   0.999  15.306 -0.1964  0.5852  0.4342
 3506TIP3    H232010   4.319   0.905  15.187  0.0412  1.2598 -0.0883
 3507TIP3   OH232011   4.801   4.181  15.358  0.6583  0.2203 -0.0139
 3507TIP3    H132012   4.781   4.249  15.293  2.3758  0.4952 -0.3227
 3507TIP3    H232013   4.862   4.123  15.312  2.3434  0.7184  1.4704
 3508TIP3   OH232014   3.322   2.398   6.732  0.2743  0.1832 -0.3682
 3508TIP3    H132015   3.334   2.471   6.671  0.1573 -0.0875 -0.7201
 3508TIP3    H232016   3.285   2.438   6.811 -0.1638  0.4469 -0.7017
 3509TIP3   OH232017   1.155   5.317   5.105 -0.0743 -0.4173 -0.0612
 3509TIP3    H132018   1.165   5.412   5.118 -2.4568 -0.1523  0.4168
 3509TIP3    H232019   1.127   5.285   5.190  0.4633 -1.5389 -0.2947
 3510TIP3   OH232020   0.814   6.264   2.323 -0.9837  0.2153  0.1168
 3510TIP3    H132021   0.766   6.221   2.393 -1.4202  1.7411  0.8138
 3510TIP3    H232022   0.866   6.195   2.283 -1.0710 -0.7863  1.6465
 3511TIP3   OH232023   2.905   0.606   2.935 -0.0556 -0.7781  0.0235
 3511TIP3    H132024   2.918   0.633   2.844  0.8763  1.0623  0.6467
 3511TIP3    H232025   2.850   0.528   2.929  0.8863 -1.3613 -2.1576
 3512TIP3   OH232026   4.803   5.433  11.644  0.1873  0.0798 -0.4600
 3512TIP3    H132027   4.892   5.414  11.673  0.4059  0.9342 -0.5241
 3512TIP3    H232028   4.809   5.437  11.548 -0.3912 -2.0619 -0.6369
 3513TIP3   OH232029   3.897   4.409   2.558 -0.4713  0.1835  0.4501
 3513TIP3    H132030   3.924   4.467   2.629  0.7508 -1.9998  1.8641
 3513TIP3    H232031   3.804   4.394   2.574 -0.5164  0.7747  0.7749
 3514TIP3   OH232032   1.890   4.267   6.822 -0.0868 -0.7078  0.6102
 3514TIP3    H132033   1.852   4.319   6.893  1.2369  1.1778  0.0141
 3514TIP3    H232034   1.919   4.186   6.865 -2.1767 -1.0341  1.5692
 3515TIP3   OH232035   4.248   3.953  13.745  0.4134  0.7802 -0.3958
 3515TIP3    H132036   4.222   3.956  13.652 -0.4364  0.5335 -0.1802
 3515TIP3    H232037   4.177   3.998  13.791  0.3973  0.1445  0.2182
 3516TIP3   OH232038   1.815   3.275   0.263 -0.1396  0.5337  0.0420
 3516TIP3    H132039   1.785   3.343   0.203 -0.2837  1.3772  1.0325
 3516TIP3    H232040   1.894   3.311   0.303  0.1545 -0.1645  0.0964
 3517TIP3   OH232041   0.752   6.091   3.334 -0.1897 -0.3436 -0.5277
 3517TIP3    H132042   0.834   6.067   3.290 -0.1199 -0.9680 -0.0704
 3517TIP3    H232043   0.780   6.126   3.418 -0.2613  1.8124 -1.3345
 3518TIP3   OH232044   5.191   6.463   5.469  0.1197  0.5400  0.4723
 3518TIP3    H132045   5.139   6.534   5.432  1.5550  1.4826  0.2103
 3518TIP3    H232046   5.275   6.468   5.424  0.5881 -0.7248  1.1440
 3519TIP3   OH232047   4.907   5.431   3.906  0.1574 -0.0617  0.6151
 3519TIP3    H132048   4.978   5.444   3.969 -0.2617  0.0594  1.0687
 3519TIP3    H232049   4.835   5.394   3.958 -0.6758  1.3244  0.5006
 3520TIP3   OH232050   5.475   1.003   3.423 -0.1405  0.4076  0.2721
 3520TIP3    H132051   5.552   0.996   3.479 -0.8314 -2.1886  1.0349
 3520TIP3    H232052   5.510   1.002   3.334  0.7636  0.6220  0.6150
 3521TIP3   OH232053   5.981   4.361   3.324 -0.0581 -0.3300  0.1029
 3521TIP3    H132054   5.941   4.390   3.406 -0.3928 -1.1570  0.2443
 3521TIP3    H232055   5.961   4.431   3.262 -0.2600  0.0562  0.5990
 3522TIP3   OH232056   3.169   3.232   5.717 -0.5084  0.1062 -0.0705
 3522TIP3    H132057   3.207   3.301   5.772  1.4733 -0.2451 -0.9040
 3522TIP3    H232058   3.244   3.179   5.691 -1.8826 -1.9403 -0.0644
 3523TIP3   OH232059   2.312   1.852  15.625  0.2846  0.8047  0.2487
 3523TIP3    H132060   2.340   1.940  15.653  0.8648  1.1644 -1.3862
 3523TIP3    H232061   2.220   1.862  15.604  0.5172  1.2310 -0.6352
 3524TIP3   OH232062   2.700   5.616   3.601 -0.3301  0.1617  0.3677
 3524TIP3    H132063   2.740   5.584   3.682  0.3588 -0.8367 -0.3374
 3524TIP3    H232064   2.773   5.654   3.552 -0.9146  1.7008  0.6274
 3525TIP3   OH232065   1.653   0.628   2.713  0.1972  0.8142  0.2221
 3525TIP3    H132066   1.689   0.710   2.678 -0.1842  0.5038 -0.9476
 3525TIP3    H232067   1.723   0.592   2.768  1.2082  0.8484 -0.9976
 3526TIP3   OH232068   6.265   5.902  12.524 -0.2452 -0.5565  0.2933
 3526TIP3    H132069   6.256   5.943  12.439 -0.1278  0.0030  0.5474
 3526TIP3    H232070   6.360   5.896  12.538 -0.2561  0.6170  0.9783
 3527TIP3   OH232071   6.152   4.163  15.102 -0.4364  0.0301 -0.3980
 3527TIP3    H132072   6.157   4.068  15.087 -0.7062 -0.4539  2.2111
 3527TIP3    H232073   6.243   4.189  15.119 -0.6257 -0.2102  1.0997
 3528TIP3   OH232074   0.321   1.241  13.200  0.3787  0.5977 -0.1999
 3528TIP3    H132075   0.408   1.271  13.174  1.5523 -0.8563  1.8031
 3528TIP3    H232076   0.287   1.194  13.124  1.9423 -0.0043 -0.5484
 3529TIP3   OH232077   3.878   5.593  13.752 -0.0768 -0.3267 -0.1764
 3529TIP3    H132078   3.876   5.504  13.716 -1.0808 -0.5060  0.3016
 3529TIP3    H232079   3.845   5.649  13.683  3.3589  0.1624 -1.6544
 3530TIP3   OH232080   5.891   5.308  12.429  0.0716 -0.0008  0.0034
 3530TIP3    H132081   5.917   5.267  12.346 -0.0580 -0.5893  0.2464
 3530TIP3    H232082   5.811   5.356  12.409 -1.1899 -1.9042  0.2465
 3531TIP3   OH232083   3.653   1.934  12.247  0.6464 -0.2453  0.2796
 3531TIP3    H132084   3.712   1.945  12.173 -1.0861 -1.4578 -1.3631
 3531TIP3    H232085   3.646   2.022  12.285  2.4194  0.1722 -0.2751
 3532TIP3   OH232086   2.927   6.155   2.677 -0.3208 -0.3896  0.3695
 3532TIP3    H132087   3.020   6.146   2.700 -0.8354 -1.1052  2.4148
 3532TIP3    H232088   2.881   6.103   2.743 -2.3102  1.4987  0.5759
 3533TIP3   OH232089   3.130   6.026  14.667 -0.2472 -0.1205  0.1043
 3533TIP3    H132090   3.110   6.116  14.641 -1.1869 -0.2444  0.3451
 3533TIP3    H232091   3.224   6.017  14.656 -0.0646  1.0709  0.6128
 3534TIP3   OH232092   6.566   1.004   2.455 -0.3119  0.2323 -0.1896
 3534TIP3    H132093   6.562   0.954   2.537  0.9200  1.0634  0.3928
 3534TIP3    H232094   6.479   0.991   2.415 -0.9839 -0.0506  1.3102
 3535TIP3   OH232095   3.826   6.169  16.731  0.3299  0.1052 -0.1087
 3535TIP3    H132096   3.783   6.130  16.654 -0.8277  1.7255 -0.3494
 3535TIP3    H232097   3.756   6.218  16.775  0.6310 -1.8427  2.7928
 3536TIP3   OH232098   1.083   3.604   5.753  0.0161  0.0988  0.1361
 3536TIP3    H132099   1.072   3.693   5.720 -0.1112  0.3561  0.8610
 3536TIP3    H232100   1.036   3.550   5.689  0.8324  0.4485 -0.7811
 3537TIP3   OH232101   0.903   0.823   4.352  0.4002 -0.3871 -0.1882
 3537TIP3    H132102   0.812   0.854   4.354  0.9529  1.2844  0.5284
 3537TIP3    H232103   0.934   0.850   4.265 -0.0354 -1.7863 -0.8027
 3538TIP3   OH232104   6.726   6.433   4.836 -0.5737  0.3874  0.0090
 3538TIP3    H132105   6.767   6.519   4.844 -1.9549  1.0627  0.0438
 3538TIP3    H232106   6.640   6.444   4.875 -1.3969 -0.5637 -1.4570
 3539TIP3   OH232107   0.008   5.270   4.484 -0.4177 -0.3549  0.3832
 3539TIP3    H132108   0.031   5.179   4.469 -1.6056 -0.5551 -0.3503
 3539TIP3    H232109   0.004   5.279   4.580 -3.0366 -1.8160  0.4758
 3540TIP3   OH232110   4.207   5.019   5.824 -0.5244 -0.5009  0.3255
 3540TIP3    H132111   4.150   5.032   5.748 -0.3040 -0.9135  0.0877
 3540TIP3    H232112   4.192   4.928   5.850  0.6449 -0.8811 -0.2576
 3541TIP3   OH232113   0.219   3.424  16.139  0.4261 -0.2658 -0.6201
 3541TIP3    H132114   0.207   3.519  16.149 -0.6601 -0.4399 -0.1453
 3541TIP3    H232115   0.143   3.396  16.089  0.1591 -1.0520  0.2039
 3542TIP3   OH232116   4.316   1.191   2.228 -0.0213  0.0795 -0.0524
 3542TIP3    H132117   4.272   1.110   2.202 -0.5958  1.1047 -2.5801
 3542TIP3    H232118   4.409   1.168   2.230 -0.1125 -0.5362 -1.3745
 3543TIP3   OH232119   4.949   1.874  13.739 -0.1152 -0.5488 -0.3960
 3543TIP3    H132120   4.858   1.848  13.740  0.1301 -1.4114  0.8390
 3543TIP3    H232121   4.998   1.796  13.765  1.0147 -0.2132 -1.3893
 3544TIP3   OH232122   3.016   6.066  16.691 -0.3609  0.1967  0.7035
 3544TIP3    H132123   2.930   6.029  16.711 -0.9126  1.5629  0.9914
 3544TIP3    H232124   3.033   6.041  16.600 -1.1588  0.0802  0.5829
 3545TIP3   OH232125   5.715   0.338   1.530 -0.0653  0.3198 -0.1914
 3545TIP3    H132126   5.766   0.408   1.490  0.8983 -0.7583 -0.9217
 3545TIP3    H232127   5.648   0.318   1.465 -1.2490  1.4947  0.6186
 3546TIP3   OH232128   6.518   4.821  16.914  0.2534 -0.3314  0.9516
 3546TIP3    H132129   6.470   4.820  16.832  0.0567  0.2341  1.0601
 3546TIP3    H232130   6.609   4.805  16.889  0.3178  0.6611  0.5410
 3547TIP3   OH232131   6.852   0.079   0.185 -0.4057  0.1132  0.4688
 3547TIP3    H132132   6.839   0.089   0.280  0.6871 -0.0531  0.6406
 3547TIP3    H232133   6.814   0.159   0.148  0.0105  0.6294  1.1227
 3548TIP3   OH232134   5.280   6.799   1.939  0.1597  0.2127 -0.1265
 3548TIP3    H132135   5.249   6.876   1.987 -1.9899 -1.2987  1.0337
 3548TIP3    H232136   5.346   6.760   1.996  0.8893  0.8920 -0.4898
 3549TIP3   OH232137   3.344   4.204  12.781 -0.5189 -0.2205 -0.1160
 3549TIP3    H132138   3.322   4.116  12.752 -1.3607  0.6874 -2.4590
 3549TIP3    H232139   3.271   4.259  12.751 -0.8016  1.0901  2.6376
 3550TIP3   OH232140   1.578   5.775   0.893  0.0082 -0.2920 -0.1547
 3550TIP3    H132141   1.592   5.808   0.804 -2.2592 -2.4792 -1.4556
 3550TIP3    H232142   1.625   5.692   0.896  0.0167 -0.2699  0.7070
 3551TIP3   OH232143   2.624   6.154  12.476 -0.2706  0.4563 -0.7703
 3551TIP3    H132144   2.641   6.224  12.539  0.8478  0.0307 -0.5698
 3551TIP3    H232145   2.650   6.074  12.521 -1.3635 -0.0853 -1.0605
 3552TIP3   OH232146   3.633   6.026  11.214  0.3300  0.2704  0.3720
 3552TIP3    H132147   3.578   6.051  11.288  1.5809  0.2046  1.3462
 3552TIP3    H232148   3.709   5.983  11.253  0.7532 -0.2722 -0.9847
 3553TIP3   OH232149   5.488   2.524  14.904  0.1065 -0.3008  0.2188
 3553TIP3    H132150   5.460   2.612  14.929  1.0847  0.0183  0.2600
 3553TIP3    H232151   5.423   2.495  14.840  0.5203  1.0209 -0.8465
 3554TIP3   OH232152   3.979   1.642  16.737 -1.0403  0.3711  0.1965
 3554TIP3    H132153   3.982   1.736  16.751 -0.0744  0.1811  1.4747
 3554TIP3    H232154   4.001   1.631  16.644  1.5238  1.3158  0.6006
 3555TIP3   OH232155   1.990   3.347   4.865 -0.6214 -0.0610  0.4201
 3555TIP3    H132156   2.033   3.423   4.905  0.6666  0.3101 -1.5353
 3555TIP3    H232157   1.901   3.377   4.848  0.2708  1.6658 -1.7279
 3556TIP3   OH232158   2.416   4.179  12.969  0.1845  0.1128 -0.4027
 3556TIP3    H132159   2.369   4.253  12.929 -0.2886 -0.3976 -0.8067
 3556TIP3    H232160   2.478   4.150  12.901 -0.7030 -0.8306 -0.8443
 3557TIP3   OH232161   1.835   3.629  14.606  0.0387  0.1583  0.1952
 3557TIP3    H132162   1.776   3.559  14.636 -1.8732  1.7620  0.3737
 3557TIP3    H232163   1.798   3.656  14.521  0.5878  1.1240  0.2511
 3558TIP3   OH232164   4.271   1.305   0.191 -0.2594  0.2834  0.2692
 3558TIP3    H132165   4.206   1.346   0.134  0.0749  0.5636  0.0834
 3558TIP3    H232166   4.303   1.230   0.140 -0.8049 -0.1628  0.5717
 3559TIP3   OH232167   6.398   3.197  13.094  0.1960 -0.8238 -0.2326
 3559TIP3    H132168   6.400   3.291  13.109 -0.1458 -0.5947 -1.5137
 3559TIP3    H232169   6.467   3.162  13.151 -0.1804  0.1049  0.8047
 3560TIP3   OH232170   1.687   1.434  14.156 -0.7853  0.4498 -0.6208
 3560TIP3    H132171   1.639   1.360  14.195 -0.6386  0.6178 -0.1117
 3560TIP3    H232172   1.629   1.509  14.171 -0.2635  0.6979  0.2185
 3561TIP3   OH232173   2.988   0.484  12.183  0.3440  0.5002 -0.0731
 3561TIP3    H132174   2.974   0.427  12.259  2.1065  1.1699  0.8195
 3561TIP3    H232175   2.918   0.549  12.188 -0.8117 -0.6943 -0.2677
 3562TIP3   OH232176   3.171   5.346   3.998 -0.0146 -0.3777 -0.3170
 3562TIP3    H132177   3.179   5.265   4.049  1.2198 -1.4638 -2.1112
 3562TIP3    H232178   3.262   5.373   3.982 -0.3981  0.8095 -0.6035
 3563TIP3   OH232179   5.658   5.081   0.401  0.1328  0.4909 -0.3170
 3563TIP3    H132180   5.729   5.140   0.426 -0.4659  0.2362  2.2128
 3563TIP3    H232181   5.585   5.105   0.458 -0.7783 -1.3568 -0.6370
 3564TIP3   OH232182   0.052   2.542   0.996 -0.2192 -0.1826 -0.0404
 3564TIP3    H132183   0.003   2.468   1.032 -0.3952  0.3244  0.7952
 3564TIP3    H232184   0.133   2.504   0.963 -1.1017 -1.0208 -1.3539
 3565TIP3   OH232185   4.305   4.899  12.274 -0.3383  0.1157  0.0001
 3565TIP3    H132186   4.280   4.918  12.184 -0.8663 -1.2424 -0.1712
 3565TIP3    H232187   4.315   4.803  12.277 -0.7374  0.0850  1.4698
 3566TIP3   OH232188   6.083   3.364   1.692 -0.4355  0.3661  0.5845
 3566TIP3    H132189   6.161   3.414   1.716  0.4563 -0.9349  0.4506
 3566TIP3    H232190   6.086   3.358   1.597 -1.3765  1.3475  0.4682
 3567TIP3   OH232191   4.066   3.612   1.096 -0.1938  0.3269  0.2517
 3567TIP3    H132192   4.002   3.585   1.162  0.1351 -0.5214  0.2355
 3567TIP3    H232193   4.139   3.551   1.106 -0.2013  0.0739 -0.9896
 3568TIP3   OH232194   6.382   6.504   3.605 -0.4459  0.2174 -0.5836
 3568TIP3    H132195   6.290   6.481   3.593 -0.4138  0.2686 -0.9382
 3568TIP3    H232196   6.413   6.527   3.518  0.1910 -0.8307 -0.6494
 3569TIP3   OH232197   1.499   5.742   0.025 -0.2769 -0.2373 -0.6639
 3569TIP3    H132198   1.586   5.773   0.050 -1.2238  1.1911  1.0755
 3569TIP3    H232199   1.504   5.647   0.030  1.3356 -0.2041 -1.1955
 3570TIP3   OH232200   3.923   1.254  13.823 -0.6362 -0.8115 -0.5591
 3570TIP3    H132201   3.885   1.215  13.902  0.4306 -0.9289 -0.0892
 3570TIP3    H232202   3.986   1.318  13.856 -0.2092 -0.8348 -1.3139
 3571TIP3   OH232203   4.792   3.910   3.035  0.0427 -0.3198 -0.2535
 3571TIP3    H132204   4.881   3.881   3.058  0.5164  0.7002 -0.7103
 3571TIP3    H232205   4.743   3.829   3.023  0.5476 -0.9146  1.3384
 3572TIP3   OH232206   3.550   3.687  14.658  0.2721  0.1941 -0.1756
 3572TIP3    H132207   3.567   3.651  14.571  0.7943 -0.0338  0.0139
 3572TIP3    H232208   3.603   3.633  14.717  0.5426  0.8485  0.1934
 3573TIP3   OH232209   0.789   1.109   0.183 -0.0821 -0.1441  0.4270
 3573TIP3    H132210   0.705   1.150   0.205 -0.2631  0.5068 -1.3123
 3573TIP3    H232211   0.781   1.020   0.218 -2.0889 -0.5540 -0.8556
 3574TIP3   OH232212   3.528   2.719  12.969  0.5437  0.8957 -0.2763
 3574TIP3    H132213   3.583   2.792  12.996 -0.3830  1.3857  0.3286
 3574TIP3    H232214   3.580   2.641  12.989  1.0159  1.3524  0.3005
 3575TIP3   OH232215   3.511   1.975  16.192  0.2835 -0.3654 -0.4367
 3575TIP3    H132216   3.568   2.003  16.121 -0.4530 -0.2431 -0.9885
 3575TIP3    H232217   3.426   1.958  16.150  0.0140 -0.9207  0.2996
 3576TIP3   OH232218   4.937   1.522  13.963  0.2646  0.1654  0.2821
 3576TIP3    H132219   4.950   1.608  14.003  1.5781  0.3887 -0.5358
 3576TIP3    H232220   4.843   1.508  13.967  0.1554  1.0608  1.5949
 3577TIP3   OH232221   1.801   3.293   0.607  0.2690  0.3522  0.4926
 3577TIP3    H132222   1.882   3.242   0.612  0.2126  0.1341 -0.5771
 3577TIP3    H232223   1.733   3.232   0.637  0.1893 -0.2687 -0.8591
 3578TIP3   OH232224   2.033   6.006   1.222  0.2958 -0.5473  0.5836
 3578TIP3    H132225   2.014   5.917   1.251  2.2164 -1.2292 -0.1019
 3578TIP3    H232226   1.996   6.062   1.290 -0.4757 -1.8768  1.3038
 3579TIP3   OH232227   5.061   2.747  15.070  0.1937  0.1318 -0.1575
 3579TIP3    H132228   5.139   2.766  15.122  0.7127 -0.6998 -0.6138
 3579TIP3    H232229   5.021   2.673  15.115  0.6874 -0.6410 -0.9719
 3580TIP3   OH232230   6.154   3.232   1.012 -0.0596 -0.1107 -0.0397
 3580TIP3    H132231   6.119   3.309   1.057  0.3315 -0.4455  0.8586
 3580TIP3    H232232   6.106   3.158   1.049 -0.5396 -0.3025 -1.0037
 3581TIP3   OH232233   3.051   1.453   2.967 -0.1551  0.3618 -0.1547
 3581TIP3    H132234   2.969   1.465   2.919  0.1313  2.7137 -0.2007
 3581TIP3    H232235   3.024   1.434   3.056 -0.6951 -2.3990 -0.8329
 3582TIP3   OH232236   5.656   3.816  15.990  0.0766 -0.4845  0.6395
 3582TIP3    H132237   5.619   3.882  16.048 -1.8058  0.3219 -1.3483
 3582TIP3    H232238   5.683   3.745  16.048 -0.6579  0.7458  2.5709
 3583TIP3   OH232239   3.581   4.192  14.016  0.3854 -0.1223 -0.1635
 3583TIP3    H132240   3.625   4.167  13.934  0.2159 -0.5683 -0.1196
 3583TIP3    H232241   3.489   4.204  13.991  0.3381 -0.2330 -0.0441
 3584TIP3   OH232242   2.145   4.665  16.131 -0.1026 -0.1833  0.3568
 3584TIP3    H132243   2.085   4.740  16.133 -1.6285 -1.2241 -1.9611
 3584TIP3    H232244   2.132   4.622  16.215 -0.4817  1.1888  1.0356
 3585TIP3   OH232245   1.569   0.413   0.118  0.1205 -0.0677 -0.6191
 3585TIP3    H132246   1.552   0.343   0.181 -1.1690  0.5285 -0.2827
 3585TIP3    H232247   1.661   0.436   0.133  0.2927 -1.0237 -0.0789
 3586TIP3   OH232248   1.207   4.999   0.838 -0.2444 -0.1554  0.0682
 3586TIP3    H132249   1.204   4.967   0.928  1.1556  2.1859  1.0724
 3586TIP3    H232250   1.122   4.976   0.801 -0.0706 -3.0796  1.2410
 3587TIP3   OH232251   3.844   5.149  14.129 -0.2123 -0.1676  0.0700
 3587TIP3    H132252   3.880   5.238  14.124 -0.9171  0.1333  0.2277
 3587TIP3    H232253   3.761   5.155  14.083 -0.0063 -0.8884 -0.4081
 3588TIP3   OH232254   1.529   5.155  15.060 -0.2925 -0.2097 -0.1218
 3588TIP3    H132255   1.436   5.136  15.046 -0.5215  1.2686 -0.8130
 3588TIP3    H232256   1.562   5.178  14.973  0.6029 -0.2519  0.1999
 3589TIP3   OH232257   3.109   4.681   5.849  0.8736 -0.0458  0.4420
 3589TIP3    H132258   3.161   4.760   5.865 -0.8216  1.5787 -1.5491
 3589TIP3    H232259   3.020   4.704   5.876 -0.5104  0.2753 -3.6178
 3590TIP3   OH232260   4.663   4.255   2.735 -0.2663 -0.0603 -0.1846
 3590TIP3    H132261   4.638   4.329   2.791 -0.0490  0.3292 -0.5949
 3590TIP3    H232262   4.727   4.206   2.786  1.0005  1.0749 -0.6192
 3591TIP3   OH232263   6.616   4.063  15.426  0.0963 -0.5929 -0.6194
 3591TIP3    H132264   6.676   4.010  15.480  1.4420  1.4195 -0.0014
 3591TIP3    H232265   6.671   4.093  15.353 -0.8451 -0.6513 -1.3648
 3592TIP3   OH232266   1.197   1.294   2.345  0.9081  0.6749  0.4580
 3592TIP3    H132267   1.200   1.264   2.436 -1.1372 -0.5177  0.2041
 3592TIP3    H232268   1.176   1.215   2.294 -0.9735  1.8282 -0.6772
 3593TIP3   OH232269   5.471   1.935   5.001  0.1401 -0.4639  0.6462
 3593TIP3    H132270   5.446   2.012   5.052  1.4134 -0.5088  1.3837
 3593TIP3    H232271   5.389   1.902   4.964 -0.6053  0.4224  1.4758
 3594TIP3   OH232272   4.939   5.911   4.865  0.3833 -0.0944 -0.0288
 3594TIP3    H132273   4.876   5.970   4.907  0.5203  0.6916 -0.8903
 3594TIP3    H232274   5.010   5.903   4.928  0.5671  1.0339 -0.0749
 3595TIP3   OH232275   5.151   1.320   0.387 -0.2872 -0.8301 -0.2823
 3595TIP3    H132276   5.165   1.368   0.306 -3.3940  0.1137 -0.3866
 3595TIP3    H232277   5.193   1.373   0.455 -1.6286  0.8674 -0.7117
 3596TIP3   OH232278   5.091   3.435  12.151 -0.1412 -0.2689 -0.0139
 3596TIP3    H132279   5.118   3.525  12.169 -3.2702  1.0756 -1.3440
 3596TIP3    H232280   5.059   3.403  12.235 -0.0188  0.2355  0.2328
 3597TIP3   OH232281   2.530   6.059  16.639 -0.6413 -0.2578 -0.4969
 3597TIP3    H132282   2.451   6.012  16.664  1.2097 -3.3073  0.2454
 3597TIP3    H232283   2.553   6.024  16.553  0.3836 -0.2100 -0.2633
 3598TIP3   OH232284   0.383   0.907   3.410  0.1513  0.3436  0.7147
 3598TIP3    H132285   0.328   0.951   3.346 -0.5085 -0.7339  0.5073
 3598TIP3    H232286   0.334   0.911   3.492  0.8023  1.3494  1.0739
 3599TIP3   OH232287   4.827   1.402  16.650 -0.3215  0.3948  0.0226
 3599TIP3    H132288   4.803   1.491  16.625  2.9123  1.4300  0.1491
 3599TIP3    H232289   4.913   1.389  16.610  0.3275 -1.8248  1.9487
 3600TIP3   OH232290   2.147   6.838   1.143  0.2706 -0.2229 -0.2802
 3600TIP3    H132291   2.239   6.812   1.133 -0.1480 -2.1476  0.4224
 3600TIP3    H232292   2.109   6.825   1.056  0.4014 -0.5751 -0.2873
 3601TIP3   OH232293   5.796   6.779  16.139 -0.6306 -0.0063  0.1979
 3601TIP3    H132294   5.798   6.727  16.059 -1.5618 -1.2527  0.9488
 3601TIP3    H232295   5.768   6.717  16.207 -0.3755  1.1467  1.3872
 3602TIP3   OH232296   6.050   3.324   4.207  0.0014  0.8343  0.0265
 3602TIP3    H132297   6.029   3.317   4.114 -1.8618 -1.9371  0.5400
 3602TIP3    H232298   5.967   3.346   4.249  0.7552  1.7685  1.0845
 3603TIP3   OH232299   4.928   3.569   2.314 -0.2742 -0.3171 -0.1059
 3603TIP3    H132300   4.861   3.575   2.246  0.0336  0.9381 -0.3362
 3603TIP3    H232301   4.897   3.501   2.373 -1.9421  0.4887 -0.0007
 3604TIP3   OH232302   5.207   5.580  11.684 -0.2517 -0.4966  0.1802
 3604TIP3    H132303   5.171   5.630  11.758  0.1324  0.6510 -0.3913
 3604TIP3    H232304   5.182   5.489  11.702 -0.3924 -0.2005  1.5852
 3605TIP3   OH232305   2.739   2.839  12.883 -0.2042 -0.1496 -0.1940
 3605TIP3    H132306   2.685   2.778  12.831 -1.9389  0.7870  0.4384
 3605TIP3    H232307   2.736   2.804  12.972  0.2169 -0.0570 -0.1385
 3606TIP3   OH232308   4.827   3.079   0.032  0.3294  0.8630  0.0510
 3606TIP3    H132309   4.748   3.031   0.060  0.8307  0.5671  0.9988
 3606TIP3    H232310   4.827   3.071  -0.063  0.4475 -1.1505  0.1678
 3607TIP3   OH232311   5.504   0.794   5.782  0.2345 -0.0501  0.2094
 3607TIP3    H132312   5.439   0.845   5.734  0.6859  1.1804  0.8320
 3607TIP3    H232313   5.504   0.833   5.870  1.2777 -0.4990  0.4293
 3608TIP3   OH232314   4.658   4.694   5.684 -0.4751  0.2174  0.1395
 3608TIP3    H132315   4.674   4.602   5.700  0.7881  0.6246  1.3700
 3608TIP3    H232316   4.564   4.699   5.666 -0.4693 -1.3503 -0.4599
 3609TIP3   OH232317   5.741   3.781  12.672  0.0180  0.4652 -0.0550
 3609TIP3    H132318   5.791   3.800  12.593 -0.1601  2.3327  0.2190
 3609TIP3    H232319   5.735   3.686  12.675  1.3635  0.3005 -1.4401
 3610TIP3   OH232320   6.781   2.113   2.582 -0.2351 -0.1196 -0.0947
 3610TIP3    H132321   6.870   2.077   2.588 -0.4577 -0.7818 -0.6156
 3610TIP3    H232322   6.771   2.165   2.661  0.1383 -1.1474  0.6563
 3611TIP3   OH232323   5.237   0.503   5.116 -0.2084 -0.1448 -0.0268
 3611TIP3    H132324   5.155   0.472   5.078 -0.1257 -0.1383 -0.2151
 3611TIP3    H232325   5.304   0.474   5.053  0.0607 -1.2369  0.7234
 3612TIP3   OH232326   5.887   4.972  14.472  0.4854  0.1298  0.1532
 3612TIP3    H132327   5.957   5.013  14.522  1.2994 -2.4553  1.3442
 3612TIP3    H232328   5.926   4.891  14.438 -1.2576 -0.2262 -1.1570
 3613TIP3   OH232329   1.985   2.284  12.949 -0.3390  0.1037 -0.1405
 3613TIP3    H132330   1.972   2.205  12.897  0.5217 -0.2897  0.2136
 3613TIP3    H232331   1.925   2.348  12.911 -0.0796 -0.3169 -1.3077
 3614TIP3   OH232332   6.351   3.072  14.225  0.5742  0.3415  0.5260
 3614TIP3    H132333   6.320   2.986  14.197 -0.6242  1.0662 -0.4903
 3614TIP3    H232334   6.272   3.118  14.252  1.2345  1.0527  1.3161
 3615TIP3   OH232335   4.658   2.703  11.619  0.3164 -0.0140 -0.2353
 3615TIP3    H132336   4.569   2.739  11.621  0.1468 -0.1479 -2.8168
 3615TIP3    H232337   4.708   2.760  11.677 -1.2326  0.6262  0.5409
 3616TIP3   OH232338   6.224   5.116  15.482  0.1915  0.0656 -0.0102
 3616TIP3    H132339   6.261   5.047  15.426 -3.7361 -0.4784 -2.2913
 3616TIP3    H232340   6.169   5.069  15.544 -1.3314  1.0014 -0.6053
 3617TIP3   OH232341   3.004   3.321  14.863  0.0203  0.0566 -0.2043
 3617TIP3    H132342   2.924   3.318  14.916  0.7244  0.6243  0.9390
 3617TIP3    H232343   3.045   3.236  14.878 -1.4297 -1.1942 -2.6188
 3618TIP3   OH232344   6.148   4.704   4.476  0.1022  0.1538 -0.0962
 3618TIP3    H132345   6.069   4.703   4.530  0.1157 -1.6426 -0.0271
 3618TIP3    H232346   6.149   4.618   4.434  0.5020  1.1930 -2.3814
 3619TIP3   OH232347   0.653   6.464  12.526 -0.4023  0.5473  0.3793
 3619TIP3    H132348   0.575   6.416  12.498  0.1567 -0.7118  0.9603
 3619TIP3    H232349   0.633   6.492  12.615  0.9386 -2.3910  1.6972
 3620TIP3   OH232350   0.357   1.972   2.168  0.3168  0.4263  0.2154
 3620TIP3    H132351   0.353   1.944   2.077  0.6602  0.6493  0.1314
 3620TIP3    H232352   0.270   1.952   2.203  0.6405 -1.0572  0.2577
 3621TIP3   OH232353   5.856   3.688   0.078 -0.4293 -0.0145  0.0758
 3621TIP3    H132354   5.765   3.661   0.069 -0.8675  1.6236 -0.8560
 3621TIP3    H232355   5.853   3.783   0.083  1.3277  0.2215 -1.8383
 3622TIP3   OH232356   3.168   0.946  13.935 -0.0435 -0.0448 -0.1808
 3622TIP3    H132357   3.203   1.031  13.909 -0.5423 -0.0133 -0.7909
 3622TIP3    H232358   3.158   0.898  13.852 -2.9071  0.5220 -0.2854
 3623TIP3   OH232359   6.836   2.304  12.930  0.0949  0.3631  0.4233
 3623TIP3    H132360   6.818   2.363  12.857 -1.5148 -2.2005 -1.3915
 3623TIP3    H232361   6.757   2.307  12.984 -0.1715 -0.4251  0.0878
 3624TIP3   OH232362   1.171   3.630  12.239 -0.1282 -0.4626  0.2417
 3624TIP3    H132363   1.212   3.693  12.299 -2.4723  1.2231  0.2283
 3624TIP3    H232364   1.077   3.644  12.251 -0.7484 -3.5640 -0.2763
 3625TIP3   OH232365   4.117   5.305   1.365  0.3516 -0.1943 -0.3934
 3625TIP3    H132366   4.064   5.384   1.355  0.6893  0.0663 -0.1486
 3625TIP3    H232367   4.207   5.337   1.372  0.5479 -0.6389 -0.8462
 3626TIP3   OH232368   3.792   6.197   3.818  0.5454 -0.2522 -0.4979
 3626TIP3    H132369   3.760   6.254   3.887  0.4080  1.6847 -2.0651
 3626TIP3    H232370   3.886   6.190   3.834  0.4417 -0.2188  0.1465
 3627TIP3   OH232371   2.154   0.364   4.447 -0.1149  0.2240 -0.5666
 3627TIP3    H132372   2.248   0.355   4.428  0.0787  1.3209 -0.2254
 3627TIP3    H232373   2.120   0.410   4.370 -0.4183 -0.3495 -0.7789
 3628TIP3   OH232374   0.637   0.676   0.590 -0.4644  0.0344 -0.0429
 3628TIP3    H132375   0.706   0.735   0.620  0.0525  0.1204 -1.3261
 3628TIP3    H232376   0.617   0.706   0.501 -2.1809  0.0168  0.2940
 3629TIP3   OH232377   2.816   0.036   4.845  0.2270  0.4206 -0.3740
 3629TIP3    H132378   2.754  -0.005   4.785  1.4900 -2.1181 -0.1309
 3629TIP3    H232379   2.768   0.044   4.927  0.3911 -2.5438  0.1367
 3630TIP3   OH232380   3.591   1.319  10.935  0.5096 -0.5276  0.7392
 3630TIP3    H132381   3.526   1.329  10.866 -0.4725  0.7772  1.7805
 3630TIP3    H232382   3.659   1.383  10.914 -0.4339  0.8288  1.6152
 3631TIP3   OH232383   4.153   6.176  16.723  0.1471 -0.0853  0.0629
 3631TIP3    H132384   4.147   6.165  16.818  1.4945  0.9494  0.2967
 3631TIP3    H232385   4.147   6.088  16.688 -2.2914 -0.3501  0.9517
 3632TIP3   OH232386   1.941   5.514   5.101  0.0361  0.6403  0.3925
 3632TIP3    H132387   2.011   5.477   5.049 -0.2631 -0.6855  0.8868
 3632TIP3    H232388   1.967   5.605   5.116  1.0242  0.5140 -0.4668
 3633TIP3   OH232389   5.857   0.267  15.771 -0.0574  0.2431 -0.1059
 3633TIP3    H132390   5.900   0.277  15.856  0.2653  1.0326 -0.3488
 3633TIP3    H232391   5.927   0.281  15.707 -0.7377  2.0357 -0.5170
 3634TIP3   OH232392   5.129   0.502  15.051 -0.5607  0.6653 -0.0913
 3634TIP3    H132393   5.044   0.512  15.093 -1.8542 -2.3499 -1.7138
 3634TIP3    H232394   5.178   0.444  15.109 -1.3718 -1.3050 -1.2666
 3635TIP3   OH232395   6.206   1.366   5.962  0.0590  0.4890  0.7096
 3635TIP3    H132396   6.246   1.346   6.047 -0.5126 -1.0859  0.6404
 3635TIP3    H232397   6.221   1.287   5.909 -0.6631  0.9721 -0.2449
 3636TIP3   OH232398   1.846   2.882  16.202 -0.4871  0.0009  0.0155
 3636TIP3    H132399   1.847   2.786  16.200  1.9022 -0.0360 -0.1842
 3636TIP3    H232400   1.799   2.903  16.283  1.4465 -1.4570  1.6358
 3637TIP3   OH232401   5.736   0.520  12.744  0.1813  0.2943 -0.0858
 3637TIP3    H132402   5.756   0.487  12.832 -4.3997  1.4919  1.7070
 3637TIP3    H232403   5.744   0.615  12.752  0.6319  0.3607 -1.2548
 3638TIP3   OH232404   1.494   3.896  16.433  0.7148 -0.2375 -0.1707
 3638TIP3    H132405   1.444   3.819  16.460 -0.5618  0.2222 -1.0895
 3638TIP3    H232406   1.567   3.861  16.383  0.3563 -0.8735 -0.2612
 3639TIP3   OH232407   5.636   4.457   4.010  0.3024 -0.4912 -0.1420
 3639TIP3    H132408   5.634   4.362   4.015  0.2009 -0.4384  1.4009
 3639TIP3    H232409   5.568   4.486   4.071  1.1275  0.5733  0.3112
 3640TIP3   OH232410   3.944   6.691   0.415 -0.4245 -0.4759  0.3813
 3640TIP3    H132411   4.031   6.654   0.398  0.2777  1.6041 -0.8731
 3640TIP3    H232412   3.962   6.772   0.463 -1.7820 -0.5598  1.0786
 3641TIP3   OH232413   2.050   5.603   4.241  1.0779 -0.0022  0.4428
 3641TIP3    H132414   2.090   5.681   4.279  0.0742  0.5763  0.3512
 3641TIP3    H232415   2.041   5.542   4.314 -0.2097  0.8373  1.0232
 3642TIP3   OH232416   0.861   5.026  17.047  0.3839 -0.3979  0.0686
 3642TIP3    H132417   0.904   4.964  16.988  0.2060 -1.2439  0.8128
 3642TIP3    H232418   0.772   5.034  17.012 -0.0147 -1.6416  0.7623
 3643TIP3   OH232419   4.242   3.466  11.351 -0.3708  0.2141  0.3451
 3643TIP3    H132420   4.314   3.516  11.313 -0.1606  1.1095  1.8759
 3643TIP3    H232421   4.284   3.389  11.390 -0.3945  0.1373  0.2213
 3644TIP3   OH232422   2.563   4.502  13.806 -0.1880  0.7738  0.2345
 3644TIP3    H132423   2.582   4.594  13.791 -0.9510  0.7833 -0.7896
 3644TIP3    H232424   2.471   4.500  13.833 -0.7955  0.1751 -1.7107
 3645TIP3   OH232425   2.473   0.965   0.824  0.3443  0.0684  0.0556
 3645TIP3    H132426   2.517   0.921   0.896  1.2111 -0.7912 -0.9588
 3645TIP3    H232427   2.538   1.027   0.791  0.1616  0.0571 -0.3326
 3646TIP3   OH232428   3.734   3.972  11.095 -0.1910 -0.3545  0.7609
 3646TIP3    H132429   3.777   3.991  11.011 -0.6759 -2.9098 -0.1341
 3646TIP3    H232430   3.668   4.040  11.104 -0.8873 -0.6644 -1.5243
 3647TIP3   OH232431   3.066   1.364  14.141 -0.3594  0.3476 -0.0919
 3647TIP3    H132432   2.985   1.383  14.189 -0.5491  0.0392 -0.2862
 3647TIP3    H232433   3.112   1.301  14.196 -0.7867 -0.3525 -0.5190
 3648TIP3   OH232434   0.939   6.537   0.211  0.0480 -0.1962 -0.0685
 3648TIP3    H132435   0.993   6.475   0.161  0.1632  1.0603 -1.5990
 3648TIP3    H232436   0.885   6.580   0.144 -1.6353 -0.2045  1.2237
 3649TIP3   OH232437   2.607   1.254   3.718  0.3007  0.2230 -0.1873
 3649TIP3    H132438   2.693   1.295   3.707  0.5654 -0.1448  0.4913
 3649TIP3    H232439   2.621   1.162   3.695  0.1997  0.0588  0.4017
 3650TIP3   OH232440   6.446   0.228  12.308 -0.2749 -0.4485  0.2044
 3650TIP3    H132441   6.356   0.206  12.284  0.1849 -0.1577 -1.9234
 3650TIP3    H232442   6.468   0.303  12.254  1.5262 -1.0319  0.0757
 3651TIP3   OH232443   4.037   6.347  10.200 -0.2932 -0.4845 -0.2190
 3651TIP3    H132444   4.122   6.364  10.241 -0.8193  0.3546  0.5623
 3651TIP3    H232445   4.022   6.253  10.215 -1.1586  0.0256  3.0038
 3652TIP3   OH232446   1.414   6.488  14.711  0.1665  0.1529 -0.4346
 3652TIP3    H132447   1.376   6.572  14.737  1.4473  0.8040 -0.5887
 3652TIP3    H232448   1.444   6.449  14.794  1.4009  0.7926 -0.5581
 3653TIP3   OH232449   6.202   0.960   2.137 -0.0116  0.1715 -0.5565
 3653TIP3    H132450   6.290   0.963   2.100  0.6688  1.6789  1.0399
 3653TIP3    H232451   6.147   1.007   2.074  0.8844  1.6462 -0.2819
 3654TIP3   OH232452   5.317   6.384  14.243 -0.4879  0.2623 -0.0614
 3654TIP3    H132453   5.278   6.421  14.164 -0.9355  0.5161  0.2753
 3654TIP3    H232454   5.361   6.304  14.213 -1.8371 -0.3998 -0.3457
 3655TIP3   OH232455   0.444   6.759   2.059  0.7436 -0.3062  0.3459
 3655TIP3    H132456   0.534   6.731   2.070  1.3171  1.4574  0.3654
 3655TIP3    H232457   0.450   6.844   2.015 -0.7954  0.7762  2.0777
 3656TIP3   OH232458   1.017   2.356   1.254  0.2370 -0.1915 -0.1792
 3656TIP3    H132459   1.013   2.439   1.301  0.2280 -1.5497  2.3745
 3656TIP3    H232460   1.111   2.337   1.247  0.2095 -0.7738  0.8325
 3657TIP3   OH232461   6.422   0.711   2.068 -0.3510 -0.2785  0.4837
 3657TIP3    H132462   6.385   0.765   1.998  0.6638  0.3861  0.4413
 3657TIP3    H232463   6.347   0.684   2.121 -1.0764 -0.3727 -0.5663
 3658TIP3   OH232464   6.114   3.910  11.294  0.1103 -0.2421 -0.4491
 3658TIP3    H132465   6.203   3.888  11.266  0.1032 -0.2940 -0.4321
 3658TIP3    H232466   6.079   3.965  11.224  0.4470  0.4687 -0.0786
 3659TIP3   OH232467   6.732   3.395   1.804  0.1809  0.1625 -0.6796
 3659TIP3    H132468   6.663   3.386   1.869 -1.0471  0.0441 -1.9571
 3659TIP3    H232469   6.711   3.475   1.756  1.1529  0.3413 -0.8407
 3660TIP3   OH232470   2.163   1.932   1.976 -0.5571 -0.0685  0.0451
 3660TIP3    H132471   2.241   1.982   1.999 -0.6154 -0.1465  0.4089
 3660TIP3    H232472   2.106   1.938   2.053 -0.1954 -1.4240  0.4403
 3661TIP3   OH232473   1.491   4.904  15.816 -0.4783  0.0252  0.1665
 3661TIP3    H132474   1.493   4.817  15.776 -3.3548  0.0886 -0.3215
 3661TIP3    H232475   1.539   4.959  15.754  2.3086 -1.2947  0.9956
 3662TIP3   OH232476   5.000   6.001  13.873 -0.0160 -0.5038  0.0225
 3662TIP3    H132477   4.947   6.025  13.797  1.0116 -0.5184 -0.7205
 3662TIP3    H232478   4.966   6.056  13.944 -0.8096 -0.2929 -0.5029
 3663TIP3   OH232479   1.579   2.587   6.357  0.0303  0.1498 -0.4540
 3663TIP3    H132480   1.625   2.653   6.408  0.3442 -0.3738 -0.0477
 3663TIP3    H232481   1.492   2.625   6.340  0.1741  0.6193 -0.1498
 3664TIP3   OH232482   4.405   4.588  13.736  0.3364 -0.1415 -0.4075
 3664TIP3    H132483   4.460   4.551  13.805 -2.1900 -1.7875  0.8782
 3664TIP3    H232484   4.414   4.683  13.745  0.5977 -0.3348  1.7680
 3665TIP3   OH232485   4.194   0.619  13.069 -0.3174  0.0941 -0.0257
 3665TIP3    H132486   4.199   0.617  12.973 -2.0011 -3.1102 -0.1999
 3665TIP3    H232487   4.101   0.630  13.088  0.0072  0.8049  1.2818
 3666TIP3   OH232488   4.811   2.067  15.528 -0.1952 -0.4786 -0.3832
 3666TIP3    H132489   4.776   2.089  15.615 -0.0018 -1.2894 -0.0933
 3666TIP3    H232490   4.735   2.073  15.470 -1.3603 -4.0467  0.5271
 3667TIP3   OH232491   3.627   3.361   5.754  0.2497  0.2252  0.1648
 3667TIP3    H132492   3.638   3.439   5.808 -1.9193  0.4145  0.3923
 3667TIP3    H232493   3.553   3.314   5.793  0.7245 -1.3338 -0.6980
 3668TIP3   OH232494   2.118   3.483   1.159 -0.8140  0.2369 -0.0164
 3668TIP3    H132495   2.075   3.506   1.076 -1.7827 -1.4623 -0.0242
 3668TIP3    H232496   2.173   3.559   1.178  0.2662  0.2579 -2.7476
 3669TIP3   OH232497   1.591   3.714  10.881 -0.3691  0.1629  0.7458
 3669TIP3    H132498   1.547   3.641  10.837 -1.3822  1.9464 -1.4543
 3669TIP3    H232499   1.566   3.706  10.973 -2.0232 -1.1573  0.2303
 3670TIP3   OH232500   5.181   3.050   3.332 -0.2857  0.6372  0.2150
 3670TIP3    H132501   5.231   2.976   3.297 -0.4774  0.1439  0.9733
 3670TIP3    H232502   5.179   3.036   3.426 -1.0337  1.1707  0.2884
 3671TIP3   OH232503   1.926   1.698   5.580  0.6403 -0.7613 -0.5904
 3671TIP3    H132504   1.894   1.781   5.544 -1.7861 -1.4711 -0.2492
 3671TIP3    H232505   1.955   1.648   5.504 -2.8465 -1.5832 -1.5383
 3672TIP3   OH232506   6.069   0.324  11.105 -0.4412  0.7571  0.0567
 3672TIP3    H132507   5.981   0.290  11.086 -0.2750 -1.6008  2.8266
 3672TIP3    H232508   6.121   0.301  11.028 -1.4796 -1.1008 -0.1524
 3673TIP3   OH232509   2.264   2.958   1.038  0.1422  0.0122 -0.4061
 3673TIP3    H132510   2.272   3.049   1.068 -0.5400 -0.0715  0.0671
 3673TIP3    H232511   2.345   2.916   1.067  0.3241  0.3931 -0.3550
 3674TIP3   OH232512   3.548   4.200  11.038  0.7649 -0.9512 -0.0198
 3674TIP3    H132513   3.501   4.223  10.958  0.1631 -1.4300  0.1927
 3674TIP3    H232514   3.613   4.270  11.049  0.6481 -0.7260 -0.7560
 3675TIP3   OH232515   1.839   1.284   2.083 -0.2242 -0.2219  0.3620
 3675TIP3    H132516   1.789   1.321   2.156  3.3697  2.0444  1.9765
 3675TIP3    H232517   1.861   1.359   2.028  0.5407 -1.2546 -0.8106
 3676TIP3   OH232518   2.385   3.135   1.757 -0.2278  0.1578 -0.0608
 3676TIP3    H132519   2.395   3.087   1.839 -0.4064  1.1738  0.5700
 3676TIP3    H232520   2.290   3.145   1.747 -0.1914  0.3721 -0.1972
 3677TIP3   OH232521   6.177   2.483  11.466 -0.3951  0.3004 -0.3856
 3677TIP3    H132522   6.187   2.573  11.497  0.2184  0.6822 -1.6247
 3677TIP3    H232523   6.103   2.448  11.516 -0.7445  1.5438 -0.0063
 3678TIP3   OH232524   0.111   2.195  11.421 -0.1475 -0.3151  0.1275
 3678TIP3    H132525   0.038   2.249  11.392  1.2014  0.8612 -1.2913
 3678TIP3    H232526   0.122   2.131  11.351 -0.7183 -1.4342  1.0381
 3679TIP3   OH232527   5.490   0.099   3.236 -0.1100 -0.4024 -0.4710
 3679TIP3    H132528   5.507   0.075   3.327 -1.2821  0.6947  0.0645
 3679TIP3    H232529   5.472   0.193   3.239 -1.2673 -0.5569 -1.6703
 3680TIP3   OH232530   3.823   3.495  13.773 -0.3663  0.1113  0.0847
 3680TIP3    H132531   3.771   3.563  13.731  1.9985  1.8827 -0.1863
 3680TIP3    H232532   3.771   3.415  13.764 -1.9330  1.2926 -2.2101
 3681TIP3   OH232533   1.045   4.005  16.706  0.1241 -1.1579  0.1717
 3681TIP3    H132534   0.976   3.940  16.722  0.3981 -0.9873  2.3883
 3681TIP3    H232535   1.083   3.979  16.622  0.1685 -3.8514  0.9000
 3682TIP3   OH232536   0.246   1.657   3.438 -0.1308 -0.1535  0.5816
 3682TIP3    H132537   0.187   1.714   3.487  0.1605  1.7738 -1.1835
 3682TIP3    H232538   0.313   1.632   3.501  0.8505  3.1436  1.0280
 3683TIP3   OH232539   4.175   1.092   0.869  0.9538  0.1978 -0.0416
 3683TIP3    H132540   4.140   1.019   0.818  1.8146 -1.1980  1.2671
 3683TIP3    H232541   4.110   1.105   0.939  1.0202  0.4116 -0.0183
 3684TIP3   OH232542   6.288   3.269   3.851  0.1604 -0.6680 -0.3990
 3684TIP3    H132543   6.376   3.269   3.813 -0.7743  0.0316 -2.7837
 3684TIP3    H232544   6.245   3.344   3.810 -1.8130 -1.5031  0.0442
 3685TIP3   OH232545   3.517   1.894   2.301 -0.6381 -0.5342  0.0858
 3685TIP3    H132546   3.566   1.951   2.360 -1.2828 -1.8021  1.9120
 3685TIP3    H232547   3.429   1.890   2.339 -2.3460  1.7651 -3.1483
 3686TIP3   OH232548   5.503   5.390  17.024 -0.1612 -0.2006  0.2175
 3686TIP3    H132549   5.503   5.298  17.053  0.2755 -0.2867 -0.0444
 3686TIP3    H232550   5.516   5.385  16.930  1.2506  0.1750  0.3698
 3687TIP3   OH232551   2.563   1.806  12.313  0.4272  0.4606 -0.0722
 3687TIP3    H132552   2.562   1.902  12.305  1.1403  0.3236 -2.7283
 3687TIP3    H232553   2.599   1.790  12.400  2.1164  2.6184 -0.2672
 3688TIP3   OH232554   2.484   5.414   1.938 -0.4780 -0.7706 -0.4522
 3688TIP3    H132555   2.421   5.478   1.904  0.6811  1.4618  1.2842
 3688TIP3    H232556   2.570   5.448   1.910  0.2592 -0.7723  1.6063
 3689TIP3   OH232557   5.518   1.066   0.285 -0.6179 -0.0555 -0.3333
 3689TIP3    H132558   5.482   0.980   0.263 -0.4201 -0.6138  1.3596
 3689TIP3    H232559   5.491   1.123   0.213 -0.4175 -1.6131 -1.7038
 3690TIP3   OH232560   4.614   4.203   1.789  0.1886  0.3231  0.5742
 3690TIP3    H132561   4.530   4.205   1.835 -0.7035  0.9754 -1.0098
 3690TIP3    H232562   4.597   4.152   1.710  0.9417  1.5047 -0.3759
 3691TIP3   OH232563   3.612   5.008   5.793  0.4663 -0.3767 -0.4787
 3691TIP3    H132564   3.653   4.947   5.854 -0.7133 -0.4787  0.2417
 3691TIP3    H232565   3.605   5.090   5.841 -0.4980 -0.4649 -0.4450
 3692TIP3   OH232566   4.110   1.322  12.799 -0.3003  0.5098 -0.0303
 3692TIP3    H132567   4.102   1.413  12.771 -0.6729  0.3743 -0.3817
 3692TIP3    H232568   4.171   1.282  12.737 -0.4720  0.4162 -0.1409
 3693TIP3   OH232569   4.328   1.101  17.082 -0.1379 -1.4676 -0.4706
 3693TIP3    H132570   4.280   1.162  17.026 -0.3806 -1.8355 -0.6681
 3693TIP3    H232571   4.271   1.024  17.087  0.2801 -1.7744 -0.4335
 3694TIP3   OH232572   4.235   3.257   1.278  0.5623  0.0847  0.6072
 3694TIP3    H132573   4.272   3.176   1.242  0.9454 -0.2002  1.6140
 3694TIP3    H232574   4.216   3.237   1.369  0.4048  1.0496  0.8022
 3695TIP3   OH232575   2.268   3.889  14.016  0.9581 -0.0715 -0.0876
 3695TIP3    H132576   2.198   3.924  13.960  1.4292 -0.0685 -0.6958
 3695TIP3    H232577   2.285   3.959  14.079  1.0607  0.3177 -0.5366
 3696TIP3   OH232578   6.703   0.739   4.900 -0.1783 -0.2563  0.0322
 3696TIP3    H132579   6.703   0.768   4.992  0.0691 -0.6717  0.1638
 3696TIP3    H232580   6.723   0.818   4.850 -1.7122  0.2870  0.2311
 3697TIP3   OH232581   2.982   3.758  15.070 -0.6694 -0.0049 -0.4175
 3697TIP3    H132582   2.977   3.766  14.975 -1.0477  0.6455 -0.3519
 3697TIP3    H232583   3.075   3.766  15.090 -0.3840 -1.9169 -0.8650
 3698TIP3   OH232584   1.088   4.326  16.596 -0.3026  0.4173  0.0512
 3698TIP3    H132585   1.152   4.347  16.528  0.5357  0.3418  0.7896
 3698TIP3    H232586   1.099   4.233  16.612 -0.6152  0.3985  0.1668
 3699TIP3   OH232587   0.176   3.743   0.990 -0.4861  0.1408  0.4491
 3699TIP3    H132588   0.092   3.787   1.004 -0.5282  0.9521 -1.9234
 3699TIP3    H232589   0.238   3.793   1.044 -0.9168  1.8418 -0.5610
 3700TIP3   OH232590   4.984   3.715   3.174  0.2759 -0.3574 -0.6929
 3700TIP3    H132591   5.054   3.690   3.114  1.0167 -1.1168  0.4256
 3700TIP3    H232592   5.023   3.703   3.261 -0.8732  0.3463 -0.0597
 3701TIP3   OH232593   4.849   1.760   0.579 -0.4610 -0.6363  0.0286
 3701TIP3    H132594   4.832   1.736   0.670  0.4691  1.5771  0.8553
 3701TIP3    H232595   4.932   1.718   0.557  1.2309  1.7068  1.4991
 3702TIP3   OH232596   3.177   4.696   4.288  0.3103 -0.0520  0.7363
 3702TIP3    H132597   3.135   4.779   4.311  0.7163  0.9113 -1.7421
 3702TIP3    H232598   3.118   4.656   4.224  1.6004 -0.1852 -0.4106
 3703TIP3   OH232599   2.008   5.200  12.839 -0.5639 -0.6898 -0.0943
 3703TIP3    H132600   1.971   5.151  12.913 -0.8343  0.0235  0.2460
 3703TIP3    H232601   2.012   5.135  12.768 -0.5843 -1.3018  0.4509
 3704TIP3   OH232602   5.416   4.865  14.229  0.2413  0.2047 -0.1842
 3704TIP3    H132603   5.408   4.892  14.320  0.7564  1.3773 -0.4685
 3704TIP3    H232604   5.329   4.832  14.206 -0.4201  1.6001  0.2149
 3705TIP3   OH232605   1.866   2.267  14.276  0.2765 -0.5531  0.1028
 3705TIP3    H132606   1.817   2.316  14.210  2.2088 -0.8618 -1.6694
 3705TIP3    H232607   1.946   2.319  14.290  1.3280 -2.0133 -0.1636
 3706TIP3   OH232608   6.225   1.663   4.457 -0.2217 -0.3791 -0.7101
 3706TIP3    H132609   6.143   1.697   4.495  0.2353  0.1438 -0.1729
 3706TIP3    H232610   6.245   1.723   4.386 -0.1368 -0.3134 -0.6316
 3707TIP3   OH232611   4.841   0.228   3.255 -0.2189 -0.1136 -0.6306
 3707TIP3    H132612   4.881   0.186   3.179  1.4817  0.1583  0.0767
 3707TIP3    H232613   4.914   0.245   3.315 -1.2114  1.5340  0.1933
 3708TIP3   OH232614   6.264   0.645   0.311  0.2154  0.0100  0.2068
 3708TIP3    H132615   6.259   0.558   0.351  0.1374 -0.2854 -0.4316
 3708TIP3    H232616   6.181   0.654   0.263  0.5060  0.1588 -0.2777
 3709TIP3   OH232617   3.999   6.135  11.161 -0.2749  0.0657 -0.4157
 3709TIP3    H132618   4.068   6.167  11.219 -0.8438 -0.3889  0.5462
 3709TIP3    H232619   3.922   6.127  11.218 -0.8248 -0.4753 -1.2182
 3710TIP3   OH232620   6.449   4.193   2.076  0.5738  0.1357  0.3898
 3710TIP3    H132621   6.457   4.266   2.137  0.2920  0.9680 -0.5502
 3710TIP3    H232622   6.492   4.120   2.121 -0.5785  0.4092  2.0572
 3711TIP3   OH232623   0.416   2.727   4.653 -0.8399  0.0222  0.2299
 3711TIP3    H132624   0.379   2.721   4.565  0.5463 -0.5456 -0.3518
 3711TIP3    H232625   0.468   2.646   4.663  0.3471  0.8328  0.9120
 3712TIP3   OH232626   5.777   2.528  14.052 -0.3156 -0.3848  0.3997
 3712TIP3    H132627   5.714   2.479  13.999  0.0811 -0.1796 -0.2848
 3712TIP3    H232628   5.826   2.460  14.098 -0.4765 -0.5876  0.2752
 3713TIP3   OH232629   6.431   4.780   2.320 -0.0859  0.1533  0.1619
 3713TIP3    H132630   6.473   4.848   2.373  0.5275  0.1414 -0.3108
 3713TIP3    H232631   6.500   4.718   2.299 -0.1681  0.4771 -1.1758
 3714TIP3   OH232632   6.159   3.835  13.035  0.6339  0.0862  0.2692
 3714TIP3    H132633   6.141   3.907  12.975  1.0029 -0.4322 -0.4761
 3714TIP3    H232634   6.187   3.877  13.116  0.9404  0.7780 -0.1924
 3715TIP3   OH232635   2.280   5.759   2.137 -0.1189  0.2578  0.3496
 3715TIP3    H132636   2.255   5.703   2.064 -0.1210 -1.0768  1.3294
 3715TIP3    H232637   2.337   5.703   2.191 -0.5783  0.9983  1.6529
 3716TIP3   OH232638   2.699   5.717   0.692 -0.2865  0.4442  0.3262
 3716TIP3    H132639   2.640   5.687   0.761 -0.5921  2.8211  1.1944
 3716TIP3    H232640   2.692   5.651   0.623 -2.3324 -0.4237  1.3077
 3717TIP3   OH232641   5.508   3.288   3.589 -0.6522 -0.1049 -0.0554
 3717TIP3    H132642   5.420   3.283   3.626 -0.5380  0.5137  0.3145
 3717TIP3    H232643   5.556   3.346   3.648 -0.2759  0.3778 -0.8160
 3718TIP3   OH232644   2.837   3.056  11.303 -0.0018 -0.4923 -0.3214
 3718TIP3    H132645   2.830   2.965  11.332 -0.2313 -0.0308  1.1141
 3718TIP3    H232646   2.778   3.062  11.228  0.1251 -1.5565 -0.5247
 3719TIP3   OH232647   6.510   5.279  11.317  0.2915  0.2330 -0.2666
 3719TIP3    H132648   6.584   5.297  11.259 -2.0890  1.4378 -3.2272
 3719TIP3    H232649   6.521   5.342  11.389  1.3515  1.4864 -1.4538
 3720TIP3   OH232650   4.315   0.748   1.785  1.0252  0.1437 -0.5501
 3720TIP3    H132651   4.250   0.778   1.849  1.0270 -1.6959  0.3965
 3720TIP3    H232652   4.285   0.781   1.701 -1.1632 -0.6682 -0.1348
 3721TIP3   OH232653   2.578   3.204   4.588 -0.4522 -0.1535  0.4180
 3721TIP3    H132654   2.514   3.146   4.628 -0.1172  0.2677  1.5920
 3721TIP3    H232655   2.526   3.264   4.535 -1.1387  0.7464  2.0543
 3722TIP3   OH232656   5.675   5.335  12.172 -0.5712 -0.1740 -0.1023
 3722TIP3    H132657   5.710   5.301  12.090 -1.4609  0.4825 -0.7784
 3722TIP3    H232658   5.581   5.321  12.166 -0.8293  1.2927  0.1060
 3723TIP3   OH232659   0.327   4.770   4.680  0.2698  0.2754  0.3892
 3723TIP3    H132660   0.258   4.774   4.613 -0.1960  1.8864  0.9207
 3723TIP3    H232661   0.322   4.680   4.714 -0.4046 -0.1457 -0.7793
 3724TIP3   OH232662   3.899   2.186   1.645 -0.6483  0.0921 -0.1926
 3724TIP3    H132663   3.866   2.224   1.564  0.1551  0.7364 -0.2357
 3724TIP3    H232664   3.836   2.117   1.667 -2.0147  1.2584 -0.2636
 3725TIP3   OH232665   5.271   3.759   0.003 -0.1180 -0.1557  0.3679
 3725TIP3    H132666   5.228   3.751  -0.082 -0.0545 -3.3777  0.4964
 3725TIP3    H232667   5.350   3.809  -0.015  0.3011 -1.4318 -1.7001
 3726TIP3   OH232668   4.704   1.970   5.308 -0.1170  0.0358  0.3653
 3726TIP3    H132669   4.774   1.989   5.245  0.4645  0.0886  1.0188
 3726TIP3    H232670   4.629   1.948   5.253  0.2847  0.4013 -0.3586
 3727TIP3   OH232671   2.612   0.884   5.707  0.2249  0.1768  0.3087
 3727TIP3    H132672   2.644   0.973   5.717  0.8451  0.0528 -0.4260
 3727TIP3    H232673   2.560   0.867   5.785  1.6535  0.5244  1.3731
 3728TIP3   OH232674   0.533   1.555  12.946  0.0789 -0.5212 -0.2738
 3728TIP3    H132675   0.445   1.519  12.958 -0.7401  0.8132 -1.9302
 3728TIP3    H232676   0.563   1.517  12.863  0.6683 -0.1847 -0.2210
 3729TIP3   OH232677   3.309   6.099  16.276 -0.4606 -0.2964 -0.4727
 3729TIP3    H132678   3.402   6.110  16.257 -0.7412  1.4210 -1.0510
 3729TIP3    H232679   3.265   6.123  16.195 -1.4179 -0.8228 -0.1211
 3730TIP3   OH232680   0.256   4.292  14.138 -0.2520  0.5542 -0.1572
 3730TIP3    H132681   0.253   4.199  14.117 -0.5394  0.2959  0.9694
 3730TIP3    H232682   0.269   4.295  14.233 -1.5363  1.6472  0.0096
 3731TIP3   OH232683   4.961   4.341  16.818  0.6898 -0.4014 -0.0130
 3731TIP3    H132684   4.944   4.379  16.905 -0.5040  0.0570 -0.4225
 3731TIP3    H232685   4.998   4.254  16.837 -1.7395 -1.3055  1.0235
 3732TIP3   OH232686   4.507   0.967   1.777 -0.1086 -0.0707  0.4439
 3732TIP3    H132687   4.475   0.912   1.705  0.1013  0.4997 -0.0885
 3732TIP3    H232688   4.488   0.916   1.855 -1.3124 -0.2345  0.0625
 3733TIP3   OH232689   4.633   4.512   3.233 -0.3686  0.1950 -0.2340
 3733TIP3    H132690   4.663   4.589   3.185  2.5095 -1.6629 -1.6309
 3733TIP3    H232691   4.618   4.445   3.166 -1.3463 -0.9656  1.0647
 3734TIP3   OH232692   1.547   0.266  13.699  0.5144  0.0341  0.3323
 3734TIP3    H132693   1.533   0.254  13.793  2.1955 -1.2299  0.4674
 3734TIP3    H232694   1.517   0.355  13.681 -1.8449 -0.4291  1.6232
 3735TIP3   OH232695   1.863   0.344  12.853  0.4429  0.1377  0.3006
 3735TIP3    H132696   1.879   0.393  12.772 -0.3306  1.3273  0.8348
 3735TIP3    H232697   1.878   0.253  12.829  3.0266  0.6803 -0.4802
 3736TIP3   OH232698   4.705   6.210  13.700  0.3264  0.2014 -0.4970
 3736TIP3    H132699   4.675   6.154  13.628 -0.7216  0.5458 -0.3436
 3736TIP3    H232700   4.764   6.273  13.659  0.9755 -0.5650 -0.7843
 3737TIP3   OH232701   0.300   3.664   3.840 -0.3462  0.3477 -0.6166
 3737TIP3    H132702   0.357   3.741   3.838  4.0355 -2.5605 -1.4083
 3737TIP3    H232703   0.266   3.657   3.751 -0.0691  0.8817 -0.7679
 3738TIP3   OH232704   5.653   0.688   5.206  0.1601  0.0500  0.2335
 3738TIP3    H132705   5.589   0.649   5.266  0.2703  1.3472  1.2310
 3738TIP3    H232706   5.614   0.771   5.180  0.6055 -0.0102 -0.6644
 3739TIP3   OH232707   6.597   4.880  14.151  0.2067 -0.0163  0.4087
 3739TIP3    H132708   6.551   4.955  14.189  0.6395  1.0943 -1.1721
 3739TIP3    H232709   6.683   4.881  14.194 -0.3199 -0.5907  1.5327
 3740TIP3   OH232710   2.757   4.485  11.370  0.2723 -0.4926 -0.2627
 3740TIP3    H132711   2.790   4.495  11.460  0.0596 -2.9178  0.1544
 3740TIP3    H232712   2.668   4.452  11.381  0.3543 -1.1179 -1.3603
 3741TIP3   OH232713   1.790   1.323   2.348 -0.0742 -0.3533  0.4630
 3741TIP3    H132714   1.780   1.399   2.406 -0.8541 -0.0923  0.0012
 3741TIP3    H232715   1.880   1.331   2.314  0.0500  0.0370  0.8750
 3742TIP3   OH232716   0.601   5.210   2.552 -0.2760  0.9246  0.1139
 3742TIP3    H132717   0.665   5.148   2.517  0.6173  1.9111 -0.0771
 3742TIP3    H232718   0.573   5.262   2.477 -1.2913  0.5233  0.2044
 3743TIP3   OH232719   6.250   3.921  11.917 -0.3506 -0.6379 -0.3053
 3743TIP3    H132720   6.262   3.974  11.838  0.0073  0.8229  0.6774
 3743TIP3    H232721   6.155   3.913  11.927 -0.4216  0.2311 -0.2241
 3744TIP3   OH232722   2.729   2.316  13.648  0.2288 -0.0868  0.7364
 3744TIP3    H132723   2.747   2.270  13.730  1.1225 -0.4901  0.3300
 3744TIP3    H232724   2.803   2.376  13.637  1.1883 -1.4592 -0.7598
 3745TIP3   OH232725   2.973   2.694   0.658 -0.1803 -0.2656  0.5631
 3745TIP3    H132726   2.891   2.674   0.613  1.1937 -1.8176 -1.4365
 3745TIP3    H232727   2.987   2.619   0.715  0.1938 -0.3551  0.3549
 3746TIP3   OH232728   1.378   6.636  16.486 -0.4513  0.3336 -0.7463
 3746TIP3    H132729   1.424   6.716  16.511 -0.8378  0.2848  0.1457
 3746TIP3    H232730   1.442   6.587  16.434  0.4265  0.3959  0.2468
 3747TIP3   OH232731   6.426   2.310   1.535 -0.0166 -0.6857  0.1923
 3747TIP3    H132732   6.419   2.359   1.453 -2.1446 -0.6703  0.3437
 3747TIP3    H232733   6.342   2.266   1.545  0.5844 -1.5563  1.8477
 3748TIP3   OH232734   6.119   2.901   0.922  0.1113  0.4273  0.2032
 3748TIP3    H132735   6.182   2.929   0.855  1.0296  0.2099  0.9507
 3748TIP3    H232736   6.172   2.856   0.988 -0.7214  0.8877  1.2249
 3749TIP3   OH232737   5.665   4.376  10.780  0.2369  0.0584 -0.3731
 3749TIP3    H132738   5.671   4.287  10.744  3.1255  0.4243 -1.0346
 3749TIP3    H232739   5.673   4.433  10.704  0.2808  0.8742  0.2352
 3750TIP3   OH232740   6.664   3.599   1.076 -0.2676 -0.3560 -0.0743
 3750TIP3    H132741   6.742   3.578   1.024  0.0451  0.5909  0.0063
 3750TIP3    H232742   6.591   3.575   1.019  0.0695 -1.1818 -0.1787
 3751TIP3   OH232743   4.177   3.443   5.364 -0.1784 -0.2109  0.7910
 3751TIP3    H132744   4.265   3.470   5.388 -0.4568 -0.4689  2.1965
 3751TIP3    H232745   4.188   3.354   5.331  0.0448 -0.4101  1.3817
 3752TIP3   OH232746   6.137   1.706  15.220 -0.3040 -0.0055  0.7087
 3752TIP3    H132747   6.173   1.789  15.189 -2.1128  1.0103  1.1835
 3752TIP3    H232748   6.082   1.730  15.294 -1.7660 -1.4922  0.1530
 3753TIP3   OH232749   4.249   0.461  12.549 -0.1506 -0.0143 -0.3196
 3753TIP3    H132750   4.258   0.523  12.621 -0.5250 -0.0721 -0.2231
 3753TIP3    H232751   4.269   0.376  12.589  1.7131  0.1680 -0.7415
 3754TIP3   OH232752   5.400   2.336   0.546  0.8666  0.8593  0.2164
 3754TIP3    H132753   5.410   2.257   0.599  2.8235  1.5392  0.9412
 3754TIP3    H232754   5.362   2.305   0.464 -1.6338 -0.3167  1.6853
 3755TIP3   OH232755   1.661   2.059   2.858 -0.5533 -0.5446  0.1871
 3755TIP3    H132756   1.689   2.068   2.949  0.5205  0.9310 -0.2626
 3755TIP3    H232757   1.601   2.132   2.843 -1.4007 -1.2673 -0.0700
 3756TIP3   OH232758   5.971   0.464  14.918  0.1654  0.1955  0.4894
 3756TIP3    H132759   5.906   0.534  14.925 -0.5584 -0.4797  0.6231
 3756TIP3    H232760   6.019   0.484  14.837  0.2887  1.1020  0.7744
 3757TIP3   OH232761   5.666   2.309   5.003 -0.0440 -0.6376 -0.0703
 3757TIP3    H132762   5.621   2.254   5.067  0.6824 -1.1181  0.0323
 3757TIP3    H232763   5.759   2.292   5.017  0.1301 -1.4164 -1.8116
 3758TIP3   OH232764   1.620   4.665  16.753 -0.2925 -0.3494  0.4935
 3758TIP3    H132765   1.691   4.603  16.771  0.5973  1.0480  2.1797
 3758TIP3    H232766   1.549   4.611  16.718  0.6953 -2.1933  1.1873
 3759TIP3   OH232767   3.730   1.031  15.371  0.2104 -0.3323  0.4295
 3759TIP3    H132768   3.700   1.077  15.293 -1.0979 -1.0403  0.4809
 3759TIP3    H232769   3.815   1.070  15.391 -1.9147  4.1477  2.1466
 3760TIP3   OH232770   5.676   5.177   1.165 -0.3644  0.0881  0.1598
 3760TIP3    H132771   5.668   5.156   1.258 -1.8301 -1.1746 -0.2100
 3760TIP3    H232772   5.681   5.093   1.121 -1.1764  0.6126 -1.0045
 3761TIP3   OH232773   0.496   2.179   3.476 -0.0638 -0.4072  0.5784
 3761TIP3    H132774   0.453   2.095   3.492  0.4736 -1.2134 -1.7492
 3761TIP3    H232775   0.475   2.232   3.552 -1.4916 -2.2248  1.5277
 3762TIP3   OH232776   0.986   0.430   6.203  0.1964 -0.0797  0.0820
 3762TIP3    H132777   1.004   0.425   6.297 -1.7645 -1.1448  0.4445
 3762TIP3    H232778   1.050   0.371   6.163 -1.5152 -2.9158  1.2162
 3763TIP3   OH232779   1.458   6.206   1.990  0.0521  0.2308 -0.1436
 3763TIP3    H132780   1.370   6.212   2.028 -0.8218 -0.6409 -1.9020
 3763TIP3    H232781   1.464   6.282   1.933 -0.2155 -0.5313 -1.2276
 3764TIP3   OH232782   4.211   0.652  16.798  0.1825  0.1895  0.0857
 3764TIP3    H132783   4.117   0.655  16.778  0.1534 -1.4078 -0.1512
 3764TIP3    H232784   4.250   0.714  16.738 -0.6392  0.2934 -0.3572
 3765TIP3   OH232785   6.334   4.941   3.938  0.0032  0.3720  0.1791
 3765TIP3    H132786   6.317   4.859   3.984 -1.5260 -0.2145 -1.3499
 3765TIP3    H232787   6.327   5.008   4.007 -2.2666 -0.4706  0.8538
 3766TIP3   OH232788   3.364   2.219  15.529 -0.0522  0.0887  0.4477
 3766TIP3    H132789   3.443   2.208  15.475 -1.3269  2.6189 -2.2200
 3766TIP3    H232790   3.317   2.136  15.519  1.1681 -0.6045  0.1718
 3767TIP3   OH232791   4.476   6.038  12.129  0.3010  0.3424 -0.0336
 3767TIP3    H132792   4.488   6.010  12.220  0.2381  0.4525  0.0092
 3767TIP3    H232793   4.542   5.988  12.080 -2.0967 -2.6167 -0.5172
 3768TIP3   OH232794   4.603   4.866  14.417 -0.1132 -0.8452  0.3142
 3768TIP3    H132795   4.602   4.829  14.505  0.6716 -1.6791 -0.0020
 3768TIP3    H232796   4.692   4.848  14.385  0.0730  0.7043 -0.1330
 3769TIP3   OH232797   0.534   2.532  15.032 -0.1172  0.0249 -0.3433
 3769TIP3    H132798   0.604   2.470  15.054 -0.8093 -0.6651 -0.0387
 3769TIP3    H232799   0.454   2.490  15.064 -0.9819 -0.3133 -2.7496
 3770TIP3   OH232800   1.696   2.733   1.589  0.2373 -0.0131  0.1108
 3770TIP3    H132801   1.686   2.638   1.599  3.1530 -0.6587 -1.8105
 3770TIP3    H232802   1.725   2.763   1.675  1.3063 -1.2657  0.2221
 3771TIP3   OH232803   0.367   2.048  11.709 -0.0531 -0.0570  0.3877
 3771TIP3    H132804   0.289   2.085  11.750 -0.3248 -0.6285  0.3982
 3771TIP3    H232805   0.391   1.974  11.765 -1.3624 -1.8456 -1.2857
 3772TIP3   OH232806   1.679   5.565  12.040 -0.2217  0.4158 -0.0708
 3772TIP3    H132807   1.713   5.647  12.003 -0.4738  0.6371  0.1899
 3772TIP3    H232808   1.756   5.523  12.080  0.1657 -0.0668 -1.2691
 3773TIP3   OH232809   2.599   4.398   0.833 -0.1976 -0.0109 -1.1649
 3773TIP3    H132810   2.673   4.454   0.812  0.3260  0.7438  2.1282
 3773TIP3    H232811   2.636   4.310   0.838  0.2599  0.1980 -0.7136
 3774TIP3   OH232812   0.663   0.597   1.561 -0.1865 -0.1451  0.0182
 3774TIP3    H132813   0.576   0.618   1.594  0.2316  1.8815 -0.0599
 3774TIP3    H232814   0.697   0.533   1.624 -1.1368  0.2059  0.9274
 3775TIP3   OH232815   5.659   5.923   5.491  0.0905 -0.7141 -0.1477
 3775TIP3    H132816   5.684   5.835   5.464 -0.1220 -0.5164 -1.0050
 3775TIP3    H232817   5.725   5.980   5.451  0.0332 -0.4540  0.1257
 3776TIP3   OH232818   3.225   2.207   3.382  0.4184  0.6702 -0.1670
 3776TIP3    H132819   3.268   2.193   3.297 -0.3187 -3.9577 -0.0332
 3776TIP3    H232820   3.297   2.207   3.445  0.7187  0.3686 -0.5063
 3777TIP3   OH232821   0.405   3.077   4.837 -0.0782  0.3560  1.1505
 3777TIP3    H132822   0.448   3.055   4.754  1.1487  1.9593  1.3036
 3777TIP3    H232823   0.312   3.065   4.820  0.2792 -1.6083  0.2749
 3778TIP3   OH232824   4.619   5.449  13.079 -0.0697 -0.3405  0.4106
 3778TIP3    H132825   4.544   5.487  13.033  0.4523  1.2198  0.7879
 3778TIP3    H232826   4.593   5.359  13.096 -0.7461 -0.6553 -1.9123
 3779TIP3   OH232827   3.239   6.696  15.602 -0.7650  0.3770  0.0217
 3779TIP3    H132828   3.268   6.716  15.691 -0.1707  1.0820 -0.3224
 3779TIP3    H232829   3.195   6.611  15.610  2.4991 -1.4624  0.3739
 3780TIP3   OH232830   5.770   5.562  11.465 -0.3922 -0.0725 -0.1193
 3780TIP3    H132831   5.735   5.562  11.376 -2.5807  2.4865  0.6221
 3780TIP3    H232832   5.782   5.654  11.487  3.9471 -0.6593  0.9449
 3781TIP3   OH232833   4.973   1.522   2.045  0.3385  0.2538 -0.2556
 3781TIP3    H132834   5.044   1.508   1.982 -0.7259 -0.3205 -1.3627
 3781TIP3    H232835   4.944   1.612   2.028 -1.5966 -0.6846 -2.3944
 3782TIP3   OH232836   4.217   0.325   0.712 -0.1951  0.3973  0.3992
 3782TIP3    H132837   4.274   0.249   0.714  1.9873  1.9588  1.2433
 3782TIP3    H232838   4.181   0.330   0.801 -2.9156 -1.3777 -0.4795
 3783TIP3   OH232839   1.858   3.395   2.893 -0.6744 -0.2667  0.5792
 3783TIP3    H132840   1.906   3.315   2.915  0.0231 -0.3785 -1.1827
 3783TIP3    H232841   1.871   3.405   2.799  1.0610  3.0873  1.0602
 3784TIP3   OH232842   0.811   5.060   2.457  0.0615 -0.5995 -0.0466
 3784TIP3    H132843   0.896   5.059   2.502  0.4213 -0.3886 -0.7085
 3784TIP3    H232844   0.800   4.972   2.423  0.1574 -0.5424 -0.2250
 3785TIP3   OH232845   2.806   5.174   1.419 -0.0477 -0.4842 -0.1961
 3785TIP3    H132846   2.765   5.101   1.373 -1.8632  0.5026 -0.2569
 3785TIP3    H232847   2.796   5.153   1.512 -0.9830 -0.1102 -0.2078
 3786TIP3   OH232848   2.248   3.952   0.565 -0.2975  0.4880  0.5169
 3786TIP3    H132849   2.189   3.982   0.634 -2.5218  1.8515 -1.8210
 3786TIP3    H232850   2.322   4.012   0.569 -0.8266  1.1101  1.1525
 3787TIP3   OH232851   5.641   2.748   0.268  0.0352  0.3220  0.1847
 3787TIP3    H132852   5.580   2.776   0.199  0.2596  1.8789  0.5812
 3787TIP3    H232853   5.592   2.683   0.319  0.2351 -1.6987 -2.0368
 3788TIP3   OH232854   3.334   3.839  15.367  0.0051 -0.5046  0.0629
 3788TIP3    H132855   3.354   3.847  15.274  0.6871  0.9069  0.3093
 3788TIP3    H232856   3.315   3.746  15.379  0.5834 -0.8348 -1.3473
 3789TIP3   OH232857   3.299   6.364  12.669 -0.6628  0.1335 -0.2620
 3789TIP3    H132858   3.221   6.397  12.624 -0.2841  1.3925 -0.0191
 3789TIP3    H232859   3.264   6.310  12.740 -1.2792 -2.5340 -2.4019
 3790TIP3   OH232860   1.219   6.521   0.974 -0.1828  0.2568  0.7349
 3790TIP3    H132861   1.260   6.441   1.006 -0.4261  0.5435  1.7880
 3790TIP3    H232862   1.143   6.492   0.924  0.1504 -0.1877  0.4788
 3791TIP3   OH232863   5.949   4.673   1.671  0.0595  0.2375 -0.0586
 3791TIP3    H132864   5.910   4.680   1.584  1.1159  1.7131 -0.4639
 3791TIP3    H232865   5.896   4.608   1.716 -1.1160  0.1563 -1.4764
 3792TIP3   OH232866   2.333   5.942   5.302  0.1748 -0.3289  0.1261
 3792TIP3    H132867   2.266   5.903   5.358 -1.8791  0.8960 -1.3347
 3792TIP3    H232868   2.318   5.904   5.215  1.4445 -0.0998 -0.2166
 3793TIP3   OH232869   5.034   2.760  13.416  0.2426  0.2896  0.2461
 3793TIP3    H132870   4.955   2.734  13.368 -1.1194  1.6693  1.6337
 3793TIP3    H232871   5.028   2.711  13.498  0.5154  0.8599  0.6054
 3794TIP3   OH232872   4.797   5.347  11.976  0.4282 -0.0952  0.6569
 3794TIP3    H132873   4.887   5.370  11.998  1.0397  1.5763 -2.8856
 3794TIP3    H232874   4.760   5.428  11.941 -1.6617 -1.3547 -0.2198
 3795TIP3   OH232875   1.196   4.419   0.855  0.4622 -0.1455 -0.0202
 3795TIP3    H132876   1.248   4.471   0.793  1.4408 -0.8025  0.2225
 3795TIP3    H232877   1.236   4.332   0.852 -1.6031 -1.1312 -0.9676
 3796TIP3   OH232878   1.451   4.532   1.107  0.1127  0.7153 -0.1598
 3796TIP3    H132879   1.421   4.443   1.124  0.9456 -0.0309 -2.1746
 3796TIP3    H232880   1.388   4.589   1.150 -0.2331 -0.8515  1.4729
 3797TIP3   OH232881   2.473   6.477  13.656 -0.3891  0.4642  1.0688
 3797TIP3    H132882   2.514   6.468  13.742  0.5285 -1.5936  0.4873
 3797TIP3    H232883   2.396   6.420  13.660 -0.4041  0.4442  0.5728
 3798TIP3   OH232884   5.528   3.454   2.743  0.1369 -0.2954  0.3025
 3798TIP3    H132885   5.466   3.518   2.710  1.1733  0.3428 -0.4531
 3798TIP3    H232886   5.612   3.500   2.746  0.9259 -1.6244 -0.3358
 3799TIP3   OH232887   0.660   4.485  10.825  0.4870  0.6614 -0.3928
 3799TIP3    H132888   0.626   4.555  10.880  0.2435  0.0409  0.2595
 3799TIP3    H232889   0.641   4.513  10.736 -1.0758  0.6807 -0.0808
 3800TIP3   OH232890   5.959   5.568  14.959 -0.5810  0.3588  0.2234
 3800TIP3    H132891   5.936   5.576  14.867 -1.4376 -0.1244  0.3801
 3800TIP3    H232892   6.036   5.623  14.970  1.8928 -2.4344 -1.5949
 3801TIP3   OH232893   4.057   5.180   0.813  0.1218  0.6203 -0.4692
 3801TIP3    H132894   4.045   5.120   0.740 -0.0958 -0.1020  0.1535
 3801TIP3    H232895   4.140   5.153   0.853  0.3565  1.1577 -0.5838
 3802TIP3   OH232896   0.665   0.858  16.644  0.2695  0.3593  0.0042
 3802TIP3    H132897   0.660   0.763  16.653  0.7366  0.2391 -0.8296
 3802TIP3    H232898   0.733   0.872  16.578  2.1585  1.3826  2.0271
 3803TIP3   OH232899   4.351   3.860   3.039  0.1642 -0.1098 -0.0323
 3803TIP3    H132900   4.312   3.906   3.113 -0.9643  0.1621 -0.7758
 3803TIP3    H232901   4.311   3.773   3.041 -1.3708  0.5086 -1.4221
 3804TIP3   OH232902   5.730   2.010   2.041  0.1826  0.3347 -0.1259
 3804TIP3    H132903   5.802   2.028   2.100  0.3012  1.6908 -0.6592
 3804TIP3    H232904   5.761   1.937   1.986  1.0882  0.8073 -0.2496
 3805TIP3   OH232905   1.710   3.126  16.814 -0.6233  0.1194  0.0419
 3805TIP3    H132906   1.664   3.055  16.770  0.4814  0.2866 -1.4964
 3805TIP3    H232907   1.724   3.191  16.745 -0.0554  1.0338  0.9901
 3806TIP3   OH232908   6.802   3.420  16.736 -0.1477 -0.4162  0.0965
 3806TIP3    H132909   6.794   3.501  16.786 -0.9141  0.6244 -1.6321
 3806TIP3    H232910   6.893   3.393  16.749  0.2903  1.0477  0.2232
 3807TIP3   OH232911   2.120   2.195  13.878  0.0772 -0.1128  0.1412
 3807TIP3    H132912   2.117   2.112  13.925  0.5199 -0.4709 -0.4472
 3807TIP3    H232913   2.048   2.188  13.815  0.4969 -0.3170 -0.3259
 3808TIP3   OH232914   5.128   5.358  12.685 -0.1356  0.4167 -0.0934
 3808TIP3    H132915   5.046   5.406  12.692 -0.3765  0.0583 -0.4536
 3808TIP3    H232916   5.164   5.385  12.600 -0.0111  0.3666 -0.0564
 3809TIP3   OH232917   0.364   3.619   5.556  0.0240  0.3607 -0.5353
 3809TIP3    H132918   0.386   3.558   5.626  0.8942  0.9635 -0.2666
 3809TIP3    H232919   0.437   3.613   5.495 -0.1627  0.7095 -0.7990
 3810TIP3   OH232920   3.712   1.923  16.875 -0.0275  0.0371 -0.2466
 3810TIP3    H132921   3.666   1.986  16.820 -0.4902 -2.2588 -2.7225
 3810TIP3    H232922   3.653   1.907  16.949 -0.7600  1.0563 -0.6019
 3811TIP3   OH232923   6.150   2.669  14.097  0.4535 -0.2397 -0.4847
 3811TIP3    H132924   6.223   2.723  14.128 -0.3308 -0.4469  1.8902
 3811TIP3    H232925   6.175   2.580  14.121 -1.0168 -0.2002  1.4008
 3812TIP3   OH232926   5.206   2.559   1.898  0.0447  0.1105  0.2882
 3812TIP3    H132927   5.241   2.623   1.960 -2.9717  1.6469  0.5974
 3812TIP3    H232928   5.203   2.606   1.815 -0.3683 -0.3080  0.0648
 3813TIP3   OH232929   5.728   5.275   3.210  0.1444  0.1733 -0.3292
 3813TIP3    H132930   5.777   5.338   3.262  1.8221 -2.1679  1.1347
 3813TIP3    H232931   5.642   5.270   3.252  0.6528  0.1248  0.7201
 3814TIP3   OH232932   2.144   4.803  12.206 -0.0049  0.2410  0.8141
 3814TIP3    H132933   2.119   4.781  12.116  0.1643 -0.2765  0.8885
 3814TIP3    H232934   2.061   4.809  12.253 -0.1441  1.3784  0.4376
 3815TIP3   OH232935   5.681   0.042  15.728 -0.2727 -0.1056 -0.2754
 3815TIP3    H132936   5.672   0.029  15.634 -0.8410  0.5587 -0.3220
 3815TIP3    H232937   5.752   0.105  15.737  0.3004 -0.7488 -0.2131
 3816TIP3   OH232938   5.522   5.367   3.574  0.4094 -0.7216 -0.4923
 3816TIP3    H132939   5.564   5.294   3.527  1.6791  0.8098 -1.8645
 3816TIP3    H232940   5.444   5.387   3.523  0.6495 -0.4341 -0.7537
 3817TIP3   OH232941   1.003   6.631  11.584  0.2262 -0.4695 -0.3369
 3817TIP3    H132942   0.936   6.623  11.652  2.7168 -2.6213  2.1037
 3817TIP3    H232943   0.995   6.550  11.533  1.8215 -1.4617  0.9140
 3818TIP3   OH232944   4.620   0.139   2.094  0.1936 -0.6951  0.4952
 3818TIP3    H132945   4.555   0.110   2.029  0.4753 -1.6465  0.6203
 3818TIP3    H232946   4.637   0.061   2.147  1.5537 -0.4968  0.3723
 3819TIP3   OH232947   0.260   6.372   4.959 -0.5029  0.0224  0.0609
 3819TIP3    H132948   0.277   6.285   4.994 -2.2415  0.0336  1.0292
 3819TIP3    H232949   0.271   6.431   5.034  1.0066  0.7166 -0.6604
 3820TIP3   OH232950   6.267   5.464  14.912 -0.1821  0.1767 -0.5825
 3820TIP3    H132951   6.188   5.415  14.936  0.4748 -1.3415 -1.4151
 3820TIP3    H232952   6.293   5.507  14.994 -1.7889  0.6335 -0.2616
 3821TIP3   OH232953   5.047   2.526  15.563 -0.3043  0.0981 -0.1340
 3821TIP3    H132954   5.004   2.480  15.491 -0.9194 -0.0228  0.3016
 3821TIP3    H232955   5.120   2.469  15.589 -1.7241 -1.2205  1.1505
 3822TIP3   OH232956   1.134   1.334   6.395 -0.8717  0.0356  0.4699
 3822TIP3    H132957   1.197   1.314   6.464  0.7190  0.3508 -0.8478
 3822TIP3    H232958   1.144   1.262   6.332  0.2323  1.4914 -1.1118
 3823TIP3   OH232959   5.657   2.614   1.499  0.0330 -0.3019 -0.2469
 3823TIP3    H132960   5.573   2.568   1.489 -0.5847  0.7017  0.2152
 3823TIP3    H232961   5.661   2.671   1.422  0.2491 -0.2691 -0.2098
 3824TIP3   OH232962   4.137   1.718  15.407  0.2374 -0.2612 -0.1848
 3824TIP3    H132963   4.166   1.807  15.388  1.0412 -0.3317  0.5929
 3824TIP3    H232964   4.183   1.696  15.488  0.8246 -1.7408 -0.8878
 3825TIP3   OH232965   3.892   3.115  11.731  0.1089  0.0090 -0.1950
 3825TIP3    H132966   3.938   3.098  11.649  0.6511 -1.6487  0.4063
 3825TIP3    H232967   3.938   3.061  11.795 -1.3499 -0.0204  0.8651
 3826TIP3   OH232968   0.579   1.521  14.567 -0.3409  0.3075  0.0892
 3826TIP3    H132969   0.525   1.581  14.619 -1.2166 -0.7436  0.4430
 3826TIP3    H232970   0.652   1.499  14.624 -2.4185 -2.5867  1.9248
 3827TIP3   OH232971   0.433   5.350  15.322 -0.9364 -0.1690  0.3742
 3827TIP3    H132972   0.470   5.314  15.403  0.0065  0.7150  0.3517
 3827TIP3    H232973   0.342   5.370  15.344 -0.1624  2.0139  1.8769
 3828TIP3   OH232974   2.233   3.894   4.838  0.3637  0.1417  0.2079
 3828TIP3    H132975   2.256   3.896   4.745  0.5037 -0.9652  0.2078
 3828TIP3    H232976   2.314   3.915   4.884  0.4829 -0.1056  0.1077
 3829TIP3   OH232977   2.474   5.327   4.927  0.3865  0.0045 -0.5196
 3829TIP3    H132978   2.468   5.406   4.874  0.1780  0.4092  0.0980
 3829TIP3    H232979   2.483   5.256   4.863  1.4513  0.6022 -1.0557
 3830TIP3   OH232980   1.663   3.607   5.405  0.6896 -0.7079  0.0681
 3830TIP3    H132981   1.627   3.521   5.430 -1.4636 -0.7822 -2.8158
 3830TIP3    H232982   1.740   3.586   5.353  1.5761 -0.7353  1.3311
 3831TIP3   OH232983   5.375   3.373   1.741 -0.0173  0.3447  0.2792
 3831TIP3    H132984   5.345   3.447   1.688  0.2746  0.3731  0.1524
 3831TIP3    H232985   5.433   3.324   1.683  3.4585  2.4769  1.7051
 3832TIP3   OH232986   0.891   6.312   2.726  0.0126 -0.2493 -0.3453
 3832TIP3    H132987   0.941   6.392   2.741 -0.4643 -0.0589  0.2735
 3832TIP3    H232988   0.808   6.341   2.690 -1.0385 -0.2356  1.8770
 3833TIP3   OH232989   5.725   0.429  11.200 -0.0433 -0.4473 -0.3545
 3833TIP3    H132990   5.788   0.459  11.135 -0.3395  1.0154 -0.0083
 3833TIP3    H232991   5.649   0.401  11.148 -0.9523  2.2943 -0.6746
 3834TIP3   OH232992   0.533   2.659  12.554 -0.2302 -0.1558 -0.2466
 3834TIP3    H132993   0.507   2.568  12.565  1.2256 -0.4651  1.0490
 3834TIP3    H232994   0.618   2.665  12.598  0.5135  1.4334 -1.7800
 3835TIP3   OH232995   2.754   1.073  14.246 -0.4260  0.6652 -0.1040
 3835TIP3    H132996   2.814   1.007  14.214 -0.2009  1.1913 -0.7962
 3835TIP3    H232997   2.685   1.077  14.180 -0.9620  0.4165  0.4361
 3836TIP3   OH232998   1.267   0.987   1.854 -0.0836  0.0981 -0.0514
 3836TIP3    H132999   1.289   0.921   1.920  2.9290  0.1747 -0.8293
 3836TIP3    H233000   1.242   0.936   1.777  1.4306 -0.1765 -0.3911
 3837TIP3   OH233001   2.658   0.587  13.669 -0.1045 -0.0624 -0.1767
 3837TIP3    H133002   2.644   0.524  13.740 -0.1584 -0.6462 -0.6948
 3837TIP3    H233003   2.570   0.617  13.645 -0.0522  0.5297  0.3450
 3838TIP3   OH233004   3.616   4.454   4.590 -0.3227 -0.0780  0.8088
 3838TIP3    H133005   3.573   4.513   4.528 -0.0001 -0.3355  0.3362
 3838TIP3    H233006   3.577   4.369   4.572  0.9789 -0.4816 -0.2089
 3839TIP3   OH233007   4.570   1.312  11.798  0.2895 -0.4086 -0.1086
 3839TIP3    H133008   4.590   1.272  11.713  0.7880  0.1331 -0.2518
 3839TIP3    H233009   4.508   1.382  11.778  0.5816 -0.1344 -0.0529
 3840TIP3   OH233010   0.701   6.657   4.472  0.2715 -0.3390  0.7657
 3840TIP3    H133011   0.739   6.601   4.540 -1.6305 -1.9486  0.6029
 3840TIP3    H233012   0.658   6.596   4.412 -0.3873  1.2113 -0.4173
 3841TIP3   OH233013   3.290   1.610   1.271 -0.2048 -0.5612  0.1634
 3841TIP3    H133014   3.296   1.684   1.332  0.1969  1.0426 -1.7336
 3841TIP3    H233015   3.199   1.611   1.241 -0.1545 -0.7141  0.0040
 3842TIP3   OH233016   1.449   5.678  13.090  0.1434  1.1276  0.5034
 3842TIP3    H133017   1.514   5.608  13.097 -1.2937 -0.2498  0.6081
 3842TIP3    H233018   1.381   5.654  13.154 -0.8221  2.1124 -0.1185
 3843TIP3   OH233019   1.761   3.551   3.622 -1.0025 -0.0368  0.1102
 3843TIP3    H133020   1.852   3.521   3.631 -1.2167 -0.4628  1.0031
 3843TIP3    H233021   1.709   3.475   3.650 -1.5893  0.8030  1.3663
 3844TIP3   OH233022   1.432   5.178  13.217  0.5924 -0.4221  0.2777
 3844TIP3    H133023   1.505   5.148  13.271  0.9906  0.1552  0.0672
 3844TIP3    H233024   1.361   5.193  13.280  0.8760 -0.2956  0.5720
 3845TIP3   OH233025   6.124   5.561   4.272 -0.3589 -0.1079 -0.4473
 3845TIP3    H133026   6.043   5.514   4.291  0.8983 -2.6272 -0.7688
 3845TIP3    H233027   6.176   5.498   4.222  1.9303  1.2414  0.0993
 3846TIP3   OH233028   5.538   1.242   3.699 -0.0229  0.3041 -0.1362
 3846TIP3    H133029   5.486   1.312   3.660  0.0095  0.8598  0.7917
 3846TIP3    H233030   5.473   1.182   3.737 -0.0104  0.8156  0.7139
 3847TIP3   OH233031   3.790   0.281   2.436 -0.6731 -0.2630 -0.3800
 3847TIP3    H133032   3.783   0.376   2.445 -2.0423 -0.1288 -2.1774
 3847TIP3    H233033   3.882   0.266   2.413 -0.6042  0.7216 -0.8109
 3848TIP3   OH233034   4.987   2.005  16.323  0.2430  0.3867  0.4210
 3848TIP3    H133035   5.031   1.971  16.245 -1.7743 -2.4340  0.3358
 3848TIP3    H233036   5.057   2.015  16.387  1.2637 -3.7264  0.2563
 3849TIP3   OH233037   2.950   5.436   5.574  1.2985  0.1526  0.0065
 3849TIP3    H133038   3.005   5.426   5.497 -0.8546  2.4367 -2.0111
 3849TIP3    H233039   2.996   5.499   5.629  1.6971  0.4451 -0.6490
 3850TIP3   OH233040   2.379   2.436  12.510 -0.2324 -0.4135 -0.8537
 3850TIP3    H133041   2.397   2.464  12.599  0.3895  0.3708 -1.2157
 3850TIP3    H233042   2.371   2.517  12.460 -0.0827 -0.8495 -1.6014
 3851TIP3   OH233043   1.358   4.390   4.852 -0.5719  0.1220 -0.3457
 3851TIP3    H133044   1.376   4.384   4.758 -1.9998 -2.6626 -0.5644
 3851TIP3    H233045   1.435   4.350   4.894 -0.7235 -0.3276 -0.4840
 3852TIP3   OH233046   3.614   4.369  12.494  0.2859 -0.0641 -0.1554
 3852TIP3    H133047   3.530   4.402  12.465  0.8224  3.5028  1.7092
 3852TIP3    H233048   3.675   4.389  12.423 -0.2953 -2.7256 -1.5415
 3853TIP3   OH233049   0.704   2.096   3.085  0.4015  0.0897 -0.5937
 3853TIP3    H133050   0.776   2.146   3.047 -0.3100  1.7101  0.1270
 3853TIP3    H233051   0.641   2.161   3.114 -0.1372 -1.1514  1.2671
 3854TIP3   OH233052   4.529   6.667   0.078 -0.0131  0.0877  0.2079
 3854TIP3    H133053   4.509   6.729   0.149 -0.0396  0.0848  0.2030
 3854TIP3    H233054   4.581   6.598   0.120 -0.9936 -0.5069  0.4656
 3855TIP3   OH233055   0.459   4.510  16.473  0.5700 -0.1407  0.6546
 3855TIP3    H133056   0.529   4.446  16.483  0.6788 -0.0378  0.5549
 3855TIP3    H233057   0.379   4.461  16.492  0.7371 -0.0478  1.6536
 3856TIP3   OH233058   0.769   2.132  14.679 -0.0012  0.1851 -0.3901
 3856TIP3    H133059   0.786   2.106  14.588 -0.7041  0.1555 -0.5178
 3856TIP3    H233060   0.724   2.056  14.717  0.1173  0.2748 -0.0750
 3857TIP3   OH233061   2.183   4.919   0.888 -0.0611  0.3914 -0.1439
 3857TIP3    H133062   2.127   4.849   0.920  0.1217  0.2362 -0.1644
 3857TIP3    H233063   2.259   4.875   0.850 -0.1306  0.5827 -0.5153
 3858TIP3   OH233064   1.140   1.765  14.721  0.3282 -0.5728 -0.0293
 3858TIP3    H133065   1.201   1.716  14.776 -0.7591 -0.1970  1.5834
 3858TIP3    H233066   1.122   1.708  14.646 -0.0009 -2.1281  1.2019
 3859TIP3   OH233067   1.148   6.098  11.591  0.4560  0.1299  0.1822
 3859TIP3    H133068   1.219   6.077  11.652  0.6114 -1.6483 -0.5552
 3859TIP3    H233069   1.070   6.061  11.633  0.2639  0.4996  0.1480
 3860TIP3   OH233070   4.549   0.824   1.353 -0.0303  0.1830 -0.1218
 3860TIP3    H133071   4.562   0.754   1.290 -0.8698 -0.2740  0.2081
 3860TIP3    H233072   4.616   0.809   1.420 -0.2959 -0.3924  0.0201
 3861TIP3   OH233073   5.114   0.875  13.189 -0.3591 -0.4425 -0.1442
 3861TIP3    H133074   5.099   0.966  13.216 -0.2102 -0.2688 -0.6280
 3861TIP3    H233075   5.096   0.823  13.267 -0.1592  0.0289  0.2178
 3862TIP3   OH233076   0.008   0.799  12.653  0.3012  0.1970  0.2695
 3862TIP3    H133077   0.018   0.704  12.659 -1.8813 -0.0872  0.1829
 3862TIP3    H233078   0.033   0.831  12.739  0.4372 -0.5202  0.5065
 3863TIP3   OH233079   5.169   3.894   4.879 -0.2615  0.7199  0.2341
 3863TIP3    H133080   5.211   3.810   4.898 -0.3995  0.8433  1.1259
 3863TIP3    H233081   5.238   3.946   4.837 -0.3278 -0.0071 -0.8365
 3864TIP3   OH233082   3.126   3.134   6.806  0.1476 -0.0720  0.0355
 3864TIP3    H133083   3.050   3.102   6.757  0.1022  1.9005 -1.3019
 3864TIP3    H233084   3.191   3.065   6.797 -0.8753 -1.0279 -0.2912
 3865TIP3   OH233085   5.929   1.771   6.119  0.4259 -0.5443  0.0809
 3865TIP3    H133086   5.930   1.711   6.194  1.0414  2.0274  2.3078
 3865TIP3    H233087   5.836   1.778   6.096  0.1759 -1.0700  0.8751
 3866TIP3   OH233088   5.551   0.190   0.284 -0.0602 -0.2605  0.6314
 3866TIP3    H133089   5.563   0.261   0.347  1.5025 -1.3249  1.5842
 3866TIP3    H233090   5.621   0.204   0.220 -1.4769  0.6639 -0.8082
 3867TIP3   OH233091   6.027   6.460   5.980  0.2653 -0.0823 -0.5927
 3867TIP3    H133092   6.038   6.386   6.040 -1.4950 -0.5079 -0.7298
 3867TIP3    H233093   6.038   6.422   5.893  2.3984  0.4539 -0.6108
 3868TIP3   OH233094   0.368   3.682  16.536  0.1442 -0.2129 -0.2758
 3868TIP3    H133095   0.407   3.687  16.449  0.0352 -0.8810 -0.3735
 3868TIP3    H233096   0.320   3.599  16.535  1.3299 -0.9478  0.8926
 3869TIP3   OH233097   3.158   2.020  15.510 -0.5038 -0.0590  0.1064
 3869TIP3    H133098   3.075   2.042  15.468  0.1072  0.8823 -0.6624
 3869TIP3    H233099   3.133   1.976  15.591 -1.7597  1.1479  0.4023
 3870TIP3   OH233100   4.937   5.888  13.575 -0.1058 -0.4162 -0.2338
 3870TIP3    H133101   4.969   5.799  13.587  0.0789 -0.5195 -1.3301
 3870TIP3    H233102   4.870   5.880  13.507 -1.5225 -0.0036  1.0499
 3871TIP3   OH233103   2.567   2.167  16.785 -0.0919 -0.5257 -0.0612
 3871TIP3    H133104   2.628   2.239  16.805  0.5917 -0.4853 -2.0642
 3871TIP3    H233105   2.487   2.211  16.755 -0.2137 -0.6031  0.1455
 3872TIP3   OH233106   1.298   3.379   5.069  0.0339 -0.7093  0.0049
 3872TIP3    H133107   1.213   3.371   5.026 -0.3548 -1.7372  0.9143
 3872TIP3    H233108   1.353   3.313   5.027  0.5720  0.3206 -0.9587
 3873TIP3   OH233109   0.812   4.389  11.132 -0.3297 -0.4869 -0.6476
 3873TIP3    H133110   0.859   4.380  11.049  1.0882  0.3367  0.0287
 3873TIP3    H233111   0.719   4.380  11.109  0.1378 -2.1816 -2.0250
 3874TIP3   OH233112   2.867   5.753   2.358  0.0911 -0.1261 -0.4652
 3874TIP3    H133113   2.863   5.797   2.443 -1.7774  1.6650 -1.4054
 3874TIP3    H233114   2.959   5.759   2.333  0.5562 -0.1097  1.1010
 3875TIP3   OH233115   5.353   6.407   1.509 -0.3830 -0.3118  0.1174
 3875TIP3    H133116   5.390   6.455   1.435 -0.2527 -0.5977 -0.0044
 3875TIP3    H233117   5.411   6.428   1.582  0.2389 -1.0391 -0.1511
 3876TIP3   OH233118   5.072   4.408  11.663  0.1914 -0.2683  0.1123
 3876TIP3    H133119   5.135   4.466  11.705 -0.5312 -1.3019  2.8020
 3876TIP3    H233120   4.998   4.466  11.641  0.8835  0.4212 -0.4759
 3877TIP3   OH233121   3.672   4.719  12.696 -0.1836  0.0905 -0.4945
 3877TIP3    H133122   3.672   4.812  12.719  1.8944 -0.0467  0.2240
 3877TIP3    H233123   3.720   4.715  12.613 -0.6158 -0.3007 -0.7273
 3878TIP3   OH233124   1.329   2.278  13.239  0.3871 -0.6349  0.0672
 3878TIP3    H133125   1.280   2.211  13.285 -1.0736 -0.2106 -0.8144
 3878TIP3    H233126   1.345   2.346  13.305  1.6046 -1.6666  0.8775
 3879TIP3   OH233127   2.762   4.831   2.346 -0.0873  0.5558 -0.4551
 3879TIP3    H133128   2.823   4.863   2.279 -0.8303  2.0107 -0.4618
 3879TIP3    H233129   2.739   4.909   2.397  0.4948 -0.5088  1.5662
 3880TIP3   OH233130   6.201   5.720  16.036  0.0556 -0.0240  0.2179
 3880TIP3    H133131   6.259   5.792  16.009 -0.1512  0.3941  0.8691
 3880TIP3    H233132   6.197   5.663  15.959  0.7496  0.3195 -0.0837
 3881TIP3   OH233133   4.196   6.808  13.546 -0.2475 -0.6859 -0.9391
 3881TIP3    H133134   4.136   6.745  13.506 -0.2742  0.2444 -2.4278
 3881TIP3    H233135   4.250   6.839  13.473  0.3154  0.4070 -0.0788
 3882TIP3   OH233136   4.540   4.483   2.869  0.7205 -0.3407  0.3286
 3882TIP3    H133137   4.587   4.556   2.829 -0.5936 -0.5887 -1.7793
 3882TIP3    H233138   4.464   4.523   2.910  0.3057 -0.4441 -0.3286
 3883TIP3   OH233139   1.351   3.888  11.796  0.0225  0.3076 -0.2664
 3883TIP3    H133140   1.331   3.806  11.750 -1.0420 -0.4451  1.4054
 3883TIP3    H233141   1.271   3.940  11.786 -0.0908  0.2711  0.3989
 3884TIP3   OH233142   1.338   2.698   2.886  0.1004 -0.3705 -0.0622
 3884TIP3    H133143   1.419   2.663   2.851  0.4205 -1.1162  1.3681
 3884TIP3    H233144   1.275   2.626   2.880 -0.1747 -0.1227 -0.2077
 3885TIP3   OH233145   1.252   3.220   3.320  0.3168 -0.1332  0.3519
 3885TIP3    H133146   1.264   3.128   3.341 -3.9305 -0.8942  0.3151
 3885TIP3    H233147   1.229   3.220   3.227  1.4685  1.1757  0.0320
 3886TIP3   OH233148   6.384   6.093  11.013 -0.1754  0.7346  0.0905
 3886TIP3    H133149   6.426   6.026  10.959 -1.3299 -0.8062  1.0285
 3886TIP3    H233150   6.447   6.113  11.082 -0.7867 -1.3723  1.3429
 3887TIP3   OH233151   4.114   0.883   0.010 -0.6455 -0.0040  0.0946
 3887TIP3    H133152   4.028   0.847   0.033 -0.9499  0.9384  0.4614
 3887TIP3    H233153   4.106   0.904  -0.083 -0.9766  0.5390  0.2455
 3888TIP3   OH233154   0.045   0.862   2.027 -0.3832 -0.0352  0.0650
 3888TIP3    H133155  -0.038   0.887   2.069  0.0619 -2.3216  2.5580
 3888TIP3    H233156   0.027   0.776   1.989 -0.0438  0.9282 -2.4114
 3889TIP3   OH233157   5.582   4.952  13.126 -0.0864  0.2674  0.1343
 3889TIP3    H133158   5.654   4.911  13.080 -1.1291  0.7584 -2.0500
 3889TIP3    H233159   5.543   5.011  13.062 -0.4509  2.4686  2.2533
 3890TIP3   OH233160   3.955   5.509  13.315 -0.1015 -0.3519  0.0535
 3890TIP3    H133161   4.041   5.538  13.345 -0.2961 -0.2590  0.5248
 3890TIP3    H233162   3.954   5.415  13.333 -0.5006 -0.1683  1.0434
 3891TIP3   OH233163   3.185   3.517  11.597  0.5700 -0.2339  0.6676
 3891TIP3    H133164   3.145   3.492  11.680  0.3360  0.5587  0.8057
 3891TIP3    H233165   3.267   3.559  11.623  1.5795 -1.9319  0.3874
 3892TIP3   OH233166   2.253   3.347   5.419 -0.8879 -0.6645 -0.1243
 3892TIP3    H133167   2.274   3.434   5.384 -2.7584  0.4721  1.4410
 3892TIP3    H233168   2.338   3.312   5.447  0.0657  0.1149 -1.8324
 3893TIP3   OH233169   3.966   4.972  11.075 -0.4113  0.1322  0.6723
 3893TIP3    H133170   4.008   5.051  11.110  0.3968  1.1945 -2.4027
 3893TIP3    H233171   4.038   4.916  11.047 -1.0278 -0.6899  0.6792
 3894TIP3   OH233172   5.022   0.867  15.735 -0.7342  0.9125  0.5038
 3894TIP3    H133173   5.089   0.852  15.801  2.0302  1.2957 -1.9744
 3894TIP3    H233174   5.036   0.798  15.670 -1.4038  2.1699 -1.0565
 3895TIP3   OH233175   0.118   3.087   2.687  0.3883  0.2997  0.0782
 3895TIP3    H133176   0.090   2.995   2.684 -0.5475  0.4393  2.3158
 3895TIP3    H233177   0.088   3.124   2.604  1.5999 -1.5953 -1.2805
 3896TIP3   OH233178   3.742   5.712  13.556 -0.5713 -0.3867 -0.0429
 3896TIP3    H133179   3.720   5.669  13.473  3.2317 -0.4905 -1.1666
 3896TIP3    H233180   3.740   5.805  13.536  0.7710 -0.4240 -0.4324
 3897TIP3   OH233181   0.169   0.295  12.315 -0.7222 -0.3324 -0.0302
 3897TIP3    H133182   0.083   0.267  12.285 -0.6206 -1.5130  0.6754
 3897TIP3    H233183   0.151   0.361  12.382 -0.9902  0.9631 -1.3305
 3898TIP3   OH233184   4.605   6.557   3.459 -0.3510  0.2921  0.0318
 3898TIP3    H133185   4.609   6.643   3.417 -1.4798  0.3596  0.0296
 3898TIP3    H233186   4.512   6.545   3.480 -0.2190 -0.9587 -0.0346
 3899TIP3   OH233187   6.686   2.107  14.428  0.7038  0.0790 -0.6610
 3899TIP3    H133188   6.627   2.152  14.367  0.9704  0.7486 -0.4287
 3899TIP3    H233189   6.671   2.149  14.512  0.4103 -0.7817 -0.2683
 3900TIP3   OH233190   1.666   5.762  16.822  0.7401 -0.0353 -0.0443
 3900TIP3    H133191   1.680   5.671  16.848  1.4701  0.1257  0.1305
 3900TIP3    H233192   1.579   5.784  16.858 -0.0239 -1.0543 -1.2010
 3901TIP3   OH233193   4.493   1.797   3.511  0.1533  0.0822  0.4576
 3901TIP3    H133194   4.431   1.738   3.468  0.4651 -0.0685  0.2090
 3901TIP3    H233195   4.465   1.799   3.603  0.0897 -0.3877  0.4526
 3902TIP3   OH233196   4.812   1.719   0.077 -0.5301 -0.6700  0.8138
 3902TIP3    H133197   4.752   1.792   0.060  1.6370  0.8768 -0.7775
 3902TIP3    H233198   4.826   1.679  -0.009  0.5293 -1.1337  1.1802
 3903TIP3   OH233199   0.709   0.815   4.031  0.2279 -0.3229  0.0407
 3903TIP3    H133200   0.753   0.899   4.014 -1.7518  0.7181 -0.2656
 3903TIP3    H233201   0.700   0.812   4.126  2.5491 -1.4463  0.2774
 3904TIP3   OH233202   0.059   1.586  14.845 -0.1350  0.4088  0.0625
 3904TIP3    H133203   0.051   1.681  14.845 -1.5818  0.3136  0.9726
 3904TIP3    H233204  -0.001   1.556  14.913  1.3686 -1.0927  0.8234
 3905TIP3   OH233205   2.741   3.997   4.603  0.4596 -0.0386 -0.1140
 3905TIP3    H133206   2.764   4.031   4.516 -1.0514  1.5461  0.0475
 3905TIP3    H233207   2.665   3.942   4.588  0.8970 -0.7031  0.0737
 3906TIP3   OH233208   6.058   0.867   4.785 -0.2413 -0.1958 -0.5564
 3906TIP3    H133209   6.005   0.916   4.848  0.3506 -1.6011  1.1439
 3906TIP3    H233210   6.061   0.922   4.707 -2.8438  0.6661 -0.1611
 3907TIP3   OH233211   4.417   6.324   0.742  0.0216  0.3524  0.4104
 3907TIP3    H133212   4.461   6.240   0.732  0.5135  0.3321  2.2984
 3907TIP3    H233213   4.328   6.309   0.711 -0.1799 -1.1598  1.6231
 3908TIP3   OH233214   5.100   6.653  12.211 -0.1029  0.4138  0.5894
 3908TIP3    H133215   5.100   6.557  12.213  0.5566  0.4178  1.0575
 3908TIP3    H233216   5.018   6.676  12.168 -1.5926 -0.3261  2.8294
 3909TIP3   OH233217   0.940   5.783   0.789 -0.1833  0.3835  0.0023
 3909TIP3    H133218   0.855   5.740   0.798 -0.3037  0.5444 -0.3364
 3909TIP3    H233219   1.002   5.722   0.828 -0.5284  0.5367  0.7938
 3910TIP3   OH233220   5.714   3.363   3.072 -0.2397  0.0878  0.0405
 3910TIP3    H133221   5.680   3.363   3.161  0.0506  0.1914  0.1550
 3910TIP3    H233222   5.679   3.283   3.033 -0.6225  0.2021  0.1460
 3911TIP3   OH233223   4.289   6.773   5.394 -0.6320 -0.7119  0.2794
 3911TIP3    H133224   4.321   6.724   5.318 -1.2383 -0.8344  0.0970
 3911TIP3    H233225   4.353   6.754   5.463 -0.1932 -0.7698 -0.1403
 3912TIP3   OH233226   1.338   0.062   2.051 -0.0064  0.2485  0.1319
 3912TIP3    H133227   1.332   0.064   2.147  0.8310  0.1257  0.1979
 3912TIP3    H233228   1.360   0.152   2.026 -0.2773  0.2925  0.0476
 3913TIP3   OH233229   5.788   3.645   2.986  0.0998 -1.0383 -0.5313
 3913TIP3    H133230   5.786   3.626   2.892  0.3165 -1.4956 -0.4485
 3913TIP3    H233231   5.741   3.572   3.026 -1.9326  0.2644 -0.4341
 3914TIP3   OH233232   1.400   3.193   0.705 -0.4983  0.3029 -0.4353
 3914TIP3    H133233   1.426   3.144   0.627 -3.5952 -0.5904 -1.0671
 3914TIP3    H233234   1.317   3.153   0.731 -0.3506  1.6147  2.4238
 3915TIP3   OH233235   1.781   4.513  11.654 -0.1707 -0.1271 -0.7493
 3915TIP3    H133236   1.764   4.484  11.744  0.5983  0.6773 -0.3246
 3915TIP3    H233237   1.802   4.433  11.606  1.7659 -0.3399  0.3477
 3916TIP3   OH233238   4.215   6.597   0.624  0.4137  0.6283 -0.3143
 3916TIP3    H133239   4.231   6.593   0.530  1.1196  0.8066 -0.2082
 3916TIP3    H233240   4.184   6.509   0.647  2.7322 -0.2561 -0.2915
 3917TIP3   OH233241   6.462   4.816  15.705  0.0071 -0.0992 -0.1612
 3917TIP3    H133242   6.550   4.838  15.736  0.2123 -1.3978  0.2651
 3917TIP3    H233243   6.476   4.747  15.640 -0.7029 -0.4094  0.0022
 3918TIP3   OH233244   6.566   1.604   1.901 -0.2692 -0.2525 -0.6106
 3918TIP3    H133245   6.512   1.553   1.841 -0.3904  0.8087 -1.4177
 3918TIP3    H233246   6.510   1.675   1.931 -0.2570 -0.8216  0.8888
 3919TIP3   OH233247   6.218   0.711   4.926 -0.1461 -0.0581  0.0787
 3919TIP3    H133248   6.150   0.752   4.873 -0.0586 -0.1465 -0.1066
 3919TIP3    H233249   6.265   0.783   4.967  0.6246  0.0849 -1.0108
 3920TIP3   OH233250   4.579   0.126   6.258  0.5884  0.4476  0.1336
 3920TIP3    H133251   4.520   0.150   6.186  2.0278  1.2106 -0.8475
 3920TIP3    H233252   4.533   0.055   6.304 -0.5059  0.1332 -1.3505
 3921TIP3   OH233253   5.626   1.432  16.131 -0.6028  0.2513  0.5136
 3921TIP3    H133254   5.653   1.366  16.067  0.1576  0.7625  0.2852
 3921TIP3    H233255   5.708   1.477  16.155 -1.1397  1.3645  0.3562
 3922TIP3   OH233256   5.836   2.514  16.603 -0.6359 -0.3727 -0.1338
 3922TIP3    H133257   5.754   2.521  16.652 -0.3759 -0.7633  0.3660
 3922TIP3    H233258   5.867   2.425  16.620  0.3055  0.0319  0.3487
 3923TIP3   OH233259   1.497   4.258  12.234  0.0489 -0.1645 -0.1701
 3923TIP3    H133260   1.451   4.210  12.165 -2.5333 -0.8635  1.8566
 3923TIP3    H233261   1.427   4.299  12.285  1.6775 -0.7603  2.7626
 3924TIP3   OH233262   3.059   1.096  11.544  0.1291 -0.0488  0.5042
 3924TIP3    H133263   2.985   1.059  11.593  0.8925 -0.0757  1.6823
 3924TIP3    H233264   3.130   1.033  11.558  0.8387  0.8003  0.7758
 3925TIP3   OH233265   2.367   1.838   4.420 -0.1747 -0.0819 -0.0190
 3925TIP3    H133266   2.281   1.801   4.441 -0.9389  2.0992  0.9489
 3925TIP3    H233267   2.426   1.799   4.484 -1.0989  0.8799  1.4776
 3926TIP3   OH233268   2.348   2.850   2.628  0.0469 -0.0281 -0.2471
 3926TIP3    H133269   2.309   2.902   2.698 -1.1472 -1.4672  0.2011
 3926TIP3    H233270   2.439   2.839   2.654  0.4356  2.0668 -0.5207
 3927TIP3   OH233271   1.523   1.984   5.953  0.0166 -0.4281 -0.3981
 3927TIP3    H133272   1.488   2.060   5.999 -0.7217 -0.9235 -0.1204
 3927TIP3    H233273   1.570   1.934   6.021  1.6212  0.4022 -0.8307
 3928TIP3   OH233274   1.827   1.000  13.907  0.0609  0.5365  0.1497
 3928TIP3    H133275   1.751   1.055  13.923 -0.6626 -0.7803  1.5122
 3928TIP3    H233276   1.797   0.934  13.844  0.5236  0.8852 -0.4449
 3929TIP3   OH233277   3.348   0.227   4.229 -0.4733 -0.1921  0.2256
 3929TIP3    H133278   3.361   0.180   4.311  1.3839 -1.1286 -0.5531
 3929TIP3    H233279   3.428   0.211   4.179 -1.0095  1.4278 -1.2519
 3930TIP3   OH233280   0.738   3.483  17.025  0.1436  0.0682  0.9686
 3930TIP3    H133281   0.711   3.535  17.101 -0.4590 -0.6538  1.2667
 3930TIP3    H233282   0.656   3.450  16.989  0.5536 -1.9803  1.7449
 3931TIP3   OH233283   0.893   2.752  16.469  0.8888  0.1004 -0.1320
 3931TIP3    H133284   0.986   2.731  16.472  0.6326 -1.1536  2.7789
 3931TIP3    H233285   0.866   2.756  16.561 -2.2435 -1.1618 -0.8328
 3932TIP3   OH233286   0.364   3.430  15.759  0.1915  0.4984  0.0922
 3932TIP3    H133287   0.435   3.470  15.710 -1.0579  0.6769 -1.6363
 3932TIP3    H233288   0.288   3.435  15.701 -0.9940 -0.6340  1.4660
 3933TIP3   OH233289   2.178   4.875  14.428 -0.0721 -0.4012  0.2947
 3933TIP3    H133290   2.203   4.964  14.402  0.3602 -0.3722  0.8073
 3933TIP3    H233291   2.235   4.818  14.376 -0.3656 -0.3803 -0.0513
 3934TIP3   OH233292   0.158   2.550   0.579  0.0610 -0.3021  0.4085
 3934TIP3    H133293   0.100   2.475   0.570 -0.2605  0.0737 -0.8054
 3934TIP3    H233294   0.184   2.571   0.489 -0.3102  1.3886  0.6632
 3935TIP3   OH233295   0.296   3.674  12.920 -0.2605  0.1295 -0.2111
 3935TIP3    H133296   0.298   3.661  12.825 -0.7058 -2.1461  0.0494
 3935TIP3    H233297   0.326   3.591  12.957 -2.1481  0.1872  1.6609
 3936TIP3   OH233298   5.093   6.747  14.183  0.1618  0.1674 -0.1129
 3936TIP3    H133299   5.107   6.706  14.269 -0.0043 -0.3876 -0.3413
 3936TIP3    H233300   5.143   6.828  14.186  2.1853 -1.0028 -0.3671
 3937TIP3   OH233301   0.621   3.597   5.390 -0.1565 -1.0363 -0.0949
 3937TIP3    H133302   0.628   3.632   5.478 -1.7569 -0.1458 -0.2939
 3937TIP3    H233303   0.651   3.506   5.398  1.1843 -0.5263  1.0264
 3938TIP3   OH233304   2.944   3.292   2.270  0.3748 -0.1762 -0.0942
 3938TIP3    H133305   2.881   3.347   2.315 -0.7773 -2.0061  0.6090
 3938TIP3    H233306   2.944   3.324   2.179  0.0092  1.1673  0.3635
 3939TIP3   OH233307   2.897   2.449  14.488  0.0586 -0.2460  0.4168
 3939TIP3    H133308   2.839   2.523  14.508  0.1085 -0.6425  2.1482
 3939TIP3    H233309   2.840   2.373  14.488  0.4629 -0.5780  1.6662
 3940TIP3   OH233310   3.809   1.263   0.686 -0.0797 -0.2658  0.5474
 3940TIP3    H133311   3.766   1.190   0.731 -0.6610 -0.1913  0.1266
 3940TIP3    H233312   3.847   1.315   0.756 -2.3402  0.7219  1.1172
 3941TIP3   OH233313   2.012   6.611  16.627  0.5947  0.1651  0.0932
 3941TIP3    H133314   2.091   6.581  16.583  0.4699  1.6601 -1.2549
 3941TIP3    H233315   1.941   6.564  16.583  0.7561 -3.7212  3.4565
 3942TIP3   OH233316   5.170   4.057  11.175 -0.6342  0.3670 -0.1829
 3942TIP3    H133317   5.214   4.018  11.099  1.1739 -2.7407  2.2285
 3942TIP3    H233318   5.209   4.144  11.183 -0.6989  0.7053 -2.5732
 3943TIP3   OH233319   0.434   2.093  12.190  0.3738  0.0750 -0.3060
 3943TIP3    H133320   0.344   2.120  12.209  0.3902  0.7083 -1.0786
 3943TIP3    H233321   0.449   2.018  12.248  0.3732  1.7661  2.0643
 3944TIP3   OH233322   3.882   2.906  13.432  0.4586  0.0622  0.4567
 3944TIP3    H133323   3.897   2.813  13.449 -3.1191 -0.5231  1.0165
 3944TIP3    H233324   3.927   2.950  13.504  1.9971 -1.1862  0.3348
 3945TIP3   OH233325   5.947   3.144   1.823 -0.0781 -0.1158  0.0090
 3945TIP3    H133326   5.990   3.217   1.777  1.1873 -1.6382 -1.3221
 3945TIP3    H233327   5.918   3.085   1.753 -1.2482 -0.8300  1.0523
 3946TIP3   OH233328   6.480   1.668  12.628  0.4860 -0.8936  0.6497
 3946TIP3    H133329   6.402   1.722  12.642  0.3820 -0.7576 -0.4031
 3946TIP3    H233330   6.446   1.582  12.604  0.6045 -0.3639 -1.6580
 3947TIP3   OH233331   5.964   4.951  15.231  0.1644  0.2626  0.0723
 3947TIP3    H133332   6.017   4.918  15.159  0.7450  1.1109  0.0855
 3947TIP3    H233333   5.909   5.019  15.192  0.7725  1.0160  0.4770
 3948TIP3   OH233334   6.543   1.191   3.596 -0.1263  0.0830  0.7569
 3948TIP3    H133335   6.500   1.146   3.523  1.6979 -0.6680  0.0820
 3948TIP3    H233336   6.492   1.165   3.673 -1.1883 -0.3309 -0.0512
 3949TIP3   OH233337   5.923   0.365   4.864 -0.0031 -0.2081  0.1958
 3949TIP3    H133338   5.938   0.278   4.827 -0.2921 -0.3932  0.5076
 3949TIP3    H233339   5.899   0.419   4.789  0.7308 -0.2600 -0.0832
 3950TIP3   OH233340   0.922   2.045   6.633  0.1431  0.2866  0.5905
 3950TIP3    H133341   0.959   2.032   6.546 -0.0946  2.1979  0.1777
 3950TIP3    H233342   0.901   1.956   6.663  2.2459 -0.5890 -0.3674
 3951TIP3   OH233343   0.612   6.186   2.617  0.2276 -1.2958  0.2962
 3951TIP3    H133344   0.612   6.174   2.712  1.5013  0.2535  0.5376
 3951TIP3    H233345   0.528   6.227   2.598  0.5611 -0.2523  0.9844
 3952TIP3   OH233346   5.955   3.339   3.939  0.1698 -0.0625 -0.1615
 3952TIP3    H133347   5.981   3.254   3.904  0.4457 -0.0091 -0.0936
 3952TIP3    H233348   5.863   3.348   3.916  0.1372 -0.3837 -0.1620
 3953TIP3   OH233349   2.530   1.063  14.098 -0.0662 -0.0755  0.2169
 3953TIP3    H133350   2.496   1.022  14.177 -1.7656  1.1038  0.1548
 3953TIP3    H233351   2.527   0.994  14.031 -0.7715 -0.4679  0.6433
 3954TIP3   OH233352   5.028   0.631  12.933 -0.3667  0.1550  0.1056
 3954TIP3    H133353   5.017   0.657  12.842  0.9271  3.5106  0.7558
 3954TIP3    H233354   4.965   0.684  12.981  0.5763  0.2130  1.3521
 3955TIP3   OH233355   5.782   0.735  11.264 -0.0844 -0.3270  0.1114
 3955TIP3    H133356   5.825   0.669  11.319 -0.3663 -0.9683 -0.4306
 3955TIP3    H233357   5.850   0.764  11.203  0.0243 -0.1425  0.3160
 3956TIP3   OH233358   2.116   1.059   5.021  0.1589  0.3868  0.1500
 3956TIP3    H133359   2.056   1.110   4.966 -0.6979 -1.1660 -0.4010
 3956TIP3    H233360   2.197   1.110   5.020 -0.3244  1.2024 -1.2558
 3957TIP3   OH233361   1.676   1.006  13.552 -0.0651 -0.5247 -0.3168
 3957TIP3    H133362   1.696   1.094  13.583  0.8691  0.3708 -3.1016
 3957TIP3    H233363   1.611   1.019  13.483 -0.7825 -2.1492  0.0143
 3958TIP3   OH233364   3.537   0.034  15.654  0.3520 -0.2097 -0.0825
 3958TIP3    H133365   3.525   0.022  15.560 -1.7170  0.5360  0.0419
 3958TIP3    H233366   3.483  -0.034  15.695  1.9738 -1.1425  0.6065
 3959TIP3   OH233367   4.685   0.737  14.594  0.4538 -0.8159 -0.2189
 3959TIP3    H133368   4.695   0.678  14.519  1.3441 -0.4445 -0.4168
 3959TIP3    H233369   4.701   0.824  14.558  0.8673 -0.6287  0.3960
 3960TIP3   OH233370   5.143   3.632  16.559  0.4680 -0.9620 -0.5085
 3960TIP3    H133371   5.103   3.560  16.510  1.9367 -0.8845 -1.9531
 3960TIP3    H233372   5.137   3.606  16.650 -1.2433 -1.7386 -0.8136
 3961TIP3   OH233373   1.922   4.284  16.996 -0.3525  0.3181  0.1580
 3961TIP3    H133374   1.910   4.347  17.067  0.1417  2.2547 -1.3759
 3961TIP3    H233375   1.937   4.200  17.040  1.4112  1.6752  2.3617
 3962TIP3   OH233376   0.577   1.660   5.713  0.1647  0.6533 -0.5584
 3962TIP3    H133377   0.644   1.726   5.728 -0.0091  0.8361 -0.5931
 3962TIP3    H233378   0.570   1.653   5.618  0.7959 -0.0362 -0.5714
 3963TIP3   OH233379   1.713   0.122   0.870 -0.2301  0.4902 -0.0348
 3963TIP3    H133380   1.666   0.079   0.798  0.4746 -0.3870 -0.0003
 3963TIP3    H233381   1.666   0.203   0.885 -0.9571  0.2360 -0.8557
 3964TIP3   OH233382   4.670   1.027  12.167  0.7604 -0.0843  1.2500
 3964TIP3    H133383   4.689   1.116  12.139  0.0671 -0.2064  0.3485
 3964TIP3    H233384   4.620   1.037  12.248 -0.7096  0.4135  0.3197
 3965TIP3   OH233385   4.951   1.039  16.057 -0.0858 -0.3481 -0.6898
 3965TIP3    H133386   5.031   1.079  16.090 -0.9969  1.3621 -0.4653
 3965TIP3    H233387   4.930   1.089  15.978 -1.0670 -0.6187 -0.6141
 3966TIP3   OH233388   1.515   6.078  14.799  0.3382 -0.4089 -0.1634
 3966TIP3    H133389   1.529   6.171  14.782 -0.4969  0.1152  1.7641
 3966TIP3    H233390   1.481   6.044  14.716 -0.9860  1.3889 -0.4278
 3967TIP3   OH233391   0.822   0.396   3.591  1.0335 -0.1520 -0.4799
 3967TIP3    H133392   0.810   0.303   3.568  1.4015  0.0221 -1.4261
 3967TIP3    H233393   0.762   0.443   3.533  0.8980  0.2141 -0.0492
 3968TIP3   OH233394   5.623   2.702  15.220 -0.3187  0.1089  0.0977
 3968TIP3    H133395   5.599   2.794  15.208  0.7019  0.3588 -0.1761
 3968TIP3    H233396   5.552   2.653  15.179 -0.9061  0.7699  0.3037
 3969TIP3   OH233397   3.727   0.897  11.804 -0.1293  0.6482  0.4720
 3969TIP3    H133398   3.649   0.876  11.856  0.6917 -1.7478  0.8264
 3969TIP3    H233399   3.764   0.974  11.847 -0.6224 -0.0220  2.1904
 3970TIP3   OH233400   0.465   4.040   0.284 -0.3318 -0.3278  0.1946
 3970TIP3    H133401   0.514   4.120   0.264 -0.0223 -0.9472 -1.7956
 3970TIP3    H233402   0.391   4.069   0.337 -1.1028  1.5722 -1.7437
 3971TIP3   OH233403   3.419   0.997   3.804 -0.6478 -0.6073  0.4229
 3971TIP3    H133404   3.333   0.984   3.764  0.0240 -0.9078 -0.9756
 3971TIP3    H233405   3.406   1.069   3.866 -1.7924 -0.3265 -0.1220
 3972TIP3   OH233406   3.693   5.167  10.307  0.0400  0.0582  0.3389
 3972TIP3    H133407   3.776   5.161  10.260  0.9686 -0.3835  1.9465
 3972TIP3    H233408   3.710   5.125  10.391 -1.7558  0.1743  0.8046
 3973TIP3   OH233409   2.277   4.212   2.238  0.4508 -0.2304  0.1772
 3973TIP3    H133410   2.289   4.210   2.143  1.5052  0.4232  0.2882
 3973TIP3    H233411   2.184   4.191   2.250 -0.1364  1.4011 -1.1025
 3974TIP3   OH233412   4.265   4.033   1.482  0.3682 -0.5652  0.2900
 3974TIP3    H133413   4.221   4.067   1.560 -1.5589 -0.2060 -0.8756
 3974TIP3    H233414   4.256   3.938   1.489  0.7770 -0.5755  0.7899
 3975TIP3   OH233415   4.647   4.208  13.693 -0.5399  0.2557  0.4299
 3975TIP3    H133416   4.615   4.270  13.759 -0.6372  0.4695  0.1859
 3975TIP3    H233417   4.726   4.249  13.659 -1.5417  1.1239 -0.9803
 3976TIP3   OH233418   3.021   0.603  11.313 -0.0902  0.5852 -0.3851
 3976TIP3    H133419   3.066   0.687  11.325  0.5602  0.3022 -0.7747
 3976TIP3    H233420   2.994   0.603  11.221 -1.7010  1.1319  0.0596
 3977TIP3   OH233421   3.712   4.975  15.652 -0.3093 -0.0728 -0.4148
 3977TIP3    H133422   3.692   5.068  15.666 -2.5951 -0.5034 -0.4628
 3977TIP3    H233423   3.716   4.938  15.740  0.8107  0.0650 -0.3852
 3978TIP3   OH233424   0.319   2.267  15.294  0.0397 -0.1675  0.5099
 3978TIP3    H133425   0.308   2.184  15.249 -1.0439  0.4539 -0.4302
 3978TIP3    H233426   0.410   2.291  15.278 -0.4549  0.3129 -1.9134
 3979TIP3   OH233427   0.438   4.573   3.310  0.1008 -0.6664 -0.3237
 3979TIP3    H133428   0.515   4.520   3.290  0.1563 -0.8314  0.3102
 3979TIP3    H233429   0.459   4.614   3.394 -0.1336 -0.0067 -0.5801
 3980TIP3   OH233430   5.163   0.600  16.502 -0.1204 -0.3516 -0.1333
 3980TIP3    H133431   5.176   0.694  16.512  3.5597 -0.9047  1.7701
 3980TIP3    H233432   5.169   0.585  16.408  0.3701  1.1790 -0.3714
 3981TIP3   OH233433   6.728   3.101  15.612 -0.3757 -0.3894  0.0292
 3981TIP3    H133434   6.733   3.005  15.616 -0.7567 -0.4549 -0.9526
 3981TIP3    H233435   6.817   3.129  15.591 -0.2880 -0.5227  0.2133
 3982TIP3   OH233436   0.733   3.640   6.644  0.0255  0.1784 -0.9179
 3982TIP3    H133437   0.769   3.560   6.606  1.7528  0.3890  0.1781
 3982TIP3    H233438   0.650   3.653   6.597 -0.5320 -2.4523 -0.8493
 3983TIP3   OH233439   3.298   3.821   1.212  0.1793  0.1464 -0.1878
 3983TIP3    H133440   3.346   3.744   1.182 -0.0983  0.3511 -1.1906
 3983TIP3    H233441   3.348   3.895   1.179 -0.0067  0.3803  0.0552
 3984TIP3   OH233442   2.267   5.903  12.998  0.0176  0.1209  0.0614
 3984TIP3    H133443   2.341   5.863  13.041  0.6979  1.4392  0.1678
 3984TIP3    H233444   2.195   5.841  13.011  1.1504 -1.3258 -0.3158
 3985TIP3   OH233445   4.976   3.415   5.921 -0.3300 -0.5122 -0.1594
 3985TIP3    H133446   4.909   3.461   5.971  0.5057  0.4327  0.1318
 3985TIP3    H233447   4.950   3.427   5.830 -1.3014 -1.3579 -0.0025
 3986TIP3   OH233448   6.585   6.608   4.029 -0.3692 -0.7114  0.0872
 3986TIP3    H133449   6.661   6.631   4.082  0.0124 -1.4014 -0.1442
 3986TIP3    H233450   6.620   6.592   3.941 -0.9231 -0.0554 -0.2642
 3987TIP3   OH233451   1.224   4.860   3.999  0.5511 -0.8724  0.8611
 3987TIP3    H133452   1.179   4.886   4.079  0.2788 -1.4459  0.9019
 3987TIP3    H233453   1.297   4.921   3.991  0.7139 -0.9512  1.6689
 3988TIP3   OH233454   2.932   0.650   3.707  0.0047  0.4333  0.3382
 3988TIP3    H133455   2.975   0.670   3.624 -0.3040 -0.7247 -0.1149
 3988TIP3    H233456   2.918   0.736   3.748 -1.2333  1.1705 -1.5050
 3989TIP3   OH233457   4.611   3.245  12.124  0.1870  0.0319 -0.3926
 3989TIP3    H133458   4.539   3.281  12.073 -0.5287 -1.0488 -0.1873
 3989TIP3    H233459   4.570   3.214  12.205  0.3068 -3.0778 -1.3664
 3990TIP3   OH233460   4.651   4.064   1.285  0.5541 -0.4140  0.7291
 3990TIP3    H133461   4.591   4.005   1.240  0.3115 -0.7593  1.5022
 3990TIP3    H233462   4.736   4.048   1.244  0.7320 -2.1426  1.7027
 3991TIP3   OH233463   3.547   3.423   0.663  0.3935 -1.0676  0.8982
 3991TIP3    H133464   3.615   3.491   0.666  0.9216 -1.5091 -0.3860
 3991TIP3    H233465   3.589   3.349   0.618 -1.8434 -0.2113 -3.0446
 3992TIP3   OH233466   6.616   5.944   2.361 -0.1331 -0.0616 -0.2390
 3992TIP3    H133467   6.650   5.988   2.439  2.2746 -1.7727 -0.1986
 3992TIP3    H233468   6.530   5.982   2.347  0.1968  1.7336  2.0703
 3993TIP3   OH233469   5.927   2.640  16.326  0.0634  0.1121  0.1021
 3993TIP3    H133470   5.919   2.594  16.410 -1.0181  0.0345 -0.0315
 3993TIP3    H233471   5.837   2.657  16.299  0.3713 -0.2172 -1.2356
 3994TIP3   OH233472   4.791   1.981  10.891 -0.1171  0.1190 -0.1423
 3994TIP3    H133473   4.755   1.892  10.889  2.0904 -0.8088 -0.5642
 3994TIP3    H233474   4.820   1.997  10.801 -1.4355  1.7362 -0.3418
 3995TIP3   OH233475   2.594   5.805   1.915  0.0265  0.1850 -0.2586
 3995TIP3    H133476   2.681   5.833   1.887  0.2297 -2.0062 -2.0578
 3995TIP3    H233477   2.609   5.738   1.981 -0.3736  1.1319  0.8289
 3996TIP3   OH233478   6.154   6.738  11.076  0.2032  0.3035  0.6045
 3996TIP3    H133479   6.086   6.777  11.020  0.8902  0.1265 -0.3791
 3996TIP3    H233480   6.163   6.800  11.149  1.0446  1.8783 -0.7650
 3997TIP3   OH233481   5.076   2.291   1.166  0.0912  0.0202  0.0944
 3997TIP3    H133482   4.983   2.312   1.158 -0.1788 -1.7784 -3.2739
 3997TIP3    H233483   5.119   2.346   1.100  1.4005  0.4007  1.2108
 3998TIP3   OH233484   5.743   1.236  15.588 -0.5455  0.3476 -0.8335
 3998TIP3    H133485   5.696   1.220  15.670  0.1937 -0.1606 -0.4987
 3998TIP3    H233486   5.676   1.230  15.520 -1.0279  0.0089 -0.3309
 3999TIP3   OH233487   5.884   3.501   4.435  0.8694  0.1446 -0.0172
 3999TIP3    H133488   5.877   3.538   4.347 -1.7371  0.5237  0.2822
 3999TIP3    H233489   5.803   3.452   4.447  1.7290 -0.9237  1.7351
 4000TIP3   OH233490   3.395   2.093   5.919  0.2145 -0.7156  0.5264
 4000TIP3    H133491   3.440   2.014   5.948 -1.3683 -0.7420  3.2187
 4000TIP3    H233492   3.304   2.068   5.910  0.0119  0.3351 -0.6273
 4001TIP3   OH233493   2.932   4.441  15.615  0.5546 -0.0697  0.9102
 4001TIP3    H133494   3.010   4.419  15.563  0.4758  1.9210 -0.1424
 4001TIP3    H233495   2.961   4.435  15.706  2.2557  1.5437  0.5366
 4002TIP3   OH233496   6.714   0.352  14.159 -0.2304  0.1516 -0.0371
 4002TIP3    H133497   6.765   0.286  14.112  0.5175  0.6519  0.0394
 4002TIP3    H233498   6.623   0.332  14.138 -0.0304 -0.9709  0.0841
 4003TIP3   OH233499   0.567   5.379   5.053  0.1396 -0.8829  0.3620
 4003TIP3    H133500   0.508   5.416   5.119 -0.7022 -1.5700  0.0084
 4003TIP3    H233501   0.628   5.325   5.103  0.4547 -0.2087  0.7240
 4004TIP3   OH233502   3.361   5.197   2.110 -0.2689 -0.4863  0.3838
 4004TIP3    H133503   3.282   5.173   2.062 -0.5662 -1.9181  1.5066
 4004TIP3    H233504   3.341   5.282   2.149 -1.0529 -0.5696  0.1790
 4005TIP3   OH233505   0.013   4.653  16.168 -0.2576 -0.4601  0.2875
 4005TIP3    H133506  -0.015   4.566  16.140  2.1416 -0.5024 -2.4719
 4005TIP3    H233507  -0.051   4.713  16.130  0.3571 -0.8283 -1.3989
 4006TIP3   OH233508   3.736   2.580  13.218 -0.2757 -0.2820  0.1661
 4006TIP3    H133509   3.666   2.518  13.237 -1.0873 -0.1000 -1.9921
 4006TIP3    H233510   3.753   2.570  13.124  2.0124  0.2925  0.4384
 4007TIP3   OH233511   0.278   2.453  16.779 -0.0804 -0.3522  0.0691
 4007TIP3    H133512   0.274   2.542  16.812  0.9515 -0.0089 -0.6780
 4007TIP3    H233513   0.352   2.453  16.717 -0.0713 -1.7066  0.0372
 4008TIP3   OH233514   3.201   0.634  13.421 -0.2650 -0.0819  0.2217
 4008TIP3    H133515   3.116   0.607  13.386  0.5196 -0.5828 -1.4147
 4008TIP3    H233516   3.214   0.722  13.385 -0.7601  0.6668  1.7745
 4009TIP3   OH233517   2.439   4.182   2.484 -0.3385  0.2999 -0.1342
 4009TIP3    H133518   2.457   4.265   2.529 -1.5236  1.0209 -0.9099
 4009TIP3    H233519   2.409   4.209   2.397  1.2976 -1.0272 -1.1613
 4010TIP3   OH233520   3.837   5.588  11.044  0.4686  0.3320  0.0894
 4010TIP3    H133521   3.930   5.567  11.042  0.0233 -2.6281  2.5256
 4010TIP3    H233522   3.802   5.554  10.962  1.0714 -1.5553  0.5842
 4011TIP3   OH233523   3.763   6.560  15.907 -0.4110  0.3248 -0.0740
 4011TIP3    H133524   3.735   6.651  15.918 -0.7947  0.1383  0.5467
 4011TIP3    H233525   3.692   6.508  15.945 -0.0344 -0.2246 -0.1076
 4012TIP3   OH233526   0.112   6.149  12.273  0.0582  0.0833  0.3658
 4012TIP3    H133527   0.196   6.131  12.231 -0.1022  1.0829 -0.4240
 4012TIP3    H233528   0.101   6.079  12.336  0.9214 -0.7384 -0.3733
 4013TIP3   OH233529   3.126   1.411   1.721 -0.5826 -0.1380 -0.4066
 4013TIP3    H133530   3.036   1.390   1.747 -0.5688 -1.4703 -1.3735
 4013TIP3    H233531   3.159   1.466   1.793 -2.6754  1.7775 -0.7813
 4014TIP3   OH233532   2.124   4.046   2.055 -0.0697 -0.4605  0.0380
 4014TIP3    H133533   2.134   4.032   1.961  0.1192  0.0564 -0.0198
 4014TIP3    H233534   2.053   4.111   2.063 -1.0332 -1.5130  0.3080
 4015TIP3   OH233535   5.001   3.932  13.781 -0.3403  0.4766  0.0188
 4015TIP3    H133536   5.052   3.994  13.729 -0.8456  0.3717 -0.6057
 4015TIP3    H233537   4.911   3.942  13.750 -0.8283  1.0972  1.5220
 4016TIP3   OH233538   0.213   2.856   3.786  0.5380 -0.5088  0.3743
 4016TIP3    H133539   0.132   2.875   3.832 -0.1454 -1.5197 -0.3607
 4016TIP3    H233540   0.185   2.823   3.701  1.7602  1.1877 -0.7548
 4017TIP3   OH233541   1.332   3.729  14.224 -0.1034 -0.0311 -0.0620
 4017TIP3    H133542   1.396   3.784  14.269  1.8283 -2.3196  0.1545
 4017TIP3    H233543   1.366   3.720  14.135 -1.5660  0.8611 -0.7460
 4018TIP3   OH233544   6.637   3.051  15.120 -0.6334  0.1672 -0.2004
 4018TIP3    H133545   6.688   2.985  15.167 -0.4414  0.0986 -0.5034
 4018TIP3    H233546   6.546   3.035  15.147 -0.7772 -1.1333 -1.3451
 4019TIP3   OH233547   2.666   4.073  13.917  0.0785 -0.3889 -0.0399
 4019TIP3    H133548   2.652   4.021  13.997 -0.3303  0.2422  0.3028
 4019TIP3    H233549   2.762   4.074  13.906  0.1654 -0.1482  0.6662
 4020TIP3   OH233550   3.404   2.711   0.660  0.5282  0.3274  0.2387
 4020TIP3    H133551   3.490   2.739   0.628  0.2975  1.2071  0.3933
 4020TIP3    H233552   3.370   2.786   0.708  0.6589 -0.7951  2.2004
 4021TIP3   OH233553   6.418   3.025  14.686  0.0453 -0.1544 -0.1178
 4021TIP3    H133554   6.325   3.048  14.696  0.0185 -0.5580  0.5894
 4021TIP3    H233555   6.431   3.022  14.591 -0.9351 -1.1806 -0.2386
 4022TIP3   OH233556   0.865   6.296  13.097 -0.5955 -0.2434  0.1570
 4022TIP3    H133557   0.949   6.341  13.107 -0.5809 -0.2234 -0.0536
 4022TIP3    H233558   0.862   6.234  13.170  0.7352 -2.0238 -1.2171
 4023TIP3   OH233559   3.611   4.439  13.589  0.0335  0.0775 -0.2347
 4023TIP3    H133560   3.646   4.351  13.597  0.8144  0.5037  1.6539
 4023TIP3    H233561   3.517   4.429  13.605 -0.2359 -0.6482 -2.1026
 4024TIP3   OH233562   1.145   3.257   0.133  0.3945  0.9101  0.3797
 4024TIP3    H133563   1.066   3.236   0.183 -0.0393  0.1518 -0.5839
 4024TIP3    H233564   1.170   3.344   0.164  0.9647 -0.0637  2.9259
 4025TIP3   OH233565   5.244   1.278  15.291 -0.0190 -0.2343 -0.1829
 4025TIP3    H133566   5.186   1.211  15.327 -1.8233  1.3789  0.0744
 4025TIP3    H233567   5.184   1.343  15.252  1.6705  0.9294 -0.9558
 4026TIP3   OH233568   1.360   3.090   5.657 -0.1018 -0.4298  0.9870
 4026TIP3    H133569   1.289   3.063   5.715 -0.5861 -0.4930  0.3846
 4026TIP3    H233570   1.322   3.085   5.569  0.1478  1.0623  0.7653
 4027TIP3   OH233571   2.651   0.381  15.626  0.6037  0.3090  0.1090
 4027TIP3    H133572   2.674   0.428  15.707 -0.4134  1.2010 -0.0936
 4027TIP3    H233573   2.703   0.424  15.558  1.1149 -0.1377  0.2156
 4028TIP3   OH233574   3.311   0.688  13.047  0.2751  0.0263 -0.2538
 4028TIP3    H133575   3.243   0.742  13.087  2.0409  1.4628  0.9200
 4028TIP3    H233576   3.389   0.705  13.098  1.6737 -1.2070 -1.8686
 4029TIP3   OH233577   3.923   1.663   0.352  0.3981 -0.4654  0.1843
 4029TIP3    H133578   3.842   1.672   0.403 -0.3954  0.9118 -1.2462
 4029TIP3    H233579   3.898   1.613   0.275  0.6984  0.5618 -0.6120
 4030TIP3   OH233580   4.341   2.345  16.806  0.9681  0.3674  0.2544
 4030TIP3    H133581   4.387   2.410  16.753 -0.8155  1.3838 -0.1498
 4030TIP3    H233582   4.362   2.368  16.897  0.2008  1.6795  0.1231
 4031TIP3   OH233583   6.268   4.941  11.108  0.6462 -0.0261  0.1300
 4031TIP3    H133584   6.281   4.920  11.015  0.7708 -0.0130  0.1442
 4031TIP3    H233585   6.233   5.030  11.108  0.3506 -0.1429  0.0814
 4032TIP3   OH233586   5.204   1.649  13.696 -0.7607  0.4715  0.7202
 4032TIP3    H133587   5.139   1.598  13.648  0.6832 -0.9371  0.1895
 4032TIP3    H233588   5.206   1.610  13.783  0.5122 -0.6248  0.2457
 4033TIP3   OH233589   5.726   4.146  12.963 -0.0734 -0.2838 -0.7447
 4033TIP3    H133590   5.813   4.168  12.930 -1.1182  0.3901 -3.2681
 4033TIP3    H233591   5.699   4.070  12.912 -0.8120 -0.7705  0.3224
 4034TIP3   OH233592   3.193   0.071  12.083 -0.8942  0.4959  0.0321
 4034TIP3    H133593   3.129   0.053  12.152 -0.6955  0.3688  0.1850
 4034TIP3    H233594   3.152   0.138  12.029 -0.4412  1.7250  1.1344
 4035TIP3   OH233595   5.871   3.229   4.570 -0.7770  0.2418 -0.0186
 4035TIP3    H133596   5.920   3.263   4.495 -0.8576 -1.3286 -0.8202
 4035TIP3    H233597   5.786   3.273   4.564 -1.2881 -0.8875 -1.7107
 4036TIP3   OH233598   2.644   4.445  14.122 -0.0399  0.0560  0.5237
 4036TIP3    H133599   2.727   4.398  14.127  0.3326  0.7114  0.6787
 4036TIP3    H233600   2.670   4.537  14.112 -0.7206 -0.0234 -2.9354
 4037TIP3   OH233601   4.035   2.528   4.350 -0.1101  0.2950 -0.2184
 4037TIP3    H133602   3.940   2.534   4.351 -0.4169 -2.8157  1.0224
 4037TIP3    H233603   4.057   2.483   4.432  2.5380  1.7532 -0.0092
 4038TIP3   OH233604   0.338   0.412  13.742 -0.0564  0.0426 -0.8552
 4038TIP3    H133605   0.432   0.408  13.722  0.3445  0.9313  0.7275
 4038TIP3    H233606   0.328   0.489  13.798 -1.6953 -0.2029 -0.7590
 4039TIP3   OH233607   2.714   5.893  16.769 -0.2477 -0.4868 -0.4262
 4039TIP3    H133608   2.686   5.968  16.717  2.8195  3.2969  2.7061
 4039TIP3    H233609   2.637   5.870  16.821 -1.2410  0.6744 -1.3283
 4040TIP3   OH233610   6.531   2.239   5.788  0.6219 -0.4569  0.4642
 4040TIP3    H133611   6.449   2.285   5.770  1.1701  1.0883  1.7070
 4040TIP3    H233612   6.522   2.155   5.743 -0.6672  0.6128 -1.3769
 4041TIP3   OH233613   2.513   2.009  17.071  0.1994  0.2868 -0.4651
 4041TIP3    H133614   2.544   2.066  17.142 -1.6535  0.7993  0.0010
 4041TIP3    H233615   2.480   1.931  17.116 -0.2670  0.2791 -0.8042
 4042TIP3   OH233616   6.761   0.700   3.391 -0.7315 -0.2741  0.4079
 4042TIP3    H133617   6.722   0.761   3.454  0.1252  0.5339  0.1747
 4042TIP3    H233618   6.771   0.751   3.311 -2.6670 -1.5415 -0.7176
 4043TIP3   OH233619   3.079   6.527   0.232 -1.1669 -0.0237 -0.3033
 4043TIP3    H133620   3.104   6.449   0.184 -1.2894 -1.1574  1.3952
 4043TIP3    H233621   3.160   6.553   0.278 -1.4350  0.1346  0.0833
 4044TIP3   OH233622   2.881   3.521   1.626  0.2104 -0.2329  0.4712
 4044TIP3    H133623   2.944   3.537   1.556  1.2606 -0.9594  1.2137
 4044TIP3    H233624   2.871   3.426   1.627 -2.5077 -0.0705 -0.9635
 4045TIP3   OH233625   6.341   1.534  15.107 -0.3420  0.8446  0.4600
 4045TIP3    H133626   6.309   1.622  15.126 -0.3309  0.8191  0.6037
 4045TIP3    H233627   6.267   1.490  15.066  0.0073  1.2568 -0.6351
 4046TIP3   OH233628   3.058   0.348   1.190  0.2529 -0.3390  0.0386
 4046TIP3    H133629   3.103   0.270   1.223  0.8986  0.4270  1.0332
 4046TIP3    H233630   2.965   0.329   1.201  0.4330 -0.3891  1.7066
 4047TIP3   OH233631   0.433   0.988   1.222 -0.5992 -0.0677  0.6399
 4047TIP3    H133632   0.387   0.913   1.184  1.7900 -1.6171  0.5806
 4047TIP3    H233633   0.415   0.981   1.316 -0.0643 -0.9683  0.6816
 4048TIP3   OH233634   4.675   1.467  13.870  0.8756 -0.5243  0.2592
 4048TIP3    H133635   4.591   1.481  13.827  1.3870  0.6517 -0.4174
 4048TIP3    H233636   4.672   1.376  13.900 -0.7348 -0.4092  0.5150
 4049TIP3   OH233637   2.978   1.972   4.232  0.2841 -0.2429  0.0795
 4049TIP3    H133638   2.896   2.014   4.205  0.0711 -0.6761  0.0584
 4049TIP3    H233639   3.031   2.044   4.267 -0.5514 -0.1447  1.1785
 4050TIP3   OH233640   5.817   3.302   0.341  0.3241  0.2678 -0.4301
 4050TIP3    H133641   5.793   3.222   0.388  0.1887  0.8143  0.4605
 4050TIP3    H233642   5.815   3.371   0.408 -2.3262  1.5497 -1.6486
 4051TIP3   OH233643   3.475   0.848  10.941 -0.0513  0.1896 -0.3402
 4051TIP3    H133644   3.421   0.880  11.014 -0.4834 -0.4271 -0.3816
 4051TIP3    H233645   3.559   0.825  10.981  0.0554  0.7880 -0.2072
 4052TIP3   OH233646   0.850   6.399   3.175  0.1333  0.0154 -0.1464
 4052TIP3    H133647   0.800   6.437   3.103  0.3745  1.4675  0.4172
 4052TIP3    H233648   0.793   6.407   3.251  0.2116 -0.7185 -0.0044
 4053TIP3   OH233649   1.499   2.633   0.142  0.3368  0.1858  0.6365
 4053TIP3    H133650   1.542   2.638   0.228 -0.3192  2.1246  0.8890
 4053TIP3    H233651   1.527   2.712   0.096 -0.5590 -0.0563 -0.3565
 4054TIP3   OH233652   5.736   4.127  12.175  0.2418  0.1744 -0.0525
 4054TIP3    H133653   5.682   4.114  12.253 -1.8879 -0.4664 -1.5273
 4054TIP3    H233654   5.695   4.201  12.130  1.6143  0.7279 -0.4228
 4055TIP3   OH233655   1.570   5.389  13.832  1.0198  0.4511  0.5004
 4055TIP3    H133656   1.531   5.412  13.748  3.4950  0.1877 -0.8268
 4055TIP3    H233657   1.497   5.390  13.894 -1.5710 -2.3077 -2.1323
 4056TIP3   OH233658   5.115   4.406   0.744 -0.2334  0.3643 -0.4247
 4056TIP3    H133659   5.122   4.474   0.811 -0.7639  0.8302 -0.8298
 4056TIP3    H233660   5.030   4.421   0.704  0.5613  0.8513 -2.0050
 4057TIP3   OH233661   6.805   1.104  12.319 -0.9347  0.3669 -0.3414
 4057TIP3    H133662   6.716   1.091  12.287 -1.2668 -0.2097  0.7666
 4057TIP3    H233663   6.796   1.113  12.414  0.4201 -2.7607  0.2052
 4058TIP3   OH233664   3.933   3.210   3.515 -0.3126  0.2556 -0.3168
 4058TIP3    H133665   4.002   3.149   3.490 -1.3417 -0.5654 -1.2741
 4058TIP3    H233666   3.915   3.190   3.607  0.9677  0.7572  0.0683
 4059TIP3   OH233667   5.293   3.844   1.361  0.1824  0.0042  0.3266
 4059TIP3    H133668   5.357   3.855   1.291 -0.3289 -0.2662 -0.1978
 4059TIP3    H233669   5.262   3.754   1.351 -0.1943  0.0966  0.6379
 4060TIP3   OH233670   1.851   0.051  14.983 -0.1609 -0.1463 -0.5691
 4060TIP3    H133671   1.909  -0.026  14.987 -0.7439 -0.5365  1.6063
 4060TIP3    H233672   1.763   0.015  14.993 -0.4660  0.7632  0.1619
 4061TIP3   OH233673   3.255   5.665   3.009 -0.4101 -0.5406 -0.4798
 4061TIP3    H133674   3.251   5.608   3.086 -1.8015  0.5280  0.2724
 4061TIP3    H233675   3.339   5.710   3.017 -0.8635  0.1149  0.8515
 4062TIP3   OH233676   6.191   1.935  13.513 -0.2370  0.0903  0.7988
 4062TIP3    H133677   6.263   1.918  13.574 -0.7060  3.6256  2.6330
 4062TIP3    H233678   6.112   1.921  13.565 -0.6517  3.1848  1.2022
 4063TIP3   OH233679   2.997   5.458  11.373 -0.4687 -0.7890 -0.1268
 4063TIP3    H133680   3.089   5.479  11.357 -1.1287  0.6615 -2.6715
 4063TIP3    H233681   2.954   5.477  11.289 -3.6832  2.0627  1.9251
 4064TIP3   OH233682   0.446   5.472  13.662  0.7084 -0.0594  0.2960
 4064TIP3    H133683   0.440   5.554  13.613  0.2832  0.3006  0.9368
 4064TIP3    H233684   0.356   5.452  13.687  0.3937 -2.1610 -2.1399
 4065TIP3   OH233685   3.040   1.560  12.035  0.2064 -0.5835  0.0713
 4065TIP3    H133686   3.106   1.573  11.966  0.4702 -1.6916  0.0937
 4065TIP3    H233687   2.961   1.600  12.000 -0.2381 -2.8727 -1.8235
 4066TIP3   OH233688   5.256   2.659  13.233  0.2889 -0.1439 -0.1461
 4066TIP3    H133689   5.162   2.678  13.235 -0.2397 -0.9189 -4.9163
 4066TIP3    H233690   5.297   2.745  13.218  0.2534  0.0548  0.8591
 4067TIP3   OH233691   3.920   0.508  12.552 -0.2476 -0.6790 -0.4799
 4067TIP3    H133692   3.831   0.474  12.544 -0.5583  0.0022  0.0461
 4067TIP3    H233693   3.952   0.511  12.462 -1.2192  0.3078 -0.8110
 4068TIP3   OH233694   6.662   1.772   2.448 -0.5822  0.4722 -0.0783
 4068TIP3    H133695   6.689   1.718   2.374 -1.6762 -0.8633  0.4516
 4068TIP3    H233696   6.708   1.735   2.524  0.8556  2.0838 -0.0956
 4069TIP3   OH233697   4.654   3.598   4.553 -0.1393  0.1732 -0.3561
 4069TIP3    H133698   4.593   3.566   4.620 -0.0198 -0.1545 -0.4005
 4069TIP3    H233699   4.702   3.669   4.597  0.6817 -0.7368  0.2645
 4070TIP3   OH233700   3.056   2.783   5.668 -0.1718 -0.4312 -0.0324
 4070TIP3    H133701   3.050   2.872   5.702 -0.1673 -1.0073  1.5724
 4070TIP3    H233702   3.150   2.766   5.663 -0.1733 -0.3934 -0.1688
 4071TIP3   OH233703   5.838   0.460  10.939  0.2408  0.2922  0.6099
 4071TIP3    H133704   5.868   0.524  10.875  0.1570 -0.4444 -0.1838
 4071TIP3    H233705   5.813   0.383  10.887 -0.1469 -0.2028  1.4947
 4072TIP3   OH233706   3.120   5.820  11.260 -0.4232 -0.0151 -0.1556
 4072TIP3    H133707   3.042   5.839  11.311 -1.2745  3.4155 -2.4444
 4072TIP3    H233708   3.088   5.799  11.172  1.1571 -1.7586 -0.3925
 4073TIP3   OH233709   4.330   4.623  12.321  0.3051  0.3918 -0.2839
 4073TIP3    H133710   4.236   4.610  12.332  0.6171 -2.2028 -0.0648
 4073TIP3    H233711   4.368   4.594  12.404  1.3569  0.8827 -0.5729
 4074TIP3   OH233712   4.850   2.302   3.938 -0.1079 -0.0847 -0.2637
 4074TIP3    H133713   4.862   2.210   3.962  0.4395  0.3072  1.0182
 4074TIP3    H233714   4.919   2.319   3.874  0.8754 -0.1232  0.7588
 4075TIP3   OH233715   1.111   3.710   0.327 -0.1108  0.1611 -0.1424
 4075TIP3    H133716   1.079   3.796   0.353  1.3640  0.6540  0.1777
 4075TIP3    H233717   1.188   3.696   0.383 -0.4900 -1.4991  0.0160
 4076TIP3   OH233718   3.798   1.636  12.190 -0.2453 -0.5299 -0.2366
 4076TIP3    H133719   3.817   1.708  12.250 -2.1641 -1.6517  1.8688
 4076TIP3    H233720   3.826   1.669  12.105  2.5289  1.1796  1.1829
 4077TIP3   OH233721   0.433   0.901   1.485  0.9111 -0.1968 -0.6857
 4077TIP3    H133722   0.483   0.821   1.469  0.0277 -0.6549 -1.2124
 4077TIP3    H233723   0.496   0.961   1.526  1.4668 -1.3171  0.1522
 4078TIP3   OH233724   3.278   2.964   3.687  0.1014  0.2743 -0.1596
 4078TIP3    H133725   3.309   3.052   3.667 -1.2576  0.6122 -0.9277
 4078TIP3    H233726   3.208   2.978   3.752  0.1810 -0.2806  0.0523
 4079TIP3   OH233727   1.653   2.281   4.352  0.7572  0.1547 -0.1965
 4079TIP3    H133728   1.732   2.296   4.300 -0.3929 -0.7275 -2.3240
 4079TIP3    H233729   1.590   2.245   4.289 -1.1280  0.2174  1.5745
 4080TIP3   OH233730   4.118   4.785   3.909 -0.9155 -0.1062  0.0917
 4080TIP3    H133731   4.026   4.759   3.914 -0.5664 -1.3004  0.6495
 4080TIP3    H233732   4.144   4.801   3.999 -0.6579  0.5286 -0.0937
 4081TIP3   OH233733   5.292   2.220   0.296  0.4550  0.1767  0.3409
 4081TIP3    H133734   5.221   2.186   0.241  1.7285 -1.9805 -0.0828
 4081TIP3    H233735   5.346   2.271   0.237  0.5138 -0.1268  0.1300
 4082TIP3   OH233736   6.363   4.404  14.107 -0.3597 -0.3895  0.0118
 4082TIP3    H133737   6.418   4.327  14.122  0.5231  0.5887  2.2109
 4082TIP3    H233738   6.418   4.478  14.132 -1.4042  0.9494 -1.4654
 4083TIP3   OH233739   0.531   4.120   5.465  0.2484  0.1151  0.1776
 4083TIP3    H133740   0.621   4.106   5.435  0.5393 -0.7054  1.3600
 4083TIP3    H233741   0.509   4.040   5.513 -0.8771  0.5930  0.5015
 4084TIP3   OH233742   5.153   6.812  13.576 -0.2403 -0.0021 -0.0794
 4084TIP3    H133743   5.078   6.855  13.534 -1.7719 -3.3961 -1.1870
 4084TIP3    H233744   5.196   6.764  13.506  1.1152 -0.6070  1.1171
 4085TIP3   OH233745   1.562   6.820  14.035 -0.0403  0.3719 -0.1770
 4085TIP3    H133746   1.487   6.875  14.059  1.0815  1.7590  0.2705
 4085TIP3    H233747   1.597   6.789  14.119  0.7545  0.9246 -0.2979
 4086TIP3   OH233748   0.563   5.055   5.638 -0.2008  0.4011 -0.1227
 4086TIP3    H133749   0.478   5.018   5.663 -1.2316  1.6637 -1.5978
 4086TIP3    H233750   0.579   5.123   5.703 -1.0884  1.2078 -0.7341
 4087TIP3   OH233751   2.826   1.099  10.388  0.4673 -0.2406 -0.2242
 4087TIP3    H133752   2.735   1.093  10.419  1.0930  1.4820  2.2741
 4087TIP3    H233753   2.835   1.190  10.359  1.6796 -0.0161  0.7637
 4088TIP3   OH233754   1.332   3.768   1.284 -0.0273 -0.5205  1.0551
 4088TIP3    H133755   1.327   3.698   1.219  1.2381 -0.7203  1.1376
 4088TIP3    H233756   1.248   3.764   1.330 -0.5095 -1.0890  0.1697
 4089TIP3   OH233757   3.076   6.298   5.012  0.3458  0.0004 -0.0496
 4089TIP3    H133758   2.992   6.312   4.968 -1.3395  2.1140  3.3349
 4089TIP3    H233759   3.141   6.299   4.942 -2.3320 -1.0775 -2.7895
 4090TIP3   OH233760   3.055   1.339   1.166 -0.5010 -0.1117  0.3997
 4090TIP3    H133761   3.103   1.353   1.248 -3.5880  0.3231  2.3101
 4090TIP3    H233762   3.004   1.419   1.154 -0.4425 -0.3281 -1.7924
 4091TIP3   OH233763   3.448   2.538   4.843 -0.0897 -0.3080  0.1229
 4091TIP3    H133764   3.385   2.500   4.905 -1.4659 -0.7346 -1.4806
 4091TIP3    H233765   3.406   2.619   4.813  0.9535  0.3418  0.3560
 4092TIP3   OH233766   4.949   2.531   4.713  0.1791 -0.1379  0.2668
 4092TIP3    H133767   5.001   2.533   4.794  0.1638  0.0199  0.2711
 4092TIP3    H233768   4.992   2.463   4.660 -1.4604 -2.3053  1.5184
 4093TIP3   OH233769   0.129   5.113  11.336 -0.1343 -0.2517  0.6779
 4093TIP3    H133770   0.093   5.182  11.391 -0.5718 -1.5289  2.0580
 4093TIP3    H233771   0.051   5.069  11.300  0.0813  1.8464 -2.7873
 4094TIP3   OH233772   5.501   4.496  16.077 -0.1015 -0.3716 -0.2931
 4094TIP3    H133773   5.426   4.547  16.106 -0.1638 -0.5416 -0.1588
 4094TIP3    H233774   5.526   4.536  15.993 -0.0547 -0.0237 -0.1130
 4095TIP3   OH233775   2.444   4.140   0.586  0.7528  0.2699 -0.4436
 4095TIP3    H133776   2.484   4.217   0.544 -0.6021  1.3996  0.2485
 4095TIP3    H233777   2.489   4.131   0.669  0.9226  0.3072 -0.5321
 4096TIP3   OH233778   4.201   1.397   4.604  0.0578  0.6974 -0.0026
 4096TIP3    H133779   4.161   1.404   4.517  1.7140 -0.5149 -0.9147
 4096TIP3    H233780   4.141   1.341   4.653 -0.6251  0.9527 -0.5247
 4097TIP3   OH233781   0.045   4.316   1.138 -0.5805  0.0953 -0.1843
 4097TIP3    H133782   0.127   4.311   1.188  0.0962 -0.8350 -1.3121
 4097TIP3    H233783   0.051   4.399   1.091  0.3890 -0.5803 -1.3120
 4098TIP3   OH233784   3.493   1.943  17.094 -0.1075 -0.1317  0.2886
 4098TIP3    H133785   3.405   1.921  17.063 -0.4743 -0.0686  1.2461
 4098TIP3    H233786   3.479   2.015  17.156  0.7934  1.0465 -0.8329
 4099TIP3   OH233787   6.442   2.245   1.837 -0.5831  0.2615 -0.1879
 4099TIP3    H133788   6.420   2.324   1.886 -0.2086  0.3185 -0.1077
 4099TIP3    H233789   6.415   2.265   1.747  0.6536  0.9674 -0.4164
 4100TIP3   OH233790   3.238   3.354  13.205  0.5179  0.2022  0.3234
 4100TIP3    H133791   3.175   3.376  13.274  0.1391  0.2187 -0.0206
 4100TIP3    H233792   3.308   3.419  13.215  0.5042  0.1528  0.7411
 4101TIP3   OH233793   0.726   4.991   5.395  0.0790 -0.2819 -0.2043
 4101TIP3    H133794   0.719   5.076   5.352  2.3547 -0.1328 -0.4063
 4101TIP3    H233795   0.658   4.992   5.463  0.0085  1.6404 -0.2575
 4102TIP3   OH233796   0.439   5.287   3.206  0.0944  0.4272 -0.3008
 4102TIP3    H133797   0.391   5.288   3.289  1.4454 -2.1773  0.6240
 4102TIP3    H233798   0.434   5.377   3.175 -0.6499  1.4751  2.4989
 4103TIP3   OH233799   6.144   5.405   2.907  0.0022 -0.6701  0.5570
 4103TIP3    H133800   6.099   5.448   2.981  0.4829 -1.4587  1.3200
 4103TIP3    H233801   6.073   5.374   2.851 -0.3963  1.8751 -0.5286
 4104TIP3   OH233802   3.284   1.849  12.539 -0.1605 -0.5961 -0.8391
 4104TIP3    H133803   3.276   1.903  12.617 -0.4822 -0.3890 -1.0135
 4104TIP3    H233804   3.375   1.818  12.540 -0.0505 -0.2633 -0.6039
 4105TIP3   OH233805   3.248   1.054   0.481  0.0349 -0.0725 -0.2820
 4105TIP3    H133806   3.277   0.970   0.446  0.4245 -0.1923  0.3211
 4105TIP3    H233807   3.262   1.047   0.575  2.8892  1.7079 -0.4468
 4106TIP3   OH233808   4.486   3.556  11.282  0.6932 -0.4585 -0.1183
 4106TIP3    H133809   4.568   3.507  11.276  0.4393 -0.8990 -0.0808
 4106TIP3    H233810   4.512   3.646  11.299  1.1944 -0.4221 -1.0436
 4107TIP3   OH233811   1.414   2.412  17.002 -0.0220  0.5401  0.0369
 4107TIP3    H133812   1.385   2.321  17.001  0.3007  0.4366 -0.6618
 4107TIP3    H233813   1.416   2.436  17.094  1.6728 -0.7253  0.3806
 4108TIP3   OH233814   2.657   1.665   5.788 -0.4541  0.1316 -0.1619
 4108TIP3    H133815   2.575   1.713   5.779 -0.5831 -0.3298 -1.6800
 4108TIP3    H233816   2.724   1.728   5.759 -0.4597 -0.0589 -0.5975
 4109TIP3   OH233817   2.100   6.088   0.476 -0.0794  0.2276  0.4965
 4109TIP3    H133818   2.092   6.034   0.555 -2.1391  0.9384  0.8343
 4109TIP3    H233819   2.182   6.135   0.487  1.1963 -1.8913  0.7549
 4110TIP3   OH233820   0.015   1.117   5.121 -0.1037 -0.1681 -0.1575
 4110TIP3    H133821  -0.024   1.086   5.203  0.6255  0.7234  0.5393
 4110TIP3    H233822  -0.038   1.193   5.097 -2.3297 -2.1819 -2.2258
 4111TIP3   OH233823   3.935   1.678  12.465 -0.0919  0.5222 -0.3519
 4111TIP3    H133824   3.963   1.765  12.439  0.8551  0.0224 -1.0645
 4111TIP3    H233825   3.852   1.692  12.511 -1.9780  1.4772 -3.7027
 4112TIP3   OH233826   2.252   2.788   4.080  0.4948 -0.1006  0.0378
 4112TIP3    H133827   2.238   2.770   3.987  0.8121  2.1352 -0.4789
 4112TIP3    H233828   2.215   2.875   4.095  0.4190 -0.4174  2.0298
 4113TIP3   OH233829   3.913   2.623  14.265  0.2267  0.6042  0.0331
 4113TIP3    H133830   3.823   2.654  14.276  0.6211  2.0366 -0.5459
 4113TIP3    H233831   3.903   2.536  14.225 -0.9183 -0.3237  2.1557
 4114TIP3   OH233832   6.608   6.537   3.767  0.5186  0.0954  0.1604
 4114TIP3    H133833   6.651   6.456   3.741 -0.9794 -0.6688 -0.0340
 4114TIP3    H233834   6.523   6.535   3.723 -0.2327  0.9506  1.4934
 4115TIP3   OH233835   4.403   3.933   1.752 -0.5099  0.3823  0.2159
 4115TIP3    H133836   4.465   3.886   1.695  0.2220  1.5844 -0.0036
 4115TIP3    H233837   4.395   3.877   1.829 -0.5308 -0.6546 -0.5075
 4116TIP3   OH233838   0.642   6.480   4.256 -0.1138  0.8374 -0.0051
 4116TIP3    H133839   0.705   6.535   4.209 -0.7846 -0.1552 -2.1833
 4116TIP3    H233840   0.608   6.420   4.190 -1.0470 -0.7385  1.8121
 4117TIP3   OH233841   3.929   0.675  13.154  0.1870  0.3585 -0.5741
 4117TIP3    H133842   3.895   0.763  13.141 -1.7409 -0.1249  0.7035
 4117TIP3    H233843   3.917   0.658  13.247  1.0144 -1.0712 -0.6974
 4118TIP3   OH233844   2.889   1.559   4.289 -0.5269  0.1085  0.8710
 4118TIP3    H133845   2.924   1.494   4.349 -1.2086 -2.2346 -1.0983
 4118TIP3    H233846   2.803   1.525   4.264 -0.6538  1.4322 -0.7067
 4119TIP3   OH233847   3.157   2.886  13.124 -0.7001 -1.0854  0.0737
 4119TIP3    H133848   3.113   2.893  13.039 -1.1630 -0.8447  0.3311
 4119TIP3    H233849   3.201   2.970  13.135 -5.0181  1.2083  2.4782
 4120TIP3   OH233850   5.696   0.568   6.261  0.0499 -0.3131  0.2305
 4120TIP3    H133851   5.699   0.663   6.276 -1.0021 -0.3120  0.5203
 4120TIP3    H233852   5.604   0.545   6.272  0.0943 -1.1827 -0.9924
 4121TIP3   OH233853   4.344   4.003  12.572  0.0023 -0.7258 -0.2269
 4121TIP3    H133854   4.273   4.004  12.636  1.3005  0.1040  1.2939
 4121TIP3    H233855   4.350   4.094  12.541  1.5798 -0.2859  1.1504
 4122TIP3   OH233856   1.545   1.773  15.801  0.5507  0.3821  0.8906
 4122TIP3    H133857   1.547   1.690  15.753  1.6245  1.8003 -1.7208
 4122TIP3    H233858   1.634   1.783  15.834  0.2357  0.1998  1.8290
 4123TIP3   OH233859   0.142   1.071  14.453 -0.3748 -0.0550  0.7296
 4123TIP3    H133860   0.082   1.146  14.445 -0.8533 -0.4543  0.4895
 4123TIP3    H233861   0.163   1.048  14.363  0.2683  0.1796  0.8193
 4124TIP3   OH233862   4.506   5.164  13.089  0.0933  0.1990 -0.2438
 4124TIP3    H133863   4.549   5.109  13.023 -0.1823 -0.2977 -0.0157
 4124TIP3    H233864   4.453   5.103  13.140  0.3028  0.5822  0.4407
 4125TIP3   OH233865   0.376   6.618   1.440  0.7864  0.0508 -0.2171
 4125TIP3    H133866   0.321   6.687   1.478  1.8215  1.1090 -0.5770
 4125TIP3    H233867   0.331   6.593   1.359  0.8419  0.9348 -0.5318
 4126TIP3   OH233868   2.439   5.066  15.507  0.5347  0.4207 -0.2972
 4126TIP3    H133869   2.413   4.982  15.544  0.0853 -0.3934 -2.3497
 4126TIP3    H233870   2.503   5.043  15.439 -0.3242  1.6283 -1.5610
 4127TIP3   OH233871   4.822   5.580  14.265  0.3998 -0.1509  0.4179
 4127TIP3    H133872   4.737   5.593  14.306  0.3629  1.2108 -0.0691
 4127TIP3    H233873   4.885   5.587  14.337  0.1720 -0.2221  0.6231
 4128TIP3   OH233874   6.509   0.550   1.805  0.5069 -0.0774  0.1163
 4128TIP3    H133875   6.437   0.580   1.861  0.6001  0.9473 -0.2983
 4128TIP3    H233876   6.537   0.468   1.845  0.0245  0.2162  1.0974
 4129TIP3   OH233877   6.374   1.637  14.360  0.2456 -0.4960 -0.9289
 4129TIP3    H133878   6.439   1.689  14.314 -0.1711  2.1854  1.2982
 4129TIP3    H233879   6.326   1.592  14.290  0.5579  2.2368 -3.0502
 4130TIP3   OH233880   3.573   6.450  12.671 -0.3283  0.3766 -0.6141
 4130TIP3    H133881   3.482   6.428  12.650 -0.9227  2.2036 -0.0940
 4130TIP3    H233882   3.624   6.404  12.605 -1.5152 -1.5922 -0.2796
 4131TIP3   OH233883   2.932   4.422  13.523  0.1448 -0.1424 -0.9761
 4131TIP3    H133884   3.021   4.450  13.545 -0.1258  0.9898 -1.2035
 4131TIP3    H233885   2.903   4.487  13.459 -0.5039 -1.0576 -1.6273
 4132TIP3   OH233886   4.622   3.490   0.294  0.3945  0.4213  0.4843
 4132TIP3    H133887   4.658   3.547   0.226 -0.1430  0.5898  0.3360
 4132TIP3    H233888   4.639   3.536   0.376 -0.6206  1.1289  0.3207
 4133TIP3   OH233889   1.023   6.852   2.369 -0.2493 -0.0425  0.5686
 4133TIP3    H133890   0.978   6.829   2.450  0.5582  0.0591  1.0616
 4133TIP3    H233891   1.052   6.768   2.333 -2.1084 -0.2694 -0.5603
 4134TIP3   OH233892   0.556   6.409  16.384 -0.4498  0.4342  0.0123
 4134TIP3    H133893   0.604   6.448  16.311  1.3166 -1.9086 -0.2085
 4134TIP3    H233894   0.467   6.398  16.351 -0.0914  0.9420 -1.1808
 4135TIP3   OH233895   2.538   2.791   5.400 -0.0586  0.2059 -0.5903
 4135TIP3    H133896   2.607   2.856   5.403 -0.2688  0.3875  1.5569
 4135TIP3    H233897   2.460   2.840   5.372  0.2609  0.3643 -1.2361
 4136TIP3   OH233898   4.195   4.100  16.774  0.1909 -0.3585  0.1765
 4136TIP3    H133899   4.244   4.029  16.733 -0.2283  0.4451 -1.8189
 4136TIP3    H233900   4.187   4.166  16.706  0.2969  1.5008  1.8628
 4137TIP3   OH233901   2.946   3.759  13.262  0.4771 -0.5048 -0.5021
 4137TIP3    H133902   2.906   3.844  13.242  0.8802 -0.0062  0.7402
 4137TIP3    H233903   3.033   3.764  13.223  0.4186 -0.4405 -0.6268
 4138TIP3   OH233904   0.021   5.784   6.089  0.4848  0.0340  0.2772
 4138TIP3    H133905  -0.015   5.737   6.163 -0.0481  0.0002  0.0025
 4138TIP3    H233906   0.113   5.797   6.111  0.0209  1.3523  1.6317
 4139TIP3   OH233907   6.247   1.699   3.454 -0.3889  0.3082  0.0104
 4139TIP3    H133908   6.214   1.745   3.531  1.4264  0.7323  0.5943
 4139TIP3    H233909   6.265   1.610   3.484  2.3678  1.0179  0.7766
 4140TIP3   OH233910   4.987   0.715   1.860 -0.1509  0.5578 -0.1604
 4140TIP3    H133911   4.920   0.759   1.912  0.1107 -0.8857  1.4920
 4140TIP3    H233912   5.070   0.748   1.893  0.0268 -0.5828  0.5871
 4141TIP3   OH233913   1.913   6.297   2.358  0.5265 -0.3283 -0.0267
 4141TIP3    H133914   1.939   6.235   2.290  4.2906  0.3752  0.5530
 4141TIP3    H233915   1.916   6.382   2.315 -0.0008 -0.1392  0.3074
 4142TIP3   OH233916   1.762   3.562   2.062  0.2127  0.5145  0.4507
 4142TIP3    H133917   1.715   3.544   1.981  1.9282 -1.3082 -0.2183
 4142TIP3    H233918   1.816   3.638   2.042  1.1589 -0.3575 -0.3830
 4143TIP3   OH233919   2.476   6.396   3.042  0.4010  0.2876  0.2058
 4143TIP3    H133920   2.418   6.460   3.083  0.0039  1.3879 -1.9350
 4143TIP3    H233921   2.533   6.367   3.113 -1.1876  0.9633  1.8408
 4144TIP3   OH233922   4.042   4.995  14.842  0.2175 -0.3189  0.0162
 4144TIP3    H133923   3.978   4.967  14.777  0.4394  0.6741 -0.6635
 4144TIP3    H233924   4.078   4.914  14.877  0.8774 -0.9207 -1.8864
 4145TIP3   OH233925   1.575   4.419  14.129  0.1058  0.3657  0.9266
 4145TIP3    H133926   1.644   4.437  14.192  1.5467 -0.3618 -0.3788
 4145TIP3    H233927   1.578   4.324  14.117  0.8361  0.6173 -1.2543
 4146TIP3   OH233928   2.752   4.256   2.833  0.1200  0.5527  0.9355
 4146TIP3    H133929   2.739   4.171   2.876 -0.3173  0.8588  1.4245
 4146TIP3    H233930   2.844   4.256   2.807 -0.0411 -0.3546  0.2985
 4147TIP3   OH233931   4.967   6.480  10.295  0.1203 -0.0054  0.0289
 4147TIP3    H133932   5.006   6.539  10.230 -1.4824  0.6285 -0.4139
 4147TIP3    H233933   4.931   6.538  10.362 -0.1862 -0.5511  0.3491
 4148TIP3   OH233934   4.944   6.248   0.618  0.4400  0.0433  0.3858
 4148TIP3    H133935   4.904   6.303   0.686  1.5034  0.1308  0.9605
 4148TIP3    H233936   4.869   6.208   0.573 -0.3483  1.6071  0.2269
 4149TIP3   OH233937   4.693   5.953  13.082  0.3817 -0.0786 -0.0020
 4149TIP3    H133938   4.730   6.040  13.097  0.5766 -0.0207 -0.7740
 4149TIP3    H233939   4.638   5.963  13.005  0.2901 -0.6057 -0.0102
 4150TIP3   OH233940   3.075   2.411  15.729 -0.1532 -0.0693 -0.3324
 4150TIP3    H133941   3.094   2.463  15.651 -0.6392  1.9353  0.8164
 4150TIP3    H233942   3.153   2.418  15.783 -0.0723 -0.8921 -0.3242
 4151TIP3   OH233943   1.677   0.033  11.773 -0.4514  0.2093 -0.5478
 4151TIP3    H133944   1.671   0.070  11.861 -2.7027 -0.1694 -0.4808
 4151TIP3    H233945   1.741   0.089  11.728 -0.1223  1.1198  0.9566
 4152TIP3   OH233946   0.618   5.598  16.939 -0.1504 -0.1208  0.9155
 4152TIP3    H133947   0.642   5.567  16.852  0.4631  1.0876  0.6333
 4152TIP3    H233948   0.675   5.549  16.999 -1.0568 -1.4713  0.7316
 4153TIP3   OH233949   5.438   6.498  12.812  0.3580  0.0881 -0.1859
 4153TIP3    H133950   5.353   6.461  12.790 -0.2553  0.7436  0.9650
 4153TIP3    H233951   5.468   6.446  12.887  0.4046  0.6203  0.1718
 4154TIP3   OH233952   3.995   6.408   5.933 -0.1864 -0.1506  0.0917
 4154TIP3    H133953   4.057   6.476   5.904  0.9352 -1.0585  0.2974
 4154TIP3    H233954   3.909   6.442   5.907  0.2611  1.6851  0.8434
 4155TIP3   OH233955   4.083   3.249  14.971  0.4683 -0.0693 -0.2115
 4155TIP3    H133956   4.129   3.290  14.897 -1.1771 -0.9652 -1.8213
 4155TIP3    H233957   4.120   3.160  14.975 -0.7165 -0.6384 -1.2137
 4156TIP3   OH233958   2.500   6.074  10.788  0.7324  0.0178 -0.2159
 4156TIP3    H133959   2.540   6.151  10.747 -0.2298  0.3192 -0.6368
 4156TIP3    H233960   2.532   6.075  10.878  1.4258  0.4054 -0.4636
 4157TIP3   OH233961   5.658   0.142   2.400  0.1463 -0.5939 -0.5900
 4157TIP3    H133962   5.746   0.121   2.368  0.4454  0.3674 -0.4370
 4157TIP3    H233963   5.665   0.133   2.495  0.4690  0.7639 -0.4566
 4158TIP3   OH233964   0.095   4.292   1.852 -0.0910 -0.7973 -0.2010
 4158TIP3    H133965   0.187   4.265   1.860 -0.0047 -0.7465 -0.9934
 4158TIP3    H233966   0.099   4.385   1.832 -0.3698 -0.3856  1.5086
 4159TIP3   OH233967   1.325   1.647   4.672 -0.0251  0.6203 -0.1877
 4159TIP3    H133968   1.339   1.706   4.597 -1.7051  0.5058 -0.6450
 4159TIP3    H233969   1.250   1.594   4.646  0.6634 -0.8681  0.7535
 4160TIP3   OH233970   0.456   1.810  12.836  0.1197  0.4275  0.2955
 4160TIP3    H133971   0.393   1.850  12.896 -0.3866  0.5770 -0.3149
 4160TIP3    H233972   0.485   1.731  12.880  0.7886  1.2223  1.3273
 4161TIP3   OH233973   3.789   1.119   0.946 -0.2340 -0.0533 -0.4102
 4161TIP3    H133974   3.779   1.037   0.897  2.6434 -0.2450 -0.8205
 4161TIP3    H233975   3.867   1.105   1.000  1.0624  2.8306 -1.3872
 4162TIP3   OH233976   0.414   4.968  12.830 -0.3172 -0.4119  0.1123
 4162TIP3    H133977   0.486   4.924  12.874  0.0915  0.9479  0.8682
 4162TIP3    H233978   0.378   5.028  12.895  0.1585  1.4944 -1.2613
 4163TIP3   OH233979   0.183   5.420   4.901  0.1183  0.1124  0.4338
 4163TIP3    H133980   0.266   5.459   4.874 -0.0828 -1.2368 -2.5086
 4163TIP3    H233981   0.208   5.342   4.951  0.6062  0.2733  0.4487
 4164TIP3   OH233982   4.801   6.696  15.140  0.4104  0.0505 -0.0883
 4164TIP3    H133983   4.779   6.745  15.061  1.9944  0.9054 -0.0427
 4164TIP3    H233984   4.849   6.620  15.108  1.4960  0.6581  0.0539
 4165TIP3   OH233985   0.268   1.159  14.821 -0.3666  0.2051 -0.4227
 4165TIP3    H133986   0.318   1.085  14.786  0.4142  0.7204 -0.4327
 4165TIP3    H233987   0.183   1.122  14.843 -0.2144 -0.5518 -1.0444
 4166TIP3   OH233988   6.617   3.989  11.200 -0.0486 -0.6067  0.3867
 4166TIP3    H133989   6.606   3.985  11.295 -1.0757  0.4395  0.3289
 4166TIP3    H233990   6.712   3.986  11.187  0.4723  3.3759  1.7384
 4167TIP3   OH233991   3.530   0.484  13.880  0.1560  0.4471  0.1466
 4167TIP3    H133992   3.475   0.410  13.856  2.4202 -1.0702 -0.7050
 4167TIP3    H233993   3.580   0.452  13.956  1.1320  1.1008 -0.2108
 4168TIP3   OH233994   4.752   6.534  11.452 -0.1447 -0.3900  0.0174
 4168TIP3    H133995   4.750   6.611  11.395 -1.1093  1.1295  1.9728
 4168TIP3    H233996   4.829   6.546  11.506 -0.3350 -0.7720  0.3778
 4169TIP3   OH233997   5.566   3.099   2.682  0.2950  0.2207  0.0801
 4169TIP3    H133998   5.567   3.177   2.738 -1.8325 -0.6900  1.5244
 4169TIP3    H233999   5.473   3.079   2.671  0.7652 -1.4119 -1.2834
 4170TIP3   OH234000   5.325   5.379   1.327 -0.1511 -0.6877 -0.2208
 4170TIP3    H134001   5.263   5.347   1.392 -0.0724  0.8330  0.6639
 4170TIP3    H234002   5.410   5.375   1.371 -0.1103  0.4438 -0.1738
 4171TIP3   OH234003   3.992   1.604  16.432  0.0111  0.1935 -0.7391
 4171TIP3    H134004   3.950   1.649  16.359 -0.3511  0.1733 -0.5430
 4171TIP3    H234005   3.974   1.511  16.417 -1.0568  0.2692 -0.0089
 4172TIP3   OH234006   5.546   2.716  11.355 -0.6678  0.4488 -0.1189
 4172TIP3    H134007   5.542   2.807  11.326 -0.8049 -0.0768 -1.8226
 4172TIP3    H234008   5.476   2.709  11.420 -1.7757  1.1430 -1.1948
 4173TIP3   OH234009   3.756   1.333   2.940 -0.3596 -0.5039  0.0882
 4173TIP3    H134010   3.845   1.336   2.905 -1.1722  0.8022 -2.0509
 4173TIP3    H234011   3.767   1.313   3.033  2.1800  0.1587 -0.0090
 4174TIP3   OH234012   3.783   3.584  13.177 -0.2595 -0.4939 -0.0668
 4174TIP3    H134013   3.869   3.615  13.146  0.0910 -1.0249  0.3504
 4174TIP3    H234014   3.740   3.663  13.211  1.3601 -0.6702  2.7223
 4175TIP3   OH234015   2.798   2.418   5.096 -0.2368  0.2321 -0.0734
 4175TIP3    H134016   2.777   2.446   5.185  0.3936  1.0237 -0.1679
 4175TIP3    H234017   2.855   2.486   5.062 -0.3252 -0.1580 -1.0281
 4176TIP3   OH234018   0.685   0.766   2.329  0.3964 -0.0491 -0.0572
 4176TIP3    H134019   0.740   0.688   2.329  1.2732  0.5391  1.0499
 4176TIP3    H234020   0.727   0.825   2.268 -0.8223 -0.7680 -1.6739
 4177TIP3   OH234021   6.834   1.930  15.019 -0.6608  0.1110 -0.6639
 4177TIP3    H134022   6.819   2.018  15.052 -1.0302  0.2321 -1.1472
 4177TIP3    H234023   6.778   1.875  15.074  1.8409 -0.2590  1.7207
 4178TIP3   OH234024   4.398   6.062  13.028  0.0881  0.2174 -0.0101
 4178TIP3    H134025   4.405   6.145  12.981 -1.7004  0.8194  0.6960
 4178TIP3    H234026   4.400   6.086  13.120  2.2966 -0.8376  0.2794
 4179TIP3   OH234027   2.418   6.099  11.496 -0.0129  0.6279  0.3054
 4179TIP3    H134028   2.476   6.125  11.567 -0.9758 -2.3470  2.3773
 4179TIP3    H234029   2.341   6.155  11.507  0.1101  0.6384  1.2205
 4180TIP3   OH234030   6.355   4.928  12.650  0.6775  0.1171 -0.1703
 4180TIP3    H134031   6.279   4.930  12.708 -0.6033  0.4034 -1.7975
 4180TIP3    H234032   6.382   5.019  12.642  0.0785  0.2446 -0.9473
 4181TIP3   OH234033   5.987   6.643   0.956 -0.0708  0.3886 -0.0524
 4181TIP3    H134034   5.919   6.631   0.890  0.2622  0.6673 -0.4496
 4181TIP3    H234035   5.941   6.681   1.031 -0.4024  0.3220 -0.2205
 4182TIP3   OH234036   1.909   0.863  15.169  0.1258 -0.2613 -0.0407
 4182TIP3    H134037   1.916   0.853  15.264 -0.8616 -0.4433  0.0174
 4182TIP3    H234038   1.833   0.920  15.156  0.8504  0.6034 -0.6946
 4183TIP3   OH234039   5.539   3.696  16.770  0.1634  0.1086 -0.3355
 4183TIP3    H134040   5.507   3.625  16.715  2.1303 -2.3518  1.4870
 4183TIP3    H234041   5.624   3.719  16.732 -0.2207  1.1691 -0.5927
 4184TIP3   OH234042   3.600   2.294   1.754 -0.0712 -0.4688  0.3897
 4184TIP3    H134043   3.534   2.328   1.694  0.1381  0.3861  0.6353
 4184TIP3    H234044   3.594   2.199   1.745 -1.1306 -0.3892  0.1972
 4185TIP3   OH234045   0.002   5.359  13.071 -0.0035 -0.1281 -0.2110
 4185TIP3    H134046  -0.020   5.435  13.017  0.3961  0.6400  0.6798
 4185TIP3    H234047   0.044   5.298  13.011 -0.3716  0.3323 -0.9497
 4186TIP3   OH234048   5.007   6.104  12.988 -0.0923  0.7736 -0.2333
 4186TIP3    H134049   5.070   6.156  12.938  0.4943  1.1593  0.8656
 4186TIP3    H234050   4.937   6.085  12.926  0.6762  1.1103 -1.2312
 4187TIP3   OH234051   5.601   2.789   4.217 -0.7671 -0.5518 -0.1611
 4187TIP3    H134052   5.590   2.779   4.312 -2.8599 -0.1995 -0.3144
 4187TIP3    H234053   5.677   2.846   4.208 -1.2443  0.3856  1.3585
 4188TIP3   OH234054   1.450   5.004  14.473 -0.0410  0.0986  0.0017
 4188TIP3    H134055   1.395   5.010  14.551 -0.2632 -0.5460 -0.0989
 4188TIP3    H234056   1.523   5.064  14.490 -1.9997  2.9797 -0.9056
 4189TIP3   OH234057   3.147   2.750   4.117 -0.4785  0.1114 -0.1904
 4189TIP3    H134058   3.206   2.816   4.154 -0.0761 -1.1821  1.6355
 4189TIP3    H234059   3.201   2.700   4.057  0.6198 -1.5290  2.0048
 4190TIP3   OH234060   4.088   5.331  14.242  0.0704 -0.2255  0.1192
 4190TIP3    H134061   4.034   5.293  14.311  1.4140 -2.4602  0.0291
 4190TIP3    H234062   4.151   5.263  14.220  1.0139  1.1834 -1.8837
 4191TIP3   OH234063   5.023   0.845  15.202 -0.2907 -0.2926  0.1114
 4191TIP3    H134064   5.013   0.843  15.107 -0.7655 -0.6372  0.1587
 4191TIP3    H234065   4.959   0.781  15.233 -0.8288  0.5267  0.7186
 4192TIP3   OH234066   6.696   4.155   2.838  0.1116 -0.2936  0.2719
 4192TIP3    H134067   6.730   4.119   2.757  0.1500  0.8620 -0.2437
 4192TIP3    H234068   6.615   4.200   2.813  0.8930  1.3764  0.5601
 4193TIP3   OH234069   4.079   6.339   0.251  0.1571 -0.1151  0.1739
 4193TIP3    H134070   4.134   6.262   0.240 -0.7508 -0.7290 -0.2251
 4193TIP3    H234071   4.013   6.331   0.182 -0.4806  0.5465  0.6959
 4194TIP3   OH234072   4.520   6.611  12.173 -0.3664  0.7377  0.5999
 4194TIP3    H134073   4.485   6.522  12.164  1.0032  0.1043  1.1966
 4194TIP3    H234074   4.472   6.648  12.246 -1.6551  0.8699 -0.2853
 4195TIP3   OH234075   5.463   2.801  15.693  0.1098 -0.1402 -0.6358
 4195TIP3    H134076   5.489   2.860  15.622 -0.9604 -1.5141 -2.2494
 4195TIP3    H234077   5.496   2.715  15.667 -0.0925 -0.6478  0.6698
 4196TIP3   OH234078   3.550   1.114  12.754  1.0770 -0.2551  0.4212
 4196TIP3    H134079   3.618   1.178  12.773  0.2168  0.6778  0.4254
 4196TIP3    H234080   3.535   1.122  12.660  0.8798 -0.3580  0.4438
 4197TIP3   OH234081   6.614   5.666  17.010  0.3578  0.4393 -0.0521
 4197TIP3    H134082   6.645   5.580  16.981  0.4313  0.3868  0.1780
 4197TIP3    H234083   6.603   5.716  16.929  0.2621  0.1960 -0.1926
 4198TIP3   OH234084   3.538   2.543  17.050  1.1768 -0.3854 -0.1309
 4198TIP3    H134085   3.483   2.473  17.086 -0.6896  0.9051 -0.3637
 4198TIP3    H234086   3.476   2.608  17.018  2.8637  1.1612 -0.3882
 4199TIP3   OH234087   6.059   0.356  16.504  0.0645 -0.4134 -0.2067
 4199TIP3    H134088   5.967   0.330  16.502  0.3183 -1.3422 -2.3540
 4199TIP3    H234089   6.075   0.380  16.596 -2.5777  0.8700  0.0358
 4200TIP3   OH234090   3.047   4.327  10.584 -0.2281 -0.2951  0.1816
 4200TIP3    H134091   2.994   4.403  10.559 -1.1078 -0.4083  1.6018
 4200TIP3    H234092   3.103   4.311  10.508  1.3331  2.9068  0.4715
 4201TIP3   OH234093   2.546   1.208   0.407  0.0965 -0.2234  0.4718
 4201TIP3    H134094   2.564   1.240   0.496 -1.4556  0.7743  0.4589
 4201TIP3    H234095   2.628   1.167   0.380  1.6812  2.3003  1.1347
 4202TIP3   OH234096   6.593   4.758   2.080  0.1801  0.2293 -0.3200
 4202TIP3    H134097   6.542   4.695   2.130 -1.3731  0.8352 -1.0742
 4202TIP3    H234098   6.671   4.710   2.052 -0.3909 -0.9740  0.1278
 4203TIP3   OH234099   2.325   2.675   1.459  1.2313 -0.1110  0.2328
 4203TIP3    H134100   2.416   2.676   1.431  1.5534 -0.5268  1.1988
 4203TIP3    H234101   2.329   2.691   1.554  0.3156 -0.2438  0.3052
 4204TIP3   OH234102   5.464   5.096  14.024  0.3122  0.2414 -0.8318
 4204TIP3    H134103   5.372   5.101  13.999  0.2034  0.5764 -0.3643
 4204TIP3    H234104   5.469   5.024  14.086  0.3645  0.2349 -0.8433
 4205TIP3   OH234105   2.770   5.708   4.759 -0.4563  0.3157 -0.2228
 4205TIP3    H134106   2.811   5.642   4.814 -1.0226 -1.5940 -1.9457
 4205TIP3    H234107   2.838   5.734   4.697  0.2067  2.5187  1.3166
 4206TIP3   OH234108   5.179   6.502  14.032 -0.6039  0.2652  0.4436
 4206TIP3    H134109   5.102   6.468  13.986 -0.8116 -1.5415  2.0129
 4206TIP3    H234110   5.149   6.584  14.072 -1.3614  0.1802  0.0625
 4207TIP3   OH234111   5.815   2.756  11.792  0.3508  0.1778  0.5627
 4207TIP3    H134112   5.800   2.672  11.835  0.3061  0.7488  1.7049
 4207TIP3    H234113   5.803   2.738  11.699 -0.4256 -0.9144  0.8535
 4208TIP3   OH234114   1.635   1.204   1.064 -0.1561  0.5627 -0.5171
 4208TIP3    H134115   1.707   1.260   1.036  0.1533  0.0557 -0.7426
 4208TIP3    H234116   1.609   1.240   1.149  1.6199 -0.3934  0.4905
 4209TIP3   OH234117   5.092   5.278  15.199 -0.1719 -0.4855  0.0864
 4209TIP3    H134118   5.065   5.272  15.291  0.4769  0.1231  0.3258
 4209TIP3    H234119   5.055   5.361  15.169  0.4358 -0.2066  0.0864
 4210TIP3   OH234120   4.290   4.154  11.491 -0.5418  0.0448  0.6647
 4210TIP3    H134121   4.310   4.244  11.516 -1.1205 -0.0103  1.3426
 4210TIP3    H234122   4.217   4.162  11.429  1.0857  0.2047 -1.3525
 4211TIP3   OH234123   5.099   6.283   3.804  0.7544  0.5859 -0.1719
 4211TIP3    H134124   5.111   6.330   3.887 -0.6981 -0.8243  0.8852
 4211TIP3    H234125   5.140   6.340   3.739  0.3359  2.6300  1.2429
 4212TIP3   OH234126   2.797   1.451   1.529 -0.3679 -0.3729 -0.0226
 4212TIP3    H134127   2.713   1.465   1.485 -0.5844  0.2106  0.5579
 4212TIP3    H234128   2.860   1.499   1.475 -0.4544 -0.5608 -0.2927
 4213TIP3   OH234129   2.616   3.834  14.427 -0.4275 -0.2713  0.5366
 4213TIP3    H134130   2.543   3.837  14.489 -0.3611  0.7285  0.5808
 4213TIP3    H234131   2.608   3.748  14.385 -0.3906 -1.0210  2.0161
 4214TIP3   OH234132   6.509   4.851  12.862  0.0414 -0.1410 -0.1241
 4214TIP3    H134133   6.434   4.845  12.922  0.9437 -0.0527  1.0659
 4214TIP3    H234134   6.473   4.886  12.781 -1.0514  0.8341  0.7461
 4215TIP3   OH234135   0.098   1.933  12.522 -0.0425  0.3409 -0.8584
 4215TIP3    H134136   0.058   1.878  12.455  0.9327  0.6051 -1.6880
 4215TIP3    H234137   0.063   1.900  12.605 -2.2007  0.7940 -1.5442
 4216TIP3   OH234138   6.680   2.855   1.162  0.3296 -0.3796 -0.4388
 4216TIP3    H134139   6.644   2.766   1.165 -1.9323  0.4337 -0.9286
 4216TIP3    H234140   6.605   2.909   1.137  1.7975  1.5935 -0.7723
 4217TIP3   OH234141   5.893   1.292   1.958  0.2374 -0.2282 -0.1695
 4217TIP3    H134142   5.863   1.250   1.877 -0.8765  0.7449 -0.3006
 4217TIP3    H234143   5.815   1.336   1.992  0.8907  0.0584  1.0061
 4218TIP3   OH234144   2.896   6.569   3.135 -0.0390 -0.1645  0.7445
 4218TIP3    H134145   2.977   6.607   3.102 -0.6253  1.1197  0.7298
 4218TIP3    H234146   2.890   6.484   3.092  1.8173 -0.7564  1.5646
 4219TIP3   OH234147   0.888   3.718   2.430 -0.0481 -0.5945  0.0709
 4219TIP3    H134148   0.948   3.758   2.493  0.4925 -1.9017  0.4196
 4219TIP3    H234149   0.836   3.791   2.396  0.2435  0.2505  1.3863
 4220TIP3   OH234150   0.618   3.607   0.141  0.5290 -0.2555  0.6270
 4220TIP3    H134151   0.658   3.677   0.089  0.1596 -1.2638 -1.0919
 4220TIP3    H234152   0.578   3.652   0.216  0.8436  1.2952 -0.1033
 4221TIP3   OH234153   5.122   3.978   1.535  0.0749 -0.1281 -0.4881
 4221TIP3    H134154   5.143   4.068   1.560  1.6057 -0.2575 -1.1373
 4221TIP3    H234155   5.194   3.953   1.476  0.1020 -2.0332  0.2890
 4222TIP3   OH234156   4.220   0.572  15.081  0.1098  0.0713 -0.1166
 4222TIP3    H134157   4.250   0.551  15.170 -0.4287  1.8247  0.5383
 4222TIP3    H234158   4.145   0.514  15.067  0.2323 -0.2677  0.5665
 4223TIP3   OH234159   2.691   5.869  15.909 -0.6856  0.0526  0.0927
 4223TIP3    H134160   2.745   5.927  15.855 -0.6149 -0.2535 -0.1664
 4223TIP3    H234161   2.655   5.806  15.848 -1.7189  0.5246  0.1864
 4224TIP3   OH234162   2.659   1.141   2.122  0.0881  0.6701  0.1056
 4224TIP3    H134163   2.578   1.181   2.155 -0.6570  0.4186 -1.3258
 4224TIP3    H234164   2.717   1.214   2.103 -0.6172  0.9966 -0.8584
 4225TIP3   OH234165   2.066   5.904   0.948  0.2098 -0.2132  0.7249
 4225TIP3    H134166   2.051   5.949   1.031 -0.7148  0.6026  0.1458
 4225TIP3    H234167   2.006   5.830   0.950  2.0504 -1.7671  1.8715
 4226TIP3   OH234168   1.580   6.429   0.206 -0.1802  0.1510 -0.2662
 4226TIP3    H134169   1.623   6.400   0.126  1.9570 -0.0951  0.8887
 4226TIP3    H234170   1.608   6.520   0.216 -0.3094  0.1353  0.2501
 4227TIP3   OH234171   0.818   2.704   3.371 -0.3812  0.0231  0.0243
 4227TIP3    H134172   0.888   2.695   3.306  0.2854 -0.5888  0.7988
 4227TIP3    H234173   0.827   2.793   3.404  2.7610 -1.2066  3.0578
 4228TIP3   OH234174   0.413   0.970   3.671  0.1654 -0.0894  0.0582
 4228TIP3    H134175   0.444   0.885   3.700 -0.3857 -0.6450 -0.9151
 4228TIP3    H234176   0.463   0.987   3.591 -0.2381  0.1677 -0.1393
 4229TIP3   OH234177   4.437   5.473   1.758 -0.1440  0.3325 -0.4676
 4229TIP3    H134178   4.479   5.440   1.837  0.8823  2.1698 -0.1743
 4229TIP3    H234179   4.446   5.568   1.764 -0.6883  0.5660 -2.4486
 4230TIP3   OH234180   6.370   1.775   5.760  0.1327  0.1351  0.6752
 4230TIP3    H134181   6.380   1.697   5.814 -0.5067 -1.3382 -1.2070
 4230TIP3    H234182   6.280   1.804   5.774 -0.2306 -0.6134 -0.0081
 4231TIP3   OH234183   2.720   1.634  13.675 -0.2366  0.9888  0.3061
 4231TIP3    H134184   2.686   1.684  13.601  0.3071  0.4032 -0.3560
 4231TIP3    H234185   2.785   1.691  13.716 -0.4133  1.2481  0.2268
 4232TIP3   OH234186   6.370   6.751   3.941  0.7432  0.3221 -0.0696
 4232TIP3    H134187   6.432   6.823   3.941  0.1753  0.8766  1.9723
 4232TIP3    H234188   6.422   6.675   3.968  1.5153 -0.3045 -2.9527
 4233TIP3   OH234189   3.942   0.121   0.990  0.5276 -0.2987  0.6480
 4233TIP3    H134190   3.958   0.027   0.990 -0.5884 -0.5052  0.9043
 4233TIP3    H234191   4.026   0.160   0.967  0.4804 -1.4459 -1.7411
 4234TIP3   OH234192   2.969   5.651   5.717  0.0941  0.0165 -0.0248
 4234TIP3    H134193   2.993   5.655   5.809  0.2460  1.9182 -0.1150
 4234TIP3    H234194   2.876   5.674   5.716 -0.0299 -0.4822 -0.3119
 4235TIP3   OH234195   4.440   3.279  10.939 -0.3410 -0.0772 -0.4775
 4235TIP3    H134196   4.512   3.336  10.911  0.9644 -2.4354 -2.3332
 4235TIP3    H234197   4.392   3.260  10.859 -0.6488 -1.6576  0.0394
 4236TIP3   OH234198   4.290   1.254  12.601  0.3860  0.0926  0.2461
 4236TIP3    H134199   4.380   1.256  12.569  0.8709  0.3113  1.5523
 4236TIP3    H234200   4.236   1.255  12.522  1.5235  0.1401 -0.5515
 4237TIP3   OH234201   1.744   0.290  16.635 -0.5657  0.3240 -0.1025
 4237TIP3    H134202   1.791   0.361  16.678 -0.5003  1.3073 -1.7029
 4237TIP3    H234203   1.721   0.229  16.705 -0.2508  1.7174  1.2414
 4238TIP3   OH234204   2.355   5.910   0.958 -0.7051  0.2200 -0.0300
 4238TIP3    H134205   2.262   5.916   0.936 -0.4182 -0.6656 -1.6628
 4238TIP3    H234206   2.382   6.000   0.975 -2.0403  0.3846  1.3861
 4239TIP3   OH234207   1.134   5.748   3.800  0.4558 -0.0767 -0.0409
 4239TIP3    H134208   1.174   5.701   3.873  0.0504  0.3483  0.4623
 4239TIP3    H234209   1.058   5.694   3.775  0.4744 -0.1165 -0.0108
 4240TIP3   OH234210   1.695   6.522   3.579 -0.5919 -0.6295 -0.0723
 4240TIP3    H134211   1.699   6.612   3.547  2.4920 -0.0771  1.4495
 4240TIP3    H234212   1.718   6.529   3.672  0.8298 -3.0481 -0.1588
 4241TIP3   OH234213   1.845   4.624  16.427  0.5131  0.4529 -0.3118
 4241TIP3    H134214   1.939   4.611  16.423  0.4645 -0.2685  0.6789
 4241TIP3    H234215   1.810   4.544  16.466 -0.5012  0.7494 -0.5628
 4242TIP3   OH234216   6.696   4.767  15.413  0.2990 -0.5381 -0.0534
 4242TIP3    H134217   6.630   4.718  15.462  0.6218 -0.8552  0.0610
 4242TIP3    H234218   6.730   4.705  15.349 -2.3386  0.6675 -2.9102
 4243TIP3   OH234219   1.485   0.581   1.429 -0.0750 -0.1537 -0.4157
 4243TIP3    H134220   1.441   0.536   1.501 -0.1608 -0.3104 -0.5643
 4243TIP3    H234221   1.419   0.642   1.395  0.3690  0.8171  0.4344
 4244TIP3   OH234222   1.363   6.143  15.877 -0.5068  0.2178  0.3273
 4244TIP3    H134223   1.402   6.154  15.963  0.0388  0.1721  0.0864
 4244TIP3    H234224   1.366   6.049  15.860 -0.4177  0.2499  0.1643
 4245TIP3   OH234225   4.452   0.812   4.353 -0.0677 -0.4064  0.1984
 4245TIP3    H134226   4.453   0.860   4.271 -0.8079  0.5766  0.7496
 4245TIP3    H234227   4.497   0.869   4.415  1.1521 -1.4589  0.3234
 4246TIP3   OH234228   3.298   5.575   4.859 -0.1966 -0.3102  0.9252
 4246TIP3    H134229   3.346   5.643   4.907  0.2725  0.5405 -0.6889
 4246TIP3    H234230   3.367   5.521   4.819 -0.5205  0.7261 -1.1481
 4247TIP3   OH234231   1.362   3.868  13.716 -0.1369 -0.0086  0.2733
 4247TIP3    H134232   1.327   3.893  13.630  0.1468 -0.2126  0.0973
 4247TIP3    H234233   1.364   3.950  13.766 -0.6231  0.0518  0.2005
 4248TIP3   OH234234   1.805   3.502  16.890 -0.0235 -0.4462  0.6639
 4248TIP3    H134235   1.735   3.476  16.830  0.1836 -0.9408  0.6311
 4248TIP3    H234236   1.826   3.592  16.866  0.3001 -0.7571 -0.2307
 4249TIP3   OH234237   3.840   0.739   0.671 -0.1791  0.1208  0.0216
 4249TIP3    H134238   3.845   0.759   0.578  2.4998 -1.0693 -0.1828
 4249TIP3    H234239   3.830   0.644   0.675  2.6167 -0.2430  0.8397
 4250TIP3   OH234240   2.406   5.846   3.793  0.3176  0.4099  0.3686
 4250TIP3    H134241   2.463   5.821   3.866  1.1102  1.5505  0.1633
 4250TIP3    H234242   2.370   5.931   3.819  0.7934  0.9406 -0.6505
 4251TIP3   OH234243   2.220   3.573   5.268 -0.4954 -0.3594  0.3539
 4251TIP3    H134244   2.156   3.627   5.315 -0.2931 -1.4335  1.9415
 4251TIP3    H234245   2.303   3.620   5.277 -0.8787  0.6818 -1.1125
 4252TIP3   OH234246   0.053   5.595  14.748  0.7253  0.0101  0.2781
 4252TIP3    H134247   0.088   5.628  14.831 -1.4052 -0.7914  1.5726
 4252TIP3    H234248   0.117   5.623  14.683  1.3292  2.6631  1.8584
 4253TIP3   OH234249   6.804   3.366   0.761  0.5969 -0.1022  0.5164
 4253TIP3    H134250   6.759   3.282   0.766  0.1303  0.1710  0.9969
 4253TIP3    H234251   6.809   3.384   0.667 -0.8780  0.1617  0.4591
 4254TIP3   OH234252   3.695   1.802  11.541 -0.1172 -0.2228 -0.5528
 4254TIP3    H134253   3.756   1.758  11.600 -1.4768 -1.6187 -0.1407
 4254TIP3    H234254   3.611   1.760  11.557 -1.1910  1.5544 -1.2068
 4255TIP3   OH234255   1.184   5.846  15.321  0.2168  0.0566 -0.0914
 4255TIP3    H134256   1.245   5.912  15.354 -0.5844  0.3686  0.8132
 4255TIP3    H234257   1.187   5.855  15.226 -0.6459  2.1132  0.0291
 4256TIP3   OH234258   3.775   5.094  10.560  0.2719  0.3283 -0.1236
 4256TIP3    H134259   3.855   5.043  10.574  1.7750  2.4213 -0.5684
 4256TIP3    H234260   3.742   5.111  10.648  0.9783  0.4023  0.1383
 4257TIP3   OH234261   3.982   2.055   2.600  0.2175 -0.3413 -0.1607
 4257TIP3    H134262   3.916   2.017   2.657  1.3417 -2.3545 -0.1126
 4257TIP3    H234263   4.044   2.097   2.660  0.9693 -1.7642  0.1100
 4258TIP3   OH234264   6.851   0.212  13.797 -0.4230 -0.1234 -0.4295
 4258TIP3    H134265   6.846   0.188  13.889  0.4426 -0.9826 -0.6019
 4258TIP3    H234266   6.760   0.227  13.772 -0.7241 -0.5181  0.3935
 4259TIP3   OH234267   1.223   0.142   0.097  0.4491 -0.2840 -0.5675
 4259TIP3    H134268   1.262   0.060   0.126  0.1065 -0.1051  0.4494
 4259TIP3    H234269   1.150   0.116   0.042  0.5312 -0.6594 -0.5012
 4260TIP3   OH234270   1.864   5.075   4.207  0.3896  0.5098 -0.6295
 4260TIP3    H134271   1.829   5.155   4.246  1.2308  0.9697 -0.8018
 4260TIP3    H234272   1.786   5.028   4.175 -0.1504  0.9894 -0.0421
 4261TIP3   OH234273   0.805   5.517   0.044  0.1003 -0.4680  0.1158
 4261TIP3    H134274   0.857   5.525   0.124 -2.5088 -3.0764  2.2735
 4261TIP3    H234275   0.834   5.434   0.005 -0.9077 -0.8376  0.1403
 4262TIP3   OH234276   6.830   0.687  13.973  0.4549  0.1946  0.5136
 4262TIP3    H134277   6.747   0.735  13.974 -0.6220 -1.5654  0.7400
 4262TIP3    H234278   6.831   0.638  14.055  0.4450 -1.8060 -0.6153
 4263TIP3   OH234279   1.813   5.475   4.123 -0.1485 -0.0799  0.0765
 4263TIP3    H134280   1.905   5.501   4.129 -0.2570  1.0108 -2.1055
 4263TIP3    H234281   1.789   5.491   4.032 -3.6162  3.4730  1.3339
 4264TIP3   OH234282   5.562   2.990  12.281  0.5675  0.0784 -0.5260
 4264TIP3    H134283   5.628   3.047  12.320 -1.4732  1.9357  0.3998
 4264TIP3    H234284   5.593   2.975  12.191  2.1934  0.9173 -0.1390
 4265TIP3   OH234285   3.058   4.736   6.267  0.3172  0.3705  0.1033
 4265TIP3    H134286   3.057   4.809   6.205 -0.2853 -0.9989 -1.5871
 4265TIP3    H234287   2.968   4.729   6.297 -0.1707 -1.0939 -1.5585
 4266TIP3   OH234288   2.471   2.439   3.393 -0.7154 -0.4515 -0.0552
 4266TIP3    H134289   2.447   2.346   3.386 -0.3265 -0.4203 -2.6303
 4266TIP3    H234290   2.466   2.457   3.487 -0.6968 -3.0975  0.5516
 4267TIP3   OH234291   4.866   5.804  15.877  0.1008  0.7151 -0.4869
 4267TIP3    H134292   4.819   5.865  15.820 -0.1030  0.9091 -0.1101
 4267TIP3    H234293   4.946   5.850  15.901 -0.4321  1.1795  0.4685
 4268TIP3   OH234294   3.865   4.042  12.755 -0.1806  0.3033 -0.1893
 4268TIP3    H134295   3.817   4.114  12.715  0.0503 -0.8040 -2.6640
 4268TIP3    H234296   3.798   3.983  12.788 -0.4075  0.7227  0.1021
 4269TIP3   OH234297   3.224   6.823   5.655 -0.2339 -0.0918  0.0048
 4269TIP3    H134298   3.266   6.867   5.729  0.8090 -0.1098 -0.5718
 4269TIP3    H234299   3.144   6.785   5.693  0.4674 -0.4095  1.2071
 4270TIP3   OH234300   6.649   3.099   1.507  0.4471  0.1373  0.0872
 4270TIP3    H134301   6.630   3.121   1.416  1.2500 -2.2821 -0.7404
 4270TIP3    H234302   6.711   3.166   1.535 -0.4760  1.4406 -0.8118
 4271TIP3   OH234303   2.488   1.244  14.820 -0.1374  0.1210 -0.4148
 4271TIP3    H134304   2.515   1.332  14.795 -1.9833  0.8126 -0.1194
 4271TIP3    H234305   2.492   1.193  14.739  3.2138 -0.2158 -0.1723
 4272TIP3   OH234306   5.753   5.015   2.777  0.4722 -0.2020 -0.0172
 4272TIP3    H134307   5.676   4.996   2.832  0.5081  1.4436  0.6756
 4272TIP3    H234308   5.823   4.961   2.814 -0.0274 -0.7202  0.1939
 4273TIP3   OH234309   1.168   6.832   2.891  0.1316  0.1982 -0.0130
 4273TIP3    H134310   1.185   6.901   2.956  0.6435  0.0718 -0.0102
 4273TIP3    H234311   1.177   6.876   2.807  1.5898 -0.0926 -0.0443
 4274TIP3   OH234312   3.859   2.857  16.063  0.4806  0.0297  0.4525
 4274TIP3    H134313   3.779   2.909  16.067  1.1897  1.3081 -0.9639
 4274TIP3    H234314   3.924   2.909  16.110  1.3337  0.7770 -1.4442
 4275TIP3   OH234315   5.161   3.848  12.031  0.4532  0.2457 -0.3844
 4275TIP3    H134316   5.211   3.832  11.951  0.9854  3.3754 -0.8211
 4275TIP3    H234317   5.070   3.827  12.007  1.0575 -2.5504 -0.5309
 4276TIP3   OH234318   6.318   3.039  13.920  0.6311  0.0390 -0.1006
 4276TIP3    H134319   6.410   3.014  13.931  1.5323  3.3787  1.0945
 4276TIP3    H234320   6.321   3.127  13.883 -2.0353  0.6640  0.9204
 4277TIP3   OH234321   3.605   6.180  12.282  0.1190 -0.2151  0.6642
 4277TIP3    H134322   3.643   6.163  12.196 -1.5677  0.7237 -0.3157
 4277TIP3    H234323   3.606   6.094  12.326  0.0046 -0.9416 -0.7088
 4278TIP3   OH234324   6.006   2.644  13.231  0.5004  0.2458 -0.4221
 4278TIP3    H134325   5.988   2.621  13.323 -0.3541  0.9962 -0.3825
 4278TIP3    H234326   5.985   2.565  13.182  1.2886 -0.2743  0.0484
 4279TIP3   OH234327   1.315   1.829  13.495  0.1552  0.0150 -0.2753
 4279TIP3    H134328   1.248   1.786  13.548  0.4998  0.3605  0.4483
 4279TIP3    H234329   1.398   1.791  13.525  0.4511  1.0407  0.2504
 4280TIP3   OH234330   6.139   2.306   0.156 -0.1170  0.0471 -0.0206
 4280TIP3    H134331   6.221   2.293   0.109 -0.4848  0.8884 -0.9406
 4280TIP3    H234332   6.118   2.219   0.192  0.7371 -0.3656 -0.4787
 4281TIP3   OH234333   1.064   5.385   1.089 -0.2341 -0.1529  0.3784
 4281TIP3    H134334   0.975   5.419   1.075  0.2400  1.3050  0.7596
 4281TIP3    H234335   1.077   5.389   1.184 -0.5917 -2.6323  0.6024
 4282TIP3   OH234336   1.794   1.475   5.127  0.0061  0.6140 -0.0363
 4282TIP3    H134337   1.716   1.420   5.124  0.7024 -0.3593 -1.3369
 4282TIP3    H234338   1.858   1.423   5.175  0.3834  0.6686 -0.4790
 4283TIP3   OH234339   0.464   3.468   2.202  0.5010  0.1803  0.4791
 4283TIP3    H134340   0.480   3.377   2.229  0.3427 -0.1842 -0.5888
 4283TIP3    H234341   0.551   3.501   2.179  0.6101  0.4279  1.2428
 4284TIP3   OH234342   2.364   1.592  15.343  0.2242 -0.3177 -0.0721
 4284TIP3    H134343   2.308   1.536  15.290 -3.1026  2.5723  0.0263
 4284TIP3    H234344   2.319   1.599  15.427  0.5686  2.2035 -0.0028
 4285TIP3   OH234345   2.295   0.063   1.489  0.1816  0.2307  0.3135
 4285TIP3    H134346   2.270   0.155   1.481  1.2369  0.6107  1.1962
 4285TIP3    H234347   2.267   0.038   1.577  0.2445 -0.1850  0.2188
 4286TIP3   OH234348   5.811   3.072  12.385  0.1701 -0.2012  0.4691
 4286TIP3    H134349   5.794   3.166  12.377  1.0063 -0.0305  0.5962
 4286TIP3    H234350   5.881   3.055  12.322 -1.0694 -1.0658 -0.7423
 4287TIP3   OH234351   0.852   2.057  12.881  0.5665  0.6633 -0.1252
 4287TIP3    H134352   0.770   2.107  12.882  0.0557 -0.1053  2.3541
 4287TIP3    H234353   0.831   1.977  12.834  0.5914  1.4401 -1.5362
 4288TIP3   OH234354   1.351   1.822   1.416  0.8403  0.1395  0.0310
 4288TIP3    H134355   1.360   1.916   1.398  1.1850  0.3305  1.1169
 4288TIP3    H234356   1.408   1.807   1.491  1.6366 -1.1733 -0.7967
 4289TIP3   OH234357   4.797   0.484  17.015  0.0137  0.2818 -0.3664
 4289TIP3    H134358   4.794   0.390  16.997  0.8557  0.1595  0.0720
 4289TIP3    H234359   4.887   0.510  16.994  0.1321  0.7478  0.6289
 4290TIP3   OH234360   4.325   2.300   3.706 -0.7210  0.0556 -0.2185
 4290TIP3    H134361   4.414   2.266   3.711 -0.5156  0.2470 -2.0086
 4290TIP3    H234362   4.334   2.394   3.721 -0.8073 -0.1076  0.9243
 4291TIP3   OH234363   2.329   2.512  12.786  0.3299 -0.5532  0.0150
 4291TIP3    H134364   2.257   2.568  12.760  0.9879  0.9223  1.1843
 4291TIP3    H234365   2.291   2.452  12.851 -0.3536 -1.4408 -1.1716
 4292TIP3   OH234366   2.149   3.727   2.608 -0.0743 -0.7053  0.6477
 4292TIP3    H134367   2.108   3.659   2.554 -0.2767  0.0226 -0.1471
 4292TIP3    H234368   2.209   3.771   2.548  0.9178 -0.9253  1.4628
 4293TIP3   OH234369   3.246   0.533   5.475  0.7348 -0.1965  0.4249
 4293TIP3    H134370   3.180   0.495   5.417  1.1901  0.9079 -0.8774
 4293TIP3    H234371   3.282   0.459   5.523  0.0397 -1.0934 -0.4065
 4294TIP3   OH234372   2.556   6.158   1.386 -0.4074  0.2707 -0.0249
 4294TIP3    H134373   2.621   6.224   1.358 -0.7121 -0.0602 -1.5808
 4294TIP3    H234374   2.538   6.180   1.477  2.4801 -0.0960  0.7340
 4295TIP3   OH234375   5.151   2.562  17.070 -0.2749  0.2523  0.1842
 4295TIP3    H134376   5.169   2.650  17.037 -1.8573 -0.0985 -1.7988
 4295TIP3    H234377   5.127   2.512  16.992  1.4140 -2.2040  1.1087
 4296TIP3   OH234378   6.190   5.840  15.483  0.4983 -0.0839  0.0442
 4296TIP3    H134379   6.189   5.909  15.549 -2.3481 -0.1830  0.2561
 4296TIP3    H234380   6.102   5.803  15.487  1.8338 -3.6119 -0.2293
 4297TIP3   OH234381   5.540   6.075   1.153  0.4857  0.0516 -0.8396
 4297TIP3    H134382   5.583   6.132   1.216 -1.1681  0.3028  0.1306
 4297TIP3    H234383   5.541   5.989   1.194  0.7166 -0.0961 -1.1505
 4298TIP3   OH234384   5.366   4.728   3.664  0.0651 -1.0850  0.1885
 4298TIP3    H134385   5.418   4.785   3.721 -0.9554  1.2514 -1.1165
 4298TIP3    H234386   5.285   4.713   3.713 -2.1502  3.3966 -1.5507
 4299TIP3   OH234387   0.940   0.576   5.212  0.4787  0.2891  0.1906
 4299TIP3    H134388   0.865   0.577   5.272 -0.6513  0.5563 -1.1697
 4299TIP3    H234389   0.940   0.663   5.172  0.8648 -0.0619 -0.5946
 4300TIP3   OH234390   1.649   5.292  16.639 -0.0633 -0.2000  0.1655
 4300TIP3    H134391   1.566   5.244  16.642 -1.5946  2.2828  2.1654
 4300TIP3    H234392   1.638   5.354  16.567  0.2945 -0.2510  0.0664
 4301TIP3   OH234393   1.976   1.654   3.222  0.0662 -0.3091  0.1184
 4301TIP3    H134394   1.902   1.597   3.201 -0.1171  0.4835 -1.5662
 4301TIP3    H234395   1.951   1.696   3.304 -0.4216 -1.5783  0.6460
 4302TIP3   OH234396   3.871   6.740  10.428 -0.3781 -0.1369  0.1697
 4302TIP3    H134397   3.962   6.742  10.400 -0.9480 -0.2987 -1.8511
 4302TIP3    H234398   3.843   6.831  10.425 -0.5643 -0.2051 -0.2608
 4303TIP3   OH234399   1.168   0.051  15.141  0.4997 -0.1342  0.0793
 4303TIP3    H134400   1.137  -0.039  15.130  0.7045 -0.3077  0.8644
 4303TIP3    H234401   1.261   0.047  15.121  0.8539 -0.4321  1.6426
 4304TIP3   OH234402   2.244   3.696   6.264 -0.1821 -0.8421 -0.3737
 4304TIP3    H134403   2.186   3.725   6.194 -0.4123  0.5570  0.3632
 4304TIP3    H234404   2.227   3.756   6.337  1.2793 -1.1764  0.2944
 4305TIP3   OH234405   0.724   6.726  12.429  0.2863 -0.5043  0.0189
 4305TIP3    H134406   0.698   6.635  12.447 -2.3795 -0.0984 -1.2583
 4305TIP3    H234407   0.791   6.718  12.362 -0.5345 -1.5675 -0.7303
 4306TIP3   OH234408   6.672   5.193   0.074  0.2912 -0.0734  0.1765
 4306TIP3    H134409   6.611   5.188   0.147  0.2777 -0.9120  0.1136
 4306TIP3    H234410   6.758   5.196   0.115  0.2086  2.4433  0.3192
 4307TIP3   OH234411   1.305   2.239   0.400  0.1084  0.5684 -0.1811
 4307TIP3    H134412   1.239   2.256   0.467  1.2947 -0.5400  1.3414
 4307TIP3    H234413   1.375   2.301   0.421  0.9543 -0.5266  0.3267
 4308TIP3   OH234414   1.357   0.627   4.903  0.9391 -0.4202  0.1330
 4308TIP3    H134415   1.316   0.590   4.982 -0.1917  1.9488  0.7335
 4308TIP3    H234416   1.448   0.643   4.929  0.7074 -0.1458  0.8040
 4309TIP3   OH234417   2.450   6.116  16.345  0.2057 -0.2582  0.4831
 4309TIP3    H134418   2.486   6.079  16.264  1.7967 -0.1243  1.1119
 4309TIP3    H234419   2.358   6.089  16.344  0.4373 -1.0974 -0.8781
 4310TIP3   OH234420   0.769   0.675   5.677 -0.2307 -0.0117  0.3522
 4310TIP3    H134421   0.840   0.732   5.646 -2.3420  2.5301 -0.1502
 4310TIP3    H234422   0.690   0.712   5.638 -2.0327 -1.8644  2.0139
 4311TIP3   OH234423   4.321   6.117   4.109  0.3660 -0.0404  0.0112
 4311TIP3    H134424   4.362   6.151   4.030 -0.7356  0.2758 -0.4334
 4311TIP3    H234425   4.395   6.093   4.165  1.1594 -0.0123 -0.9900
 4312TIP3   OH234426   2.663   5.425   4.004  0.1254 -0.0058 -0.7695
 4312TIP3    H134427   2.687   5.352   3.948  1.7621  0.9508 -1.3933
 4312TIP3    H234428   2.730   5.426   4.073 -0.8923 -0.1438  0.2611
 4313TIP3   OH234429   2.019   5.998  12.765  0.2262  0.2002 -0.1772
 4313TIP3    H134430   2.032   5.903  12.753 -1.5828 -0.2416  1.0245
 4313TIP3    H234431   1.975   6.025  12.684 -0.2655 -0.2126 -0.0551
 4314TIP3   OH234432   6.561   4.354   5.672  0.1306 -0.2509  0.2636
 4314TIP3    H134433   6.554   4.437   5.625 -0.0138  0.2946  1.2237
 4314TIP3    H234434   6.635   4.367   5.732  1.5441 -1.5916 -1.0862
 4315TIP3   OH234435   0.911   5.222   1.438 -0.2092 -0.3417 -0.5396
 4315TIP3    H134436   0.958   5.306   1.434  0.3830 -0.6310  0.1095
 4315TIP3    H234437   0.902   5.204   1.532  0.5848 -1.4947 -0.6590
 4316TIP3   OH234438   4.128   3.783   3.299 -0.2138 -0.1908  0.3550
 4316TIP3    H134439   4.157   3.874   3.308  1.4255 -0.3720 -2.0710
 4316TIP3    H234440   4.154   3.741   3.380 -1.5800  1.5942  1.8005
 4317TIP3   OH234441   3.867   4.036  16.489 -0.0746  0.3123 -0.0897
 4317TIP3    H134442   3.827   3.956  16.522  1.0202 -0.4460 -0.5187
 4317TIP3    H234443   3.936   4.005  16.429  1.1179  1.5385  0.5912
 4318TIP3   OH234444   0.692   1.589   1.012  0.5249 -0.4532  0.0171
 4318TIP3    H134445   0.669   1.663   1.067 -0.4600 -0.5302 -0.2685
 4318TIP3    H234446   0.773   1.615   0.968 -0.3481  0.8901 -0.8606
 4319TIP3   OH234447   5.555   5.680   5.678  0.5341 -0.1745 -0.8720
 4319TIP3    H134448   5.582   5.681   5.587  0.0119  0.7903 -1.0363
 4319TIP3    H234449   5.626   5.636   5.724  1.0564 -0.1788 -1.6673
 4320TIP3   OH234450   2.805   2.577  13.850  0.0572  0.2837 -0.1345
 4320TIP3    H134451   2.746   2.570  13.925 -1.7124 -0.1955 -1.5136
 4320TIP3    H234452   2.827   2.486  13.829 -0.4464  0.3485 -0.9488
 4321TIP3   OH234453   0.225   0.999   2.729  0.3899 -0.6152 -0.6189
 4321TIP3    H134454   0.259   1.075   2.777 -0.7414 -0.7896  0.5168
 4321TIP3    H234455   0.182   1.036   2.652 -0.8603  0.0045  0.3331
 4322TIP3   OH234456   3.194   5.315   5.191  0.1958 -0.1327 -0.2117
 4322TIP3    H134457   3.202   5.319   5.095  0.9893  2.7383 -0.1178
 4322TIP3    H234458   3.249   5.387   5.222 -0.5696 -0.5813  2.3942
 4323TIP3   OH234459   6.846   0.819   3.900  0.0336  0.2629  0.7793
 4323TIP3    H134460   6.867   0.727   3.916 -0.0414 -0.0163 -0.6433
 4323TIP3    H234461   6.805   0.848   3.982  0.7482 -0.7415  1.5319
 4324TIP3   OH234462   3.148   0.999   4.672 -0.7369 -0.0901  0.1835
 4324TIP3    H134463   3.080   0.984   4.607 -1.0676 -1.7076  0.8445
 4324TIP3    H234464   3.102   1.040   4.745 -0.6569  0.3648 -0.0180
 4325TIP3   OH234465   3.099   6.076  10.590  0.2034  0.1413 -0.9981
 4325TIP3    H134466   3.130   6.120  10.511  0.4558  0.8940 -0.4935
 4325TIP3    H234467   3.143   5.991  10.590  1.0854  0.5888 -1.0839
 4326TIP3   OH234468   2.083   2.778   5.450  0.4078 -0.0150  0.9093
 4326TIP3    H134469   1.992   2.773   5.421  0.8382 -0.9075 -0.3574
 4326TIP3    H234470   2.105   2.871   5.445 -0.3849  0.1873  1.0812
 4327TIP3   OH234471   5.311   1.718  15.434  0.2954 -0.3037  0.3669
 4327TIP3    H134472   5.394   1.753  15.402  0.4147  1.5158  2.4551
 4327TIP3    H234473   5.253   1.794  15.442 -0.7296 -1.1440  1.4158
 4328TIP3   OH234474   2.728   2.364   1.558 -0.3117  0.3970 -0.3695
 4328TIP3    H134475   2.820   2.383   1.575 -0.3307 -0.6087  1.0213
 4328TIP3    H234476   2.681   2.442   1.589  0.0061  0.6088 -0.4121
 4329TIP3   OH234477   4.054   5.155   2.238  0.3908 -0.4761  0.0441
 4329TIP3    H134478   4.031   5.065   2.217  0.5076 -0.3686 -0.5923
 4329TIP3    H234479   4.030   5.205   2.159 -0.1749  0.1316  0.5889
 4330TIP3   OH234480   6.391   3.846   5.402  0.4008 -0.4535 -0.0880
 4330TIP3    H134481   6.340   3.765   5.398 -0.6506  0.1641  0.3356
 4330TIP3    H234482   6.424   3.848   5.492  0.4456 -0.4251 -0.1054
 4331TIP3   OH234483   3.888   3.873   2.977 -0.1882  0.0885 -0.2663
 4331TIP3    H134484   3.977   3.906   2.992  0.2143  0.0575 -2.3441
 4331TIP3    H234485   3.832   3.947   3.001  0.2222 -0.3478  2.4639
 4332TIP3   OH234486   0.972   1.603   2.839 -0.2934  0.1877 -0.3108
 4332TIP3    H134487   0.952   1.585   2.747  1.2919 -1.2771 -0.4172
 4332TIP3    H234488   1.018   1.525   2.869 -0.5001  0.7719  1.6553
 4333TIP3   OH234489   4.209   4.519  14.558 -0.1617  0.0998 -0.0619
 4333TIP3    H134490   4.249   4.446  14.604 -0.1903 -0.4266 -0.8427
 4333TIP3    H234491   4.116   4.516  14.581 -0.2491 -0.4108 -0.4727
 4334TIP3   OH234492   2.956   0.954   4.482 -0.2407  0.1792 -0.3605
 4334TIP3    H134493   2.991   1.001   4.406  2.2582 -0.0615  0.5378
 4334TIP3    H234494   2.945   0.864   4.452 -0.1507  0.2740 -0.6848
 4335TIP3   OH234495   1.417   1.676   3.264 -0.4925  0.1665 -0.1716
 4335TIP3    H134496   1.499   1.677   3.214 -0.1983  1.2141  0.2971
 4335TIP3    H234497   1.349   1.667   3.197  0.0281 -1.7981 -0.4818
 4336TIP3   OH234498   0.777   4.252   2.186  0.4898 -0.7455  0.1356
 4336TIP3    H134499   0.747   4.171   2.227  1.9579 -2.5820 -2.1518
 4336TIP3    H234500   0.870   4.256   2.205  0.5529  0.0901 -0.3001
 4337TIP3   OH234501   3.959   3.889  12.511  0.0391  0.0577  0.2380
 4337TIP3    H134502   4.014   3.824  12.555  0.1290 -0.1688 -0.2011
 4337TIP3    H234503   3.926   3.944  12.582  1.0221  0.3503  0.4827
 4338TIP3   OH234504   5.679   2.844   3.076 -0.3135 -0.4987  0.0999
 4338TIP3    H134505   5.659   2.878   2.988 -0.2724 -0.5261  0.0802
 4338TIP3    H234506   5.749   2.781   3.062 -0.7853 -1.0215  0.0567
 4339TIP3   OH234507   1.733   0.074   1.141 -0.1184  0.1168 -0.1324
 4339TIP3    H134508   1.733   0.067   1.046 -0.0714  1.8317 -0.2846
 4339TIP3    H234509   1.796   0.008   1.170  0.7038  0.3382 -1.3553
 4340TIP3   OH234510   6.580   0.453  14.886  0.9756 -0.2213  0.8173
 4340TIP3    H134511   6.606   0.545  14.884  0.3898 -0.0557  0.5520
 4340TIP3    H234512   6.508   0.449  14.949  1.0164 -0.4992  0.8493
 4341TIP3   OH234513   5.086   0.530  15.803 -0.2359  0.0489 -0.3381
 4341TIP3    H134514   5.122   0.489  15.881 -1.6935 -0.2569  0.2062
 4341TIP3    H234515   5.008   0.578  15.834  1.7221  3.9290 -0.7821
 4342TIP3   OH234516   0.209   0.775  15.638 -0.2222  0.6555 -0.0613
 4342TIP3    H134517   0.290   0.756  15.684 -0.9004 -1.4527  0.3711
 4342TIP3    H234518   0.230   0.765  15.545  0.0698  0.3818  0.0360
 4343TIP3   OH234519   5.657   1.354   4.833  0.3537  0.1123  0.6210
 4343TIP3    H134520   5.710   1.318   4.762 -0.2577  0.4588 -0.0315
 4343TIP3    H234521   5.717   1.412   4.881  1.3906 -1.8609  1.8006
 4344TIP3   OH234522   4.104   5.176   3.935  0.2611 -0.0512  0.4153
 4344TIP3    H134523   4.136   5.261   3.966  1.9730 -1.1590  1.8768
 4344TIP3    H234524   4.087   5.190   3.842  0.3079  1.9282  0.6495
 4345TIP3   OH234525   4.217   6.276  16.433 -0.2983 -0.3545 -0.4299
 4345TIP3    H134526   4.173   6.316  16.358 -1.4150 -0.3484  0.2118
 4345TIP3    H234527   4.217   6.182  16.414 -0.5946 -0.3548 -0.4231
 4346TIP3   OH234528   2.809   3.390   2.030  0.1855  0.4650 -0.0094
 4346TIP3    H134529   2.790   3.315   1.974  1.4334  0.7528 -0.8629
 4346TIP3    H234530   2.737   3.392   2.094 -1.8635  0.7309 -2.1804
 4347TIP3   OH234531   2.048   2.857   1.821  0.1843 -0.1064  0.0798
 4347TIP3    H134532   1.959   2.823   1.834 -0.0100 -0.3478 -1.7088
 4347TIP3    H234533   2.058   2.923   1.890 -1.2704 -0.2886  0.5067
 4348TIP3   OH234534   4.416   0.808   5.140 -0.5359  0.1998  0.7940
 4348TIP3    H134535   4.323   0.826   5.153 -0.7470 -0.0544 -0.2887
 4348TIP3    H234536   4.436   0.845   5.055  0.1161 -0.6290  0.5738
 4349TIP3   OH234537   4.327   1.890  16.715  0.1503 -0.1451 -0.1237
 4349TIP3    H134538   4.342   1.834  16.792  2.1776  0.4746  0.0138
 4349TIP3    H234539   4.264   1.955  16.745 -0.1535 -0.7433  0.5791
 4350TIP3   OH234540   2.878   4.471   2.188 -0.3770 -0.2449  0.1187
 4350TIP3    H134541   2.897   4.383   2.155  1.2422  0.5524 -1.2284
 4350TIP3    H234542   2.960   4.501   2.226 -1.0073  0.5588  0.8954
 4351TIP3   OH234543   6.038   4.135   6.657  0.3880 -0.0789  1.0667
 4351TIP3    H134544   5.999   4.116   6.572  0.5080 -0.2532  1.0499
 4351TIP3    H234545   6.105   4.067   6.668  1.3458  0.7719  0.6555
 4352TIP3   OH234546   6.509   2.815   4.790 -0.6545  0.8435  0.0281
 4352TIP3    H134547   6.544   2.783   4.707 -1.8774  0.5879 -0.4162
 4352TIP3    H234548   6.557   2.896   4.807  1.6141 -0.5136  0.5318
 4353TIP3   OH234549   3.400   1.879  13.219  0.3765  0.5340 -0.0098
 4353TIP3    H134550   3.398   1.784  13.206  1.3924  0.7411 -2.2804
 4353TIP3    H234551   3.491   1.898  13.244  0.1015  0.8802  0.7494
 4354TIP3   OH234552   5.402   5.240   3.019 -0.1024  0.6723 -0.1059
 4354TIP3    H134553   5.441   5.152   3.019 -2.3650 -0.4262 -1.8021
 4354TIP3    H234554   5.414   5.272   2.930  0.7895  2.1997  0.5152
 4355TIP3   OH234555   4.801   0.308  15.898  0.5873  0.0659 -0.7272
 4355TIP3    H134556   4.880   0.307  15.844  0.4608  0.9477 -0.9463
 4355TIP3    H234557   4.811   0.385  15.954  1.3851 -1.6035  1.5483
 4356TIP3   OH234558   2.629   1.603  14.199  0.1686  0.3260 -0.0919
 4356TIP3    H134559   2.537   1.587  14.178 -0.3231  0.9099  1.4960
 4356TIP3    H234560   2.644   1.553  14.279  0.9324  1.0776  0.2480
 4357TIP3   OH234561   6.189   4.649   0.319  0.2727  0.4002 -0.0565
 4357TIP3    H134562   6.182   4.568   0.268  0.4659  0.1482  0.3140
 4357TIP3    H234563   6.267   4.692   0.285  0.3616  0.2670 -0.0229
 4358TIP3   OH234564   1.744   2.557   1.324 -0.0293  0.5676  0.0798
 4358TIP3    H134565   1.795   2.600   1.392  0.3173 -0.8007  0.7172
 4358TIP3    H234566   1.740   2.621   1.253 -0.8396  2.2479  1.5566
 4359TIP3   OH234567   2.502   5.121   4.736 -0.3140 -0.6309 -0.4766
 4359TIP3    H134568   2.510   5.168   4.654  1.3156 -1.6589 -0.9439
 4359TIP3    H234569   2.586   5.075   4.747 -0.6768 -0.9411  1.4895
 4360TIP3   OH234570   4.529   6.243  17.051  0.5783 -0.4230  0.6632
 4360TIP3    H134571   4.551   6.298  16.976 -1.1786  1.0218  1.1182
 4360TIP3    H234572   4.573   6.160  17.035  2.8405  0.8978 -0.3829
 4361TIP3   OH234573   4.800   5.255  16.459 -0.0987 -0.4243  0.0155
 4361TIP3    H134574   4.818   5.306  16.538 -0.5705  0.3821 -0.3825
 4361TIP3    H234575   4.746   5.312  16.405 -0.9511 -1.4764 -0.2960
 4362TIP3   OH234576   0.765   3.783   5.229 -0.2957  0.3794  0.5302
 4362TIP3    H134577   0.788   3.752   5.316  1.2058 -1.6577 -0.4890
 4362TIP3    H234578   0.685   3.735   5.207  0.6613 -1.0064 -0.0876
 4363TIP3   OH234579   0.168   3.074   1.248 -0.1938 -0.0176 -0.0968
 4363TIP3    H134580   0.097   3.102   1.190 -0.2523 -1.6301 -0.8813
 4363TIP3    H234581   0.247   3.082   1.195  0.0385  0.5365  0.3325
 4364TIP3   OH234582   5.600   6.179  14.342  0.9931  0.1435  0.1225
 4364TIP3    H134583   5.573   6.266  14.373  1.7546  0.3119  0.3494
 4364TIP3    H234584   5.562   6.118  14.405 -1.0830  0.1412 -1.0376
 4365TIP3   OH234585   4.215   3.438   2.485  0.2326 -0.2957  0.0907
 4365TIP3    H134586   4.274   3.496   2.533  0.3113  0.4417 -0.8676
 4365TIP3    H234587   4.232   3.351   2.521  1.8799 -0.0931 -0.1387
 4366TIP3   OH234588   4.832   1.390   3.040 -0.2972  0.1005 -0.0010
 4366TIP3    H134589   4.818   1.383   2.945 -0.5545 -0.2711  0.0604
 4366TIP3    H234590   4.815   1.302   3.072 -1.1441  0.4423  0.5111
 4367TIP3   OH234591   1.394   2.517   1.089 -0.2846  0.8526 -0.1701
 4367TIP3    H134592   1.482   2.498   1.058 -0.0602  1.2322  0.2358
 4367TIP3    H234593   1.377   2.452   1.156  0.3073  1.7594  0.8909
 4368TIP3   OH234594   3.210   2.392   0.765  0.1415 -0.2788  0.4274
 4368TIP3    H134595   3.268   2.320   0.791  1.2480  0.4802  0.1049
 4368TIP3    H234596   3.196   2.441   0.846 -0.0881 -0.4804  0.5122
 4369TIP3   OH234597   5.200   0.832  15.957  0.2282  0.4425  0.6141
 4369TIP3    H134598   5.118   0.803  15.997  1.3249 -0.8764  2.0135
 4369TIP3    H234599   5.253   0.863  16.031  1.1465  0.9064 -0.2180
 4370TIP3   OH234600   5.065   1.312  13.788 -0.1591 -0.5180  0.0866
 4370TIP3    H134601   5.040   1.351  13.871  1.9468 -1.4046  1.2015
 4370TIP3    H234602   5.139   1.366  13.757  1.7570 -2.5472  0.8749
 4371TIP3   OH234603   6.364   3.844  13.866 -0.0109  0.3612  0.8198
 4371TIP3    H134604   6.426   3.776  13.891  1.6527  0.2693 -2.9755
 4371TIP3    H234605   6.285   3.796  13.841  1.5617 -0.5187 -3.0543
 4372TIP3   OH234606   1.827   5.206  12.221  0.2949 -0.0992  0.0050
 4372TIP3    H134607   1.805   5.248  12.304  3.6072  2.2416 -0.1038
 4372TIP3    H234608   1.883   5.133  12.245  2.6639  1.5728 -0.0667
 4373TIP3   OH234609   2.617   2.135   2.449 -0.3492  0.2753  0.1307
 4373TIP3    H134610   2.584   2.080   2.379 -0.9389  1.1132 -0.2639
 4373TIP3    H234611   2.636   2.075   2.521 -1.7445 -0.3522 -0.0033
 4374TIP3   OH234612   1.539   6.100   3.211  0.5029 -0.2825 -0.1700
 4374TIP3    H134613   1.578   6.123   3.127  0.4203 -1.4260 -0.5402
 4374TIP3    H234614   1.479   6.172   3.231  1.4047  0.5824 -0.4944
 4375TIP3   OH234615   2.724   2.790  13.567  0.5171  0.3035 -0.2715
 4375TIP3    H134616   2.661   2.732  13.525  1.4988 -0.6865 -0.4176
 4375TIP3    H234617   2.790   2.732  13.605  0.7962  1.2669  0.7974
 4376TIP3   OH234618   6.722   1.620  11.831  0.0453  0.2814 -0.1679
 4376TIP3    H134619   6.674   1.654  11.907  0.6710  0.2518  0.2460
 4376TIP3    H234620   6.788   1.561  11.869  1.6011  1.6984 -0.5760
 4377TIP3   OH234621   5.294   5.919   1.484  0.5946  0.2294  0.2090
 4377TIP3    H134622   5.243   5.949   1.410  0.3429  1.2297  0.7706
 4377TIP3    H234623   5.247   5.842   1.517  1.0022 -0.5520 -0.9700
 4378TIP3   OH234624   4.760   1.197  16.302  0.1512 -0.3456  0.2807
 4378TIP3    H134625   4.841   1.180  16.349  0.3066 -1.3343 -0.3192
 4378TIP3    H234626   4.786   1.253  16.229  0.2723 -0.5417  0.1725
 4379TIP3   OH234627   0.094   0.247  14.815  0.4599  0.4298 -0.5643
 4379TIP3    H134628   0.006   0.236  14.781  0.1849  0.4685  0.1152
 4379TIP3    H234629   0.132   0.318  14.763  1.2670 -1.6853 -3.0787
 4380TIP3   OH234630   5.263   0.118  14.129  0.0176 -0.4022  0.5856
 4380TIP3    H134631   5.304   0.129  14.043 -1.8770  0.3039 -0.2561
 4380TIP3    H234632   5.288   0.196  14.178 -0.9853  0.4460 -0.2198
 4381TIP3   OH234633   0.865   3.067   1.414 -0.4056  0.1272  0.0642
 4381TIP3    H134634   0.948   3.058   1.459 -1.8178  0.4162  2.9691
 4381TIP3    H234635   0.804   3.012   1.464 -2.3944  1.5043 -0.6809
 4382TIP3   OH234636   4.894   4.763  10.989 -0.1100 -0.1295  0.7492
 4382TIP3    H134637   4.943   4.718  10.921  0.4174  2.9977 -1.1069
 4382TIP3    H234638   4.804   4.734  10.977 -0.1416  0.7555 -1.7636
 4383TIP3   OH234639   5.618   5.412  10.298  0.4468 -0.3191 -0.7603
 4383TIP3    H134640   5.650   5.487  10.248  1.2006 -1.5634 -2.2364
 4383TIP3    H234641   5.534   5.390  10.259 -0.5358  0.6570  0.6885
 4384TIP3   OH234642   2.642   1.707  11.554 -0.0848  0.2118 -0.1118
 4384TIP3    H134643   2.702   1.633  11.537  0.4665  0.7934 -0.7625
 4384TIP3    H234644   2.556   1.666  11.561  0.2393 -0.5231 -0.2476
 4385TIP3   OH234645   1.561   2.431  16.382 -0.1957 -0.1464  0.4934
 4385TIP3    H134646   1.470   2.435  16.352 -0.2838 -0.5374  0.7056
 4385TIP3    H234647   1.611   2.413  16.303 -0.4278 -1.1946  0.5757
 4386TIP3   OH234648   4.934   0.781   0.647 -0.2288  0.1595  0.1289
 4386TIP3    H134649   5.002   0.727   0.687  0.6038  0.5236 -0.7637
 4386TIP3    H234650   4.970   0.870   0.649 -0.7347  0.3756 -0.2362
 4387TIP3   OH234651   1.280   1.530  13.262  0.4341 -0.2155 -0.1549
 4387TIP3    H134652   1.361   1.568  13.228 -0.0547  0.8785 -0.1498
 4387TIP3    H234653   1.242   1.483  13.188 -0.1368  1.3299 -0.8785
 4388TIP3   OH234654   6.291   1.370   3.697  0.2230  0.1130 -0.2247
 4388TIP3    H134655   6.253   1.349   3.782  1.6636  1.2935  0.7520
 4388TIP3    H234656   6.216   1.367   3.637 -0.6671 -1.6026  0.8833
 4389TIP3   OH234657   2.229   2.998   1.466 -0.1901  0.1977 -0.1521
 4389TIP3    H134658   2.188   3.051   1.398 -0.8283 -3.0565 -2.5482
 4389TIP3    H234659   2.323   3.012   1.455 -0.3239  2.8304  1.1818
 4390TIP3   OH234660   2.129   0.943  15.724 -0.0208 -0.1441  0.4017
 4390TIP3    H134661   2.132   0.856  15.765 -2.0427 -0.4078  0.1052
 4390TIP3    H234662   2.205   0.945  15.666 -0.4948 -2.1414 -0.3631
 4391TIP3   OH234663   0.589   3.837  16.698 -0.3694  0.3756 -0.0802
 4391TIP3    H134664   0.518   3.870  16.643 -0.6773 -0.3933 -0.1542
 4391TIP3    H234665   0.567   3.745  16.713  0.8224  0.0091 -0.4512
 4392TIP3   OH234666   3.591   5.380  16.664  0.3770  0.0155 -0.3952
 4392TIP3    H134667   3.553   5.292  16.674  0.7045 -0.1530 -0.6101
 4392TIP3    H234668   3.622   5.403  16.752 -0.4005  0.2401 -0.1772
 4393TIP3   OH234669   0.464   2.993  15.071  0.1342 -0.3151 -0.2119
 4393TIP3    H134670   0.378   2.963  15.041 -0.4518  0.8938  0.2425
 4393TIP3    H234671   0.500   2.918  15.119 -1.7803  0.0240  1.8910
 4394TIP3   OH234672   4.062   6.159   4.173 -0.1967  0.0384  0.4346
 4394TIP3    H134673   4.156   6.141   4.164  0.2826  2.0773  0.8455
 4394TIP3    H234674   4.028   6.153   4.083  0.7045  1.0856  0.0021
 4395TIP3   OH234675   1.985   3.823   2.810 -0.4606 -0.2153 -1.5241
 4395TIP3    H134676   2.059   3.823   2.749 -0.3174  0.3130 -1.3519
 4395TIP3    H234677   1.910   3.801   2.755 -0.4307  0.8529 -2.0235
 4396TIP3   OH234678   2.625   3.424  12.263  0.3053 -0.4934  0.5433
 4396TIP3    H134679   2.679   3.407  12.340 -0.8781 -0.5587  1.3887
 4396TIP3    H234680   2.594   3.513  12.274  1.6173  0.1932 -0.8400
 4397TIP3   OH234681   0.371   5.764  15.589  0.3091 -0.3296 -0.4242
 4397TIP3    H134682   0.338   5.767  15.499 -1.0414 -0.6806  0.0246
 4397TIP3    H234683   0.313   5.822  15.637  1.1345 -0.0060  0.1953
 4398TIP3   OH234684   1.016   2.372   3.478  0.0806 -0.0677  0.1226
 4398TIP3    H134685   1.074   2.338   3.546  1.1960 -0.4568 -0.9944
 4398TIP3    H234686   0.984   2.295   3.432 -2.7471 -0.0173  1.7453
 4399TIP3   OH234687   5.337   3.361  13.872 -0.5577  0.3695  0.4779
 4399TIP3    H134688   5.248   3.343  13.841 -0.9714  2.0185  0.5709
 4399TIP3    H234689   5.327   3.377  13.966 -0.0338 -0.2243  0.6380
 4400TIP3   OH234690   2.954   3.422  15.939 -0.3290  0.4294 -0.5524
 4400TIP3    H134691   3.014   3.487  15.902 -1.9774  2.0031 -0.6128
 4400TIP3    H234692   2.976   3.422  16.033 -0.9453  1.8644 -0.3714
 4401TIP3   OH234693   3.642   1.443   3.692  0.2275  0.0934  0.5190
 4401TIP3    H134694   3.725   1.404   3.665 -0.0183 -1.1047  1.4043
 4401TIP3    H234695   3.641   1.529   3.650  1.6889 -0.0679  0.0998
 4402TIP3   OH234696   5.817   0.535  13.842  0.0839  0.2963 -0.3380
 4402TIP3    H134697   5.848   0.520  13.753  0.2923 -0.0254 -0.2127
 4402TIP3    H234698   5.838   0.626  13.860  0.2654  0.2922 -0.5308
 4403TIP3   OH234699   2.904   0.086   1.476 -0.4134  0.1478 -0.1020
 4403TIP3    H134700   2.990   0.101   1.516 -0.4940 -2.1781  1.0595
 4403TIP3    H234701   2.923   0.071   1.384  0.3395  0.2915  0.0239
 4404TIP3   OH234702   4.342   6.782  15.084 -0.4094 -0.4432  0.4854
 4404TIP3    H134703   4.313   6.708  15.138 -0.9744 -0.5553  0.0374
 4404TIP3    H234704   4.393   6.836  15.144 -2.5832  0.4074  1.6797
 4405TIP3   OH234705   1.774   6.534  13.254 -0.0610  0.3541 -0.2275
 4405TIP3    H134706   1.726   6.466  13.301 -0.4205  1.1332  0.5541
 4405TIP3    H234707   1.826   6.486  13.189 -1.3377 -0.5576 -0.6108
 4406TIP3   OH234708   0.089   5.841  13.834 -0.3563  0.0622  0.0841
 4406TIP3    H134709   0.057   5.754  13.858  0.3348  0.7068  4.1264
 4406TIP3    H234710   0.181   5.841  13.863  0.0599  1.7049 -1.1202
 4407TIP3   OH234711   6.255   2.025   0.399  0.1039 -0.0415  0.5257
 4407TIP3    H134712   6.252   1.930   0.413 -0.1453 -0.3477 -1.2898
 4407TIP3    H234713   6.325   2.038   0.335  1.5819  1.2770  2.2806
 4408TIP3   OH234714   4.644   2.655   2.954  0.0928  0.0585 -0.5016
 4408TIP3    H134715   4.638   2.673   2.860 -0.5286 -0.1540 -0.5027
 4408TIP3    H234716   4.733   2.682   2.977 -0.2256  1.5002 -0.8609
 4409TIP3   OH234717   6.716   2.364  11.755 -0.2398 -0.2033  0.2172
 4409TIP3    H134718   6.808   2.343  11.739 -0.0807 -0.4888  1.3980
 4409TIP3    H234719   6.671   2.337  11.676  0.5724 -0.9263 -0.0105
 4410TIP3   OH234720   0.103   0.221   5.434  0.0152  0.4518 -0.1930
 4410TIP3    H134721   0.172   0.186   5.491 -0.7235  0.7192  0.8994
 4410TIP3    H234722   0.132   0.199   5.346  1.4855  0.5437  0.2334
 4411TIP3   OH234723   3.555   0.253  13.584 -0.3088  0.3150 -0.4115
 4411TIP3    H134724   3.505   0.261  13.666  0.9872  2.0456  0.2798
 4411TIP3    H234725   3.488   0.243  13.516 -1.5412  1.1176  0.6287
 4412TIP3   OH234726   3.903   4.301   3.520  0.2070  0.0613  0.6744
 4412TIP3    H134727   3.813   4.326   3.539 -0.4086 -1.7476  0.3907
 4412TIP3    H234728   3.900   4.265   3.431  0.7899 -1.7440  1.3278
 4413TIP3   OH234729   6.852   2.595  16.498 -0.0786  0.4148 -0.1634
 4413TIP3    H134730   6.774   2.590  16.442 -1.3068 -0.9243  1.5516
 4413TIP3    H234731   6.902   2.517  16.474 -0.4605 -0.0001  0.3505
 4414TIP3   OH234732   4.381   1.135   4.741 -0.2800 -0.1573 -0.2243
 4414TIP3    H134733   4.306   1.193   4.727  1.0899  1.6769 -0.3367
 4414TIP3    H234734   4.425   1.171   4.818  0.4443 -1.2614 -0.1035
 4415TIP3   OH234735   6.745   3.783   2.619 -0.2542 -0.1879  0.2514
 4415TIP3    H134736   6.701   3.743   2.545  1.2407 -1.2414 -0.1195
 4415TIP3    H234737   6.758   3.874   2.593 -1.0185 -0.1955 -0.1743
 4416TIP3   OH234738   4.114   1.367   1.147  0.0533  0.5017  0.6328
 4416TIP3    H134739   4.170   1.290   1.148  0.7554  0.9836 -0.2650
 4416TIP3    H234740   4.029   1.335   1.178  0.9636 -0.0926  2.6949
 4417TIP3   OH234741   3.472   1.314   5.491  0.3653 -0.1851 -0.1644
 4417TIP3    H134742   3.553   1.326   5.539 -0.5741 -1.7837  1.9596
 4417TIP3    H234743   3.479   1.227   5.451  0.7990  0.7944 -2.3795
 4418TIP3   OH234744   0.411   1.638   2.696  1.2469  0.4204  0.4502
 4418TIP3    H134745   0.379   1.727   2.713  0.7236  0.3406 -0.1121
 4418TIP3    H234746   0.506   1.648   2.689  1.1923  0.9359  0.3945
 4419TIP3   OH234747   4.400   5.635  17.071 -0.4498 -0.2944  0.7533
 4419TIP3    H134748   4.421   5.696  17.142  0.7822 -0.1814  0.3118
 4419TIP3    H234749   4.474   5.574  17.069 -1.3518 -1.4262  0.7576
 4420TIP3   OH234750   4.484   0.006  16.748 -0.2791 -0.2798  0.6477
 4420TIP3    H134751   4.429  -0.010  16.825 -0.2600 -0.4405  0.6265
 4420TIP3    H234752   4.520   0.094  16.763  0.3521 -0.6205  1.2093
 4421TIP3   OH234753   6.772   2.818  15.567  0.2043  0.1216  0.1751
 4421TIP3    H134754   6.863   2.794  15.584  0.2609 -0.3564 -0.7354
 4421TIP3    H234755   6.721   2.747  15.606  0.2958 -0.4621 -0.7343
 4422TIP3   OH234756   4.907   3.517  11.755  0.8980 -0.0466  0.4644
 4422TIP3    H134757   4.881   3.570  11.680 -0.0199 -0.0201  0.7817
 4422TIP3    H234758   4.854   3.438  11.747 -1.8945  1.3581  2.8874
 4423TIP3   OH234759   5.872   2.243   4.478  0.0743  0.2136 -0.0631
 4423TIP3    H134760   5.809   2.303   4.438 -0.0626  1.0431  1.3358
 4423TIP3    H234761   5.860   2.160   4.432  1.5462  1.6457 -3.4173
 4424TIP3   OH234762   2.492   3.329   5.227 -0.3250 -0.3337 -0.2431
 4424TIP3    H134763   2.541   3.409   5.206 -0.5618 -0.6412 -2.0526
 4424TIP3    H234764   2.506   3.318   5.321  0.2715  1.4573 -0.0744
 4425TIP3   OH234765   0.094   0.938   4.930 -0.3016  0.2268  0.0957
 4425TIP3    H134766   0.010   0.932   4.883  0.5798 -0.8079 -1.4232
 4425TIP3    H234767   0.076   0.998   5.002 -1.4685  2.8109 -2.1535
 4426TIP3   OH234768   4.171   4.890  13.018  0.4476 -0.2810 -0.3707
 4426TIP3    H134769   4.265   4.873  13.010  0.4747 -1.5783  1.8424
 4426TIP3    H234770   4.137   4.815  13.067 -1.4848  0.8387  0.1049
 4427TIP3   OH234771   5.636   6.230  14.642  0.3798 -0.7130 -0.2438
 4427TIP3    H134772   5.709   6.174  14.669  0.8291 -0.6042 -1.1954
 4427TIP3    H234773   5.678   6.304  14.598 -0.2301  0.1767  0.6345
 4428TIP3   OH234774   6.595   3.729  15.468  0.3980 -0.2705  0.1676
 4428TIP3    H134775   6.523   3.730  15.531  1.2784 -0.4993  1.2052
 4428TIP3    H234776   6.590   3.643  15.427 -0.3785  0.0019 -0.3242
 4429TIP3   OH234777   4.708   2.860   0.702  0.1386  0.8312 -0.3432
 4429TIP3    H134778   4.683   2.925   0.637 -1.1016  0.7794  0.0514
 4429TIP3    H234779   4.654   2.881   0.779  1.1942  0.5775  0.4932
 4430TIP3   OH234780   2.902   3.123  17.013  0.0947  0.3012 -0.1613
 4430TIP3    H134781   2.845   3.159  16.946 -0.2995 -0.1179 -0.0621
 4430TIP3    H234782   2.956   3.058  16.968 -0.1570  0.0331 -0.0848
 4431TIP3   OH234783   3.113   4.375  15.438 -0.5287  0.1545  0.0500
 4431TIP3    H134784   3.115   4.316  15.362 -1.7746  0.5234 -0.2824
 4431TIP3    H234785   3.114   4.463  15.401 -1.1323  0.3386  0.4572
 4432TIP3   OH234786   6.494   2.563   1.639  0.5788 -0.7261  0.0614
 4432TIP3    H134787   6.568   2.546   1.697  0.7215 -0.7001 -0.1124
 4432TIP3    H234788   6.480   2.480   1.593  1.9696 -0.0973 -1.5857
 4433TIP3   OH234789   2.858   2.069   3.206 -0.0816 -0.3271  0.3627
 4433TIP3    H134790   2.906   2.049   3.286  0.2742 -1.0058 -0.0085
 4433TIP3    H234791   2.922   2.058   3.136  0.5605  3.4212  0.1486
 4434TIP3   OH234792   6.026   2.187   0.985 -0.1546 -0.6379 -0.0397
 4434TIP3    H134793   5.974   2.245   0.929  0.8446  1.1048  0.7594
 4434TIP3    H234794   5.969   2.167   1.059 -0.8328 -1.4772 -0.7652
 4435TIP3   OH234795   3.665   1.844  15.018  0.3687  0.1445 -0.2152
 4435TIP3    H134796   3.641   1.892  15.098  1.0066 -0.3617  0.2918
 4435TIP3    H234797   3.614   1.763  15.023  1.7685 -0.7203  0.6254
 4436TIP3   OH234798   1.239   3.434  15.792 -0.0443 -0.4901  0.7486
 4436TIP3    H134799   1.232   3.525  15.764  0.0038 -0.6343  0.2619
 4436TIP3    H234800   1.178   3.427  15.865 -0.5150 -0.2269  0.3830
 4437TIP3   OH234801   2.795   6.236  16.200  0.1793  0.2375 -0.0455
 4437TIP3    H134802   2.716   6.286  16.220  0.9202  0.9445  1.2192
 4437TIP3    H234803   2.772   6.145  16.222  0.2190  0.6628  1.9243
 4438TIP3   OH234804   2.911   3.803  13.829  0.4658  0.0487 -0.6721
 4438TIP3    H134805   2.858   3.749  13.770  0.0168 -0.2770  0.0144
 4438TIP3    H234806   2.940   3.743  13.897 -1.1343  0.9025  0.8305
 4439TIP3   OH234807   0.690   3.635   6.135  0.1465 -0.5943  0.0882
 4439TIP3    H134808   0.683   3.702   6.203 -1.7393  0.0818 -0.7024
 4439TIP3    H234809   0.729   3.560   6.180  3.2591  1.2320  0.7836
 4440TIP3   OH234810   1.792   4.942   3.040  0.1470  0.0537 -0.0713
 4440TIP3    H134811   1.744   4.934   3.122  0.6812  1.3960  0.4079
 4440TIP3    H234812   1.767   5.029   3.007 -0.5220 -0.6853 -1.6466
 4441TIP3   OH234813   5.173   4.759   2.032  0.2414 -0.8091 -0.2023
 4441TIP3    H134814   5.194   4.670   2.059  1.5883 -0.0120  1.5949
 4441TIP3    H234815   5.170   4.809   2.114  4.3653  1.7441 -1.3026
 4442TIP3   OH234816   5.251   3.522   0.582  0.4698 -0.2333 -0.0418
 4442TIP3    H134817   5.288   3.478   0.505  1.1698  0.1687  0.0568
 4442TIP3    H234818   5.187   3.460   0.616  0.7613 -0.7787 -0.4618
 4443TIP3   OH234819   4.006   1.430   4.408 -0.0744 -0.0258 -0.1218
 4443TIP3    H134820   3.929   1.486   4.397 -0.9952 -0.7289  2.1943
 4443TIP3    H234821   3.980   1.347   4.366  0.9453  0.8595 -2.7268
 4444TIP3   OH234822   3.594   4.351   5.052  0.1969 -0.0660  0.0864
 4444TIP3    H134823   3.558   4.421   5.106  1.5864  0.1756  0.7196
 4444TIP3    H234824   3.611   4.279   5.113  0.0714 -0.4557 -0.3324
 4445TIP3   OH234825   0.389   3.086   1.086 -0.8229  0.0847 -0.1892
 4445TIP3    H134826   0.355   3.073   0.997 -2.9329  0.1478  0.5525
 4445TIP3    H234827   0.422   3.000   1.111  1.0458  0.3618 -1.4663
 4446TIP3   OH234828   2.223   2.958  14.903  0.0891 -0.1875 -0.2105
 4446TIP3    H134829   2.282   2.910  14.962 -0.2976  0.0105  0.3470
 4446TIP3    H234830   2.237   3.050  14.925  1.2530  0.0176 -1.6731
 4447TIP3   OH234831   0.953   3.344  16.587 -0.5599 -0.0076  0.8009
 4447TIP3    H134832   0.906   3.272  16.630 -2.0779  0.7475  0.5052
 4447TIP3    H234833   0.889   3.380  16.525  0.9340  0.1487 -0.7323
 4448TIP3   OH234834   4.448   3.273  11.494  0.0052  0.1820  0.4550
 4448TIP3    H134835   4.493   3.355  11.516 -0.0426 -0.1672  2.0020
 4448TIP3    H234836   4.441   3.227  11.578 -0.2283 -1.2806 -0.3402
 4449TIP3   OH234837   5.162   4.781  11.898  0.4975  0.5935  0.1598
 4449TIP3    H134838   5.222   4.849  11.867  0.7326 -0.6037 -2.3093
 4449TIP3    H234839   5.088   4.785  11.838  0.3230 -1.0100  0.2217
 4450TIP3   OH234840   4.888   4.775   1.257 -0.1790  0.2111 -0.1101
 4450TIP3    H134841   4.795   4.753   1.251 -0.0401 -1.2143  2.0884
 4450TIP3    H234842   4.893   4.840   1.327  0.4697  0.5306 -0.4351
 4451TIP3   OH234843   4.637   2.933   2.724 -0.5565  0.0237  0.8396
 4451TIP3    H134844   4.702   2.869   2.695  0.4122  0.7638  1.3154
 4451TIP3    H234845   4.558   2.912   2.673  0.5747  0.2338 -1.1328
 4452TIP3   OH234846   5.576   3.802   1.747  0.1626 -0.2145 -0.5533
 4452TIP3    H134847   5.519   3.763   1.813  0.9375 -0.0959  0.2019
 4452TIP3    H234848   5.534   3.885   1.724 -0.3642 -0.4852 -0.5803
 4453TIP3   OH234849   0.700   1.869  16.734 -0.2470 -0.3888 -0.0522
 4453TIP3    H134850   0.677   1.893  16.644  0.3548 -0.2783 -0.1817
 4453TIP3    H234851   0.637   1.801  16.757 -1.7367  1.0269  0.1980
 4454TIP3   OH234852   2.838   3.121   1.364  0.0617 -0.0562 -0.0441
 4454TIP3    H134853   2.854   3.189   1.297  3.6984 -1.0234 -0.3693
 4454TIP3    H234854   2.809   3.045   1.314 -0.0506  0.0698 -0.1725
 4455TIP3   OH234855   1.729   2.128   3.118  0.3580 -0.1582  0.3659
 4455TIP3    H134856   1.716   2.149   3.210 -2.1811  1.9015 -0.3378
 4455TIP3    H234857   1.781   2.201   3.084  0.1290 -0.1963 -0.0798
 4456TIP3   OH234858   2.186   2.862  12.012  0.1020  0.5220  0.1639
 4456TIP3    H134859   2.159   2.948  12.045  0.7834  1.3998 -1.4338
 4456TIP3    H234860   2.233   2.882  11.930 -0.1785 -1.4129 -0.5091
 4457TIP3   OH234861   4.873   2.012   1.789  0.3037  0.1807  0.1413
 4457TIP3    H134862   4.843   2.095   1.752  0.8103  0.6661  0.8003
 4457TIP3    H234863   4.798   1.953   1.778 -0.0379  0.7019 -0.3901
 4458TIP3   OH234864   3.566   3.501  15.368 -0.0256  0.1421 -0.3074
 4458TIP3    H134865   3.540   3.438  15.302 -0.3251 -2.6752  2.2874
 4458TIP3    H234866   3.486   3.547  15.391 -0.9717 -2.0485  1.1373
 4459TIP3   OH234867   4.406   2.691   6.048  0.4346 -0.0482  0.1851
 4459TIP3    H134868   4.350   2.613   6.048  0.0431  0.2304  0.2740
 4459TIP3    H234869   4.473   2.671   5.983 -0.8093  0.3296 -1.2797
 4460TIP3   OH234870   5.461   3.555   5.492  0.0375  0.1013 -0.1138
 4460TIP3    H134871   5.525   3.495   5.530  0.5371  0.9872  0.4791
 4460TIP3    H234872   5.503   3.641   5.496 -1.0195  0.6309 -0.1033
 4461TIP3   OH234873   5.292   3.669  13.002 -0.7581 -0.3673  0.2917
 4461TIP3    H134874   5.347   3.669  13.080  0.8339 -0.4545 -0.7818
 4461TIP3    H234875   5.206   3.639  13.032 -0.2168 -0.2647  2.0079
 4462TIP3   OH234876   5.578   2.599  16.696 -0.3021  0.1148 -0.3541
 4462TIP3    H134877   5.592   2.651  16.774 -1.6713 -0.7572  0.5201
 4462TIP3    H234878   5.564   2.663  16.626 -1.6516  0.9612  0.6261
 4463TIP3   OH234879   2.263   5.691  11.314  0.3358  0.5425 -0.4503
 4463TIP3    H134880   2.185   5.635  11.319  0.8085 -0.1234 -0.4621
 4463TIP3    H234881   2.228   5.777  11.288 -0.2719 -0.0597 -1.7647
 4464TIP3   OH234882   2.113   1.312  10.287  0.5886  0.4728 -0.2274
 4464TIP3    H134883   2.057   1.252  10.337  0.7352  0.2420 -0.3368
 4464TIP3    H234884   2.065   1.395  10.287 -0.4029 -0.0749 -1.4662
 4465TIP3   OH234885   3.452   2.226  12.256 -0.5497 -0.1513 -0.2122
 4465TIP3    H134886   3.519   2.187  12.311 -1.0002  0.6759  0.9698
 4465TIP3    H234887   3.370   2.211  12.304 -1.1531 -0.6851 -1.3669
 4466TIP3   OH234888   3.475   4.633   0.766 -0.5635  0.2313 -0.4103
 4466TIP3    H134889   3.542   4.651   0.700  0.3697  1.5045  0.8300
 4466TIP3    H234890   3.510   4.671   0.847 -1.2250 -2.0915  1.0620
 4467TIP3   OH234891   1.544   5.850   4.954  1.2704 -0.0586  0.1741
 4467TIP3    H134892   1.592   5.790   4.897 -0.2357  0.6797 -2.0045
 4467TIP3    H234893   1.462   5.867   4.907  1.3521  3.1963  0.9891
 4468TIP3   OH234894   2.623   1.047   1.797 -0.0635 -0.2955  0.2636
 4468TIP3    H134895   2.536   1.007   1.784  0.1286 -2.3668  3.9836
 4468TIP3    H234896   2.604   1.137   1.823 -1.0848 -0.6032  0.6568
 4469TIP3   OH234897   6.263   1.798  11.897 -0.0704 -0.0936 -0.6637
 4469TIP3    H134898   6.190   1.849  11.861  0.1340  0.4039 -0.3856
 4469TIP3    H234899   6.340   1.827  11.847  0.0934  0.0770 -0.3157
 4470TIP3   OH234900   6.278   1.477  16.494 -0.7011 -0.2205 -0.2135
 4470TIP3    H134901   6.228   1.396  16.477 -1.6871  0.5441 -1.1395
 4470TIP3    H234902   6.230   1.520  16.564 -0.6359 -0.0719 -0.2602
 4471TIP3   OH234903   1.780   1.130  15.126  0.0547  0.1347  0.2095
 4471TIP3    H134904   1.689   1.110  15.105 -0.3610 -0.5766  2.4991
 4471TIP3    H234905   1.775   1.199  15.192  1.1999  0.4448 -0.0111
 4472TIP3   OH234906   2.340   4.621  10.890 -0.7262  0.3581  0.5067
 4472TIP3    H134907   2.312   4.707  10.921 -2.2913 -0.4489  1.4412
 4472TIP3    H234908   2.331   4.626  10.795 -2.8299  0.5938  0.6785
 4473TIP3   OH234909   6.539   0.562   6.424  0.2290 -0.1387  0.1406
 4473TIP3    H134910   6.460   0.616   6.433  0.5897  0.4282 -0.0315
 4473TIP3    H234911   6.597   0.614   6.369  0.3689 -0.9490 -0.5021
 4474TIP3   OH234912   4.500   2.928   5.769  0.6298  0.0709 -0.3360
 4474TIP3    H134913   4.435   2.902   5.703  0.3334  2.2924 -1.0321
 4474TIP3    H234914   4.548   2.848   5.789 -0.3120 -1.0050 -2.1060
 4475TIP3   OH234915   0.689   2.742   4.725  0.4511  0.5831 -0.2158
 4475TIP3    H134916   0.610   2.779   4.686  1.1194 -0.1641 -2.4239
 4475TIP3    H234917   0.715   2.806   4.791 -1.9673  0.8403  0.5722
 4476TIP3   OH234918   6.295   5.911   3.672 -0.2882  0.1307  0.0502
 4476TIP3    H134919   6.340   5.915   3.588 -1.9685  0.1091 -0.9099
 4476TIP3    H234920   6.295   6.001   3.704 -0.3939  0.2915 -0.3990
 4477TIP3   OH234921   3.400   3.709  12.892  0.1176  0.3172  0.2694
 4477TIP3    H134922   3.313   3.724  12.927  0.6945  1.2375  1.3585
 4477TIP3    H234923   3.401   3.616  12.869 -0.8699  0.0986  1.0571
 4478TIP3   OH234924   0.511   4.094  11.488 -0.2192  0.0507 -0.2325
 4478TIP3    H134925   0.515   4.049  11.572  0.4947 -1.1720 -0.8811
 4478TIP3    H234926   0.418   4.111  11.474 -0.8059 -2.8997 -0.7340
 4479TIP3   OH234927   0.887   5.838   6.390  0.0699 -0.6580 -0.6015
 4479TIP3    H134928   0.967   5.802   6.353 -0.6564 -1.0120 -1.8910
 4479TIP3    H234929   0.846   5.886   6.318 -0.7874 -0.3401  0.0765
 4480TIP3   OH234930   3.071   4.914  11.146  0.4621  0.1936  0.5936
 4480TIP3    H134931   3.036   4.999  11.171 -0.5459  0.1871 -0.6793
 4480TIP3    H234932   3.103   4.926  11.056 -1.1006 -1.1201 -0.1972
 4481TIP3   OH234933   5.174   0.004   4.678  0.3470  0.2823 -0.0743
 4481TIP3    H134934   5.110   0.055   4.729 -3.1900 -1.7952 -2.0399
 4481TIP3    H234935   5.190   0.057   4.600 -2.0437 -0.6926 -1.3312
 4482TIP3   OH234936   1.159   6.251   1.988  0.1439 -0.2486  0.3657
 4482TIP3    H134937   1.162   6.345   1.973 -1.6196 -0.1665  0.3606
 4482TIP3    H234938   1.141   6.214   1.901 -0.1056 -0.5283  0.5386
 4483TIP3   OH234939   1.308   2.070   0.726 -0.2196 -0.1317  0.3321
 4483TIP3    H134940   1.371   2.140   0.708 -0.9444  0.0190 -2.0574
 4483TIP3    H234941   1.224   2.116   0.736 -0.2686 -0.4679  1.6024
 4484TIP3   OH234942   0.147   0.633   3.563  0.5061 -0.0875  0.3921
 4484TIP3    H134943   0.198   0.585   3.497 -0.2486  0.3761 -0.5523
 4484TIP3    H234944   0.060   0.641   3.524 -0.0362 -0.0626  1.5930
 4485TIP3   OH234945   3.173   5.861  11.754 -0.0071 -0.6021 -0.2879
 4485TIP3    H134946   3.207   5.861  11.665  0.1996 -0.6038 -0.2098
 4485TIP3    H234947   3.180   5.770  11.782  0.6161 -0.4793 -0.0120
 4486TIP3   OH234948   3.113   0.548   1.397 -0.3425  0.5799  0.4747
 4486TIP3    H134949   3.101   0.487   1.469 -0.4882  0.6649  0.5227
 4486TIP3    H234950   3.110   0.493   1.318  3.8513 -0.1913  0.6145
 4487TIP3   OH234951   1.506   4.628   6.040 -0.3094  0.4103 -0.1036
 4487TIP3    H134952   1.563   4.704   6.045 -0.9423  0.9009 -0.1680
 4487TIP3    H234953   1.448   4.647   5.966  2.1314 -1.9669 -2.8317
 4488TIP3   OH234954   6.533   3.100   5.695  0.2352  0.3319 -0.0058
 4488TIP3    H134955   6.566   3.027   5.746  0.1287  1.3371  1.5770
 4488TIP3    H234956   6.555   3.178   5.747  1.6863  1.5894 -2.3181
 4489TIP3   OH234957   2.308   3.353  12.594  0.1823 -0.4384  0.9178
 4489TIP3    H134958   2.265   3.396  12.668 -0.2392  0.2264  0.3000
 4489TIP3    H234959   2.402   3.360  12.613  0.1105  0.5994  0.9068
 4490TIP3   OH234960   6.448   5.753   5.294 -0.1119  0.3710  0.4301
 4490TIP3    H134961   6.395   5.801   5.230  0.4183  0.5049  0.0780
 4490TIP3    H234962   6.392   5.682   5.324 -0.2269  0.0546 -0.4993
 4491TIP3   OH234963   1.007   2.350  15.999  0.1381  0.1691  0.0992
 4491TIP3    H134964   0.931   2.399  15.966 -0.5770 -0.2078  1.1357
 4491TIP3    H234965   0.997   2.352  16.094  0.9229 -0.6921  0.2109
 4492TIP3   OH234966   5.136   3.746   3.416  0.1979 -0.1562  0.6889
 4492TIP3    H134967   5.202   3.705   3.472 -1.0153  1.0209  3.1651
 4492TIP3    H234968   5.152   3.840   3.424 -0.5888  0.0807 -0.2424
 4493TIP3   OH234969   4.172   1.884  12.155  0.7070 -0.0923  0.2295
 4493TIP3    H134970   4.151   1.800  12.114 -1.1595 -0.0266  0.9531
 4493TIP3    H234971   4.140   1.876  12.245  1.0694  1.1756  0.4983
 4494TIP3   OH234972   0.956   1.047  12.442 -0.6478 -0.5909  0.1597
 4494TIP3    H134973   0.991   0.963  12.413 -0.3929 -0.8518  1.1587
 4494TIP3    H234974   0.976   1.108  12.371  2.1556 -0.6379  0.7842
 4495TIP3   OH234975   5.543   4.214   3.944 -0.0820  0.2808  0.0281
 4495TIP3    H134976   5.460   4.258   3.925 -0.5824 -0.6905 -0.1468
 4495TIP3    H234977   5.577   4.188   3.859  0.8812  1.4843  0.0314
 4496TIP3   OH234978   2.356   6.153   5.044  0.0209 -0.0723  0.1707
 4496TIP3    H134979   2.435   6.196   5.008  0.4656  1.1439  2.4256
 4496TIP3    H234980   2.300   6.226   5.071 -1.7813 -0.9318 -1.0322
 4497TIP3   OH234981   0.744   5.843   3.062  0.3086  0.2582 -0.5986
 4497TIP3    H134982   0.758   5.938   3.067 -0.6437  0.3467  1.8575
 4497TIP3    H234983   0.825   5.805   3.094 -0.2234  0.3902  1.0386
 4498TIP3   OH234984   0.853   3.238  10.544 -0.0126  0.7103 -0.8532
 4498TIP3    H134985   0.919   3.274  10.484 -0.6788  0.9319 -1.4680
 4498TIP3    H234986   0.813   3.315  10.585  0.2876  0.5671 -0.2812
 4499TIP3   OH234987   0.506   5.824  17.014  0.1084 -0.4779 -0.2529
 4499TIP3    H134988   0.529   5.748  16.961  0.5107  0.1223 -0.9611
 4499TIP3    H234989   0.424   5.800  17.056 -1.0228 -0.4383 -2.2939
 4500TIP3   OH234990   1.447   3.201  14.801  0.1323 -0.1150 -0.6803
 4500TIP3    H134991   1.429   3.207  14.895  0.1656  0.5594 -0.7103
 4500TIP3    H234992   1.535   3.163  14.796  0.4112  0.4889 -0.4180
 4501TIP3   OH234993   6.534   6.020  14.094  0.2160 -0.2101  0.0715
 4501TIP3    H134994   6.502   5.983  14.012  0.4456 -1.6288  0.5975
 4501TIP3    H234995   6.457   6.065  14.130  0.3418  1.1984 -1.3022
 4502TIP3   OH234996   3.569   4.944   3.289 -0.5666 -0.3756 -0.3039
 4502TIP3    H134997   3.645   4.995   3.316 -0.3885 -1.1724  0.7607
 4502TIP3    H234998   3.563   4.874   3.354 -0.7868 -1.7411 -1.7362
 4503TIP3   OH234999   1.886   1.434  11.641 -0.5517  0.0636  0.3186
 4503TIP3    H135000   1.964   1.463  11.689 -0.5463  1.6956 -0.5836
 4503TIP3    H235001   1.869   1.346  11.674  1.8424 -0.4768  0.3383
 4504TIP3   OH235002   2.516   3.077  14.545  0.0409  0.2052 -0.5242
 4504TIP3    H135003   2.466   3.013  14.596 -1.1165  1.8153  0.4749
 4504TIP3    H235004   2.481   3.070  14.456  0.6073 -1.1701 -0.6701
 4505TIP3   OH235005   4.514   1.512  11.619 -0.5331 -0.4396  0.2080
 4505TIP3    H135006   4.477   1.510  11.531 -0.5119  2.0369  0.0734
 4505TIP3    H235007   4.439   1.528  11.677 -0.5012 -1.7201  0.6406
 4506TIP3   OH235008   0.949   2.393  14.181  0.0391  0.2528 -0.6105
 4506TIP3    H135009   0.881   2.327  14.194  0.4972 -0.3838 -1.3857
 4506TIP3    H235010   0.980   2.412  14.270 -0.3989 -0.2419 -0.3445
 4507TIP3   OH235011   4.704   0.693   1.990  0.4731  0.2721  0.0533
 4507TIP3    H135012   4.719   0.629   2.059  0.7182 -0.4491 -0.6484
 4507TIP3    H235013   4.620   0.733   2.013  0.1910 -0.4829  0.3772
 4508TIP3   OH235014   5.850   0.145   2.620  0.3247  0.6730  0.0161
 4508TIP3    H135015   5.890   0.116   2.702 -0.4958  0.1328  0.2303
 4508TIP3    H235016   5.799   0.222   2.644 -0.6600 -0.0243  0.1983
 4509TIP3   OH235017   4.965   2.409   1.971 -0.5220 -0.1554  0.1451
 4509TIP3    H135018   4.965   2.465   2.048  0.1527 -1.3540  1.0451
 4509TIP3    H235019   5.044   2.434   1.923 -1.4583  1.3039 -0.7543
 4510TIP3   OH235020   2.112   2.783   1.235  1.0474 -0.0245  0.1509
 4510TIP3    H135021   2.149   2.862   1.195 -0.5126  0.8689  0.3948
 4510TIP3    H235022   2.186   2.744   1.281  2.6863 -0.5411 -2.6466
 4511TIP3   OH235023   3.125   5.789  15.497  0.2428  0.3243  0.0414
 4511TIP3    H135024   3.134   5.706  15.450 -0.9616  0.6931 -0.9015
 4511TIP3    H235025   3.214   5.820  15.509  0.7124 -1.0879  0.3856
 4512TIP3   OH235026   0.073   2.767   5.433 -0.0113  0.2361 -0.0624
 4512TIP3    H135027  -0.008   2.813   5.455 -0.6657  0.4687 -2.6068
 4512TIP3    H235028   0.046   2.701   5.369  1.2891 -2.2007  1.7746
 4513TIP3   OH235029   1.483   0.643  15.215 -0.4263 -0.3526 -0.1184
 4513TIP3    H135030   1.397   0.639  15.174 -0.1073  0.8067 -0.9613
 4513TIP3    H235031   1.501   0.737  15.223  0.3346 -0.5744  0.9705
 4514TIP3   OH235032   3.175   2.456   1.928  0.9469 -0.0432 -0.2980
 4514TIP3    H135033   3.156   2.536   1.977  0.3631 -0.2672 -0.1572
 4514TIP3    H235034   3.269   2.462   1.909  0.6388  1.3647 -1.5225
 4515TIP3   OH235035   0.451   4.318  14.428  0.7928  0.1824 -0.1661
 4515TIP3    H135036   0.361   4.286  14.434  0.2965  1.6067  0.2134
 4515TIP3    H235037   0.462   4.375  14.503  2.9140 -1.9923  1.3464
 4516TIP3   OH235038   3.285   4.773   3.262 -0.8768 -0.1030 -0.1802
 4516TIP3    H135039   3.326   4.860   3.260 -0.9886 -0.0067  1.0953
 4516TIP3    H235040   3.342   4.719   3.206 -0.3936  0.6130 -0.3962
 4517TIP3   OH235041   1.484   2.616   4.649  0.6959 -0.1939 -0.4980
 4517TIP3    H135042   1.463   2.525   4.630 -1.7982  0.2358 -0.1992
 4517TIP3    H235043   1.407   2.665   4.621  0.5656  1.4399  2.2686
 4518TIP3   OH235044   3.356   1.793   1.470  0.3629 -0.5179 -0.4139
 4518TIP3    H135045   3.291   1.765   1.535 -0.9566  1.5675 -0.7545
 4518TIP3    H235046   3.433   1.818   1.522  0.5341 -1.9470  0.0729
 4519TIP3   OH235047   5.996   4.672   5.498  0.0732 -0.0438  0.4468
 4519TIP3    H135048   5.934   4.603   5.476  0.3132  0.6600 -2.9923
 4519TIP3    H235049   5.947   4.753   5.483  0.8768  0.5289  0.8652
 4520TIP3   OH235050   2.825   3.102   2.667  0.2264 -0.2108  0.0476
 4520TIP3    H135051   2.898   3.094   2.606  0.6704  3.7663 -0.2242
 4520TIP3    H235052   2.864   3.092   2.754  0.4138 -1.5399 -0.1840
 4521TIP3   OH235053   2.263   3.858  13.444  0.2961  0.3565 -0.0972
 4521TIP3    H135054   2.178   3.900  13.436  0.8893  1.7937  0.6933
 4521TIP3    H235055   2.283   3.862  13.538  1.7999  1.2753 -0.4215
 4522TIP3   OH235056   2.036   2.503   1.230  0.6559 -0.1029  0.0191
 4522TIP3    H135057   1.945   2.485   1.206  0.1189  0.4095  1.5783
 4522TIP3    H235058   2.053   2.591   1.198  1.1231 -0.7302 -1.5936
 4523TIP3   OH235059   2.839   0.330  12.895  0.0417 -0.1784  0.0272
 4523TIP3    H135060   2.926   0.335  12.935 -0.0308  0.8856  0.0894
 4523TIP3    H235061   2.778   0.345  12.967 -0.1552  0.0264 -0.1791
 4524TIP3   OH235062   0.028   5.413  10.578  0.5356  0.9207 -0.1134
 4524TIP3    H135063  -0.028   5.470  10.631  1.4467  1.0151  0.7891
 4524TIP3    H235064  -0.032   5.367  10.520 -0.6275  0.2221  1.5522
 4525TIP3   OH235065   0.134   5.355   4.107 -0.1955  0.0001 -0.4238
 4525TIP3    H135066   0.130   5.431   4.165  1.0238  0.2698 -0.6809
 4525TIP3    H235067   0.146   5.392   4.020 -1.2255 -0.4382 -0.7655
 4526TIP3   OH235068   3.288   3.169   6.281  0.6404  0.2385  0.1267
 4526TIP3    H135069   3.310   3.250   6.235 -0.0033  0.5139  0.2983
 4526TIP3    H235070   3.196   3.154   6.262  0.8623 -0.6952 -0.2608
 4527TIP3   OH235071   0.922   3.428   4.362 -0.6062  0.1660  0.3319
 4527TIP3    H135072   0.925   3.336   4.387 -1.3301  0.0548  0.0534
 4527TIP3    H235073   0.847   3.433   4.302 -1.5577  1.2230  1.5557
 4528TIP3   OH235074   0.486   1.039   5.556  0.0181  0.3159  0.1954
 4528TIP3    H135075   0.542   1.020   5.632 -0.1897  2.2783  0.8915
 4528TIP3    H235076   0.545   1.080   5.493 -0.3192  1.0478  0.3474
 4529TIP3   OH235077   2.779   3.385  14.375  0.1026  0.0627  0.0226
 4529TIP3    H135078   2.802   3.319  14.441 -0.5915 -0.6306 -0.4058
 4529TIP3    H235079   2.683   3.386  14.375  0.0115  2.7792  1.6799
 4530TIP3   OH235080   1.049   2.891   2.067 -0.1124  0.0741  0.1994
 4530TIP3    H135081   1.143   2.886   2.086 -0.3179 -1.3624  0.9686
 4530TIP3    H235082   1.012   2.939   2.141  0.0659  1.0761 -0.3484
 4531TIP3   OH235083   1.682   2.381   3.646  0.3243  0.5181 -0.0626
 4531TIP3    H135084   1.773   2.410   3.656  0.5348  0.1521 -0.8019
 4531TIP3    H235085   1.647   2.380   3.734  1.2784 -0.0969  0.3232
 4532TIP3   OH235086   0.401   1.346  16.253 -0.3489  0.2246  0.1799
 4532TIP3    H135087   0.430   1.293  16.328 -1.3845 -1.5760 -0.6167
 4532TIP3    H235088   0.482   1.376  16.212  0.2874 -0.5199  0.8454
 4533TIP3   OH235089   1.751   0.382  15.499  0.7054 -0.3326  0.2394
 4533TIP3    H135090   1.663   0.365  15.531  0.5683 -0.2017 -0.0700
 4533TIP3    H235091   1.783   0.297  15.470  0.2821 -0.1922 -0.6522
 4534TIP3   OH235092   4.688   1.683   4.797  0.1488  0.3662 -0.4625
 4534TIP3    H135093   4.680   1.751   4.863  0.8154  0.8625 -0.8855
 4534TIP3    H235094   4.740   1.723   4.727  0.9294 -0.7196 -0.5262
 4535TIP3   OH235095   4.643   2.836  12.388 -0.3169 -0.0087  0.8029
 4535TIP3    H135096   4.668   2.791  12.307 -0.7550  0.5283  0.3638
 4535TIP3    H235097   4.723   2.878  12.418 -0.8375  2.6432 -1.1888
 4536TIP3   OH235098   1.818   0.518   5.364 -1.0350  0.1436 -0.0580
 4536TIP3    H135099   1.812   0.462   5.286 -1.6470  2.0253 -1.4200
 4536TIP3    H235100   1.874   0.469   5.424 -0.6302 -1.4180 -1.6309
 4537TIP3   OH235101   4.395   2.737   5.202 -0.1996  0.2707  0.0353
 4537TIP3    H135102   4.431   2.677   5.137  0.0042  1.1785 -0.6975
 4537TIP3    H235103   4.336   2.682   5.254 -1.8497 -0.1042 -2.1007
 4538TIP3   OH235104   6.132   2.387  11.874 -0.1353  0.3018  0.4639
 4538TIP3    H135105   6.121   2.482  11.874 -2.0439  0.1491 -1.4422
 4538TIP3    H235106   6.073   2.357  11.943 -0.7670  0.4022 -0.0309
 4539TIP3   OH235107   5.879   0.368   3.499 -0.2858  0.0498 -0.4514
 4539TIP3    H135108   5.973   0.361   3.518  0.1753  0.7502 -2.2459
 4539TIP3    H235109   5.873   0.352   3.405 -2.1635 -1.3545 -0.1340
 4540TIP3   OH235110   5.994   3.028   1.103 -0.0351  0.2401  0.0053
 4540TIP3    H135111   6.018   2.977   1.025 -1.1922  0.6627 -0.6474
 4540TIP3    H235112   5.913   2.988   1.134 -1.0709  1.7620 -0.6261
 4541TIP3   OH235113   0.659   6.445  12.211  0.9871 -0.4338 -0.4544
 4541TIP3    H135114   0.627   6.443  12.301 -1.4892 -0.7436 -1.2795
 4541TIP3    H235115   0.679   6.353  12.191 -1.1253 -0.8027 -1.0623
 4542TIP3   OH235116   2.811   1.820   5.230  0.2308 -0.4335 -0.5020
 4542TIP3    H135117   2.879   1.854   5.171  0.4923  0.0966  0.0935
 4542TIP3    H235118   2.735   1.875   5.212  0.2575 -0.3868 -0.4729
 4543TIP3   OH235119   2.807   0.182  16.572  0.4692 -0.2916  0.0342
 4543TIP3    H135120   2.735   0.124  16.552 -0.1408  0.1355  0.9052
 4543TIP3    H235121   2.885   0.126  16.572  0.1820 -0.7107 -1.1282
 4544TIP3   OH235122   0.198   6.530  12.318  0.1432 -0.5041  0.1242
 4544TIP3    H135123   0.243   6.449  12.343 -1.8056 -1.9858 -0.8851
 4544TIP3    H235124   0.253   6.600  12.353  3.1582 -2.1658 -0.9809
 4545TIP3   OH235125   5.550   2.703   6.312  0.0561  0.2567  0.6231
 4545TIP3    H135126   5.608   2.644   6.263 -0.3232 -1.2163  1.8911
 4545TIP3    H235127   5.601   2.784   6.321  1.9666 -0.9889  1.7000
 4546TIP3   OH235128   0.795   6.524  11.739  0.2282  0.0405  0.0586
 4546TIP3    H135129   0.706   6.545  11.710  0.8415 -0.6344 -2.6287
 4546TIP3    H235130   0.800   6.429  11.733  1.3321  0.1265 -0.6026
 4547TIP3   OH235131   1.029   2.210  15.371 -0.2253 -0.1114 -0.2764
 4547TIP3    H135132   1.123   2.210  15.392  0.2449 -0.6104 -2.1756
 4547TIP3    H235133   1.019   2.136  15.311 -1.6125  0.6623 -1.0328
 4548TIP3   OH235134   3.197   6.641  15.307 -0.3241 -0.0843  0.2263
 4548TIP3    H135135   3.171   6.594  15.386 -1.9886 -1.2295 -0.9254
 4548TIP3    H235136   3.188   6.576  15.237  2.5187  0.4381 -0.7915
 4549TIP3   OH235137   4.072   2.903   3.773  0.2543 -0.0759  0.0425
 4549TIP3    H135138   4.039   2.948   3.695 -1.5023  0.8406  1.2276
 4549TIP3    H235139   3.997   2.851   3.804  0.8536 -0.2765  1.2131
 4550TIP3   OH235140   6.188   2.673  12.995 -0.5965 -0.3890 -0.3128
 4550TIP3    H135141   6.124   2.684  13.065  0.9033 -0.8024  1.2072
 4550TIP3    H235142   6.190   2.578  12.979  1.4953 -0.7649  1.6129
 4551TIP3   OH235143   2.764   0.354   1.563 -0.3957 -0.1640 -0.5033
 4551TIP3    H135144   2.828   0.304   1.513  0.9754  1.0845 -0.0573
 4551TIP3    H235145   2.750   0.434   1.511 -3.4283 -1.3889 -1.8050
 4552TIP3   OH235146   4.162   3.803  16.026  0.3315 -0.0664  0.6455
 4552TIP3    H135147   4.073   3.772  16.013  0.4619 -0.0751 -0.2850
 4552TIP3    H235148   4.211   3.726  16.056  0.4858 -0.6007 -0.9181
 4553TIP3   OH235149   3.569   0.537  15.572 -0.1739  0.3617 -0.0806
 4553TIP3    H135150   3.574   0.622  15.528  0.1446  1.8642  2.6435
 4553TIP3    H235151   3.656   0.499  15.562  0.0350  0.8971 -0.3005
 4554TIP3   OH235152   2.177   1.096   3.454  0.3744  0.4853 -0.1589
 4554TIP3    H135153   2.257   1.126   3.411  0.7964  1.1186  1.0010
 4554TIP3    H235154   2.194   1.110   3.548 -0.9628  0.3159  0.1293
 4555TIP3   OH235155   0.890   0.210   4.235 -0.0088  0.0468  0.2371
 4555TIP3    H135156   0.855   0.123   4.252  0.3616 -0.0870  0.3103
 4555TIP3    H235157   0.846   0.266   4.299 -1.4013  0.1890 -0.7967
 4556TIP3   OH235158   2.069   3.661  10.483  0.2257  0.1318 -0.1212
 4556TIP3    H135159   2.108   3.573  10.487 -0.0133  0.0280 -0.0110
 4556TIP3    H235160   1.997   3.652  10.420  0.7935  0.4883 -0.8285
 4557TIP3   OH235161   0.273   6.538  11.272  0.5171 -0.2908  0.5614
 4557TIP3    H135162   0.253   6.581  11.355  0.0768 -1.3420  1.0233
 4557TIP3    H235163   0.256   6.604  11.205 -0.9891 -0.0184  1.1790
 4558TIP3   OH235164   1.097   1.140  13.462 -0.5053 -0.2443  0.3248
 4558TIP3    H135165   1.131   1.175  13.544  1.0040 -0.0967 -0.3298
 4558TIP3    H235166   1.042   1.210  13.427  2.7177  1.7976 -1.1301
 4559TIP3   OH235167   0.721   2.961   5.294 -0.8493  0.0534  0.7925
 4559TIP3    H135168   0.769   3.029   5.246 -0.1473 -2.2049 -2.0023
 4559TIP3    H235169   0.783   2.931   5.361  0.1891 -0.1673 -0.2359
 4560TIP3   OH235170   1.987   0.174   5.823  0.1246  0.1456 -0.1658
 4560TIP3    H135171   1.934   0.107   5.780 -3.1164  2.3595 -0.0211
 4560TIP3    H235172   1.938   0.195   5.903  1.2914  2.2651  0.0656
 4561TIP3   OH235173   4.120   0.074  16.182 -0.5281 -0.0882  0.2574
 4561TIP3    H135174   4.050   0.083  16.246 -1.1345 -0.4459 -0.3391
 4561TIP3    H235175   4.099  -0.006  16.134  0.2857 -0.1917  0.0595
 4562TIP3   OH235176   5.292   2.654   6.209  0.0097 -0.4643 -0.3134
 4562TIP3    H135177   5.368   2.680   6.261 -1.3286  0.4871  1.2792
 4562TIP3    H235178   5.296   2.558   6.206  0.5854 -0.4902  0.8224
 4563TIP3   OH235179   4.307   5.694   1.442 -0.6605  0.8318 -0.1323
 4563TIP3    H135180   4.379   5.633   1.460 -0.8765  1.1545  2.0097
 4563TIP3    H235181   4.260   5.655   1.368  1.8273  0.7461 -1.8037
 4564TIP3   OH235182   2.447   2.996  14.283  0.5782  0.0353  0.3739
 4564TIP3    H135183   2.404   2.910  14.285 -2.9235  1.6434  1.2062
 4564TIP3    H235184   2.511   2.989  14.211 -3.4231 -1.6599 -3.4790
 4565TIP3   OH235185   0.978   0.876   5.646  0.4985 -0.2281  0.4449
 4565TIP3    H135186   1.071   0.869   5.627  0.6326  1.9436 -0.0255
 4565TIP3    H235187   0.974   0.936   5.721 -0.5060 -0.4306  0.5646
 4566TIP3   OH235188   6.119   0.253  15.650 -0.0730  0.8209 -0.1705
 4566TIP3    H135189   6.150   0.215  15.732  1.2336  1.8819 -0.1410
 4566TIP3    H235190   6.198   0.261  15.596 -0.6637  1.5306 -0.9588
 4567TIP3   OH235191   5.642   3.905   2.801  0.4678 -0.1145  0.2235
 4567TIP3    H135192   5.705   3.834   2.813 -1.0986 -1.7924 -0.9506
 4567TIP3    H235193   5.585   3.875   2.731 -0.5826  2.1141  0.0301
 4568TIP3   OH235194   0.571   5.066   2.099 -0.1676  0.5452  0.2238
 4568TIP3    H135195   0.615   5.143   2.134  0.1289 -0.0708  1.2231
 4568TIP3    H235196   0.587   5.071   2.004  0.9209  1.0242  0.4181
 4569TIP3   OH235197   2.540   4.516   1.720  0.2882 -0.2856 -0.1552
 4569TIP3    H135198   2.569   4.429   1.694 -2.1214 -0.5940 -2.2168
 4569TIP3    H235199   2.453   4.526   1.680  0.6673  3.2596 -0.4623
 4570TIP3   OH235200   2.180   1.361   6.346 -0.3887 -0.2537  0.2360
 4570TIP3    H135201   2.145   1.419   6.414 -0.9440 -1.0535  0.6466
 4570TIP3    H235202   2.177   1.414   6.266 -2.3581 -0.2036  0.2948
 4571TIP3   OH235203   5.612   1.701  10.644 -0.4484 -0.2950 -0.5220
 4571TIP3    H135204   5.641   1.611  10.628  0.5207 -0.3084  1.0346
 4571TIP3    H235205   5.544   1.692  10.710 -0.0639  0.1263 -0.0634
 4572TIP3   OH235206   4.116   6.014   4.938  0.0006 -0.0297 -0.0829
 4572TIP3    H135207   4.203   5.982   4.917 -1.1044 -1.1938 -3.6511
 4572TIP3    H235208   4.061   5.935   4.939 -1.5248  0.9458 -1.2813
 4573TIP3   OH235209   1.676   2.383  15.464 -0.2451  0.1964  0.0666
 4573TIP3    H135210   1.683   2.288  15.474  1.8916  0.1953 -0.8567
 4573TIP3    H235211   1.649   2.396  15.373  2.1371  0.4528 -0.6656
 4574TIP3   OH235212   6.210   5.532  11.599 -0.2359 -0.5180  0.0357
 4574TIP3    H135213   6.189   5.570  11.514 -0.8783 -0.4077  0.2374
 4574TIP3    H235214   6.305   5.524  11.599 -0.3205 -2.0155 -1.3353
 4575TIP3   OH235215   0.377   4.640   3.584 -0.3934  0.4564 -0.0488
 4575TIP3    H135216   0.307   4.705   3.581 -1.2127 -0.2981  1.6308
 4575TIP3    H235217   0.336   4.558   3.555  0.4354  0.4684 -1.3908
 4576TIP3   OH235218   5.616   4.936   1.682 -0.1138 -0.1562 -0.7836
 4576TIP3    H135219   5.574   4.967   1.601 -0.6285 -1.1003 -0.8964
 4576TIP3    H235220   5.621   4.841   1.671  0.9707 -0.1706 -0.2369
 4577TIP3   OH235221   5.933   3.639  14.687  0.0694  0.5930  0.0575
 4577TIP3    H135222   5.849   3.642  14.733  0.4345 -2.2677  1.0858
 4577TIP3    H235223   5.909   3.633  14.595 -1.0732 -2.6154  0.4401
 4578TIP3   OH235224   6.303   5.533  13.014 -0.9114  0.4076 -0.2812
 4578TIP3    H135225   6.231   5.520  13.076 -1.9013 -3.3179 -1.9207
 4578TIP3    H235226   6.382   5.515  13.064 -1.5873 -1.0583  0.3172
 4579TIP3   OH235227   3.358   4.765  14.055 -0.7038 -0.0028 -0.2267
 4579TIP3    H135228   3.404   4.695  14.100 -2.8115 -2.2787 -1.3669
 4579TIP3    H235229   3.331   4.825  14.125 -0.1200 -1.1006  0.9760
 4580TIP3   OH235230   6.232   6.317  13.213  0.6547  0.1411  0.3080
 4580TIP3    H135231   6.271   6.242  13.258  0.7784  0.2282  0.3482
 4580TIP3    H235232   6.157   6.281  13.166  0.7138 -0.0068  0.3275
 4581TIP3   OH235233   5.674   3.479   6.475 -0.4431 -0.4582 -0.1137
 4581TIP3    H135234   5.650   3.550   6.535 -0.1232  0.2213 -0.7785
 4581TIP3    H235235   5.762   3.501   6.445 -1.0562 -0.1225 -1.7709
 4582TIP3   OH235236   3.604   6.389  10.608 -0.4538  0.3893  1.0509
 4582TIP3    H135237   3.621   6.440  10.529 -0.6716 -1.6571 -0.4045
 4582TIP3    H235238   3.673   6.413  10.669  0.3987  1.1830 -0.1970
 4583TIP3   OH235239   0.951   6.387  12.770 -0.1322  0.0320  0.0678
 4583TIP3    H135240   0.913   6.301  12.786  1.4001 -0.5209  0.8980
 4583TIP3    H235241   1.036   6.369  12.731 -0.0006  1.2024 -0.2457
 4584TIP3   OH235242   4.634   0.860  13.331 -0.0106  0.1257 -0.8011
 4584TIP3    H135243   4.552   0.869  13.282 -1.5349  0.8492  1.6977
 4584TIP3    H235244   4.683   0.940  13.312 -0.5396  0.3578 -1.2000
 4585TIP3   OH235245   0.567   3.519  16.724 -0.0567 -0.0997 -0.0045
 4585TIP3    H135246   0.477   3.528  16.694  0.0140  0.8815  0.0620
 4585TIP3    H235247   0.568   3.438  16.775 -0.7389 -0.4764 -0.5831
 4586TIP3   OH235248   2.406   3.011  15.784 -0.4269 -0.5681 -0.2590
 4586TIP3    H135249   2.454   3.087  15.752 -2.6218  0.2818 -1.7240
 4586TIP3    H235250   2.356   3.044  15.859 -0.3572 -0.9265 -0.0484
 4587TIP3   OH235251   0.372   3.010  13.470 -0.6821 -0.2644 -0.0594
 4587TIP3    H135252   0.467   3.012  13.455 -0.4576  0.2517  1.3668
 4587TIP3    H235253   0.335   3.037  13.386  0.4613  0.2928 -0.4121
 4588TIP3   OH235254   4.748   4.958   5.680 -0.5463 -0.3522  0.3238
 4588TIP3    H135255   4.746   4.863   5.681 -0.9892 -0.3599  2.1981
 4588TIP3    H235256   4.668   4.985   5.725 -2.2113  1.0156 -3.0978
 4589TIP3   OH235257   2.587   1.398   1.204 -0.5011  0.0254 -0.0953
 4589TIP3    H135258   2.611   1.325   1.261 -1.9562  0.1032  0.6845
 4589TIP3    H235259   2.570   1.471   1.264 -1.3262  0.3251 -0.6709
 4590TIP3   OH235260   6.562   1.191   5.140  0.2111  0.0051 -0.2053
 4590TIP3    H135261   6.573   1.270   5.193  0.3821  1.9620 -2.9073
 4590TIP3    H235262   6.486   1.210   5.085  0.4071 -1.6059 -1.0874
 4591TIP3   OH235263   0.804   0.083   1.253 -0.3213 -0.2971 -0.1472
 4591TIP3    H135264   0.818   0.137   1.330  1.6902 -0.7097 -0.1657
 4591TIP3    H235265   0.733   0.023   1.278  0.6910 -0.8261  1.6422
 4592TIP3   OH235266   2.129   3.204   0.043  0.0932 -0.3911  0.4044
 4592TIP3    H135267   2.148   3.298   0.034  1.1770 -0.7435 -1.6244
 4592TIP3    H235268   2.040   3.195   0.009  0.7773 -0.3586 -1.4884
 4593TIP3   OH235269   1.409   5.844  11.561  0.0953 -0.2229 -1.0845
 4593TIP3    H135270   1.432   5.797  11.642  0.2293 -0.9230 -1.5191
 4593TIP3    H235271   1.493   5.876  11.528 -0.1464  1.5498 -0.0633
 4594TIP3   OH235272   2.765   0.098  11.507  0.2568 -0.0862  0.0448
 4594TIP3    H135273   2.754   0.083  11.601 -0.1596  1.4911  0.2655
 4594TIP3    H235274   2.708   0.033  11.466 -0.2125 -0.2372  0.9022
 4595TIP3   OH235275   6.174   4.212   5.707  0.1697 -0.1076 -0.0866
 4595TIP3    H135276   6.249   4.240   5.761  0.2993 -1.1649  0.3071
 4595TIP3    H235277   6.122   4.158   5.766 -0.1455 -0.5678 -0.7852
 4596TIP3   OH235278   3.336   5.124   0.639  0.2252  0.7444 -0.7202
 4596TIP3    H135279   3.341   5.029   0.653 -1.1477  0.8013  0.2944
 4596TIP3    H235280   3.408   5.159   0.692  1.2979  0.2316 -1.7958
 4597TIP3   OH235281   5.655   3.991   5.852 -0.8199 -0.4015 -0.0829
 4597TIP3    H135282   5.677   3.997   5.945 -1.5183  2.1215 -0.0147
 4597TIP3    H235283   5.716   3.927   5.816  0.7577  0.0200  1.7406
 4598TIP3   OH235284   0.249   2.974  13.700 -0.8335 -0.1572 -0.3536
 4598TIP3    H135285   0.304   3.000  13.626 -1.3218 -0.8403 -0.9655
 4598TIP3    H235286   0.236   2.880  13.689 -0.9415 -0.2619  0.5908
 4599TIP3   OH235287   6.824   3.516   2.890  0.1600  0.2052  0.0276
 4599TIP3    H135288   6.789   3.587   2.944  0.8646  0.5279  0.0784
 4599TIP3    H235289   6.791   3.436   2.930  0.6976  0.4403  0.9694
 4600TIP3   OH235290   4.925   0.341   1.534  0.6284  0.9142  0.1132
 4600TIP3    H135291   4.951   0.285   1.607  1.2335  1.6726  0.4860
 4600TIP3    H235292   4.920   0.429   1.571 -0.5957  1.0848 -0.4008
 4601TIP3   OH235293   3.441   5.168   4.287 -0.0150  0.4196 -0.0173
 4601TIP3    H135294   3.405   5.256   4.271  0.3160  0.1408 -2.7531
 4601TIP3    H235295   3.528   5.170   4.247 -0.6005 -1.5819 -1.5533
 4602TIP3   OH235296   2.799   5.316  15.855  0.1505  0.2959 -0.7514
 4602TIP3    H135297   2.749   5.266  15.791 -0.8183  0.5288 -0.2065
 4602TIP3    H235298   2.873   5.352  15.806  0.2004 -0.6759 -1.4125
 4603TIP3   OH235299   3.376   4.504  11.609 -0.3056 -0.3605  0.2034
 4603TIP3    H135300   3.427   4.550  11.675  0.8975  2.3367 -2.3591
 4603TIP3    H235301   3.428   4.427  11.588  2.5941  1.8816 -1.7286
 4604TIP3   OH235302   4.497   5.789   2.085  0.5926  1.0688 -0.3293
 4604TIP3    H135303   4.591   5.773   2.083  0.3147 -0.9182  0.0253
 4604TIP3    H235304   4.485   5.872   2.039  2.4531  1.0548 -0.9108
 4605TIP3   OH235305   5.865   5.371   4.687 -0.4150  0.1765 -0.1640
 4605TIP3    H135306   5.819   5.295   4.724 -0.3441  0.2001 -0.0265
 4605TIP3    H235307   5.951   5.337   4.663 -0.0732  0.4051  0.6867
 4606TIP3   OH235308   1.088   2.557  12.142  0.5304 -0.0983  0.5084
 4606TIP3    H135309   1.107   2.465  12.159  1.8670  0.0724  0.0904
 4606TIP3    H235310   1.034   2.556  12.063 -1.7624 -0.6326  2.0049
 4607TIP3   OH235311   6.077   6.360  16.264 -0.3916  0.5510 -0.2094
 4607TIP3    H135312   6.019   6.287  16.243  3.1455 -3.0459  1.3574
 4607TIP3    H235313   6.046   6.392  16.348 -1.0354 -0.2142 -0.1486
 4608TIP3   OH235314   1.120   3.601  12.758 -0.0308  0.0453 -0.6707
 4608TIP3    H135315   1.110   3.638  12.846 -0.8933 -1.6448 -0.0270
 4608TIP3    H235316   1.045   3.633  12.709  0.0093  0.3170 -0.5564
 4609TIP3   OH235317   0.562   3.881  15.606 -0.5398  0.5035  0.0856
 4609TIP3    H135318   0.568   3.870  15.701 -1.5228 -0.1454  0.0910
 4609TIP3    H235319   0.648   3.913  15.579  0.2550 -0.7940  0.9944
 4610TIP3   OH235320   1.975   3.663   5.358  0.0587  0.3080 -0.2996
 4610TIP3    H135321   1.920   3.728   5.401 -0.5965 -0.0203 -0.6258
 4610TIP3    H235322   1.955   3.581   5.404  1.1939  0.3988  0.3935
 4611TIP3   OH235323   0.797   2.522   3.080 -0.4763  0.2958 -0.2426
 4611TIP3    H135324   0.752   2.603   3.106 -0.1762  0.7527 -1.1059
 4611TIP3    H235325   0.777   2.513   2.987  1.2597  0.5529 -0.6803
 4612TIP3   OH235326   4.955   3.024  15.983  0.1273 -0.3155 -0.0404
 4612TIP3    H135327   4.865   3.005  15.956  0.1287  0.1035 -0.3448
 4612TIP3    H235328   5.006   3.021  15.902  0.5237 -1.2752  0.2256
 4613TIP3   OH235329   1.009   3.542  17.029 -0.3934  0.7667  0.0251
 4613TIP3    H135330   0.915   3.536  17.011 -0.2464  0.0183 -0.5359
 4613TIP3    H235331   1.050   3.536  16.943  0.1547  1.8395  0.1835
 4614TIP3   OH235332   5.979   0.447   4.302  1.1538 -0.3761  0.4472
 4614TIP3    H135333   6.040   0.427   4.373  0.0748 -2.4502  0.8599
 4614TIP3    H235334   5.928   0.367   4.291 -1.4261  1.2045  0.0552
 4615TIP3   OH235335   3.862   4.195   0.120  0.4502  0.1534  0.2005
 4615TIP3    H135336   3.818   4.250   0.055 -0.5058  2.1272  2.3968
 4615TIP3    H235337   3.795   4.177   0.186  1.6216 -0.9902  1.1229
 4616TIP3   OH235338   4.572   1.512  13.214  0.0229 -0.1924 -0.1673
 4616TIP3    H135339   4.580   1.430  13.262  0.1172  0.3342  0.7429
 4616TIP3    H235340   4.655   1.522  13.169 -0.5912 -1.4108 -1.6504
 4617TIP3   OH235341   5.514   0.343  16.676 -0.2280 -0.1114 -0.1530
 4617TIP3    H135342   5.478   0.283  16.610 -2.2926  0.7994  0.0798
 4617TIP3    H235343   5.471   0.427  16.658 -0.3968  0.3128  1.9834
 4618TIP3   OH235344   2.002   4.156   2.327  0.3685 -0.7468 -0.6793
 4618TIP3    H135345   1.999   4.248   2.354 -0.4271 -0.4240 -1.7857
 4618TIP3    H235346   1.940   4.151   2.254  0.1680 -2.2362 -0.4254
 4619TIP3   OH235347   4.702   3.046   0.501  0.5606  0.1624  0.1442
 4619TIP3    H135348   4.753   3.012   0.428  0.1290 -0.1272 -0.0304
 4619TIP3    H235349   4.701   3.141   0.489 -0.2681  0.0529 -0.7403
 4620TIP3   OH235350   5.268   1.011   2.552  0.6061 -0.4629 -0.2421
 4620TIP3    H135351   5.287   0.959   2.630 -0.0464  2.3215  1.9530
 4620TIP3    H235352   5.185   1.055   2.573  0.3257  0.2482 -2.6082
 4621TIP3   OH235353   2.114   1.861  16.808 -0.1854 -0.4540 -0.5370
 4621TIP3    H135354   2.104   1.836  16.716  2.2266  1.5514 -1.4450
 4621TIP3    H235355   2.107   1.956  16.808 -2.0106 -0.5049  1.7070
 4622TIP3   OH235356   1.963   5.984  14.352 -0.4461 -0.7815 -0.0151
 4622TIP3    H135357   2.008   5.907  14.320 -0.3245 -0.9395  0.5277
 4622TIP3    H235358   2.031   6.051  14.359 -0.0132 -1.3590  1.9570
 4623TIP3   OH235359   1.499   0.741  13.413  0.1603  0.1045 -0.4281
 4623TIP3    H135360   1.480   0.764  13.504  0.7172  0.3648 -0.3734
 4623TIP3    H235361   1.431   0.785  13.362  0.8214  1.3347 -0.2699
 4624TIP3   OH235362   4.659   3.730  13.099 -0.2363  0.1922 -0.6183
 4624TIP3    H135363   4.619   3.793  13.159  0.0244 -0.1610 -0.0595
 4624TIP3    H235364   4.750   3.724  13.128 -0.3492 -0.7337 -0.4010
 4625TIP3   OH235365   2.881   3.534   1.075  0.7341 -0.0909  0.4023
 4625TIP3    H135366   2.810   3.478   1.044  0.8002 -1.6630  2.8408
 4625TIP3    H235367   2.837   3.608   1.117  0.6231  0.5296 -0.7611
 4626TIP3   OH235368   4.313   1.919  14.168 -0.4433  0.3882 -0.1446
 4626TIP3    H135369   4.230   1.876  14.185 -0.7090  0.5514 -1.0074
 4626TIP3    H235370   4.336   1.894  14.078 -0.7883  2.3180 -0.8194
 4627TIP3   OH235371   6.003   6.255   1.400 -0.0732  0.9169 -0.1182
 4627TIP3    H135372   6.078   6.269   1.343  1.1563  1.2578  1.5304
 4627TIP3    H235373   5.941   6.206   1.345  1.5148  0.2025 -1.3686
 4628TIP3   OH235374   3.465   4.109   2.646 -0.4122  0.6899  0.0164
 4628TIP3    H135375   3.519   4.075   2.718 -0.0233  2.3969  0.5605
 4628TIP3    H235376   3.425   4.031   2.609  3.5185 -0.9379 -1.3929
 4629TIP3   OH235377   2.795   6.490  13.729 -0.0521 -0.0824  0.4784
 4629TIP3    H135378   2.730   6.471  13.797  0.1047 -0.5735  0.4988
 4629TIP3    H235379   2.879   6.480  13.774  0.0447  0.0467  0.3263
 4630TIP3   OH235380   6.155   6.589  12.724 -0.2972 -0.7114  0.5767
 4630TIP3    H135381   6.243   6.628  12.725  0.0912 -1.5263 -0.0615
 4630TIP3    H235382   6.159   6.520  12.790 -0.7156 -0.2457  1.1000
 4631TIP3   OH235383   2.838   0.749  12.373 -0.8332 -0.5689 -0.2536
 4631TIP3    H135384   2.932   0.763  12.370 -0.7866 -0.9032 -0.5061
 4631TIP3    H235385   2.802   0.831  12.407 -0.4372 -0.5109  0.0308
 4632TIP3   OH235386   4.603   6.095   0.772  0.3060  0.6128  0.1995
 4632TIP3    H135387   4.638   6.135   0.692  0.4151  0.3622  0.1232
 4632TIP3    H235388   4.671   6.035   0.801 -0.7479 -1.1644 -0.8780
 4633TIP3   OH235389   1.973   2.209   1.951  0.1444 -0.1968 -0.3505
 4633TIP3    H135390   1.900   2.159   1.914 -1.7766  1.6702  0.6642
 4633TIP3    H235391   1.975   2.182   2.043 -0.8968  1.4403  0.1999
 4634TIP3   OH235392   4.867   4.343  13.586 -0.2217  0.1289 -0.3295
 4634TIP3    H135393   4.943   4.367  13.639  0.2347 -0.7620 -0.5519
 4634TIP3    H235394   4.820   4.425  13.572  0.4946  0.6279  0.1410
 4635TIP3   OH235395   5.814   5.804   1.680 -0.3130 -0.6898  0.4677
 4635TIP3    H135396   5.873   5.822   1.607 -0.0464 -2.9015  0.0570
 4635TIP3    H235397   5.742   5.865   1.669 -0.0207 -0.6228 -1.3522
 4636TIP3   OH235398   6.211   3.802   5.668 -0.2208 -0.4760  0.7020
 4636TIP3    H135399   6.223   3.750   5.588 -0.5967  0.8221 -0.2274
 4636TIP3    H235400   6.230   3.740   5.739 -0.1633 -1.7437 -0.3662
 4637TIP3   OH235401   0.407   2.132   6.072 -0.3405  0.3912  1.2612
 4637TIP3    H135402   0.400   2.212   6.125 -1.0106  0.2525  1.3955
 4637TIP3    H235403   0.316   2.111   6.049 -0.1571 -0.2584  1.1121
 4638TIP3   OH235404   6.486   2.151   3.257  0.0635  0.0417 -0.3478
 4638TIP3    H135405   6.422   2.138   3.328  1.2658  0.3604  0.8218
 4638TIP3    H235406   6.432   2.175   3.182 -1.1867  0.7465  0.7164
 4639TIP3   OH235407   1.321   1.670  15.948 -0.0219 -0.2571 -0.1580
 4639TIP3    H135408   1.364   1.728  15.885  1.4633 -0.9202  0.2006
 4639TIP3    H235409   1.343   1.707  16.034  1.8367 -1.8544  0.1275
 4640TIP3   OH235410   3.412   1.446  12.725 -0.2631 -0.0077  0.1913
 4640TIP3    H135411   3.452   1.406  12.648  0.7618  1.5808 -0.1577
 4640TIP3    H235412   3.387   1.372  12.781  1.7707 -1.1139 -0.2814
 4641TIP3   OH235413   3.121   5.303   3.417  0.5153  0.1524  0.1913
 4641TIP3    H135414   3.102   5.222   3.371  0.7677  1.0043 -1.4655
 4641TIP3    H235415   3.215   5.316   3.407  0.0945  2.1365 -2.2401
 4642TIP3   OH235416   0.281   5.388  12.261 -0.4538 -0.0705 -0.5466
 4642TIP3    H135417   0.326   5.310  12.293  0.3962  0.1217 -1.2090
 4642TIP3    H235418   0.307   5.457  12.322  0.8560  0.2155 -1.3899
 4643TIP3   OH235419   6.580   0.306   6.481 -0.5289  0.2549 -0.1073
 4643TIP3    H135420   6.586   0.401   6.467 -2.4781  0.3583 -0.5752
 4643TIP3    H235421   6.607   0.293   6.571  1.0643  1.0760 -0.4333
 4644TIP3   OH235422   4.126   0.797   4.908  0.0391 -0.4632 -1.1329
 4644TIP3    H135423   4.218   0.798   4.881  0.0231  1.8676 -1.2833
 4644TIP3    H235424   4.120   0.727   4.972  2.1089 -0.1537 -0.5402
 4645TIP3   OH235425   6.050   3.677   2.784  0.2750  0.5366  0.1714
 4645TIP3    H135426   6.080   3.707   2.870  0.7207  0.6987 -0.0363
 4645TIP3    H235427   6.099   3.731   2.722  0.0296  0.3501 -0.1856
 4646TIP3   OH235428   1.635   2.193  11.646  0.5722 -0.0928 -0.6021
 4646TIP3    H135429   1.725   2.181  11.617  0.9942  0.0641  0.6303
 4646TIP3    H235430   1.619   2.287  11.636  1.2551  0.2327  1.1678
 4647TIP3   OH235431   6.698   2.982   3.130  1.0245  0.3173  0.1767
 4647TIP3    H135432   6.766   2.962   3.194  0.4427  1.8127  1.3130
 4647TIP3    H235433   6.640   3.043   3.175 -1.9028 -1.9307 -0.2028
 4648TIP3   OH235434   4.456   1.077  15.690  0.0370 -0.1421 -0.0941
 4648TIP3    H135435   4.480   1.121  15.772 -0.6483  0.4945 -0.2231
 4648TIP3    H235436   4.372   1.035  15.710 -0.5454  0.7020 -0.7033
 4649TIP3   OH235437   2.067   4.194  11.062 -0.0517 -0.1412 -0.3279
 4649TIP3    H135438   2.076   4.263  11.127  0.6606 -2.3138  2.0645
 4649TIP3    H235439   2.091   4.235  10.979 -0.2967  2.5827  0.8409
 4650TIP3   OH235440   0.588   3.291   2.960 -0.0377 -0.1198  0.5499
 4650TIP3    H135441   0.604   3.318   3.050 -1.1122 -0.0277  0.7294
 4650TIP3    H235442   0.519   3.225   2.966  0.9735 -1.2853 -0.0820
 4651TIP3   OH235443   6.379   3.329   4.119  0.1558 -0.2973 -0.0052
 4651TIP3    H135444   6.348   3.328   4.029  3.3293 -2.1945 -1.2401
 4651TIP3    H235445   6.347   3.248   4.157 -1.4440  0.6431  0.7758
 4652TIP3   OH235446   5.606   1.159   0.778  0.1881  0.0476 -0.3588
 4652TIP3    H135447   5.556   1.157   0.859  0.9388  0.9268  0.1334
 4652TIP3    H235448   5.614   1.067   0.753  0.7608 -0.3142  1.0617
 4653TIP3   OH235449   2.497   2.175  15.410  0.0034  0.1476 -0.0547
 4653TIP3    H135450   2.441   2.208  15.340  1.3328 -0.9049 -1.6898
 4653TIP3    H235451   2.585   2.203  15.385  0.5795 -0.7787  0.8579
 4654TIP3   OH235452   0.746   2.577   1.979 -0.6496  0.4100 -0.1687
 4654TIP3    H135453   0.693   2.518   2.032 -0.0358  0.0697  0.0837
 4654TIP3    H235454   0.696   2.589   1.898 -1.3388  0.5052  0.2654
 4655TIP3   OH235455   6.382   0.723   5.309 -0.1890 -0.2090 -0.1515
 4655TIP3    H135456   6.385   0.761   5.222  1.5966 -0.2894 -0.1571
 4655TIP3    H235457   6.289   0.722   5.331 -0.5134  1.7462 -1.1835
 4656TIP3   OH235458   6.819   1.760  14.168 -0.1757  0.3342 -0.0753
 4656TIP3    H135459   6.766   1.681  14.162 -0.3299  0.5131 -2.1254
 4656TIP3    H235460   6.809   1.789  14.258 -2.4438 -0.4282  0.0001
 4657TIP3   OH235461   2.144   2.054   3.567 -0.3695 -0.0607  0.2655
 4657TIP3    H135462   2.073   1.995   3.593 -0.1545 -1.6902 -2.3685
 4657TIP3    H235463   2.101   2.121   3.515 -0.1944  0.0182  0.2236
 4658TIP3   OH235464   0.046   0.658  13.694  0.4841  0.1788 -0.5683
 4658TIP3    H135465   0.024   0.737  13.644 -0.9998 -0.5481 -1.1332
 4658TIP3    H235466  -0.007   0.666  13.774  1.6671  0.5800  0.2004
 4659TIP3   OH235467   4.098   3.555  15.441  0.0977 -0.0085 -0.6402
 4659TIP3    H135468   4.156   3.479  15.441 -0.6418 -0.5885 -0.0120
 4659TIP3    H235469   4.014   3.521  15.411 -0.0134  0.7598 -1.2352
 4660TIP3   OH235470   0.909   4.873   1.124 -0.4667  0.1738  0.0672
 4660TIP3    H135471   0.982   4.909   1.175  0.1896 -0.7438 -0.2006
 4660TIP3    H235472   0.845   4.944   1.121 -0.6974  0.1703  2.4734
 4661TIP3   OH235473   5.065   2.678   4.977 -0.1443 -0.1333 -0.1087
 4661TIP3    H135474   5.060   2.585   4.998 -0.8086 -0.7922 -2.8638
 4661TIP3    H235475   5.055   2.722   5.062  0.4446 -2.5319  1.3006
 4662TIP3   OH235476   4.379   0.635   4.793  0.1861  0.4652  0.1215
 4662TIP3    H135477   4.353   0.691   4.719 -0.7637  1.8800  1.4790
 4662TIP3    H235478   4.472   0.656   4.806  0.4945 -0.1390 -0.9205
 4663TIP3   OH235479   5.653   5.143  11.525  0.4570  0.0916  0.0035
 4663TIP3    H135480   5.727   5.196  11.494 -0.3396  0.2898 -1.6794
 4663TIP3    H235481   5.663   5.059  11.479  1.4995 -1.1827  2.3658
 4664TIP3   OH235482   0.133   3.211  16.769  0.0678 -0.5351 -0.2828
 4664TIP3    H135483   0.083   3.170  16.699  0.4059  0.3155 -1.0333
 4664TIP3    H235484   0.223   3.178  16.757  0.1193 -0.4151 -0.2262
 4665TIP3   OH235485   5.521   5.547   3.956  0.4176 -0.1365 -0.3976
 4665TIP3    H135486   5.469   5.485   4.009  0.4844 -0.5989 -0.8645
 4665TIP3    H235487   5.476   5.631   3.966 -0.8700 -0.6743 -1.3894
 4666TIP3   OH235488   1.882   6.399  13.033 -0.7258  0.2882  0.6031
 4666TIP3    H135489   1.837   6.331  12.983 -0.5619  0.0424  0.7865
 4666TIP3    H235490   1.955   6.426  12.977 -0.6543  0.1472  0.6274
 4667TIP3   OH235491   5.974   4.546  11.658  0.0054 -0.4843  0.2122
 4667TIP3    H135492   5.967   4.450  11.657 -0.9085 -0.4413 -1.3068
 4667TIP3    H235493   6.001   4.568  11.569  0.7557  0.6511  0.7097
 4668TIP3   OH235494   5.408   0.687   3.737 -0.0940  0.1188  0.0674
 4668TIP3    H135495   5.447   0.608   3.701  0.8399  0.1172  1.0101
 4668TIP3    H235496   5.473   0.718   3.801 -0.5320  1.5284 -0.1422
 4669TIP3   OH235497   6.349   2.116   5.323  0.2129 -0.4544 -0.3564
 4669TIP3    H135498   6.370   2.196   5.372 -0.7200 -0.3072 -0.1758
 4669TIP3    H235499   6.279   2.074   5.373 -0.7869 -0.2859 -1.5416
 4670TIP3   OH235500   3.419   1.120  16.743 -0.2373 -0.2760  0.3139
 4670TIP3    H135501   3.505   1.091  16.712 -0.9561 -1.3186 -0.7762
 4670TIP3    H235502   3.361   1.047  16.724 -1.3377  0.3440  1.2211
 4671TIP3   OH235503   6.734   1.274   3.392 -0.2592 -0.1211  0.4528
 4671TIP3    H135504   6.672   1.280   3.465 -2.5510  0.0003 -1.3957
 4671TIP3    H235505   6.687   1.311   3.317  2.3435  0.6423 -0.9164
 4672TIP3   OH235506   0.870   5.866   4.593 -0.0852  0.6637 -0.4380
 4672TIP3    H135507   0.861   5.860   4.498 -1.0342 -1.6270 -0.2654
 4672TIP3    H235508   0.881   5.775   4.622  2.9460  1.4700  1.4422
 4673TIP3   OH235509   1.992   2.264   5.045  0.4674  0.2756 -0.3378
 4673TIP3    H135510   1.979   2.302   5.132 -1.5405 -1.6983  0.3230
 4673TIP3    H235511   1.974   2.171   5.057 -0.2710  0.0108 -2.9513
 4674TIP3   OH235512   1.444   2.773   2.350  0.0617 -0.4176 -0.3901
 4674TIP3    H135513   1.476   2.817   2.429 -1.0043  0.0000 -0.1839
 4674TIP3    H235514   1.485   2.821   2.278 -0.6884  0.6138 -0.1486
 4675TIP3   OH235515   5.811   3.792   5.750 -0.6932 -0.2196  1.0165
 4675TIP3    H135516   5.810   3.755   5.661  0.8030  0.8847  0.5111
 4675TIP3    H235517   5.881   3.745   5.795  0.9597  1.6225  0.4893
 4676TIP3   OH235518   2.793   4.940   1.890  0.0973  0.6048 -0.1179
 4676TIP3    H135519   2.730   4.889   1.839 -0.1247 -0.1637  0.8921
 4676TIP3    H235520   2.876   4.928   1.844 -0.2527  0.6430 -0.7819
 4677TIP3   OH235521   5.278   2.139   2.513 -0.0024  0.3649 -0.3216
 4677TIP3    H135522   5.322   2.074   2.458  1.2313  0.2788  0.7179
 4677TIP3    H235523   5.230   2.194   2.451 -0.5440 -1.1231 -1.2736
 4678TIP3   OH235524   6.694   3.219   2.757 -0.5751  0.2059 -0.5556
 4678TIP3    H135525   6.637   3.295   2.771 -1.8872 -0.6682 -1.0064
 4678TIP3    H235526   6.741   3.240   2.676 -1.0707  0.4537 -0.7844
 4679TIP3   OH235527   6.351   6.676   4.726  0.5721  0.0909 -0.2559
 4679TIP3    H135528   6.279   6.615   4.710  1.2679 -0.3849 -1.8635
 4679TIP3    H235529   6.310   6.762   4.733 -0.6449 -0.6454  4.0017
 4680TIP3   OH235530   6.167   1.709   1.528  0.2098  0.2169 -0.3152
 4680TIP3    H135531   6.127   1.624   1.545 -0.6225  0.2561 -1.8379
 4680TIP3    H235532   6.255   1.703   1.565 -0.2149 -0.9047  0.5530
 4681TIP3   OH235533   2.190   4.069   3.569  0.0391 -0.1544  0.0087
 4681TIP3    H135534   2.145   4.141   3.524 -0.3060 -0.0677  0.4753
 4681TIP3    H235535   2.137   3.992   3.550 -0.2207 -0.0826  0.4167
 4682TIP3   OH235536   1.362   5.479   0.122 -0.1002  0.0676 -0.7672
 4682TIP3    H135537   1.277   5.505   0.158 -1.0067  0.0478 -2.8024
 4682TIP3    H235538   1.399   5.422   0.190 -1.9155 -0.3189 -0.0316
 4683TIP3   OH235539   2.297   1.073   4.377 -0.1351 -0.4969 -0.4242
 4683TIP3    H135540   2.290   1.127   4.456  1.9171 -1.5663  0.5600
 4683TIP3    H235541   2.275   1.133   4.306 -0.5924  0.8974  0.8284
 4684TIP3   OH235542   3.518   2.997  13.472 -0.1677  0.3038  0.2970
 4684TIP3    H135543   3.478   2.962  13.392  2.3309 -1.6855 -0.2397
 4684TIP3    H235544   3.570   3.071  13.442 -0.0483  0.2048  0.2600
 4685TIP3   OH235545   6.659   4.836  12.283 -0.7104 -0.5925  0.3755
 4685TIP3    H135546   6.616   4.815  12.366 -0.0197 -1.2431  0.5756
 4685TIP3    H235547   6.693   4.925  12.296  0.1748 -1.0262  1.1267
 4686TIP3   OH235548   2.801   6.263   0.437 -0.3233  0.2416  0.1033
 4686TIP3    H135549   2.871   6.318   0.471  0.5384 -0.7905  0.0186
 4686TIP3    H235550   2.793   6.192   0.500 -1.5818  0.5490  0.3308
 4687TIP3   OH235551   4.560   6.281  11.818  0.5382 -0.0565 -0.0361
 4687TIP3    H135552   4.607   6.213  11.771  0.0230  0.6855 -1.7023
 4687TIP3    H235553   4.468   6.263  11.802  0.3341  0.1832  0.7752
 4688TIP3   OH235554   0.460   1.703  16.773 -0.2663 -0.1413  0.1658
 4688TIP3    H135555   0.417   1.631  16.819 -1.6539  0.5953  0.0942
 4688TIP3    H235556   0.428   1.782  16.818  1.1853  0.4394  0.2155
 4689TIP3   OH235557   3.987   5.179  15.839  0.0833 -0.7161 -0.1815
 4689TIP3    H135558   3.977   5.084  15.828 -1.1608 -0.6737  0.4371
 4689TIP3    H235559   4.023   5.189  15.927 -1.0461 -0.5787  0.2832
 4690TIP3   OH235560   2.428   6.582  12.675  0.4925 -0.1950 -0.5803
 4690TIP3    H135561   2.399   6.629  12.754  0.9476 -1.1324  0.1640
 4690TIP3    H235562   2.520   6.606  12.665  0.9259 -1.4291  0.2097
 4691TIP3   OH235563   5.824   5.663   5.868 -0.7821 -0.1867 -0.2323
 4691TIP3    H135564   5.855   5.695   5.952 -1.7308  0.5357 -0.1476
 4691TIP3    H235565   5.902   5.626   5.826 -0.4964 -1.5936  1.4158
 4692TIP3   OH235566   5.121   2.196   5.535 -0.4854 -1.1601  0.0519
 4692TIP3    H135567   5.212   2.184   5.561 -0.7150 -1.9067  0.5366
 4692TIP3    H235568   5.086   2.258   5.598 -0.0746 -0.1291 -0.7017
 4693TIP3   OH235569   3.777   5.211   1.323  0.0896  0.0727  0.4565
 4693TIP3    H135570   3.819   5.264   1.391  3.5247 -0.1533 -1.2698
 4693TIP3    H235571   3.759   5.273   1.253 -0.5478 -0.2275  0.3483
 4694TIP3   OH235572   5.336   5.226   5.712 -0.0113  0.4863  0.3409
 4694TIP3    H135573   5.349   5.290   5.782  0.2109  0.1331  0.6271
 4694TIP3    H235574   5.257   5.178   5.738 -0.1492  0.6090  0.1518
 4695TIP3   OH235575   6.562   1.222   2.651  0.2205 -0.9285  0.2940
 4695TIP3    H135576   6.587   1.158   2.584 -1.4997  0.5115 -1.8981
 4695TIP3    H235577   6.480   1.188   2.687 -0.9719  0.1683 -1.2386
 4696TIP3   OH235578   5.554   5.733   2.150  0.3205 -0.4504  0.5768
 4696TIP3    H135579   5.537   5.826   2.169 -0.6901 -0.5308  0.0897
 4696TIP3    H235580   5.617   5.735   2.078  1.0578 -0.1596  1.1981
 4697TIP3   OH235581   4.155   2.322   4.903 -0.0500  0.8151 -0.3815
 4697TIP3    H135582   4.077   2.377   4.905  0.3862  1.5193 -1.5614
 4697TIP3    H235583   4.122   2.233   4.912 -0.9843  1.1094 -0.7528
 4698TIP3   OH235584   0.614   4.234   3.680 -0.0097 -0.0248 -0.5812
 4698TIP3    H135585   0.646   4.144   3.675 -0.9386 -0.3747 -0.4268
 4698TIP3    H235586   0.693   4.287   3.689  0.4815 -0.9328  0.7973
 4699TIP3   OH235587   4.966   4.928  16.682 -0.0123 -0.2355 -0.0531
 4699TIP3    H135588   5.007   4.845  16.707  0.9176 -0.0645 -0.9449
 4699TIP3    H235589   4.969   4.982  16.761 -0.4223 -0.9657  0.4679
 4700TIP3   OH235590   3.791   0.396  13.209  0.0065 -0.3344  0.7549
 4700TIP3    H135591   3.873   0.429  13.174 -0.3920 -0.9735 -0.8551
 4700TIP3    H235592   3.774   0.450  13.286  0.9791  1.0411  0.0412
 4701TIP3   OH235593   0.186   4.032   2.413  0.0214 -0.2788 -0.2459
 4701TIP3    H135594   0.262   4.039   2.471  0.7225 -0.6233 -1.1085
 4701TIP3    H235595   0.113   4.014   2.472  0.9575 -2.1954  0.4211
 4702TIP3   OH235596   5.474   2.614  14.171  0.0639  0.4112  0.7045
 4702TIP3    H135597   5.417   2.665  14.112 -1.1488 -0.8672  0.7167
 4702TIP3    H235598   5.558   2.661  14.169 -0.9294  2.2978  0.5914
 4703TIP3   OH235599   0.022   2.237  16.768  0.2979 -0.1002 -0.5780
 4703TIP3    H135600  -0.018   2.219  16.853  1.5769  0.2501  0.1325
 4703TIP3    H235601   0.071   2.318  16.782  2.8250 -1.4989 -0.8218
 4704TIP3   OH235602   3.542   6.444  14.530 -0.5196 -0.5312  0.5167
 4704TIP3    H135603   3.580   6.418  14.446 -0.9297 -0.4486  0.3029
 4704TIP3    H235604   3.500   6.365  14.564  2.1176 -1.3920  2.0540
 4705TIP3   OH235605   4.819   4.033   2.486 -0.1342  0.0753 -0.4814
 4705TIP3    H135606   4.852   4.122   2.482 -0.5642  0.1929 -1.9230
 4705TIP3    H235607   4.725   4.043   2.505 -0.0907 -0.0981 -0.1634
 4706TIP3   OH235608   5.370   1.348  11.953  0.0447 -0.7540  0.5369
 4706TIP3    H135609   5.418   1.280  11.905  1.2374  0.9334 -0.7905
 4706TIP3    H235610   5.412   1.351  12.039  0.8012 -0.8910  0.1835
 4707TIP3   OH235611   6.814   1.449   5.447  0.1248  0.6300  0.7036
 4707TIP3    H135612   6.744   1.384   5.447 -0.0924  0.8522  1.5194
 4707TIP3    H235613   6.852   1.443   5.359  0.4305 -0.9156  0.9155
 4708TIP3   OH235614   2.827   6.834   5.185  0.0684 -0.5155 -0.0408
 4708TIP3    H135615   2.899   6.881   5.227  0.5725 -2.2111  1.1166
 4708TIP3    H235616   2.753   6.844   5.246  0.1291 -1.0560  0.1271
 4709TIP3   OH235617   1.118   2.988  15.624 -0.4745  0.0664 -0.5469
 4709TIP3    H135618   1.173   3.064  15.643  0.5078 -1.0456  1.4120
 4709TIP3    H235619   1.029   3.017  15.641 -0.2901  1.1791 -1.3249
 4710TIP3   OH235620   0.222   4.377   1.360 -0.0345 -0.2458 -0.3108
 4710TIP3    H135621   0.280   4.450   1.384 -0.6647  0.4022 -0.7361
 4710TIP3    H235622   0.282   4.305   1.340  0.6114  0.2517 -0.2108
 4711TIP3   OH235623   5.431   2.567  17.050  0.1971 -0.1524  0.1544
 4711TIP3    H135624   5.338   2.544  17.046  0.1301 -0.0579  0.9280
 4711TIP3    H235625   5.469   2.527  16.972 -0.6641  0.6070 -0.6949
 4712TIP3   OH235626   4.513   4.280   5.634 -0.6701 -0.1465 -0.0644
 4712TIP3    H135627   4.440   4.296   5.695 -0.7103 -1.4647  0.2762
 4712TIP3    H235628   4.577   4.232   5.686 -0.2829 -0.4548 -0.8077
 4713TIP3   OH235629   6.074   3.536  13.454 -0.2988 -0.2882  0.3065
 4713TIP3    H135630   6.056   3.458  13.402  0.0633 -1.6013  2.0497
 4713TIP3    H235631   5.993   3.586  13.452 -0.3105 -0.3266 -1.4166
 4714TIP3   OH235632   6.820   5.576   4.839 -0.9115  0.1381  1.2432
 4714TIP3    H135633   6.857   5.664   4.848 -0.3857  0.1386 -0.5850
 4714TIP3    H235634   6.890   5.518   4.870 -1.2360  0.3233  2.3940
 4715TIP3   OH235635   1.642   3.020   3.112 -0.3309  0.8083 -0.2324
 4715TIP3    H135636   1.724   2.984   3.145 -1.0346 -0.2234  0.4458
 4715TIP3    H235637   1.576   2.952   3.130 -1.7695  2.4973  1.4230
 4716TIP3   OH235638   2.987   1.873  16.524 -0.2471  0.2846  0.0919
 4716TIP3    H135639   2.994   1.778  16.528 -0.9121  0.2511  0.5238
 4716TIP3    H235640   3.076   1.904  16.540 -0.1380 -0.2465  0.5512
 4717TIP3   OH235641   1.671   3.068  15.769  0.4302 -0.1077  0.2975
 4717TIP3    H135642   1.632   2.982  15.787  1.2651 -0.5007  0.2551
 4717TIP3    H235643   1.714   3.093  15.851  1.2242 -0.2909 -0.0561
 4718TIP3   OH235644   6.413   5.229   5.819  0.2168 -0.0311  0.5626
 4718TIP3    H135645   6.496   5.278   5.817 -0.7446  1.6987  1.1472
 4718TIP3    H235646   6.366   5.264   5.894 -1.6110 -0.0086 -0.5255
 4719TIP3   OH235647   1.458   4.339   3.358 -0.0868 -0.0822  0.3227
 4719TIP3    H135648   1.438   4.290   3.279 -0.3331  2.1921 -1.1263
 4719TIP3    H235649   1.537   4.388   3.337 -0.2671  0.7286  1.4079
 4720TIP3   OH235650   3.734   6.319  12.473 -0.0739  0.2049  0.0510
 4720TIP3    H135651   3.822   6.282  12.469  1.3046  3.0673  1.1255
 4720TIP3    H235652   3.687   6.278  12.400  1.8403 -2.0517 -0.0188
 4721TIP3   OH235653   2.155   3.070  13.729 -0.0205  0.4236  0.2089
 4721TIP3    H135654   2.124   2.988  13.689 -1.5148  1.0807 -0.0379
 4721TIP3    H235655   2.239   3.047  13.768 -1.9186 -2.1739  3.2396
 4722TIP3   OH235656   4.660   0.792  16.702 -0.1831 -0.1126 -0.5041
 4722TIP3    H135657   4.694   0.775  16.614 -0.2447 -1.6453 -0.2629
 4722TIP3    H235658   4.568   0.768  16.698 -0.5945  1.3666 -0.4230
 4723TIP3   OH235659   6.722   0.049   4.301  0.2129  0.4546  0.2117
 4723TIP3    H135660   6.763   0.005   4.227 -0.9699 -0.1103 -0.1406
 4723TIP3    H235661   6.735  -0.009   4.375  0.4994  0.5261  0.2174
 4724TIP3   OH235662   0.551   4.227  15.947 -0.4535 -0.7229  0.0892
 4724TIP3    H135663   0.470   4.208  15.900 -0.3779  0.8642 -0.7660
 4724TIP3    H235664   0.546   4.321  15.965  1.1304 -0.6264  0.1408
 4725TIP3   OH235665   5.114   4.670  12.164  0.2030  0.5545  0.0457
 4725TIP3    H135666   5.188   4.722  12.195 -0.6186  0.9993  1.3546
 4725TIP3    H235667   5.117   4.677  12.069  1.4139  1.1434  0.1093
 4726TIP3   OH235668   1.954   5.708   3.884  0.3681 -0.3156  0.3739
 4726TIP3    H135669   1.906   5.631   3.853  0.0456  0.3754 -0.9173
 4726TIP3    H235670   2.010   5.732   3.811 -0.7005  1.6076  0.1291
 4727TIP3   OH235671   6.394   6.214   0.882 -0.4493  0.0487  0.3272
 4727TIP3    H135672   6.321   6.161   0.851 -0.4825 -0.1402  0.7243
 4727TIP3    H235673   6.471   6.176   0.839 -0.4730 -0.3216  0.6126
 4728TIP3   OH235674   1.222   3.709  16.792 -0.0113 -0.2497 -0.6618
 4728TIP3    H135675   1.261   3.631  16.829 -0.9212 -0.8308 -0.8822
 4728TIP3    H235676   1.185   3.756  16.867  1.5312  0.5718 -0.3930
 4729TIP3   OH235677   2.943   0.830  16.402 -0.6738 -0.3975  0.2004
 4729TIP3    H135678   2.945   0.892  16.329 -0.2560  1.2480  1.5461
 4729TIP3    H235679   2.913   0.748  16.362  0.8466  0.0411 -2.0714
 4730TIP3   OH235680   3.484   0.893  14.866  0.0505 -0.3266  0.0827
 4730TIP3    H135681   3.517   0.943  14.791 -0.6461 -1.5920 -1.1158
 4730TIP3    H235682   3.394   0.924  14.877 -1.0208 -2.4795 -1.8339
 4731TIP3   OH235683   1.637   1.339  10.809  0.1283  0.1277 -0.2989
 4731TIP3    H135684   1.625   1.248  10.782 -0.4006  0.5527 -1.5669
 4731TIP3    H235685   1.571   1.352  10.877  1.2279 -0.8504  1.0134
 4732TIP3   OH235686   2.720   2.267   0.407  0.2435  0.4594 -0.5973
 4732TIP3    H135687   2.773   2.273   0.486  0.8486  2.9918 -1.1236
 4732TIP3    H235688   2.643   2.321   0.425  0.1111  0.6045 -1.5161
 4733TIP3   OH235689   2.922   2.997   5.148 -0.0540  0.2873  0.4700
 4733TIP3    H135690   2.958   2.943   5.219  0.2064  1.5630  1.3383
 4733TIP3    H235691   2.876   3.068   5.192  2.7061  2.9106 -0.4915
 4734TIP3   OH235692   2.833   6.021  11.697 -0.4003 -0.5623  0.0630
 4734TIP3    H135693   2.924   6.049  11.711  0.0013 -1.7461 -0.0130
 4734TIP3    H235694   2.802   6.074  11.624  0.0120  0.3149  0.5120
 4735TIP3   OH235695   3.421   6.377  17.057 -0.0039  0.0704  0.1906
 4735TIP3    H135696   3.396   6.469  17.070  1.8077  0.5097  0.8982
 4735TIP3    H235697   3.480   6.357  17.130  0.2887 -1.4021 -0.4006
 4736TIP3   OH235698   5.867   3.336   0.896  0.7303  0.1132 -0.2808
 4736TIP3    H135699   5.807   3.411   0.892  0.4435  0.0300  1.5705
 4736TIP3    H235700   5.925   3.356   0.970 -0.6932 -2.4091  1.6552
 4737TIP3   OH235701   3.602   4.865   1.310 -0.5408  0.4680  0.3762
 4737TIP3    H135702   3.528   4.816   1.276  0.1730 -0.4279  0.0657
 4737TIP3    H235703   3.677   4.808   1.295  0.2709  1.5265  0.3216
 4738TIP3   OH235704   2.414   4.716  13.436 -0.0849 -0.1475  0.5315
 4738TIP3    H135705   2.369   4.634  13.415  0.3681 -0.4838  0.8459
 4738TIP3    H235706   2.500   4.688  13.468 -1.0713  0.1954  3.9247
 4739TIP3   OH235707   5.440   6.201   6.034  0.6233 -0.6386  0.7086
 4739TIP3    H135708   5.353   6.217   6.071  0.8144  0.6596  0.6310
 4739TIP3    H235709   5.497   6.190   6.111  0.2313 -2.6915  0.7772
 4740TIP3   OH235710   1.676   0.750   3.554  0.6314  0.2441 -0.8396
 4740TIP3    H135711   1.662   0.793   3.639  1.5666 -1.3331  0.1646
 4740TIP3    H235712   1.683   0.822   3.492  2.7558  1.6245  0.8480
 4741TIP3   OH235713   5.385   4.850  16.291  0.2331  0.2843 -0.7268
 4741TIP3    H135714   5.322   4.844  16.362 -0.9036  2.6600 -1.4397
 4741TIP3    H235715   5.351   4.791  16.223 -0.3641  0.3681 -0.5009
 4742TIP3   OH235716   5.554   1.378  16.797  0.6744  0.4980 -0.0783
 4742TIP3    H135717   5.612   1.412  16.864  2.5011 -0.0898 -1.3054
 4742TIP3    H235718   5.575   1.285  16.791 -1.3417 -0.0550  0.3326
 4743TIP3   OH235719   3.923   6.128   0.721  0.1314 -1.0110 -0.2715
 4743TIP3    H135720   3.876   6.129   0.637 -1.2774  1.3174  0.4385
 4743TIP3    H235721   3.878   6.193   0.774  2.7755 -0.3022  1.3064
 4744TIP3   OH235722   3.830   4.001   4.433  0.3413  0.4228 -0.4491
 4744TIP3    H135723   3.871   4.087   4.422  1.4814 -0.3736 -3.3928
 4744TIP3    H235724   3.867   3.968   4.515  0.8303  2.2138  0.1155
 4745TIP3   OH235725   3.546   2.811   3.500 -0.5055  0.3526  0.4048
 4745TIP3    H135726   3.550   2.905   3.483 -0.9823  0.1565 -0.9429
 4745TIP3    H235727   3.457   2.797   3.535 -0.4104  0.4137  0.6697
 4746TIP3   OH235728   5.583   3.691   5.137 -0.2574 -0.1350 -0.0184
 4746TIP3    H135729   5.545   3.626   5.196  0.0013  0.0464  0.3504
 4746TIP3    H235730   5.666   3.654   5.109  0.6972  0.7260  1.5020
 4747TIP3   OH235731   4.020   5.775  14.370  0.2258 -0.5864 -0.1091
 4747TIP3    H135732   4.078   5.713  14.326  0.9397 -0.1201  0.1607
 4747TIP3    H235733   3.992   5.835  14.300  0.6184 -0.4024 -0.1095
 4748TIP3   OH235734   3.150   0.121  14.243 -0.2220  0.3880  0.1117
 4748TIP3    H135735   3.163   0.205  14.288  1.3275 -1.2611  3.0769
 4748TIP3    H235736   3.055   0.112  14.237 -0.4269  2.1285  0.1568
 4749TIP3   OH235737   1.948   5.712  13.361  0.0260 -0.3609 -0.2088
 4749TIP3    H135738   1.956   5.807  13.368  0.8452 -0.3619 -0.9218
 4749TIP3    H235739   1.881   5.688  13.425  1.2023  0.4767  1.3710
 4750TIP3   OH235740   1.276   1.712   0.927  0.5397  0.4562  0.0501
 4750TIP3    H135741   1.314   1.728   0.841 -1.4040  0.2694 -0.8848
 4750TIP3    H235742   1.305   1.624   0.951 -0.1569 -0.1104 -1.1334
 4751TIP3   OH235743   0.257   2.840  14.980 -0.0048 -0.4579  0.3034
 4751TIP3    H135744   0.308   2.769  14.939  2.5584  0.0379  2.3913
 4751TIP3    H235745   0.242   2.902  14.909  1.6636 -0.9997 -0.5841
 4752TIP3   OH235746   4.198   6.545   5.644 -0.4660 -0.0160 -0.6790
 4752TIP3    H135747   4.236   6.629   5.621 -1.4081  0.9635  1.1096
 4752TIP3    H235748   4.261   6.504   5.704 -1.5364  1.0734  1.3157
 4753TIP3   OH235749   6.351   5.265   5.518  0.4595  0.2907  0.2849
 4753TIP3    H135750   6.421   5.210   5.482 -0.0291  0.1203 -0.4155
 4753TIP3    H235751   6.394   5.315   5.587  0.9793 -0.7654  0.7560
 4754TIP3   OH235752   6.736   1.187  16.275  0.2877 -0.1512  0.3512
 4754TIP3    H135753   6.740   1.227  16.188  1.4514 -0.8915  0.0421
 4754TIP3    H235754   6.796   1.239  16.328  0.9611 -0.7815  0.2284
 4755TIP3   OH235755   6.111   0.176  11.704 -0.6450 -0.1852  0.2590
 4755TIP3    H135756   6.080   0.086  11.714  0.1625 -0.4122  0.7464
 4755TIP3    H235757   6.063   0.225  11.771 -2.1151  0.0299 -0.8951
 4756TIP3   OH235758   4.667   4.599  16.544  0.4305 -0.4269 -0.0011
 4756TIP3    H135759   4.739   4.540  16.520  0.7563 -0.8218  1.8318
 4756TIP3    H235760   4.611   4.547  16.601 -0.0794  0.6022  0.4618
 4757TIP3   OH235761   2.026   2.452  14.013 -0.0650 -0.3787  0.4361
 4757TIP3    H135762   2.076   2.382  14.054  0.3090  0.1758  0.9478
 4757TIP3    H235763   2.045   2.444  13.920  1.9741  0.5453  0.7139
 4758TIP3   OH235764   0.502   6.074  14.770  0.0441 -0.2678  0.4286
 4758TIP3    H135765   0.555   5.994  14.774  3.3578  1.7538  0.5482
 4758TIP3    H235766   0.446   6.062  14.693  0.5665 -2.5818  0.3325
 4759TIP3   OH235767   3.001   3.637   5.572 -0.2748  0.1737 -0.1854
 4759TIP3    H135768   3.091   3.640   5.541  0.4394  3.2580  1.8108
 4759TIP3    H235769   3.007   3.605   5.662 -1.0548  1.0535  0.2038
 4760TIP3   OH235770   4.941   2.588   0.191 -0.5550 -0.0147 -0.2064
 4760TIP3    H135771   4.958   2.523   0.259 -0.3392  0.6262  0.3637
 4760TIP3    H235772   5.025   2.596   0.145 -0.4786  0.1380 -0.0379
 4761TIP3   OH235773   1.323   2.479   4.916  0.0037 -0.4729  0.0101
 4761TIP3    H135774   1.251   2.490   4.978 -0.4164  2.5349 -0.8733
 4761TIP3    H235775   1.402   2.499   4.968 -0.2689  1.1048 -0.1247
 4762TIP3   OH235776   4.800   4.580   0.143 -0.5266 -0.2672  0.0527
 4762TIP3    H135777   4.882   4.563   0.191  0.3367  2.7730 -0.1258
 4762TIP3    H235778   4.734   4.590   0.211 -0.4904 -1.3556  0.2690
 4763TIP3   OH235779   2.408   0.067   4.240 -0.0364  0.1451  0.1232
 4763TIP3    H135780   2.381   0.122   4.166  1.9076  1.1638  0.1066
 4763TIP3    H235781   2.462  -0.001   4.201  2.3268  1.5953  0.6663
 4764TIP3   OH235782   1.804   2.640   3.983  0.4545  0.5916 -0.2865
 4764TIP3    H135783   1.784   2.625   4.075  0.3360  1.1461 -0.2203
 4764TIP3    H235784   1.839   2.729   3.980  1.8376  0.0591 -0.5748
 4765TIP3   OH235785   2.791   0.619  12.907 -0.0456  0.2260  0.1037
 4765TIP3    H135786   2.759   0.604  12.996  0.8732  0.5000  0.4908
 4765TIP3    H235787   2.810   0.532  12.873  1.6419  0.2180  0.9695
 4766TIP3   OH235788   6.693   2.024  13.440 -0.4539  0.1996 -0.2751
 4766TIP3    H135789   6.728   2.058  13.358  2.5159 -0.0153  0.7742
 4766TIP3    H235790   6.744   1.945  13.457  0.3049  1.1757  2.5892
 4767TIP3   OH235791   5.995   5.961  16.674  0.0731  0.4230 -0.6373
 4767TIP3    H135792   6.010   5.947  16.580  0.4232 -1.5234 -0.3217
 4767TIP3    H235793   5.991   5.873  16.711  0.2424  1.1733  1.2359
 4768TIP3   OH235794   1.245   6.316  14.215 -0.5165  0.3497 -0.0914
 4768TIP3    H135795   1.283   6.356  14.137  0.7360 -1.1315 -0.2910
 4768TIP3    H235796   1.308   6.334  14.285 -0.8963  0.3825  0.2511
 4769TIP3   OH235797   6.488   4.528   5.079 -0.2094 -0.4366  0.5741
 4769TIP3    H135798   6.562   4.470   5.061 -0.0307  0.0058 -0.2040
 4769TIP3    H235799   6.488   4.590   5.005 -0.7118  0.2216  1.1115
 4770TIP3   OH235800   2.552   4.186  15.739 -0.1524  0.0428  0.4673
 4770TIP3    H135801   2.572   4.166  15.647  0.3005 -1.1412  0.8073
 4770TIP3    H235802   2.500   4.267  15.735 -0.0993  0.0362 -0.8233
 4771TIP3   OH235803   4.147   4.953   1.049  0.1728 -0.4143 -0.1586
 4771TIP3    H135804   4.090   5.021   1.083 -1.4584 -1.3473 -0.9485
 4771TIP3    H235805   4.203   4.929   1.123 -1.9503 -1.0095  1.3312
 4772TIP3   OH235806   3.036   0.268   2.453 -0.5442  0.2908 -0.1586
 4772TIP3    H135807   3.001   0.193   2.406  0.4406  0.8980 -1.9607
 4772TIP3    H235808   3.091   0.313   2.389  1.8667  0.5004  1.8976
 4773TIP3   OH235809   4.851   6.168  13.440 -1.0685 -0.0336  0.4104
 4773TIP3    H135810   4.782   6.110  13.407  0.7439 -1.4614 -1.0701
 4773TIP3    H235811   4.911   6.110  13.487  0.2031  0.8057 -0.1365
 4774TIP3   OH235812   4.623   4.759  10.956 -0.1177  0.2785  0.7459
 4774TIP3    H135813   4.556   4.778  10.890 -0.3743 -0.4937  0.7749
 4774TIP3    H235814   4.607   4.823  11.025  0.7552  1.7237 -0.3388
 4775TIP3   OH235815   1.334   5.820  16.042 -0.0758 -0.5542 -0.1888
 4775TIP3    H135816   1.371   5.800  15.956  0.0682 -0.0195 -0.2572
 4775TIP3    H235817   1.289   5.740  16.068 -1.7104 -0.1719 -1.5880
 4776TIP3   OH235818   2.962   6.240  12.446 -0.2021 -0.6126 -0.0792
 4776TIP3    H135819   2.983   6.327  12.480  0.6313 -1.1543  0.8674
 4776TIP3    H235820   2.978   6.181  12.520  1.4812 -1.8249 -1.3089
 4777TIP3   OH235821   1.927   0.819   0.022  0.8148 -0.1196 -0.0799
 4777TIP3    H135822   1.938   0.908  -0.012 -0.6207  0.0381 -0.1813
 4777TIP3    H235823   1.850   0.824   0.078  1.7142 -0.9259  1.2964
 4778TIP3   OH235824   2.938   4.105  15.304  0.3567 -0.2956 -0.1750
 4778TIP3    H135825   2.881   4.074  15.375 -0.7823 -0.3744 -1.0827
 4778TIP3    H235826   3.027   4.090  15.336 -0.1372 -2.0750  0.4684
 4779TIP3   OH235827   1.050   2.523   4.224  0.3054 -0.3246  0.0849
 4779TIP3    H135828   1.012   2.600   4.182 -1.4415 -0.3645  1.4588
 4779TIP3    H235829   1.144   2.534   4.214  0.0487  1.2192 -1.0480
 4780TIP3   OH235830   3.953   0.794  15.750 -0.2643  0.7285 -0.0858
 4780TIP3    H135831   3.974   0.823  15.661 -0.3299 -2.1197 -1.1542
 4780TIP3    H235832   4.033   0.752  15.781 -0.6265  0.5921  0.6802
 4781TIP3   OH235833   2.344   3.692   0.601  0.0414 -0.1371  0.7497
 4781TIP3    H135834   2.402   3.700   0.677 -0.0069  0.1196  0.7607
 4781TIP3    H235835   2.325   3.783   0.577 -0.9609 -0.2180  1.2067
 4782TIP3   OH235836   5.801   5.587   3.408  0.4280  0.0047  0.0871
 4782TIP3    H135837   5.849   5.537   3.342 -0.3853  0.9429 -1.2676
 4782TIP3    H235838   5.834   5.677   3.400  0.2350  0.1564  0.8887
 4783TIP3   OH235839   2.030   4.780  15.390  0.3080 -0.1699 -0.4465
 4783TIP3    H135840   1.970   4.855  15.399 -0.1534 -0.5664 -0.1875
 4783TIP3    H235841   2.004   4.737  15.309  1.3324  0.6102 -1.2179
 4784TIP3   OH235842   5.188   1.318   0.807 -0.5177  0.1308  0.4707
 4784TIP3    H135843   5.209   1.226   0.792  0.7714  0.3450  0.8299
 4784TIP3    H235844   5.103   1.317   0.851 -0.0649 -0.9465  1.3543
 4785TIP3   OH235845   5.725   2.748  16.872 -0.2846 -0.6706 -0.1616
 4785TIP3    H135846   5.745   2.831  16.914 -0.1340 -0.5544 -0.4584
 4785TIP3    H235847   5.756   2.682  16.934  1.0420 -0.4915 -0.6056
 4786TIP3   OH235848   5.556   4.068  16.834  0.3785 -0.2137 -0.3153
 4786TIP3    H135849   5.538   4.017  16.913  1.5055 -0.3664 -0.1420
 4786TIP3    H235850   5.497   4.143  16.839  0.5642 -0.1320  0.7620
 4787TIP3   OH235851   3.228   1.595   0.563 -0.4036  0.4546  0.0283
 4787TIP3    H135852   3.182   1.571   0.482  0.4136  0.1867 -0.3789
 4787TIP3    H235853   3.310   1.635   0.532 -0.5519  1.3213  0.7268
 4788TIP3   OH235854   0.324   5.679   4.009  0.0488 -0.2526 -0.2076
 4788TIP3    H135855   0.362   5.686   4.096 -1.6732 -1.4061  0.6933
 4788TIP3    H235856   0.397   5.654   3.953  1.0758 -0.0819  1.0071
 4789TIP3   OH235857   1.275   6.317  16.180  0.0060 -0.2067 -0.0843
 4789TIP3    H135858   1.257   6.366  16.100  2.2120  0.2317 -0.3878
 4789TIP3    H235859   1.241   6.229  16.163 -0.6254  0.2028 -1.0241
 4790TIP3   OH235860   4.275   0.314  11.439 -0.0667  0.2154 -0.4487
 4790TIP3    H135861   4.364   0.313  11.475  0.0561  0.0446 -0.7491
 4790TIP3    H235862   4.275   0.242  11.376  0.5176  2.0594 -2.6913
 4791TIP3   OH235863   0.501   2.883   0.736  0.0449  0.1187 -0.2421
 4791TIP3    H135864   0.470   2.803   0.694 -0.1170 -0.1298  0.3382
 4791TIP3    H235865   0.441   2.951   0.706 -0.3747 -0.1504 -0.0171
 4792TIP3   OH235866   1.635   0.416  15.178  0.3314 -0.4101 -0.1856
 4792TIP3    H135867   1.582   0.496  15.183 -0.1771 -0.7418 -0.2193
 4792TIP3    H235868   1.635   0.382  15.267 -0.5235 -1.0537 -0.4210
 4793TIP3   OH235869   2.485   3.025   4.174 -0.0463  0.0103 -0.3674
 4793TIP3    H135870   2.437   3.014   4.091 -0.3168  0.7040 -0.3131
 4793TIP3    H235871   2.418   3.051   4.237 -0.2856 -2.8433  0.6857
 4794TIP3   OH235872   1.073   0.791  15.802  1.0979  0.2552 -0.6030
 4794TIP3    H135873   1.001   0.855  15.796  1.3116  0.3799 -2.5460
 4794TIP3    H235874   1.131   0.827  15.869 -0.3811  0.4147  0.6463
 4795TIP3   OH235875   5.331   2.554  12.802  0.0861 -0.4394 -0.0905
 4795TIP3    H135876   5.375   2.516  12.878  0.2300  2.2299  1.2626
 4795TIP3    H235877   5.242   2.571  12.832 -0.0064  0.1798 -0.6937
 4796TIP3   OH235878   1.510   0.662  14.789 -0.0215 -0.4437  0.2403
 4796TIP3    H135879   1.513   0.751  14.825  2.6843 -0.5297  0.4720
 4796TIP3    H235880   1.463   0.610  14.854 -2.1823  0.8577 -0.1755
 4797TIP3   OH235881   1.041   2.694  16.188 -0.1071  0.0696 -0.1046
 4797TIP3    H135882   1.106   2.713  16.119 -1.1433 -1.2702 -1.5205
 4797TIP3    H235883   1.082   2.726  16.268  2.7932 -1.6597 -0.7301
 4798TIP3   OH235884   6.448   2.896  15.489 -0.0178 -0.2212  0.0023
 4798TIP3    H135885   6.429   2.900  15.583 -0.2504 -0.9204 -0.0114
 4798TIP3    H235886   6.525   2.839  15.483 -0.3135 -0.5948 -0.2695
 4799TIP3   OH235887   2.284   5.281  14.148 -0.3390 -0.4365  0.4864
 4799TIP3    H135888   2.206   5.332  14.169 -0.4958 -0.7957  0.7827
 4799TIP3    H235889   2.279   5.267  14.053  0.4664  1.3457  0.1393
 4800TIP3   OH235890   6.802   0.562   3.758  0.1323  0.3756 -0.7234
 4800TIP3    H135891   6.792   0.470   3.735  1.0744 -0.4917  1.9039
 4800TIP3    H235892   6.871   0.594   3.700  0.1180 -0.7019 -1.3633
 4801TIP3   OH235893   1.423   3.843   0.884  0.3604  0.0094  0.1294
 4801TIP3    H135894   1.381   3.760   0.907 -0.9566  0.7370  0.3845
 4801TIP3    H235895   1.407   3.852   0.790  0.9131 -0.2325  0.0035
 4802TIP3   OH235896   1.692   5.168   3.878  0.3132 -0.4215 -0.0768
 4802TIP3    H135897   1.704   5.236   3.811 -0.8791  0.1667  0.2881
 4802TIP3    H235898   1.654   5.213   3.953  1.6472 -1.0696  1.0435
 4803TIP3   OH235899   6.078   3.125  17.006  1.3984 -0.0776  0.2787
 4803TIP3    H135900   6.018   3.200  17.003  1.9056  0.3602  0.8834
 4803TIP3    H235901   6.023   3.050  16.985  0.9909  0.5257 -0.9099
 4804TIP3   OH235902   5.815   1.363  12.892  0.0878 -0.4124 -0.1369
 4804TIP3    H135903   5.827   1.275  12.926 -0.8792 -0.8521 -0.8933
 4804TIP3    H235904   5.821   1.353  12.797 -1.7600  0.0141 -0.3427
 4805TIP3   OH235905   2.642   3.388   3.607  0.4360 -0.5075  0.2015
 4805TIP3    H135906   2.657   3.311   3.661  0.5029 -0.1381  0.7238
 4805TIP3    H235907   2.728   3.408   3.569  0.9734  0.6558  1.9107
 4806TIP3   OH235908   4.813   6.033  11.346 -0.2492 -0.2169  0.0735
 4806TIP3    H135909   4.828   6.128  11.339 -2.6358  0.1566 -0.7162
 4806TIP3    H235910   4.814   6.002  11.256  2.1671 -1.3153  0.3910
 4807TIP3   OH235911   0.126   2.493  15.401  0.3552 -0.1775  0.0770
 4807TIP3    H135912   0.123   2.440  15.322 -2.2152  1.0878 -0.8084
 4807TIP3    H235913   0.036   2.490  15.435  0.2097  2.9901  0.2938
 4808TIP3   OH235914   5.760   4.961   3.152 -0.1259  0.5761  0.1976
 4808TIP3    H135915   5.836   4.985   3.099 -0.1224  0.4243  0.1338
 4808TIP3    H235916   5.737   5.042   3.199  1.3374  0.0848  1.8291
 4809TIP3   OH235917   2.682   5.116   5.334 -0.0408  0.6356 -0.1605
 4809TIP3    H135918   2.707   5.173   5.406  0.8828  1.8344 -1.4028
 4809TIP3    H235919   2.616   5.166   5.286 -2.1926 -0.9584  0.9027
 4810TIP3   OH235920   2.482   2.153   1.000  0.3620  0.4740  0.0570
 4810TIP3    H135921   2.437   2.236   1.017 -0.4777  0.6009 -2.3653
 4810TIP3    H235922   2.574   2.178   0.985  0.2620  0.8698  0.0970
 4811TIP3   OH235923   4.770   1.576   6.477  0.5855  0.2228 -0.2092
 4811TIP3    H135924   4.787   1.521   6.553 -0.4653  0.9419  0.5816
 4811TIP3    H235925   4.830   1.650   6.486  0.8179  0.0554 -0.3646
 4812TIP3   OH235926   1.484   4.253  12.599  0.1338  0.1628 -0.3453
 4812TIP3    H135927   1.481   4.221  12.689 -2.2384 -3.9500 -1.6151
 4812TIP3    H235928   1.484   4.348  12.607 -0.8065 -0.0093  4.0011
 4813TIP3   OH235929   2.473   0.884  12.761 -0.3493  0.1520  0.4520
 4813TIP3    H135930   2.566   0.894  12.781  0.2896  0.4329 -2.2356
 4813TIP3    H235931   2.438   0.831  12.833  2.3439 -1.7493  0.5048
 4814TIP3   OH235932   3.423   3.338  16.185 -0.0305 -0.1725  0.0117
 4814TIP3    H135933   3.351   3.401  16.197  0.5321  0.5944 -0.5238
 4814TIP3    H235934   3.417   3.280  16.261 -0.2257  0.8594  0.8124
 4815TIP3   OH235935   1.482   5.650   0.590  0.5365 -0.6712  0.4341
 4815TIP3    H135936   1.497   5.721   0.528 -0.5804 -1.1758 -0.4561
 4815TIP3    H235937   1.524   5.574   0.549 -1.1099 -1.2449 -0.2543
 4816TIP3   OH235938   0.824   1.398   2.081  0.8609  0.2895  0.2160
 4816TIP3    H135939   0.747   1.430   2.035  0.9444  1.5762  0.9327
 4816TIP3    H235940   0.884   1.370   2.012  0.0403 -0.0712 -0.3646
 4817TIP3   OH235941   5.901   5.221   3.908  0.6625 -0.7260 -0.0286
 4817TIP3    H135942   5.946   5.138   3.923  0.8746 -0.4894  0.6677
 4817TIP3    H235943   5.945   5.258   3.831  0.3051 -1.4347 -0.5854
 4818TIP3   OH235944   4.685   1.357   4.726 -0.0609  0.2705 -0.1857
 4818TIP3    H135945   4.659   1.366   4.817 -2.0055  0.0119 -0.6746
 4818TIP3    H235946   4.729   1.272   4.721  0.5766  0.5446  0.6024
 4819TIP3   OH235947   1.755   2.797  15.927  0.2540  0.1888 -0.2583
 4819TIP3    H135948   1.783   2.738  15.997 -0.7130 -2.2034 -1.7801
 4819TIP3    H235949   1.663   2.813  15.945  0.1523  0.0577 -0.6604
 4820TIP3   OH235950   1.847   0.893  14.718 -0.3964 -0.2306  0.4535
 4820TIP3    H135951   1.850   0.865  14.810  0.8281  3.1157  1.6018
 4820TIP3    H235952   1.927   0.945  14.707 -1.4859  1.0773 -1.9512
 4821TIP3   OH235953   5.350   4.542   0.090 -0.5629 -0.1224  0.6024
 4821TIP3    H135954   5.423   4.488   0.061  0.5531  0.9451  1.3132
 4821TIP3    H235955   5.342   4.525   0.184 -1.1420 -0.1308  0.5585
 4822TIP3   OH235956   2.509   1.755  15.170 -0.0311 -0.3878 -0.0274
 4822TIP3    H135957   2.483   1.683  15.228  2.6039 -1.0985  0.3846
 4822TIP3    H235958   2.604   1.752  15.168  0.0630  0.9926 -2.7351
 4823TIP3   OH235959   4.343   1.613   3.334  0.1575  0.1542  0.0278
 4823TIP3    H135960   4.364   1.524   3.362 -1.0245  0.3224  1.6395
 4823TIP3    H235961   4.363   1.615   3.241  0.0147 -1.8641 -0.0892
 4824TIP3   OH235962   4.281   6.482   1.306  0.3386  0.3623 -0.0773
 4824TIP3    H135963   4.293   6.392   1.276  0.4880  0.0552  0.8964
 4824TIP3    H235964   4.369   6.514   1.325  0.1026 -0.4664  2.9037
 4825TIP3   OH235965   3.214   1.943   0.026  0.1127  0.3002 -0.2690
 4825TIP3    H135966   3.128   1.979   0.049  0.4724  1.0926 -0.1553
 4825TIP3    H235967   3.262   1.941   0.108  0.6064  0.9642 -0.5382
 4826TIP3   OH235968   4.531   0.800   3.923  0.3469 -0.1431 -0.3069
 4826TIP3    H135969   4.569   0.754   3.848  2.3477 -0.0638  0.5966
 4826TIP3    H235970   4.579   0.766   3.999 -4.0282 -3.0094  1.5805
 4827TIP3   OH235971   3.216   6.154   3.647 -0.0962 -0.4171  0.7141
 4827TIP3    H135972   3.258   6.142   3.562 -1.5804 -0.1964 -0.0781
 4827TIP3    H235973   3.273   6.216   3.693  1.0826 -1.0524  0.1537
 4828TIP3   OH235974   2.774   5.133   2.959 -0.6110  0.8416 -0.3413
 4828TIP3    H135975   2.870   5.136   2.964 -0.6406  3.8118  0.7119
 4828TIP3    H235976   2.755   5.156   2.868 -0.3345  0.5618 -0.4745
 4829TIP3   OH235977   1.046   3.743  16.578  0.0044 -0.3433 -0.9141
 4829TIP3    H135978   0.985   3.683  16.622  0.2819 -1.0866 -1.5151
 4829TIP3    H235979   1.114   3.760  16.644 -0.8122  0.4689 -0.2482
 4830TIP3   OH235980   5.901   3.785   5.471 -0.2662  0.0290  0.0056
 4830TIP3    H135981   5.841   3.816   5.402 -0.4733 -1.4994 -0.5267
 4830TIP3    H235982   5.982   3.834   5.455 -0.3321 -0.2445 -1.3137
 4831TIP3   OH235983   1.650   0.212   1.815  0.0075  0.4306  0.1175
 4831TIP3    H135984   1.687   0.124   1.807  1.6753  1.2205 -1.3184
 4831TIP3    H235985   1.595   0.222   1.738  0.8896  1.1099 -0.4408
 4832TIP3   OH235986   1.875   1.089   0.362  0.4425 -0.0133  0.3912
 4832TIP3    H135987   1.836   1.129   0.439  1.4767  0.8022  0.4986
 4832TIP3    H235988   1.913   1.161   0.313  0.4360 -0.6077 -0.5192
 4833TIP3   OH235989   6.264   2.376   4.718  0.4113  0.0608 -0.8686
 4833TIP3    H135990   6.205   2.349   4.648  2.5416 -0.2087 -2.6984
 4833TIP3    H235991   6.332   2.427   4.674  1.2650  0.8354  1.1921
 4834TIP3   OH235992   1.270   2.824  15.774  0.1274  0.4817  0.4710
 4834TIP3    H135993   1.268   2.760  15.703  0.1372 -0.8809  1.6485
 4834TIP3    H235994   1.199   2.885  15.754 -2.3777 -1.9932  1.1186
 4835TIP3   OH235995   6.181   0.995   5.109 -0.0201 -0.0425 -0.0527
 4835TIP3    H135996   6.186   0.994   5.205  1.9433  1.9036 -0.0426
 4835TIP3    H235997   6.088   1.003   5.089 -0.4609 -0.4589  1.6922
 4836TIP3   OH235998   6.577   6.031  11.902  0.4614  0.1517 -0.0750
 4836TIP3    H135999   6.507   6.057  11.842  1.1192  1.3140 -0.3687
 4836TIP3    H236000   6.616   6.113  11.930  1.0748 -0.4471  0.8614
 4837TIP3   OH236001   5.472   2.972  11.276 -0.1114 -0.0887 -0.1692
 4837TIP3    H136002   5.390   2.980  11.226 -0.1808 -3.6026 -0.9049
 4837TIP3    H236003   5.461   3.032  11.350 -1.5231  2.6354 -2.4139
 4838TIP3   OH236004   5.184   0.349  15.996  0.3783 -0.5395  0.7988
 4838TIP3    H136005   5.276   0.344  16.021  0.1688  0.7533  1.9250
 4838TIP3    H236006   5.170   0.271  15.943  2.4920 -0.0254 -0.6573
 4839TIP3   OH236007   6.140   3.027   2.882 -0.1408 -0.0070  0.1006
 4839TIP3    H136008   6.088   3.045   2.960 -1.0230  0.1014 -0.5006
 4839TIP3    H236009   6.231   3.041   2.910 -0.4915  0.7823  0.9020
 4840TIP3   OH236010   4.839   4.666   1.613 -0.7455  0.0069  0.0126
 4840TIP3    H136011   4.862   4.755   1.586 -0.7801 -0.1213 -0.4438
 4840TIP3    H236012   4.917   4.614   1.595 -0.8120 -0.1039  0.0397
 4841TIP3   OH236013   0.876   6.209   4.069 -0.1411 -0.0903  0.1173
 4841TIP3    H136014   0.798   6.233   4.019 -0.8890 -0.0673  1.2702
 4841TIP3    H236015   0.893   6.118   4.045 -0.8838 -0.2851  0.2940
 4842TIP3   OH236016   2.272   4.939  11.003 -0.1106 -0.3544  0.3366
 4842TIP3    H136017   2.328   4.946  11.080  0.0592 -1.7234  0.3650
 4842TIP3    H236018   2.184   4.955  11.036  0.0229 -0.3856  0.7176
 4843TIP3   OH236019   6.815   3.374   2.394 -0.4310  0.5011 -0.1519
 4843TIP3    H136020   6.818   3.426   2.474  1.4432  0.9158 -0.4429
 4843TIP3    H236021   6.897   3.327   2.393 -0.9268 -0.3860 -1.2765
 4844TIP3   OH236022   1.588   5.477  13.468 -0.2070  0.0921 -0.1869
 4844TIP3    H136023   1.637   5.413  13.416  0.3446 -1.2538  1.8928
 4844TIP3    H236024   1.654   5.525  13.517 -0.7921  0.4550  0.2587
 4845TIP3   OH236025   4.910   3.484   1.609  0.2319 -0.2486 -0.2235
 4845TIP3    H136026   4.839   3.471   1.546  1.0558 -2.8012 -0.7635
 4845TIP3    H236027   4.990   3.465   1.560  1.4864  3.2384  0.1773
 4846TIP3   OH236028   3.449   5.646   4.458 -0.1126 -0.1163  0.0737
 4846TIP3    H136029   3.427   5.727   4.503  0.5759 -0.3782  0.9105
 4846TIP3    H236030   3.544   5.649   4.448 -0.1678 -0.4441 -0.6392
 4847TIP3   OH236031   1.114   5.777   5.187 -0.3756 -0.3916  0.1473
 4847TIP3    H136032   1.156   5.859   5.213  1.0059 -0.2586 -2.1676
 4847TIP3    H236033   1.166   5.709   5.229 -0.5033 -0.1275  0.7446
 4848TIP3   OH236034   6.313   0.142   1.709  0.5335  0.6202 -0.6579
 4848TIP3    H136035   6.230   0.186   1.724  0.6250  0.0744  1.7766
 4848TIP3    H236036   6.372   0.212   1.681 -0.2338  1.3543 -0.4854
 4849TIP3   OH236037   6.622   2.054  16.671  0.1585 -0.7545 -0.3376
 4849TIP3    H136038   6.695   2.053  16.608  1.1740  0.7338  0.7290
 4849TIP3    H236039   6.607   2.147  16.688  1.4036 -1.0395  3.1874
 4850TIP3   OH236040   5.297   1.772  14.631  0.1351  0.5027  0.3702
 4850TIP3    H136041   5.328   1.862  14.643  0.7130  0.5074 -1.0026
 4850TIP3    H236042   5.202   1.779  14.640  0.2852  0.9892  1.7204
 4851TIP3   OH236043   4.400   3.736   5.136 -0.6080  0.2863 -0.1996
 4851TIP3    H136044   4.311   3.749   5.169 -0.8317  0.9540 -1.0029
 4851TIP3    H236045   4.409   3.802   5.067 -0.1365 -0.9750 -1.3809
 4852TIP3   OH236046   4.292   0.095  12.081 -0.6109  0.2230  0.2589
 4852TIP3    H136047   4.235   0.117  12.008  0.7266 -0.1221 -0.9370
 4852TIP3    H236048   4.233   0.078  12.154 -2.0565 -0.5530 -1.0470
 4853TIP3   OH236049   5.340   3.712  10.901 -0.1127 -0.3647 -0.8099
 4853TIP3    H136050   5.341   3.689  10.808  0.6220  0.3876 -1.0034
 4853TIP3    H236051   5.431   3.701  10.930 -0.3513 -0.6681 -0.1604
 4854TIP3   OH236052   2.296   5.013   5.802 -0.6948  0.3112 -0.3672
 4854TIP3    H136053   2.277   5.025   5.895 -0.9080  1.2918 -0.5341
 4854TIP3    H236054   2.386   5.044   5.791 -0.6667  0.1898 -0.4880
 4855TIP3   OH236055   4.335   5.980   5.462  0.1197  0.4100  0.6299
 4855TIP3    H136056   4.418   5.933   5.466 -0.6690 -1.3494 -1.4043
 4855TIP3    H236057   4.298   5.973   5.549  1.1265 -0.6863  0.9870
 4856TIP3   OH236058   4.036   1.280  12.041 -0.5266  0.1207 -0.2825
 4856TIP3    H136059   4.117   1.329  12.054  0.9472 -1.8471 -1.4616
 4856TIP3    H236060   3.984   1.297  12.119 -0.1929  3.5996 -0.6872
 4857TIP3   OH236061   1.681   0.128   3.787 -0.1317  0.4008 -0.8137
 4857TIP3    H136062   1.681   0.059   3.854  0.2885 -1.0442 -2.2170
 4857TIP3    H236063   1.762   0.113   3.738 -0.6692  1.0966 -1.9406
 4858TIP3   OH236064   5.056   3.633   4.699  0.0835 -0.3741  0.1783
 4858TIP3    H136065   5.031   3.650   4.608  1.3729 -0.1062 -0.1484
 4858TIP3    H236066   5.151   3.641   4.699  0.2433 -1.9512  1.2261
 4859TIP3   OH236067   5.890   6.691  12.006  0.1169 -0.3854 -0.6223
 4859TIP3    H136068   5.882   6.731  12.092  1.2720 -0.3960 -0.4855
 4859TIP3    H236069   5.858   6.602  12.018  0.0901 -0.3271 -0.2431
 4860TIP3   OH236070   0.586   3.866  14.811  0.2610  0.4713 -0.5658
 4860TIP3    H136071   0.634   3.913  14.880 -0.7249  0.8950 -0.1533
 4860TIP3    H236072   0.653   3.816  14.765  0.9694  0.3686  0.5529
 4861TIP3   OH236073   2.788   6.169   0.192 -0.1092  0.9467 -0.3839
 4861TIP3    H136074   2.723   6.225   0.151 -2.7309  0.1904  2.4180
 4861TIP3    H236075   2.793   6.199   0.283  0.6249 -1.3881  0.4332
 4862TIP3   OH236076   0.609   1.241   5.884 -0.0819 -0.7816  0.4238
 4862TIP3    H136077   0.639   1.271   5.798 -2.5922  2.1274  0.4011
 4862TIP3    H236078   0.650   1.155   5.894  1.1637 -0.8078 -3.1840
 4863TIP3   OH236079   6.055   6.114  17.033  0.0833 -0.0081  0.0946
 4863TIP3    H136080   5.969   6.075  17.045  0.3868 -0.0282  2.6254
 4863TIP3    H236081   6.039   6.207  17.024 -0.1811  0.0510  1.1244
 4864TIP3   OH236082   6.800   6.092   4.940  0.4071 -0.0391 -0.1899
 4864TIP3    H136083   6.833   6.147   4.869  2.3917 -2.0142 -0.9146
 4864TIP3    H236084   6.831   6.135   5.020  1.8775 -0.0463 -0.7313
 4865TIP3   OH236085   2.142   4.262  10.601  0.2262 -0.4000 -0.5346
 4865TIP3    H136086   2.209   4.200  10.630 -1.4234 -1.9809  0.0930
 4865TIP3    H236087   2.116   4.309  10.680 -0.4138 -0.8415 -0.4697
 4866TIP3   OH236088   2.741   5.098  16.632  0.0875  0.4070  0.3144
 4866TIP3    H136089   2.741   5.157  16.707  0.5119  0.3557  0.3597
 4866TIP3    H236090   2.791   5.022  16.661  1.0159  0.7570 -0.2975
 4867TIP3   OH236091   4.137   6.200  14.350  0.0669  0.0066 -0.7217
 4867TIP3    H136092   4.126   6.244  14.435  3.1150  0.5288 -0.5162
 4867TIP3    H236093   4.106   6.264  14.286 -0.8938  0.1623 -0.1379
 4868TIP3   OH236094   0.181   2.566  13.338  0.3464  0.2653  0.3973
 4868TIP3    H136095   0.179   2.508  13.261 -1.0366 -1.5233  1.7010
 4868TIP3    H236096   0.215   2.649  13.304  0.5201 -0.6893 -1.9776
 4869TIP3   OH236097   0.030   1.899   1.588 -0.0198  1.0346  0.1478
 4869TIP3    H136098   0.016   1.827   1.527 -0.7937  0.9864  0.3706
 4869TIP3    H236099   0.092   1.865   1.652 -1.4694  0.0489  1.0774
 4870TIP3   OH236100   6.053   6.135   1.001 -0.0670  0.0010 -0.3494
 4870TIP3    H136101   6.054   6.040   0.989 -0.9698  0.1400 -1.8616
 4870TIP3    H236102   6.114   6.151   1.072 -0.3797 -1.7661  0.3696
 4871TIP3   OH236103   1.019   4.074  14.368 -0.0973 -0.9900  0.1814
 4871TIP3    H136104   1.092   4.066  14.306  1.3380 -0.1858  1.6767
 4871TIP3    H236105   0.968   4.148  14.335  0.6398 -0.5759 -0.0620
 4872TIP3   OH236106   0.193   3.088  17.014  0.5324 -0.6469  0.2535
 4872TIP3    H136107   0.281   3.069  16.984  1.3097  1.9849  0.6072
 4872TIP3    H236108   0.150   3.130  16.938  1.3900  2.8529  1.5057
 4873TIP3   OH236109   1.326   1.031   5.313  0.8994  0.0537 -0.2200
 4873TIP3    H136110   1.295   0.982   5.389 -2.9306 -0.6235 -2.0165
 4873TIP3    H236111   1.356   0.964   5.252  1.0880  0.3975 -0.5096
 4874TIP3   OH236112   6.171   1.492  13.059 -0.4133 -0.4920  0.0207
 4874TIP3    H136113   6.238   1.525  12.999 -0.7437  0.0737 -0.0436
 4874TIP3    H236114   6.090   1.532  13.028 -0.5359  0.1092  1.0643
 4875TIP3   OH236115   3.955   5.465   4.822 -0.0330  0.1796 -0.2013
 4875TIP3    H136116   3.901   5.454   4.743 -1.0461  0.3851  0.4382
 4875TIP3    H236117   3.952   5.379   4.864 -1.7094  0.7479  0.9455
 4876TIP3   OH236118   4.485   6.080  16.289  0.1603 -0.4085  0.0247
 4876TIP3    H136119   4.440   6.122  16.216 -0.3983 -1.8320 -0.4730
 4876TIP3    H236120   4.415   6.045  16.343  0.6252 -1.7498 -0.2124
 4877TIP3   OH236121   4.513   6.802  13.908  0.5228  0.6151 -0.2351
 4877TIP3    H136122   4.495   6.821  13.816 -0.4204 -1.3200 -0.5111
 4877TIP3    H236123   4.607   6.818  13.918  0.5204  1.4578 -1.3550
 4878TIP3   OH236124   2.798   5.405   2.493 -0.6586 -0.2833  0.3020
 4878TIP3    H136125   2.707   5.432   2.499 -0.9887 -0.8014 -1.6693
 4878TIP3    H236126   2.835   5.459   2.423  0.3031 -0.7366  0.4353
 4879TIP3   OH236127   0.052   6.295  14.599  0.2662  0.4736 -0.0219
 4879TIP3    H136128  -0.033   6.333  14.575 -0.2803 -0.4620  0.3744
 4879TIP3    H236129   0.097   6.366  14.646 -0.9368  0.5053  1.1680
 4880TIP3   OH236130   3.539   0.982  13.879 -0.3515 -0.7085 -0.0113
 4880TIP3    H136131   3.485   0.995  13.957  1.6835 -0.6466  1.4587
 4880TIP3    H236132   3.536   0.888  13.862 -0.5628 -0.7642  0.3321
 4881TIP3   OH236133   2.586   4.118  16.257 -0.1206  0.1769  0.1680
 4881TIP3    H136134   2.679   4.135  16.243  0.0060 -0.1941  0.5092
 4881TIP3    H236135   2.544   4.143  16.175  0.6048 -2.1252 -0.9925
 4882TIP3   OH236136   4.914   3.955   4.928 -0.0794 -0.2504  0.0346
 4882TIP3    H136137   4.925   4.043   4.965 -1.6507 -0.9908  2.4387
 4882TIP3    H236138   5.001   3.934   4.893  1.4041  0.8521  2.7031
 4883TIP3   OH236139   2.064   4.354  13.842  0.3306  0.6585  0.0307
 4883TIP3    H136140   2.001   4.404  13.790 -2.3037  0.6202  2.8973
 4883TIP3    H236141   2.139   4.412  13.852 -0.2782  1.7406 -1.3897
 4884TIP3   OH236142   1.589   0.853  14.272 -0.0966  0.2251  0.1066
 4884TIP3    H136143   1.524   0.811  14.329  1.2180  0.1223  1.6337
 4884TIP3    H236144   1.647   0.899  14.333  2.4789 -1.4027 -0.9692
 4885TIP3   OH236145   5.418   2.995  15.195  0.2669 -0.1381 -0.3694
 4885TIP3    H136146   5.385   3.081  15.222 -0.5567 -0.6073  0.1536
 4885TIP3    H236147   5.432   3.004  15.100  1.8766  1.1009 -0.0545
 4886TIP3   OH236148   3.876   4.961   2.783 -0.1854 -0.0188  0.2268
 4886TIP3    H136149   3.943   4.999   2.727 -0.1230  0.4464  0.6033
 4886TIP3    H236150   3.815   5.032   2.799 -0.2311 -0.1574  0.6973
 4887TIP3   OH236151   3.565   0.476  16.515  0.2896  0.3935 -0.1346
 4887TIP3    H136152   3.550   0.417  16.441 -2.0186  0.2779  0.3534
 4887TIP3    H236153   3.660   0.480  16.523  0.5659 -1.0422 -1.9392
 4888TIP3   OH236154   0.951   4.793  16.177 -0.2364  0.2330  0.6544
 4888TIP3    H136155   0.875   4.837  16.215  0.3776  1.7352  0.2056
 4888TIP3    H236156   0.936   4.797  16.083  0.4775  0.7098  0.5539
 4889TIP3   OH236157   4.126   0.545  13.905 -0.7318 -1.1677 -0.2305
 4889TIP3    H136158   4.083   0.580  13.827  0.5755 -0.4539 -0.6530
 4889TIP3    H236159   4.076   0.465  13.926 -3.9988  0.9550  0.9429
 4890TIP3   OH236160   4.950   0.880   3.901 -0.1244 -0.4422  0.1068
 4890TIP3    H136161   4.892   0.914   3.969 -0.1552 -1.1980  0.4643
 4890TIP3    H236162   4.895   0.819   3.852 -0.6088  1.2993 -1.6660
 4891TIP3   OH236163   1.591   3.399  17.011  0.2128  0.0032  0.0110
 4891TIP3    H136164   1.681   3.378  16.986 -0.3460 -1.0978 -1.1809
 4891TIP3    H236165   1.549   3.425  16.930 -0.5967  0.3765  0.5366
 4892TIP3   OH236166   2.476   3.569  11.977  0.7033 -0.1886  1.0008
 4892TIP3    H136167   2.506   3.569  12.068  1.8680  0.0346  0.6307
 4892TIP3    H236168   2.507   3.653  11.942  0.4625 -0.3765  0.3382
 4893TIP3   OH236169   2.341   6.518  12.408  0.2689  0.2647 -0.0736
 4893TIP3    H136170   2.316   6.552  12.494 -1.5831 -0.6681 -0.1910
 4893TIP3    H236171   2.259   6.515  12.358  1.3867  1.4149 -2.1371
 4894TIP3   OH236172   0.178   2.014   2.581  0.5932  0.2297  0.1737
 4894TIP3    H136173   0.180   1.919   2.576  0.9843  0.2338  0.1984
 4894TIP3    H236174   0.263   2.041   2.545 -0.3482  0.6591 -1.8632
 4895TIP3   OH236175   3.314   0.421   4.650  0.1408 -0.3819 -0.3420
 4895TIP3    H136176   3.355   0.504   4.625  0.9521 -0.5642  0.3587
 4895TIP3    H236177   3.387   0.360   4.661 -0.4398 -1.1650 -0.7123
 4896TIP3   OH236178   0.108   1.645  14.558 -0.2616  0.6684  0.5529
 4896TIP3    H136179   0.066   1.635  14.644 -0.8234  0.3791  0.2535
 4896TIP3    H236180   0.174   1.713  14.571  0.8328 -0.5361  1.6474
 4897TIP3   OH236181   0.351   4.216   1.920 -0.3622  0.3414  0.2106
 4897TIP3    H136182   0.322   4.234   2.009  1.1923  1.8604  0.4674
 4897TIP3    H236183   0.446   4.225   1.923 -0.3648  2.1257 -1.8981
 4898TIP3   OH236184   1.605   4.733  11.744  0.1412 -0.0769  0.2778
 4898TIP3    H136185   1.590   4.641  11.726  0.7004  0.1465 -1.4431
 4898TIP3    H236186   1.692   4.736  11.783  0.2697 -0.2341  0.0025
 4899TIP3   OH236187   5.007   5.177   2.010 -0.3182  0.6720 -0.4551
 4899TIP3    H136188   5.096   5.142   2.012 -0.1834  1.0451  0.7358
 4899TIP3    H236189   4.951   5.100   2.006  0.0272  0.3804  0.1927
 4900TIP3   OH236190   3.033   1.996  13.836  0.6349 -0.4228  0.3623
 4900TIP3    H136191   3.049   2.028  13.747  3.4932 -0.5257  0.7354
 4900TIP3    H236192   3.068   1.907  13.836  0.1707 -0.6118  1.4574
 4901TIP3   OH236193   2.413   5.906   6.242  0.4725 -0.0978 -0.5678
 4901TIP3    H136194   2.325   5.928   6.214 -0.4307 -0.7248  1.6249
 4901TIP3    H236195   2.436   5.829   6.190 -0.5761 -0.3983 -0.6001
 4902TIP3   OH236196   4.938   3.866   0.746  0.0190 -0.1987  0.4100
 4902TIP3    H136197   5.025   3.855   0.708 -0.7888 -2.2329 -0.9886
 4902TIP3    H236198   4.919   3.784   0.790 -0.3175  1.0371  2.7460
 4903TIP3   OH236199   2.134   2.649  15.103  0.0435  0.1850  0.3071
 4903TIP3    H136200   2.122   2.584  15.034  0.7621 -0.0003  0.3532
 4903TIP3    H236201   2.087   2.726  15.072  0.8056  0.2850 -0.6404
 4904TIP3   OH236202   1.093   3.249  16.272  0.1898  0.2283  0.0964
 4904TIP3    H136203   1.047   3.186  16.327  1.3734  0.0891  0.9838
 4904TIP3    H236204   1.154   3.195  16.221 -0.2989  0.4464 -0.7236
 4905TIP3   OH236205   0.513   1.273  14.445  0.3731 -0.1966  0.1743
 4905TIP3    H136206   0.546   1.357  14.477  0.9085  0.2022 -1.3544
 4905TIP3    H236207   0.434   1.296  14.395 -0.5880 -0.8338  1.3277
 4906TIP3   OH236208   5.228   3.402   4.248 -0.2872  0.2914  0.0077
 4906TIP3    H136209   5.310   3.361   4.273 -0.1728 -0.1239 -1.0198
 4906TIP3    H236210   5.175   3.401   4.328  0.3241 -0.3664  0.4096
 4907TIP3   OH236211   1.348   0.120  14.067 -0.1300  0.0764 -0.0138
 4907TIP3    H136212   1.308   0.113  14.154 -0.9142  2.6294 -0.0906
 4907TIP3    H236213   1.281   0.089  14.007 -1.3180  2.3690  0.0252
 4908TIP3   OH236214   4.951   0.487  11.265 -0.0427 -0.3539 -0.4350
 4908TIP3    H136215   4.906   0.571  11.276 -2.4155 -1.7209  1.0779
 4908TIP3    H236216   4.961   0.477  11.170 -2.5087  0.2959 -0.8183
 4909TIP3   OH236217   3.680   5.840  13.845  0.4278  0.5053 -0.1185
 4909TIP3    H136218   3.759   5.793  13.872  0.6098  0.1304 -1.2321
 4909TIP3    H236219   3.608   5.785  13.876  0.5961  0.8313  0.8740
 4910TIP3   OH236220   5.650   1.368   2.037  0.2812 -0.2310 -0.2909
 4910TIP3    H136221   5.641   1.412   2.121 -2.2821 -2.8191  0.9604
 4910TIP3    H236222   5.576   1.399   1.985  0.6834 -0.1765 -0.8447
 4911TIP3   OH236223   0.682   5.428   1.703  0.4618 -0.1252 -0.3422
 4911TIP3    H136224   0.770   5.428   1.742  1.6604 -3.4508 -2.5738
 4911TIP3    H236225   0.642   5.509   1.734  3.0192 -0.0823  3.5544
 4912TIP3   OH236226   0.741   6.169  12.154  0.4248 -0.2646 -0.3777
 4912TIP3    H136227   0.691   6.107  12.207  0.1847  0.1943 -0.0634
 4912TIP3    H236228   0.782   6.115  12.086  1.1538 -0.9463  0.5752
 4913TIP3   OH236229   3.862   5.745  12.327 -0.0366 -0.1787 -0.1044
 4913TIP3    H136230   3.899   5.742  12.416  0.0588  1.1705 -0.0809
 4913TIP3    H236231   3.911   5.678  12.279  0.4832 -0.3585  0.6505
 4914TIP3   OH236232   6.157   1.919  13.063  0.0193  0.2434  0.7303
 4914TIP3    H136233   6.076   1.902  13.016  0.7923  0.9977 -0.9730
 4914TIP3    H236234   6.166   1.846  13.123 -1.1846 -0.5998 -0.0748
 4915TIP3   OH236235   6.094   3.194  15.769  0.7340  0.4210  0.1193
 4915TIP3    H136236   6.104   3.099  15.774 -3.3042 -0.0962  3.3645
 4915TIP3    H236237   6.101   3.214  15.675  3.0562 -2.7626 -0.5620
 4916TIP3   OH236238   0.887   5.410  12.122  0.2881  0.3483 -0.5221
 4916TIP3    H136239   0.835   5.361  12.058 -0.2424  0.7824 -0.4288
 4916TIP3    H236240   0.826   5.431  12.192  0.4929  1.2240 -0.6004
 4917TIP3   OH236241   5.541   1.580  11.165  0.0512  0.5013  0.1199
 4917TIP3    H136242   5.571   1.528  11.240 -1.3298  0.3569  0.6010
 4917TIP3    H236243   5.577   1.535  11.089  0.4202 -0.0774  0.6267
 4918TIP3   OH236244   0.628   1.023  15.905 -0.0019  0.6452 -0.2397
 4918TIP3    H136245   0.578   0.993  15.829  1.2271 -1.5053 -0.2817
 4918TIP3    H236246   0.719   1.009  15.880  0.4157 -0.9351  1.9141
 4919TIP3   OH236247   0.232   4.559  14.482  0.5742  0.7701  0.2964
 4919TIP3    H136248   0.313   4.530  14.525  0.5994  0.4655  0.0533
 4919TIP3    H236249   0.248   4.542  14.389 -0.0175  0.1028  0.3130
 4920TIP3   OH236250   1.100   5.700  16.718 -0.3789 -0.3904  0.4057
 4920TIP3    H136251   1.011   5.730  16.701 -0.5192  0.1048  1.8711
 4920TIP3    H236252   1.094   5.604  16.715 -0.7871 -0.3513 -0.2309
 4921TIP3   OH236253   4.517   4.661   4.927  0.8021 -0.3689 -0.5105
 4921TIP3    H136254   4.563   4.597   4.982  1.7550 -0.5503 -1.4861
 4921TIP3    H236255   4.493   4.612   4.849 -1.3849 -0.3673  0.0819
 4922TIP3   OH236256   5.579   5.248  14.209  0.1914 -0.2448  0.1752
 4922TIP3    H136257   5.525   5.214  14.137  0.0689  0.5149 -0.0926
 4922TIP3    H236258   5.662   5.201  14.200 -0.7983 -2.4226  1.3765
 4923TIP3   OH236259   6.171   5.447  15.287  0.1523 -0.5614  0.2501
 4923TIP3    H136260   6.210   5.388  15.223 -1.7365  0.7903 -2.3453
 4923TIP3    H236261   6.083   5.413  15.300 -0.0019  0.0775  0.9577
 4924TIP3   OH236262   3.215   2.073  12.328 -0.3837  0.3961 -0.3177
 4924TIP3    H136263   3.221   1.978  12.333  0.5322  0.4833  0.2767
 4924TIP3    H236264   3.182   2.100  12.414 -1.7825  0.5399 -0.8736
 4925TIP3   OH236265   4.165   6.263  13.757  0.0210 -0.0576 -0.3381
 4925TIP3    H136266   4.152   6.267  13.852 -0.2090  0.4417 -0.3880
 4925TIP3    H236267   4.196   6.350  13.733  0.6591 -0.3620 -0.6392
 4926TIP3   OH236268   3.252   5.990  12.186  0.3827 -0.1729  0.0050
 4926TIP3    H136269   3.212   5.904  12.172 -2.9093  1.3522 -1.2568
 4926TIP3    H236270   3.237   6.008  12.279 -0.7866 -0.1873 -0.1609
 4927TIP3   OH236271   6.200   4.540   1.691  0.0510 -0.3351  0.2491
 4927TIP3    H136272   6.268   4.596   1.654 -0.5009 -1.0382 -2.0297
 4927TIP3    H236273   6.118   4.574   1.654 -0.8943  0.4434  2.8664
 4928TIP3   OH236274   2.847   5.910  10.300  0.0073  0.0700  0.4487
 4928TIP3    H136275   2.794   5.833  10.317  0.2304  0.5199  3.7231
 4928TIP3    H236276   2.931   5.875  10.271 -0.3238 -0.8452  0.5615
 4929TIP3   OH236277   0.748   2.447   1.270 -0.0727 -0.2736 -0.0866
 4929TIP3    H136278   0.834   2.413   1.295  0.3661  0.8701  0.0417
 4929TIP3    H236279   0.741   2.530   1.317 -1.8800 -1.0208  1.0358
 4930TIP3   OH236280   0.435   0.043  13.951  0.3773  0.2217 -0.4333
 4930TIP3    H136281   0.492   0.107  13.909 -1.8652  1.0918 -2.3459
 4930TIP3    H236282   0.389   0.000  13.879 -0.4470 -1.3878  0.9643
 4931TIP3   OH236283   2.497   2.360   5.191 -0.2235  0.5090  0.3431
 4931TIP3    H136284   2.589   2.369   5.166 -0.5221 -0.2339 -1.1297
 4931TIP3    H236285   2.465   2.450   5.197 -0.1008  0.7946 -2.0428
 4932TIP3   OH236286   4.736   1.005  11.631  0.2521 -0.0173 -0.3333
 4932TIP3    H136287   4.672   0.936  11.647  0.1940  0.4570  1.7157
 4932TIP3    H236288   4.684   1.081  11.606  0.3005 -0.5968 -2.3380
 4933TIP3   OH236289   4.263   1.550  14.365 -0.0565 -0.2542  0.2854
 4933TIP3    H136290   4.189   1.598  14.327 -0.1666 -0.0009  0.8116
 4933TIP3    H236291   4.322   1.535  14.291 -0.2249  0.3179  0.0261
 4934TIP3   OH236292   3.247   3.137  11.330  0.1607  0.3410 -0.2412
 4934TIP3    H136293   3.188   3.200  11.373 -0.0235 -0.9531  1.4893
 4934TIP3    H236294   3.320   3.128  11.391  0.4229 -0.7234 -0.7008
 4935TIP3   OH236295   4.295   2.633  11.696  0.2226 -0.6602 -0.0775
 4935TIP3    H136296   4.343   2.706  11.658  1.1412 -2.0216 -1.7287
 4935TIP3    H236297   4.343   2.555  11.666  0.4369 -1.9291  3.1453
 4936TIP3   OH236298   6.795   1.364   2.722 -0.1205  0.6027  0.1903
 4936TIP3    H136299   6.829   1.301   2.785 -1.4157  0.1831  0.4940
 4936TIP3    H236300   6.709   1.331   2.698  0.9754 -0.1707 -3.1305
 4937TIP3   OH236301   0.982   4.658   5.316  0.0345 -0.4859  0.1085
 4937TIP3    H136302   0.930   4.689   5.242  3.0293 -0.5806 -2.2011
 4937TIP3    H236303   0.918   4.647   5.387 -2.5829  2.2445 -1.5731
 4938TIP3   OH236304   1.929   6.684  13.776 -0.5371 -0.7687 -0.3127
 4938TIP3    H136305   1.977   6.667  13.857  0.8173 -1.1908 -1.1580
 4938TIP3    H236306   1.924   6.779  13.771  3.0718 -0.4791 -1.6843
 4939TIP3   OH236307   5.703   1.828  11.980 -0.8323 -0.1999  0.2655
 4939TIP3    H136308   5.666   1.855  11.896  0.1812 -0.2944 -0.2287
 4939TIP3    H236309   5.702   1.733  11.978  0.4244 -0.2152 -0.2185
 4940TIP3   OH236310   3.317   0.073   2.636 -0.1044 -0.1376  0.1676
 4940TIP3    H136311   3.412   0.074   2.620 -0.0651 -1.1110  0.2608
 4940TIP3    H236312   3.281   0.127   2.566  0.5883  1.1076  0.7355
 4941TIP3   OH236313   2.471   4.540   4.415 -0.2238 -0.4169 -0.4692
 4941TIP3    H136314   2.400   4.598   4.442 -0.0364  0.9230 -2.5438
 4941TIP3    H236315   2.427   4.462   4.381 -0.5105 -1.2238  1.6518
 4942TIP3   OH236316   4.987   2.200   2.677 -0.0182  0.3596  0.2151
 4942TIP3    H136317   5.016   2.230   2.591 -2.2600  1.8572 -0.0936
 4942TIP3    H236318   5.035   2.255   2.739  1.3227 -0.4721 -0.0324
 4943TIP3   OH236319   3.715   1.104  13.496 -0.6058  0.5017  0.3118
 4943TIP3    H136320   3.639   1.129  13.549 -0.9993 -1.6509  0.8489
 4943TIP3    H236321   3.791   1.129  13.550 -0.8414  2.9699 -0.3698
 4944TIP3   OH236322   2.124   5.272   6.200 -0.2018  0.6460 -0.1904
 4944TIP3    H136323   2.093   5.340   6.259 -0.5608  1.0107 -0.7892
 4944TIP3    H236324   2.045   5.225   6.173  0.0970 -0.3676  0.6402
 4945TIP3   OH236325   3.968   3.585  12.367  0.2425  0.0428 -0.1454
 4945TIP3    H136326   4.028   3.564  12.295  0.9999 -1.1021  0.7818
 4945TIP3    H236327   3.999   3.532  12.440 -0.6993  0.9527  0.9468
 4946TIP3   OH236328   0.177   2.547   5.075  0.1556 -0.1228 -0.1036
 4946TIP3    H136329   0.225   2.626   5.050  0.7366 -0.3635  0.2245
 4946TIP3    H236330   0.142   2.514   4.992 -0.4744  0.7120 -0.1876
 4947TIP3   OH236331   2.492   4.070   3.909  0.2274  0.6980 -0.1632
 4947TIP3    H136332   2.583   4.093   3.891 -0.2305  3.4208  0.4390
 4947TIP3    H236333   2.496   3.985   3.952  2.3768  0.2607 -1.1235
 4948TIP3   OH236334   4.510   5.667   3.157 -0.3787 -0.1784 -0.1457
 4948TIP3    H136335   4.560   5.648   3.078 -0.2359  0.5715 -0.2449
 4948TIP3    H236336   4.550   5.612   3.225  0.2641  0.0495 -0.3348
 4949TIP3   OH236337   3.859   0.068  11.683 -0.3107  0.3354 -0.1352
 4949TIP3    H136338   3.826   0.140  11.736 -1.4478  0.2976 -0.7538
 4949TIP3    H236339   3.865   0.104  11.595 -0.6896 -0.2528 -0.4115
 4950TIP3   OH236340   1.871   6.144   0.300  0.3506  0.4645  0.3231
 4950TIP3    H136341   1.936   6.134   0.369 -0.3975  1.4951  1.2169
 4950TIP3    H236342   1.794   6.179   0.344 -1.1443 -1.5399 -0.5328
 4951TIP3   OH236343   4.273   2.890   5.564 -0.3238 -0.0785  0.6166
 4951TIP3    H136344   4.207   2.822   5.574  0.3312 -0.7279  0.5710
 4951TIP3    H236345   4.257   2.928   5.478  1.2257 -2.2757 -0.7253
 4952TIP3   OH236346   0.716   3.843  11.767 -0.4175 -0.0888 -0.8564
 4952TIP3    H136347   0.791   3.881  11.721 -0.9031 -0.0168 -1.6188
 4952TIP3    H236348   0.745   3.756  11.793  0.4754  0.5272  0.3079
 4953TIP3   OH236349   4.387   4.733  17.106  0.4378 -0.3221  0.0758
 4953TIP3    H136350   4.389   4.695  17.194  2.0754 -1.0044 -0.2210
 4953TIP3    H236351   4.435   4.670  17.052 -0.6816  0.0057 -1.3603
 4954TIP3   OH236352   0.265   2.053   2.846  0.1586  0.1296 -0.6029
 4954TIP3    H136353   0.342   1.997   2.857 -0.1955 -0.0024  1.7306
 4954TIP3    H236354   0.254   2.062   2.751  2.0781 -1.1648 -0.9850
 4955TIP3   OH236355   5.602   1.910   3.659 -0.2883 -0.0638 -0.3150
 4955TIP3    H136356   5.643   1.825   3.677 -0.5174 -0.6542 -2.3680
 4955TIP3    H236357   5.524   1.911   3.714  0.9447 -0.1348  1.5119
 4956TIP3   OH236358   3.680   5.051   3.567  0.3380  0.2202 -0.2789
 4956TIP3    H136359   3.744   5.034   3.636 -1.2662  0.3317  1.3354
 4956TIP3    H236360   3.711   5.130   3.523  1.1053  0.4895  0.7064
 4957TIP3   OH236361   1.517   1.751  11.239 -0.1619  0.0966 -0.1510
 4957TIP3    H136362   1.551   1.835  11.269  0.4924  0.4724 -1.8479
 4957TIP3    H236363   1.568   1.686  11.287 -0.1468  0.6443  0.6060
 4958TIP3   OH236364   3.996   1.120  14.236 -0.1124 -0.3944  0.5424
 4958TIP3    H136365   3.997   1.154  14.326  0.0189 -0.5723  0.6108
 4958TIP3    H236366   4.013   1.026  14.247  0.2338 -0.3586  0.3068
 4959TIP3   OH236367   2.793   2.413  15.813 -0.3358 -0.4010  0.1070
 4959TIP3    H136368   2.882   2.433  15.785 -1.2436  2.3470 -1.1916
 4959TIP3    H236369   2.802   2.333  15.865  3.0346  0.3657  0.9820
 4960TIP3   OH236370   3.605   6.734  11.373 -0.1446 -0.1847 -0.3240
 4960TIP3    H136371   3.622   6.704  11.463 -0.5499  0.0697 -0.1594
 4960TIP3    H236372   3.545   6.808  11.384  2.1550  1.8220 -0.5874
 4961TIP3   OH236373   6.769   1.130   5.377 -0.1339 -0.3040 -0.1784
 4961TIP3    H136374   6.685   1.144   5.421  1.2395 -0.0375  2.5787
 4961TIP3    H236375   6.799   1.046   5.411  1.0767 -0.0151 -0.5104
 4962TIP3   OH236376   1.212   2.884   4.408 -0.5519 -0.2147  0.5169
 4962TIP3    H136377   1.267   2.956   4.377 -0.2063 -1.5811 -2.4422
 4962TIP3    H236378   1.179   2.914   4.492  1.5657  2.3153  0.5985
 4963TIP3   OH236379   5.056   0.778   3.468 -0.0193  0.8064  0.3666
 4963TIP3    H136380   5.138   0.752   3.510 -0.3598 -0.4313  0.3182
 4963TIP3    H236381   4.988   0.747   3.527 -0.4681  0.5395 -0.2743
 4964TIP3   OH236382   6.050   4.567  13.103 -0.1796 -0.4419  0.4000
 4964TIP3    H136383   5.968   4.596  13.143 -0.2288  1.4112 -0.9095
 4964TIP3    H236384   6.105   4.542  13.177 -1.2051  0.2789  1.4455
 4965TIP3   OH236385   2.484   0.247  16.892 -0.0743  0.3411  0.1447
 4965TIP3    H136386   2.419   0.249  16.962 -1.0683  0.9156 -0.7716
 4965TIP3    H236387   2.433   0.237  16.812  1.1049 -1.6477 -0.4315
 4966TIP3   OH236388   4.282   5.309   0.246  0.0676  0.4546  0.0064
 4966TIP3    H136389   4.205   5.312   0.303  0.5913 -1.9994  0.9616
 4966TIP3    H236390   4.248   5.275   0.163  0.3249 -2.8139  1.0887
 4967TIP3   OH236391   4.477   2.074  12.375  0.2543  0.6901  0.0492
 4967TIP3    H136392   4.427   2.074  12.456  0.3275 -3.7245  0.3696
 4967TIP3    H236393   4.565   2.048  12.400  0.4630 -0.0532 -1.3300
 4968TIP3   OH236394   4.580   1.207  11.534  0.4109 -0.1703  0.4234
 4968TIP3    H136395   4.590   1.244  11.446  0.1313 -0.0533  0.4385
 4968TIP3    H236396   4.501   1.154  11.529  1.2933 -1.5164  0.1580
 4969TIP3   OH236397   2.594   6.607   0.756  0.0151  0.0530 -0.3322
 4969TIP3    H136398   2.617   6.545   0.825  0.5154  0.2963 -0.2700
 4969TIP3    H236399   2.665   6.598   0.692 -0.2809  0.0539 -0.6602
 4970TIP3   OH236400   5.598   1.069   5.919 -0.1541 -0.3932 -0.2112
 4970TIP3    H136401   5.575   0.999   5.979  1.7225  0.0881  1.1722
 4970TIP3    H236402   5.578   1.150   5.967  0.7077 -0.0058 -0.4672
 4971TIP3   OH236403   2.201   4.738   3.604  0.3313 -0.0292  0.4918
 4971TIP3    H136404   2.252   4.729   3.523  0.0676 -1.0545  0.4250
 4971TIP3    H236405   2.188   4.648   3.634 -2.1663  0.1065  0.0444
 4972TIP3   OH236406   3.832   3.834  11.740  0.4588  0.0200  0.2381
 4972TIP3    H136407   3.912   3.847  11.689 -0.3387 -0.9500 -1.3484
 4972TIP3    H236408   3.857   3.771  11.808  0.8480 -0.9882 -0.8063
 4973TIP3   OH236409   2.939   1.386   3.250  0.0644 -0.3874 -0.6322
 4973TIP3    H136410   3.007   1.430   3.301 -1.8651  2.4453 -0.2601
 4973TIP3    H236411   2.966   1.295   3.247  3.2557  0.4017  0.4435
 4974TIP3   OH236412   3.399   3.877   2.532 -0.0967  0.0356  0.2257
 4974TIP3    H136413   3.419   3.837   2.448  1.7315  0.1099  0.5950
 4974TIP3    H236414   3.411   3.807   2.596  2.2173  0.8567  0.7774
 4975TIP3   OH236415   5.932   3.052  14.279  0.4268  0.9537  0.3053
 4975TIP3    H136416   5.929   2.958  14.261 -1.7477  0.8095  1.1475
 4975TIP3    H236417   5.989   3.059  14.356  0.3007  0.2821  0.4657
 4976TIP3   OH236418   5.957   3.149   3.076 -0.2093  0.3223 -0.1386
 4976TIP3    H136419   5.872   3.185   3.050 -0.2153 -0.2363 -0.9040
 4976TIP3    H236420   5.941   3.108   3.161  0.0439  3.0943  1.3836
 4977TIP3   OH236421   6.237   3.385  11.705 -0.7223  0.2014 -0.2240
 4977TIP3    H136422   6.253   3.479  11.717  0.1653  0.1412 -0.8265
 4977TIP3    H236423   6.142   3.377  11.705 -0.8259  1.2088 -0.8450
 4978TIP3   OH236424   3.837   2.391  12.412 -0.1606 -0.2951  0.4141
 4978TIP3    H136425   3.822   2.483  12.394  1.5526  0.0222  0.4779
 4978TIP3    H236426   3.913   2.390  12.470  0.0711 -1.7689  0.1171
 4979TIP3   OH236427   0.224   3.923  16.104 -0.9124 -0.1153 -0.4857
 4979TIP3    H136428   0.258   4.011  16.121 -0.0597 -0.7068  1.1094
 4979TIP3    H236429   0.297   3.865  16.125 -1.5164 -1.2329 -1.3416
 4980TIP3   OH236430   1.654   5.009  11.651 -0.3998  0.0270 -0.0952
 4980TIP3    H136431   1.608   4.931  11.684 -1.8227  2.2636  3.8754
 4980TIP3    H236432   1.746   4.994  11.675 -0.7745 -0.1848  1.2983
 4981TIP3   OH236433   2.964   0.907  13.463  0.0083  0.1368 -0.9936
 4981TIP3    H136434   2.929   0.869  13.382  0.1563  0.0765 -1.0306
 4981TIP3    H236435   2.901   0.975  13.488 -0.3568 -0.2586 -0.8269
 4982TIP3   OH236436   5.033   4.136  10.699 -0.0390  0.2227  0.1606
 4982TIP3    H136437   4.976   4.202  10.659  0.8292 -0.3215 -2.0915
 4982TIP3    H236438   4.973   4.078  10.747 -1.3747 -0.0661 -1.7650
 4983TIP3   OH236439   0.397   4.687  11.344 -0.0187  0.4478 -0.0937
 4983TIP3    H136440   0.427   4.677  11.254  0.1127  2.6902 -0.3615
 4983TIP3    H236441   0.426   4.775  11.370 -1.2834  0.4196  1.6530
 4984TIP3   OH236442   5.053   0.139   0.264 -0.0259 -0.0988  0.1484
 4984TIP3    H136443   5.143   0.168   0.277 -0.2507  0.9498 -0.5189
 4984TIP3    H236444   5.049   0.117   0.171 -0.0138 -1.8063  0.5164
 4985TIP3   OH236445   4.685   0.054   0.897  0.6200 -0.3025  0.1531
 4985TIP3    H136446   4.771   0.048   0.857  0.8710 -0.3402  0.6923
 4985TIP3    H236447   4.624   0.046   0.824  1.0686 -0.5593 -0.1967
 4986TIP3   OH236448   0.050   1.371  11.376 -0.7476 -0.1545  0.5262
 4986TIP3    H136449  -0.007   1.421  11.435 -0.5544 -0.8597  1.3206
 4986TIP3    H236450   0.135   1.372  11.420  0.2097  1.8785 -1.1838
 4987TIP3   OH236451   2.754   1.368  13.631 -0.3473  0.7257 -0.2043
 4987TIP3    H136452   2.797   1.402  13.710  0.9039  1.6447 -1.2427
 4987TIP3    H236453   2.713   1.445  13.591 -1.6843  0.1241 -0.0565
 4988TIP3   OH236454   1.711   2.701   6.767 -0.0545  0.3396  0.1666
 4988TIP3    H136455   1.745   2.676   6.853 -0.6999  0.8182  0.5702
 4988TIP3    H236456   1.733   2.627   6.710 -0.9614 -0.6852  1.0846
 4989TIP3   OH236457   1.655   0.733   4.337 -0.3518 -0.5413 -0.4662
 4989TIP3    H136458   1.682   0.746   4.246 -0.1624  1.5542 -0.1745
 4989TIP3    H236459   1.724   0.680   4.376  0.6423  0.2695 -1.0746
 4990TIP3   OH236460   3.824   6.759   0.172 -0.2650  0.2652  0.4387
 4990TIP3    H136461   3.830   6.855   0.179 -2.5538  0.5379 -0.5011
 4990TIP3    H236462   3.860   6.727   0.255 -0.0864  1.9704  1.0663
 4991TIP3   OH236463   6.068   0.885   0.164 -0.2130  0.6659  0.4445
 4991TIP3    H136464   5.981   0.866   0.129 -0.0795  0.6163  0.1350
 4991TIP3    H236465   6.128   0.856   0.095  0.0834 -0.1564  1.0424
 4992TIP3   OH236466   5.292   2.232  15.818 -0.2445 -0.2691  0.2978
 4992TIP3    H136467   5.331   2.274  15.895  0.0280  2.5409 -1.2169
 4992TIP3    H236468   5.198   2.248  15.827 -0.4494 -1.7411  0.9987
 4993TIP3   OH236469   5.473   1.672  12.797  0.4927 -0.1908 -0.1222
 4993TIP3    H136470   5.553   1.656  12.848 -0.5854  1.6136  2.3275
 4993TIP3    H236471   5.501   1.733  12.729  1.6878 -1.6100 -0.9856
 4994TIP3   OH236472   5.333   0.296  14.393  0.0090  0.3031 -0.2440
 4994TIP3    H136473   5.383   0.339  14.323 -0.3737  0.9684 -0.1189
 4994TIP3    H236474   5.368   0.334  14.474  0.0054  0.0121 -0.1068
 4995TIP3   OH236475   0.854   4.117   0.749 -0.1671 -0.1708 -0.0002
 4995TIP3    H136476   0.945   4.095   0.725 -0.4827 -1.5536 -0.0355
 4995TIP3    H236477   0.828   4.047   0.809 -0.5240  1.3883  1.7483
 4996TIP3   OH236478   1.314   2.485  13.948 -0.1630  0.5814  0.3890
 4996TIP3    H136479   1.274   2.550  14.006 -0.9882  0.4948 -0.0837
 4996TIP3    H236480   1.326   2.531  13.865 -0.2909  0.2729  0.2006
 4997TIP3   OH236481   2.894   1.536  12.462  0.2005 -0.1868 -0.0083
 4997TIP3    H136482   2.981   1.537  12.501 -0.2805 -0.5870  1.0959
 4997TIP3    H236483   2.902   1.475  12.389  0.7125 -0.6364  0.4099
 4998TIP3   OH236484   2.627   1.688   2.812  0.2186  0.4451 -0.4977
 4998TIP3    H136485   2.545   1.639   2.811  0.8579 -0.6617 -1.6668
 4998TIP3    H236486   2.610   1.763   2.870 -1.2137 -0.4172  0.2450
 4999TIP3   OH236487   1.953   2.741   4.449 -0.0669  0.7696  0.3679
 4999TIP3    H136488   1.996   2.656   4.451  0.1931  0.8149 -1.4935
 4999TIP3    H236489   1.860   2.722   4.462 -0.5667 -0.3085 -3.5763
 5000TIP3   OH236490   1.640   1.547  11.575 -0.5306 -0.0082 -1.6609
 5000TIP3    H136491   1.575   1.491  11.618 -2.0959  2.1240 -1.0904
 5000TIP3    H236492   1.723   1.502  11.589 -1.3429 -0.8069  1.1843
 5001TIP3   OH236493   0.474   3.290   4.519 -0.1237  0.5816 -0.5219
 5001TIP3    H136494   0.498   3.333   4.437 -1.1979  2.9985  0.3311
 5001TIP3    H236495   0.433   3.359   4.571  0.8882 -0.7331  2.2464
 5002TIP3   OH236496   5.968   3.739  15.477 -0.4662  1.0060 -0.5307
 5002TIP3    H136497   5.953   3.799  15.550  0.4269 -0.2658  0.7482
 5002TIP3    H236498   5.887   3.688  15.472 -0.1798  0.4602  0.2156
 5003TIP3   OH236499   1.800   1.441  12.690 -0.2229  0.0953 -0.5737
 5003TIP3    H136500   1.818   1.456  12.783 -2.1010  0.3530 -0.2149
 5003TIP3    H236501   1.871   1.385  12.661  1.2341  1.2287  0.6408
 5004TIP3   OH236502   4.381   0.751   2.339 -0.4707 -0.0150 -1.0364
 5004TIP3    H136503   4.326   0.822   2.308 -0.5220 -0.2106 -1.4050
 5004TIP3    H236504   4.327   0.704   2.403  0.0052  1.0091  0.1573
 5005TIP3   OH236505   3.997   5.632  11.392 -0.3969 -0.0662  0.8845
 5005TIP3    H136506   4.090   5.624  11.413 -0.3950 -2.2543  0.2418
 5005TIP3    H236507   3.995   5.655  11.299 -0.5080  0.0251  0.9085
 5006TIP3   OH236508   2.997   3.082   2.456 -0.2070  0.0171  0.0369
 5006TIP3    H136509   2.932   3.019   2.424  0.2200 -0.7780  0.7169
 5006TIP3    H236510   2.976   3.163   2.409 -0.9133 -0.5583 -0.6692
 5007TIP3   OH236511   2.091   2.862   5.737  0.3907  0.5918  0.0573
 5007TIP3    H136512   2.170   2.810   5.726  0.1388  0.4275 -1.0843
 5007TIP3    H236513   2.119   2.953   5.729  0.3132  0.4972 -1.4060
 5008TIP3   OH236514   1.981   1.953  11.172 -0.3347  0.2746  0.4177
 5008TIP3    H136515   1.945   1.866  11.191 -1.1621  0.2336 -1.1837
 5008TIP3    H236516   2.072   1.936  11.148 -0.0135  0.0566  1.7251
 5009TIP3   OH236517   3.652   3.764   1.109 -0.4069 -0.4043 -0.2647
 5009TIP3    H136518   3.645   3.677   1.148  1.7259  0.0579  1.3028
 5009TIP3    H236519   3.746   3.778   1.098 -0.4999  2.6101  1.7532
 5010TIP3   OH236520   6.051   2.562   4.405  0.3054 -0.0183  0.4041
 5010TIP3    H136521   6.134   2.597   4.374  0.3460 -0.6002 -0.1467
 5010TIP3    H236522   6.076   2.491   4.465  0.2233  0.8569  1.5131
 5011TIP3   OH236523   0.241   2.200   3.201  0.0263  0.4945  0.1465
 5011TIP3    H136524   0.252   2.109   3.230  0.7197  1.0379  1.7349
 5011TIP3    H236525   0.327   2.240   3.216 -0.6410  1.7412  0.7628
 5012TIP3   OH236526   6.728   5.689   5.615 -0.5194 -0.1225 -0.1052
 5012TIP3    H136527   6.789   5.742   5.666 -0.7203  0.5600 -0.5559
 5012TIP3    H236528   6.670   5.753   5.574 -2.2662 -0.7835  1.2020
 5013TIP3   OH236529   6.762   2.453   2.142 -0.3301  0.5863  0.6919
 5013TIP3    H136530   6.679   2.497   2.161 -0.6514  0.7532 -0.9885
 5013TIP3    H236531   6.794   2.496   2.063  0.0963 -1.1859 -0.1377
 5014TIP3   OH236532   0.078   5.735   4.455  0.6761 -0.6979  0.6598
 5014TIP3    H136533   0.001   5.784   4.424  1.1049 -0.5083 -0.1325
 5014TIP3    H236534   0.144   5.803   4.470  1.5540 -1.0466 -1.2489
 5015TIP3   OH236535   5.664   5.307   2.453  0.4584 -0.1034  0.8134
 5015TIP3    H136536   5.596   5.273   2.394 -0.0444  2.0758  0.0480
 5015TIP3    H236537   5.740   5.251   2.436  0.3374  0.4085 -1.9689
 5016TIP3   OH236538   4.216   3.874   1.080 -0.2698  0.1792 -0.1805
 5016TIP3    H136539   4.183   3.898   0.994  1.6491  1.3709 -0.6566
 5016TIP3    H236540   4.173   3.791   1.101  0.1366 -0.7941 -2.8346
 5017TIP3   OH236541   6.795   2.077   5.816  0.0497  0.4704 -0.0132
 5017TIP3    H136542   6.807   2.026   5.896  1.4562  1.5168  0.4854
 5017TIP3    H236543   6.743   2.020   5.759 -0.3317 -0.5948  1.3452
 5018TIP3   OH236544   1.997   1.176  13.793 -0.0196  0.2209 -0.2213
 5018TIP3    H136545   1.955   1.097  13.827 -1.6804  1.2856  0.3243
 5018TIP3    H236546   2.083   1.177  13.835  0.5497 -1.9014 -1.1833
 5019TIP3   OH236547   0.635   5.792   0.288 -0.2630 -0.0000 -0.0909
 5019TIP3    H136548   0.684   5.752   0.360 -1.3463 -1.4122 -0.0779
 5019TIP3    H236549   0.610   5.718   0.233 -2.2867  0.6296 -0.1171
 5020TIP3   OH236550   0.101   3.429  15.158 -0.4613 -0.0858  0.2949
 5020TIP3    H136551   0.077   3.437  15.066  0.3989  0.5311  0.1164
 5020TIP3    H236552   0.131   3.517  15.183 -1.9468  0.1249  1.5380
 5021TIP3   OH236553   0.889   4.399  14.799 -0.4195  0.5592 -0.5258
 5021TIP3    H136554   0.938   4.317  14.801  1.4782  1.6393  1.4563
 5021TIP3    H236555   0.919   4.443  14.719  0.8069  0.5512 -0.0923
 5022TIP3   OH236556   1.515   2.021   3.450 -0.2021 -0.1232 -0.1788
 5022TIP3    H136557   1.608   2.009   3.471  0.6744  1.3866 -2.7850
 5022TIP3    H236558   1.500   1.967   3.373 -1.6692 -0.7350  0.4963
 5023TIP3   OH236559   2.924   3.754  14.555  0.6349  0.1018  0.1992
 5023TIP3    H136560   2.926   3.711  14.470  0.0745  1.4348 -0.5345
 5023TIP3    H236561   2.917   3.683  14.619  1.0218 -0.9191 -0.8661
 5024TIP3   OH236562   4.932   5.464   4.797  0.0811  0.1035 -0.2059
 5024TIP3    H136563   4.875   5.396   4.761 -0.2704 -0.0724  0.6329
 5024TIP3    H236564   4.980   5.419   4.867  0.9934  0.3426 -0.6788
 5025TIP3   OH236565   5.435   1.932  15.923 -0.2433  0.3998  0.4903
 5025TIP3    H136566   5.499   1.959  15.857  1.4343  1.3808  2.3981
 5025TIP3    H236567   5.450   1.991  15.997 -1.7107 -0.9342  1.9401
 5026TIP3   OH236568   6.613   0.180  13.386 -0.2875  0.0536 -0.2935
 5026TIP3    H136569   6.613   0.125  13.308 -1.3500 -0.0787 -0.2192
 5026TIP3    H236570   6.606   0.270  13.352 -1.3322 -0.0380 -0.3495
 5027TIP3   OH236571   5.798   5.285  13.081 -0.5729  0.2512 -0.1306
 5027TIP3    H136572   5.807   5.363  13.027  0.1767 -0.0018 -0.3901
 5027TIP3    H236573   5.714   5.247  13.055 -0.8642  0.8816 -0.1139
 5028TIP3   OH236574   0.089   4.013  14.494  1.0397 -0.6007 -0.3588
 5028TIP3    H136575   0.011   4.011  14.437  0.6938  1.5166 -0.0488
 5028TIP3    H236576   0.144   3.942  14.461 -0.0615 -0.7641 -2.0089
 5029TIP3   OH236577   4.702   1.641   5.549  0.2911 -0.3462 -0.1197
 5029TIP3    H136578   4.788   1.679   5.528  0.7945 -0.8170  1.0165
 5029TIP3    H236579   4.649   1.715   5.577  1.2580 -0.3949  2.0607
 5030TIP3   OH236580   5.218   4.863   0.640 -0.1569  0.2591 -0.6387
 5030TIP3    H136581   5.195   4.824   0.556  0.6270  0.5258 -0.9872
 5030TIP3    H236582   5.174   4.947   0.641 -2.3289 -0.8135  0.3583
 5031TIP3   OH236583   0.057   4.046   0.192  0.6725 -0.4436  0.5007
 5031TIP3    H136584   0.149   4.027   0.172  0.0273 -1.9479 -1.2479
 5031TIP3    H236585   0.031   3.978   0.254 -0.0431 -1.9220 -1.3340
 5032TIP3   OH236586   5.852   2.729   2.105  0.1522 -0.1896  0.1281
 5032TIP3    H136587   5.916   2.729   2.034  0.7746 -1.1828  0.6633
 5032TIP3    H236588   5.800   2.650   2.090 -1.0560  0.6666 -0.3724
 5033TIP3   OH236589   3.609   0.307  16.283  0.2420 -0.0111  0.2080
 5033TIP3    H136590   3.638   0.376  16.223  1.4722 -0.0448  0.7178
 5033TIP3    H236591   3.643   0.226  16.245  1.6756  0.0429  1.2708
 5034TIP3   OH236592   2.977   5.387  14.514  0.6064  0.3147 -0.6610
 5034TIP3    H136593   3.033   5.411  14.588  0.9728  1.5145 -1.2829
 5034TIP3    H236594   2.900   5.443  14.523  0.1627 -0.3025 -0.5980
 5035TIP3   OH236595   2.665   3.902  10.313 -0.0838  0.2060  0.4605
 5035TIP3    H136596   2.662   3.930  10.222 -2.7817 -2.2003 -0.3529
 5035TIP3    H236597   2.606   3.961  10.359 -0.4905  0.0502  0.1476
 5036TIP3   OH236598   3.171   5.978   5.610  0.1984 -0.0639 -0.1534
 5036TIP3    H136599   3.222   5.900   5.633  0.9348  0.6831  0.8164
 5036TIP3    H236600   3.224   6.051   5.640  0.1822  0.9115 -2.3119
 5037TIP3   OH236601   4.024   4.093   3.786  0.2891  0.3601  0.0288
 5037TIP3    H136602   4.035   4.187   3.771  0.8502  0.4560  0.9698
 5037TIP3    H236603   3.987   4.087   3.874  0.8377 -0.3168  0.2161
 5038TIP3   OH236604   4.372   4.617   0.267 -0.1131 -0.0900  0.0381
 5038TIP3    H136605   4.369   4.526   0.298 -0.3164 -0.3099 -0.6037
 5038TIP3    H236606   4.283   4.650   0.283 -0.0286  0.0095  0.3064
 5039TIP3   OH236607   5.613   4.478  10.502  0.2042 -0.5125  0.1699
 5039TIP3    H136608   5.656   4.393  10.516 -1.5041 -1.2784  0.9901
 5039TIP3    H236609   5.579   4.473  10.412 -1.3517 -1.4083  0.7750
 5040TIP3   OH236610   1.274   2.810   5.010  0.2001 -0.0470 -0.3456
 5040TIP3    H136611   1.357   2.807   4.962 -0.0830  0.2448 -0.8549
 5040TIP3    H236612   1.248   2.902   5.007  1.7718  0.6898  3.1150
 5041TIP3   OH236613   1.228   6.312  12.051  0.6726  0.1180 -0.2510
 5041TIP3    H136614   1.269   6.227  12.062  0.5720  0.0743 -0.2165
 5041TIP3    H236615   1.142   6.304  12.093  0.1189 -0.1803 -1.3839
 5042TIP3   OH236616   1.525   1.892  16.391 -0.2319  0.6526 -0.0455
 5042TIP3    H136617   1.441   1.924  16.424 -0.6942  0.6697 -1.1895
 5042TIP3    H236618   1.572   1.972  16.365  0.2745  0.6662  0.8712
 5043TIP3   OH236619   0.874   0.340   5.085 -0.6066 -0.3006 -0.3283
 5043TIP3    H136620   0.905   0.426   5.115  2.9972 -1.8652  1.0243
 5043TIP3    H236621   0.845   0.354   4.995  0.4701  2.2126 -0.3483
 5044TIP3   OH236622   6.377   1.121   0.477 -0.2499  0.9152 -0.1032
 5044TIP3    H136623   6.465   1.110   0.442 -0.1354  0.1084  0.4088
 5044TIP3    H236624   6.360   1.215   0.470 -0.3875  0.7559 -2.6103
 5045TIP3   OH236625   1.927   6.008   0.054 -0.3645 -0.1849  0.6664
 5045TIP3    H136626   1.872   6.059  -0.005 -0.3557 -0.8857  0.0372
 5045TIP3    H236627   1.915   6.050   0.139 -1.7401 -0.2129  0.5186
 5046TIP3   OH236628   3.731   0.132   5.834 -0.0748 -0.7073 -0.1347
 5046TIP3    H136629   3.794   0.145   5.905 -1.2900  4.0003  0.3893
 5046TIP3    H236630   3.657   0.087   5.875  0.1577 -0.0655  1.0423
 5047TIP3   OH236631   1.709   6.455  10.800 -0.1749  0.3566 -0.1269
 5047TIP3    H136632   1.677   6.365  10.810 -1.4228  0.9118  1.3755
 5047TIP3    H236633   1.630   6.509  10.807  0.6813  1.6299  0.1119
 5048TIP3   OH236634   0.192   6.524   2.711 -0.1495  0.4517 -0.0041
 5048TIP3    H136635   0.174   6.604   2.761 -1.1827  0.8812 -1.0259
 5048TIP3    H236636   0.109   6.476   2.713 -0.4714  0.8644 -1.9613
 5049TIP3   OH236637   3.393   5.766   2.437  0.0682 -0.5282  0.3703
 5049TIP3    H136638   3.372   5.795   2.526  0.5177 -1.5326  0.8232
 5049TIP3    H236639   3.475   5.717   2.447 -0.1832 -1.1512 -0.5051
 5050TIP3   OH236640   0.094   2.551  14.410 -0.0726  0.5217  0.5875
 5050TIP3    H136641   0.119   2.482  14.471  1.7220 -0.1583 -0.8375
 5050TIP3    H236642   0.136   2.526  14.327 -2.3059  1.4638 -0.9192
 5051TIP3   OH236643   2.182   1.487   0.869 -0.0977  0.6176 -0.2562
 5051TIP3    H136644   2.270   1.509   0.899  0.9990 -1.0738 -1.9997
 5051TIP3    H236645   2.126   1.504   0.945  1.7596  1.4211  1.0120
 5052TIP3   OH236646   4.307   1.924   5.391 -0.2332  0.6111 -0.3390
 5052TIP3    H136647   4.290   2.003   5.443  0.1685  0.3282  0.2263
 5052TIP3    H236648   4.274   1.853   5.446  1.9551  0.1147  0.4200
 5053TIP3   OH236649   2.685   0.091  12.329  0.3633  0.4070 -0.3676
 5053TIP3    H136650   2.637   0.009  12.316  0.3921  0.7352 -3.1060
 5053TIP3    H236651   2.640   0.154  12.272  1.6666  1.7512  0.0340
 5054TIP3   OH236652   6.044   4.671   2.249  0.0579  0.2340  0.3580
 5054TIP3    H136653   6.045   4.702   2.158  0.3667 -0.0552  0.2607
 5054TIP3    H236654   6.071   4.747   2.300  0.1148  0.3314  0.1862
 5055TIP3   OH236655   3.328   3.327  15.878 -0.7583 -0.3977 -0.0316
 5055TIP3    H136656   3.420   3.312  15.855 -0.5308 -0.4106  0.8556
 5055TIP3    H236657   3.319   3.423  15.880 -1.1041 -0.3874 -1.4001
 5056TIP3   OH236658   2.521   2.589  14.240  0.2292  0.2682 -0.1833
 5056TIP3    H136659   2.471   2.532  14.181 -0.5703  0.6583  0.1044
 5056TIP3    H236660   2.483   2.676  14.226 -2.2498 -0.0665  3.1934
 5057TIP3   OH236661   6.106   4.899   6.384  0.3908  0.3791 -0.2416
 5057TIP3    H136662   6.062   4.924   6.465  1.6041  0.6810  0.3590
 5057TIP3    H236663   6.197   4.929   6.396  1.9421 -3.9099  0.4035
 5058TIP3   OH236664   6.441   5.469   4.380  0.1167  0.0709 -0.7860
 5058TIP3    H136665   6.513   5.445   4.322 -0.2232 -1.5643 -0.5758
 5058TIP3    H236666   6.396   5.540   4.334  1.0734  0.2123 -1.5300
 5059TIP3   OH236667   6.727   5.068   4.318  0.3350 -0.5193  0.0836
 5059TIP3    H136668   6.707   4.990   4.369 -0.0039  0.4501  1.5161
 5059TIP3    H236669   6.820   5.083   4.334 -0.0518  0.5399  1.6005
 5060TIP3   OH236670   4.173   5.254  14.805 -0.5215 -0.0735  0.6779
 5060TIP3    H136671   4.107   5.287  14.744 -0.3216 -1.1115 -0.1222
 5060TIP3    H236672   4.155   5.160  14.811  1.5075 -0.5762 -0.3578
 5061TIP3   OH236673   6.427   1.875  13.616 -0.1892  0.6595 -0.4223
 5061TIP3    H136674   6.470   1.798  13.580 -0.6227 -0.0203  0.4932
 5061TIP3    H236675   6.498   1.926  13.656 -0.0441  0.2278 -0.1300
 5062TIP3   OH236676   6.424   5.325  15.881 -0.4012  0.2628  0.3029
 5062TIP3    H136677   6.480   5.268  15.828 -1.3142 -0.8992  0.5353
 5062TIP3    H236678   6.359   5.359  15.819  1.3304  2.7405 -0.2615
 5063TIP3   OH236679   6.166   4.007  13.475 -0.1596  0.1962  0.2443
 5063TIP3    H136680   6.147   3.972  13.388  0.2995  1.8684 -0.5717
 5063TIP3    H236681   6.180   4.101  13.460  1.4348  0.2675  1.8834
 5064TIP3   OH236682   6.641   5.774   3.268  0.3978  0.4062  0.4118
 5064TIP3    H136683   6.563   5.733   3.229  0.6730  0.9903 -0.7699
 5064TIP3    H236684   6.690   5.700   3.304  0.8878 -0.3565 -1.6975
 5065TIP3   OH236685   4.114   0.933  13.296  0.2623  0.5820 -0.0870
 5065TIP3    H136686   4.028   0.952  13.258  0.4307  2.8306  0.5208
 5065TIP3    H236687   4.143   0.854  13.251 -1.3513  0.7869 -1.5917
 5066TIP3   OH236688   2.801   6.383  11.239  0.4422  0.2719 -0.4714
 5066TIP3    H136689   2.884   6.342  11.215  0.8861  1.6892 -1.4799
 5066TIP3    H236690   2.826   6.458  11.293 -0.3017 -0.2168  0.5994
 5067TIP3   OH236691   5.258   6.085   5.843 -0.1984 -0.0400  0.1790
 5067TIP3    H136692   5.291   6.163   5.889 -2.7217  0.7631  0.7576
 5067TIP3    H236693   5.185   6.055   5.897 -1.2389 -0.9704 -1.6879
 5068TIP3   OH236694   2.034   2.137   3.241 -0.3036 -0.2600  0.2616
 5068TIP3    H136695   2.089   2.205   3.201  0.2213 -0.0740  1.2455
 5068TIP3    H236696   1.962   2.186   3.282 -1.1740 -0.4944 -0.9310
 5069TIP3   OH236697   3.958   0.668   3.210 -0.2538 -0.3350 -0.2633
 5069TIP3    H136698   3.976   0.630   3.296 -1.1606 -0.9861 -0.3329
 5069TIP3    H236699   3.868   0.702   3.218 -0.0757  0.2551 -0.7353
 5070TIP3   OH236700   1.771   5.786  14.535  0.7297 -0.2177 -0.0708
 5070TIP3    H136701   1.864   5.807  14.522  0.7277 -0.8624 -1.2873
 5070TIP3    H236702   1.744   5.746  14.453 -0.8384  0.6425 -0.0129
 5071TIP3   OH236703   5.167   3.849   5.178 -0.3101 -0.3505 -0.5506
 5071TIP3    H136704   5.136   3.826   5.090  1.2037 -0.1019 -1.1918
 5071TIP3    H236705   5.228   3.778   5.200 -2.4452 -1.7320  1.3756
 5072TIP3   OH236706   1.027   2.504   5.395  0.3347  0.3995  0.3401
 5072TIP3    H136707   1.109   2.477   5.354 -1.1002 -1.8397 -1.2406
 5072TIP3    H236708   0.995   2.574   5.339  0.5576  0.4389  0.2581
 5073TIP3   OH236709   0.351   3.077  15.630 -0.0310  0.2262 -0.5854
 5073TIP3    H136710   0.362   3.076  15.725 -1.0639 -3.3021 -0.3834
 5073TIP3    H236711   0.296   3.154  15.614 -0.5368  0.4354  1.7595
 5074TIP3   OH236712   4.166   3.741  12.613 -0.4819 -0.4760 -0.3367
 5074TIP3    H136713   4.254   3.767  12.586 -0.8464  1.2954  0.0703
 5074TIP3    H236714   4.178   3.657  12.657  1.0237 -0.2354 -0.2457
 5075TIP3   OH236715   2.886   5.450  11.836  0.5822 -0.6122  0.0397
 5075TIP3    H136716   2.961   5.424  11.783  0.2050  0.3850 -1.0247
 5075TIP3    H236717   2.875   5.543  11.818 -1.6231 -0.9596 -0.7854
 5076TIP3   OH236718   3.423   4.834   5.768 -0.2949  0.2254 -0.0229
 5076TIP3    H136719   3.484   4.906   5.782 -1.1255  0.9375  0.0146
 5076TIP3    H236720   3.354   4.848   5.834 -0.2276 -0.8702  0.2964
 5077TIP3   OH236721   1.651   5.710   5.206 -1.0645  0.3628 -0.4300
 5077TIP3    H136722   1.733   5.759   5.200 -0.5511 -0.4662 -0.4331
 5077TIP3    H236723   1.599   5.739   5.131  0.5072 -1.3698 -2.3079
 5078TIP3   OH236724   0.955   1.006  15.551  0.5250  0.0056 -0.4791
 5078TIP3    H136725   0.871   0.961  15.565  0.0362  0.6621 -1.1785
 5078TIP3    H236726   1.014   0.937  15.520  0.2782 -0.4912  0.1452
 5079TIP3   OH236727   1.268   5.734   1.798  0.5215  0.0447  0.2596
 5079TIP3    H136728   1.339   5.798   1.794  0.3904  0.3778  2.2322
 5079TIP3    H236729   1.193   5.782   1.831  0.1143 -0.8735  0.7265
 5080TIP3   OH236730   1.087   1.546   4.588  0.3700 -0.2261 -0.0232
 5080TIP3    H136731   1.050   1.625   4.549 -1.4223 -0.3267  1.3398
 5080TIP3    H236732   1.011   1.497   4.620  1.5219 -1.8604  0.3624
 5081TIP3   OH236733   5.467   2.659   5.676 -0.4717  0.8731  0.2135
 5081TIP3    H136734   5.474   2.704   5.593 -0.5198  0.6268  0.0751
 5081TIP3    H236735   5.490   2.725   5.742 -1.4295  1.3570  0.0779
 5082TIP3   OH236736   2.397   4.418  15.736 -0.1790 -0.1275  0.8651
 5082TIP3    H136737   2.460   4.477  15.693 -0.0446 -1.3951 -0.7833
 5082TIP3    H236738   2.312   4.454  15.712 -0.1140 -0.9997 -0.8318
 5083TIP3   OH236739   6.078   0.658   5.368 -0.0487  0.0350 -0.1700
 5083TIP3    H136740   6.065   0.752   5.355 -0.3206  0.0031 -0.1337
 5083TIP3    H236741   5.996   0.627   5.406 -0.7209 -0.5539 -1.9608
 5084TIP3   OH236742   1.054   2.506   4.999 -0.4048 -0.5107  0.1529
 5084TIP3    H136743   1.036   2.536   4.910  1.2492  0.0569 -0.0157
 5084TIP3    H236744   1.006   2.567   5.055 -0.4700 -0.1260 -0.3153
 5085TIP3   OH236745   1.182   6.071  16.111  0.3320 -0.4173 -0.1637
 5085TIP3    H136746   1.218   5.995  16.066 -2.0982 -1.8733  0.1475
 5085TIP3    H236747   1.093   6.080  16.077 -0.4405  0.4875  1.8806
 5086TIP3   OH236748   4.182   2.369  13.177  0.0394  0.8524 -0.4595
 5086TIP3    H136749   4.091   2.341  13.180 -0.8840  3.5226 -0.2470
 5086TIP3    H236750   4.185   2.446  13.235  2.0250  1.8369 -1.7431
 5087TIP3   OH236751   3.689   5.402  11.410  0.2873  0.2658 -0.1117
 5087TIP3    H136752   3.594   5.409  11.405  0.3092  1.7378  0.8251
 5087TIP3    H236753   3.716   5.481  11.456  1.9267 -0.3816  0.1034
 5088TIP3   OH236754   0.177   3.585   5.345 -0.6410  0.2651 -0.0484
 5088TIP3    H136755   0.248   3.613   5.288 -1.2671  0.6257 -0.6668
 5088TIP3    H236756   0.217   3.577   5.431  0.4217 -0.7232 -0.6101
 5089TIP3   OH236757   5.467   5.678  14.927 -0.2736  0.2040 -0.5491
 5089TIP3    H136758   5.517   5.694  14.847 -0.2628  1.5473 -0.2989
 5089TIP3    H236759   5.402   5.747  14.928  0.0895  0.5470  0.8880
 5090TIP3   OH236760   0.790   2.147   5.366 -0.3783 -0.4229 -0.1070
 5090TIP3    H136761   0.750   2.090   5.431  2.1432 -0.2437  1.7766
 5090TIP3    H236762   0.725   2.216   5.352 -1.5152 -1.1478  1.2721
 5091TIP3   OH236763   4.239   2.048  15.126 -0.2397 -0.1991 -0.5610
 5091TIP3    H136764   4.187   1.968  15.125 -1.5125  0.5539  0.6173
 5091TIP3    H236765   4.311   2.030  15.186  0.4291 -0.9857 -1.5779
 5092TIP3   OH236766   1.444   0.911   4.409  0.3729 -0.4654  0.1138
 5092TIP3    H136767   1.420   0.981   4.349 -1.8241 -1.7918 -0.6727
 5092TIP3    H236768   1.513   0.862   4.363 -0.1353 -0.5036 -0.6247
 5093TIP3   OH236769   4.416   0.231  11.673 -0.0235  0.3553  0.0837
 5093TIP3    H136770   4.494   0.262  11.720  0.4579 -1.3807  0.5248
 5093TIP3    H236771   4.343   0.276  11.715  0.4772 -0.4260  1.9033
 5094TIP3   OH236772   0.284   5.961   3.362 -0.9620 -0.5855 -0.2957
 5094TIP3    H136773   0.327   6.028   3.415 -0.6751  0.2201 -1.5167
 5094TIP3    H236774   0.351   5.930   3.303 -1.6466 -0.4173 -1.1834
 5095TIP3   OH236775   6.108   5.090   0.359 -0.3004 -0.0369  0.5780
 5095TIP3    H136776   6.162   5.168   0.347 -0.1792 -0.2175 -0.1172
 5095TIP3    H236777   6.021   5.124   0.382 -0.2901  0.3096  0.1087
 5096TIP3   OH236778   5.006   0.285   3.686 -0.9025 -0.8764  0.1391
 5096TIP3    H136779   4.964   0.331   3.613 -0.2429 -1.7275 -0.7950
 5096TIP3    H236780   4.984   0.193   3.672  0.0273 -1.1595  0.4758
 5097TIP3   OH236781   0.007   3.734   1.765 -0.2144 -0.2220 -0.1705
 5097TIP3    H136782   0.009   3.745   1.860  2.5486  1.4018 -0.2949
 5097TIP3    H236783   0.017   3.823   1.730 -0.1516 -0.8739 -1.9402
 5098TIP3   OH236784   1.828   4.944  10.551  0.3513  0.2145  0.7668
 5098TIP3    H136785   1.829   4.925  10.457  1.5655  1.2545  0.5367
 5098TIP3    H236786   1.921   4.947  10.575  0.1481  2.2992  1.4836
 5099TIP3   OH236787   1.350   5.982  14.605  0.7079 -0.1973  0.3058
 5099TIP3    H136788   1.341   5.900  14.655 -0.2166 -0.5374 -0.3838
 5099TIP3    H236789   1.285   6.040  14.643  0.6219 -0.1508  0.0887
 5100TIP3   OH236790   0.906   1.769   4.609  0.0775 -0.1309  0.2138
 5100TIP3    H136791   0.823   1.742   4.649 -0.7692  1.5028 -0.3462
 5100TIP3    H236792   0.945   1.829   4.673 -1.0024  2.0277 -1.0276
 5101TIP3   OH236793   5.967   4.950   4.790 -0.2325  0.0418  0.1495
 5101TIP3    H136794   6.049   4.935   4.837  0.0223 -0.4723 -0.4460
 5101TIP3    H236795   5.965   5.044   4.774 -0.6701  0.3515  1.8127
 5102TIP3   OH236796   2.479   3.539   1.342 -0.3140  0.0532 -0.1052
 5102TIP3    H136797   2.446   3.540   1.253 -0.6961 -1.6404 -0.0131
 5102TIP3    H236798   2.412   3.494   1.393  0.6640 -0.5481  0.6970
 5103TIP3   OH236799   3.766   2.821  11.205 -0.5093  0.1219 -0.4315
 5103TIP3    H136800   3.691   2.786  11.253 -1.3675  0.1056 -1.7517
 5103TIP3    H236801   3.733   2.839  11.117  1.4040 -1.4323 -1.5588
 5104TIP3   OH236802   0.196   4.428   2.661 -0.1886 -0.4410 -0.2125
 5104TIP3    H136803   0.230   4.413   2.572 -0.0740 -1.4231 -0.0202
 5104TIP3    H236804   0.172   4.520   2.662  1.1292 -0.0610 -0.8139
 5105TIP3   OH236805   4.890   0.525  15.161  0.5056 -0.2676 -0.1080
 5105TIP3    H136806   4.858   0.517  15.071 -0.2262  0.5397  0.0664
 5105TIP3    H236807   4.826   0.581  15.204  0.8192 -0.6863  0.9386
 5106TIP3   OH236808   2.947   4.937   0.648  0.5657 -0.3806 -0.0379
 5106TIP3    H136809   3.028   4.983   0.672  1.2479 -0.1028 -2.5456
 5106TIP3    H236810   2.975   4.847   0.630 -0.1621 -0.9396  1.4536
 5107TIP3   OH236811   3.291   6.722  16.336  0.1262  0.0834  0.2051
 5107TIP3    H136812   3.318   6.726  16.428 -2.4790  0.8072  1.0093
 5107TIP3    H236813   3.288   6.814  16.308 -2.1586  0.1196  0.4146
 5108TIP3   OH236814   6.362   3.672   5.930 -0.2044 -0.2676  0.2136
 5108TIP3    H136815   6.413   3.607   5.883  0.0953  0.5624 -0.6274
 5108TIP3    H236816   6.362   3.641   6.021  0.8391 -0.8675  0.0262
 5109TIP3   OH236817   5.380   3.180  11.448 -0.1195  0.1267  0.1586
 5109TIP3    H136818   5.330   3.261  11.437 -1.2455 -0.2120  2.2274
 5109TIP3    H236819   5.454   3.205  11.504 -0.6714 -0.2937  1.1142
 5110TIP3   OH236820   5.375   3.405  11.648  0.3196  0.5087 -0.4218
 5110TIP3    H136821   5.311   3.346  11.609  0.6974 -0.8004  0.8619
 5110TIP3    H236822   5.328   3.447  11.720  0.9305 -0.6076  0.6511
 5111TIP3   OH236823   6.164   0.361   1.953  0.1857 -0.2128 -0.3340
 5111TIP3    H136824   6.108   0.362   2.031  0.3185  0.7000 -0.2447
 5111TIP3    H236825   6.121   0.298   1.895 -0.5763 -0.0150 -0.0073
 5112TIP3   OH236826   2.188   6.596  16.134 -0.2767  0.1883  0.0000
 5112TIP3    H136827   2.150   6.684  16.132 -1.6252 -0.3877 -0.4368
 5112TIP3    H236828   2.152   6.552  16.058 -0.7783 -1.2122  1.0092
 5113TIP3   OH236829   3.104   4.893   2.379  0.0521  0.0164 -0.0593
 5113TIP3    H136830   3.051   4.894   2.299  0.8532  1.5341 -0.5941
 5113TIP3    H236831   3.055   4.837   2.439 -0.4313 -1.3875 -1.6880
 5114TIP3   OH236832   5.963   1.795   5.582 -0.0335 -0.0042 -0.3417
 5114TIP3    H136833   5.876   1.822   5.610 -1.3927 -2.6077 -1.6810
 5114TIP3    H236834   5.994   1.737   5.652 -0.6984 -1.4068 -1.1596
 5115TIP3   OH236835   1.193   2.636   0.854  0.5978 -0.0549  0.0511
 5115TIP3    H136836   1.239   2.645   0.938  1.2189 -1.1553 -0.1622
 5115TIP3    H236837   1.148   2.552   0.859 -1.8005  1.1433  0.4114
 5116TIP3   OH236838   5.318   0.034   4.961  0.3129 -0.2463 -0.3841
 5116TIP3    H136839   5.242   0.030   5.019  0.4876 -1.3240 -0.2174
 5116TIP3    H236840   5.311  -0.045   4.907  0.0056  0.8337 -2.0324
 5117TIP3   OH236841   3.450   6.266   4.334 -0.8217 -0.1694 -0.1754
 5117TIP3    H136842   3.413   6.322   4.402 -2.2368 -0.5086 -0.6291
 5117TIP3    H236843   3.394   6.281   4.258 -0.1414 -0.8773 -0.8400
 5118TIP3   OH236844   6.258   1.612   2.441 -0.0806  0.2877  0.1402
 5118TIP3    H136845   6.309   1.668   2.382 -1.7476 -0.5189 -2.2491
 5118TIP3    H236846   6.297   1.525   2.432  0.2802  0.3414  1.0643
 5119TIP3   OH236847   1.018   3.237   3.580  0.4147  0.4830 -0.0429
 5119TIP3    H136848   1.007   3.154   3.534  0.9317  0.8402 -0.8138
 5119TIP3    H236849   1.049   3.212   3.667  0.5611 -0.1263 -0.2678
 5120TIP3   OH236850   2.930   3.902  11.389 -0.0943  0.0505  0.4945
 5120TIP3    H136851   2.987   3.964  11.434  1.6220 -0.3097 -1.0155
 5120TIP3    H236852   2.919   3.830  11.451 -0.5277  0.9926  1.5403
 5121TIP3   OH236853   3.789   2.101   2.964  0.2196  0.2094 -0.4429
 5121TIP3    H136854   3.775   2.065   2.877  0.2009  0.0739 -0.3840
 5121TIP3    H236855   3.776   2.027   3.023  0.8981  0.1382 -0.3709
 5122TIP3   OH236856   1.347   3.299   2.456 -0.0503  0.4304  0.6354
 5122TIP3    H136857   1.405   3.309   2.532 -2.9796 -1.2291  3.3619
 5122TIP3    H236858   1.313   3.387   2.440  1.4419  1.0035  0.4557
 5123TIP3   OH236859   4.729   6.684   4.399 -0.7421  0.9265  0.2452
 5123TIP3    H136860   4.638   6.666   4.421 -0.7873  0.2794 -0.4259
 5123TIP3    H236861   4.733   6.779   4.388 -1.4636  0.9049 -0.2450
 5124TIP3   OH236862   2.974   3.345   5.867 -0.1220  0.3758  0.2551
 5124TIP3    H136863   2.970   3.254   5.894 -1.6652 -0.1719 -1.6163
 5124TIP3    H236864   3.066   3.370   5.879  0.0421 -0.9519  2.1108
 5125TIP3   OH236865   1.610   3.647   5.042 -0.0217  0.4598  0.7720
 5125TIP3    H136866   1.516   3.629   5.047  0.0777  0.3254  3.3251
 5125TIP3    H236867   1.650   3.561   5.029 -0.1694  0.2427  1.6807
 5126TIP3   OH236868   0.698   2.279   1.045  0.0852 -0.1874 -0.0729
 5126TIP3    H136869   0.787   2.256   1.018  0.4116 -1.6548  2.0262
 5126TIP3    H236870   0.708   2.319   1.131 -1.2007  0.7918 -0.3420
 5127TIP3   OH236871   2.350   3.319   0.939  0.7731  0.1875  0.4340
 5127TIP3    H136872   2.330   3.240   0.990  2.0563  0.5220  1.5240
 5127TIP3    H236873   2.266   3.345   0.901  0.3275 -1.7302 -0.0262
 5128TIP3   OH236874   5.208   0.337  12.570 -0.2058  0.0882  0.6791
 5128TIP3    H136875   5.278   0.330  12.635 -0.4317 -1.9602  0.7822
 5128TIP3    H236876   5.239   0.285  12.496 -1.0606  0.2514  0.1916
 5129TIP3   OH236877   0.160   5.091  14.769 -0.4474  0.8800 -0.8895
 5129TIP3    H136878   0.216   5.077  14.845 -2.5387 -0.3924  0.5558
 5129TIP3    H236879   0.173   5.013  14.715 -0.6205  0.6907 -0.6632
 5130TIP3   OH236880   2.706   4.151  10.811 -0.5272 -0.7856  0.1473
 5130TIP3    H136881   2.654   4.205  10.871  0.1997 -0.7257  0.7353
 5130TIP3    H236882   2.659   4.068  10.806 -0.6758 -0.7332  0.6748
 5131TIP3   OH236883   2.508   5.778   2.522  0.5759 -0.3453  0.1908
 5131TIP3    H136884   2.504   5.841   2.450 -0.7323  0.4059  0.8768
 5131TIP3    H236885   2.495   5.693   2.482  1.5169 -0.1011 -0.6552
 5132TIP3   OH236886   3.110   6.702  11.389  0.1346 -0.6585  0.2323
 5132TIP3    H136887   3.169   6.777  11.388 -0.9929  0.2632 -0.6117
 5132TIP3    H236888   3.167   6.626  11.374  1.0606  0.2508 -1.1531
 5133TIP3   OH236889   1.381   5.992  13.413 -0.1195 -0.4514  0.7931
 5133TIP3    H136890   1.457   6.028  13.368 -0.5727  0.0600  0.4231
 5133TIP3    H236891   1.390   6.026  13.503  0.1558 -0.4997  0.7866
 5134TIP3   OH236892   4.506   2.096  15.978 -0.7872  0.5402 -0.6323
 5134TIP3    H136893   4.424   2.122  16.018 -0.7577 -0.5789  0.2112
 5134TIP3    H236894   4.523   2.008  16.012  0.9859  0.9081 -0.4333
 5135TIP3   OH236895   3.088   6.445   1.461 -0.5664 -0.1500  0.0416
 5135TIP3    H136896   3.164   6.503   1.455 -0.9620  0.4516  0.6662
 5135TIP3    H236897   3.089   6.413   1.551 -1.0223 -0.1829  0.0399
 5136TIP3   OH236898   4.934   5.381  10.585  0.0250  0.1015  0.4976
 5136TIP3    H136899   4.839   5.367  10.590 -0.0246 -0.4601 -1.2432
 5136TIP3    H236900   4.972   5.307  10.632 -0.3966 -0.3726  0.1064
 5137TIP3   OH236901   5.157   5.049   4.055 -0.0209 -0.4514 -0.4465
 5137TIP3    H136902   5.089   5.062   3.989  0.8241  0.7920 -1.1099
 5137TIP3    H236903   5.185   4.958   4.043  0.2535 -0.1916 -1.9633
 5138TIP3   OH236904   3.058   5.392  13.187  0.0883 -0.0610 -0.6901
 5138TIP3    H136905   3.138   5.444  13.200 -0.1514  0.1988 -0.2496
 5138TIP3    H236906   3.040   5.355  13.273 -0.4678  0.1636 -0.7103
 5139TIP3   OH236907   0.184   0.504  14.746 -0.2953 -0.2219  0.2563
 5139TIP3    H136908   0.251   0.554  14.701  0.5499 -1.2104  0.3690
 5139TIP3    H236909   0.190   0.533  14.837  1.8451 -2.1362  0.8245
 5140TIP3   OH236910   3.434   0.576  16.764 -0.2743  0.1359 -0.4764
 5140TIP3    H136911   3.341   0.568  16.744 -0.0118  0.5782 -2.0208
 5140TIP3    H236912   3.478   0.548  16.684  1.0176 -2.3972  0.9947
 5141TIP3   OH236913   2.055   4.984   3.078  0.2676 -0.3548  0.5524
 5141TIP3    H136914   1.966   4.965   3.049  0.1929  0.2978  0.3209
 5141TIP3    H236915   2.108   4.974   2.999  0.4479 -1.0288  0.7538
 5142TIP3   OH236916   3.022   1.506   2.627 -0.5449 -0.7097 -0.1208
 5142TIP3    H136917   2.968   1.516   2.549 -1.5445  1.7479  0.7782
 5142TIP3    H236918   3.012   1.414   2.652 -1.3271 -1.2055 -2.0495
 5143TIP3   OH236919   0.578   2.437  13.591  0.2024  0.0319 -0.0718
 5143TIP3    H136920   0.593   2.487  13.511 -1.2681  0.5975 -0.0243
 5143TIP3    H236921   0.483   2.436  13.602  0.3255 -0.7905  1.1952
 5144TIP3   OH236922   5.025   2.608   2.140 -0.6462  0.1416 -0.2034
 5144TIP3    H136923   5.118   2.595   2.161 -0.7842 -0.6279 -0.0622
 5144TIP3    H236924   4.988   2.647   2.219 -0.6817 -0.6191  0.1574
 5145TIP3   OH236925   3.263   3.762  13.444 -0.3486 -0.0071  0.4759
 5145TIP3    H136926   3.257   3.790  13.353  0.6546  2.9380  1.1944
 5145TIP3    H236927   3.352   3.727  13.453 -0.4569 -0.3224  0.3309
 5146TIP3   OH236928   2.129   4.594  13.136  0.0788 -0.0602  0.1015
 5146TIP3    H136929   2.175   4.571  13.055 -0.1089  0.5591 -0.1873
 5146TIP3    H236930   2.183   4.557  13.206  0.2341 -0.6178 -0.3028
 5147TIP3   OH236931   5.622   4.489  12.554 -0.3549  0.4521  0.1178
 5147TIP3    H136932   5.705   4.521  12.517 -0.6750 -1.0933 -2.0869
 5147TIP3    H236933   5.649   4.439  12.631  0.4933  2.1911  1.0127
 5148TIP3   OH236934   3.519   0.002   0.258  0.3545 -0.5259 -0.4226
 5148TIP3    H136935   3.586  -0.023   0.322  0.3203 -0.6370 -0.4302
 5148TIP3    H236936   3.563  -0.002   0.173  0.4886 -0.0673 -0.3788
 5149TIP3   OH236937   6.455   3.087   4.255 -0.1440 -0.5123  0.6447
 5149TIP3    H136938   6.481   3.114   4.343  1.7706  0.9048 -0.2825
 5149TIP3    H236939   6.383   3.026   4.269  1.6202 -2.2009  3.2985
 5150TIP3   OH236940   0.708   5.234  10.910 -0.1796  0.3575  0.8048
 5150TIP3    H136941   0.685   5.253  10.819  1.4782  2.2981  0.7238
 5150TIP3    H236942   0.788   5.181  10.904 -1.4551 -1.7438  1.1639
 5151TIP3   OH236943   0.410   5.489  12.509  0.6328  0.1410 -0.1969
 5151TIP3    H136944   0.490   5.480  12.457  0.4530  1.0006 -0.6364
 5151TIP3    H236945   0.409   5.581  12.535 -2.4569  1.4221 -3.9607
 5152TIP3   OH236946   1.055   5.447  11.926  0.1632  0.1923 -0.5628
 5152TIP3    H136947   1.000   5.448  12.004  0.4868  1.1226 -0.3209
 5152TIP3    H236948   1.117   5.375  11.940  0.7158  0.8307  0.4201
 5153TIP3   OH236949   0.929   0.414  10.626  0.2824 -0.0964  0.8368
 5153TIP3    H136950   0.956   0.470  10.700 -0.1413  1.8636 -0.4251
 5153TIP3    H236951   0.929   0.473  10.551 -1.3599 -1.5454 -0.3569
 5154TIP3   OH236952   5.134   1.697   6.079 -0.4632  0.2721 -0.4010
 5154TIP3    H136953   5.211   1.753   6.071 -0.3621  0.4407  1.3519
 5154TIP3    H236954   5.162   1.626   6.137 -0.3802 -2.0498 -3.0867
 5155TIP3   OH236955   6.340   2.196  15.145  0.1306  0.1917 -0.5598
 5155TIP3    H136956   6.312   2.166  15.059 -0.3161 -1.0448 -0.0031
 5155TIP3    H236957   6.299   2.282  15.155  1.1237  0.8688 -2.0327
 5156TIP3   OH236958   3.011   4.596   1.640  0.7402  0.6988  0.5955
 5156TIP3    H136959   3.073   4.544   1.693 -0.0943  0.3121  1.2210
 5156TIP3    H236960   2.982   4.666   1.699  1.0247  1.2313  0.1099
 5157TIP3   OH236961   2.839   5.606   2.730  0.0087  0.1034 -0.0457
 5157TIP3    H136962   2.874   5.559   2.806  0.1983 -0.9034 -0.7377
 5157TIP3    H236963   2.854   5.547   2.656 -3.5551 -0.6393 -0.3578
 5158TIP3   OH236964   6.786   0.743  13.255  0.0185  0.0704 -0.8771
 5158TIP3    H136965   6.871   0.702  13.269  0.5574  1.4664  0.0778
 5158TIP3    H236966   6.737   0.724  13.335  0.4849  1.7570 -0.1672
 5159TIP3   OH236967   3.470   2.324   1.991 -0.3306  0.3595 -0.4079
 5159TIP3    H136968   3.508   2.327   1.904  0.0372 -2.4189 -0.4399
 5159TIP3    H236969   3.544   2.311   2.050 -0.8215 -1.0934 -0.0623
 5160TIP3   OH236970   6.096   2.554  13.689 -0.3166  0.1847 -0.0227
 5160TIP3    H136971   6.034   2.611  13.736  0.2713 -0.8548  2.1559
 5160TIP3    H236972   6.042   2.505  13.627 -0.9806  2.3113 -1.2064
 5161TIP3   OH236973   6.028   6.470  11.532 -0.2131 -0.3066  0.1370
 5161TIP3    H136974   6.071   6.496  11.613  1.6821 -1.0308 -0.5935
 5161TIP3    H236975   5.993   6.383  11.550 -0.5650 -0.1032  0.4421
 5162TIP3   OH236976   3.077   6.815   4.920  0.4419 -0.1260  0.4144
 5162TIP3    H136977   2.993   6.851   4.890  0.9718  1.4176  0.7100
 5162TIP3    H236978   3.052   6.736   4.967 -0.5778 -1.5467 -2.2575
 5163TIP3   OH236979   1.278   3.246  12.449  0.1102 -0.1871  0.3214
 5163TIP3    H136980   1.195   3.266  12.406  0.2641  0.7872  0.4513
 5163TIP3    H236981   1.259   3.253  12.543  0.5114  0.8666  0.3437
 5164TIP3   OH236982   0.548   1.391   0.809  0.4795  0.5189 -0.1143
 5164TIP3    H136983   0.593   1.412   0.891 -1.1436  2.7964  0.3106
 5164TIP3    H236984   0.617   1.394   0.742  1.7614 -0.9895  1.0710
 5165TIP3   OH236985   5.620   5.893   5.101 -0.2206  0.2203  0.0584
 5165TIP3    H136986   5.696   5.911   5.156 -0.2781  0.2734  0.1200
 5165TIP3    H236987   5.550   5.949   5.136 -1.2938 -2.2446  2.1507
 5166TIP3   OH236988   4.051   1.563   3.692 -0.1194 -0.1661 -0.3577
 5166TIP3    H136989   4.064   1.621   3.766  1.8406  1.0458 -1.5613
 5166TIP3    H236990   4.087   1.610   3.617 -0.3671 -2.0788 -1.7749
 5167TIP3   OH236991   5.234   4.383  10.531 -0.4300 -0.0214  0.4522
 5167TIP3    H136992   5.265   4.427  10.451 -0.6895 -1.6258 -0.5654
 5167TIP3    H236993   5.149   4.423  10.548  0.2496  1.3502  0.7771
 5168TIP3   OH236994   5.895   6.638  15.520  0.0414  0.5834 -0.2713
 5168TIP3    H136995   5.897   6.582  15.598 -0.7189  1.4474  0.3891
 5168TIP3    H236996   5.955   6.595  15.459  1.0466  0.1429  0.9629
 5169TIP3   OH236997   3.337   4.570   3.459 -0.3541  0.5315 -0.0872
 5169TIP3    H136998   3.278   4.605   3.526 -1.3284 -0.6527 -0.2973
 5169TIP3    H236999   3.411   4.631   3.458  0.2295 -0.0169  2.8308
 5170TIP3   OH237000   6.664   0.894   1.278  0.2206 -0.6114  0.2518
 5170TIP3    H137001   6.756   0.868   1.282  0.2773 -0.3106  0.9553
 5170TIP3    H237002   6.658   0.973   1.331  0.0858  1.0012 -2.0452
 5171TIP3   OH237003   3.858   3.136   2.460 -0.5560  0.2623  0.1460
 5171TIP3    H137004   3.873   3.070   2.393 -1.4548  0.4349 -0.2448
 5171TIP3    H237005   3.872   3.220   2.415 -1.7045  0.3944  0.0228
 5172TIP3   OH237006   1.099   5.436   1.424  0.0316 -0.3111 -0.0063
 5172TIP3    H137007   1.181   5.394   1.396  1.0525  0.9879  0.8851
 5172TIP3    H237008   1.116   5.464   1.514 -1.8529 -1.0989  0.6272
 5173TIP3   OH237009   5.188   5.348  13.348  0.4785 -0.4497  0.2804
 5173TIP3    H137010   5.195   5.365  13.254  0.9535  1.1155  0.5786
 5173TIP3    H237011   5.265   5.390  13.386  0.1015 -0.7511  1.4156
 5174TIP3   OH237012   5.658   3.726  11.444  0.2281  0.6378 -0.5296
 5174TIP3    H137013   5.612   3.808  11.428  1.1435  0.9401 -1.7622
 5174TIP3    H237014   5.747   3.742  11.413  1.3090  0.1888  2.0907
 5175TIP3   OH237015   4.645   0.514  12.385 -0.3022  0.4878 -0.7105
 5175TIP3    H137016   4.626   0.448  12.451 -0.5787  0.3432 -0.9284
 5175TIP3    H237017   4.566   0.567  12.381 -0.6061 -0.0068 -1.5005
 5176TIP3   OH237018   3.789   0.620  13.420 -0.2865  0.4950 -0.0295
 5176TIP3    H137019   3.702   0.604  13.457 -0.3953  1.7588  0.3311
 5176TIP3    H237020   3.811   0.709  13.449  1.2869  0.0724  0.1917
 5177TIP3   OH237021   0.864   0.580   3.118  0.2314  0.2667  0.5992
 5177TIP3    H137022   0.862   0.657   3.175 -1.6561  0.6787  0.0565
 5177TIP3    H237023   0.889   0.614   3.032  0.2882  0.1138  0.5538
 5178TIP3   OH237024   4.718   5.174  15.523  0.0666 -0.0107  0.0295
 5178TIP3    H137025   4.730   5.189  15.429 -1.9495 -0.8152 -0.4181
 5178TIP3    H237026   4.625   5.190  15.537  0.4281  0.5512  2.0117
 5179TIP3   OH237027   1.197   4.533  11.392 -0.0366 -0.0084 -0.8977
 5179TIP3    H137028   1.211   4.591  11.317 -1.4764  1.2590 -0.2446
 5179TIP3    H237029   1.253   4.570  11.461  0.2429 -0.3435 -0.9453
 5180TIP3   OH237030   4.693   3.818   3.745  0.4485  0.4843 -0.5903
 5180TIP3    H137031   4.788   3.805   3.744  0.3142 -0.6466 -0.5466
 5180TIP3    H237032   4.681   3.913   3.746  1.6150  0.6691  1.6133
 5181TIP3   OH237033   5.480   3.078   4.163 -0.2798 -0.3655  0.1321
 5181TIP3    H137034   5.420   3.032   4.104 -2.8594  1.8536  0.8319
 5181TIP3    H237035   5.548   3.113   4.106  0.1429 -2.5144 -0.7699
 5182TIP3   OH237036   0.670   3.977  15.885 -0.4608 -0.5813  0.3236
 5182TIP3    H137037   0.636   4.067  15.884  0.3500 -0.1533  3.1245
 5182TIP3    H237038   0.756   3.984  15.843 -0.3406  0.0009  0.6522
 5183TIP3   OH237039   1.563   1.925   3.187 -0.1408 -0.2657 -0.1621
 5183TIP3    H137040   1.540   1.858   3.123 -0.8852  0.6342 -0.8666
 5183TIP3    H237041   1.613   1.989   3.137  1.0858 -0.5685  0.6396
 5184TIP3   OH237042   4.976   1.381   4.530  0.4926 -0.1801 -0.5942
 5184TIP3    H137043   4.917   1.378   4.605 -0.0529  0.5446 -0.9811
 5184TIP3    H237044   5.043   1.445   4.554  0.3379  0.0255 -0.7056
 5185TIP3   OH237045   2.711   2.676  14.516 -0.0678 -0.2979  0.4513
 5185TIP3    H137046   2.673   2.718  14.593  0.7859  0.7062  0.3541
 5185TIP3    H237047   2.644   2.685  14.448 -0.4297 -0.3041  0.8060
 5186TIP3   OH237048   2.673   5.892   5.491 -0.2426  0.1044  0.3099
 5186TIP3    H137049   2.633   5.838   5.423 -0.7061 -0.2485  0.8537
 5186TIP3    H237050   2.654   5.982   5.465 -1.4203 -0.0570  0.5781
 5187TIP3   OH237051   3.431   4.426   0.465 -0.2149  0.3166  0.2919
 5187TIP3    H137052   3.517   4.445   0.500 -0.6000  1.0777  0.8541
 5187TIP3    H237053   3.436   4.335   0.434  1.1332  0.7327 -0.7813
 5188TIP3   OH237054   3.489   1.231   2.606  0.8413 -0.4456 -0.2598
 5188TIP3    H137055   3.437   1.151   2.599 -2.6815  1.7246 -1.9920
 5188TIP3    H237056   3.430   1.294   2.648  1.0865  2.7640 -4.0712
 5189TIP3   OH237057   1.950   3.398   5.425  0.0904 -0.3990 -0.0644
 5189TIP3    H137058   1.909   3.315   5.448 -1.0681  0.2120  0.1575
 5189TIP3    H237059   2.043   3.384   5.440 -0.1487 -1.4887  0.4925
 5190TIP3   OH237060   1.683   0.646  13.874  0.9741  0.4577 -0.6098
 5190TIP3    H137061   1.745   0.687  13.813  0.2003  2.1694 -0.3098
 5190TIP3    H237062   1.624   0.717  13.899 -0.3371 -0.8302  0.1019
 5191TIP3   OH237063   5.671   1.200   3.924  0.3743 -0.3663 -0.3446
 5191TIP3    H137064   5.616   1.220   3.847  0.1621 -0.1200 -0.1342
 5191TIP3    H237065   5.756   1.177   3.887  1.0971  2.3052 -0.6020
 5192TIP3   OH237066   4.066   0.063   0.591  0.5344 -0.2739  0.3527
 5192TIP3    H137067   4.031   0.139   0.638  0.7282 -0.3432  0.6128
 5192TIP3    H237068   4.101   0.007   0.660 -0.0522 -0.8342  0.2071
 5193TIP3   OH237069   1.700   0.947   1.105  0.2701 -0.3658  0.0361
 5193TIP3    H137070   1.779   0.928   1.056  1.1447  0.2881  1.1322
 5193TIP3    H237071   1.674   1.035   1.077  1.2128  0.3376  1.2233
 5194TIP3   OH237072   3.526   1.474   2.104  0.4395  0.0761  0.4253
 5194TIP3    H137073   3.515   1.476   2.200  1.9487  0.7529  0.6188
 5194TIP3    H237074   3.493   1.558   2.075  1.1488  0.3956  0.5178
 5195TIP3   OH237075   2.069   0.286  14.592  0.5071  0.6381 -0.7898
 5195TIP3    H137076   2.033   0.271  14.680  1.1661  0.3577 -0.5661
 5195TIP3    H237077   2.011   0.237  14.534  1.0369 -0.5698 -0.3384
 5196TIP3   OH237078   3.373   1.368   4.510  0.2953  0.3119  0.0661
 5196TIP3    H137079   3.298   1.427   4.499 -0.7948 -1.2922 -1.9922
 5196TIP3    H237080   3.393   1.338   4.421  2.4146 -0.5166  0.7479
 5197TIP3   OH237081   6.313   4.308  17.094  0.3958 -0.2654 -0.0919
 5197TIP3    H137082   6.346   4.333  17.180 -1.7771 -0.3471  0.8418
 5197TIP3    H237083   6.275   4.388  17.059 -0.0722 -0.5738 -0.3023
 5198TIP3   OH237084   3.962   1.255  13.208  0.1306 -0.1155 -0.0589
 5198TIP3    H137085   4.018   1.190  13.165  0.5390  0.0135  0.2591
 5198TIP3    H237086   4.000   1.264  13.296  0.4763  1.0195 -0.3095
 5199TIP3   OH237087   3.284   2.191   4.830  0.7039  0.4516  0.7592
 5199TIP3    H137088   3.332   2.117   4.792 -1.1385 -0.4648  0.0984
 5199TIP3    H237089   3.282   2.173   4.924 -2.3315 -2.0929  0.3699
 5200TIP3   OH237090   5.112   1.906  15.757 -0.6045 -0.2333  0.6266
 5200TIP3    H137091   5.187   1.965  15.757 -0.9411  0.2174  1.5037
 5200TIP3    H237092   5.084   1.903  15.665  0.8583 -0.9150  0.1761
 5201TIP3   OH237093   0.472   2.817   2.096  0.5995 -0.1722 -0.0176
 5201TIP3    H137094   0.477   2.754   2.024  0.5511  0.7924 -0.8877
 5201TIP3    H237095   0.412   2.885   2.065  0.0597 -0.0563  1.1986
 5202TIP3   OH237096   4.320   2.791  14.571  0.2631  0.5175  0.1355
 5202TIP3    H137097   4.412   2.805  14.549  0.3825 -0.2683  0.1116
 5202TIP3    H237098   4.276   2.871  14.542  0.8248  0.5894 -0.5443
 5203TIP3   OH237099   0.604   5.093   3.064 -0.6020 -0.0139 -0.8919
 5203TIP3    H137100   0.549   5.141   3.125 -0.8398 -0.2256 -0.9389
 5203TIP3    H237101   0.649   5.161   3.014 -1.0312  0.1586 -1.0463
 5204TIP3   OH237102   1.904   3.364   2.550  0.2964 -0.4964  0.0912
 5204TIP3    H137103   1.908   3.459   2.552  2.2651 -0.5307  0.0503
 5204TIP3    H237104   1.957   3.339   2.474  1.2028 -1.6523  1.0579
 5205TIP3   OH237105   1.762   1.842  15.412  0.5381 -0.0306 -0.7384
 5205TIP3    H137106   1.698   1.880  15.472 -0.3954 -2.3251 -0.1766
 5205TIP3    H237107   1.775   1.908  15.345 -1.1830  1.1451  0.0298
 5206TIP3   OH237108   0.395   2.645  12.308 -0.2187  0.5221 -0.2675
 5206TIP3    H137109   0.465   2.679  12.253  1.0329 -0.0656  0.9219
 5206TIP3    H237110   0.424   2.661  12.398 -0.7211 -1.4306  0.2928
 5207TIP3   OH237111   4.177   5.095   2.905  0.1896 -0.2502  1.0513
 5207TIP3    H137112   4.211   5.184   2.897 -1.6433  0.3394 -4.3406
 5207TIP3    H237113   4.250   5.039   2.878  0.3045 -0.0132  0.8604
 5208TIP3   OH237114   5.454   3.279   2.215 -0.4247 -0.0638  0.0495
 5208TIP3    H137115   5.421   3.364   2.246 -2.5605 -0.2115 -1.5949
 5208TIP3    H237116   5.526   3.302   2.156  0.2426  0.4760  1.0466
 5209TIP3   OH237117   3.544   5.279  13.746  0.3504  0.2452 -0.3053
 5209TIP3    H137118   3.497   5.363  13.748  0.1072  0.1040 -0.0298
 5209TIP3    H237119   3.518   5.240  13.663 -0.6963 -0.2064  0.2117
 5210TIP3   OH237120   4.654   3.561   5.371  0.0534 -0.6711 -0.4910
 5210TIP3    H137121   4.633   3.653   5.387 -2.0994 -0.8618 -1.8036
 5210TIP3    H237122   4.703   3.562   5.289  1.5982 -0.5949  0.3941
 5211TIP3   OH237123   0.648   2.628  13.187 -0.1695  0.0071 -0.2768
 5211TIP3    H137124   0.617   2.676  13.109  1.2633  2.5577  0.5922
 5211TIP3    H237125   0.598   2.665  13.259  2.1929  1.6385  0.6617
 5212TIP3   OH237126   4.616   3.145  14.761 -0.4762 -0.1798 -0.5147
 5212TIP3    H137127   4.647   3.231  14.790 -1.5838 -0.4221  1.5334
 5212TIP3    H237128   4.536   3.163  14.713 -1.6064 -0.1232  1.3036
 5213TIP3   OH237129   1.743   2.189  12.706  0.1480 -0.4286  0.4266
 5213TIP3    H137130   1.798   2.140  12.768  0.3139  0.8810  1.3441
 5213TIP3    H237131   1.670   2.221  12.759  1.3044  2.4277  0.4686
 5214TIP3   OH237132   0.387   1.743   4.083  0.4292 -0.3321 -0.1589
 5214TIP3    H137133   0.405   1.824   4.130 -1.0323  0.1473 -0.3717
 5214TIP3    H237134   0.462   1.687   4.101  0.3147  0.1537  2.0366
 5215TIP3   OH237135   0.607   4.978   0.612  0.3713 -0.6849 -0.7075
 5215TIP3    H137136   0.583   5.055   0.560 -1.2947 -0.6893  0.0201
 5215TIP3    H237137   0.605   5.009   0.703  0.9300 -1.2913 -0.4773
 5216TIP3   OH237138   5.160   5.460   6.230 -0.3620  0.2826  0.0587
 5216TIP3    H137139   5.159   5.388   6.167  0.6832 -0.3534  0.7440
 5216TIP3    H237140   5.092   5.520   6.198 -2.4540 -1.7706  0.4185
 5217TIP3   OH237141   5.485   2.477  12.391  0.7341 -0.0628 -0.4885
 5217TIP3    H137142   5.443   2.462  12.476  2.7218 -0.2525  0.5046
 5217TIP3    H237143   5.426   2.435  12.328 -0.3559 -0.6509  0.8645
 5218TIP3   OH237144   0.391   5.629   5.632  0.3480 -0.3365 -0.3134
 5218TIP3    H137145   0.363   5.706   5.584  2.4206 -0.2974 -1.5714
 5218TIP3    H237146   0.472   5.655   5.676  0.4175 -1.4408  0.2765
 5219TIP3   OH237147   2.649   0.715  16.028 -0.7701  0.0348  0.1309
 5219TIP3    H137148   2.651   0.782  16.097  0.9787 -1.3296  1.5013
 5219TIP3    H237149   2.598   0.643  16.067 -1.7365  0.1209 -0.9216
 5220TIP3   OH237150   1.923   0.719  12.472  0.2477 -0.0402 -1.0174
 5220TIP3    H137151   1.884   0.749  12.555  2.7725  1.3958 -0.2419
 5220TIP3    H237152   1.986   0.788  12.450  0.6457 -1.1096 -3.4111
 5221TIP3   OH237153   3.214   3.155   3.190 -0.0188  0.3921 -0.2401
 5221TIP3    H137154   3.192   3.104   3.269  4.4313 -1.2381  0.2466
 5221TIP3    H237155   3.201   3.093   3.118  1.6835 -0.2302 -0.0545
 5222TIP3   OH237156   6.812   1.563   6.180  0.5258  0.2098 -0.2615
 5222TIP3    H137157   6.855   1.607   6.107  0.7170  0.4849  0.0136
 5222TIP3    H237158   6.766   1.633   6.227 -2.4161 -0.3929 -2.0063
 5223TIP3   OH237159   3.172   6.149  16.901 -0.5406  0.0682 -0.1772
 5223TIP3    H137160   3.147   6.112  16.817 -1.2122 -1.0038  0.4704
 5223TIP3    H237161   3.092   6.148  16.953  0.0834 -0.2673  0.8225
 5224TIP3   OH237162   5.375   0.009  16.218  0.4441  0.0845  0.4142
 5224TIP3    H137163   5.415   0.091  16.247  2.0706 -0.1926 -0.8845
 5224TIP3    H237164   5.319   0.034  16.144 -0.3759  0.2272  1.0739
 5225TIP3   OH237165   1.866   0.165   4.970  0.5834 -0.3936 -0.2542
 5225TIP3    H137166   1.961   0.167   4.954  0.5547  0.5073 -0.3396
 5225TIP3    H237167   1.842   0.256   4.988 -0.0451 -0.8041  1.1506
 5226TIP3   OH237168   2.761   4.296   5.906 -0.0311  0.7829 -0.2614
 5226TIP3    H137169   2.672   4.272   5.931  0.2654  0.7145  0.7514
 5226TIP3    H237170   2.780   4.374   5.957  0.5228  0.7509 -0.4109
 5227TIP3   OH237171   6.698   0.829  12.995  0.4173  0.1598 -0.2105
 5227TIP3    H137172   6.789   0.847  12.971  0.5144 -0.6438 -0.4790
 5227TIP3    H237173   6.704   0.776  13.074  0.1471  0.9348  0.3425
 5228TIP3   OH237174   5.347   4.310  15.327  0.5110 -0.0153 -0.0813
 5228TIP3    H137175   5.275   4.246  15.331  0.8764 -0.7631 -3.1845
 5228TIP3    H237176   5.413   4.275  15.387 -1.2542  0.1918  2.1098
 5229TIP3   OH237177   3.704   3.908   0.710  0.1921 -0.0571  0.4040
 5229TIP3    H137178   3.765   3.851   0.756  1.0200 -2.2539 -3.0695
 5229TIP3    H237179   3.618   3.873   0.730  0.4451 -0.2472  1.1734
 5230TIP3   OH237180   3.168   6.190   5.967  0.0077 -0.0318 -0.4091
 5230TIP3    H137181   3.220   6.184   5.887  1.4336 -0.2753  0.4878
 5230TIP3    H237182   3.171   6.102   6.004  0.4088  0.3528  0.5116
 5231TIP3   OH237183   6.786   2.804   2.239  0.1873 -0.2450 -0.7313
 5231TIP3    H137184   6.774   2.896   2.218  1.4380  0.2725  0.6746
 5231TIP3    H237185   6.697   2.769   2.246 -0.3529  1.2839  0.5027
 5232TIP3   OH237186   0.795   5.725  13.866 -0.2870  0.2951  0.1476
 5232TIP3    H137187   0.792   5.774  13.784  0.2971 -2.1863 -1.4650
 5232TIP3    H237188   0.844   5.646  13.845 -0.4122 -0.5922  2.8321
 5233TIP3   OH237189   4.331   5.692   4.438 -0.1214 -0.2269 -0.2820
 5233TIP3    H137190   4.303   5.693   4.530 -0.2814 -1.1493 -0.3136
 5233TIP3    H237191   4.280   5.762   4.397 -1.0713 -0.7227  0.0369
 5234TIP3   OH237192   2.773   0.637   5.952  0.0923 -0.2186 -0.0444
 5234TIP3    H137193   2.817   0.719   5.930  1.9299 -0.6962  1.5375
 5234TIP3    H237194   2.696   0.664   6.004 -0.2393  0.5394 -0.9102
 5235TIP3   OH237195   6.547   2.966   2.684  0.3708  0.1939  0.7594
 5235TIP3    H137196   6.544   2.971   2.588 -1.2777  3.4608  0.8419
 5235TIP3    H237197   6.639   2.979   2.705  0.7265 -0.3166 -0.3608
 5236TIP3   OH237198   0.503   5.856   4.576  0.0224 -0.2160  0.5919
 5236TIP3    H137199   0.425   5.912   4.570 -0.1740 -0.3265  1.7809
 5236TIP3    H237200   0.530   5.862   4.668  2.0175  0.5936  0.0070
 5237TIP3   OH237201   2.026   4.398   4.439 -0.0626  0.2056 -0.1617
 5237TIP3    H137202   2.094   4.348   4.485 -0.3154  1.1460  1.3070
 5237TIP3    H237203   2.056   4.489   4.443 -1.9507  0.8275  1.6240
 5238TIP3   OH237204   0.049   0.404  14.524 -0.5520  0.2444 -0.5131
 5238TIP3    H137205   0.081   0.314  14.515 -1.8065 -0.3284  0.4046
 5238TIP3    H237206   0.101   0.441  14.595 -0.3283  0.0962 -0.5982
 5239TIP3   OH237207   2.739   2.177   1.298  0.6221 -0.3141  0.1815
 5239TIP3    H137208   2.700   2.098   1.260  2.2452 -0.9093 -0.3230
 5239TIP3    H237209   2.704   2.180   1.387 -1.0752 -0.4305 -0.4421
 5240TIP3   OH237210   3.845   6.430  16.606 -0.6143 -0.3016 -0.3153
 5240TIP3    H137211   3.940   6.433  16.611 -0.6164  0.2215 -0.5593
 5240TIP3    H237212   3.820   6.364  16.671 -0.1940  0.9962  1.2406
 5241TIP3   OH237213   5.294   3.226   0.633 -0.1635  0.7212  0.4231
 5241TIP3    H137214   5.340   3.261   0.556 -0.4768 -0.5038 -0.3466
 5241TIP3    H237215   5.360   3.172   0.677 -0.7144 -0.7132 -0.4612
 5242TIP3   OH237216   6.185   4.632  13.433 -0.4798  0.0727 -0.0624
 5242TIP3    H137217   6.215   4.541  13.440 -1.9331 -0.5391 -1.2241
 5242TIP3    H237218   6.236   4.668  13.360  0.8845  0.5778  1.0792
 5243TIP3   OH237219   4.760   6.146   2.894  0.0169 -0.6295 -0.2788
 5243TIP3    H137220   4.763   6.105   2.980 -5.0356  0.6830  0.9061
 5243TIP3    H237221   4.785   6.237   2.910  0.9282 -0.7980 -0.6718
 5244TIP3   OH237222   2.239   2.539   0.966  0.0734 -0.7068  0.0873
 5244TIP3    H137223   2.290   2.586   1.031 -1.5525  0.2872  0.7038
 5244TIP3    H237224   2.221   2.454   1.007  1.3377 -1.1495 -0.2201
 5245TIP3   OH237225   1.716   0.168  15.903 -0.0122 -0.3455  0.3853
 5245TIP3    H137226   1.653   0.104  15.870 -0.1368  0.6048 -1.3040
 5245TIP3    H237227   1.699   0.247  15.853 -0.0678  1.1635  2.6240
 5246TIP3   OH237228   2.641   2.876  15.820 -0.2488  0.3167 -0.2863
 5246TIP3    H137229   2.569   2.926  15.782  1.1977  0.7283 -2.6935
 5246TIP3    H237230   2.655   2.915  15.906 -3.5694 -0.5369  0.7686
 5247TIP3   OH237231   6.002   4.551   4.218 -0.4936 -0.2035  0.1839
 5247TIP3    H137232   6.069   4.515   4.160  0.2979  1.5197 -0.0397
 5247TIP3    H237233   5.996   4.488   4.290  0.0145 -1.3191 -0.7186
 5248TIP3   OH237234   3.053   5.927   1.497  0.0998 -0.0856  0.3331
 5248TIP3    H137235   3.036   6.015   1.533  0.1734  0.1501 -0.2046
 5248TIP3    H237236   2.968   5.883   1.500 -0.5714  0.9331 -1.9238
 5249TIP3   OH237237   4.884   3.898  12.002 -0.3051 -0.0536 -0.6025
 5249TIP3    H137238   4.791   3.876  12.003 -0.4505  0.4118 -1.9428
 5249TIP3    H237239   4.887   3.986  11.964  0.7270 -0.3718 -1.2923
 5250TIP3   OH237240   5.558   3.977  16.564  0.2121  0.4978 -0.3488
 5250TIP3    H137241   5.560   3.981  16.659 -1.2602  1.2707 -0.3103
 5250TIP3    H237242   5.473   4.014  16.540  0.5124  0.2525 -1.9634
 5251TIP3   OH237243   2.592   5.927  11.396  0.3726  0.5123 -0.5014
 5251TIP3    H137244   2.515   5.984  11.393 -0.9572 -1.1222  0.7466
 5251TIP3    H237245   2.609   5.904  11.305 -0.1298  1.5148 -0.8567
 5252TIP3   OH237246   3.084   5.848   4.121 -0.5834 -0.2066  0.5398
 5252TIP3    H137247   3.094   5.772   4.064 -0.0045 -0.2216  0.6606
 5252TIP3    H237248   3.159   5.904   4.102 -0.9375  0.2786  0.5430
 5253TIP3   OH237249   2.803   5.446  14.707  0.3144 -0.2435 -0.0346
 5253TIP3    H137250   2.870   5.436  14.776  2.0987 -0.5261 -1.7270
 5253TIP3    H237251   2.731   5.493  14.751  1.6914  0.2846  1.8209
 5254TIP3   OH237252   4.525   3.817  12.520 -0.0041  0.0053 -0.2432
 5254TIP3    H137253   4.555   3.824  12.429  0.5842  0.1043 -0.0508
 5254TIP3    H237254   4.473   3.895  12.534 -0.3403 -0.1553 -0.5831
 5255TIP3   OH237255   4.388   3.428  15.630  0.4211  0.3237 -0.7798
 5255TIP3    H137256   4.356   3.379  15.554  1.3067 -2.1380  0.3511
 5255TIP3    H237257   4.332   3.399  15.702 -0.7401  2.9976 -0.4551
 5256TIP3   OH237258   5.280   4.480  14.279  0.1821 -0.0502 -0.0414
 5256TIP3    H137259   5.299   4.513  14.367  2.0862 -0.6125 -0.1931
 5256TIP3    H237260   5.366   4.463  14.241 -0.5710  0.7428 -2.2488
 5257TIP3   OH237261   5.785   2.511   1.916  0.1812  0.5502 -0.2594
 5257TIP3    H137262   5.699   2.540   1.946  1.0527  2.1337  0.9016
 5257TIP3    H237263   5.811   2.444   1.980 -1.1451 -1.7723 -2.0079
 5258TIP3   OH237264   5.413   3.045  16.162  0.0668  0.2495  0.3646
 5258TIP3    H137265   5.490   3.079  16.116  1.0873 -1.4490  0.6942
 5258TIP3    H237266   5.340   3.099  16.131  1.0513  0.5663 -1.5852
 5259TIP3   OH237267   2.874   1.369   3.963 -0.0654  0.1997  0.5267
 5259TIP3    H137268   2.846   1.458   3.946 -0.9624 -0.2657 -0.5572
 5259TIP3    H237269   2.876   1.327   3.877  1.4647 -0.5279  0.8743
 5260TIP3   OH237270   2.727   5.059  14.886 -0.0779  0.1159  0.4527
 5260TIP3    H137271   2.647   5.013  14.910 -0.1198 -0.9967 -1.6231
 5260TIP3    H237272   2.697   5.129  14.828  0.4819 -0.9280 -1.1623
 5261TIP3   OH237273   3.060   2.204   4.030  0.3485 -0.0822 -0.1948
 5261TIP3    H137274   3.142   2.235   3.992  1.6392 -1.0874  1.6067
 5261TIP3    H237275   3.077   2.203   4.124 -1.4726 -1.0763  0.1589
 5262TIP3   OH237276   2.092   0.169  16.262 -0.3465  0.4256  0.1661
 5262TIP3    H137277   2.130   0.103  16.204 -0.4254 -0.4110  1.0431
 5262TIP3    H237278   2.007   0.189  16.224 -0.4087 -0.1305  0.0087
 5263TIP3   OH237279   5.608   5.963   0.304 -0.0595  0.3428 -0.3612
 5263TIP3    H137280   5.565   6.044   0.332  1.5073  1.0974 -0.0764
 5263TIP3    H237281   5.633   5.919   0.385  1.0174  0.6366 -0.5215
 5264TIP3   OH237282   2.292   1.500   5.930  0.4676  0.4650  0.0992
 5264TIP3    H137283   2.292   1.539   6.017  0.2481  1.2077 -0.2234
 5264TIP3    H237284   2.218   1.542   5.886  1.0458  0.6613 -0.6927
 5265TIP3   OH237285   0.128   2.631   2.332 -0.2118 -0.0972 -0.1963
 5265TIP3    H137286   0.066   2.699   2.308  0.5599  0.5078 -0.5347
 5265TIP3    H237287   0.140   2.580   2.252  1.1312  0.9360 -0.6995
 5266TIP3   OH237288   2.171   6.279   1.517 -0.2369  0.4440 -0.4390
 5266TIP3    H137289   2.098   6.228   1.552  1.5947 -2.9483 -1.1016
 5266TIP3    H237290   2.133   6.329   1.445 -2.2579  0.3973  0.5246
 5267TIP3   OH237291   5.351   6.555  15.392 -0.2011 -0.1814 -0.7644
 5267TIP3    H137292   5.407   6.477  15.402 -0.9765 -0.5687  0.7834
 5267TIP3    H237293   5.397   6.609  15.327  1.7726 -0.6550  0.1676
 5268TIP3   OH237294   1.424   1.209   2.043 -0.1214 -0.1570 -0.3642
 5268TIP3    H137295   1.355   1.255   1.994 -1.0739  0.9724  1.9140
 5268TIP3    H237296   1.504   1.256   2.020 -0.1074 -1.1414 -2.6210
 5269TIP3   OH237297   0.727   1.766  16.235 -0.5380 -0.2648  0.2127
 5269TIP3    H137298   0.647   1.745  16.188 -0.0851 -2.3727  0.2829
 5269TIP3    H237299   0.765   1.681  16.257  0.2314  0.6442  2.7474
 5270TIP3   OH237300   5.616   1.324  15.341 -0.2519 -0.6371  0.6766
 5270TIP3    H137301   5.532   1.279  15.342  0.5127 -2.2217 -0.8924
 5270TIP3    H237302   5.669   1.275  15.278  1.9295  0.1787  1.7719
 5271TIP3   OH237303   5.169   3.181   2.481 -0.3424  0.6274 -0.0507
 5271TIP3    H137304   5.235   3.161   2.415 -0.0987 -0.9136  0.5996
 5271TIP3    H237305   5.143   3.271   2.463  0.9504  0.8161 -1.1652
 5272TIP3   OH237306   5.117   4.766   0.408  0.2365 -0.0879 -0.2969
 5272TIP3    H137307   5.119   4.774   0.313  0.7208 -0.8597 -0.3677
 5272TIP3    H237308   5.123   4.671   0.424 -1.6736 -0.1215  0.4620
 5273TIP3   OH237309   4.772   2.700   4.114 -0.4892 -0.1537  0.5170
 5273TIP3    H137310   4.709   2.632   4.137  0.8342 -1.0254  1.7225
 5273TIP3    H237311   4.846   2.685   4.172  1.9029 -0.6465 -2.4131
 5274TIP3   OH237312   3.909   2.423   3.406  0.2575 -0.1448 -0.2195
 5274TIP3    H137313   3.918   2.506   3.358 -1.3575  0.1169 -0.1127
 5274TIP3    H237314   3.999   2.392   3.417  0.9890  2.0868  0.6140
 5275TIP3   OH237315   0.097   1.084   0.749 -0.2761  0.1471 -0.4039
 5275TIP3    H137316   0.095   1.022   0.822 -0.5130 -1.4706 -1.7304
 5275TIP3    H237317   0.187   1.118   0.750 -0.1695 -0.1229  0.4032
 5276TIP3   OH237318   0.376   6.109   3.060  0.6455 -0.2893 -0.1144
 5276TIP3    H137319   0.314   6.037   3.068  0.8672 -0.4028  0.6503
 5276TIP3    H237320   0.324   6.182   3.027 -0.0111 -0.2404  0.9991
 5277TIP3   OH237321   6.330   6.556  16.548  0.1829  0.1753 -0.0089
 5277TIP3    H137322   6.374   6.530  16.467  1.5073 -1.1087  1.0526
 5277TIP3    H237323   6.345   6.650  16.555  0.6868  0.1683 -0.8926
 5278TIP3   OH237324   6.693   3.129  16.836  0.3310  0.3069  0.1491
 5278TIP3    H137325   6.661   3.144  16.747 -0.4281  1.0538  0.5299
 5278TIP3    H237326   6.788   3.122  16.827  0.1459 -1.4129 -0.9416
 5279TIP3   OH237327   4.659   5.296  15.808 -0.0128  0.1906 -0.0892
 5279TIP3    H137328   4.676   5.385  15.774 -0.2314  0.1854 -0.2134
 5279TIP3    H237329   4.574   5.303  15.851  0.9571  0.5876  1.8550
 5280TIP3   OH237330   0.793   6.675  11.382 -0.3861 -0.0662  0.5113
 5280TIP3    H137331   0.847   6.607  11.422  0.2959  0.3177  0.2506
 5280TIP3    H237332   0.709   6.632  11.365 -0.0724 -0.7467  0.6635
 5281TIP3   OH237333   0.766   1.920  15.834  0.5733 -0.1243  0.2456
 5281TIP3    H137334   0.753   2.014  15.825  0.8001 -0.1002  0.1751
 5281TIP3    H237335   0.816   1.910  15.914  2.5262 -0.0192 -0.9098
 5282TIP3   OH237336   5.713   4.665   2.963 -0.2024  0.0591 -0.7608
 5282TIP3    H137337   5.725   4.712   3.046 -0.8832 -2.4622  0.8792
 5282TIP3    H237338   5.782   4.699   2.906  2.1070 -0.0373  1.7675
 5283TIP3   OH237339   3.823   1.815   1.386  0.3231  0.1736 -0.4959
 5283TIP3    H137340   3.898   1.775   1.343 -0.8862 -2.0333 -0.7434
 5283TIP3    H237341   3.852   1.831   1.476  0.7410 -1.9132 -0.2057
 5284TIP3   OH237342   4.495   4.749   4.591 -0.6758  0.2280  0.2734
 5284TIP3    H137343   4.415   4.770   4.639 -0.4335  1.9543 -0.0237
 5284TIP3    H237344   4.520   4.831   4.548  1.9939  0.1318  1.4292
 5285TIP3   OH237345   4.125   6.573  11.349  0.0011 -0.0903 -0.1179
 5285TIP3    H137346   4.039   6.615  11.348 -1.2455 -2.4045  0.5350
 5285TIP3    H237347   4.139   6.550  11.441  1.9016  1.2422 -0.0191
 5286TIP3   OH237348   6.361   0.021   3.580  0.0018 -0.6829  0.0345
 5286TIP3    H137349   6.340   0.073   3.657 -0.6483 -0.5628 -0.2153
 5286TIP3    H237350   6.277  -0.017   3.553  0.4291 -1.6781  0.0804
 5287TIP3   OH237351   1.221   0.174   6.395  0.2652  0.5486  0.0603
 5287TIP3    H137352   1.256   0.172   6.484  0.2195  1.4758  0.1077
 5287TIP3    H237353   1.266   0.248   6.353  0.0113  0.3532 -0.5686
 5288TIP3   OH237354   2.210   5.709  13.432 -0.5519  0.7395 -0.1681
 5288TIP3    H137355   2.184   5.800  13.449 -1.1688  0.8856 -1.7417
 5288TIP3    H237356   2.132   5.668  13.396  0.7483  0.6791 -3.2421
 5289TIP3   OH237357   2.570   6.065   4.170 -0.4783  0.0301 -0.3040
 5289TIP3    H137358   2.513   6.134   4.135 -1.4851  0.0945  1.3522
 5289TIP3    H237359   2.647   6.066   4.112 -1.4864  0.9543 -1.7080
 5290TIP3   OH237360   3.130   3.269  14.107  0.1075 -0.0093 -0.0819
 5290TIP3    H137361   3.199   3.203  14.098 -0.5968 -0.7838  0.0952
 5290TIP3    H237362   3.127   3.289  14.200 -1.4508 -1.7080  0.2870
 5291TIP3   OH237363   3.317   2.870   2.777 -0.0457 -0.4363  0.8650
 5291TIP3    H137364   3.325   2.783   2.815 -0.4304 -0.6044  0.5685
 5291TIP3    H237365   3.276   2.855   2.692  1.4317 -0.1445  0.0726
 5292TIP3   OH237366   4.444   4.966  15.355 -0.2181 -0.0223 -0.7569
 5292TIP3    H137367   4.389   5.033  15.315  0.9622  1.7862  0.4559
 5292TIP3    H237368   4.419   4.885  15.313  0.8585  1.6439 -5.1149
 5293TIP3   OH237369   3.789   2.281   0.647 -0.5068 -0.2609 -0.4055
 5293TIP3    H137370   3.776   2.187   0.664 -1.2292 -0.3619 -1.4314
 5293TIP3    H237371   3.816   2.285   0.555 -1.8780  0.6238 -0.7938
 5294TIP3   OH237372   3.210   2.023   0.670 -0.4875  0.2767 -0.2226
 5294TIP3    H137373   3.174   2.074   0.597 -0.9870 -1.0057 -0.9050
 5294TIP3    H237374   3.148   1.952   0.683 -0.2431  0.3062  1.2822
 5295TIP3   OH237375   4.791   3.865  12.373  0.1435  0.3761 -0.6704
 5295TIP3    H137376   4.799   3.959  12.358 -2.2993  0.9065  0.7163
 5295TIP3    H237377   4.721   3.838  12.314  0.1224 -0.3362 -0.3249
 5296TIP3   OH237378   2.030   2.556  11.822 -0.0202  0.2807  0.4608
 5296TIP3    H137379   2.078   2.557  11.905  1.7666 -1.5933 -0.4536
 5296TIP3    H237380   2.098   2.566  11.755 -1.1815 -0.1523 -0.8360
 5297TIP3   OH237381   2.866   0.423  13.480 -0.2891  0.4889 -0.4817
 5297TIP3    H137382   2.938   0.414  13.418 -0.5225 -0.0406 -0.6837
 5297TIP3    H237383   2.870   0.514  13.508  0.1874  0.5777 -0.8214
 5298TIP3   OH237384   0.599   0.102  12.113 -0.8032 -0.1306 -0.5808
 5298TIP3    H137385   0.605   0.011  12.083 -0.1570 -0.4652  0.5019
 5298TIP3    H237386   0.645   0.152  12.045  1.5548 -0.9884  0.2761
 5299TIP3   OH237387   2.624   2.905   2.630  0.3866  0.8217 -0.3754
 5299TIP3    H137388   2.653   2.843   2.564 -0.6955  0.9355 -0.9746
 5299TIP3    H237389   2.679   2.982   2.617  1.8737 -0.0274  0.4963
 5300TIP3   OH237390   3.086   1.955   3.825  0.1828  0.0555 -0.7893
 5300TIP3    H137391   3.078   2.038   3.873  1.0795 -0.6750  0.7136
 5300TIP3    H237392   3.001   1.942   3.785  0.0192  1.7003 -1.0554
 5301TIP3   OH237393   4.736   2.633   5.235 -0.0678 -0.2757  0.0266
 5301TIP3    H137394   4.731   2.540   5.259 -0.5054  0.0060  1.0901
 5301TIP3    H237395   4.697   2.638   5.148 -1.6247 -0.8547  0.6529
 5302TIP3   OH237396   2.398   2.131   5.706  0.2421 -0.1913 -0.2171
 5302TIP3    H137397   2.453   2.070   5.756  0.0797 -0.4857 -0.3906
 5302TIP3    H237398   2.428   2.218   5.731  1.5844 -0.3457 -1.1908
 5303TIP3   OH237399   1.178   0.685   3.604  0.7286  0.3849  0.1999
 5303TIP3    H137400   1.228   0.758   3.569  0.5024  0.5509  0.2263
 5303TIP3    H237401   1.223   0.607   3.571 -0.7806  0.4878 -2.3809
 5304TIP3   OH237402   4.910   1.600  15.002  0.2754 -0.3414  0.0023
 5304TIP3    H137403   4.978   1.630  14.942  0.2253 -1.6436 -0.7602
 5304TIP3    H237404   4.901   1.506  14.983 -2.6641  0.0111 -0.9105
 5305TIP3   OH237405   1.986   6.785   5.992 -0.0438  0.2409 -0.5802
 5305TIP3    H137406   1.960   6.732   5.917 -2.3470  0.4504  0.0175
 5305TIP3    H237407   1.905   6.801   6.041  1.3353  0.2043  1.9108
 5306TIP3   OH237408   5.267   0.373  15.249  0.1627  0.2602  0.1531
 5306TIP3    H137409   5.182   0.396  15.289  0.7482 -1.7858  2.8501
 5306TIP3    H237410   5.330   0.386  15.320  1.5920 -1.6771 -0.7074
 5307TIP3   OH237411   5.749   1.654  12.697  0.2968 -0.5630 -0.0324
 5307TIP3    H137412   5.814   1.723  12.714  2.2723 -2.8159  2.5143
 5307TIP3    H237413   5.743   1.650  12.601  1.6828  1.7203 -0.2882
 5308TIP3   OH237414   4.953   2.732   1.885  0.6201  0.0375  0.1583
 5308TIP3    H137415   4.993   2.671   1.947 -0.3824  2.2507  3.1771
 5308TIP3    H237416   4.877   2.685   1.851 -0.1821 -0.4603  2.4674
 5309TIP3   OH237417   6.184   1.308  13.967  0.1728  0.3030  0.3720
 5309TIP3    H137418   6.091   1.302  13.989  0.0634 -0.1164 -0.1810
 5309TIP3    H237419   6.186   1.308  13.871  0.6641  1.5956  0.3589
 5310TIP3   OH237420   2.002   3.737  12.025  0.1605 -0.0645  0.0595
 5310TIP3    H137421   2.015   3.813  12.083  0.4033 -2.0539  2.8427
 5310TIP3    H237422   2.074   3.743  11.962  1.6605  0.7288  1.7513
 5311TIP3   OH237423   1.342   2.935  13.882 -0.2352 -0.7514 -0.0812
 5311TIP3    H137424   1.252   2.907  13.865 -0.1705 -0.0122 -1.9498
 5311TIP3    H237425   1.335   3.028  13.901  0.0250 -0.9778  1.2270
 5312TIP3   OH237426   5.613   0.640  15.594  0.3373 -0.2041  0.2746
 5312TIP3    H137427   5.701   0.678  15.597  0.6181 -0.8914  0.7450
 5312TIP3    H237428   5.619   0.559  15.644 -0.8305  0.2820  1.2580
 5313TIP3   OH237429   0.211   3.660   5.821 -0.5419  0.3434  0.6611
 5313TIP3    H137430   0.259   3.676   5.740 -0.6021 -0.4098  0.4701
 5313TIP3    H237431   0.134   3.610   5.794 -0.7082  0.3338  1.1459
 5314TIP3   OH237432   4.424   0.043  16.089 -0.1539 -0.2148 -0.2266
 5314TIP3    H137433   4.477  -0.036  16.099 -0.3935 -0.4265 -0.6184
 5314TIP3    H237434   4.339   0.012  16.058 -0.7444  0.0523  1.0152
 5315TIP3   OH237435   4.150   1.320  10.571 -0.0852  0.3530 -0.9456
 5315TIP3    H137436   4.103   1.258  10.627 -1.1287  2.2808  0.4389
 5315TIP3    H237437   4.117   1.302  10.483 -1.5301 -0.0410 -0.3510
 5316TIP3   OH237438   4.943   1.562   1.508  0.5157 -0.2649 -0.2640
 5316TIP3    H137439   4.963   1.468   1.509  3.0110  0.1978 -0.8107
 5316TIP3    H237440   4.877   1.573   1.577  0.7148 -2.3015  0.3202
 5317TIP3   OH237441   6.072   4.658  11.411 -0.4316 -0.0551  0.4903
 5317TIP3    H137442   6.016   4.675  11.336  0.6854  0.8289 -0.1789
 5317TIP3    H237443   6.111   4.743  11.431  1.4740 -0.8256  0.2512
 5318TIP3   OH237444   1.978   5.992  13.032 -0.1378  0.0616  0.4219
 5318TIP3    H137445   1.993   5.997  12.937  2.4552 -1.8418  0.5873
 5318TIP3    H237446   2.003   6.078  13.065 -0.6076  0.5942 -0.5528
 5319TIP3   OH237447   1.961   5.203  16.397  0.0054 -0.1595 -0.4089
 5319TIP3    H137448   1.941   5.150  16.474 -0.5933  1.1020  0.3439
 5319TIP3    H237449   2.027   5.153  16.349 -0.9534 -1.8322 -0.0443
 5320TIP3   OH237450   2.612   6.227  14.117 -0.3547  0.0639  0.6988
 5320TIP3    H137451   2.688   6.179  14.085 -0.4185  0.7870 -0.6048
 5320TIP3    H237452   2.601   6.198  14.208  0.3193 -1.4568  0.3187
 5321TIP3   OH237453   3.319   5.070  12.774 -0.1328  0.1390 -1.0723
 5321TIP3    H137454   3.301   5.142  12.835  0.5677 -1.2706  0.8910
 5321TIP3    H237455   3.234   5.026  12.764 -0.1961  0.2077 -0.8622
 5322TIP3   OH237456   6.334   4.775  10.832  0.4232  0.6416  0.1521
 5322TIP3    H137457   6.358   4.692  10.792  0.7153  0.3057  1.0065
 5322TIP3    H237458   6.238   4.772  10.839  0.5194 -0.1170  1.2333
 5323TIP3   OH237459   3.322   2.288   3.985 -0.5860  0.0844  0.0507
 5323TIP3    H137460   3.386   2.230   3.944 -0.8530  0.7981 -1.4307
 5323TIP3    H237461   3.374   2.341   4.046 -0.2123 -1.0961  0.7979
 5324TIP3   OH237462   5.958   5.498  14.012  0.0189 -0.3916  1.0312
 5324TIP3    H137463   6.023   5.508  13.942 -0.1457 -0.5709  0.8527
 5324TIP3    H237464   5.921   5.586  14.023  0.4645 -0.2302  1.3088
 5325TIP3   OH237465   3.116   4.078  11.564 -0.1639  0.4349  0.0786
 5325TIP3    H137466   3.198   4.032  11.545  0.9984  1.5083  2.1758
 5325TIP3    H237467   3.101   4.133  11.487  0.2091 -0.9440 -1.0139
 5326TIP3   OH237468   3.042   0.498  15.002 -0.1025  0.0164  0.0872
 5326TIP3    H137469   3.055   0.532  15.091  0.6981  0.9148 -0.3519
 5326TIP3    H237470   3.071   0.407  15.008  1.3353  0.4590  0.4429
 5327TIP3   OH237471   1.492   3.405  16.494 -0.5650 -0.1101  0.1855
 5327TIP3    H137472   1.573   3.402  16.545 -0.1293  0.3140 -0.4703
 5327TIP3    H237473   1.436   3.466  16.542 -0.5635 -0.5227  0.7255
 5328TIP3   OH237474   0.924   4.881   3.522  0.5281 -0.1910 -0.3443
 5328TIP3    H137475   0.922   4.867   3.617 -0.4363  1.2214 -0.1197
 5328TIP3    H237476   1.007   4.841   3.494 -0.0266 -2.3098  0.7734
 5329TIP3   OH237477   2.172   0.006  14.765 -0.3942  0.2202  0.7029
 5329TIP3    H137478   2.244   0.042  14.817  0.7362 -1.2249  0.2059
 5329TIP3    H237479   2.124  -0.049  14.827 -1.8356  2.1115  1.3398
 5330TIP3   OH237480   4.004   2.262   3.027 -1.0077 -0.5281  0.6951
 5330TIP3    H137481   3.934   2.197   3.022 -0.7680 -0.7533  0.0309
 5330TIP3    H237482   4.082   2.214   2.999 -1.1306  0.4460 -1.5523
 5331TIP3   OH237483   0.845   6.114  13.301 -0.2941 -0.3664  0.0877
 5331TIP3    H137484   0.937   6.090  13.306  0.1959  1.5361  1.4629
 5331TIP3    H237485   0.798   6.041  13.341  0.5038 -1.7225 -1.3738
 5332TIP3   OH237486   6.247   2.923   0.675  0.2550  0.2080 -0.5328
 5332TIP3    H137487   6.281   2.881   0.596 -1.1415  0.1892 -1.1552
 5332TIP3    H237488   6.197   2.998   0.642  0.5282  0.8212  0.4117
 5333TIP3   OH237489   6.427   1.150   1.811  0.1898 -0.9541  0.5293
 5333TIP3    H137490   6.340   1.114   1.792  1.0679 -2.4947 -0.7277
 5333TIP3    H237491   6.415   1.199   1.892 -2.1040 -0.2051 -0.1831
 5334TIP3   OH237492   6.716   4.700   5.947  0.1586 -0.0484  0.5839
 5334TIP3    H137493   6.693   4.784   5.987  1.0476  0.1670  0.6798
 5334TIP3    H237494   6.712   4.637   6.019 -1.0355 -0.1950  0.3990
 5335TIP3   OH237495   3.827   2.364   5.218  0.9357 -0.1637 -0.3184
 5335TIP3    H137496   3.784   2.443   5.185  1.8316 -0.1617 -1.5411
 5335TIP3    H237497   3.777   2.340   5.296  0.1205  1.1114 -0.4292
 5336TIP3   OH237498   6.351   4.359   5.859 -0.1578 -0.0293 -0.3078
 5336TIP3    H137499   6.437   4.316   5.858  0.1190  0.4956  0.3194
 5336TIP3    H237500   6.352   4.416   5.783  0.1357  0.1236 -0.1943
 5337TIP3   OH237501   4.079   0.737   1.970 -0.0679  0.0282  0.2811
 5337TIP3    H137502   4.021   0.702   1.903 -1.8273  2.2872  0.5119
 5337TIP3    H237503   4.021   0.766   2.040  1.3841  1.6858  0.8777
 5338TIP3   OH237504   2.635   6.701  11.984  0.0895 -0.6157  0.4658
 5338TIP3    H137505   2.690   6.774  12.013  2.0655 -1.6771 -0.4232
 5338TIP3    H237506   2.665   6.627  12.036 -0.1617 -1.3149 -0.3726
 5339TIP3   OH237507   5.954   5.527   1.107  0.3281 -0.5400 -0.0980
 5339TIP3    H137508   6.044   5.560   1.106 -0.0199  0.4948 -1.9888
 5339TIP3    H237509   5.959   5.443   1.060 -0.0544  0.7711 -2.6342
 5340TIP3   OH237510   0.758   4.603   5.456  0.2435 -0.1666 -0.0748
 5340TIP3    H137511   0.708   4.659   5.516 -0.3232  0.6032 -1.2410
 5340TIP3    H237512   0.753   4.516   5.496  0.6908  0.4863  1.4893
 5341TIP3   OH237513   3.955   2.581   0.996  0.0280  0.0920 -0.2678
 5341TIP3    H137514   3.885   2.588   0.931  0.5431 -2.5808 -1.2291
 5341TIP3    H237515   3.944   2.659   1.051 -2.9779  0.3583 -1.0570
 5342TIP3   OH237516   2.938   0.111  12.664  0.2724 -0.0148  0.1663
 5342TIP3    H137517   2.955   0.174  12.594  1.4096 -2.3373 -1.8193
 5342TIP3    H237518   2.851   0.077  12.644  0.1969  0.0063  0.4654
 5343TIP3   OH237519   5.013   6.267   3.144  0.1816  0.1855 -0.5257
 5343TIP3    H137520   5.007   6.234   3.054  1.8019 -1.0086 -0.2465
 5343TIP3    H237521   4.928   6.246   3.182  0.3414 -1.6998 -1.0641
 5344TIP3   OH237522   3.295   0.379   3.485 -0.1118 -0.7861 -0.1292
 5344TIP3    H137523   3.278   0.449   3.422  2.3899 -0.8298 -0.9917
 5344TIP3    H237524   3.308   0.301   3.431  0.2763 -1.2241  0.5780
 5345TIP3   OH237525   6.051   5.693  11.093 -0.2172 -0.7139  0.1283
 5345TIP3    H137526   5.978   5.652  11.047  0.3078 -1.0856 -0.3843
 5345TIP3    H237527   6.030   5.786  11.094  0.3719 -0.5092 -2.0176
 5346TIP3   OH237528   4.067   3.590   2.821 -0.1705  0.6154  0.9852
 5346TIP3    H137529   4.104   3.555   2.902  0.0483  0.8706  0.9991
 5346TIP3    H237530   4.125   3.663   2.799  1.7297 -1.3589 -1.1322
 5347TIP3   OH237531   0.775   4.946  16.300 -0.1929 -0.3046  0.5007
 5347TIP3    H137532   0.769   4.986  16.387 -0.0182  0.6543  0.0834
 5347TIP3    H237533   0.833   5.004  16.251  0.4501 -1.3345  0.0144
 5348TIP3   OH237534   4.452   4.065  12.999 -0.0504  0.4617 -0.2349
 5348TIP3    H137535   4.492   4.120  13.066 -0.6483 -2.2141  2.5141
 5348TIP3    H237536   4.518   4.059  12.930  1.1139  2.2832  0.6511
 5349TIP3   OH237537   2.927   1.490   2.379  0.3214  0.6484  0.5067
 5349TIP3    H137538   2.836   1.465   2.394  0.3444 -0.1728 -0.5938
 5349TIP3    H237539   2.923   1.556   2.309  0.6615 -0.6903 -0.8257
 5350TIP3   OH237540   0.228   1.465  16.695 -0.0241 -0.3732 -0.7290
 5350TIP3    H137541   0.184   1.389  16.658  1.4522 -1.5787 -0.1048
 5350TIP3    H237542   0.288   1.495  16.627 -1.4490  1.0244 -1.4304
 5351TIP3   OH237543   1.765   5.752  12.274  0.1980 -0.0801 -0.1012
 5351TIP3    H137544   1.824   5.694  12.227 -0.9706 -0.8451 -0.6789
 5351TIP3    H237545   1.816   5.784  12.348  1.5416 -0.1437 -0.9775
 5352TIP3   OH237546   4.167   0.267   0.985 -0.8993 -0.0004 -0.4627
 5352TIP3    H137547   4.262   0.279   0.978 -0.7185 -1.2307 -0.3912
 5352TIP3    H237548   4.145   0.305   1.070  0.0372 -2.2551  0.8833
 5353TIP3   OH237549   1.605   2.044  16.934 -0.2499  0.4462 -0.0079
 5353TIP3    H137550   1.654   2.119  16.970 -0.5198  0.6631 -0.0909
 5353TIP3    H237551   1.667   1.971  16.938 -1.3482 -0.5181  4.3525
 5354TIP3   OH237552   1.605   5.697   5.890  0.4571 -0.2467  0.0513
 5354TIP3    H137553   1.631   5.621   5.838  2.4240  0.3364  0.1223
 5354TIP3    H237554   1.641   5.772   5.843 -0.3677  0.5608  0.6572
 5355TIP3   OH237555   6.162   1.186  16.031 -0.3148  0.5474  0.4947
 5355TIP3    H137556   6.230   1.222  16.088 -0.0345  0.1025  0.4387
 5355TIP3    H237557   6.183   1.220  15.944  0.1764 -0.0662  0.3717
 5356TIP3   OH237558   6.312   6.110   3.248  0.2890 -1.2716  0.3655
 5356TIP3    H137559   6.227   6.066   3.249 -0.6398  0.4415  0.5805
 5356TIP3    H237560   6.344   6.102   3.338  0.3241 -1.8480  0.3049
 5357TIP3   OH237561   3.681   2.696   6.249  0.0770  0.5129 -0.2789
 5357TIP3    H137562   3.658   2.690   6.342 -1.0255 -0.9353 -0.6179
 5357TIP3    H237563   3.713   2.609   6.226  0.4552  0.8942 -1.2323
 5358TIP3   OH237564   4.554   5.049  16.998 -0.2726  0.6463 -0.0424
 5358TIP3    H137565   4.495   5.064  16.925  0.5831  1.6600 -0.5518
 5358TIP3    H237566   4.521   5.106  17.068 -0.0153  1.0704 -0.2636
 5359TIP3   OH237567   5.928   2.521  11.114 -0.7038 -0.1977 -0.3291
 5359TIP3    H137568   5.867   2.568  11.058 -1.5814  0.8168  1.4025
 5359TIP3    H237569   5.875   2.490  11.188  0.4466 -1.2534  0.1049
 5360TIP3   OH237570   4.098   5.149  16.076 -0.5670 -0.3161 -0.3538
 5360TIP3    H137571   4.031   5.106  16.130 -0.6730 -0.5454 -0.6657
 5360TIP3    H237572   4.148   5.202  16.138 -0.4223 -0.8988  0.0410
 5361TIP3   OH237573   2.244   3.993  13.065  0.1807  0.1101 -0.2241
 5361TIP3    H137574   2.192   4.071  13.043  0.3098 -0.0214 -1.0440
 5361TIP3    H237575   2.333   4.016  13.037  0.6847  0.5094  1.5859
 5362TIP3   OH237576   3.302   3.816   5.008  0.3568 -0.0687 -0.5902
 5362TIP3    H137577   3.350   3.809   5.091  1.2778  0.3032 -1.0707
 5362TIP3    H237578   3.268   3.906   5.007 -3.2432 -1.2537  1.2364
 5363TIP3   OH237579   5.740   5.587  17.033  0.2000 -0.2475 -0.0698
 5363TIP3    H137580   5.802   5.536  17.085  1.7313 -1.1435 -2.6209
 5363TIP3    H237581   5.660   5.534  17.032 -0.1779  0.2067  2.0027
 5364TIP3   OH237582   3.759   1.990   0.696 -0.4002 -0.2082 -0.1784
 5364TIP3    H137583   3.664   1.984   0.688 -0.5336  0.9482  0.3744
 5364TIP3    H237584   3.792   1.927   0.632 -1.5317 -0.8539 -0.1609
 5365TIP3   OH237585   3.831   2.236  13.635  0.4422 -0.1146  0.1391
 5365TIP3    H137586   3.806   2.211  13.724 -0.4057  0.0563 -0.0424
 5365TIP3    H237587   3.762   2.200  13.579  0.4724  0.5703 -0.3549
 5366TIP3   OH237588   0.365   2.486   4.269 -0.9490  0.0069  0.3925
 5366TIP3    H137589   0.274   2.512   4.284 -0.9835  1.1234 -1.4016
 5366TIP3    H237590   0.359   2.401   4.226 -1.3873  1.2656 -2.2854
 5367TIP3   OH237591   3.927   2.399   2.772 -0.1174  0.1091 -0.3150
 5367TIP3    H137592   3.994   2.348   2.727 -0.5839 -1.8119  1.0543
 5367TIP3    H237593   3.924   2.363   2.860  0.8033  3.7797  1.3940
 5368TIP3   OH237594   3.554   1.469  11.392  0.1187 -0.2105 -0.3512
 5368TIP3    H137595   3.536   1.546  11.446 -1.6189  1.1546 -2.6817
 5368TIP3    H237596   3.492   1.403  11.422  0.6274 -0.2205  0.7036
 5369TIP3   OH237597   3.859   2.119   3.420  0.2156  0.2530 -0.2709
 5369TIP3    H137598   3.893   2.134   3.508 -0.5473 -2.8088  0.6922
 5369TIP3    H237599   3.857   2.205   3.379  0.6134  1.7944  2.7027
 5370TIP3   OH237600   3.153   4.072  14.926  0.0254  0.2846  0.1233
 5370TIP3    H137601   3.093   4.018  14.874  0.8668  0.3407 -0.9429
 5370TIP3    H237602   3.162   4.025  15.009 -0.2258 -0.5713 -0.3229
 5371TIP3   OH237603   5.836   0.673  13.070  0.1248 -0.3536 -0.1157
 5371TIP3    H137604   5.755   0.635  13.103  0.0745  0.6645  0.9797
 5371TIP3    H237605   5.904   0.639  13.129  0.2911 -0.0385 -0.1234
 5372TIP3   OH237606   4.074   5.489  10.446 -0.1679  0.0728  0.0539
 5372TIP3    H137607   3.982   5.497  10.421 -0.9444 -0.0762  2.5684
 5372TIP3    H237608   4.118   5.557  10.397 -1.9421  1.3281  0.1033
 5373TIP3   OH237609   5.473   2.248   3.646  0.1626  0.8614 -0.6199
 5373TIP3    H137610   5.399   2.196   3.675 -0.8540  2.2458 -0.6360
 5373TIP3    H237611   5.490   2.217   3.557 -0.5732  0.7126 -0.7137
 5374TIP3   OH237612   6.237   4.482  11.552  0.3931 -0.2437 -0.7681
 5374TIP3    H137613   6.213   4.447  11.638 -0.9115 -0.4999 -1.2118
 5374TIP3    H237614   6.207   4.573  11.553  1.5451  0.1535 -0.5087
 5375TIP3   OH237615   3.774   6.149  12.059 -0.1367 -0.1134 -0.5157
 5375TIP3    H137616   3.763   6.183  11.971  0.8834  0.5348 -0.4088
 5375TIP3    H237617   3.864   6.172  12.083  0.5467 -2.6726 -0.3470
 5376TIP3   OH237618   1.800   0.230   5.435 -0.7523  1.1452  0.3191
 5376TIP3    H137619   1.873   0.169   5.443 -1.4356  0.4361  1.4660
 5376TIP3    H237620   1.776   0.250   5.526 -2.3982  0.8345 -0.0200
 5377TIP3   OH237621   6.373   6.283   3.034 -0.2699 -0.4288 -1.2201
 5377TIP3    H137622   6.366   6.235   3.116  0.2742  1.1393 -0.2196
 5377TIP3    H237623   6.327   6.228   2.970 -0.6922 -1.6800  0.1122
 5378TIP3   OH237624   2.875   3.907  12.055 -0.0985  0.1050  0.1475
 5378TIP3    H137625   2.847   3.979  11.999  0.2214 -1.3651 -2.0344
 5378TIP3    H237626   2.947   3.866  12.008 -0.9982 -2.3246  0.6948
 5379TIP3   OH237627   5.546   4.259   5.300 -0.6366 -0.1091 -0.6579
 5379TIP3    H137628   5.537   4.169   5.270  0.0930 -0.4068 -0.0219
 5379TIP3    H237629   5.633   4.263   5.339 -2.2051 -0.3232  3.2922
 5380TIP3   OH237630   3.877   1.894  15.332 -0.7162 -0.2586  0.3816
 5380TIP3    H137631   3.812   1.867  15.398 -1.3652  1.9889  0.7356
 5380TIP3    H237632   3.953   1.923  15.383 -1.0470  1.0578  0.1625
 5381TIP3   OH237633   1.053   4.687   4.587 -0.3163 -0.5090 -0.2786
 5381TIP3    H137634   0.975   4.664   4.536 -1.7366  1.1980  0.9949
 5381TIP3    H237635   1.127   4.663   4.531 -1.7081 -2.5233 -1.3903
 5382TIP3   OH237636   6.115   5.026  16.976  0.3324 -0.1389 -0.1826
 5382TIP3    H137637   6.199   5.054  16.941 -0.8593  1.8864 -1.6721
 5382TIP3    H237638   6.065   4.999  16.899 -1.0531  0.6850  0.3831
 5383TIP3   OH237639   6.609   0.707   5.449  0.7648  0.5748 -0.3197
 5383TIP3    H137640   6.671   0.638   5.424  1.8427  0.5415  2.1017
 5383TIP3    H237641   6.530   0.688   5.398  1.6098 -1.4293 -0.9946
 5384TIP3   OH237642   0.929   1.132  10.668  0.1895 -0.0804 -0.1011
 5384TIP3    H137643   0.981   1.155  10.591  3.0723  1.0130  1.9799
 5384TIP3    H237644   0.851   1.187  10.661  0.6452  0.4106 -1.9178
 5385TIP3   OH237645   1.446   5.421   1.057 -0.4047 -0.6915 -0.0159
 5385TIP3    H137646   1.389   5.364   1.005 -1.1496 -0.4531  0.5195
 5385TIP3    H237647   1.435   5.390   1.147 -2.0152  1.2176  0.5188
 5386TIP3   OH237648   6.772   4.149   3.567  0.2086 -0.4255 -0.5449
 5386TIP3    H137649   6.807   4.080   3.510 -2.4079 -2.4085  0.0790
 5386TIP3    H237650   6.839   4.162   3.633  1.2647 -1.5272 -1.3523
 5387TIP3   OH237651   5.116   5.639  13.021  1.3954 -0.4968  0.0209
 5387TIP3    H137652   5.081   5.682  12.942 -0.7296  3.7846  2.8939
 5387TIP3    H237653   5.198   5.684  13.039  1.1632 -0.4302  0.9695
 5388TIP3   OH237654   6.846   2.641   2.593 -0.5467  0.4047 -0.2091
 5388TIP3    H137655   6.836   2.620   2.500  1.2678  0.4784 -0.4644
 5388TIP3    H237656   6.789   2.579   2.638 -0.8795 -0.1329 -1.3363
 5389TIP3   OH237657   3.532   0.527   0.479 -0.7993  0.0951 -0.2159
 5389TIP3    H137658   3.460   0.517   0.541 -0.6036 -0.9153 -0.1387
 5389TIP3    H237659   3.509   0.605   0.428 -0.4935  1.5649  1.7534
 5390TIP3   OH237660   6.458   3.484  13.963 -0.2483 -0.8117 -0.4361
 5390TIP3    H137661   6.523   3.554  13.975 -0.8169 -0.6058  2.1319
 5390TIP3    H237662   6.484   3.416  14.025 -1.4018 -1.5675 -0.7386
 5391TIP3   OH237663   0.704   6.342  13.531 -0.5064  0.2051 -0.2913
 5391TIP3    H137664   0.615   6.340  13.495 -1.0651  2.0013  0.8430
 5391TIP3    H237665   0.704   6.418  13.589  1.5053 -0.3260  0.4730
 5392TIP3   OH237666   0.667   4.126   4.758  0.3182  0.0696  0.1231
 5392TIP3    H137667   0.665   4.092   4.847 -0.3789 -2.0332 -0.6405
 5392TIP3    H237668   0.760   4.142   4.740  0.5327 -0.1968  0.9715
 5393TIP3   OH237669   5.035   1.978  16.691 -0.4281  0.0875 -0.6114
 5393TIP3    H137670   5.003   2.068  16.685 -2.4842 -0.5727 -0.2296
 5393TIP3    H237671   5.126   1.983  16.661 -0.9673  2.0216 -2.1351
 5394TIP3   OH237672   3.285   0.554  14.868 -0.2369  0.2256  0.5112
 5394TIP3    H137673   3.273   0.533  14.961  0.2487 -0.4481  0.4205
 5394TIP3    H237674   3.211   0.512  14.824 -0.1748  0.1036  0.5252
 5395TIP3   OH237675   3.963   3.712  14.826 -0.2463  0.0327 -0.3027
 5395TIP3    H137676   3.921   3.639  14.783 -0.6513 -0.7938  1.3988
 5395TIP3    H237677   3.891   3.770  14.852 -0.1248 -0.0811  0.3055
 5396TIP3   OH237678   5.931   2.577  12.791  0.2992 -0.0587 -0.1823
 5396TIP3    H137679   5.868   2.562  12.720  1.1699  0.3626 -1.0717
 5396TIP3    H237680   5.942   2.672  12.794  0.8856 -0.1262 -0.0451
 5397TIP3   OH237681   2.967   5.293  13.725 -0.2607  0.3195  0.1861
 5397TIP3    H137682   3.046   5.241  13.741 -0.2559  0.5138  0.8279
 5397TIP3    H237683   2.895   5.237  13.755 -0.2910  0.4980  0.4522
 5398TIP3   OH237684   6.022   4.039  12.292  0.1781 -0.4204  0.2067
 5398TIP3    H137685   6.039   4.120  12.244 -0.2010 -0.0811  0.6428
 5398TIP3    H237686   6.109   4.000  12.303  0.2717 -0.5132 -0.7551
 5399TIP3   OH237687   6.594   0.217  16.104 -0.3649  0.0035  0.4307
 5399TIP3    H137688   6.679   0.173  16.118  0.1459  1.1057  0.9344
 5399TIP3    H237689   6.530   0.156  16.142 -0.0434 -1.7064 -1.5845
 5400TIP3   OH237690   1.061   0.803   3.883  0.3221  0.0631  0.5927
 5400TIP3    H137691   1.063   0.886   3.836 -1.0037 -0.0998  0.2142
 5400TIP3    H237692   1.089   0.738   3.818  0.4534  0.0923  0.6194
 5401TIP3   OH237693   1.511   1.428   3.365 -0.0284 -0.1346  0.2469
 5401TIP3    H137694   1.462   1.348   3.348 -0.0694 -0.2974  1.1001
 5401TIP3    H237695   1.451   1.499   3.343 -0.0048 -0.3305 -0.4692
 5402TIP3   OH237696   1.056   0.305   4.849  0.0448  0.2123 -0.1405
 5402TIP3    H137697   1.146   0.272   4.851 -0.4286 -1.1319  1.3464
 5402TIP3    H237698   1.023   0.288   4.937 -2.2543 -1.0159 -1.1646
 5403TIP3   OH237699   3.969   6.354   5.598  0.0743 -0.2593 -0.0484
 5403TIP3    H137700   4.037   6.398   5.648 -0.4624  0.3013  0.2036
 5403TIP3    H237701   4.001   6.265   5.586  0.4471 -0.2452  0.8266
 5404TIP3   OH237702   6.482   1.152  12.663  0.0013 -0.1715  0.5848
 5404TIP3    H137703   6.560   1.135  12.609 -0.3779  1.3473 -0.5142
 5404TIP3    H237704   6.413   1.099  12.623 -0.4794  1.5705 -1.0079
 5405TIP3   OH237705   0.857   0.887  16.307 -0.6935 -0.6844  0.4077
 5405TIP3    H137706   0.893   0.898  16.395  1.1481  1.0829 -0.4983
 5405TIP3    H237707   0.796   0.960  16.296  0.2048 -0.0174 -0.2810
 5406TIP3   OH237708   4.173   0.451   1.264  0.4392 -0.0752  0.6230
 5406TIP3    H137709   4.089   0.463   1.307 -1.2642  0.4867 -2.5009
 5406TIP3    H237710   4.214   0.378   1.311 -2.0450 -0.7555  1.9213
 5407TIP3   OH237711   1.210   3.746  13.472 -0.4142  0.1786  0.4984
 5407TIP3    H137712   1.135   3.722  13.527 -0.9327 -1.9358 -1.0336
 5407TIP3    H237713   1.234   3.665  13.427 -0.6817  1.9584 -3.1731
 5408TIP3   OH237714   4.715   2.168  15.778  0.1479  0.5093  0.3947
 5408TIP3    H137715   4.626   2.144  15.806  0.4844 -1.0073  0.2336
 5408TIP3    H237716   4.712   2.263  15.772 -1.0639  0.6127  1.7904
 5409TIP3   OH237717   5.089   0.603   5.806  0.3275 -0.3336  0.1096
 5409TIP3    H137718   5.136   0.602   5.890 -1.6401 -0.1858  1.2748
 5409TIP3    H237719   5.036   0.682   5.809 -0.8627 -1.0747 -0.6297
 5410TIP3   OH237720   0.784   4.072   6.546  0.0491  0.1124 -1.0795
 5410TIP3    H137721   0.817   4.005   6.485  0.1354  0.0569 -0.9729
 5410TIP3    H237722   0.738   4.022   6.613 -0.3768  0.2005 -1.3019
 5411TIP3   OH237723   1.697   1.964  16.053  0.0025  0.1795 -0.3920
 5411TIP3    H137724   1.665   2.016  16.126  0.0144 -1.9617  1.2237
 5411TIP3    H237725   1.657   1.878  16.064 -0.1778 -0.1845 -3.0637
 5412TIP3   OH237726   4.128   2.344  11.661  0.1384  0.4182 -0.4078
 5412TIP3    H137727   4.093   2.390  11.737  0.4435  1.7596 -1.0394
 5412TIP3    H237728   4.051   2.322  11.609 -0.0686 -0.4707  0.2458
 5413TIP3   OH237729   6.365   0.009  16.646  0.5248 -0.1901 -0.0686
 5413TIP3    H137730   6.372   0.099  16.616  1.3707 -1.5974 -5.1712
 5413TIP3    H237731   6.273  -0.014  16.636  0.5397 -0.2569 -0.0568
 5414TIP3   OH237732   2.119   4.739   4.753 -0.3352  0.8195  0.3514
 5414TIP3    H137733   2.124   4.659   4.805 -0.6201  1.0371  0.7203
 5414TIP3    H237734   2.028   4.742   4.723 -0.2153  0.7831 -0.0201
 5415TIP3   OH237735   1.799   1.730  11.843  0.7667 -0.4806 -0.1552
 5415TIP3    H137736   1.768   1.788  11.773  0.6528 -1.5744 -1.0464
 5415TIP3    H237737   1.729   1.732  11.908 -0.0104 -0.9034 -0.9491
 5416TIP3   OH237738   6.462   3.516   3.398  0.4827  0.2417 -0.5165
 5416TIP3    H137739   6.489   3.503   3.489 -1.2164  0.6512  0.0889
 5416TIP3    H237740   6.518   3.586   3.366  1.6062 -0.4072 -0.0425
 5417TIP3   OH237741   0.281   1.844  14.605  0.0074 -0.2960 -0.0951
 5417TIP3    H137742   0.267   1.920  14.661 -0.5579  0.9525 -1.8399
 5417TIP3    H237743   0.314   1.776  14.664 -2.7098  0.1811  2.1867
 5418TIP3   OH237744   0.045   1.208  13.477  0.7164  0.7626 -0.1930
 5418TIP3    H137745   0.129   1.253  13.466  1.3294 -0.1956  0.4137
 5418TIP3    H237746   0.058   1.122  13.438  0.0817  0.5279  0.0909
 5419TIP3   OH237747   2.888   6.321   3.785  0.0971  0.4816 -0.6201
 5419TIP3    H137748   2.919   6.235   3.812 -1.9696 -0.3340 -0.6473
 5419TIP3    H237749   2.926   6.334   3.698  0.2331 -0.5280 -0.7218
 5420TIP3   OH237750   5.321   2.668   5.119 -0.5218 -0.0920  0.0484
 5420TIP3    H137751   5.265   2.719   5.178 -1.9080 -1.5948  0.0988
 5420TIP3    H237752   5.293   2.695   5.031 -0.1055  0.4138  0.0661
 5421TIP3   OH237753   2.815   0.116   0.709 -0.6461 -0.2070  0.2008
 5421TIP3    H137754   2.814   0.113   0.805  0.6604 -0.0351  0.2354
 5421TIP3    H237755   2.873   0.189   0.688 -0.8888 -0.2702 -0.7241
 5422TIP3   OH237756   6.118   0.527  14.685  0.1162  0.2388  0.0463
 5422TIP3    H137757   6.127   0.455  14.623  0.4550  0.5039 -0.2163
 5422TIP3    H237758   6.118   0.606  14.630  0.7736  0.4956  0.4105
 5423TIP3   OH237759   0.960   2.123   5.678  0.1728 -0.2525 -0.2584
 5423TIP3    H137760   1.040   2.074   5.655  0.3582  0.5767 -1.4764
 5423TIP3    H237761   0.972   2.209   5.638 -1.1576  0.0236 -0.1097
 5424TIP3   OH237762   3.916   6.669   4.690 -0.4065  0.1500 -0.1064
 5424TIP3    H137763   3.860   6.727   4.741  0.1173  1.1198 -0.6036
 5424TIP3    H237764   4.001   6.672   4.735 -0.0860  0.6105 -0.7320
 5425TIP3   OH237765   0.434   1.524  15.651 -0.1112  0.4660 -0.1450
 5425TIP3    H137766   0.349   1.544  15.611 -0.9451 -0.7035  0.9604
 5425TIP3    H237767   0.469   1.609  15.677 -0.3487  1.0791 -1.7393
 5426TIP3   OH237768   2.233   3.646  14.146  0.0043  0.7365  0.4070
 5426TIP3    H137769   2.252   3.708  14.076  0.7942  0.7648  0.6344
 5426TIP3    H237770   2.170   3.691  14.202 -1.9975  0.0434 -1.2040
 5427TIP3   OH237771   5.967   2.415  10.606  0.4398 -0.5691  0.6591
 5427TIP3    H137772   5.905   2.410  10.679  0.7661  0.9793  1.0722
 5427TIP3    H237773   5.957   2.331  10.561 -1.6333 -0.5567  0.9745
 5428TIP3   OH237774   5.153   2.559  12.194 -0.2456 -0.3420 -0.0347
 5428TIP3    H137775   5.178   2.598  12.110 -2.2161 -1.2809 -1.1387
 5428TIP3    H237776   5.192   2.471  12.192  0.1136 -0.1907  0.2573
 5429TIP3   OH237777   5.047   2.936   2.249 -0.2755  0.4212  0.1806
 5429TIP3    H137778   5.073   2.862   2.303  0.8163  0.5110 -0.1855
 5429TIP3    H237779   5.128   2.987   2.239 -0.9432  1.5412  0.2352
 5430TIP3   OH237780   1.899   4.241   5.202 -0.7475  0.1325 -0.4866
 5430TIP3    H137781   1.868   4.273   5.118 -0.5342  0.5867 -0.3958
 5430TIP3    H237782   1.977   4.191   5.182 -0.1160  1.0825 -0.4669
 5431TIP3   OH237783   0.521   6.234   4.769  0.1157  0.4616 -0.4578
 5431TIP3    H137784   0.447   6.189   4.728  1.3740 -2.0492 -0.1743
 5431TIP3    H237785   0.587   6.166   4.781  1.2485  1.8878  2.3116
 5432TIP3   OH237786   1.369   0.329  11.619  0.3211 -0.2271 -1.0162
 5432TIP3    H137787   1.403   0.298  11.535  0.7375  0.6846 -1.1996
 5432TIP3    H237788   1.446   0.367  11.663  0.0905 -0.6284 -0.2505
 5433TIP3   OH237789   4.896   5.563   0.836 -0.1592  0.3040  0.1805
 5433TIP3    H137790   4.920   5.610   0.916 -0.7314 -1.0977  1.2013
 5433TIP3    H237791   4.953   5.486   0.835 -0.7361 -0.1294 -0.3316
 5434TIP3   OH237792   3.985   2.255  15.387  0.9254 -0.3673 -0.2085
 5434TIP3    H137793   4.019   2.338  15.353  0.2672 -1.4088 -3.7472
 5434TIP3    H237794   3.894   2.274  15.409  0.4681 -0.3045 -1.9897
 5435TIP3   OH237795   1.691   4.960   1.633  0.6376  0.2428  0.3128
 5435TIP3    H137796   1.634   5.002   1.697  2.3036 -0.7659  2.6193
 5435TIP3    H237797   1.728   5.033   1.583 -0.3716  1.0990  0.7706
 5436TIP3   OH237798   6.590   0.501  11.328  0.6309  0.4736  0.0414
 5436TIP3    H137799   6.616   0.505  11.236  1.3687  0.3981  0.2404
 5436TIP3    H237800   6.656   0.445  11.369 -0.4938 -0.6774  0.3564
 5437TIP3   OH237801   1.748   5.947   0.647 -0.1972 -0.1497  0.0276
 5437TIP3    H137802   1.779   5.872   0.698 -0.1308  0.4040  0.8272
 5437TIP3    H237803   1.814   6.015   0.662 -0.4686  0.2069 -0.3564
 5438TIP3   OH237804   0.015   5.824  16.628 -0.2898 -0.5095 -0.1046
 5438TIP3    H137805   0.055   5.821  16.714  1.0080  1.9156 -0.5138
 5438TIP3    H237806   0.042   5.909  16.592 -4.4070  0.6051 -1.1427
 5439TIP3   OH237807   4.788   0.788   4.484  0.4050  0.5635 -0.2052
 5439TIP3    H137808   4.801   0.835   4.402 -1.7337  2.4871  0.4396
 5439TIP3    H237809   4.771   0.698   4.458  2.1627  0.6047 -1.6638
 5440TIP3   OH237810   6.416   2.443   1.280  0.3342 -0.1723 -0.3397
 5440TIP3    H137811   6.488   2.503   1.299  0.5704  0.0686 -1.8459
 5440TIP3    H237812   6.373   2.482   1.203 -2.2219  0.4028  1.2477
 5441TIP3   OH237813   4.187   5.615  13.442  0.1418 -0.3783  0.0832
 5441TIP3    H137814   4.208   5.685  13.504  1.7257  1.6082 -2.4675
 5441TIP3    H237815   4.264   5.558  13.444  1.1281  0.8056 -1.3593
 5442TIP3   OH237816   4.979   4.242   4.874 -0.2252 -0.2569 -0.0747
 5442TIP3    H137817   4.910   4.292   4.917  0.8663  0.9035  0.4215
 5442TIP3    H237818   4.951   4.235   4.783 -0.5503  1.0646 -0.1010
 5443TIP3   OH237819   3.003   1.881   6.122  0.2739  0.5143  0.2224
 5443TIP3    H137820   3.018   1.805   6.179  1.5248 -0.3981 -1.2552
 5443TIP3    H237821   2.967   1.843   6.041  0.1912  1.5893 -0.2594
 5444TIP3   OH237822   3.444   4.190   0.361 -0.0580  0.1177 -0.1992
 5444TIP3    H137823   3.411   4.179   0.272 -0.2649 -0.8795 -0.0134
 5444TIP3    H237824   3.415   4.111   0.407  0.2081  0.5338  0.6998
 5445TIP3   OH237825   5.126   6.254  14.778  0.3500  0.3008 -0.0387
 5445TIP3    H137826   5.054   6.219  14.726 -0.9283  0.4189  1.5837
 5445TIP3    H237827   5.204   6.212  14.743 -0.7369 -1.3816 -0.5308
 5446TIP3   OH237828   6.852   0.550  14.266  0.0988  0.1536  0.1669
 5446TIP3    H137829   6.894   0.518  14.346 -1.7683  1.9024  1.9670
 5446TIP3    H237830   6.806   0.473  14.231  0.5953 -0.5451  0.9938
 5447TIP3   OH237831   1.746   6.091  11.733  0.2981 -0.1416  0.1587
 5447TIP3    H137832   1.705   6.097  11.647 -0.3643 -1.4194  0.3676
 5447TIP3    H237833   1.780   6.179  11.750 -0.6609  0.4368 -0.8629
 5448TIP3   OH237834   3.737   2.469   3.629 -0.0419 -0.2060  0.2151
 5448TIP3    H137835   3.770   2.481   3.540  1.2373  0.8351  0.7968
 5448TIP3    H237836   3.815   2.458   3.683 -0.8047 -0.9632  1.2009
 5449TIP3   OH237837   4.892   5.855   1.632  0.0344 -0.0546 -0.0418
 5449TIP3    H137838   4.937   5.863   1.548  0.6570  1.0187  0.3733
 5449TIP3    H237839   4.916   5.934   1.680 -1.9801  0.3597  0.3588
 5450TIP3   OH237840   2.107   5.090  15.195 -0.1998 -0.9422  0.2361
 5450TIP3    H137841   2.132   5.018  15.137  0.3811 -1.5763  1.2571
 5450TIP3    H237842   2.018   5.068  15.224 -0.1364 -1.0878  0.3158
 5451TIP3   OH237843   5.211   2.511  16.000 -0.2597  0.0473  0.0653
 5451TIP3    H137844   5.174   2.430  16.035  1.0424 -0.6608 -0.1438
 5451TIP3    H237845   5.264   2.547  16.072  2.3869 -1.3883 -1.0274
 5452TIP3   OH237846   0.294   5.206   1.387  0.1319 -0.3670 -0.5502
 5452TIP3    H137847   0.341   5.277   1.432 -0.2162 -0.2214 -0.4146
 5452TIP3    H237848   0.202   5.232   1.390 -0.0786 -1.1463  0.0798
 5453TIP3   OH237849   5.012   6.340   4.195 -0.0409  0.2548  0.0295
 5453TIP3    H137850   4.938   6.393   4.223  0.0490  0.7526 -0.6464
 5453TIP3    H237851   5.034   6.373   4.108  1.0564  0.2085  0.2692
 5454TIP3   OH237852   1.940   6.756  14.328 -0.1006  0.0841  0.1941
 5454TIP3    H137853   1.953   6.840  14.373  0.9837 -0.5094  1.0242
 5454TIP3    H237854   1.871   6.712  14.377 -0.6221  0.4411 -0.2013
 5455TIP3   OH237855   6.589   0.478   3.363 -0.1546 -0.0835  0.3229
 5455TIP3    H137856   6.619   0.568   3.375 -0.1465 -0.0419  0.0170
 5455TIP3    H237857   6.582   0.442   3.451  1.7270 -0.3932  0.3975
 5456TIP3   OH237858   5.853   1.808  16.129 -0.2623 -0.3442  0.6730
 5456TIP3    H137859   5.919   1.869  16.095 -0.7610  1.5533  2.8535
 5456TIP3    H237860   5.900   1.754  16.193 -0.3796 -0.4295  0.6875
 5457TIP3   OH237861   2.577   3.216  13.437 -0.1828  0.3567  0.1640
 5457TIP3    H137862   2.562   3.272  13.361 -0.9117  0.7499  0.5807
 5457TIP3    H237863   2.672   3.202  13.439  0.3133  3.3074  1.2439
 5458TIP3   OH237864   3.908   0.146   4.024 -0.2044 -0.1724 -0.5376
 5458TIP3    H137865   3.969   0.134   3.952  0.4284  2.1239 -0.4862
 5458TIP3    H237866   3.891   0.240   4.026 -2.7867 -0.5662  0.2704
 5459TIP3   OH237867   5.154   5.248  14.925 -0.3071  0.2990  0.0880
 5459TIP3    H137868   5.191   5.336  14.915  3.4543 -1.2104 -0.7059
 5459TIP3    H237869   5.135   5.242  15.019  2.1080  1.0651  0.7034
 5460TIP3   OH237870   0.546   2.403  11.228 -0.0381  0.4658 -0.3915
 5460TIP3    H137871   0.513   2.436  11.144  0.2100  1.1613 -0.2226
 5460TIP3    H237872   0.610   2.337  11.204 -2.2973 -1.7658 -0.7388
 5461TIP3   OH237873   1.455   3.951  15.239 -0.2204  0.2268  0.3313
 5461TIP3    H137874   1.401   3.925  15.314 -0.3235 -0.4094  0.0501
 5461TIP3    H237875   1.497   3.869  15.210 -0.6299  0.3453 -0.6567
 5462TIP3   OH237876   5.830   1.029  10.890  0.2961  0.0586  0.5658
 5462TIP3    H137877   5.903   1.023  10.828  0.0385 -1.3857  0.3798
 5462TIP3    H237878   5.828   1.122  10.914  1.6766  0.2831 -0.0381
 5463TIP3   OH237879   4.885   1.814   5.461 -0.5753 -0.2989 -0.6951
 5463TIP3    H137880   4.800   1.854   5.439 -1.8063 -0.4711  2.9422
 5463TIP3    H237881   4.919   1.869   5.532  1.5924 -1.1967 -0.9579
 5464TIP3   OH237882   3.294   6.644   1.386 -0.1228  0.0028 -0.0639
 5464TIP3    H137883   3.356   6.711   1.414 -1.4562  1.5601 -0.6885
 5464TIP3    H237884   3.285   6.657   1.292 -0.3078 -1.1483 -0.2180
 5465TIP3   OH237885   2.717   2.812   1.544  0.3044 -0.0748 -0.5346
 5465TIP3    H137886   2.732   2.839   1.635 -1.5367  3.4805 -1.1438
 5465TIP3    H237887   2.779   2.863   1.492  0.2280 -0.8691 -1.4490
 5466TIP3   OH237888   6.646   5.385   0.864  0.2912  0.1600 -0.3713
 5466TIP3    H137889   6.607   5.367   0.950  2.3645 -1.1354  0.3673
 5466TIP3    H237890   6.620   5.475   0.844 -0.6179  0.3362  1.3932
 5467TIP3   OH237891   1.259   3.885  14.755 -0.4379  0.8303 -0.9129
 5467TIP3    H137892   1.229   3.886  14.846  1.2666  0.0941 -0.3122
 5467TIP3    H237893   1.351   3.911  14.759  0.5924 -2.2452 -2.0159
 5468TIP3   OH237894   2.244   6.623  13.677 -0.4344 -0.1020  0.5239
 5468TIP3    H137895   2.275   6.713  13.676 -0.8821  0.0513 -0.0897
 5468TIP3    H237896   2.323   6.570  13.672 -0.2293  0.2729 -0.2424
 5469TIP3   OH237897   5.305   0.961  13.488 -0.4719  0.6704 -0.0754
 5469TIP3    H137898   5.247   0.999  13.554 -2.2463 -1.9593  0.0289
 5469TIP3    H237899   5.381   0.931  13.537 -1.3798 -0.4638  0.6887
 5470TIP3   OH237900   6.179   0.163  14.955 -0.0010 -0.4519 -0.2515
 5470TIP3    H137901   6.238   0.151  14.880  0.8904 -1.5167  0.5837
 5470TIP3    H237902   6.131   0.243  14.935 -0.3930 -1.1409 -2.3565
 5471TIP3   OH237903   5.745   5.075   2.208 -0.1884  0.1178 -0.2570
 5471TIP3    H137904   5.821   5.111   2.254 -0.0165  1.1907 -1.3266
 5471TIP3    H237905   5.777   5.054   2.121 -0.6309 -1.4282 -0.0837
 5472TIP3   OH237906   2.083   0.805   5.504  0.3982  0.5348  0.4053
 5472TIP3    H137907   2.159   0.850   5.467  1.0656 -0.4185  0.5604
 5472TIP3    H237908   2.013   0.819   5.441  0.9813  0.6109 -0.2358
 5473TIP3   OH237909   2.181   0.761  13.283 -0.3934  0.5371 -0.0960
 5473TIP3    H137910   2.107   0.772  13.342 -1.2045 -0.8549 -0.7861
 5473TIP3    H237911   2.141   0.744  13.197  0.7428  2.2216 -1.0286
 5474TIP3   OH237912   1.647   3.312   5.827  0.2437 -0.1384  0.1063
 5474TIP3    H137913   1.646   3.407   5.816 -1.0874 -0.1021  0.3886
 5474TIP3    H237914   1.558   3.285   5.807  0.5943 -1.3343  0.0812
 5475TIP3   OH237915   5.654   5.097   0.088 -0.0317 -0.9876  0.0527
 5475TIP3    H137916   5.716   5.032   0.054 -0.8320 -1.9641  0.3773
 5475TIP3    H237917   5.644   5.073   0.181  0.6375  0.4149  0.5124
 5476TIP3   OH237918   4.414   2.392   5.762 -0.9868 -0.1686 -0.7437
 5476TIP3    H137919   4.389   2.301   5.743  0.5951 -0.7404 -0.2397
 5476TIP3    H237920   4.413   2.397   5.858  1.6093 -0.5125 -0.6273
 5477TIP3   OH237921   6.779   3.324   6.420  0.5748 -0.2828 -0.5943
 5477TIP3    H137922   6.735   3.408   6.421  1.9000  0.5961  3.2122
 5477TIP3    H237923   6.872   3.346   6.413  0.9179 -1.4142  0.1129
 5478TIP3   OH237924   2.192   5.414  11.874 -0.4792  0.4459 -0.3145
 5478TIP3    H137925   2.265   5.476  11.884 -0.4903  0.4441 -0.2265
 5478TIP3    H237926   2.134   5.433  11.947  0.3510 -0.8339  0.7068
 5479TIP3   OH237927   1.896   2.960   0.496 -0.2217 -0.1707  0.7377
 5479TIP3    H137928   1.820   2.982   0.550  0.6981  0.7324  1.6882
 5479TIP3    H237929   1.957   3.032   0.509  1.4492 -1.5951  1.1882
 5480TIP3   OH237930   2.902   0.457   5.820  0.2086  0.4592  0.4722
 5480TIP3    H137931   2.853   0.518   5.876 -1.1518  0.0497 -0.2453
 5480TIP3    H237932   2.890   0.491   5.731  0.1374 -0.3939  0.1539
 5481TIP3   OH237933   1.486   4.230  15.653  0.3254  0.3465  0.5594
 5481TIP3    H137934   1.528   4.291  15.713  1.3936 -0.1261  0.3231
 5481TIP3    H237935   1.500   4.268  15.566  2.3656 -0.9112  0.2446
 5482TIP3   OH237936   6.744   5.379  14.379  0.6349 -0.6761  0.3288
 5482TIP3    H137937   6.735   5.432  14.457 -0.3222 -1.0328  0.4824
 5482TIP3    H237938   6.660   5.333  14.371  0.7334 -0.7023 -0.8602
 5483TIP3   OH237939   5.555   6.580  13.423  0.1378  0.5690 -0.2603
 5483TIP3    H137940   5.485   6.517  13.441 -1.0976  2.0078  0.1999
 5483TIP3    H237941   5.635   6.530  13.435 -0.7902 -0.9904 -0.2071
 5484TIP3   OH237942   3.368   6.419  13.150  0.0215 -0.5319 -0.3373
 5484TIP3    H137943   3.331   6.480  13.086  0.7251 -0.9981 -1.2225
 5484TIP3    H237944   3.314   6.429  13.227 -1.7941 -0.9792 -1.4860
 5485TIP3   OH237945   2.424   0.301   4.379  0.6777 -0.2104  0.1912
 5485TIP3    H137946   2.495   0.355   4.343 -0.1524  0.8953  0.1602
 5485TIP3    H237947   2.427   0.220   4.329 -0.1155  1.0718 -2.0387
 5486TIP3   OH237948   6.840   0.930   1.713 -0.2543  0.3550 -0.4334
 5486TIP3    H137949   6.864   0.940   1.805 -2.4636 -2.3662  0.6159
 5486TIP3    H237950   6.745   0.945   1.711 -0.2060  0.6873 -2.3497
 5487TIP3   OH237951   3.902   3.710   1.331 -0.1475 -0.2186 -0.9562
 5487TIP3    H137952   3.936   3.686   1.417 -0.2575  0.5380 -0.6914
 5487TIP3    H237953   3.866   3.798   1.343 -0.6746 -0.3294 -1.6402
 5488TIP3   OH237954   5.320   3.928  14.763 -0.1615 -0.2731  0.3994
 5488TIP3    H137955   5.396   3.958  14.813 -0.4761 -0.8443  1.2369
 5488TIP3    H237956   5.339   3.837  14.742 -0.0267 -0.0364 -0.5584
 5489TIP3   OH237957   5.997   0.561   0.192  0.7344  0.0362 -0.1292
 5489TIP3    H137958   5.968   0.473   0.214  1.4773 -0.4448 -1.0457
 5489TIP3    H237959   5.998   0.563   0.097 -0.7693  1.5384 -0.1725
 5490TIP3   OH237960   4.306   5.086   1.643  0.0522 -0.5512 -0.4613
 5490TIP3    H137961   4.212   5.101   1.636  0.2261  0.4528 -0.9074
 5490TIP3    H237962   4.327   5.027   1.571 -0.3295 -1.2678  0.0101
 5491TIP3   OH237963   2.202   4.894  13.461  0.0592  0.2887  0.6927
 5491TIP3    H137964   2.274   4.833  13.443  0.8708  1.3614  0.1690
 5491TIP3    H237965   2.139   4.842  13.511 -0.8950 -2.0413 -2.5558
 5492TIP3   OH237966   1.430   2.023  16.142 -0.2314  0.1063  0.5581
 5492TIP3    H137967   1.364   2.091  16.157 -0.7804 -0.1111 -0.7391
 5492TIP3    H237968   1.461   2.040  16.053 -1.2164 -1.9971 -0.2518
 5493TIP3   OH237969   4.526   6.008   4.274 -0.4708  0.6059  0.5852
 5493TIP3    H137970   4.540   5.920   4.308  0.1338  0.2747 -0.5100
 5493TIP3    H237971   4.612   6.050   4.281 -0.5874  0.8711  0.4305
 5494TIP3   OH237972   3.019   2.775   3.241 -0.3802 -0.0770 -0.0398
 5494TIP3    H137973   3.079   2.843   3.272 -0.6947  1.4084 -2.3992
 5494TIP3    H237974   2.934   2.799   3.278  0.1148 -1.2780  2.0110
 5495TIP3   OH237975   6.542   5.088  13.664  0.0141  0.5861 -0.6032
 5495TIP3    H137976   6.451   5.073  13.689 -0.2990  1.0493 -1.4555
 5495TIP3    H237977   6.587   5.008  13.693 -0.6777  0.2926 -0.2931
 5496TIP3   OH237978   6.702   5.149   1.121  0.6564  0.4523  0.4319
 5496TIP3    H137979   6.783   5.130   1.074  0.7291 -0.6739  0.9562
 5496TIP3    H237980   6.708   5.241   1.145  1.9887  0.2759  0.8312
 5497TIP3   OH237981   2.068   6.342  10.709 -0.2929  0.1673 -0.1166
 5497TIP3    H137982   2.122   6.415  10.678  0.4209  0.2757  1.2999
 5497TIP3    H237983   2.031   6.304  10.629  0.9419  0.8210 -1.0380
 5498TIP3   OH237984   1.565   6.077  13.230 -0.6624  0.0275  0.4541
 5498TIP3    H137985   1.582   6.169  13.253 -2.1098  0.4319 -0.0312
 5498TIP3    H237986   1.517   6.081  13.148 -0.5358 -1.1917  0.3006
 5499TIP3   OH237987   5.612   4.748  10.928 -0.0915  0.7517 -0.3506
 5499TIP3    H137988   5.559   4.828  10.931 -1.4879 -0.1750  1.0781
 5499TIP3    H237989   5.589   4.707  10.844 -1.4988  0.4932  0.1275
 5500TIP3   OH237990   0.723   5.311  11.637 -0.5414  0.0850  0.0771
 5500TIP3    H137991   0.638   5.322  11.680 -0.9177  0.2301 -0.6884
 5500TIP3    H237992   0.774   5.386  11.664 -0.7682  0.1650  0.2862
 5501TIP3   OH237993   0.116   5.062   0.346  0.7237 -0.4551 -0.2308
 5501TIP3    H137994   0.146   5.151   0.365 -0.7177 -0.2887  1.5546
 5501TIP3    H237995   0.195   5.008   0.352  1.3646  0.4959  0.1812
 5502TIP3   OH237996   4.962   2.711   4.323  0.9419 -0.3121  0.1061
 5502TIP3    H137997   4.918   2.673   4.399  1.9756  1.3223  1.6101
 5502TIP3    H237998   4.991   2.636   4.272  0.1176 -1.4660  1.2716
 5503TIP3   OH237999   0.118   1.737  16.729 -0.5244  0.3081 -0.8396
 5503TIP3    H138000   0.165   1.681  16.667  1.0466  1.2093 -0.5210
 5503TIP3    H238001   0.181   1.805  16.751 -2.1879  1.8881 -0.7746
 5504TIP3   OH238002   0.345   4.548   5.872 -0.2241 -0.3178  0.1347
 5504TIP3    H138003   0.350   4.461   5.909  1.7296 -0.1506  0.3315
 5504TIP3    H238004   0.305   4.601   5.941 -0.4842 -0.8428  0.3935
 5505TIP3   OH238005   0.715   3.832   1.754 -0.2684 -0.3435 -0.2551
 5505TIP3    H138006   0.751   3.837   1.665  0.4196 -1.0335 -0.0185
 5505TIP3    H238007   0.620   3.826   1.741 -0.1400 -0.9864 -0.9673
 5506TIP3   OH238008   1.875   6.328   4.569 -0.2617 -0.2395 -0.0374
 5506TIP3    H138009   1.874   6.354   4.661  2.0919 -0.8607  0.2208
 5506TIP3    H238010   1.812   6.388   4.527  0.1432  1.4566  1.6128
 5507TIP3   OH238011   2.827   4.769  11.542 -0.8356  0.1433  0.1243
 5507TIP3    H138012   2.808   4.682  11.575  0.1846  0.2969  1.1987
 5507TIP3    H238013   2.918   4.763  11.511  0.3197  1.4969  2.8924
 5508TIP3   OH238014   0.238   0.533  11.601  0.0878  0.1372  0.1549
 5508TIP3    H138015   0.290   0.609  11.575 -0.1096 -0.2064 -1.3332
 5508TIP3    H238016   0.147   0.564  11.601 -0.1735 -0.4331 -2.0446
 5509TIP3   OH238017   0.269   4.934  13.518  0.0897  0.3219 -0.2449
 5509TIP3    H138018   0.339   4.997  13.499  0.0044  0.1630 -1.1272
 5509TIP3    H238019   0.313   4.849  13.515  0.0047  0.2723 -0.0598
 5510TIP3   OH238020   4.119   4.990  15.582  0.0187 -0.3107  0.2014
 5510TIP3    H138021   4.056   5.059  15.560  1.2135  1.1492  1.2008
 5510TIP3    H238022   4.078   4.943  15.655  0.1680  0.7915  1.0207
 5511TIP3   OH238023   4.435   6.623   4.384 -0.2425 -0.5469  0.6817
 5511TIP3    H138024   4.367   6.569   4.343  0.6516 -0.7454 -0.6170
 5511TIP3    H238025   4.441   6.700   4.327  1.8983 -1.3972 -0.3635
 5512TIP3   OH238026   3.116   0.718  15.798  0.2806 -0.2516 -0.6469
 5512TIP3    H138027   3.102   0.647  15.735 -0.7252  2.2525 -3.5021
 5512TIP3    H238028   3.187   0.770  15.759 -0.1786  1.2484  0.4466
 5513TIP3   OH238029   1.924   1.310  14.192 -0.5386 -0.1772  0.0028
 5513TIP3    H138030   1.843   1.347  14.157 -0.2676 -1.8386 -2.6273
 5513TIP3    H238031   1.994   1.356  14.145 -0.0269 -0.4675  0.4675
 5514TIP3   OH238032   4.671   3.424  10.889 -0.1023 -0.0612 -0.3384
 5514TIP3    H138033   4.748   3.432  10.945 -0.1889 -2.2455  0.1683
 5514TIP3    H238034   4.699   3.369  10.816 -0.9758 -0.2547 -0.5467
 5515TIP3   OH238035   2.226   1.888   1.125  0.0472  0.6027  0.6581
 5515TIP3    H138036   2.158   1.955   1.120 -0.7410 -0.1328  1.2695
 5515TIP3    H238037   2.189   1.820   1.181  0.9678 -0.1886  0.3362
 5516TIP3   OH238038   4.505   6.122   2.289  0.6533 -0.5703 -0.3405
 5516TIP3    H138039   4.435   6.070   2.251  1.6799 -1.6698 -0.7910
 5516TIP3    H238040   4.508   6.201   2.235 -1.1814  0.2066  0.6028
 5517TIP3   OH238041   3.112   5.467   3.713  0.0192 -0.0269 -0.3980
 5517TIP3    H138042   3.196   5.461   3.759  0.7664  1.2173 -1.5226
 5517TIP3    H238043   3.108   5.388   3.660 -0.6821 -1.3043  1.4513
 5518TIP3   OH238044   2.406   5.753  13.161 -0.2679  0.3602 -0.4451
 5518TIP3    H138045   2.490   5.725  13.197 -0.2872  0.2340 -0.4981
 5518TIP3    H238046   2.357   5.787  13.236  0.0758  1.0328 -0.5185
 5519TIP3   OH238047   5.593   2.441  11.600  0.6386  0.2548 -0.0798
 5519TIP3    H138048   5.569   2.388  11.524  1.5400 -1.0275  0.5061
 5519TIP3    H238049   5.533   2.516  11.596  1.1406  0.6081 -2.4430
 5520TIP3   OH238050   3.690   3.939  15.479 -0.2851 -0.2629 -0.4380
 5520TIP3    H138051   3.780   3.921  15.509  0.2019 -0.3162 -1.8419
 5520TIP3    H238052   3.681   3.886  15.400 -1.5420 -0.1853 -0.3593
 5521TIP3   OH238053   3.984   6.091  13.575 -0.1016  0.3630  0.2833
 5521TIP3    H138054   4.043   6.032  13.622  1.0057  0.6493 -0.7142
 5521TIP3    H238055   3.898   6.076  13.615  0.4783 -0.7014  1.1662
 5522TIP3   OH238056   5.379   6.470  10.830 -0.0883 -0.2196  0.1150
 5522TIP3    H138057   5.377   6.493  10.923  0.5188 -0.8343  0.2926
 5522TIP3    H238058   5.422   6.384  10.828 -0.5906 -0.4595 -0.6872
 5523TIP3   OH238059   2.674   6.753   3.833  0.0218 -0.2037 -0.2175
 5523TIP3    H138060   2.757   6.797   3.850  0.5143 -0.9036 -0.7423
 5523TIP3    H238061   2.633   6.802   3.762  0.5462 -0.5503 -0.7700
 5524TIP3   OH238062   4.321   3.726  15.597 -0.0975  0.2752 -0.3442
 5524TIP3    H138063   4.305   3.788  15.526 -0.0447 -0.0670 -0.6573
 5524TIP3    H238064   4.353   3.647  15.553 -1.3163 -0.3963 -0.0468
 5525TIP3   OH238065   4.586   6.831  11.434  0.0428 -0.1487 -0.7116
 5525TIP3    H138066   4.503   6.830  11.481  0.4568  0.1708  0.0383
 5525TIP3    H238067   4.650   6.859  11.498  0.9008 -1.3056 -1.0205
 5526TIP3   OH238068   6.756   3.433  11.452  0.6581  0.0942  0.0422
 5526TIP3    H138069   6.833   3.479  11.483 -0.1566  0.4235  1.6341
 5526TIP3    H238070   6.692   3.501  11.434  1.1919 -0.0122 -2.9149
 5527TIP3   OH238071   6.571   5.321   4.599 -0.0972  0.0053 -0.0965
 5527TIP3    H138072   6.644   5.306   4.539 -0.9094 -1.8407 -0.6975
 5527TIP3    H238073   6.518   5.388   4.556  0.6653  0.5598 -0.1827
 5528TIP3   OH238074   4.453   5.747   1.795 -0.0812  0.1026  1.0240
 5528TIP3    H138075   4.381   5.803   1.768 -0.5457 -0.8264  0.2449
 5528TIP3    H238076   4.463   5.762   1.889 -0.0282  1.6467  0.7837
 5529TIP3   OH238077   3.246   3.139   4.811 -0.3498  0.2367 -0.7517
 5529TIP3    H138078   3.180   3.121   4.745 -0.3331 -1.0736 -0.4359
 5529TIP3    H238079   3.230   3.074   4.880 -0.4679  1.6510  0.6231
 5530TIP3   OH238080   0.792   5.189  16.495 -0.0946 -0.1214 -0.0487
 5530TIP3    H138081   0.826   5.277  16.483  1.6391 -0.4563  1.8458
 5530TIP3    H238082   0.698   5.201  16.512 -0.1568  1.2007 -1.1671
 5531TIP3   OH238083   6.829   5.275   4.772  0.0915  0.2554  0.5200
 5531TIP3    H138084   6.923   5.280   4.789 -0.0260 -1.9216  2.2534
 5531TIP3    H238085   6.793   5.353   4.816  1.0047  0.7790  0.3653
 5532TIP3   OH238086   2.020   0.946   3.137  0.3960 -0.8173  1.2659
 5532TIP3    H138087   2.072   1.023   3.112 -0.2491 -1.4289 -2.5524
 5532TIP3    H238088   2.084   0.887   3.177  1.8838 -0.0685  0.1205
 5533TIP3   OH238089   3.317   1.623  13.083  0.0473  0.0058 -0.3805
 5533TIP3    H138090   3.316   1.527  13.082  0.6890 -0.0019 -0.2471
 5533TIP3    H238091   3.224   1.647  13.083 -0.1482 -0.5936 -1.8924
 5534TIP3   OH238092   2.105   1.271  12.026 -0.0923 -0.4754 -0.1132
 5534TIP3    H138093   2.142   1.324  11.955  0.6323  1.2936  1.4904
 5534TIP3    H238094   2.074   1.335  12.090 -0.8977 -2.0055  1.0997
 5535TIP3   OH238095   4.048   6.031  10.360  0.2643  0.2205 -0.4559
 5535TIP3    H138096   4.089   5.945  10.350  0.3791  0.3999 -1.7741
 5535TIP3    H238097   3.994   6.041  10.281 -0.0400  1.1940 -0.1372
 5536TIP3   OH238098   3.739   2.233  15.489 -0.2458 -0.2090 -0.3080
 5536TIP3    H138099   3.793   2.172  15.538  1.9474  1.1484 -0.8916
 5536TIP3    H238100   3.679   2.178  15.439  0.8871 -1.8108  0.0394
 5537TIP3   OH238101   1.162   5.171  10.783  0.1394  0.1434 -0.2105
 5537TIP3    H138102   1.120   5.169  10.697  0.9927 -1.5477 -0.6265
 5537TIP3    H238103   1.213   5.090  10.788  0.0679  0.1518  1.9220
 5538TIP3   OH238104   1.710   2.795   6.481  0.8576 -0.0104 -0.1134
 5538TIP3    H138105   1.646   2.856   6.518  1.1506 -0.0745  0.5173
 5538TIP3    H238106   1.752   2.756   6.557  0.5316 -1.1693 -0.5170
 5539TIP3   OH238107   6.447   1.440  11.390  0.2996 -0.0930  0.2393
 5539TIP3    H138108   6.395   1.514  11.421 -2.6539 -1.5106 -0.9592
 5539TIP3    H238109   6.414   1.423  11.302 -0.0640 -3.5541  0.8973
 5540TIP3   OH238110   1.820   6.399  13.734 -0.2106  0.2200  0.4464
 5540TIP3    H138111   1.879   6.453  13.681 -2.5380  1.8534 -0.6501
 5540TIP3    H238112   1.761   6.462  13.776  0.7554 -1.0930  4.1671
 5541TIP3   OH238113   4.990   0.686   2.607  0.4298 -0.7329 -0.2000
 5541TIP3    H138114   5.055   0.712   2.672 -0.0039 -1.0344  0.3594
 5541TIP3    H238115   5.004   0.746   2.534  0.5505 -0.0207  0.3977
 5542TIP3   OH238116   5.546   3.323  15.212 -0.2293 -0.3361 -0.2321
 5542TIP3    H138117   5.489   3.254  15.244 -0.7077  0.4131  0.5741
 5542TIP3    H238118   5.635   3.287  15.219 -0.4722 -0.8506  0.2094
 5543TIP3   OH238119   6.077   5.901   4.865  0.3567 -0.5979  0.1297
 5543TIP3    H138120   6.134   5.861   4.799  0.8323  0.1556  0.0670
 5543TIP3    H238121   6.111   5.990   4.876  0.3935 -0.7509  1.5114
 5544TIP3   OH238122   2.369   5.621  16.587 -0.0586 -0.1973  0.2339
 5544TIP3    H138123   2.279   5.621  16.620  0.4674  1.2371  1.7830
 5544TIP3    H238124   2.419   5.574  16.653  0.2202 -2.0666 -1.1908
 5545TIP3   OH238125   2.182   1.399   2.099 -0.0202  0.2125 -0.4606
 5545TIP3    H138126   2.137   1.390   2.015 -0.4643  1.3168 -0.3534
 5545TIP3    H238127   2.123   1.452   2.153  1.6035  2.1828 -0.4944
 5546TIP3   OH238128   0.844   2.166   6.292 -0.5990  0.1961 -0.0589
 5546TIP3    H138129   0.753   2.163   6.323 -0.5236  1.1945  0.2896
 5546TIP3    H238130   0.884   2.087   6.329 -1.5131 -0.6776 -0.8611
 5547TIP3   OH238131   3.459   5.748  13.303 -0.0719 -0.0637 -0.1072
 5547TIP3    H138132   3.475   5.838  13.332 -0.4227 -0.5028  1.5505
 5547TIP3    H238133   3.546   5.709  13.297  0.0117 -0.0085  0.5927
 5548TIP3   OH238134   0.694   5.487   1.122 -0.2347  0.6243 -0.6017
 5548TIP3    H138135   0.617   5.489   1.065  0.3731  1.0438 -1.4399
 5548TIP3    H238136   0.732   5.574   1.114 -0.0732  0.6525  0.3830
 5549TIP3   OH238137   3.682   1.465   4.654  0.4626  0.2947 -0.1885
 5549TIP3    H138138   3.671   1.372   4.634  0.1289  0.0537  1.0029
 5549TIP3    H238139   3.645   1.511   4.578  0.5117 -0.5432 -0.7258
 5550TIP3   OH238140   5.833   5.981   5.258 -0.6700  0.0670  0.2827
 5550TIP3    H138141   5.865   5.915   5.197  0.0085 -0.4153  1.1288
 5550TIP3    H238142   5.912   6.028   5.286 -0.5534 -1.3971  2.7154
 5551TIP3   OH238143   2.203   0.579  11.524 -0.1014 -0.1092 -0.3032
 5551TIP3    H138144   2.240   0.515  11.462 -1.2549  0.6961 -1.9245
 5551TIP3    H238145   2.271   0.645  11.534 -0.2955  0.3387 -1.6714
 5552TIP3   OH238146   4.354   1.573  16.723 -0.3986 -0.3897 -0.2538
 5552TIP3    H138147   4.370   1.626  16.644 -1.9121 -0.3201 -0.5523
 5552TIP3    H238148   4.314   1.493  16.690 -2.7114  0.3661  0.5040
 5553TIP3   OH238149   4.739   6.261  13.075 -0.0304  0.0152  0.2814
 5553TIP3    H138150   4.707   6.307  12.996 -0.0994 -1.7289 -0.7655
 5553TIP3    H238151   4.834   6.269  13.070 -0.0849  1.9353  1.3445
 5554TIP3   OH238152   4.725   4.881   0.072  0.9551  0.8744  0.0700
 5554TIP3    H138153   4.677   4.947   0.021  1.9721  0.1943 -1.8744
 5554TIP3    H238154   4.657   4.825   0.108  0.1607  1.8607  0.1599
 5555TIP3   OH238155   3.248   5.331  12.903  0.5387  0.1594  0.1515
 5555TIP3    H138156   3.252   5.398  12.836  1.0140  1.0167  1.0122
 5555TIP3    H238157   3.260   5.378  12.986 -2.5451 -0.4948  1.0976
 5556TIP3   OH238158   4.044   3.645   1.800 -0.6189  0.3149 -0.3809
 5556TIP3    H138159   3.974   3.657   1.865  0.6839 -0.3521  1.2268
 5556TIP3    H238160   4.096   3.725   1.808 -0.1419 -0.0120 -0.1828
 5557TIP3   OH238161   1.518   5.826   3.249 -0.5863  0.5387 -0.4639
 5557TIP3    H138162   1.449   5.866   3.301  0.5720 -1.6049  3.0416
 5557TIP3    H238163   1.577   5.899   3.228 -1.6149  1.6416  0.3407
 5558TIP3   OH238164   4.062   4.581  11.849 -0.0014 -0.1178  0.5728
 5558TIP3    H138165   4.134   4.520  11.867  0.9835  0.8912  0.1705
 5558TIP3    H238166   4.041   4.565  11.757 -1.1984 -1.3137  1.0215
 5559TIP3   OH238167   0.862   0.878  10.779  0.0729 -0.1145 -0.3779
 5559TIP3    H138168   0.858   0.962  10.734 -0.6420  0.4939  0.7675
 5559TIP3    H238169   0.813   0.892  10.861  0.4796 -1.4581  0.1264
 5560TIP3   OH238170   1.718   0.794  10.553 -0.2700 -0.0607  0.3989
 5560TIP3    H138171   1.678   0.805  10.639  0.9448 -0.3561  1.0330
 5560TIP3    H238172   1.712   0.881  10.512  0.7894  0.5964  1.5508
 5561TIP3   OH238173   3.172   4.011   3.697  0.7476 -0.2808  0.3408
 5561TIP3    H138174   3.116   4.066   3.752  0.8688  1.4932 -1.2232
 5561TIP3    H238175   3.261   4.033   3.723  0.8313  1.1391 -1.0133
 5562TIP3   OH238176   5.942   0.898  14.215  0.0891  0.0984  0.0403
 5562TIP3    H138177   5.862   0.948  14.236  1.1143  1.0895  1.8142
 5562TIP3    H238178   6.009   0.965  14.204  1.3063 -0.8045  1.5718
 5563TIP3   OH238179   6.630   0.889  12.749  0.2844 -0.6811 -0.3094
 5563TIP3    H138180   6.666   0.821  12.693  1.6728  0.4715 -0.8819
 5563TIP3    H238181   6.653   0.862  12.838 -0.5030 -1.6922 -0.3944
 5564TIP3   OH238182   1.055   2.779   6.048 -0.2048 -0.7657 -0.4383
 5564TIP3    H138183   1.118   2.776   5.976  0.1662  0.4719 -0.1811
 5564TIP3    H238184   1.109   2.795   6.125 -0.9572  2.0650 -0.4208
 5565TIP3   OH238185   4.556   4.979   0.323 -0.0284 -0.3850  0.5876
 5565TIP3    H138186   4.490   4.965   0.255  2.2454  0.5847 -1.9619
 5565TIP3    H238187   4.539   5.068   0.355  0.9698  0.5036 -1.2379
 5566TIP3   OH238188   5.476   0.103  16.529 -0.2264 -0.0630 -0.4680
 5566TIP3    H138189   5.437   0.151  16.456 -1.3506  0.8581  0.6942
 5566TIP3    H238190   5.436   0.017  16.526 -1.4723  0.4844 -0.0153
 5567TIP3   OH238191   1.359   6.285   1.387 -0.4790  0.1173 -0.5829
 5567TIP3    H138192   1.287   6.342   1.359  0.0124  0.9093 -0.2494
 5567TIP3    H238193   1.383   6.317   1.474 -0.4987 -0.8965 -0.1904
 5568TIP3   OH238194   3.042   0.771   1.025  0.4815 -0.0535  0.3340
 5568TIP3    H138195   3.112   0.802   0.967  0.0838  0.0778 -0.0837
 5568TIP3    H238196   3.041   0.676   1.013 -0.0908  0.0435 -0.4454
 5569TIP3   OH238197   1.545   3.668   2.559 -0.3028  0.3093 -0.4154
 5569TIP3    H138198   1.557   3.759   2.583 -0.3753  0.3941 -0.6909
 5569TIP3    H238199   1.511   3.671   2.469  0.2357 -0.0014 -0.6393
 5570TIP3   OH238200   4.399   3.565   3.840  0.5216 -0.0334 -0.1679
 5570TIP3    H138201   4.492   3.542   3.847  0.1961 -1.5262 -0.4209
 5570TIP3    H238202   4.385   3.582   3.747  0.6946  0.9223 -0.0242
 5571TIP3   OH238203   3.928   2.973  15.546  0.4366 -0.1406  0.1917
 5571TIP3    H138204   3.836   2.992  15.565  0.6236 -0.0520  1.0233
 5571TIP3    H238205   3.937   2.879  15.564  0.0737 -0.5777 -1.6851
 5572TIP3   OH238206   0.192   0.528  15.766  0.0668 -0.2958  0.1961
 5572TIP3    H138207   0.231   0.480  15.693 -2.3862 -0.2687 -1.2184
 5572TIP3    H238208   0.168   0.613  15.729  0.9083  0.6423  1.6933
 5573TIP3   OH238209   0.218   6.687  13.265  0.0671  0.1225  0.5839
 5573TIP3    H138210   0.200   6.619  13.330  0.2648  1.1922  1.7850
 5573TIP3    H238211   0.283   6.744  13.306  0.9387  0.2952 -0.9271
 5574TIP3   OH238212   1.094   1.498   1.817  0.1676 -0.9041 -0.0217
 5574TIP3    H138213   1.163   1.441   1.784  0.1464 -0.6809 -0.4667
 5574TIP3    H238214   1.111   1.506   1.911  2.6391  1.6291 -0.5505
 5575TIP3   OH238215   3.114   6.716   3.311 -0.1070  0.5048 -0.9817
 5575TIP3    H138216   3.155   6.647   3.259 -1.6753 -1.7724  0.5955
 5575TIP3    H238217   3.022   6.690   3.318 -0.7817  2.7925 -0.3188
 5576TIP3   OH238218   2.374   4.925   3.152  0.3544 -0.9728 -0.2949
 5576TIP3    H138219   2.390   4.963   3.238  1.3363 -1.4335 -0.2544
 5576TIP3    H238220   2.461   4.923   3.111  0.3991 -3.3378 -0.2060
 5577TIP3   OH238221   2.769   1.357  11.983 -0.5738  0.5395 -0.1472
 5577TIP3    H138222   2.820   1.362  12.063  1.0074  0.6362 -1.1288
 5577TIP3    H238223   2.690   1.309  12.008 -1.4727  2.9699  2.1238
 5578TIP3   OH238224   2.512   2.866  16.465 -1.0973 -0.3535  0.3799
 5578TIP3    H138225   2.575   2.933  16.492 -1.9485 -0.0873  1.8035
 5578TIP3    H238226   2.426   2.906  16.478 -1.6903 -2.1324  2.6013
 5579TIP3   OH238227   4.798   2.681   1.254  0.5218  0.3675 -0.3483
 5579TIP3    H138228   4.705   2.659   1.247  0.2683  0.5303  1.7718
 5579TIP3    H238229   4.844   2.602   1.224 -0.2849  0.2730 -1.3721
 5580TIP3   OH238230   2.429   0.906   1.277  0.5066 -0.0870  0.0253
 5580TIP3    H138231   2.494   0.899   1.208  1.2555  2.1100  0.4363
 5580TIP3    H238232   2.367   0.835   1.259  1.0028  0.0477 -2.5376
 5581TIP3   OH238233   6.260   0.482  10.812  0.4386 -0.2178  0.0513
 5581TIP3    H138234   6.213   0.405  10.844 -0.6429  0.6620  0.6469
 5581TIP3    H238235   6.341   0.446  10.775 -1.2106 -1.9479 -2.1736
 5582TIP3   OH238236   4.520   1.176  13.161  0.2485  0.0293 -0.1836
 5582TIP3    H138237   4.603   1.204  13.200  0.0337  1.0690 -0.4491
 5582TIP3    H238238   4.461   1.166  13.236  0.4007  0.0050 -0.0641
 5583TIP3   OH238239   3.049   6.689  12.709  0.1049 -0.4469  0.3776
 5583TIP3    H138240   3.143   6.704  12.698 -0.0283 -0.5072 -1.0726
 5583TIP3    H238241   3.008   6.771  12.681 -0.2968 -0.5904  0.5324
 5584TIP3   OH238242   5.048   6.200   5.997 -0.2761 -0.4459  0.0654
 5584TIP3    H138243   4.962   6.166   6.020  0.1691 -2.0345 -0.5164
 5584TIP3    H238244   5.088   6.221   6.081 -0.5934 -1.3380  0.4523
 5585TIP3   OH238245   3.479   2.646   5.157  0.7906  0.0806 -0.2621
 5585TIP3    H138246   3.467   2.577   5.222 -2.0345  1.7874  1.2309
 5585TIP3    H238247   3.563   2.687   5.181 -0.1946  0.7343  2.5307
 5586TIP3   OH238248   2.341   6.659  10.890 -0.0745 -0.2489  0.8681
 5586TIP3    H138249   2.427   6.694  10.868 -0.1162  1.4449  2.9924
 5586TIP3    H238250   2.288   6.672  10.811  1.4691 -0.9387 -0.3301
 5587TIP3   OH238251   0.977   1.288   5.282 -0.4225 -0.2980 -0.2384
 5587TIP3    H138252   0.990   1.292   5.376 -2.1088  0.0910 -0.0031
 5587TIP3    H238253   0.983   1.380   5.253 -2.0234 -0.1572 -0.1860
 5588TIP3   OH238254   5.814   1.173  15.204 -0.1321  0.5420  0.3300
 5588TIP3    H138255   5.863   1.125  15.138 -1.9356 -0.0489 -0.6288
 5588TIP3    H238256   5.841   1.133  15.287 -0.6694 -1.3239 -0.3485
 5589TIP3   OH238257   6.730   6.719  12.545  0.2420  0.1097  0.3870
 5589TIP3    H138258   6.811   6.754  12.508  0.1289 -1.7272 -1.8189
 5589TIP3    H238259   6.662   6.775  12.510  0.3784  0.2541  0.3501
 5590TIP3   OH238260   6.578   0.496  15.600  0.2917  0.1215 -0.0930
 5590TIP3    H138261   6.600   0.448  15.680  1.5004  1.6510  0.5400
 5590TIP3    H238262   6.548   0.581  15.631 -1.0472  0.0934 -1.2221
 5591TIP3   OH238263   0.407   0.798  11.679 -0.0556 -0.6672 -0.2720
 5591TIP3    H138264   0.386   0.742  11.753 -0.8602 -0.6633 -0.4948
 5591TIP3    H238265   0.398   0.888  11.713  0.9468 -0.6575  0.0034
 5592TIP3   OH238266   0.866   5.585  15.727  0.5076  0.2268 -0.1501
 5592TIP3    H138267   0.805   5.548  15.664  1.4805  0.9082 -1.5577
 5592TIP3    H238268   0.891   5.512  15.783  3.7929 -1.9699 -3.9177
 5593TIP3   OH238269   1.358   0.479   3.505 -0.1728 -0.3008  0.2344
 5593TIP3    H138270   1.447   0.466   3.538 -0.5447  0.3217  1.5705
 5593TIP3    H238271   1.309   0.405   3.540  0.0295 -1.3028 -1.4848
 5594TIP3   OH238272   5.991   0.604  11.441  0.1174 -0.0579  0.2739
 5594TIP3    H138273   6.051   0.542  11.399  0.7309  1.9242 -2.0095
 5594TIP3    H238274   6.049   0.662  11.491 -0.3152 -0.4300  1.2299
 5595TIP3   OH238275   4.222   2.738  14.249  0.5410  0.2274  0.3866
 5595TIP3    H138276   4.242   2.657  14.297  1.2109  1.2479  1.9017
 5595TIP3    H238277   4.148   2.776  14.296  0.9282  1.0333  0.3529
 5596TIP3   OH238278   1.460   4.512  12.601 -0.2029 -0.4727 -0.9377
 5596TIP3    H138279   1.515   4.558  12.664 -1.2278 -1.1303  0.5027
 5596TIP3    H238280   1.504   4.524  12.517 -0.1047  2.6383 -0.5718
 5597TIP3   OH238281   6.623   3.191   1.208  0.4210 -0.4298  0.1317
 5597TIP3    H138282   6.702   3.189   1.154  0.0592 -1.9270 -0.3739
 5597TIP3    H238283   6.552   3.167   1.149 -0.5707  1.5684  0.4064
 5598TIP3   OH238284   6.803   6.339   4.132 -0.0131  0.7191 -0.2756
 5598TIP3    H138285   6.884   6.320   4.084 -0.6110 -0.4565 -0.8762
 5598TIP3    H238286   6.814   6.296   4.217 -0.5571 -0.7333 -0.8972
 5599TIP3   OH238287   1.547   3.698  14.777  0.1353  0.5606  0.3185
 5599TIP3    H138288   1.527   3.788  14.802 -0.4238  0.4196  0.3877
 5599TIP3    H238289   1.529   3.694  14.683 -1.2416  0.1560  0.5735
 5600TIP3   OH238290   3.939   0.550  11.413 -0.3192 -0.5167 -0.8262
 5600TIP3    H138291   3.885   0.575  11.488  0.1537  1.1833 -1.0032
 5600TIP3    H238292   4.023   0.595  11.428  0.5212 -1.8726 -1.3172
 5601TIP3   OH238293   3.337   2.311  10.484 -0.3377 -0.3275 -0.5888
 5601TIP3    H138294   3.256   2.270  10.454 -1.9322  0.1682  2.6362
 5601TIP3    H238295   3.367   2.255  10.556  0.1476  1.4352  0.6492
 5602TIP3   OH238296   1.912   2.033  12.866  0.2025 -0.3188  0.3552
 5602TIP3    H138297   1.888   1.981  12.789  0.9924  0.2524 -0.2989
 5602TIP3    H238298   1.888   1.978  12.940  2.8278 -2.5608 -0.2736
 5603TIP3   OH238299   6.500   3.863  13.485 -0.6076  0.0441  0.3649
 5603TIP3    H138300   6.562   3.872  13.413 -1.9931  2.3415 -0.6500
 5603TIP3    H238301   6.537   3.919  13.555 -0.5677 -0.1403  0.4933
 5604TIP3   OH238302   6.564   5.434   1.564  0.1962  0.5151 -0.3742
 5604TIP3    H138303   6.529   5.521   1.584  0.4279  0.1410  1.9619
 5604TIP3    H238304   6.599   5.442   1.475  2.0871  3.4269  0.4968
 5605TIP3   OH238305   5.386   6.574  15.060 -0.7581  0.2055 -0.4345
 5605TIP3    H138306   5.310   6.631  15.077 -1.8339 -0.9154 -1.3022
 5605TIP3    H238307   5.383   6.558  14.966 -0.1476 -0.8365 -0.2877
 5606TIP3   OH238308   4.852   5.057   5.162  0.6411  0.0984 -0.0477
 5606TIP3    H138309   4.862   4.962   5.157 -0.3212 -0.0147  0.0842
 5606TIP3    H238310   4.854   5.077   5.256  3.3088  0.5168 -0.0922
 5607TIP3   OH238311   4.188   2.973   2.039 -0.2479 -0.3462  0.0471
 5607TIP3    H138312   4.241   2.940   2.112  0.8488  0.9100 -0.1574
 5607TIP3    H238313   4.198   2.907   1.970  1.5146  0.1162 -0.1820
 5608TIP3   OH238314   1.588   5.580   3.550  0.0699  0.0931 -0.4209
 5608TIP3    H138315   1.556   5.566   3.461 -2.7849 -1.1985  0.7022
 5608TIP3    H238316   1.511   5.609   3.599  1.7509  1.6316  1.4886
 5609TIP3   OH238317   4.927   2.227  16.697  0.2162 -0.2676  0.0900
 5609TIP3    H138318   4.849   2.262  16.740 -1.1527 -1.5004 -1.2569
 5609TIP3    H238319   4.927   2.269  16.611  1.1247 -0.1768  0.1300
 5610TIP3   OH238320   2.079   6.401   2.811 -0.2853 -0.0474 -0.4336
 5610TIP3    H138321   2.115   6.480   2.853  0.2181 -0.4323 -0.1310
 5610TIP3    H238322   2.140   6.383   2.739 -0.7225  0.1690 -0.8632
 5611TIP3   OH238323   0.068   6.263  16.263 -0.3637  0.2527 -0.1948
 5611TIP3    H138324   0.061   6.190  16.201  2.5165  0.2062 -0.6021
 5611TIP3    H238325   0.017   6.235  16.339  1.2931 -2.6069 -0.0165
 5612TIP3   OH238326   0.824   4.130  11.369  0.5640  0.5752 -0.1280
 5612TIP3    H138327   0.844   4.219  11.338  1.6260 -0.3469 -2.3110
 5612TIP3    H238328   0.748   4.141  11.425  2.1246  3.1983  1.7339
 5613TIP3   OH238329   4.384   3.066   0.884 -0.0655 -0.0184  0.2233
 5613TIP3    H138330   4.302   3.065   0.836  0.1330 -0.4779 -0.1102
 5613TIP3    H238331   4.378   3.144   0.940 -0.1302  0.7625 -0.8462
 5614TIP3   OH238332   6.355   3.009  12.375  0.4646  0.2781  0.0239
 5614TIP3    H138333   6.319   3.098  12.380  0.1059  0.3387 -2.5498
 5614TIP3    H238334   6.432   3.017  12.320  0.7484 -0.9330  0.2102
 5615TIP3   OH238335   2.455   1.228  13.742 -0.1005  0.2989 -0.2674
 5615TIP3    H138336   2.509   1.253  13.667 -1.3409  1.0303 -0.9517
 5615TIP3    H238337   2.451   1.308  13.795 -0.8280  0.3813 -0.4358
 5616TIP3   OH238338   4.338   5.027   3.919  0.0350  0.6470  0.4666
 5616TIP3    H138339   4.256   5.075   3.930  0.7294  1.4903  2.3799
 5616TIP3    H238340   4.401   5.073   3.975  2.1298  0.6598 -1.7026
 5617TIP3   OH238341   6.376   6.628  14.031 -0.2143  0.1781 -0.3068
 5617TIP3    H138342   6.319   6.633  14.108 -0.2413  1.6627 -0.3947
 5617TIP3    H238343   6.329   6.571  13.971 -1.8406  1.6498 -0.5292
 5618TIP3   OH238344   4.372   2.923  12.231  0.2238  0.3973  0.0804
 5618TIP3    H138345   4.423   2.921  12.151  1.6135 -0.8712  0.9434
 5618TIP3    H238346   4.430   2.964  12.295  0.2826 -1.2154  1.1241
 5619TIP3   OH238347   2.714   1.083   0.765 -0.2558  0.6217 -0.4521
 5619TIP3    H138348   2.794   1.038   0.793 -1.1191 -0.9330 -0.3650
 5619TIP3    H238349   2.745   1.166   0.730  1.4083  0.0232 -0.5118
 5620TIP3   OH238350   4.652   3.593  15.391  0.7437  0.0732 -0.0106
 5620TIP3    H138351   4.674   3.669  15.445  0.1580  0.7963 -0.7744
 5620TIP3    H238352   4.735   3.547  15.381  0.9626  0.2116  1.0619
 5621TIP3   OH238353   1.474   5.338   1.320  0.1050  0.0572  0.6065
 5621TIP3    H138354   1.467   5.430   1.349 -1.3402  0.1449  0.0816
 5621TIP3    H238355   1.418   5.290   1.381 -1.0738 -0.0974 -0.5482
 5622TIP3   OH238356   3.097   4.811  11.704  0.2339  0.5358 -0.1080
 5622TIP3    H138357   3.157   4.803  11.777  0.9301 -1.2682 -0.8108
 5622TIP3    H238358   3.153   4.812  11.626 -0.5349  1.2533 -0.6700
 5623TIP3   OH238359   3.762   4.021  12.329 -0.0621 -0.5429  0.2347
 5623TIP3    H138360   3.837   4.071  12.361  0.2519 -1.5434  1.1455
 5623TIP3    H238361   3.708   4.085  12.283  1.0705  0.3104  0.0488
 5624TIP3   OH238362   1.293   1.514  12.177  0.2879  0.0417  0.3239
 5624TIP3    H138363   1.237   1.565  12.235 -1.7939 -2.2772  0.4572
 5624TIP3    H238364   1.382   1.532  12.208 -0.5667  1.2286  2.2436
 5625TIP3   OH238365   6.850   2.469   4.600  0.0017  0.4186 -0.0684
 5625TIP3    H138366   6.897   2.387   4.608  0.9842  0.9934  0.1759
 5625TIP3    H238367   6.815   2.468   4.510  0.5138  0.0094 -0.2631
 5626TIP3   OH238368   3.079   2.153  15.996 -0.1953 -0.2721 -0.3907
 5626TIP3    H138369   3.116   2.241  15.992 -0.4672 -0.1870 -1.5909
 5626TIP3    H238370   3.145   2.101  16.041  0.8028  0.1664 -1.2977
 5627TIP3   OH238371   6.668   2.539  13.669 -0.3248 -0.3444  0.4767
 5627TIP3    H138372   6.606   2.598  13.713  0.2848  0.3185  0.4588
 5627TIP3    H238373   6.614   2.487  13.610 -0.8730  0.2137  0.4787
 5628TIP3   OH238374   5.196   6.261  11.909 -0.4560  0.1434  0.2938
 5628TIP3    H138375   5.184   6.325  11.980 -1.4275  0.3442 -0.0268
 5628TIP3    H238376   5.194   6.314  11.829  0.9914 -0.0359  0.1091
 5629TIP3   OH238377   1.740   4.394   1.897 -0.3446 -0.1987  0.0318
 5629TIP3    H138378   1.666   4.366   1.843 -0.5730  2.0991 -0.9465
 5629TIP3    H238379   1.817   4.368   1.847 -0.5330  0.2340 -0.4862
 5630TIP3   OH238380   5.725   1.098  11.194  0.3444 -0.0003  0.0684
 5630TIP3    H138381   5.789   1.165  11.217 -1.0458  1.2445  0.4684
 5630TIP3    H238382   5.776   1.016  11.190  1.9654  0.9649  0.1607
 5631TIP3   OH238383   3.985   4.982   6.028  0.1358 -0.2052  0.5534
 5631TIP3    H138384   4.044   4.918   5.987 -0.8036 -1.1619  0.6645
 5631TIP3    H238385   3.976   4.952   6.119 -0.6963 -0.1993  0.4791
 5632TIP3   OH238386   3.548   4.176   0.717  0.4475 -0.1239  0.3267
 5632TIP3    H138387   3.580   4.218   0.637  0.6451  1.6965  1.3280
 5632TIP3    H238388   3.525   4.087   0.689  1.8614  0.0064 -1.4385
 5633TIP3   OH238389   2.133   0.170  12.913  0.9055  0.5981  0.4097
 5633TIP3    H138390   2.099   0.101  12.856  0.8691  2.8186 -2.4731
 5633TIP3    H238391   2.097   0.150  12.999 -0.8737 -1.7388 -0.7769
 5634TIP3   OH238392   5.355   0.428  11.852 -0.0851 -0.5569 -0.1603
 5634TIP3    H138393   5.427   0.366  11.840 -0.8762 -1.3847 -0.7738
 5634TIP3    H238394   5.389   0.492  11.915  0.1880 -2.5143  1.7655
 5635TIP3   OH238395   2.174   1.142   2.212  0.0906 -0.5686  0.5306
 5635TIP3    H138396   2.196   1.217   2.157 -0.6857  0.9781  2.2164
 5635TIP3    H238397   2.091   1.110   2.178  1.7785 -2.6389 -2.0577
 5636TIP3   OH238398   2.314   5.354  13.577  0.3918 -0.0877 -0.0795
 5636TIP3    H138399   2.373   5.428  13.563 -1.0279  0.8665 -1.3003
 5636TIP3    H238400   2.340   5.289  13.511  0.2618  0.2126 -0.4267
 5637TIP3   OH238401   2.748   2.550   4.349 -0.1598  0.2216 -0.0947
 5637TIP3    H138402   2.772   2.460   4.374 -1.3662  0.1242  0.8069
 5637TIP3    H238403   2.832   2.595   4.338  0.4521 -0.4973  1.3956
 5638TIP3   OH238404   4.060   0.176   3.806 -0.1698 -0.1317 -0.0395
 5638TIP3    H138405   4.117   0.104   3.776 -0.1238  0.8144 -2.4657
 5638TIP3    H238406   4.114   0.254   3.796 -1.5823  0.7067 -1.6930
 5639TIP3   OH238407   3.984   1.171  15.449 -0.0160  0.2678  0.2403
 5639TIP3    H138408   4.036   1.240  15.490  0.5790 -1.0263  1.7618
 5639TIP3    H238409   4.025   1.159  15.363  0.4806  1.1290  0.3418
 5640TIP3   OH238410   1.786   4.156  14.109  0.4300 -0.1139 -0.4109
 5640TIP3    H138411   1.794   4.204  14.191  0.6936 -1.8984  0.6493
 5640TIP3    H238412   1.698   4.118  14.112  1.1195 -1.7740 -0.0092
 5641TIP3   OH238413   1.908   3.510  10.711  0.0625 -1.2424  0.0070
 5641TIP3    H138414   1.978   3.524  10.647 -2.3540  1.2078 -2.3457
 5641TIP3    H238415   1.895   3.415  10.710  2.4827 -1.6392 -0.3881
 5642TIP3   OH238416   4.832   1.131   2.134 -0.3571  0.4220 -0.0398
 5642TIP3    H138417   4.849   1.078   2.056 -1.0187  0.5734 -0.3018
 5642TIP3    H238418   4.911   1.125   2.186 -0.2498 -0.4344 -0.2958
 5643TIP3   OH238419   5.571   4.674   0.251 -0.8298  0.2989  0.4076
 5643TIP3    H138420   5.605   4.747   0.303 -1.1898  0.3832  0.5258
 5643TIP3    H238421   5.489   4.706   0.216 -0.7326  0.1338  0.0277
 5644TIP3   OH238422   1.842   5.819   4.268  0.0710  0.5415 -0.1679
 5644TIP3    H138423   1.899   5.754   4.226  1.1695  1.6158 -0.4060
 5644TIP3    H238424   1.861   5.811   4.361 -0.1009  0.2331 -0.1601
 5645TIP3   OH238425   2.746   3.031   3.387  0.7140  0.0988 -0.4444
 5645TIP3    H138426   2.794   3.043   3.469  1.4237 -0.8938 -0.7041
 5645TIP3    H238427   2.728   2.937   3.383  0.4066  0.1890 -1.2832
 5646TIP3   OH238428   5.548   3.376  15.799  0.1962 -0.4892  0.4101
 5646TIP3    H138429   5.616   3.388  15.732  1.5359 -0.6811  1.6796
 5646TIP3    H238430   5.530   3.465  15.831 -1.6392 -0.1845 -1.2551
 5647TIP3   OH238431   5.618   4.963   4.006  0.1310  0.0445 -0.0490
 5647TIP3    H138432   5.669   4.898   4.054  1.8236  2.2717  1.4081
 5647TIP3    H238433   5.684   5.019   3.965 -1.2793 -0.3369 -3.0308
 5648TIP3   OH238434   1.697   2.185   5.366  0.1375  0.2943 -0.0651
 5648TIP3    H138435   1.781   2.189   5.411  0.9581 -0.1414 -1.4887
 5648TIP3    H238436   1.700   2.255   5.301 -0.3299 -0.1113 -0.5451
 5649TIP3   OH238437   1.271   0.703  12.012 -0.3187  0.6442  0.1222
 5649TIP3    H138438   1.264   0.620  12.059  0.6400  0.6629  0.3171
 5649TIP3    H238439   1.212   0.694  11.937  0.0062 -0.3248 -0.0265
 5650TIP3   OH238440   4.775   5.726   2.086  0.7263 -0.4593  0.0462
 5650TIP3    H138441   4.822   5.701   2.166  0.1467  1.2543  0.9713
 5650TIP3    H238442   4.805   5.664   2.020  2.8889 -0.5605  1.0561
 5651TIP3   OH238443   0.865   4.290  15.971  0.1305 -0.4746 -0.0933
 5651TIP3    H138444   0.937   4.280  16.033 -1.4321 -1.9495  1.5961
 5651TIP3    H238445   0.786   4.290  16.025 -1.1950  1.1486 -1.8615
 5652TIP3   OH238446   2.363   6.665   6.206 -0.1199 -0.5800 -0.6074
 5652TIP3    H138447   2.346   6.576   6.174  1.2387 -0.3388 -2.1281
 5652TIP3    H238448   2.459   6.671   6.207 -0.1960  0.6788  0.0501
 5653TIP3   OH238449   5.344   0.082   4.463 -0.7784  0.1954  0.0496
 5653TIP3    H138450   5.411   0.062   4.397 -0.1858 -1.7228  1.1537
 5653TIP3    H238451   5.392   0.128   4.532 -0.7097 -0.6491  0.5707
 5654TIP3   OH238452   4.113   3.106   6.713  0.3512  0.5793  0.0217
 5654TIP3    H138453   4.114   3.095   6.618 -0.6862 -1.3492  0.1993
 5654TIP3    H238454   4.021   3.099   6.738  0.6805  0.3455  1.2420
 5655TIP3   OH238455   5.212   1.061   3.443  0.0713 -0.1556 -0.1029
 5655TIP3    H138456   5.164   0.990   3.487 -0.5495 -0.6093 -1.4547
 5655TIP3    H238457   5.303   1.032   3.445 -0.0070 -0.3887  0.4579
 5656TIP3   OH238458   1.094   6.008  14.402  0.1372  0.0150 -0.7031
 5656TIP3    H138459   1.066   6.054  14.481 -1.1538  0.9774 -1.6676
 5656TIP3    H238460   1.039   6.044  14.332  0.0914 -1.9557 -1.7745
 5657TIP3   OH238461   6.387   3.069  16.763 -0.6342 -0.0632  0.1061
 5657TIP3    H138462   6.412   2.979  16.742 -1.5572 -0.4352  0.5161
 5657TIP3    H238463   6.455   3.123  16.724  0.6297 -0.9957  0.9600
 5658TIP3   OH238464   2.813   2.187  15.956  0.5928  0.4123 -0.5085
 5658TIP3    H138465   2.897   2.147  15.977  0.5529  0.9320  0.7475
 5658TIP3    H238466   2.768   2.195  16.040 -0.4606  0.7160 -1.0747
 5659TIP3   OH238467   0.333   2.859  12.044  0.0014 -0.7913 -0.6299
 5659TIP3    H138468   0.250   2.901  12.025  0.1376  0.4205  1.2203
 5659TIP3    H238469   0.322   2.769  12.012 -1.8222 -0.5102 -0.9125
 5660TIP3   OH238470   3.473   5.324   1.256  0.2065  0.2642  0.2803
 5660TIP3    H138471   3.566   5.346   1.264  0.3787 -0.8256  1.6251
 5660TIP3    H238472   3.454   5.335   1.163  1.7820  0.0933 -0.0948
 5661TIP3   OH238473   5.376   5.105  11.600 -0.2958 -0.5663  0.3974
 5661TIP3    H138474   5.457   5.152  11.578 -1.2401  0.3630 -1.3688
 5661TIP3    H238475   5.382   5.023  11.551  0.2213 -1.2014  1.4820
 5662TIP3   OH238476   1.167   0.655   0.131 -0.3328 -0.2812 -0.0750
 5662TIP3    H138477   1.239   0.707   0.096  1.5411 -1.2913  2.0071
 5662TIP3    H238478   1.154   0.585   0.068  0.7696 -0.2730 -0.3290
 5663TIP3   OH238479   1.124   6.397  15.217  0.1655 -0.5174  0.0393
 5663TIP3    H138480   1.106   6.314  15.261 -2.2724  1.1231  2.5244
 5663TIP3    H238481   1.037   6.431  15.194  1.2024  0.3902 -2.9477
 5664TIP3   OH238482   6.433   3.767  16.533 -0.2869  0.0778 -0.0538
 5664TIP3    H138483   6.381   3.817  16.596 -0.9502 -0.7225  0.0555
 5664TIP3    H238484   6.458   3.688  16.580 -0.3785 -0.3048 -0.6360
 5665TIP3   OH238485   4.267   5.075  15.175 -0.0929 -0.0183  0.1622
 5665TIP3    H138486   4.309   5.021  15.108  0.6263 -0.4012  0.9040
 5665TIP3    H238487   4.175   5.048  15.172 -0.1664  0.2769 -0.9511
 5666TIP3   OH238488   1.973   2.731   4.781  0.4531 -0.1645 -0.1020
 5666TIP3    H138489   1.939   2.679   4.709 -0.5594 -0.2788  0.4431
 5666TIP3    H238490   1.942   2.686   4.860 -0.0782  1.0281  0.3837
 5667TIP3   OH238491   5.164   1.933  12.502  0.9918 -0.0034 -0.4112
 5667TIP3    H138492   5.120   2.015  12.479  3.2094  1.4166  0.1115
 5667TIP3    H238493   5.121   1.867  12.448 -1.3690  1.3265 -0.3180
 5668TIP3   OH238494   5.081   6.396   1.611  0.4238  0.4165 -0.6071
 5668TIP3    H138495   5.168   6.433   1.596  0.9633 -0.6696 -0.2785
 5668TIP3    H238496   5.098   6.315   1.659 -0.8578  0.8791  0.7041
 5669TIP3   OH238497   4.654   5.034   6.008 -0.0662 -0.5149  0.1265
 5669TIP3    H138498   4.731   5.065   5.961 -0.4981 -0.5916 -0.6429
 5669TIP3    H238499   4.602   5.113   6.025 -0.8039 -0.6963 -1.1745
 5670TIP3   OH238500   5.932   0.835  11.058  0.1067 -0.2742 -0.6087
 5670TIP3    H138501   6.011   0.790  11.029  0.0737 -0.7088 -0.0408
 5670TIP3    H238502   5.924   0.911  11.000  0.6900 -0.4774 -0.9549
 5671TIP3   OH238503   5.640   0.167   4.667 -0.1801  0.4684  0.3702
 5671TIP3    H138504   5.622   0.157   4.760 -0.4428  0.5772  0.3336
 5671TIP3    H238505   5.729   0.199   4.663 -0.3969  1.1119  0.6130
 5672TIP3   OH238506   0.309   3.303   3.069 -0.2646 -0.0690  0.0770
 5672TIP3    H138507   0.228   3.313   3.118  0.1102  2.1898  0.3715
 5672TIP3    H238508   0.376   3.286   3.135  0.1363  2.3526  0.4035
 5673TIP3   OH238509   0.109   2.576   4.301  0.2277  0.1167 -0.3221
 5673TIP3    H138510   0.044   2.512   4.333  0.7206  0.0717  0.6158
 5673TIP3    H238511   0.067   2.616   4.225 -1.1788  0.5138  0.6041
 5674TIP3   OH238512   5.855   4.822  13.024 -0.3842 -0.7068  0.0712
 5674TIP3    H138513   5.898   4.764  12.961 -0.8349 -0.8253 -0.1278
 5674TIP3    H238514   5.902   4.905  13.015 -0.3545 -0.7644 -0.3242
 5675TIP3   OH238515   2.921   2.185   5.201  0.0037 -0.7202  0.8113
 5675TIP3    H138516   2.881   2.241   5.135 -2.2198 -2.3741  0.6184
 5675TIP3    H238517   2.956   2.110   5.151  1.5564 -0.2938  1.2038
 5676TIP3   OH238518   1.957   4.002  15.369  0.2195  0.3244 -0.0153
 5676TIP3    H138519   1.911   4.079  15.401  0.1454  0.0050  0.6513
 5676TIP3    H238520   1.950   3.938  15.439 -0.1880 -0.4854 -0.7706
 5677TIP3   OH238521   1.582   6.518  11.992 -0.6296  0.0537 -0.6543
 5677TIP3    H138522   1.594   6.423  11.985  1.6076  0.2630 -0.2373
 5677TIP3    H238523   1.491   6.528  12.019 -2.0852 -1.7806 -4.1875
 5678TIP3   OH238524   5.956   0.502  16.753  0.2309  0.2453 -0.5808
 5678TIP3    H138525   5.864   0.526  16.764  0.2441  0.4305 -0.8562
 5678TIP3    H238526   5.997   0.581  16.718  0.6446  0.3974  0.2442
 5679TIP3   OH238527   3.328   5.226  16.776 -0.5096 -0.0930  0.2876
 5679TIP3    H138528   3.285   5.141  16.781  0.2520 -0.5500 -0.6252
 5679TIP3    H238529   3.406   5.217  16.830 -0.8934  0.3428  0.9417
 5680TIP3   OH238530   0.092   3.383   5.101 -0.2778  0.0767  0.2029
 5680TIP3    H138531   0.098   3.291   5.075  0.0674  0.1556 -0.0189
 5680TIP3    H238532   0.049   3.382   5.186  0.0915 -0.3255  0.3907
 5681TIP3   OH238533   4.222   2.984  15.021  0.1366  0.2961  0.5293
 5681TIP3    H138534   4.299   2.942  14.984  0.1228 -0.1170  0.9585
 5681TIP3    H238535   4.150   2.958  14.963  0.6929  3.0525 -1.6555
 5682TIP3   OH238536   6.725   5.031   5.728 -0.4135 -0.3310 -0.0937
 5682TIP3    H138537   6.687   4.949   5.698 -0.5894 -0.8708  1.5281
 5682TIP3    H238538   6.807   5.005   5.771 -0.0425  0.4355 -0.3167
 5683TIP3   OH238539   4.971   2.261  14.527  0.4610  0.0836  0.1158
 5683TIP3    H138540   5.032   2.242  14.456  1.0126  0.5549  0.4580
 5683TIP3    H238541   5.026   2.267  14.605 -0.1728 -0.7110  0.6431
 5684TIP3   OH238542   5.419   6.106   3.725 -0.3894 -0.1072  0.3191
 5684TIP3    H138543   5.362   6.034   3.754 -1.3496  0.8441  0.8751
 5684TIP3    H238544   5.473   6.126   3.801 -1.7149  1.2407  0.9741
 5685TIP3   OH238545   3.358   0.503  14.270  0.0465  0.1904  0.2354
 5685TIP3    H138546   3.284   0.524  14.214 -1.8536 -0.1733  2.4357
 5685TIP3    H238547   3.409   0.583  14.273  0.6741 -0.0035 -2.5189
 5686TIP3   OH238548   1.327   0.464  13.065 -0.1280  0.0136 -0.0370
 5686TIP3    H138549   1.371   0.547  13.082 -0.1887 -0.1312  0.9034
 5686TIP3    H238550   1.392   0.397  13.089  0.2822 -0.2286 -1.7425
 5687TIP3   OH238551   5.461   6.112  11.085 -0.1923  0.2991 -0.3829
 5687TIP3    H138552   5.422   6.065  11.160 -0.7194  1.3011 -0.0073
 5687TIP3    H238553   5.482   6.199  11.119  0.5038  0.4437 -1.1429
 5688TIP3   OH238554   5.947   0.587  15.937 -0.2416  0.6804  0.8080
 5688TIP3    H138555   5.994   0.505  15.951 -1.4828 -0.2619 -0.2812
 5688TIP3    H238556   5.985   0.622  15.856 -0.2887  0.7348  0.8090
 5689TIP3   OH238557   3.035   2.678   1.566  0.5893  0.4986  0.0039
 5689TIP3    H138558   3.116   2.728   1.552  0.1390  1.1011 -0.5224
 5689TIP3    H238559   2.979   2.737   1.617 -0.1365  0.7400 -1.0459
 5690TIP3   OH238560   2.933   5.830  10.727 -0.0847  0.2401  0.3981
 5690TIP3    H138561   2.885   5.824  10.810  0.8911  0.0962  0.9726
 5690TIP3    H238562   3.000   5.896  10.744  2.4407 -2.2688  0.9697
 5691TIP3   OH238563   6.519   6.248   2.229 -0.1811  0.1709  0.1294
 5691TIP3    H138564   6.478   6.167   2.258  0.2246  0.4259  1.4943
 5691TIP3    H238565   6.452   6.292   2.177 -1.3722  0.2031  1.6336
 5692TIP3   OH238566   1.954   6.748  11.838 -0.2519 -0.1772  0.3462
 5692TIP3    H138567   1.940   6.842  11.827  1.9564  0.1113 -0.4112
 5692TIP3    H238568   1.905   6.707  11.767  0.7006  0.5907 -0.7806
 5693TIP3   OH238569   4.090   3.091  12.849  0.3425 -0.3233 -0.1613
 5693TIP3    H138570   4.048   3.128  12.927  1.9037  2.4491 -0.5212
 5693TIP3    H238571   4.017   3.071  12.790 -0.7770 -1.1708  1.4114
 5694TIP3   OH238572   3.295   5.971   1.078  0.5459  0.7944  0.4815
 5694TIP3    H138573   3.217   5.932   1.037  1.9735 -0.3583 -1.2612
 5694TIP3    H238574   3.259   6.038   1.137 -1.8743 -1.1169  1.3793
 5695TIP3   OH238575   0.431   4.586  15.737 -0.0090  0.2743  0.4517
 5695TIP3    H138576   0.452   4.543  15.654  1.3287  2.0103 -0.1754
 5695TIP3    H238577   0.361   4.533  15.774  3.1186 -3.9851  0.9848
 5696TIP3   OH238578   1.345   2.298  15.596 -0.3170  0.1462  0.1810
 5696TIP3    H138579   1.259   2.339  15.592 -0.2069  0.3613  0.0065
 5696TIP3    H238580   1.358   2.278  15.689 -0.6157 -0.0209  0.1865
 5697TIP3   OH238581   5.500   6.220  10.844 -0.1080  0.8763  0.2491
 5697TIP3    H138582   5.492   6.158  10.772  1.3490 -0.7820  1.4315
 5697TIP3    H238583   5.464   6.174  10.920  1.1608  1.3639  1.1951
 5698TIP3   OH238584   5.731   2.001  12.322  0.3868  0.5997  0.1813
 5698TIP3    H138585   5.696   1.949  12.395  0.7282 -2.9602 -1.9613
 5698TIP3    H238586   5.822   1.972  12.314  0.3177  0.7958 -1.6827
 5699TIP3   OH238587   0.432   2.812   1.068 -0.4094 -0.3798  0.3289
 5699TIP3    H138588   0.486   2.739   1.099 -1.1617 -1.0295  0.1368
 5699TIP3    H238589   0.440   2.808   0.973  1.0964  0.9986  0.3495
 5700TIP3   OH238590   3.444   2.236   5.424  0.3261  0.2897  0.5885
 5700TIP3    H138591   3.529   2.251   5.466  0.5955 -0.6932  0.4279
 5700TIP3    H238592   3.386   2.211   5.496  0.0854  1.2624  0.7418
 5701TIP3   OH238593   2.284   1.616  15.763  0.3949 -0.2359  0.2921
 5701TIP3    H138594   2.285   1.705  15.727  2.7516  0.1110  1.0495
 5701TIP3    H238595   2.293   1.628  15.857 -1.3394 -1.2656  0.6370
 5702TIP3   OH238596   5.748   5.909   5.795  0.0767  0.2023 -0.0997
 5702TIP3    H138597   5.783   5.977   5.853  0.0817  0.7107 -0.6962
 5702TIP3    H238598   5.786   5.828   5.829  1.1468  0.6476 -0.1974
 5703TIP3   OH238599   1.729   3.853  12.789  1.0913 -0.6389  0.0562
 5703TIP3    H138600   1.760   3.806  12.867  0.5854  0.3167  0.8630
 5703TIP3    H238601   1.740   3.945  12.811 -1.1956 -0.2772 -0.0705
 5704TIP3   OH238602   5.876   0.937  14.895 -0.0865 -0.5333 -0.4221
 5704TIP3    H138603   5.834   1.017  14.928 -1.8023 -0.9720 -1.3867
 5704TIP3    H238604   5.881   0.880  14.972  0.8939  0.3610  0.2135
 5705TIP3   OH238605   1.308   2.250   3.332 -0.6910 -0.0213  0.0136
 5705TIP3    H138606   1.246   2.189   3.371 -1.8773  1.4076  0.4590
 5705TIP3    H238607   1.356   2.286   3.407 -1.9384  1.6230  0.0721
 5706TIP3   OH238608   1.241   2.388   5.271 -0.4537 -0.1451 -0.0690
 5706TIP3    H138609   1.298   2.443   5.217  3.1001 -4.0143 -0.7293
 5706TIP3    H238610   1.181   2.347   5.209 -0.6848  0.2102 -0.0859
 5707TIP3   OH238611   0.384   3.151   1.490 -0.6289  0.3546 -0.1969
 5707TIP3    H138612   0.296   3.120   1.473  0.0745 -2.2025  0.4108
 5707TIP3    H238613   0.441   3.091   1.442  0.8407  0.7903  0.9134
 5708TIP3   OH238614   5.409   0.846  15.587 -0.3054  0.5009  0.4564
 5708TIP3    H138615   5.473   0.781  15.615 -1.0918 -0.9934 -1.0370
 5708TIP3    H238616   5.430   0.924  15.638  3.4019  0.4456 -0.7000
 5709TIP3   OH238617   0.748   2.240   0.498  0.5288  0.3864 -0.1437
 5709TIP3    H138618   0.660   2.212   0.523  0.9936 -1.0695 -0.0362
 5709TIP3    H238619   0.801   2.227   0.577  0.7442  1.8378 -0.0136
 5710TIP3   OH238620   5.900   2.350   2.134 -0.2729 -0.3254 -0.6551
 5710TIP3    H138621   5.959   2.339   2.059 -1.3226  0.9264 -1.7101
 5710TIP3    H238622   5.956   2.381   2.205  0.6128 -0.7644 -1.1522
 5711TIP3   OH238623   4.608   3.971  15.349 -0.4027 -0.4395 -0.0811
 5711TIP3    H138624   4.631   4.064  15.353  0.5606 -0.7079  2.7577
 5711TIP3    H238625   4.512   3.970  15.359 -0.3255  0.2351  0.8821
 5712TIP3   OH238626   3.741   6.424   5.884  0.1130  0.1694 -0.2899
 5712TIP3    H138627   3.720   6.502   5.937  0.0529  0.4129 -0.6710
 5712TIP3    H238628   3.733   6.351   5.946  1.8619  0.6087  0.5268
 5713TIP3   OH238629   4.953   4.306  16.104 -0.7217 -0.8941 -0.3545
 5713TIP3    H138630   5.030   4.286  16.158 -0.8536  0.2690  0.3044
 5713TIP3    H238631   4.977   4.276  16.016  0.4772 -0.5852 -0.1480
 5714TIP3   OH238632   4.491   1.556  12.134  0.4204 -0.5123 -0.5276
 5714TIP3    H138633   4.486   1.623  12.066 -0.1409 -0.2249 -0.2085
 5714TIP3    H238634   4.584   1.550  12.155  0.6182 -0.6689 -1.3768
 5715TIP3   OH238635   3.302   5.818   1.567  0.1096 -0.3355  0.0214
 5715TIP3    H138636   3.230   5.869   1.530 -0.5441  2.0265  3.9989
 5715TIP3    H238637   3.262   5.773   1.642  1.8737 -2.7552 -0.3654
 5716TIP3   OH238638   3.091   3.135  10.922 -0.1573 -0.1367  0.1041
 5716TIP3    H138639   3.070   3.041  10.919  1.3421 -0.4807 -0.0816
 5716TIP3    H238640   3.054   3.165  11.005 -3.2534 -0.2025 -1.1126
 5717TIP3   OH238641   5.369   6.829  13.821 -0.5346 -0.4062 -0.0266
 5717TIP3    H138642   5.440   6.772  13.792 -1.3632 -1.2381 -0.4618
 5717TIP3    H238643   5.323   6.854  13.741 -0.4366  0.5636  0.1987
 5718TIP3   OH238644   6.142   3.298   5.364 -0.6654  0.1149  0.3902
 5718TIP3    H138645   6.117   3.228   5.304  1.2853 -0.1886 -0.1325
 5718TIP3    H238646   6.119   3.264   5.451  1.6444 -1.9664  0.3334
 5719TIP3   OH238647   2.845   0.115  11.069 -0.1126 -0.4252 -0.6301
 5719TIP3    H138648   2.801   0.089  10.989 -2.4867  0.0491  0.4204
 5719TIP3    H238649   2.823   0.046  11.132 -0.1662  0.3178  0.1844
 5720TIP3   OH238650   4.669   2.643  14.904  0.3258  0.0242  0.6260
 5720TIP3    H138651   4.590   2.591  14.920 -0.5020  0.3370 -1.9825
 5720TIP3    H238652   4.735   2.578  14.881  0.2620 -0.1051  0.8020
 5721TIP3   OH238653   2.610   4.694  14.618 -0.0462 -0.4692  0.3380
 5721TIP3    H138654   2.689   4.707  14.672  0.9498  0.1586 -1.2052
 5721TIP3    H238655   2.604   4.774  14.565 -0.6836 -1.2939 -0.8649
 5722TIP3   OH238656   0.255   3.940  16.543 -0.4635 -0.5078  0.3182
 5722TIP3    H138657   0.160   3.947  16.554 -0.6388 -1.1879 -0.6454
 5722TIP3    H238658   0.275   3.849  16.562  0.1906 -0.0966  1.7401
 5723TIP3   OH238659   6.743   4.949   0.284 -0.0269 -0.0055 -0.4552
 5723TIP3    H138660   6.688   4.976   0.358 -0.6937  0.5105 -1.1152
 5723TIP3    H238661   6.830   4.981   0.306 -0.6783  2.2710 -0.9438
 5724TIP3   OH238662   6.332   6.101  13.343 -0.2396  0.2258 -0.3852
 5724TIP3    H138663   6.407   6.042  13.334 -1.2345 -1.0552 -0.6948
 5724TIP3    H238664   6.279   6.062  13.412 -0.9907  0.6891 -0.6797
 5725TIP3   OH238665   5.628   4.772  12.820  0.5320 -0.5736 -0.0906
 5725TIP3    H138666   5.582   4.687  12.824  1.5984 -1.1942  4.3498
 5725TIP3    H238667   5.669   4.781  12.906  0.1011  4.7257 -0.1100
 5726TIP3   OH238668   1.459   2.726  14.076  0.2343 -0.5507 -0.1127
 5726TIP3    H138669   1.425   2.784  14.008 -2.1260 -1.6659 -0.0025
 5726TIP3    H238670   1.488   2.784  14.146 -3.4097  0.6394  0.6259
 5727TIP3   OH238671   5.901   3.665   0.981  0.0517  0.0817  0.1402
 5727TIP3    H138672   5.829   3.724   1.005 -0.8528 -0.9495  0.0622
 5727TIP3    H238673   5.874   3.629   0.897  0.4281 -0.6755  0.3363
 5728TIP3   OH238674   3.821   1.710   0.812  0.1211  0.1246 -0.0162
 5728TIP3    H138675   3.783   1.765   0.744  1.8595 -0.7633 -1.8108
 5728TIP3    H238676   3.810   1.620   0.779  1.5287 -0.2875  0.5485
 5729TIP3   OH238677   1.772   5.210   2.754 -0.3303 -0.1403  0.0844
 5729TIP3    H138678   1.713   5.285   2.746 -1.3615 -0.8114  1.0895
 5729TIP3    H238679   1.853   5.246   2.792  0.0125  0.8165 -1.4695
 5730TIP3   OH238680   1.881   0.012   4.558 -0.4262 -0.0468 -0.2765
 5730TIP3    H138681   1.931   0.091   4.577 -0.7214  0.5149 -1.6758
 5730TIP3    H238682   1.940  -0.042   4.506 -1.1314  0.5013 -1.6989
 5731TIP3   OH238683   3.545   4.339  16.051 -0.2220 -0.2295 -0.5855
 5731TIP3    H138684   3.605   4.380  15.988  1.4337  2.0200  2.2474
 5731TIP3    H238685   3.460   4.380  16.034 -0.1436 -0.6484 -2.1510
 5732TIP3   OH238686   6.521   3.235   5.948  0.3318  0.0733 -0.5385
 5732TIP3    H138687   6.513   3.301   6.018 -0.5884 -0.0936 -0.4744
 5732TIP3    H238688   6.611   3.205   5.954 -0.3468 -1.8061  2.2896
 5733TIP3   OH238689   3.686   4.487  16.295  0.1691  0.0241  0.1034
 5733TIP3    H138690   3.696   4.554  16.227  0.0171 -0.3539 -0.2948
 5733TIP3    H238691   3.718   4.529  16.375  0.9687  0.2566 -0.3247
 5734TIP3   OH238692   4.222   0.636   0.009  0.0871  0.5193 -0.0207
 5734TIP3    H138693   4.179   0.715   0.041 -0.4950 -0.0543  0.6416
 5734TIP3    H238694   4.224   0.646  -0.086 -0.0267  1.3024  0.0600
 5735TIP3   OH238695   6.752   4.473   0.605 -0.1581 -0.0951  0.1961
 5735TIP3    H138696   6.710   4.555   0.633 -0.3734 -0.6577  1.5767
 5735TIP3    H238697   6.695   4.441   0.534 -1.2792 -0.1058  1.0653
 5736TIP3   OH238698   6.241   2.608   0.512  0.2216 -1.0490  0.4181
 5736TIP3    H138699   6.226   2.582   0.420 -3.4700  0.6216  0.3610
 5736TIP3    H238700   6.188   2.546   0.562 -0.1617 -0.1694  1.1288
 5737TIP3   OH238701   4.947   0.795   5.056 -0.1186  0.1781  0.2219
 5737TIP3    H138702   4.944   0.843   5.139  0.2457  0.1400  0.2582
 5737TIP3    H238703   4.891   0.719   5.070  0.1806  0.0130  0.5330
 5738TIP3   OH238704   2.140   2.447  14.351  0.2927  0.0886  0.0526
 5738TIP3    H138705   2.195   2.414  14.280  0.7243  0.8977  0.0037
 5738TIP3    H238706   2.106   2.530  14.319 -0.4002 -0.0661  0.3634
 5739TIP3   OH238707   4.864   1.271   4.321 -0.2344 -0.7513 -0.0255
 5739TIP3    H138708   4.776   1.308   4.313  0.7960  2.1621  0.8676
 5739TIP3    H238709   4.905   1.322   4.391  3.3902  0.7081 -2.8991
 5740TIP3   OH238710   1.134   5.159   0.081  0.8463  0.5161  0.5298
 5740TIP3    H138711   1.070   5.090   0.094  0.4042  0.3423 -2.0853
 5740TIP3    H238712   1.214   5.113   0.056  0.6005  0.9109 -1.0455
 5741TIP3   OH238713   1.396   3.496  13.428 -0.1827  0.3744  0.1305
 5741TIP3    H138714   1.470   3.506  13.369  0.4374 -0.6549  0.6991
 5741TIP3    H238715   1.427   3.529  13.512  0.0578 -1.1307  0.6619
 5742TIP3   OH238716   1.486   0.619  16.598 -0.3717 -0.7959 -0.2408
 5742TIP3    H138717   1.485   0.540  16.544 -1.1618 -0.0801 -1.2846
 5742TIP3    H238718   1.571   0.659  16.581 -0.1977 -1.1176 -0.1388
 5743TIP3   OH238719   3.490   6.005   1.651  0.4784 -0.3152  0.5718
 5743TIP3    H138720   3.415   5.950   1.630  1.2322 -0.6196 -1.6756
 5743TIP3    H238721   3.493   6.008   1.747 -1.4355 -1.5760  0.7131
 5744TIP3   OH238722   6.536   1.908   0.905 -0.2235  0.7291 -0.0994
 5744TIP3    H138723   6.441   1.919   0.899 -0.2979 -0.0122 -0.3294
 5744TIP3    H238724   6.553   1.902   0.999 -0.6917 -1.3951 -0.0953
 5745TIP3   OH238725   0.296   3.480  11.463  0.4430  0.3707  0.1622
 5745TIP3    H138726   0.377   3.520  11.495  0.0530  1.5296 -0.2295
 5745TIP3    H238727   0.238   3.480  11.540  0.5945  0.1587  0.2747
 5746TIP3   OH238728   5.718   2.996   2.037 -0.2571  0.3553  0.0577
 5746TIP3    H138729   5.792   2.935   2.034  0.2981  1.0009  0.3542
 5746TIP3    H238730   5.644   2.943   2.066  0.5647  0.1411  1.8833
 5747TIP3   OH238731   1.605   3.395   1.567  0.0402  0.0527 -0.0828
 5747TIP3    H138732   1.565   3.481   1.579  0.8498  0.5036 -0.4946
 5747TIP3    H238733   1.560   3.338   1.630 -0.8760  0.6483 -0.1841
 5748TIP3   OH238734   3.234   1.122  14.753  0.5426  0.7095  0.1994
 5748TIP3    H138735   3.206   1.072  14.830  0.3070  1.1502  0.4041
 5748TIP3    H238736   3.166   1.188  14.742  1.5645  1.9002  0.7910
 5749TIP3   OH238737   3.072   2.717   2.940  0.1781 -0.2113  0.0140
 5749TIP3    H138738   2.983   2.715   2.976 -0.4117  1.6498 -1.1717
 5749TIP3    H238739   3.059   2.707   2.845  1.5301 -2.9807  0.0283
 5750TIP3   OH238740   2.561   3.910  16.726  0.2289  0.5678 -0.1172
 5750TIP3    H138741   2.500   3.959  16.670 -0.0833 -0.3153 -0.5715
 5750TIP3    H238742   2.512   3.832  16.753 -0.0505  1.5074  2.3603
 5751TIP3   OH238743   2.004   2.168  11.343  0.5280 -0.4264  0.0136
 5751TIP3    H138744   2.004   2.086  11.293 -0.0673 -0.2989 -0.2016
 5751TIP3    H238745   1.969   2.233  11.282  2.4981  0.3572 -0.3846
 5752TIP3   OH238746   0.465   1.924  13.799  0.4966  0.2023  0.0941
 5752TIP3    H138747   0.534   1.918  13.865  0.3895 -1.7495  0.0954
 5752TIP3    H238748   0.384   1.932  13.849  0.5197 -0.0314  0.1697
 5753TIP3   OH238749   0.429   3.149   3.275  0.2810 -0.4817 -0.4498
 5753TIP3    H138750   0.356   3.153   3.337  0.6227  1.7091 -0.0761
 5753TIP3    H238751   0.507   3.143   3.331  0.4972 -0.2315 -0.7151
 5754TIP3   OH238752   0.934   5.518  14.465  0.4115 -0.0960  0.3067
 5754TIP3    H138753   0.899   5.605  14.446  0.4553  0.5014  2.6460
 5754TIP3    H238754   0.992   5.531  14.539  3.2554 -1.5788 -1.4708
 5755TIP3   OH238755   6.486   0.226  11.047 -0.1914 -0.0845 -0.5563
 5755TIP3    H138756   6.521   0.137  11.051 -1.6091 -0.6318  2.4612
 5755TIP3    H238757   6.408   0.219  10.993 -0.5613 -0.8035  0.0520
 5756TIP3   OH238758   2.596   0.710  14.991  0.3163  0.1736  0.2741
 5756TIP3    H138759   2.511   0.751  15.008 -0.1422 -0.1279 -1.1577
 5756TIP3    H238760   2.617   0.664  15.072 -0.9987  0.0743  0.5827
 5757TIP3   OH238761   6.684   0.080  14.680  0.5648  0.0650  0.1465
 5757TIP3    H138762   6.621   0.012  14.703  0.1583  0.0847 -0.8905
 5757TIP3    H238763   6.766   0.033  14.667  0.8902  0.0769  1.8291
 5758TIP3   OH238764   0.235   2.234  13.915  0.2258  0.6073  0.2360
 5758TIP3    H138765   0.242   2.138  13.919 -1.2871  0.5021  1.3213
 5758TIP3    H238766   0.184   2.251  13.836  1.4450  0.6107 -0.5754
 5759TIP3   OH238767   5.992   3.841   3.079  0.8613 -0.7642 -0.6092
 5759TIP3    H138768   6.031   3.804   3.158  0.9879  0.1547 -0.2310
 5759TIP3    H238769   5.902   3.809   3.080  0.7991 -0.5774  0.0256
 5760TIP3   OH238770   1.755   3.823   6.182  0.0197  0.5811 -0.1246
 5760TIP3    H138771   1.684   3.758   6.177 -1.0641  1.7322 -0.2154
 5760TIP3    H238772   1.820   3.791   6.120 -0.4405 -0.4764 -0.0927
 5761TIP3   OH238773   3.530   5.285   1.846 -0.0021 -0.5142  0.3218
 5761TIP3    H138774   3.449   5.281   1.794  0.3645 -0.9302 -0.2262
 5761TIP3    H238775   3.530   5.203   1.896 -0.2544 -0.2049  0.8354
 5762TIP3   OH238776   1.043   5.044   1.840  0.8494  0.1559  0.5432
 5762TIP3    H138777   1.079   4.972   1.892  0.5632  0.8009  1.6596
 5762TIP3    H238778   1.101   5.119   1.859  0.0429  0.7038  0.8723
 5763TIP3   OH238779   1.990   1.029  14.123  0.2735  1.0111  0.5619
 5763TIP3    H138780   1.956   1.108  14.165  0.7832  1.9047 -0.6519
 5763TIP3    H238781   1.920   1.001  14.064 -0.4963 -0.3201  2.0420
 5764TIP3   OH238782   1.363   2.428   5.648 -0.3388 -0.7004  0.0305
 5764TIP3    H138783   1.378   2.374   5.726 -0.2815 -0.6847  0.0305
 5764TIP3    H238784   1.395   2.374   5.576  0.2838 -0.4223  0.0903
 5765TIP3   OH238785   0.827   3.182   2.830 -0.2259  0.1927 -0.3165
 5765TIP3    H138786   0.740   3.183   2.791 -0.8322  0.4183  0.9978
 5765TIP3    H238787   0.856   3.091   2.821  0.4120  0.5526 -2.8204
 5766TIP3   OH238788   6.754   5.286   0.438 -0.2585 -0.5514  0.2088
 5766TIP3    H138789   6.845   5.307   0.416 -0.2056 -0.6114  0.3743
 5766TIP3    H238790   6.712   5.371   0.445 -0.1076 -0.5065  0.5969
 5767TIP3   OH238791   6.496   3.430   1.254  0.2166 -0.0339  0.1499
 5767TIP3    H138792   6.538   3.346   1.235  0.4617  0.8242 -3.9333
 5767TIP3    H238793   6.557   3.496   1.222 -1.5831  1.4990 -0.3325
 5768TIP3   OH238794   0.162   0.526   4.356  0.2958  0.1096  0.3159
 5768TIP3    H138795   0.185   0.541   4.264  0.7559 -2.2207  0.0097
 5768TIP3    H238796   0.072   0.558   4.363  0.3803  0.6657 -0.8308
 5769TIP3   OH238797   1.354   1.969   4.176 -0.7699 -0.5064 -0.0626
 5769TIP3    H138798   1.360   2.057   4.214  0.6422 -0.1140 -1.1557
 5769TIP3    H238799   1.423   1.966   4.110 -0.1463 -2.7828  0.6255
 5770TIP3   OH238800   2.905   1.047  13.156 -0.0569  0.2916 -0.0610
 5770TIP3    H138801   2.908   1.046  13.060  2.1734 -0.4273 -0.0510
 5770TIP3    H238802   2.832   0.989  13.178  1.1569 -1.9348 -1.3916
 5771TIP3   OH238803   1.120   3.809   0.766  0.2649  0.6023 -0.3617
 5771TIP3    H138804   1.158   3.795   0.679 -2.7077 -1.7755 -1.4768
 5771TIP3    H238805   1.091   3.901   0.765 -0.3742  0.4151 -2.2144
 5772TIP3   OH238806   6.772   0.521  16.753  0.0746  0.4303  0.7009
 5772TIP3    H138807   6.711   0.568  16.696 -0.6225 -1.3571 -0.1349
 5772TIP3    H238808   6.777   0.573  16.833 -0.5235  1.9553 -0.2209
 5773TIP3   OH238809   2.902   1.228  11.059 -0.1077  0.0875  0.2552
 5773TIP3    H138810   2.919   1.134  11.067 -1.0956 -0.1782 -0.5423
 5773TIP3    H238811   2.981   1.269  11.093  0.6262 -1.0389 -0.0087
 5774TIP3   OH238812   6.130   6.676   4.040  0.9653  0.3152 -0.0338
 5774TIP3    H138813   6.079   6.671   3.960  1.2166 -0.7729 -0.1448
 5774TIP3    H238814   6.220   6.693   4.011  0.7733  1.6786  0.1294
 5775TIP3   OH238815   4.673   1.307  13.356  0.0922 -0.5064 -0.0953
 5775TIP3    H138816   4.742   1.244  13.377 -0.0491 -0.5458  0.2655
 5775TIP3    H238817   4.698   1.386  13.404  0.6365 -0.0561 -1.0989
 5776TIP3   OH238818   1.516   0.691  15.526 -0.0014 -0.7602 -0.0716
 5776TIP3    H138819   1.525   0.638  15.446 -0.0581  0.5321 -0.9573
 5776TIP3    H238820   1.463   0.766  15.500 -0.2361 -0.4320  1.2584
 5777TIP3   OH238821   6.278   6.830   2.709 -0.4130 -0.0611 -0.0636
 5777TIP3    H138822   6.351   6.787   2.755 -0.5890 -2.2413 -1.6635
 5777TIP3    H238823   6.320   6.899   2.657  0.1697  0.3296  0.8856
 5778TIP3   OH238824   1.646   1.851   2.063 -0.3156  0.2757  0.5237
 5778TIP3    H138825   1.673   1.778   2.008  2.0157  1.4218  0.0334
 5778TIP3    H238826   1.675   1.826   2.151 -0.8433 -0.0087  0.6209
 5779TIP3   OH238827   4.586   1.240  14.011 -0.0305  0.0199  0.3495
 5779TIP3    H138828   4.605   1.193  13.930 -0.5668 -0.4816  0.5030
 5779TIP3    H238829   4.559   1.171  14.072  0.9236  0.3160  1.1313
 5780TIP3   OH238830   5.240   0.658  13.580  0.3044 -0.2565  0.4677
 5780TIP3    H138831   5.323   0.614  13.559  1.0002  0.7669  0.9775
 5780TIP3    H238832   5.258   0.751  13.564 -1.1345 -0.1359 -0.5893
 5781TIP3   OH238833   4.765   2.520   6.026 -0.0511  0.0312  0.1156
 5781TIP3    H138834   4.837   2.478   5.979 -0.9284 -2.0457  0.5087
 5781TIP3    H238835   4.739   2.456   6.092 -1.8657  0.9849  0.3855
 5782TIP3   OH238836   0.692   2.054   0.018 -0.1913  0.3729 -0.4888
 5782TIP3    H138837   0.669   1.961   0.019  0.2539  0.2548 -0.7977
 5782TIP3    H238838   0.689   2.080   0.110 -0.1831  0.0180 -0.3851
 5783TIP3   OH238839   5.382   4.015   5.312 -0.3170  0.1096  0.7070
 5783TIP3    H138840   5.314   3.965   5.265 -0.4283  0.7795  0.1281
 5783TIP3    H238841   5.333   4.079   5.363 -0.1852 -0.5308  1.6520
 5784TIP3   OH238842   1.875   3.091  13.164 -0.1944 -0.4539 -0.2168
 5784TIP3    H138843   1.822   3.039  13.225 -0.8476 -0.0849 -0.4640
 5784TIP3    H238844   1.813   3.121  13.097  0.0189  1.2563  0.3044
 5785TIP3   OH238845   3.296   0.719   1.669  0.3970 -0.3035  0.6564
 5785TIP3    H138846   3.204   0.697   1.686  0.2088 -0.5438 -0.5923
 5785TIP3    H238847   3.307   0.806   1.707 -1.3271  1.2794 -2.1196
 5786TIP3   OH238848   5.703   4.326  11.897 -0.4943  0.6073  0.7913
 5786TIP3    H138849   5.669   4.369  11.818  0.0963  1.7449  1.1245
 5786TIP3    H238850   5.625   4.306  11.948 -0.9395 -0.8185 -0.3870
 5787TIP3   OH238851   6.121   2.888   2.463  0.1105 -0.1722  0.7023
 5787TIP3    H138852   6.144   2.964   2.516 -0.1312 -0.2945  0.9841
 5787TIP3    H238853   6.049   2.917   2.408 -0.3253 -0.3440  1.1753
 5788TIP3   OH238854   6.461   1.958   4.527 -0.2227  0.6651  0.2060
 5788TIP3    H138855   6.449   1.863   4.525  1.9655  0.3341 -0.6907
 5788TIP3    H238856   6.415   1.987   4.606  0.8438 -1.4428  1.7022
 5789TIP3   OH238857   5.692   4.618  11.369 -0.1393  0.5832 -0.1629
 5789TIP3    H138858   5.683   4.660  11.455  0.1380  1.8635 -0.7397
 5789TIP3    H238859   5.605   4.625  11.330  0.0442  1.1257 -0.4803
 5790TIP3   OH238860   1.308   5.536   5.180 -0.3311  0.5442 -0.2148
 5790TIP3    H138861   1.393   5.492   5.170  0.0661  1.5718 -1.7063
 5790TIP3    H238862   1.296   5.584   5.098 -1.5131  1.8807  0.6879
 5791TIP3   OH238863   6.090   1.412   3.494  0.0044 -0.1448 -0.0192
 5791TIP3    H138864   6.006   1.457   3.485  1.0593  1.5660 -2.8106
 5791TIP3    H238865   6.077   1.327   3.452 -0.7493 -0.5963  1.0958
 5792TIP3   OH238866   1.491   3.248  11.261 -0.2533 -0.6966  0.1555
 5792TIP3    H138867   1.584   3.261  11.282 -0.0631 -0.3043 -0.8412
 5792TIP3    H238868   1.488   3.165  11.215 -0.1856 -0.0961 -0.9626
 5793TIP3   OH238869   6.407   3.882   1.471 -0.6613  0.6349  0.2961
 5793TIP3    H138870   6.461   3.863   1.548 -0.8176  0.0272  0.2616
 5793TIP3    H238871   6.357   3.960   1.495 -0.1840  0.8652  0.5412
 5794TIP3   OH238872   5.019   0.141   4.911  0.0994  0.1485 -0.1024
 5794TIP3    H138873   4.929   0.136   4.943 -0.0637 -1.2521 -0.7454
 5794TIP3    H238874   5.028   0.232   4.882 -0.9781  0.4075  0.3017
 5795TIP3   OH238875   6.836   1.584   3.195 -0.1074 -0.0544  0.2134
 5795TIP3    H138876   6.750   1.545   3.211  0.4873 -0.6838  2.2913
 5795TIP3    H238877   6.852   1.638   3.273  0.7712  1.2104 -0.8106
 5796TIP3   OH238878   1.015   5.756   0.025  0.1296 -0.1348  0.0309
 5796TIP3    H138879   0.983   5.695  -0.042  0.2339  2.5210 -2.6260
 5796TIP3    H238880   0.949   5.825   0.028  1.3088  1.0060  0.9290
 5797TIP3   OH238881   6.209   4.455   2.315 -0.6989  0.2448 -0.5730
 5797TIP3    H138882   6.161   4.534   2.290 -0.6394  1.2474  2.1868
 5797TIP3    H238883   6.196   4.447   2.409  3.0305 -0.4643  0.0446
 5798TIP3   OH238884   6.554   0.255   1.739  0.1858  0.1176 -0.3078
 5798TIP3    H138885   6.576   0.319   1.671 -0.1675  0.3667 -0.1891
 5798TIP3    H238886   6.638   0.234   1.779  0.1953  1.2529  0.3133
 5799TIP3   OH238887   5.493   3.583  12.822  0.0728 -0.0651 -0.1068
 5799TIP3    H138888   5.412   3.592  12.772 -0.8544 -1.6713  1.0380
 5799TIP3    H238889   5.473   3.622  12.907  1.8542  3.2806 -1.0268
 5800TIP3   OH238890   3.277   1.336   2.740 -0.4877 -0.1804 -0.2947
 5800TIP3    H138891   3.247   1.256   2.783 -0.9130 -0.3502 -0.8992
 5800TIP3    H238892   3.207   1.400   2.758  0.7468  0.6884  1.9166
 5801TIP3   OH238893   2.216   3.319  10.244 -0.2685  0.1892  0.0311
 5801TIP3    H138894   2.283   3.250  10.248 -0.3898 -0.1843 -2.6480
 5801TIP3    H238895   2.263   3.399  10.268  0.9385 -0.2156 -0.8744
 5802TIP3   OH238896   6.583   3.627   5.068 -0.1701  0.4704 -0.3728
 5802TIP3    H138897   6.495   3.607   5.036  0.1892  0.0183 -1.0988
 5802TIP3    H238898   6.586   3.588   5.155 -1.2378  1.9093  0.3484
 5803TIP3   OH238899   4.535   1.997   1.007 -0.0549 -0.1354 -0.0932
 5803TIP3    H138900   4.463   2.047   1.046  1.4731  1.5997  0.6047
 5803TIP3    H238901   4.504   1.906   1.011 -1.7937  0.4351  1.1071
 5804TIP3   OH238902   2.644   0.551  13.138  0.5471  0.1890  0.1324
 5804TIP3    H138903   2.613   0.534  13.227  1.8382 -1.0405  0.3991
 5804TIP3    H238904   2.625   0.471  13.090  1.0222  0.3539 -0.3463
 5805TIP3   OH238905   1.784   6.790  10.970 -0.2944  0.2410 -0.2919
 5805TIP3    H138906   1.827   6.799  11.054 -1.5314  2.0468  0.2044
 5805TIP3    H238907   1.855   6.792  10.906  0.5169  1.1066  0.5987
 5806TIP3   OH238908   3.771   4.416  15.285  0.0205 -0.5285 -0.3984
 5806TIP3    H138909   3.714   4.493  15.291  2.2962  1.1837  1.7702
 5806TIP3    H238910   3.755   4.368  15.367  2.3925  0.6656  0.8801
 5807TIP3   OH238911   3.740   0.727   1.653  0.2512  0.3313  0.0421
 5807TIP3    H138912   3.685   0.757   1.581  0.2311  2.4510  0.8667
 5807TIP3    H238913   3.688   0.659   1.696 -0.2303 -0.1301 -1.2367
 5808TIP3   OH238914   3.196   6.192   1.953 -0.2374  0.0478  0.5175
 5808TIP3    H138915   3.263   6.254   1.982 -0.8275  1.1938 -0.4405
 5808TIP3    H238916   3.127   6.199   2.019 -0.9515  1.5707 -0.3360
 5809TIP3   OH238917   3.464   5.522   0.782  0.0084 -0.8682 -0.0818
 5809TIP3    H138918   3.472   5.578   0.706  1.6959  0.4616  0.9955
 5809TIP3    H238919   3.381   5.547   0.822  0.7394  0.9660  0.3921
 5810TIP3   OH238920   3.290   4.386  16.748  0.1322 -0.1901 -0.5629
 5810TIP3    H138921   3.347   4.462  16.740 -1.0221  0.7842  0.0757
 5810TIP3    H238922   3.348   4.315  16.776  0.9281  0.9264  0.7557
 5811TIP3   OH238923   3.056   5.606  10.840  0.2381 -0.4100 -0.2382
 5811TIP3    H138924   3.014   5.663  10.776  0.2732  0.4419  0.4825
 5811TIP3    H238925   3.145   5.640  10.849 -0.2487  0.5152  1.4497
 5812TIP3   OH238926   0.310   3.071   4.304 -0.1226 -0.4228 -0.7376
 5812TIP3    H138927   0.344   2.999   4.251 -0.2943 -0.3744 -0.9157
 5812TIP3    H238928   0.336   3.150   4.256  1.1699 -0.3066  0.1017
 5813TIP3   OH238929   2.510   3.005  15.538  0.0577  0.1565 -0.0454
 5813TIP3    H138930   2.603   2.984  15.548  0.1395  0.9491  0.9385
 5813TIP3    H238931   2.472   2.994  15.625 -0.4001  1.5454 -0.0359
 5814TIP3   OH238932   1.624   5.303   5.398  0.0231 -0.2467  0.4148
 5814TIP3    H138933   1.668   5.388   5.405 -0.7496  0.2710 -0.7095
 5814TIP3    H238934   1.695   5.241   5.384  0.4583  0.4914 -0.7845
 5815TIP3   OH238935   5.005   1.043  14.044  0.0846 -0.1149 -0.4770
 5815TIP3    H138936   5.050   1.032  13.960 -0.9296 -1.9033 -0.8334
 5815TIP3    H238937   4.917   1.011  14.029 -0.1964 -0.2552  1.2161
 5816TIP3   OH238938   4.386   1.304  12.941 -0.0153 -0.6600 -0.0540
 5816TIP3    H138939   4.426   1.282  12.856 -0.0891 -0.7810 -0.0576
 5816TIP3    H238940   4.449   1.274  13.006  1.5094  2.1201 -0.0579
 5817TIP3   OH238941   0.107   1.203  12.960 -0.0556  0.1010  0.2681
 5817TIP3    H138942   0.102   1.253  12.878 -1.1429  0.0687  0.2936
 5817TIP3    H238943   0.076   1.264  13.027  2.0482  0.5595  0.9053
 5818TIP3   OH238944   1.767   1.759   5.807  0.5658  0.0236 -0.0413
 5818TIP3    H138945   1.695   1.822   5.804  0.6801  0.1532 -0.0793
 5818TIP3    H238946   1.781   1.733   5.716 -0.5109 -1.2441  0.1141
 5819TIP3   OH238947   5.862   0.451   2.721 -0.4902  0.3745 -0.1507
 5819TIP3    H138948   5.921   0.390   2.765  1.5111  1.2846 -1.3859
 5819TIP3    H238949   5.908   0.535   2.726 -0.4525  0.6452 -3.2895
 5820TIP3   OH238950   0.413   5.259   4.536  0.0033 -0.0455 -0.3528
 5820TIP3    H138951   0.485   5.320   4.521 -1.0179  1.0060 -1.1130
 5820TIP3    H238952   0.341   5.314   4.566  0.1014 -1.3348  2.6149
 5821TIP3   OH238953   0.350   5.871  13.356 -0.0218  0.5207  0.5742
 5821TIP3    H138954   0.319   5.871  13.266 -1.3630  0.8065  1.0074
 5821TIP3    H238955   0.416   5.940  13.359 -0.3500  0.8696 -0.0688
 5822TIP3   OH238956   5.782   5.236   6.324 -0.5073  0.0063 -0.3734
 5822TIP3    H138957   5.768   5.187   6.405 -3.0894  2.5370  0.8726
 5822TIP3    H238958   5.806   5.324   6.353 -2.1797  1.1782 -2.2866
 5823TIP3   OH238959   5.442   0.413  14.658 -0.0663 -0.1181 -0.0928
 5823TIP3    H138960   5.484   0.336  14.697 -1.4736  0.1436  2.1074
 5823TIP3    H238961   5.473   0.486  14.711 -0.4227  0.5668 -0.8116
 5824TIP3   OH238962   1.331   6.138  11.130  0.4566 -0.7867  0.0280
 5824TIP3    H138963   1.307   6.045  11.127 -1.7552 -0.2571 -0.4603
 5824TIP3    H238964   1.406   6.141  11.189  0.4888 -2.8667  0.1673
 5825TIP3   OH238965   0.798   3.126  16.692  0.1128 -0.2579 -0.4211
 5825TIP3    H138966   0.726   3.160  16.639 -0.2303 -1.8962 -1.0857
 5825TIP3    H238967   0.775   3.151  16.782 -1.3522 -0.8148 -0.6044
 5826TIP3   OH238968   0.465   4.319   4.802  0.0980  0.1225  0.2742
 5826TIP3    H138969   0.463   4.391   4.739  2.0490  0.3474  0.4104
 5826TIP3    H238970   0.522   4.254   4.762  1.3145  0.2362  1.7212
 5827TIP3   OH238971   5.831   1.333  14.511 -0.3924  0.2352 -0.6380
 5827TIP3    H138972   5.903   1.270  14.512  0.6224  1.3162  1.7032
 5827TIP3    H238973   5.803   1.335  14.420 -0.1407 -3.1628 -0.9270
 5828TIP3   OH238974   3.121   4.733  14.308 -0.0281  0.2699 -0.0196
 5828TIP3    H138975   3.146   4.814  14.263 -1.0268  1.1246  0.9007
 5828TIP3    H238976   3.045   4.758  14.361  0.4446 -0.9648  1.2949
 5829TIP3   OH238977   0.969   4.038   3.570 -0.3630 -0.3414  0.1714
 5829TIP3    H138978   0.960   4.042   3.475 -2.1157 -2.8486  0.1545
 5829TIP3    H238979   0.968   4.130   3.598  1.2725  0.5233 -2.2386
 5830TIP3   OH238980   4.923   3.922   0.005 -0.4877 -0.5773  0.5576
 5830TIP3    H138981   4.830   3.925  -0.019 -0.7067 -2.7624  0.9827
 5830TIP3    H238982   4.923   3.894   0.097  0.5884  0.4155  0.8867
 5831TIP3   OH238983   3.756   4.264  11.705  0.4352 -0.5245  0.1826
 5831TIP3    H138984   3.710   4.265  11.620  0.7096  0.3245  0.0299
 5831TIP3    H238985   3.749   4.173  11.735  2.4878 -1.4959 -1.9391
 5832TIP3   OH238986   6.269   2.232   6.351  0.3975 -0.4876  0.1838
 5832TIP3    H138987   6.337   2.198   6.293  1.5370  0.0212  1.1754
 5832TIP3    H238988   6.317   2.263   6.428 -1.2009 -3.0915  2.4013
 5833TIP3   OH238989   3.637   0.987   1.579  0.4265 -0.2499  0.4050
 5833TIP3    H138990   3.562   0.930   1.594  0.1046  0.1304  0.2470
 5833TIP3    H238991   3.640   1.044   1.655  1.0808 -0.8328  0.8294
 5834TIP3   OH238992   5.841   2.132  10.577  0.3383 -0.7281 -0.3528
 5834TIP3    H138993   5.759   2.124  10.624  0.3653  0.0038 -0.1585
 5834TIP3    H238994   5.908   2.101  10.638  0.3611  0.1067  0.0650
 5835TIP3   OH238995   1.312   3.524  16.963  0.1511 -0.3244  0.0344
 5835TIP3    H138996   1.266   3.505  17.045 -1.0182 -1.5775 -0.8780
 5835TIP3    H238997   1.383   3.582  16.989 -0.0719 -0.8496  1.9676
 5836TIP3   OH238998   6.143   4.386   0.259 -0.6636 -0.4303  0.6455
 5836TIP3    H138999   6.181   4.372   0.346 -0.0978 -0.6100  0.3722
 5836TIP3    H239000   6.125   4.298   0.226 -0.4345 -0.3775  0.3833
 5837TIP3   OH239001   4.074   6.374   4.990 -0.2739 -0.1345 -0.1662
 5837TIP3    H139002   3.993   6.353   4.944 -0.4621 -2.7518  1.1315
 5837TIP3    H239003   4.053   6.451   5.043 -2.3923 -1.4883  1.1194
 5838TIP3   OH239004   3.790   3.887   3.317 -0.6995  0.3632 -0.3388
 5838TIP3    H139005   3.854   3.956   3.298 -1.5775  1.0594 -0.8606
 5838TIP3    H239006   3.819   3.812   3.266 -0.2709  0.6566 -0.5341
 5839TIP3   OH239007   0.194   5.613   1.635 -0.3039 -0.5978  0.3057
 5839TIP3    H139008   0.106   5.642   1.659 -0.9907 -2.5242  0.3141
 5839TIP3    H239009   0.216   5.547   1.701  0.9712 -0.4533  0.0455
 5840TIP3   OH239010   6.436   0.818  13.375 -0.3834 -0.1976  0.7019
 5840TIP3    H139011   6.436   0.856  13.288 -0.6532 -0.0439  0.7648
 5840TIP3    H239012   6.518   0.769  13.381 -0.3013 -0.0954  0.4144
 5841TIP3   OH239013   0.883   2.979  13.773  0.2807 -0.0291  0.3348
 5841TIP3    H139014   0.952   3.034  13.810  0.2245 -0.4633  1.0955
 5841TIP3    H239015   0.920   2.891  13.772 -0.4410 -0.3535  1.2186
 5842TIP3   OH239016   0.124   4.434  16.290  0.6759  0.0923  0.0323
 5842TIP3    H139017   0.199   4.403  16.238 -0.3114 -0.5601 -1.0712
 5842TIP3    H239018   0.104   4.520  16.254  0.0231 -0.3387 -0.6784
 5843TIP3   OH239019   0.892   6.149  14.288 -0.3248 -0.6737  0.5707
 5843TIP3    H139020   0.860   6.193  14.209  0.2975 -0.4509  0.4310
 5843TIP3    H239021   0.814   6.123  14.335 -0.7042  0.2320  0.4560
 5844TIP3   OH239022   4.842   3.556   2.064  0.3594 -0.4433  0.0621
 5844TIP3    H139023   4.747   3.544   2.063  0.1466  1.1182 -1.5116
 5844TIP3    H239024   4.865   3.581   1.975  1.7212  2.8385  1.1860
 5845TIP3   OH239025   4.987   2.869   1.350 -0.4858  0.4007  0.3519
 5845TIP3    H139026   4.975   2.902   1.439  1.7865  1.3112  0.3775
 5845TIP3    H239027   4.932   2.790   1.346  0.4041 -0.4536  3.0314
 5846TIP3   OH239028   0.118   1.629  16.388  0.1013  0.1182 -0.2256
 5846TIP3    H139029   0.121   1.712  16.340  0.9892 -0.1240 -0.5944
 5846TIP3    H239030   0.204   1.621  16.428 -0.0337 -0.5542 -0.0618
 5847TIP3   OH239031   6.545   6.805   4.900 -0.3482  0.1549  0.0655
 5847TIP3    H139032   6.526   6.724   4.853 -0.0946  1.0312 -1.6243
 5847TIP3    H239033   6.562   6.869   4.832  2.2458  0.9881  1.3678
 5848TIP3   OH239034   5.995   5.769  13.949 -0.1978 -0.3116  0.3499
 5848TIP3    H139035   6.075   5.784  14.000 -0.0085  4.5169 -0.9058
 5848TIP3    H239036   6.026   5.729  13.867  1.2284  1.9822 -0.3517
 5849TIP3   OH239037   3.996   5.979   1.786 -0.4581 -0.0604  0.3293
 5849TIP3    H139038   3.991   6.071   1.758  2.0885 -0.4124 -1.6726
 5849TIP3    H239039   3.943   5.932   1.722 -0.9437 -0.1168  0.7637
 5850TIP3   OH239040   3.430   2.525  14.831  0.7232  0.3848 -0.3588
 5850TIP3    H139041   3.444   2.466  14.905 -5.0311 -0.6562  0.3762
 5850TIP3    H239042   3.427   2.467  14.755  1.0503  0.6394 -0.5680
 5851TIP3   OH239043   3.420   1.785  15.671 -0.6090 -0.2581 -0.1667
 5851TIP3    H139044   3.510   1.793  15.701 -0.2393 -0.1366 -1.2697
 5851TIP3    H239045   3.395   1.695  15.693 -0.7305  0.1310  1.4466
 5852TIP3   OH239046   1.645   3.226   5.242 -0.2000  0.3695  0.2484
 5852TIP3    H139047   1.566   3.226   5.189  0.3902  0.1595 -0.6536
 5852TIP3    H239048   1.704   3.288   5.199  0.9866 -1.1511 -0.4599
 5853TIP3   OH239049   3.817   4.376  16.015  0.3485  0.3017  0.0923
 5853TIP3    H139050   3.896   4.387  16.069  1.4014 -0.6005 -1.1887
 5853TIP3    H239051   3.767   4.308  16.059 -0.3734  1.7505  1.6070
 5854TIP3   OH239052   5.404   0.038  16.984  0.0200 -0.5736 -0.4114
 5854TIP3    H139053   5.418   0.101  17.056  1.6708 -0.2512 -0.9917
 5854TIP3    H239054   5.324   0.070  16.941 -0.4561 -0.2185  0.6852
 5855TIP3   OH239055   4.560   5.293  12.399 -0.1748  0.0036 -0.0280
 5855TIP3    H139056   4.544   5.367  12.457 -0.6720 -0.3297  0.2701
 5855TIP3    H239057   4.475   5.248  12.394  0.1577 -0.6238 -0.0962
 5856TIP3   OH239058   4.670   5.859  16.236  0.3559  0.3506 -0.5426
 5856TIP3    H139059   4.598   5.918  16.259 -1.0417 -1.3230 -0.4057
 5856TIP3    H239060   4.652   5.834  16.145  0.1554 -0.8531 -0.1968
 5857TIP3   OH239061   4.167   4.834   5.515  0.0942 -0.3865 -0.3755
 5857TIP3    H139062   4.254   4.842   5.477 -0.3121  1.5454 -1.0242
 5857TIP3    H239063   4.139   4.924   5.531 -1.9131 -0.9400 -0.4698
 5858TIP3   OH239064   6.038   3.757   4.210  0.2444  0.5202 -0.4512
 5858TIP3    H139065   5.984   3.689   4.171  0.9220 -0.2417 -0.0934
 5858TIP3    H239066   5.979   3.806   4.267  0.1625 -1.0858  0.9203
 5859TIP3   OH239067   5.209   6.581   2.518 -0.1032  0.8251 -0.9220
 5859TIP3    H139068   5.167   6.559   2.602  1.2032  0.2749 -0.3828
 5859TIP3    H239069   5.241   6.670   2.531  0.3839  0.6214 -0.7133
 5860TIP3   OH239070   4.266   0.970  16.359  0.3226  0.2452  0.0528
 5860TIP3    H139071   4.211   0.948  16.284  1.0140  0.0241 -0.3978
 5860TIP3    H239072   4.355   0.957  16.328  0.5962 -1.0791  1.2924
 5861TIP3   OH239073   0.258   0.264   1.048 -0.3253 -0.3695  0.3693
 5861TIP3    H139074   0.178   0.273   0.997  0.9524 -0.1457 -1.7241
 5861TIP3    H239075   0.279   0.354   1.076  0.5279 -0.0107 -1.3134
 5862TIP3   OH239076   0.321   2.547  16.381  0.8700  0.1667  0.6001
 5862TIP3    H139077   0.249   2.484  16.385  1.7348 -0.8469  0.5279
 5862TIP3    H239078   0.386   2.515  16.443  0.7713  1.7347  1.5712
 5863TIP3   OH239079   2.115   2.181  12.142 -0.0976 -0.1631  0.0842
 5863TIP3    H139080   2.139   2.245  12.075 -0.9382  1.5434  1.3278
 5863TIP3    H239081   2.186   2.118  12.142  0.6403  0.6325 -1.3818
 5864TIP3   OH239082   3.098   4.827   3.477  0.5584  0.0378  0.0934
 5864TIP3    H139083   3.057   4.758   3.529 -2.6371  1.2829 -0.5308
 5864TIP3    H239084   3.116   4.787   3.392  0.2153 -0.4384  0.2462
 5865TIP3   OH239085   6.236   3.024   2.220  0.1245 -0.0805  0.0122
 5865TIP3    H139086   6.287   2.980   2.152  0.2630 -0.7288  0.5141
 5865TIP3    H239087   6.268   2.985   2.302 -0.6845  0.0132  0.3788
 5866TIP3   OH239088   3.171   1.185  11.293  0.2873 -0.8160  0.0921
 5866TIP3    H139089   3.123   1.166  11.374  0.0733 -1.8353 -0.2632
 5866TIP3    H239090   3.146   1.275  11.270  0.6295 -0.3714  1.3418
 5867TIP3   OH239091   2.786   3.659  12.423  0.3152  0.9802  0.2535
 5867TIP3    H139092   2.715   3.709  12.382 -0.8510 -0.7431  0.0559
 5867TIP3    H239093   2.843   3.634  12.350  0.3063  1.1087  0.2019
 5868TIP3   OH239094   6.718   6.293   1.961  0.7671 -0.4503 -0.0829
 5868TIP3    H139095   6.746   6.223   2.019  0.2412 -0.6212 -0.0298
 5868TIP3    H239096   6.720   6.372   2.015  2.1891 -0.2512 -0.3641
 5869TIP3   OH239097   3.592   3.101  16.760 -0.1269 -0.1144  0.0634
 5869TIP3    H139098   3.515   3.098  16.818  0.5939 -1.3694  1.0092
 5869TIP3    H239099   3.631   3.187  16.777  0.3827 -0.6649  1.9141
 5870TIP3   OH239100   5.680   3.331   4.366  0.0968  0.1067 -0.1988
 5870TIP3    H139101   5.618   3.358   4.299  0.2169  0.0316 -0.3388
 5870TIP3    H239102   5.684   3.236   4.359  1.9735  0.2474 -1.7492
 5871TIP3   OH239103   0.362   4.049  10.404  0.2439 -0.3792 -0.2546
 5871TIP3    H139104   0.416   4.034  10.326 -0.1178 -1.1018 -0.3786
 5871TIP3    H239105   0.422   4.087  10.467  0.1438  1.9327 -1.4558
 5872TIP3   OH239106   0.129   3.360  14.308 -0.2791  0.2828  0.4656
 5872TIP3    H139107   0.159   3.273  14.280  0.9116  0.3373  1.5057
 5872TIP3    H239108   0.063   3.384  14.243 -0.7317 -1.4595  0.2401
 5873TIP3   OH239109   4.537   6.180  15.642 -0.3241  0.4235 -0.5561
 5873TIP3    H139110   4.584   6.123  15.703 -1.1773 -0.5368 -0.7598
 5873TIP3    H239111   4.462   6.128  15.614 -0.9906  1.5672 -0.9617
 5874TIP3   OH239112   4.856   2.025  11.979  0.0976 -0.4763  0.3627
 5874TIP3    H139113   4.779   2.060  12.023  0.9345  0.3162  1.2459
 5874TIP3    H239114   4.833   2.024  11.887 -0.5033  0.9823  0.4777
 5875TIP3   OH239115   2.187   5.923   6.091  0.4445 -0.7782  0.3450
 5875TIP3    H139116   2.217   5.920   6.000  1.7862  0.2250  0.7159
 5875TIP3    H239117   2.100   5.883   6.089 -0.1804  0.5206 -1.6223
 5876TIP3   OH239118   4.386   3.726   1.928  0.2089  0.3153  0.2144
 5876TIP3    H139119   4.380   3.640   1.887  0.7626  0.1758  0.4273
 5876TIP3    H239120   4.314   3.727   1.992 -0.7153  0.5637 -0.7869
 5877TIP3   OH239121   3.941   2.603  14.549  0.6393  0.1003 -0.1482
 5877TIP3    H139122   3.864   2.557  14.584  0.0502  0.4894 -0.9170
 5877TIP3    H239123   3.964   2.554  14.470  0.4867  0.6492 -0.5397
 5878TIP3   OH239124   1.015   6.138  10.774  0.4823  0.4343 -0.0194
 5878TIP3    H139125   0.926   6.132  10.739  0.5887  0.3649 -0.2810
 5878TIP3    H239126   1.016   6.076  10.846 -0.2460  1.8135  1.2200
 5879TIP3   OH239127   6.005   1.609  12.002  0.4839  0.3813  0.3041
 5879TIP3    H139128   5.916   1.574  12.005  1.1041 -1.3412 -0.5595
 5879TIP3    H239129   6.053   1.559  12.068  0.5614  2.1881  1.6951
 5880TIP3   OH239130   4.587   3.236   3.707  0.3151 -0.9396 -0.0150
 5880TIP3    H139131   4.664   3.236   3.650 -0.2314  0.2386 -0.8072
 5880TIP3    H239132   4.552   3.148   3.700  1.3159 -1.3570 -0.0122
 5881TIP3   OH239133   2.879   1.169   2.339  0.0074  0.6390 -0.0469
 5881TIP3    H139134   2.969   1.201   2.335  0.6930 -0.6991  2.4545
 5881TIP3    H239135   2.832   1.237   2.386 -0.0944  0.9498 -0.5944
 5882TIP3   OH239136   4.942   5.730   2.297 -1.1497 -0.3090 -0.5719
 5882TIP3    H139137   4.995   5.650   2.299 -0.3502  0.1448 -2.0405
 5882TIP3    H239138   4.890   5.727   2.378 -0.4820 -1.8555 -0.1698
 5883TIP3   OH239139   2.633   2.889  11.827 -0.0673  0.3028 -0.3100
 5883TIP3    H139140   2.633   2.877  11.922  2.1893 -3.0356 -0.5653
 5883TIP3    H239141   2.555   2.843  11.797 -0.0843  0.2511 -0.1882
 5884TIP3   OH239142   1.580   6.366  16.623 -0.6827 -0.1693 -0.2141
 5884TIP3    H139143   1.565   6.330  16.710 -0.8575 -0.9599 -0.5607
 5884TIP3    H239144   1.495   6.362  16.580 -0.5548  0.0330 -0.4933
 5885TIP3   OH239145   1.109   1.300  16.932 -0.1353  0.5575  0.0922
 5885TIP3    H139146   1.138   1.383  16.894  1.1155  0.4759  0.8212
 5885TIP3    H239147   1.013   1.302  16.924 -0.0768  1.7463 -0.5313
 5886TIP3   OH239148   1.630   5.927  12.746 -0.0232 -0.8024  0.2792
 5886TIP3    H139149   1.661   5.845  12.786 -0.0592 -1.8354 -1.6750
 5886TIP3    H239150   1.625   5.907  12.652  0.1735  1.5243 -0.2799
 5887TIP3   OH239151   6.591   4.059   4.787 -0.3314  0.1364  0.0323
 5887TIP3    H139152   6.519   4.023   4.839 -1.2078  0.2432 -1.0763
 5887TIP3    H239153   6.565   4.149   4.769 -1.2470 -0.5504 -2.5885
 5888TIP3   OH239154   5.418   1.901   5.677 -0.7962  0.0456 -0.1764
 5888TIP3    H139155   5.407   1.808   5.659 -0.0161  0.6557 -5.4564
 5888TIP3    H239156   5.331   1.932   5.701 -1.4730 -1.6887 -0.2871
 5889TIP3   OH239157   5.731   6.685   2.929  0.3103 -0.1013  0.9769
 5889TIP3    H139158   5.757   6.710   2.840 -3.3763  1.3497  0.1527
 5889TIP3    H239159   5.802   6.718   2.984  1.9826  0.2987 -1.2649
 5890TIP3   OH239160   5.741   0.381  12.987  0.0438  0.2577  0.2885
 5890TIP3    H139161   5.808   0.328  13.030 -0.0525 -0.9852 -0.9960
 5890TIP3    H239162   5.726   0.454  13.046  1.3750 -0.2894  1.3581
 5891TIP3   OH239163   5.390   3.581   0.821 -0.4764 -0.6331  0.1942
 5891TIP3    H139164   5.469   3.635   0.816  0.0903 -1.2932  1.4857
 5891TIP3    H239165   5.361   3.572   0.731  0.5515  0.1662 -0.2346
 5892TIP3   OH239166   2.868   6.764  13.334 -0.2461  0.1026  0.0083
 5892TIP3    H139167   2.957   6.735  13.313  0.7467  1.4057  2.0230
 5892TIP3    H239168   2.831   6.692  13.384 -1.0078 -1.1491 -2.2378
 5893TIP3   OH239169   3.360   5.107   3.411 -0.0943 -0.5437 -0.1917
 5893TIP3    H139170   3.442   5.059   3.398 -1.4544 -3.2213  0.5055
 5893TIP3    H239171   3.382   5.197   3.389  2.9073 -1.2437 -0.4975
 5894TIP3   OH239172   4.998   0.592   1.625  0.1518  0.3590 -0.1384
 5894TIP3    H139173   4.949   0.623   1.701  0.1497  0.7640 -0.2993
 5894TIP3    H239174   5.088   0.586   1.655 -0.3645 -3.6376  1.1836
 5895TIP3   OH239175   3.182   3.305   1.273 -0.1750  0.4725  0.3738
 5895TIP3    H139176   3.129   3.370   1.226 -0.2780 -0.7580 -1.2844
 5895TIP3    H239177   3.272   3.324   1.247 -0.2812 -0.5776 -0.8669
 5896TIP3   OH239178   4.048   2.563   1.808 -0.3351  0.8775 -0.0638
 5896TIP3    H139179   4.061   2.531   1.898  1.5509 -0.1874 -0.6607
 5896TIP3    H239180   4.093   2.647   1.806  1.7875 -0.2030 -0.5977
 5897TIP3   OH239181   2.369   1.157   1.175 -0.4205  0.0433 -0.1760
 5897TIP3    H139182   2.432   1.212   1.220 -0.6403 -0.3168  0.5879
 5897TIP3    H239183   2.393   1.068   1.199 -1.2086 -0.0996  0.1191
 5898TIP3   OH239184   0.388   6.852   0.829 -0.1904  0.1730 -0.5425
 5898TIP3    H139185   0.427   6.821   0.747  1.4968  0.5638  0.0795
 5898TIP3    H239186   0.455   6.836   0.895 -1.4471  0.0578  0.7488
 5899TIP3   OH239187   2.027   0.074  17.012  0.1872 -0.3590 -0.7297
 5899TIP3    H139188   2.034  -0.007  16.961  1.6626 -0.2573 -0.7272
 5899TIP3    H239189   2.030   0.045  17.103  0.9831 -0.2974 -0.7292
 5900TIP3   OH239190   2.594   0.255  14.362  0.4117 -0.3860  0.2855
 5900TIP3    H139191   2.558   0.264  14.450  0.7003 -0.5786  0.4257
 5900TIP3    H239192   2.667   0.317  14.360  0.7645 -0.7946  0.3755
 5901TIP3   OH239193   5.219   1.714  13.268  0.8117  0.2471  0.1329
 5901TIP3    H139194   5.231   1.692  13.176  3.6311  1.6241  0.0539
 5901TIP3    H239195   5.152   1.783  13.268  1.1698  0.6099 -0.9699
 5902TIP3   OH239196   4.974   4.995  12.210  0.2359 -0.0901 -0.2288
 5902TIP3    H139197   5.035   4.993  12.284  1.8790 -0.7358 -1.5307
 5902TIP3    H239198   4.919   5.071  12.226 -0.4573 -1.0441  2.3921
 5903TIP3   OH239199   3.863   4.738   3.987  1.0375  0.3513 -0.5440
 5903TIP3    H139200   3.901   4.694   4.063 -0.1238  0.9190  0.3873
 5903TIP3    H239201   3.777   4.697   3.975  0.9942  0.6221 -1.2394
 5904TIP3   OH239202   2.918   0.435   4.149  0.5009  0.5561  0.0223
 5904TIP3    H139203   2.965   0.413   4.230  1.1934 -0.3801 -0.6115
 5904TIP3    H239204   2.905   0.530   4.155  2.1987  0.8151  0.3914
 5905TIP3   OH239205   0.609   6.841  16.938  0.2066 -0.2461 -0.3171
 5905TIP3    H139206   0.550   6.883  16.875 -0.3147 -0.4440  0.0326
 5905TIP3    H239207   0.689   6.824  16.889 -0.0163  0.0561 -0.7878
 5906TIP3   OH239208   1.197   4.983   3.668 -0.4050  0.4851  0.3240
 5906TIP3    H139209   1.292   4.978   3.654 -0.3486 -0.8355  1.0549
 5906TIP3    H239210   1.183   4.942   3.752 -1.6890  0.2628  0.0150
 5907TIP3   OH239211   5.072   2.025  12.965 -0.0422 -0.2557  0.3042
 5907TIP3    H139212   5.063   2.071  13.049 -2.1222 -1.5600  0.8981
 5907TIP3    H239213   5.166   2.017  12.952  0.4237 -1.4950  3.4252
 5908TIP3   OH239214   2.798   1.372  14.275  0.3413 -0.2039  0.2669
 5908TIP3    H139215   2.767   1.310  14.208  0.1638  1.8334 -1.6754
 5908TIP3    H239216   2.723   1.386  14.332 -0.3112 -0.1354 -0.5915
 5909TIP3   OH239217   4.476   0.073   2.973 -0.0377 -0.3945  0.5532
 5909TIP3    H139218   4.394   0.029   2.992 -0.4578 -0.2432 -0.7575
 5909TIP3    H239219   4.538   0.002   2.953  0.1551 -0.5076  1.5370
 5910TIP3   OH239220   1.561   4.586  12.357 -0.7800  0.2190  0.2002
 5910TIP3    H139221   1.544   4.575  12.264 -1.3190  1.2102  0.1711
 5910TIP3    H239222   1.648   4.547  12.371 -1.4244 -1.5016 -0.3720
 5911TIP3   OH239223   2.846   4.806  11.869  0.4479 -0.0845 -0.6425
 5911TIP3    H139224   2.792   4.768  11.800  0.3608  1.8065 -1.6763
 5911TIP3    H239225   2.928   4.830  11.826  0.5614  0.7270 -0.0087
 5912TIP3   OH239226   3.770   0.711  13.873 -0.2770  0.1031 -0.8542
 5912TIP3    H139227   3.690   0.734  13.825  0.3387 -0.1394 -2.0483
 5912TIP3    H239228   3.768   0.615  13.877 -1.4281  0.1691  1.6152
 5913TIP3   OH239229   5.686   6.671   0.503 -0.1661  0.0184  0.0014
 5913TIP3    H139230   5.614   6.701   0.558 -0.6749 -0.3307 -0.4682
 5913TIP3    H239231   5.649   6.601   0.450  1.0357 -1.6310  1.2124
 5914TIP3   OH239232   0.989   4.488   5.732  0.2295  0.3045 -0.3972
 5914TIP3    H139233   0.929   4.425   5.693 -1.1770  0.5771  1.2183
 5914TIP3    H239234   1.045   4.515   5.659 -1.7860  0.2572 -2.0765
 5915TIP3   OH239235   2.321   6.234  13.701  0.2986 -0.1677  0.2639
 5915TIP3    H139236   2.401   6.182  13.701  0.4441  0.0529  0.1335
 5915TIP3    H239237   2.264   6.190  13.764  1.5859  1.2544  2.5877
 5916TIP3   OH239238   5.026   3.573   0.049  0.0266  0.0094 -0.3350
 5916TIP3    H139239   4.996   3.510  -0.017 -0.6689 -1.4172  1.2640
 5916TIP3    H239240   5.099   3.619   0.007 -0.0293 -1.2316 -1.8878
 5917TIP3   OH239241   4.209   6.794   3.874 -0.2721  0.3568  0.7403
 5917TIP3    H139242   4.297   6.760   3.886 -0.0638  0.8522  0.6346
 5917TIP3    H239243   4.158   6.719   3.843 -0.2463 -0.3237  2.2773
 5918TIP3   OH239244   2.085   6.671   2.979  0.3577 -0.5923 -0.0279
 5918TIP3    H139245   2.038   6.695   2.899  0.6025 -1.5618 -0.4816
 5918TIP3    H239246   2.071   6.745   3.038  1.5774  0.9493 -1.5373
 5919TIP3   OH239247   2.070   6.490   0.569  0.0682  0.3833  0.2514
 5919TIP3    H139248   2.083   6.575   0.612 -0.7659  0.9718 -0.5975
 5919TIP3    H239249   2.018   6.511   0.491  1.0282 -0.7336 -0.7154
 5920TIP3   OH239250   2.323   6.618   4.736 -0.0496  0.5366 -0.1586
 5920TIP3    H139251   2.390   6.562   4.775  1.1332  1.6649 -0.4916
 5920TIP3    H239252   2.254   6.558   4.708  1.4824 -0.8483 -1.1283
 5921TIP3   OH239253   3.555   5.369   0.145  0.3558 -0.4878  0.2563
 5921TIP3    H139254   3.579   5.399   0.232 -0.7849  1.6463 -0.0857
 5921TIP3    H239255   3.626   5.400   0.089 -0.6772  1.4688 -0.0527
 5922TIP3   OH239256   5.264   4.554   1.273 -0.8766  0.5090 -0.4885
 5922TIP3    H139257   5.177   4.524   1.247 -0.8939  0.2914 -0.1817
 5922TIP3    H239258   5.259   4.649   1.267 -0.8672  0.4687 -1.3297
 5923TIP3   OH239259   0.932   3.603   4.870 -0.2465  0.5068  0.0870
 5923TIP3    H139260   0.891   3.549   4.938 -1.3614  2.3797  1.0044
 5923TIP3    H239261   0.890   3.689   4.880  0.3392  1.1316 -2.2993
 5924TIP3   OH239262   0.550   0.556  13.773  0.3581  0.2063  0.1181
 5924TIP3    H139263   0.533   0.613  13.848  1.1794  1.8484 -0.8747
 5924TIP3    H239264   0.617   0.603  13.723  0.1643 -1.0663 -1.3938
 5925TIP3   OH239265   6.354   5.497   0.482  0.1714  0.3787  0.1416
 5925TIP3    H139266   6.290   5.568   0.483 -1.4788 -1.0319  1.3389
 5925TIP3    H239267   6.438   5.541   0.497 -0.4025  2.3153 -1.7353
 5926TIP3   OH239268   4.858   3.626  16.080 -0.7173  0.4512 -0.5183
 5926TIP3    H139269   4.857   3.678  16.000 -1.5055 -0.5920 -1.2054
 5926TIP3    H239270   4.947   3.589  16.083 -1.4449 -1.6509 -2.3697
 5927TIP3   OH239271   1.009   2.896   5.297 -0.3430 -0.3676 -0.4830
 5927TIP3    H139272   0.963   2.894   5.381  0.6540  0.4659  0.1090
 5927TIP3    H239273   0.981   2.816   5.253 -0.9595 -0.7775  0.5989
 5928TIP3   OH239274   4.279   0.949   2.675 -0.1386 -0.2963 -0.8941
 5928TIP3    H139275   4.306   0.870   2.629 -0.0558 -0.9466  0.2382
 5928TIP3    H239276   4.254   0.919   2.762 -0.1111  0.9237 -0.4469
 5929TIP3   OH239277   6.455   4.605  14.756  0.8492 -0.1964 -0.9615
 5929TIP3    H139278   6.402   4.538  14.712 -0.2939  0.3096 -0.4025
 5929TIP3    H239279   6.523   4.556  14.801 -0.4088 -1.0703  0.0614
 5930TIP3   OH239280   4.855   0.644  11.992  0.4761 -0.0798 -0.2996
 5930TIP3    H139281   4.950   0.633  11.997  0.6297  0.5541 -1.3397
 5930TIP3    H239282   4.832   0.608  11.906 -0.0993  0.4688 -0.3828
 5931TIP3   OH239283   1.695   2.782  11.747 -0.0715 -0.3881  0.3177
 5931TIP3    H139284   1.677   2.689  11.765  1.3868 -0.4069  1.8437
 5931TIP3    H239285   1.760   2.781  11.677  0.1172 -0.5267  0.4935
 5932TIP3   OH239286   0.726   2.112   4.704  0.4458 -0.2279  0.6669
 5932TIP3    H139287   0.791   2.159   4.756  1.1998 -0.4350 -0.0725
 5932TIP3    H239288   0.762   2.110   4.616  0.2298 -1.8118  0.5806
 5933TIP3   OH239289   5.359   1.855   3.804  0.1063  0.2180  0.0719
 5933TIP3    H139290   5.296   1.800   3.851 -0.8883  1.5308  0.3523
 5933TIP3    H239291   5.310   1.935   3.784  0.2707 -0.4720 -3.7895
 5934TIP3   OH239292   5.075   4.487  15.469  0.1983  0.1004 -0.2914
 5934TIP3    H139293   5.079   4.392  15.465 -0.6430 -0.0577  1.4562
 5934TIP3    H239294   4.983   4.506  15.490  0.5476  1.2448  0.3006
 5935TIP3   OH239295   2.298   2.999  12.471  0.1850 -0.9061 -0.1181
 5935TIP3    H139296   2.291   3.063  12.542  1.5758 -1.4995  0.6074
 5935TIP3    H239297   2.309   3.052  12.392  2.8202 -0.1458  0.6336
 5936TIP3   OH239298   1.993   0.472   0.719 -0.6861 -0.2527  0.0998
 5936TIP3    H139299   1.916   0.528   0.722 -0.6782 -0.2504  0.2475
 5936TIP3    H239300   2.026   0.481   0.630 -1.2588 -0.7865 -0.1714
 5937TIP3   OH239301   6.720   3.715   1.349 -0.2104 -0.1754  0.2160
 5937TIP3    H139302   6.782   3.648   1.320  0.9759  1.7528 -2.0120
 5937TIP3    H239303   6.774   3.792   1.367 -1.7450  0.9111  0.4055
 5938TIP3   OH239304   0.178   1.585   4.211  0.2159 -0.3874  0.6575
 5938TIP3    H139305   0.223   1.655   4.163  1.4832 -1.8589 -0.4069
 5938TIP3    H239306   0.168   1.619   4.299 -0.7362  1.7931 -0.2310
 5939TIP3   OH239307   0.312   2.823  12.606  0.1463 -0.2728 -0.1389
 5939TIP3    H139308   0.262   2.744  12.586  0.9540 -1.0586  0.8614
 5939TIP3    H239309   0.401   2.802  12.579  1.1236 -1.0702  3.2372
 5940TIP3   OH239310   4.146   3.907  14.108  0.7962  0.3350  0.3365
 5940TIP3    H139311   4.143   3.820  14.068 -0.9398 -0.5912  2.2751
 5940TIP3    H239312   4.072   3.954  14.069 -0.1229 -0.1385  1.4519
 5941TIP3   OH239313   5.249   2.588   0.273 -0.0752  0.8556 -0.2268
 5941TIP3    H139314   5.338   2.579   0.306 -0.3919  1.3102  0.7871
 5941TIP3    H239315   5.225   2.500   0.245 -0.0458  0.2880  1.4273
 5942TIP3   OH239316   3.870   6.429   4.523  0.0135 -0.6963  0.0753
 5942TIP3    H139317   3.884   6.506   4.469 -0.6780 -0.7547 -0.1965
 5942TIP3    H239318   3.958   6.396   4.542  0.2623 -0.8388 -1.2330
 5943TIP3   OH239319   1.878   3.935  16.302  0.2035  0.3818  0.3107
 5943TIP3    H139320   1.901   4.003  16.238 -3.4798  1.0063 -0.5458
 5943TIP3    H239321   1.861   3.983  16.383 -1.7593  0.4774 -0.1223
 5944TIP3   OH239322   1.503   5.414  12.208 -0.4370 -0.7214 -0.1656
 5944TIP3    H139323   1.560   5.453  12.142 -0.4022 -0.9907 -0.2972
 5944TIP3    H239324   1.475   5.487  12.263  0.3491 -0.6421  0.1352
 5945TIP3   OH239325   0.783   6.808  15.152  0.0196 -0.4398  0.0685
 5945TIP3    H139326   0.746   6.727  15.187  1.3506  0.4009  3.8673
 5945TIP3    H239327   0.793   6.790  15.058  0.2039 -4.6472  0.6696
 5946TIP3   OH239328   4.195   2.935  10.334  0.3360  0.0535 -0.3239
 5946TIP3    H139329   4.108   2.922  10.297  0.4244 -0.7874 -0.2492
 5946TIP3    H239330   4.200   3.029  10.351 -0.5902  0.0945 -0.2406
 5947TIP3   OH239331   3.280   6.750   5.295  0.6722 -0.0606 -0.3170
 5947TIP3    H139332   3.230   6.691   5.237  0.7772  0.5983 -1.0997
 5947TIP3    H239333   3.329   6.691   5.352 -1.1470 -0.7363  0.6243
 5948TIP3   OH239334   4.394   1.677   2.409 -0.2650  0.2474  0.4932
 5948TIP3    H139335   4.448   1.665   2.487  1.4828 -1.6687 -0.8763
 5948TIP3    H239336   4.422   1.761   2.372  3.6903 -1.6104 -1.3725
 5949TIP3   OH239337   2.605   5.014  14.188  0.3056 -0.5090 -0.3659
 5949TIP3    H139338   2.551   5.012  14.108  1.4931 -0.8517 -1.1792
 5949TIP3    H239339   2.623   5.107  14.201 -0.6911 -0.3623  0.0735
 5950TIP3   OH239340   6.734   5.711   5.265 -0.2035 -0.2616 -0.3094
 5950TIP3    H139341   6.639   5.723   5.270 -0.3277 -0.5475 -1.6284
 5950TIP3    H239342   6.748   5.620   5.290  0.0569  0.5351  2.8309
 5951TIP3   OH239343   0.685   0.273   0.622 -0.0857 -0.3588  0.6106
 5951TIP3    H139344   0.617   0.296   0.686  0.2482 -0.9621  1.1934
 5951TIP3    H239345   0.636   0.256   0.541 -0.4629  0.9256  0.5510
 5952TIP3   OH239346   6.388   3.669  10.954 -0.3082 -0.1969 -0.2553
 5952TIP3    H139347   6.459   3.731  10.938 -0.7296 -0.0753 -1.9241
 5952TIP3    H239348   6.429   3.583  10.946 -0.2950 -0.1257 -1.0634
 5953TIP3   OH239349   2.855   1.502  10.748 -0.0348 -0.1559 -0.3107
 5953TIP3    H139350   2.800   1.442  10.698 -0.4689  1.1189 -1.4049
 5953TIP3    H239351   2.798   1.534  10.818 -0.4419  0.4900 -0.9209
 5954TIP3   OH239352   1.015   6.465   5.472 -0.1827 -0.3566 -0.0705
 5954TIP3    H139353   1.041   6.373   5.471 -0.9989 -0.7311 -3.7849
 5954TIP3    H239354   1.057   6.503   5.394  0.0894  2.4519  1.3084
 5955TIP3   OH239355   4.436   2.420  11.943  0.2283 -0.5323  0.3819
 5955TIP3    H139356   4.341   2.419  11.946  0.1082  2.0144  0.1755
 5955TIP3    H239357   4.457   2.455  11.857  1.1823  2.1197  1.5750
 5956TIP3   OH239358   4.145   3.566  12.164  0.3226 -0.1971  0.4841
 5956TIP3    H139359   4.147   3.644  12.110 -1.0294  1.2831  2.4269
 5956TIP3    H239360   4.237   3.546  12.183  0.7585 -0.1171 -1.3726
 5957TIP3   OH239361   3.067   5.950   0.476 -0.0287  0.1913 -0.2166
 5957TIP3    H139362   2.985   5.983   0.510  1.5493  2.8094  1.3873
 5957TIP3    H239363   3.114   5.918   0.553  0.3365 -1.6433 -1.1531
 5958TIP3   OH239364   3.676   5.470  15.005  0.6763 -0.1865  0.7392
 5958TIP3    H139365   3.616   5.529  15.049 -0.7998 -0.5147 -0.7163
 5958TIP3    H239366   3.727   5.430  15.075 -0.0265  0.9304  1.9265
 5959TIP3   OH239367   3.125   1.140   4.360 -0.0174  0.6767  0.5601
 5959TIP3    H139368   3.104   1.209   4.423 -1.7175 -0.4386  1.2851
 5959TIP3    H239369   3.122   1.184   4.275 -0.5760  1.5957  1.0428
 5960TIP3   OH239370   2.173   1.357  13.542 -0.7098 -0.1510 -0.2477
 5960TIP3    H139371   2.173   1.284  13.604  1.1976  0.1641  0.1920
 5960TIP3    H239372   2.205   1.431  13.593  1.3257  0.0250 -1.6816
 5961TIP3   OH239373   3.885   6.750  15.196  0.1801 -0.3389  0.1716
 5961TIP3    H139374   3.946   6.810  15.239 -1.5029  1.1452  0.6447
 5961TIP3    H239375   3.857   6.798  15.118 -0.2829 -1.0442 -0.1039
 5962TIP3   OH239376   2.177   4.035   2.517 -0.0766  0.0192  0.0375
 5962TIP3    H139377   2.262   4.079   2.519  0.2112 -0.4561 -0.9114
 5962TIP3    H239378   2.135   4.068   2.437 -0.4313 -0.3883  0.0507
 5963TIP3   OH239379   3.735   5.320  12.937 -0.1502 -0.0274 -0.0557
 5963TIP3    H139380   3.720   5.386  12.869  0.2760  0.9929  0.8190
 5963TIP3    H239381   3.671   5.340  13.005 -0.1573 -0.6552  0.1317
 5964TIP3   OH239382   0.468   4.430  12.575 -0.3724  0.6062  0.3855
 5964TIP3    H139383   0.539   4.368  12.591  0.1074  1.1956  0.5590
 5964TIP3    H239384   0.394   4.396  12.626 -0.4452 -0.3967 -0.3592
 5965TIP3   OH239385   6.236   1.132  16.428 -0.0396 -0.0731  0.5215
 5965TIP3    H139386   6.300   1.064  16.404 -0.9334 -0.4889 -0.7828
 5965TIP3    H239387   6.257   1.153  16.519 -0.1803 -2.5970  1.2046
 5966TIP3   OH239388   5.784   0.814   5.709 -0.3903  0.7634  0.1033
 5966TIP3    H139389   5.690   0.820   5.727 -0.4785 -1.2981  0.5946
 5966TIP3    H239390   5.793   0.734   5.658  0.9673  1.6933 -1.1807
 5967TIP3   OH239391   4.586   3.199   4.881 -0.0174  0.1107  0.2049
 5967TIP3    H139392   4.525   3.248   4.826 -0.4559 -1.3324 -0.6476
 5967TIP3    H239393   4.545   3.196   4.967  0.4018  1.9038  0.4909
 5968TIP3   OH239394   0.643   5.389   6.140  0.5588  0.3713  0.4780
 5968TIP3    H139395   0.711   5.410   6.204  0.2481  0.6645  0.7180
 5968TIP3    H239396   0.677   5.315   6.091  1.4621  1.0980 -0.0198
 5969TIP3   OH239397   5.472   2.070   1.007 -0.3445  0.1532  0.4104
 5969TIP3    H139398   5.403   2.094   1.069 -0.0715 -1.3544  1.3529
 5969TIP3    H239399   5.424   2.051   0.926 -0.9763 -0.2072  0.8554
 5970TIP3   OH239400   3.041   0.060  16.611 -0.2558  0.5208 -0.0398
 5970TIP3    H139401   3.103   0.104  16.553  1.8438 -0.0415  1.6318
 5970TIP3    H239402   3.045  -0.032  16.583 -0.4986  0.5143 -0.0538
 5971TIP3   OH239403   3.869   3.471  16.019  0.3001 -0.0144 -0.0599
 5971TIP3    H139404   3.915   3.485  16.102 -0.0949 -0.7356  0.2929
 5971TIP3    H239405   3.898   3.385  15.989  0.7300  0.4031 -0.8738
 5972TIP3   OH239406   0.215   4.360  11.840 -0.2970  0.1094  0.1173
 5972TIP3    H139407   0.244   4.446  11.809 -0.1256 -0.2433 -0.7198
 5972TIP3    H239408   0.223   4.366  11.935  3.0179 -0.0935 -0.0368
 5973TIP3   OH239409   3.929   0.256   4.911  0.6399  0.1017 -0.1203
 5973TIP3    H139410   3.915   0.343   4.873  0.3216  0.0254 -0.1816
 5973TIP3    H239411   3.951   0.274   5.003  1.4152  0.2840 -0.3315
 5974TIP3   OH239412   5.699   4.973   1.958 -0.3019 -0.8713  0.0679
 5974TIP3    H139413   5.679   4.985   1.865 -1.4664  3.0854  0.6221
 5974TIP3    H239414   5.615   4.954   1.999 -0.4886  0.9252  0.6314
 5975TIP3   OH239415   5.988   1.615   0.025  0.2250  0.5744  0.1130
 5975TIP3    H139416   6.082   1.623   0.015  0.3410 -1.9117 -1.9157
 5975TIP3    H239417   5.952   1.666  -0.047 -0.1303  2.6023  1.6323
 5976TIP3   OH239418   2.108   5.793   3.674  0.0564 -1.0715 -0.0714
 5976TIP3    H139419   2.184   5.827   3.720  0.6020 -1.7254 -0.4583
 5976TIP3    H239420   2.107   5.839   3.590 -1.2020  0.4536  0.7305
 5977TIP3   OH239421   0.088   0.225  12.920  0.2480  0.4554  0.3436
 5977TIP3    H139422   0.117   0.139  12.950  0.5609  0.6176  0.5011
 5977TIP3    H239423   0.014   0.246  12.978 -0.1966  0.0418 -0.0637
 5978TIP3   OH239424   5.463   5.785  11.598  0.0107 -0.1150  0.1442
 5978TIP3    H139425   5.472   5.881  11.596  1.4256 -0.2371 -1.3537
 5978TIP3    H239426   5.381   5.768  11.553  0.2597  0.3591 -0.5054
 5979TIP3   OH239427   0.145   0.847  14.583 -0.1177  0.2090  1.1502
 5979TIP3    H139428   0.214   0.871  14.645 -0.0146  0.2637  1.0143
 5979TIP3    H239429   0.124   0.928  14.538  0.4859 -0.0213  0.4334
 5980TIP3   OH239430   4.289   0.530  16.422  0.0188  0.3432 -0.3576
 5980TIP3    H139431   4.282   0.457  16.361  2.4019 -0.2460 -0.0266
 5980TIP3    H239432   4.217   0.518  16.483  0.6841 -2.0835  0.0321
 5981TIP3   OH239433   1.186   6.839  10.895  0.2577 -0.4083  0.2542
 5981TIP3    H139434   1.158   6.828  10.986 -0.0879  0.2996  0.2406
 5981TIP3    H239435   1.281   6.849  10.900  0.2591 -0.5483  0.5238
 5982TIP3   OH239436   4.389   1.693   1.902  0.1033  0.4358  0.4633
 5982TIP3    H139437   4.415   1.671   1.992 -0.0284  0.9621  0.6362
 5982TIP3    H239438   4.464   1.741   1.867  0.0525  0.4494  0.3738
 5983TIP3   OH239439   2.582   1.431  10.380 -0.5339 -0.6079 -0.7504
 5983TIP3    H139440   2.634   1.497  10.334 -1.1666  0.4040 -0.0540
 5983TIP3    H239441   2.540   1.381  10.310  1.6732 -1.7558 -1.3444
 5984TIP3   OH239442   5.895   2.060   0.270 -0.2994  0.3100  0.3521
 5984TIP3    H139443   5.976   2.051   0.221  0.5061 -0.3454  1.7552
 5984TIP3    H239444   5.914   2.127   0.336 -1.8050  2.2207 -1.0364
 5985TIP3   OH239445   0.984   5.300  17.032 -0.3145 -0.2023  0.1891
 5985TIP3    H139446   0.943   5.221  16.997 -1.3461 -0.1427  1.1811
 5985TIP3    H239447   1.046   5.267  17.097  1.1401 -0.2846 -1.1990
 5986TIP3   OH239448   5.254   6.052  16.756 -0.2338 -0.0288 -0.2869
 5986TIP3    H139449   5.201   6.099  16.692 -0.7071 -0.4033 -0.1755
 5986TIP3    H239450   5.243   6.102  16.837  0.5014  0.5441 -0.5218
 5987TIP3   OH239451   6.402   0.163   2.555 -0.3538  0.1396  0.3909
 5987TIP3    H139452   6.365   0.208   2.479  0.6863  0.1507 -0.1200
 5987TIP3    H239453   6.481   0.121   2.522 -0.1841 -0.3135  1.3493
 5988TIP3   OH239454   2.963   4.299   0.593 -0.0164 -0.1874  0.1882
 5988TIP3    H139455   3.045   4.349   0.590 -0.4323  0.5106  0.4306
 5988TIP3    H239456   2.911   4.334   0.521  0.9543 -2.5384 -1.8178
 5989TIP3   OH239457   5.426   2.795   5.421 -0.1999 -0.2857  0.2276
 5989TIP3    H139458   5.502   2.764   5.374 -0.8437 -2.5223  0.5667
 5989TIP3    H239459   5.400   2.875   5.375  1.3590 -0.3879 -0.8842
 5990TIP3   OH239460   0.914   1.418  12.074  0.2257  0.0545 -0.6510
 5990TIP3    H139461   0.987   1.475  12.049 -0.2018  0.4568 -1.0223
 5990TIP3    H239462   0.844   1.479  12.098  0.2393 -0.3257  0.3990
 5991TIP3   OH239463   4.591   5.465   4.066  0.2025 -0.2531  0.1006
 5991TIP3    H139464   4.559   5.541   4.115 -0.7390 -0.3098 -0.3906
 5991TIP3    H239465   4.604   5.499   3.977 -1.2108 -0.8792 -0.3731
 5992TIP3   OH239466   0.767   0.064  14.589 -0.0227  0.7498 -0.0204
 5992TIP3    H139467   0.686   0.114  14.576 -0.1483  0.8056  0.9025
 5992TIP3    H239468   0.813   0.071  14.506 -2.7651 -2.7187 -2.0910
 5993TIP3   OH239469   2.979   3.500  13.458 -0.2103 -0.4293 -0.1615
 5993TIP3    H139470   2.920   3.505  13.533  0.1351  0.4086  0.0743
 5993TIP3    H239471   2.988   3.591  13.429  0.2035 -0.6635 -0.7888
 5994TIP3   OH239472   2.192   0.850  11.327  0.0693  0.4145 -0.1947
 5994TIP3    H139473   2.217   0.936  11.295 -0.1925  0.1637 -1.1018
 5994TIP3    H239474   2.272   0.798  11.321  0.7447  1.0459  2.1156
 5995TIP3   OH239475   2.451   6.211   5.366  0.6421  0.2382  0.4035
 5995TIP3    H139476   2.522   6.188   5.425 -0.3451 -1.9215  0.8357
 5995TIP3    H239477   2.437   6.133   5.312 -2.4242 -0.0560  1.4132
 5996TIP3   OH239478   2.290   1.900  16.576 -0.1142 -0.8127 -0.2484
 5996TIP3    H139479   2.352   1.843  16.619  0.8119  0.8324  0.7114
 5996TIP3    H239480   2.344   1.968  16.535 -1.2117  0.3199  0.1051
 5997TIP3   OH239481   6.460   5.264  15.225  0.4168 -0.1348  0.2161
 5997TIP3    H139482   6.443   5.260  15.131 -1.0064 -0.6460  0.4678
 5997TIP3    H239483   6.457   5.172  15.253 -1.2008  0.1362  1.0602
 5998TIP3   OH239484   3.404   3.073  12.737  0.1083 -0.6983  0.5921
 5998TIP3    H139485   3.338   3.115  12.681  0.4905 -0.1270  0.5566
 5998TIP3    H239486   3.354   3.023  12.801 -0.3565 -0.4119  0.4565
 5999TIP3   OH239487   4.066   2.018   1.144 -0.2703  0.9490 -0.0302
 5999TIP3    H139488   4.005   2.083   1.110 -0.6530  0.3049 -0.6051
 5999TIP3    H239489   4.047   1.939   1.094 -0.1995  0.2310  1.0420
 6000TIP3   OH239490   2.186   4.259  12.328  0.0758 -0.6148  0.4525
 6000TIP3    H139491   2.124   4.192  12.298  0.2518 -0.6896  0.2555
 6000TIP3    H239492   2.268   4.212  12.339  0.4259 -0.2668 -0.5328
 6001TIP3   OH239493   6.312   5.423   1.389 -0.3325  0.6165  0.0638
 6001TIP3    H139494   6.391   5.402   1.340 -0.3362 -1.7245  0.9141
 6001TIP3    H239495   6.338   5.493   1.448  0.1630  2.1733 -1.9128
 6002TIP3   OH239496   2.878   3.558  12.902 -0.1180  0.2527  0.7532
 6002TIP3    H139497   2.823   3.540  12.978  0.8158 -1.2921  1.0958
 6002TIP3    H239498   2.894   3.472  12.863  0.5684  0.8759 -0.3825
 6003TIP3   OH239499   4.280   5.564   0.537  0.0826 -0.2664  0.1539
 6003TIP3    H139500   4.258   5.655   0.515  0.3078  0.2961  2.0722
 6003TIP3    H239501   4.200   5.515   0.521 -0.2973  0.4317 -0.1073
 6004TIP3   OH239502   1.336   1.248  15.309 -0.1262  0.5286  0.1299
 6004TIP3    H139503   1.244   1.237  15.333 -0.0621  2.7819  1.7152
 6004TIP3    H239504   1.379   1.273  15.391  1.7952  0.1836 -0.7147
 6005TIP3   OH239505   4.127   0.260  13.376  1.0171 -0.0447 -0.2538
 6005TIP3    H139506   4.165   0.219  13.299  1.3126 -0.7784  0.2842
 6005TIP3    H239507   4.046   0.211  13.392  1.5797 -0.6874  0.6351
 6006TIP3   OH239508   4.602   2.419  14.082 -0.3219  0.2639 -0.3507
 6006TIP3    H139509   4.646   2.476  14.144  0.0277 -0.1018 -0.2579
 6006TIP3    H239510   4.669   2.398  14.017 -0.5731  0.3205 -0.6314
 6007TIP3   OH239511   1.287   2.744   1.230  0.1632  0.6587  0.2646
 6007TIP3    H139512   1.292   2.745   1.325  0.4221  0.9730  0.2511
 6007TIP3    H239513   1.356   2.683   1.203  0.1191  0.6035  0.2761
 6008TIP3   OH239514   4.595   4.163  15.683 -0.4880 -0.1491 -0.5219
 6008TIP3    H139515   4.555   4.078  15.701 -1.3766  0.1745 -0.8667
 6008TIP3    H239516   4.533   4.226  15.720 -0.8577  0.4070 -2.0012
 6009TIP3   OH239517   2.284   6.360  15.697  0.0636  0.0449  0.0956
 6009TIP3    H139518   2.259   6.273  15.728 -0.5229  0.3647  0.5608
 6009TIP3    H239519   2.219   6.381  15.630  0.5956 -0.1389 -0.4850
 6010TIP3   OH239520   0.886   1.025  15.813  0.6792  0.1234  0.0080
 6010TIP3    H139521   0.911   1.098  15.870  2.0238  0.4197 -0.9152
 6010TIP3    H239522   0.907   1.055  15.725  3.7347 -2.2541 -0.2403
 6011TIP3   OH239523   5.065   0.181  13.803 -0.2465 -0.0890  0.3231
 6011TIP3    H139524   5.146   0.148  13.764 -1.0599  0.1852 -1.7228
 6011TIP3    H239525   5.003   0.109  13.793 -0.6432  0.2205  0.5429
 6012TIP3   OH239526   2.530   2.662  14.844  0.7874 -0.1306 -0.3128
 6012TIP3    H139527   2.451   2.638  14.795  0.9482  1.0383 -1.1903
 6012TIP3    H239528   2.499   2.723  14.911  0.7433 -0.8053  0.2907
 6013TIP3   OH239529   0.985   3.287  12.385  0.0545 -0.6134  0.4785
 6013TIP3    H139530   0.942   3.329  12.460 -0.8816 -2.1848  0.8753
 6013TIP3    H239531   0.928   3.213  12.364  1.9959 -2.1355  0.3156
 6014TIP3   OH239532   1.328   5.409  14.588 -0.5796  0.3109 -0.3650
 6014TIP3    H139533   1.398   5.395  14.524 -0.7577 -0.3252 -0.4343
 6014TIP3    H239534   1.294   5.321  14.605 -1.0237  0.5583  0.0496
 6015TIP3   OH239535   2.663   5.747  12.953  0.5498 -0.1487  0.3830
 6015TIP3    H139536   2.605   5.821  12.939 -1.7923 -1.5795  1.8798
 6015TIP3    H239537   2.695   5.724  12.865  0.8124  2.1473 -0.1781
 6016TIP3   OH239538   0.772   5.302  13.340  0.0337 -0.4280  0.0015
 6016TIP3    H139539   0.855   5.289  13.384  1.6454  1.7664 -2.1122
 6016TIP3    H239540   0.711   5.326  13.409  1.6562 -0.1152  1.3744
 6017TIP3   OH239541   0.370   2.352   1.281  0.0457  0.0190  0.1305
 6017TIP3    H139542   0.420   2.272   1.296 -0.3390 -0.0158  1.2980
 6017TIP3    H239543   0.432   2.413   1.240  0.1317 -1.1167 -1.5462
 6018TIP3   OH239544   4.435   3.362   0.982  0.1221  0.1472 -0.8355
 6018TIP3    H139545   4.489   3.429   1.023  0.5866  1.0776 -2.8340
 6018TIP3    H239546   4.497   3.293   0.957 -0.3242 -1.0154  1.0142
 6019TIP3   OH239547   5.653   5.478  15.824  0.2336 -0.0193  0.6151
 6019TIP3    H139548   5.694   5.542  15.766  0.8737 -0.0130  1.0558
 6019TIP3    H239549   5.725   5.423  15.854 -0.4629 -1.7544 -0.7096
 6020TIP3   OH239550   3.918   4.696   0.108  0.1855 -0.6597  0.2314
 6020TIP3    H139551   3.983   4.630   0.085  0.1022 -0.7052  0.1272
 6020TIP3    H239552   3.874   4.661   0.186 -1.0273 -1.5409 -0.8045
 6021TIP3   OH239553   1.693   1.749  13.967 -0.0543 -0.0554  0.6213
 6021TIP3    H139554   1.660   1.831  13.930 -0.4692  0.5115  2.1761
 6021TIP3    H239555   1.615   1.696  13.982  0.2541 -0.9962 -0.8857
 6022TIP3   OH239556   1.895   6.181   4.936 -0.1712  0.3115 -0.0596
 6022TIP3    H139557   1.905   6.200   5.029 -0.0984  0.4705 -0.0998
 6022TIP3    H239558   1.801   6.183   4.921 -0.3021 -1.2228  0.3259
 6023TIP3   OH239559   2.904   1.837  13.587  0.5904  0.2668 -0.4267
 6023TIP3    H139560   2.941   1.923  13.568  0.0431  0.6675  0.2700
 6023TIP3    H239561   2.975   1.776  13.567  0.5701  0.7609 -2.1410
 6024TIP3   OH239562   4.070   2.054   4.869 -0.1747  0.4151 -0.2011
 6024TIP3    H139563   4.134   2.025   4.934 -0.5074 -2.2103 -0.9190
 6024TIP3    H239564   4.105   2.022   4.785 -2.7338 -1.8891 -0.5207
 6025TIP3   OH239565   2.097   0.925   0.476 -0.0661 -0.4699  0.5527
 6025TIP3    H139566   2.165   0.871   0.436 -0.6898 -1.0322  0.2310
 6025TIP3    H239567   2.028   0.930   0.410 -1.5254 -2.1872  1.8210
 6026TIP3   OH239568   4.913   0.177   4.179 -0.3565  0.2389 -0.3390
 6026TIP3    H139569   4.968   0.195   4.256  1.9429  1.2235 -2.0867
 6026TIP3    H239570   4.890   0.264   4.146  0.4902 -0.1011 -1.9265
 6027TIP3   OH239571   4.600   4.467   1.819  0.1173 -0.3957 -0.5748
 6027TIP3    H139572   4.640   4.382   1.839 -1.2383 -1.1232 -0.7837
 6027TIP3    H239573   4.608   4.475   1.724 -2.3063 -1.7078 -0.9623
 6028TIP3   OH239574   2.399   3.398   4.423  0.1707  0.3221  0.9669
 6028TIP3    H139575   2.362   3.481   4.455 -0.0955  0.8320 -0.5763
 6028TIP3    H239576   2.454   3.424   4.349 -0.6824 -0.9587 -0.1649
 6029TIP3   OH239577   4.841   3.901   5.758  0.4542  0.6699 -0.6617
 6029TIP3    H139578   4.773   3.863   5.703 -0.0689  0.2676  0.2433
 6029TIP3    H239579   4.852   3.838   5.829  0.8634  1.3551 -0.1100
 6030TIP3   OH239580   1.029   2.850  14.200 -0.2290  0.7861 -0.1680
 6030TIP3    H139581   0.943   2.859  14.241 -0.8755 -0.6753 -1.0911
 6030TIP3    H239582   1.090   2.890  14.262 -1.4005  0.5318  1.2024
 6031TIP3   OH239583   4.961   4.896  13.314  0.0730  0.3235 -0.8053
 6031TIP3    H139584   4.965   4.890  13.219  0.9867  3.2253 -1.0215
 6031TIP3    H239585   5.034   4.841  13.344 -0.7181 -1.2899 -1.6611
 6032TIP3   OH239586   4.372   2.548   4.160 -0.0149 -0.2453  0.3442
 6032TIP3    H139587   4.451   2.494   4.160  0.1417 -0.0791  2.2397
 6032TIP3    H239588   4.341   2.545   4.070  1.5412 -1.2103 -0.1977
 6033TIP3   OH239589   3.566   3.114  13.108  0.2138 -0.3182  0.4548
 6033TIP3    H139590   3.535   3.117  13.199  0.6001  0.4254  0.5691
 6033TIP3    H239591   3.617   3.034  13.103  1.1191  0.1932  1.2039
 6034TIP3   OH239592   0.633   2.107  13.293 -0.4767  0.0744  0.5248
 6034TIP3    H139593   0.627   2.114  13.388 -1.2306  0.0399  0.4853
 6034TIP3    H239594   0.698   2.174  13.268  2.3270 -2.1368  1.3422
 6035TIP3   OH239595   4.525   2.753  16.053 -0.5774 -0.6537 -0.1556
 6035TIP3    H139596   4.515   2.660  16.071 -0.6961 -0.4515  0.9263
 6035TIP3    H239597   4.441   2.792  16.079  0.4899  0.1465  2.4288
 6036TIP3   OH239598   6.410   6.201  13.836 -0.1599  0.4388  0.4166
 6036TIP3    H139599   6.452   6.117  13.854  1.4918  1.1671  0.1140
 6036TIP3    H239600   6.324   6.195  13.878  1.1369 -0.2477  3.1366
 6037TIP3   OH239601   0.332   3.508   4.098 -0.0041  0.7707 -0.1326
 6037TIP3    H139602   0.352   3.462   4.180  0.3947  0.2185 -0.5279
 6037TIP3    H239603   0.404   3.569   4.087 -0.4629  1.4063  0.3218
 6038TIP3   OH239604   2.591   3.885   6.007  0.2403 -0.1653 -0.7175
 6038TIP3    H139605   2.541   3.862   5.929 -0.6767 -1.4306  0.1805
 6038TIP3    H239606   2.680   3.900   5.976 -0.0917 -0.7136 -1.9909
 6039TIP3   OH239607   6.064   0.981  16.663  0.1664  0.7493 -0.4571
 6039TIP3    H139608   6.023   0.974  16.577 -1.1543  0.7893  0.1296
 6039TIP3    H239609   6.034   1.066  16.697 -1.6549 -0.4211  1.1184
 6040TIP3   OH239610   1.092   4.936  12.770  0.0498 -0.1298 -0.2362
 6040TIP3    H139611   1.007   4.979  12.762 -0.3541  0.1273  3.6128
 6040TIP3    H239612   1.072   4.849  12.804  1.3164 -0.2564  0.2168
 6041TIP3   OH239613   2.084   2.665   0.121  0.8576  0.5106 -0.2044
 6041TIP3    H139614   2.048   2.598   0.180  1.9166  1.3295  1.4582
 6041TIP3    H239615   2.058   2.748   0.160  4.7763  1.1850  1.4711
 6042TIP3   OH239616   5.858   6.697   1.984  0.0167  0.7339  0.3136
 6042TIP3    H139617   5.885   6.744   1.905  0.6952 -0.9651 -0.5142
 6042TIP3    H239618   5.770   6.665   1.964  0.2822  0.1043  0.1625
 6043TIP3   OH239619   5.194   2.054   1.052  0.0263 -0.1211 -0.6282
 6043TIP3    H139620   5.163   2.138   1.085 -0.7176 -0.8211  0.5513
 6043TIP3    H239621   5.169   1.991   1.120  1.8272 -1.1022 -0.7934
 6044TIP3   OH239622   2.402   4.838  12.475  0.4027 -0.2076 -0.2655
 6044TIP3    H139623   2.357   4.913  12.515  1.0405  0.2779 -0.4338
 6044TIP3    H239624   2.409   4.773  12.545 -0.0888 -0.0772 -0.0975
 6045TIP3   OH239625   1.434   3.989   1.132  0.2265  0.3971  0.6183
 6045TIP3    H139626   1.454   3.958   1.044  2.2168 -0.7970  1.4098
 6045TIP3    H239627   1.399   3.912   1.177  0.0448  0.7556  1.1026
 6046TIP3   OH239628   5.657   2.331  13.441 -0.7128  0.1712  0.0567
 6046TIP3    H139629   5.717   2.266  13.480  0.8303  0.8728 -1.0333
 6046TIP3    H239630   5.615   2.372  13.517  0.1601 -0.3767  0.8704
 6047TIP3   OH239631   3.321   5.997   4.023  0.3188  0.3318  0.0016
 6047TIP3    H139632   3.411   5.986   4.053  1.5407  0.5039 -3.1521
 6047TIP3    H239633   3.307   5.923   3.963 -1.1680  1.0095 -0.5219
 6048TIP3   OH239634   0.757   0.334   1.924  0.1839 -0.6955 -0.5189
 6048TIP3    H139635   0.713   0.303   2.003  0.9399  0.2706  0.3022
 6048TIP3    H239636   0.815   0.262   1.899 -1.5947 -1.8875 -1.4698
 6049TIP3   OH239637   6.803   3.219  10.959  0.5817 -0.0748 -0.1530
 6049TIP3    H139638   6.882   3.202  10.907  0.5022 -3.0383  0.4936
 6049TIP3    H239639   6.836   3.250  11.044  0.8928  1.0683 -0.6765
 6050TIP3   OH239640   5.878   0.118  16.419  0.3633  0.0317  0.3300
 6050TIP3    H139641   5.806   0.068  16.380  1.2313 -1.0383  0.0513
 6050TIP3    H239642   5.835   0.190  16.465 -0.8294 -0.0378 -0.6147
 6051TIP3   OH239643   3.828   0.847  10.696  0.2526  0.1242 -0.1582
 6051TIP3    H139644   3.747   0.892  10.672  0.8104  0.7198 -1.0095
 6051TIP3    H239645   3.812   0.755  10.674 -0.2446  0.2099 -0.1632
 6052TIP3   OH239646   3.450   6.102  16.873  0.2428 -0.2801  0.0489
 6052TIP3    H139647   3.452   6.069  16.783  0.6083 -1.4788  0.4783
 6052TIP3    H239648   3.357   6.118  16.891  0.2686  1.2847 -0.9752
 6053TIP3   OH239649   1.295   3.796  11.186  0.2387 -0.1053 -0.1377
 6053TIP3    H139650   1.251   3.794  11.101 -0.0082 -2.3600 -0.0113
 6053TIP3    H239651   1.231   3.836  11.245 -0.6769 -1.0682 -0.4588
 6054TIP3   OH239652   0.575   0.852  14.969 -0.2900  0.6523  0.5012
 6054TIP3    H139653   0.628   0.931  14.978  0.9224 -0.1583  0.8037
 6054TIP3    H239654   0.635   0.781  14.992 -1.3976 -0.3418  0.3978
 6055TIP3   OH239655   5.119   5.450  10.381 -0.0832  0.1347 -0.6771
 6055TIP3    H139656   5.074   5.445  10.466 -0.2855  1.7706 -0.6633
 6055TIP3    H239657   5.062   5.401  10.322  1.0042 -2.7124  0.4560
 6056TIP3   OH239658   2.413   1.901   1.559  0.2102 -0.2131  0.3436
 6056TIP3    H139659   2.322   1.882   1.534  0.5711 -0.1922 -1.1283
 6056TIP3    H239660   2.430   1.988   1.521  0.8578 -0.2516  0.5407
 6057TIP3   OH239661   2.117   0.563   4.268 -0.1608 -0.3545  0.2968
 6057TIP3    H139662   2.109   0.658   4.256  0.2340 -0.2811  0.5878
 6057TIP3    H239663   2.175   0.535   4.196  0.6785 -0.1941  0.8945
 6058TIP3   OH239664   6.073   1.217   4.941  0.3797  0.1375  0.3510
 6058TIP3    H139665   5.988   1.175   4.938  0.1199  0.6861 -0.1209
 6058TIP3    H239666   6.079   1.266   4.859  0.9200  0.5433  0.6234
 6059TIP3   OH239667   5.942   2.149   1.261 -0.1750 -0.0812  0.9120
 6059TIP3    H139668   5.886   2.192   1.326 -1.2826 -0.7328  0.4303
 6059TIP3    H239669   5.960   2.063   1.300  0.0784 -0.0618  0.8377
 6060TIP3   OH239670   2.931   5.335  12.406 -0.8687 -0.2631 -0.0745
 6060TIP3    H139671   2.839   5.315  12.425 -0.9231  0.1576  0.1255
 6060TIP3    H239672   2.931   5.428  12.382 -0.6301 -0.5023 -1.0179
 6061TIP3   OH239673   0.316   5.644   1.378 -0.5395  0.2805  0.3391
 6061TIP3    H139674   0.340   5.559   1.342  0.7638  0.5832  0.4757
 6061TIP3    H239675   0.311   5.630   1.473 -0.2859  0.3694  0.3650
 6062TIP3   OH239676   4.024   0.723  16.187  0.3136 -0.2012  0.1890
 6062TIP3    H139677   4.054   0.814  16.186  1.3121 -0.5104 -1.1428
 6062TIP3    H239678   4.000   0.705  16.097 -0.5493 -1.0621  0.5785
 6063TIP3   OH239679   4.413   1.743   3.846  0.5316 -0.0790 -0.5874
 6063TIP3    H139680   4.470   1.744   3.923 -0.6627  0.3087  0.3385
 6063TIP3    H239681   4.332   1.785   3.877 -0.7320 -1.7707 -1.4678
 6064TIP3   OH239682   0.838   5.717   1.079  0.0399 -0.2452 -0.2139
 6064TIP3    H139683   0.819   5.807   1.106  1.0230  0.3830 -1.5103
 6064TIP3    H239684   0.886   5.680   1.152 -0.7965  0.1147  0.5384
 6065TIP3   OH239685   2.713   4.755  13.132  0.3281 -0.2845  0.0026
 6065TIP3    H139686   2.627   4.797  13.131  1.2350  1.8593 -3.1680
 6065TIP3    H239687   2.764   4.806  13.195 -0.3851 -0.9345  1.1415
 6066TIP3   OH239688   6.143   1.670  12.408  0.6462 -0.3857  0.0395
 6066TIP3    H139689   6.120   1.735  12.342 -1.0135 -0.4070  0.5491
 6066TIP3    H239690   6.193   1.604  12.361  1.1916  0.5744 -0.7618
 6067TIP3   OH239691   3.755   5.858   0.864  0.0579 -0.1733  0.4372
 6067TIP3    H139692   3.674   5.907   0.856  0.1055 -0.0957  0.4290
 6067TIP3    H239693   3.801   5.873   0.781 -1.0537 -2.2773 -0.6563
 6068TIP3   OH239694   6.545   4.839   3.762  0.6113  0.0704 -0.3420
 6068TIP3    H139695   6.478   4.781   3.726  1.1732 -0.7488 -0.0905
 6068TIP3    H239696   6.497   4.900   3.818 -0.0332  0.1110 -0.9342
 6069TIP3   OH239697   5.283   4.591   2.268 -0.3571  0.8304 -0.1184
 6069TIP3    H139698   5.196   4.582   2.307 -0.2172  1.2487  0.3146
 6069TIP3    H239699   5.308   4.502   2.244 -1.3324  0.8262 -1.2102
 6070TIP3   OH239700   0.761   4.799  14.247 -0.0597  0.2351 -0.3639
 6070TIP3    H139701   0.818   4.876  14.252  0.4211 -0.1352 -0.0771
 6070TIP3    H239702   0.767   4.759  14.333 -1.1640  0.4664 -0.1634
 6071TIP3   OH239703   1.763   4.387  16.534 -0.1841 -0.3289 -0.5864
 6071TIP3    H139704   1.687   4.359  16.586 -0.5213  1.5093  0.0154
 6071TIP3    H239705   1.823   4.425  16.599 -0.1958  1.1598 -1.3932
 6072TIP3   OH239706   0.846   6.741   4.709  0.0032 -0.3945 -0.5765
 6072TIP3    H139707   0.869   6.832   4.687  1.1079 -0.6209 -0.4412
 6072TIP3    H239708   0.903   6.688   4.654  0.8312 -0.9767  0.7847
 6073TIP3   OH239709   6.647   1.416   1.321 -0.1934  0.1433  0.0159
 6073TIP3    H139710   6.631   1.327   1.354 -0.0450  0.8213  2.1173
 6073TIP3    H239711   6.560   1.452   1.304 -0.2360 -1.4435 -4.2302
 6074TIP3   OH239712   6.801   4.264  13.893 -0.4082 -0.2569  0.0362
 6074TIP3    H139713   6.894   4.278  13.910 -0.0684 -0.7352 -1.3154
 6074TIP3    H239714   6.768   4.349  13.863  0.1229 -0.6154 -1.6492
 6075TIP3   OH239715   1.197   1.763   4.899 -0.2551 -0.2432 -0.1509
 6075TIP3    H139716   1.221   1.757   4.807 -0.1196  0.2469 -0.1461
 6075TIP3    H239717   1.249   1.695   4.941 -0.2248 -0.3854 -0.4149
 6076TIP3   OH239718   6.352   3.039  10.659  0.1578 -0.0691 -0.1918
 6076TIP3    H139719   6.281   2.995  10.705 -0.6096  1.0318 -0.3103
 6076TIP3    H239720   6.418   2.970  10.646 -1.5247 -1.5337 -1.5020
 6077TIP3   OH239721   2.946   5.209   0.320 -0.2530 -0.1981 -0.0552
 6077TIP3    H139722   2.894   5.256   0.385  0.5128  0.2205  0.2568
 6077TIP3    H239723   3.033   5.200   0.359  0.1841 -0.0607 -0.9633
 6078TIP3   OH239724   3.325   0.301   1.811  0.6069  0.2814 -0.1646
 6078TIP3    H139725   3.249   0.289   1.868  1.5801 -3.4847  0.6178
 6078TIP3    H239726   3.398   0.264   1.861  2.1890  0.1597 -2.4296
 6079TIP3   OH239727   0.699   0.792   1.251  0.4598 -0.5515  0.6843
 6079TIP3    H139728   0.751   0.712   1.243  1.7438  0.3091  0.0937
 6079TIP3    H239729   0.722   0.827   1.337  2.3666  0.7877 -0.2881
 6080TIP3   OH239730   3.323   0.932   1.172  0.5218  0.1548 -0.0172
 6080TIP3    H139731   3.297   0.861   1.232  0.8217 -0.3074 -0.4290
 6080TIP3    H239732   3.417   0.939   1.183  0.5005  0.4448 -0.0309
 6081TIP3   OH239733   3.281   6.507  16.070  0.4806  0.5936  0.2247
 6081TIP3    H139734   3.205   6.450  16.085  0.9112 -0.6064 -1.7614
 6081TIP3    H239735   3.277   6.571  16.141 -2.3957  0.5961  0.1921
 6082TIP3   OH239736   1.807   5.002  11.251  0.1125  0.1288  0.2443
 6082TIP3    H139737   1.762   5.046  11.323 -1.3187  0.0031 -0.5309
 6082TIP3    H239738   1.772   4.912  11.253  0.6210 -0.0785 -0.1397
 6083TIP3   OH239739   4.899   2.505  14.926 -0.3653 -0.4067 -0.0572
 6083TIP3    H139740   4.926   2.415  14.907 -0.8446 -0.8996  1.4095
 6083TIP3    H239741   4.916   2.515  15.020 -1.2989  0.6776  0.0160
 6084TIP3   OH239742   4.219   0.620   0.591 -0.3460 -0.5461 -0.7180
 6084TIP3    H139743   4.209   0.557   0.662 -1.7386  0.5290  0.0821
 6084TIP3    H239744   4.313   0.639   0.589 -0.3884  0.1096  1.4945
 6085TIP3   OH239745   4.684   2.901  14.666  0.2894  0.0795 -0.4228
 6085TIP3    H139746   4.770   2.905  14.623  0.5964 -0.0706  0.1699
 6085TIP3    H239747   4.682   2.978  14.724  1.2138 -1.4425  1.7380
 6086TIP3   OH239748   4.052   2.007  14.371  0.1185  0.1697 -0.0338
 6086TIP3    H139749   4.098   1.992  14.453 -0.4972  0.1257  0.3105
 6086TIP3    H239750   4.039   1.919  14.334  0.0050  0.1570  0.0376
 6087TIP3   OH239751   6.520   1.216  15.795 -0.3647  0.4204  0.2554
 6087TIP3    H139752   6.442   1.271  15.803 -0.7107  0.0303 -0.3109
 6087TIP3    H239753   6.527   1.198  15.701  2.2987  3.1496 -0.2196
 6088TIP3   OH239754   2.400   4.940   5.498 -0.2822  0.0079  0.2254
 6088TIP3    H139755   2.353   4.958   5.580 -0.1222  2.3539 -0.1305
 6088TIP3    H239756   2.338   4.963   5.429  0.9264  2.1244 -0.2487
 6089TIP3   OH239757   1.231   4.254  11.358  0.6856  0.2130  0.3452
 6089TIP3    H139758   1.309   4.213  11.395 -0.1037  0.8981  2.9836
 6089TIP3    H239759   1.245   4.348  11.371 -0.7631  0.3196  1.3495
 6090TIP3   OH239760   5.544   2.702  11.734 -0.6222  0.3831  0.0832
 6090TIP3    H139761   5.571   2.781  11.687  0.3229  0.6722  1.0663
 6090TIP3    H239762   5.598   2.702  11.813 -2.9423  0.4967  1.7589
 6091TIP3   OH239763   2.631   6.287   3.231 -0.4440 -0.3286 -0.0116
 6091TIP3    H139764   2.630   6.239   3.313 -0.2006  2.1303  1.5395
 6091TIP3    H239765   2.717   6.329   3.229 -0.8596  0.5236 -0.9754
 6092TIP3   OH239766   5.188   0.307  16.593  0.5018 -0.7101  0.4846
 6092TIP3    H139767   5.205   0.379  16.532 -1.9724 -0.9339 -0.6044
 6092TIP3    H239768   5.119   0.340  16.650  0.0465 -1.8608  0.6226
 6093TIP3   OH239769   3.630   6.365  15.596 -0.5557 -0.0805 -0.3330
 6093TIP3    H139770   3.643   6.312  15.675 -0.7874  1.9559  1.1482
 6093TIP3    H239771   3.682   6.444  15.611  1.5365 -0.6908 -3.4149
 6094TIP3   OH239772   5.913   6.634   0.130 -0.2169  0.0008  0.0791
 6094TIP3    H139773   5.880   6.714   0.090  0.7197  0.3770  0.0344
 6094TIP3    H239774   5.906   6.649   0.224 -1.1976 -0.3709  0.0850
 6095TIP3   OH239775   1.895   3.784  13.028 -0.1738  0.7415  0.0535
 6095TIP3    H139776   1.981   3.790  12.986 -1.0297 -0.8268 -2.1106
 6095TIP3    H239777   1.910   3.730  13.106  0.7413  0.0925 -0.5497
 6096TIP3   OH239778   4.227   0.178  14.855  0.5818  0.0914 -0.1459
 6096TIP3    H139779   4.162   0.192  14.786 -0.7549 -0.7148  0.8834
 6096TIP3    H239780   4.307   0.217  14.822 -0.1490  0.1414 -1.9413
 6097TIP3   OH239781   6.403   2.494   3.156  0.3045  0.3468 -0.3732
 6097TIP3    H139782   6.430   2.566   3.213  0.2918  0.2950 -0.3016
 6097TIP3    H239783   6.426   2.415   3.205 -1.4980  0.2696  0.4423
 6098TIP3   OH239784   1.244   6.475   3.761  0.0249  0.2834 -0.1035
 6098TIP3    H139785   1.228   6.562   3.725 -0.0691  0.0757 -0.5635
 6098TIP3    H239786   1.199   6.476   3.845  0.5135  0.8771  0.1614
 6099TIP3   OH239787   6.844   4.714  11.188  0.5478  0.1108  0.0345
 6099TIP3    H139788   6.918   4.758  11.147  0.2127  0.2493 -0.4361
 6099TIP3    H239789   6.767   4.762  11.157  0.2805  0.2116  0.8240
 6100TIP3   OH239790   1.371   1.186  16.552 -0.0257 -0.1340 -0.1524
 6100TIP3    H139791   1.375   1.091  16.560  0.4051 -0.1255 -0.2344
 6100TIP3    H239792   1.372   1.218  16.642  0.4508 -0.1848 -0.1389
 6101TIP3   OH239793   1.286   0.431  14.820  0.1040 -0.0913 -0.4644
 6101TIP3    H139794   1.251   0.346  14.792 -0.9880  0.1855  0.0193
 6101TIP3    H239795   1.231   0.495  14.776  0.6181  0.3583 -0.4486
 6102TIP3   OH239796   2.162   5.923   0.709 -0.2117  0.0723  0.2013
 6102TIP3    H139797   2.124   5.932   0.796 -1.0968 -0.6358 -0.0986
 6102TIP3    H239798   2.257   5.921   0.724 -0.2775  1.5256  0.9981
 6103TIP3   OH239799   1.809   1.509   6.356 -0.2321  0.6872 -0.1992
 6103TIP3    H139800   1.717   1.500   6.330 -0.5208  0.8530  0.7536
 6103TIP3    H239801   1.813   1.593   6.402 -0.3244 -0.7707  2.6887
 6104TIP3   OH239802   0.538   2.731  15.215  0.0077 -0.6763 -0.6194
 6104TIP3    H139803   0.548   2.682  15.133  0.7120 -1.3190 -0.1665
 6104TIP3    H239804   0.477   2.679  15.267  1.0494 -1.2960  0.0134
 6105TIP3   OH239805   6.395   4.639  13.238  0.3542 -0.7701  0.1049
 6105TIP3    H139806   6.398   4.700  13.165  1.8466  0.0147  0.7568
 6105TIP3    H239807   6.483   4.601  13.240  0.3091 -0.8489  1.4138
 6106TIP3   OH239808   0.326   0.653   2.029  0.0657  0.3890 -0.6944
 6106TIP3    H139809   0.400   0.623   1.976 -0.1442  1.8279 -1.8622
 6106TIP3    H239810   0.366   0.697   2.104  0.3605 -1.4053  0.2798
 6107TIP3   OH239811   3.551   4.706   1.803  0.4090  0.4198  0.0160
 6107TIP3    H139812   3.533   4.696   1.896  2.2468  1.3016  0.5181
 6107TIP3    H239813   3.574   4.799   1.792 -2.1289  0.9454 -1.7941
 6108TIP3   OH239814   2.214   6.086  15.657 -0.0128  0.7292 -0.0376
 6108TIP3    H139815   2.129   6.042  15.668 -0.3533  1.3639 -0.1104
 6108TIP3    H239816   2.227   6.088  15.562  1.3315 -1.7063  0.0112
 6109TIP3   OH239817   5.093   4.473   5.549 -0.3153 -0.6189 -0.3273
 6109TIP3    H139818   5.135   4.396   5.511  2.0403 -0.5687  1.9642
 6109TIP3    H239819   5.063   4.445   5.635 -0.2485  0.7691  0.1764
 6110TIP3   OH239820   2.310   3.184   0.460  0.4862  0.3107 -0.3689
 6110TIP3    H139821   2.375   3.137   0.513 -0.3091 -0.3485  0.0366
 6110TIP3    H239822   2.294   3.127   0.385 -1.9985 -1.1342  1.1276
 6111TIP3   OH239823   5.720   4.167   2.827 -0.0452  0.4666  0.2439
 6111TIP3    H139824   5.746   4.180   2.736  0.0057  1.2816  0.3626
 6111TIP3    H239825   5.706   4.073   2.835  0.6317  0.2940 -0.4254
 6112TIP3   OH239826   1.845   1.711  11.095  0.1383  0.1764 -0.5872
 6112TIP3    H139827   1.850   1.622  11.129  0.7223  0.5737  0.4479
 6112TIP3    H239828   1.835   1.701  11.001  0.0484 -0.9777 -0.4691
 6113TIP3   OH239829   4.427   2.604  13.239  0.3726 -0.0687 -0.5241
 6113TIP3    H139830   4.468   2.649  13.165 -1.6953  1.3511 -0.8747
 6113TIP3    H239831   4.444   2.660  13.314 -2.4197  1.5877 -1.0046
 6114TIP3   OH239832   5.425   4.505   4.180  0.0759  0.6167  0.4859
 6114TIP3    H139833   5.427   4.597   4.208  0.6802  0.7820 -0.0516
 6114TIP3    H239834   5.332   4.485   4.170 -0.1004  0.9158  1.3995
 6115TIP3   OH239835   5.674   3.709  12.259 -0.4644  0.4073 -0.0776
 6115TIP3    H139836   5.708   3.788  12.217  0.2536  0.1763  0.0676
 6115TIP3    H239837   5.672   3.644  12.188  3.0415 -0.7143  0.6519
 6116TIP3   OH239838   3.688   2.582   5.369  0.3482 -0.3833 -0.2776
 6116TIP3    H139839   3.685   2.502   5.422 -0.5997 -1.6469 -2.1009
 6116TIP3    H239840   3.781   2.599   5.357  0.5708 -0.7530  0.7648
 6117TIP3   OH239841   5.344   2.957  12.438  0.0344 -0.2719 -0.2320
 6117TIP3    H139842   5.387   2.934  12.520  0.0566 -2.6049 -0.8068
 6117TIP3    H239843   5.415   2.979  12.378  0.2113 -0.8715 -0.2513
 6118TIP3   OH239844   4.709   3.403   5.788  0.1674 -0.5623  0.2080
 6118TIP3    H139845   4.686   3.324   5.838  0.3739 -1.3308 -0.8779
 6118TIP3    H239846   4.626   3.438   5.758  0.1785 -1.4911 -0.9596
 6119TIP3   OH239847   5.946   5.153   3.034 -0.2656  0.3614  0.4129
 6119TIP3    H139848   5.881   5.220   3.053 -0.4819  0.1911  0.2792
 6119TIP3    H239849   5.937   5.136   2.941 -0.6971 -0.3518  0.5749
 6120TIP3   OH239850   3.854   5.027   6.431 -0.3422  0.0691 -0.0183
 6120TIP3    H139851   3.759   5.043   6.430 -0.1294  1.6275  0.9632
 6120TIP3    H239852   3.863   4.937   6.399 -2.4143 -1.3928  2.9741
 6121TIP3   OH239853   5.561   4.428  14.603 -0.3207 -0.3177 -0.1724
 6121TIP3    H139854   5.641   4.380  14.621  0.0504 -0.1062 -1.1856
 6121TIP3    H239855   5.564   4.503  14.662  0.6138  0.0936 -0.7136
 6122TIP3   OH239856   4.729   4.929  15.027 -0.2054  0.7356  0.2549
 6122TIP3    H139857   4.700   4.949  14.938 -1.1356 -0.0150  0.3822
 6122TIP3    H239858   4.825   4.929  15.021 -0.2532 -0.4297 -1.0025
 6123TIP3   OH239859   5.538   3.812   3.802 -0.2278 -0.1853  0.2237
 6123TIP3    H139860   5.469   3.874   3.780 -1.9396 -1.4433  1.7455
 6123TIP3    H239861   5.532   3.743   3.736 -2.5354 -1.7998  1.9320
 6124TIP3   OH239862   6.387   6.752  12.730  0.1568  0.2951  0.4251
 6124TIP3    H139863   6.332   6.827  12.704 -1.5463 -0.7007  0.9935
 6124TIP3    H239864   6.462   6.756  12.671 -1.0521  1.1065 -1.1375
 6125TIP3   OH239865   1.747   1.724   2.585  0.2547 -0.1109  0.1107
 6125TIP3    H139866   1.730   1.635   2.616  0.1711 -0.0883  0.1285
 6125TIP3    H239867   1.692   1.734   2.507  2.5662 -1.1850 -1.7910
 6126TIP3   OH239868   3.192   1.589   4.476  0.4708 -0.3062 -0.7181
 6126TIP3    H139869   3.169   1.601   4.568 -0.3437 -0.9004 -0.8372
 6126TIP3    H239870   3.182   1.676   4.437 -1.5466 -0.5091 -0.7427
 6127TIP3   OH239871   3.019   2.841  15.277  0.1677 -0.0529 -0.3412
 6127TIP3    H139872   2.982   2.755  15.298  0.6611 -0.3639 -0.7256
 6127TIP3    H239873   3.094   2.822  15.221 -0.1393  0.6603 -1.0222
 6128TIP3   OH239874   2.297   3.809  16.408 -0.1043 -0.2774 -0.1471
 6128TIP3    H139875   2.335   3.843  16.327 -1.3667 -0.3997 -0.7987
 6128TIP3    H239876   2.286   3.887  16.463  0.5210 -0.1623 -0.1685
 6129TIP3   OH239877   1.572   3.269  14.488 -0.2099 -0.0692 -0.0200
 6129TIP3    H139878   1.552   3.177  14.472  1.0331 -0.4512  0.4903
 6129TIP3    H239879   1.666   3.271  14.507 -0.3101  1.2297  0.5107
 6130TIP3   OH239880   0.383   0.984   0.627 -0.6909  0.1950 -0.0386
 6130TIP3    H139881   0.475   0.975   0.600 -0.8813  0.0367 -0.6482
 6130TIP3    H239882   0.336   1.003   0.546 -1.1336  0.7664  0.3475
 6131TIP3   OH239883   4.225   3.771   1.571  0.3283 -0.2717  0.8367
 6131TIP3    H139884   4.182   3.688   1.548  0.8593 -0.7611  1.5774
 6131TIP3    H239885   4.310   3.745   1.605  0.9070  0.6515  0.1242
 6132TIP3   OH239886   0.538   5.147  11.086  0.2567 -0.1442  0.1603
 6132TIP3    H139887   0.598   5.185  11.022 -1.7319  2.0986 -0.5250
 6132TIP3    H239888   0.504   5.068  11.044  0.7982 -0.0396 -0.4941
 6133TIP3   OH239889   5.798   0.064  11.631  0.0364 -0.0998 -0.0962
 6133TIP3    H139890   5.716   0.078  11.679 -0.9542  0.8156 -1.9591
 6133TIP3    H239891   5.855   0.019  11.694 -1.7769 -0.5026  1.3455
 6134TIP3   OH239892   2.819   3.884   3.189 -0.4293  0.0431  0.0713
 6134TIP3    H139893   2.799   3.841   3.273 -0.2796  0.1921  0.1835
 6134TIP3    H239894   2.893   3.835   3.154 -0.5756 -0.1024 -0.0383
 6135TIP3   OH239895   6.525   5.203  14.552 -0.4586  0.3969 -0.1743
 6135TIP3    H139896   6.479   5.284  14.577  2.6132  2.4758 -0.7545
 6135TIP3    H239897   6.593   5.194  14.618  1.5257  0.3914 -2.1307
 6136TIP3   OH239898   1.134   1.574  16.819 -0.7907 -0.4548 -0.1047
 6136TIP3    H139899   1.173   1.659  16.836  0.9196 -1.2660  0.2555
 6136TIP3    H239900   1.074   1.589  16.746 -0.2926  0.9770 -0.2461
 6137TIP3   OH239901   4.266   2.888  10.592  0.5604  0.5165 -0.4043
 6137TIP3    H139902   4.351   2.846  10.580 -0.7307 -2.1557 -0.8736
 6137TIP3    H239903   4.237   2.910  10.503 -0.6722 -1.7587 -0.6311
 6138TIP3   OH239904   3.752   5.932  14.831 -0.3810  0.0927 -0.1866
 6138TIP3    H139905   3.729   5.907  14.741 -0.4094  0.6341 -0.3301
 6138TIP3    H239906   3.780   6.023  14.824  0.3739 -0.1035  0.2281
 6139TIP3   OH239907   6.453   6.414   4.907 -0.5682  0.0816 -0.0982
 6139TIP3    H139908   6.393   6.462   4.850 -0.0723 -0.8480 -1.4570
 6139TIP3    H239909   6.442   6.454   4.993 -3.0320  0.0266 -0.3204
 6140TIP3   OH239910   3.555   6.268   4.937  0.2718  0.0605 -0.1608
 6140TIP3    H139911   3.509   6.247   4.856  0.4635 -1.1133  0.0250
 6140TIP3    H239912   3.632   6.318   4.909 -0.0300  0.2614 -0.6381
 6141TIP3   OH239913   6.157   3.497  11.118 -0.0797 -0.3484  0.0744
 6141TIP3    H139914   6.154   3.522  11.210  0.2937 -1.6992  0.4703
 6141TIP3    H239915   6.243   3.455  11.107  0.8396  1.7610 -1.4338
 6142TIP3   OH239916   2.377   0.187   3.977  0.3771 -0.4281  0.2964
 6142TIP3    H139917   2.290   0.222   3.957 -0.2254 -1.0952  1.6494
 6142TIP3    H239918   2.437   0.257   3.949 -0.5304 -0.1978 -1.2044
 6143TIP3   OH239919   4.781   0.218   2.637 -0.2048  0.1554  0.4754
 6143TIP3    H139920   4.792   0.127   2.610  0.0357  0.1783  0.4964
 6143TIP3    H239921   4.705   0.249   2.587 -2.3860 -1.0164  2.8465
 6144TIP3   OH239922   5.164   6.654  11.145  0.2151 -0.3381 -0.3007
 6144TIP3    H139923   5.211   6.732  11.115 -0.1353 -0.2524 -0.6280
 6144TIP3    H239924   5.232   6.587  11.151  0.5077 -0.0252 -0.0771
 6145TIP3   OH239925   5.110   6.151  13.572 -0.0734  0.3079  0.3850
 6145TIP3    H139926   5.119   6.070  13.622 -0.4623  0.8440  1.3356
 6145TIP3    H239927   5.144   6.219  13.629  0.5686  0.7830 -0.5412
 6146TIP3   OH239928   0.760   3.757   3.520 -0.0095 -0.1350  0.1742
 6146TIP3    H139929   0.715   3.834   3.553  1.4733  0.7230  0.2900
 6146TIP3    H239930   0.712   3.732   3.441 -0.2926  1.1363 -0.0706
 6147TIP3   OH239931   3.954   3.346  14.444 -0.0425 -0.0455  0.0801
 6147TIP3    H139932   3.871   3.300  14.426 -0.7390  2.0490 -2.7952
 6147TIP3    H239933   3.990   3.365  14.357 -0.0216  4.9892  0.8815
 6148TIP3   OH239934   6.381   5.205  12.672  0.0781  0.3633  0.9223
 6148TIP3    H139935   6.379   5.213  12.767  1.1230 -0.0675  0.9940
 6148TIP3    H239936   6.454   5.261  12.645  1.6168 -1.6892  0.6437
 6149TIP3   OH239937   3.923   5.920   4.224 -0.1045  0.3695  0.0531
 6149TIP3    H139938   3.871   5.919   4.304 -0.3860  1.1631 -0.1109
 6149TIP3    H239939   3.975   6.001   4.229 -2.9138  2.5565 -2.2752
 6150TIP3   OH239940   3.415   1.246   6.368 -0.6706  0.7623  0.4598
 6150TIP3    H139941   3.467   1.326   6.355  0.4785  0.0109  0.2846
 6150TIP3    H239942   3.479   1.175   6.364 -1.7715 -0.2268 -0.0588
 6151TIP3   OH239943   5.923   5.085  14.831 -0.0672 -0.0945  0.6527
 6151TIP3    H139944   5.831   5.074  14.805  0.6772 -0.8841 -1.9122
 6151TIP3    H239945   5.967   5.114  14.752  1.6933  1.8001  2.2169
 6152TIP3   OH239946   2.748   1.196   5.635  0.0106  0.3687  0.0105
 6152TIP3    H139947   2.678   1.214   5.698  0.7786  2.0776  0.4593
 6152TIP3    H239948   2.739   1.266   5.570  0.8126  0.1551 -0.3388
 6153TIP3   OH239949   5.236   0.746  17.063 -0.0832  0.1190  0.1505
 6153TIP3    H139950   5.322   0.739  17.105  0.2323  1.7245 -0.1472
 6153TIP3    H239951   5.198   0.826  17.100 -0.5296  0.6073 -1.3009
 6154TIP3   OH239952   3.839   3.379   5.984 -0.3042  0.3831  0.4124
 6154TIP3    H139953   3.909   3.426   6.029  0.2105 -1.4622  1.6351
 6154TIP3    H239954   3.882   3.337   5.910 -0.1085 -0.6870  1.1192
 6155TIP3   OH239955   3.662   3.345   0.999 -0.0961  0.2221 -0.2223
 6155TIP3    H139956   3.596   3.405   0.965 -0.3364 -0.2974 -0.6919
 6155TIP3    H239957   3.612   3.272   1.035  0.2222 -0.2682 -0.7566
 6156TIP3   OH239958   5.961   5.855  16.109  0.2600 -0.3204 -0.0100
 6156TIP3    H139959   5.894   5.816  16.054  1.0798 -0.2553 -1.0756
 6156TIP3    H239960   6.036   5.795  16.102  0.9228  0.5304 -0.2546
 6157TIP3   OH239961   4.347   1.240  15.296 -0.5205  0.0672  0.2758
 6157TIP3    H139962   4.297   1.308  15.341  0.1065  1.4262 -1.0081
 6157TIP3    H239963   4.346   1.266  15.204  1.3488 -0.6031  0.0241
 6158TIP3   OH239964   4.424   3.008   3.387  0.4207  0.3647  0.6824
 6158TIP3    H139965   4.457   3.034   3.473  0.2057  2.3115  0.2240
 6158TIP3    H239966   4.474   2.928   3.365  0.9252  0.2013  2.3132
 6159TIP3   OH239967   3.073   5.964  15.952  0.7061  0.1529 -0.0380
 6159TIP3    H139968   3.116   6.038  15.994  1.1458 -0.4756  0.6473
 6159TIP3    H239969   3.137   5.893  15.958 -0.4702 -0.8571  1.1301
 6160TIP3   OH239970   2.975   0.268   4.864  0.0779 -0.0012  0.1634
 6160TIP3    H139971   3.053   0.267   4.810 -0.6025  0.4087 -0.8575
 6160TIP3    H239972   2.932   0.184   4.847 -0.3952  0.3327 -0.3518
 6161TIP3   OH239973   4.080   1.414   3.984  0.2281 -0.4664  0.1771
 6161TIP3    H139974   4.099   1.431   3.891  0.4220 -0.1632  0.2690
 6161TIP3    H239975   4.092   1.499   4.026 -1.2340 -0.2755  0.2641
 6162TIP3   OH239976   1.721   5.367  12.464 -0.0085  0.1352  0.7194
 6162TIP3    H139977   1.752   5.401  12.548 -1.2412  1.5113  0.6718
 6162TIP3    H239978   1.676   5.441  12.424 -0.7635 -0.9330 -0.4802
 6163TIP3   OH239979   2.999   1.392   4.758  1.2309  1.0145 -0.1031
 6163TIP3    H139980   3.049   1.473   4.744  0.1624  1.6531 -0.3252
 6163TIP3    H239981   3.039   1.353   4.836  0.9302  2.4452  0.8182
 6164TIP3   OH239982   2.426   3.982   0.930  0.2461 -0.0157  0.5893
 6164TIP3    H139983   2.359   4.047   0.912  0.5257  0.1645  0.1849
 6164TIP3    H239984   2.436   3.983   1.025 -0.1350  0.1404  0.6293
 6165TIP3   OH239985   2.676   2.446  16.966  0.0761 -0.3177  0.3704
 6165TIP3    H139986   2.616   2.421  17.036  0.8832 -1.1159  0.7870
 6165TIP3    H239987   2.709   2.532  16.992 -1.3366  0.4272 -0.1756
 6166TIP3   OH239988   3.749   3.251   1.867  0.1384  0.2060 -0.0209
 6166TIP3    H139989   3.713   3.336   1.893 -2.2182 -0.6412 -0.2299
 6166TIP3    H239990   3.729   3.194   1.941  1.3694 -0.2787 -0.0383
 6167TIP3   OH239991   6.342   1.610   5.497 -0.5972  0.0051 -0.6434
 6167TIP3    H139992   6.312   1.683   5.443 -1.1921 -0.2304 -0.6385
 6167TIP3    H239993   6.395   1.651   5.565 -1.1466  0.4629 -0.4823
 6168TIP3   OH239994   2.169   2.707  15.421 -0.3967 -0.4067  0.2643
 6168TIP3    H139995   2.252   2.662  15.440 -0.6700 -1.4543 -0.8883
 6168TIP3    H239996   2.147   2.751  15.503  1.1312 -0.3663  0.7006
 6169TIP3   OH239997   3.824   4.269  15.524  0.7844 -0.1982  0.4340
 6169TIP3    H139998   3.784   4.242  15.607  3.1828 -4.0083  0.5885
 6169TIP3    H239999   3.906   4.313  15.549  1.5690 -1.4527  0.1477
 6170TIP3   OH240000   4.766   3.967  13.628 -0.1251  0.2529  0.2070
 6170TIP3    H140001   4.711   4.039  13.661 -1.4374 -0.9649  0.7813
 6170TIP3    H240002   4.705   3.895  13.614  0.7901 -0.1098 -2.5052
 6171TIP3   OH240003   5.072   5.888   2.075 -0.7866  0.3268  0.1286
 6171TIP3    H140004   5.009   5.877   2.146 -0.8652  0.9294  0.1592
 6171TIP3    H240005   5.108   5.800   2.060 -1.8063 -0.0743 -0.0472
 6172TIP3   OH240006   2.779   5.023   0.850 -0.1442 -0.5709  0.1056
 6172TIP3    H140007   2.819   4.993   0.769 -0.7975 -1.3536  0.0590
 6172TIP3    H240008   2.699   5.069   0.823  1.1304  1.7931  0.1374
 6173TIP3   OH240009   4.852   5.898  13.304 -0.4401  0.1716  0.5014
 6173TIP3    H140010   4.870   5.805  13.320 -2.0301  0.1396  2.5432
 6173TIP3    H240011   4.808   5.900  13.220 -1.5562 -1.1171  1.0158
 6174TIP3   OH240012   0.479   0.110   3.603  0.0502 -0.5062 -0.2715
 6174TIP3    H140013   0.390   0.108   3.638 -0.1323 -1.9370 -0.7841
 6174TIP3    H240014   0.529   0.050   3.658  0.6908  0.1697 -0.0815
 6175TIP3   OH240015   6.579   4.474  16.340 -0.4864 -0.1412 -0.2546
 6175TIP3    H140016   6.622   4.389  16.350 -0.1740 -0.0506 -0.8097
 6175TIP3    H240017   6.620   4.514  16.264 -1.2644  0.1243 -0.5536
 6176TIP3   OH240018   6.003   5.826   2.536  0.2833  0.0959  0.4589
 6176TIP3    H140019   5.963   5.801   2.452 -2.0676  1.8943  0.9530
 6176TIP3    H240020   6.057   5.902   2.515  1.1116 -0.5076  0.3259
 6177TIP3   OH240021   3.419   3.287   1.511 -0.1755  0.1215 -0.3379
 6177TIP3    H140022   3.487   3.327   1.566 -1.0899 -0.1773  1.0763
 6177TIP3    H240023   3.344   3.277   1.570 -0.9444 -0.9623 -1.4576
 6178TIP3   OH240024   3.275   4.923  16.448  0.0858  0.1632 -0.1858
 6178TIP3    H140025   3.185   4.941  16.424  0.0386 -0.6561 -0.6367
 6178TIP3    H240026   3.283   4.827  16.445  1.6968  0.2783 -2.9063
 6179TIP3   OH240027   4.980   5.648  13.312 -0.2770 -0.1066  0.1674
 6179TIP3    H140028   4.889   5.619  13.299  0.0559 -1.4591  0.6930
 6179TIP3    H240029   5.018   5.645  13.224 -0.2688 -1.2576  0.1958
 6180TIP3   OH240030   3.330   3.951   5.770  0.1859  0.5254 -0.3779
 6180TIP3    H140031   3.267   3.887   5.802  0.5174 -0.1462 -1.0185
 6180TIP3    H240032   3.348   4.008   5.845 -0.1648 -0.0933  0.1848
 6181TIP3   OH240033   5.296   5.555   4.811  0.0628  0.1487  0.4920
 6181TIP3    H140034   5.352   5.482   4.784  0.7764  0.9707 -0.3305
 6181TIP3    H240035   5.257   5.526   4.893 -0.3957 -1.5300 -0.2648
 6182TIP3   OH240036   5.001   4.108  11.782  0.0008  0.0132  0.4015
 6182TIP3    H140037   5.091   4.076  11.795 -0.0071 -0.6560 -0.9942
 6182TIP3    H240038   5.010   4.203  11.776  0.6013 -0.0398  0.4133
 6183TIP3   OH240039   0.339   2.808   4.054 -0.4081 -0.4199 -0.1474
 6183TIP3    H140040   0.270   2.760   4.101 -0.7605  0.5890  0.3925
 6183TIP3    H240041   0.296   2.839   3.974 -0.2357 -0.8137 -0.3977
 6184TIP3   OH240042   1.685   2.506   0.693  0.1994 -0.3447 -0.7081
 6184TIP3    H140043   1.672   2.598   0.670  0.5208 -0.4241 -1.2364
 6184TIP3    H240044   1.776   2.489   0.669 -0.2578 -1.1779 -1.9340
 6185TIP3   OH240045   6.669   4.623  13.248  0.0485 -0.1675  0.1814
 6185TIP3    H140046   6.735   4.557  13.226  0.5314  0.1280  0.6945
 6185TIP3    H240047   6.717   4.687  13.301 -0.5823  0.2127  0.2988
 6186TIP3   OH240048   4.539   5.260   3.124 -0.1472 -0.1227 -0.6809
 6186TIP3    H140049   4.474   5.311   3.173 -2.5374 -1.2489 -2.4993
 6186TIP3    H240050   4.555   5.311   3.045 -0.0651 -0.6500 -1.0098
 6187TIP3   OH240051   6.854   2.474   3.009 -0.6477 -0.1299 -0.2083
 6187TIP3    H140052   6.829   2.566   3.016 -1.3805 -0.3517  0.2373
 6187TIP3    H240053   6.878   2.448   3.098  0.2495 -0.1853 -0.4588
 6188TIP3   OH240054   3.433   5.699   5.301 -0.3597  0.0268 -0.3258
 6188TIP3    H140055   3.449   5.624   5.358  1.1850  2.0240  2.0474
 6188TIP3    H240056   3.354   5.741   5.337 -0.0241  0.6807 -0.3367
 6189TIP3   OH240057   2.894   1.342  13.872  0.1471  0.0502  0.0483
 6189TIP3    H140058   2.830   1.316  13.938  0.6817 -0.5548  0.3413
 6189TIP3    H240059   2.946   1.263  13.856  1.2640  0.7111  0.3267
 6190TIP3   OH240060   1.931   1.987   4.081 -0.4831  0.7384 -0.1556
 6190TIP3    H140061   1.999   2.052   4.061  0.2547 -0.0721 -0.3056
 6190TIP3    H240062   1.975   1.903   4.075 -1.7543  0.1168 -1.3854
 6191TIP3   OH240063   3.425   3.936   0.651  0.8626  0.1349 -0.7357
 6191TIP3    H140064   3.418   3.887   0.570 -0.4377 -0.1396 -0.4788
 6191TIP3    H240065   3.396   3.875   0.719 -2.1412  1.5823 -0.5597
 6192TIP3   OH240066   3.683   3.084  16.346  0.1786  0.1582 -0.1559
 6192TIP3    H140067   3.618   3.035  16.395  1.0601 -1.0671 -0.1654
 6192TIP3    H240068   3.766   3.043  16.369  0.8675  1.2047 -0.7213
 6193TIP3   OH240069   4.888   5.326  14.192 -0.1372 -0.4930 -0.9673
 6193TIP3    H140070   4.870   5.418  14.213  1.0973 -0.7507  1.6115
 6193TIP3    H240071   4.938   5.330  14.110  2.2408  1.3930  0.4608
 6194TIP3   OH240072   2.640   0.269  13.464  0.2208  0.0664  0.3681
 6194TIP3    H140073   2.567   0.327  13.443  0.4362 -0.4209 -2.0457
 6194TIP3    H240074   2.716   0.327  13.470  0.3666  0.1783 -1.6472
 6195TIP3   OH240075   3.452   1.761   0.635 -0.2708  0.0612  0.3458
 6195TIP3    H140076   3.385   1.762   0.704 -0.0936 -0.7278  0.5363
 6195TIP3    H240077   3.461   1.853   0.610 -0.9144  0.2632  0.8146
 6196TIP3   OH240078   3.860   6.307  14.481  0.6202  0.1829 -0.1591
 6196TIP3    H140079   3.874   6.259  14.562 -1.5834  0.8998  0.7137
 6196TIP3    H240080   3.872   6.399  14.505 -1.6558  0.5290 -0.1983
 6197TIP3   OH240081   5.957   5.022  12.145  0.8166  0.0801 -0.0366
 6197TIP3    H140082   5.865   4.996  12.142  1.6615 -3.5134  0.1000
 6197TIP3    H240083   5.988   5.012  12.055  1.5093 -0.9542  0.2853
 6198TIP3   OH240084   1.804   1.249  11.992 -0.4843 -0.0748  0.5278
 6198TIP3    H140085   1.845   1.335  12.002  1.0392 -0.8857  1.6311
 6198TIP3    H240086   1.836   1.198  12.066 -1.5822 -1.5309  0.0574
 6199TIP3   OH240087   3.884   2.034   5.378  0.3406 -0.2297 -0.0281
 6199TIP3    H140088   3.880   2.047   5.284  1.1486 -0.4540 -0.1059
 6199TIP3    H240089   3.850   1.945   5.391 -1.0551  0.2877  0.0503
 6200TIP3   OH240090   6.463   0.041  14.285  0.5129 -0.5782  0.2669
 6200TIP3    H140091   6.488   0.121  14.332 -0.5689  2.0323 -3.1096
 6200TIP3    H240092   6.374   0.023  14.314  0.6079 -0.2682  0.7626
 6201TIP3   OH240093   2.966   2.208   1.710  0.7497  0.1135 -0.2986
 6201TIP3    H140094   3.023   2.132   1.693 -0.6069 -0.6884 -1.4312
 6201TIP3    H240095   3.000   2.276   1.653 -0.2871 -0.8292 -2.1242
 6202TIP3   OH240096   0.746   2.343  13.142  0.2749  0.3352 -0.5421
 6202TIP3    H140097   0.700   2.403  13.201  0.4778 -0.6550  0.6752
 6202TIP3    H240098   0.830   2.385  13.125  0.6362  0.1911  0.7337
 6203TIP3   OH240099   5.883   3.104   5.843  0.1975  0.1599 -0.3615
 6203TIP3    H140100   5.803   3.125   5.795  0.0644  1.0733  0.2454
 6203TIP3    H240101   5.878   3.009   5.859  0.2484 -0.1718 -2.1310
 6204TIP3   OH240102   1.565   3.668  15.180  0.5715 -0.2212  0.2622
 6204TIP3    H140103   1.573   3.614  15.259 -0.8541  0.8178  1.1576
 6204TIP3    H240104   1.653   3.701  15.165  0.4403  1.6773  2.9995
 6205TIP3   OH240105   5.481   2.254  13.615 -0.1606 -0.2468 -0.4309
 6205TIP3    H140106   5.463   2.162  13.598  0.4829 -0.8473  1.8598
 6205TIP3    H240107   5.432   2.300  13.546 -3.0511 -2.1566  0.1576
 6206TIP3   OH240108   1.659   5.796   1.200 -0.4427 -0.1232  0.1501
 6206TIP3    H140109   1.701   5.762   1.278  0.2169 -0.4354 -0.3321
 6206TIP3    H240110   1.565   5.792   1.219 -0.3838 -1.9872  0.2035
 6207TIP3   OH240111   6.828   1.491   0.576  0.1908 -0.2697 -0.1969
 6207TIP3    H140112   6.825   1.424   0.645 -2.7872 -0.3735 -0.2868
 6207TIP3    H240113   6.791   1.569   0.617  1.9311  0.8438 -0.6351
 6208TIP3   OH240114   1.190   0.282   5.535  0.0339  0.4320 -0.0710
 6208TIP3    H140115   1.117   0.261   5.593  1.2630 -1.8681  0.7749
 6208TIP3    H240116   1.177   0.225   5.459  1.4244 -0.7481  0.5333
 6209TIP3   OH240117   1.855   1.814   4.451 -1.0512  0.0294  0.2930
 6209TIP3    H140118   1.801   1.893   4.462 -1.3581  0.0649 -1.1865
 6209TIP3    H240119   1.801   1.743   4.485 -1.5285  0.2394 -0.0038
 6210TIP3   OH240120   1.112   2.517   3.274  0.0811 -0.2100  0.2485
 6210TIP3    H140121   1.062   2.470   3.341 -0.2329 -0.5586 -0.2201
 6210TIP3    H240122   1.146   2.447   3.218 -1.0195  0.1511 -0.9015
 6211TIP3   OH240123   4.399   1.103   0.396 -0.6828 -0.1040  0.0506
 6211TIP3    H140124   4.412   1.187   0.351  0.6240 -0.7021 -0.7815
 6211TIP3    H240125   4.317   1.070   0.361 -1.2799  0.8804  0.4833
 6212TIP3   OH240126   1.009   1.511  12.520 -0.0253 -0.1459 -0.1774
 6212TIP3    H140127   0.985   1.419  12.530 -1.8468  0.2918 -0.1702
 6212TIP3    H240128   0.926   1.556  12.506  0.8214  1.5243 -0.0762
 6213TIP3   OH240129   1.100   6.568  15.715  0.6059 -0.2972  0.8621
 6213TIP3    H140130   1.080   6.660  15.733  1.3420 -0.1386  0.9038
 6213TIP3    H240131   1.017   6.530  15.686  0.1424  0.2158  1.5012
 6214TIP3   OH240132   5.221   2.209  13.809  0.0381  0.0553  0.3817
 6214TIP3    H140133   5.136   2.215  13.765  0.4958 -1.6128 -0.8083
 6214TIP3    H240134   5.283   2.185  13.740  1.4080  0.6678  1.3361
 6215TIP3   OH240135   4.135   0.745  14.442  0.0235 -0.1693  0.3447
 6215TIP3    H140136   4.147   0.663  14.488 -0.4546  0.9328  2.5600
 6215TIP3    H240137   4.046   0.772  14.463  0.4445  1.3024  0.3849
 6216TIP3   OH240138   2.990   4.734   2.894 -0.0382 -0.1213  0.0030
 6216TIP3    H140139   3.067   4.779   2.860  0.0939 -0.0206  0.4314
 6216TIP3    H240140   3.005   4.728   2.988 -0.4727 -0.2536  0.0669
 6217TIP3   OH240141   2.301   0.355  16.240  0.3151  0.3271 -0.1770
 6217TIP3    H140142   2.346   0.369  16.323  1.5654 -1.7684 -0.4241
 6217TIP3    H240143   2.221   0.308  16.265  1.5213 -1.9024 -0.1910
 6218TIP3   OH240144   3.685   5.860  11.672  0.2998 -0.1244  0.1915
 6218TIP3    H140145   3.771   5.899  11.657 -0.0844  1.2019  1.2013
 6218TIP3    H240146   3.629   5.935  11.693 -1.0150 -1.0095 -0.0689
 6219TIP3   OH240147   3.587   3.434   2.114  0.5894  0.2511  0.3342
 6219TIP3    H140148   3.579   3.524   2.143 -2.7877  0.0405  0.5326
 6219TIP3    H240149   3.522   3.426   2.044 -0.2621 -2.3214  1.2956
 6220TIP3   OH240150   4.055   3.440   2.185  0.2385  1.0866  0.0225
 6220TIP3    H140151   3.980   3.390   2.217 -1.4425  1.8048 -2.4827
 6220TIP3    H240152   4.101   3.468   2.264 -1.7686  0.1001  1.6343
 6221TIP3   OH240153   3.699   5.552  14.089  0.1267 -0.7680 -0.4079
 6221TIP3    H140154   3.739   5.637  14.076  0.8248 -0.8095  1.2483
 6221TIP3    H240155   3.747   5.493  14.032 -0.4998 -0.0432 -1.7236
 6222TIP3   OH240156   6.431   5.678   6.100  0.4975 -0.4392  0.5529
 6222TIP3    H140157   6.348   5.633   6.117 -0.0955  0.8257  1.1282
 6222TIP3    H240158   6.486   5.655   6.175  0.7942 -1.5120  0.0301
 6223TIP3   OH240159   5.191   0.643   4.210 -0.2036  0.0438  0.5435
 6223TIP3    H140160   5.253   0.661   4.281  3.4717  2.7151 -2.9015
 6223TIP3    H240161   5.209   0.553   4.184  0.0329 -0.1843  1.4625
 6224TIP3   OH240162   4.590   6.663  15.312 -0.1383 -0.1522 -0.2566
 6224TIP3    H140163   4.511   6.650  15.260  0.0332  0.9531 -0.8392
 6224TIP3    H240164   4.657   6.687  15.247  0.1519  0.9376  0.4153
 6225TIP3   OH240165   5.862   6.369  16.044 -0.0254  0.4626 -0.5163
 6225TIP3    H140166   5.807   6.398  16.117 -1.5781  0.4351 -1.6368
 6225TIP3    H240167   5.844   6.275  16.037  0.3154  0.4163 -0.7887
 6226TIP3   OH240168   4.982   0.474  14.415  0.2452  0.4253 -0.2404
 6226TIP3    H140169   4.888   0.489  14.418  0.2883  0.6205  0.4059
 6226TIP3    H240170   4.996   0.400  14.474  0.6254  1.1903  0.6750
 6227TIP3   OH240171   5.502   2.835   5.863 -0.0362 -0.0662  0.3957
 6227TIP3    H140172   5.441   2.839   5.936  0.9562  0.3994  1.2356
 6227TIP3    H240173   5.525   2.927   5.847  0.4118 -0.2343  0.0667
 6228TIP3   OH240174   1.465   4.322   2.730  0.0517  0.2168  0.7904
 6228TIP3    H140175   1.540   4.302   2.673 -0.0612  1.5682  0.1348
 6228TIP3    H240176   1.456   4.244   2.785  2.2483  0.2016  1.2352
 6229TIP3   OH240177   2.330   0.654   2.538 -0.2541  0.2413 -0.2116
 6229TIP3    H140178   2.412   0.649   2.586 -1.4226  1.1089  2.0430
 6229TIP3    H240179   2.335   0.583   2.474  1.1421 -1.4648  1.6640
 6230TIP3   OH240180   3.781   5.211   1.792  0.3166 -0.0042  0.0049
 6230TIP3    H140181   3.706   5.261   1.822  0.4130  0.7359 -0.9304
 6230TIP3    H240182   3.799   5.245   1.704 -1.9408 -4.2012 -2.3896
 6231TIP3   OH240183   3.630   0.897   1.155 -0.0392 -0.3989  0.3269
 6231TIP3    H140184   3.635   0.844   1.075  0.3259  1.4237 -0.9103
 6231TIP3    H240185   3.721   0.916   1.177 -0.1656 -0.3316  0.8061
 6232TIP3   OH240186   2.848   2.685  16.954 -0.1306  0.0940 -0.0314
 6232TIP3    H140187   2.764   2.732  16.961 -0.7422 -1.0527  0.5715
 6232TIP3    H240188   2.861   2.673  16.860 -1.7312 -1.5559 -0.0989
 6233TIP3   OH240189   4.671   2.618  14.295  0.0564  0.5373 -0.1978
 6233TIP3    H140190   4.661   2.556  14.367  2.0155 -0.5240 -0.7636
 6233TIP3    H240191   4.613   2.691  14.318 -1.2352 -0.8396  1.2043
 6234TIP3   OH240192   6.281   2.088   4.694 -0.2308 -0.4017 -0.5209
 6234TIP3    H140193   6.281   2.183   4.703 -1.8165 -0.4429  0.2579
 6234TIP3    H240194   6.228   2.057   4.767 -0.0857 -1.8655 -1.0013
 6235TIP3   OH240195   5.831   6.801   2.263  0.2844  0.2832 -0.2758
 6235TIP3    H140196   5.844   6.789   2.169  0.8442 -1.0189 -0.0569
 6235TIP3    H240197   5.917   6.828   2.296  1.0197 -2.4328  0.2933
 6236TIP3   OH240198   6.297   3.138  11.572  0.0055  0.0836  0.0254
 6236TIP3    H140199   6.382   3.154  11.530  1.7200 -3.4126  1.7263
 6236TIP3    H240200   6.283   3.215  11.627  2.2163  0.6416 -0.0925
 6237TIP3   OH240201   0.242   1.064  14.208 -0.0503  0.4995  0.1356
 6237TIP3    H140202   0.171   1.091  14.150  0.5705  2.9912  0.4368
 6237TIP3    H240203   0.287   1.145  14.232  1.0981 -0.6710  2.3257
 6238TIP3   OH240204   5.801   4.561  13.235  0.1907 -0.0258  0.1347
 6238TIP3    H140205   5.718   4.583  13.279  0.0949 -0.0351 -0.0416
 6238TIP3    H240206   5.778   4.489  13.176  0.4198 -0.3410  0.4252
 6239TIP3   OH240207   1.827   4.969   4.447 -0.5247 -0.4546  0.0276
 6239TIP3    H140208   1.872   5.024   4.383 -0.1641 -0.5362  0.2132
 6239TIP3    H240209   1.799   4.892   4.398 -0.7538 -0.2569 -0.1607
 6240TIP3   OH240210   6.524   0.288  12.566  0.1242  0.3945  0.2046
 6240TIP3    H140211   6.496   0.243  12.486  2.3130 -2.8048  1.0638
 6240TIP3    H240212   6.465   0.257  12.634 -0.0791  1.0323  0.3266
 6241TIP3   OH240213   5.374   0.569  12.697 -0.9182  0.1215 -0.1438
 6241TIP3    H140214   5.334   0.653  12.674 -1.4251  0.0436  0.4089
 6241TIP3    H240215   5.407   0.582  12.786  0.5606  0.2667 -0.6764
 6242TIP3   OH240216   2.244   0.733   2.971 -0.5474 -0.0877 -0.2993
 6242TIP3    H140217   2.180   0.738   2.900 -0.6797 -0.8304 -0.2386
 6242TIP3    H240218   2.305   0.665   2.943  0.0913  0.4540 -0.2498
 6243TIP3   OH240219   2.110   6.027  11.974  0.1221 -0.1188 -0.1237
 6243TIP3    H140220   2.203   6.003  11.975  0.4349  0.9553  1.1869
 6243TIP3    H240221   2.107   6.107  11.921 -0.3101 -0.9675 -1.4039
 6244TIP3   OH240222   1.745   5.319   0.116  0.3987 -0.3972  0.6692
 6244TIP3    H140223   1.767   5.336   0.024 -1.8187 -0.2426  0.0994
 6244TIP3    H240224   1.750   5.405   0.158  0.5766 -0.3237  0.5017
 6245TIP3   OH240225   2.189   2.957   3.834 -0.0580 -0.5173 -0.5185
 6245TIP3    H140226   2.248   3.013   3.885  1.4164 -1.5930 -0.9660
 6245TIP3    H240227   2.144   3.017   3.775  0.7992  0.3293 -0.3453
 6246TIP3   OH240228   5.442   2.803   0.081 -0.1570 -0.8924 -0.3097
 6246TIP3    H140229   5.447   2.723   0.027 -1.6157 -2.1355  1.2724
 6246TIP3    H240230   5.353   2.801   0.118 -0.1537  1.3885 -0.0553
 6247TIP3   OH240231   4.008   2.483  11.861 -0.0941 -0.1898 -0.0504
 6247TIP3    H140232   4.080   2.465  11.922  0.6303  0.3513 -0.7215
 6247TIP3    H240233   3.947   2.538  11.911 -0.3072 -1.0636  0.6847
 6248TIP3   OH240234   1.632   5.577   2.040 -0.0653  0.3004  0.0291
 6248TIP3    H140235   1.588   5.573   2.125 -0.2872 -0.2028 -0.1080
 6248TIP3    H240236   1.725   5.573   2.061 -0.0749  1.2326  0.3100
 6249TIP3   OH240237   0.817   1.773   2.499  0.1842 -0.3117 -0.4008
 6249TIP3    H140238   0.815   1.827   2.420  1.0907  0.2634 -0.0482
 6249TIP3    H240239   0.895   1.803   2.547  0.3927 -1.5491  0.0767
 6250TIP3   OH240240   6.199   5.490   5.629  0.1353 -0.2418  0.4693
 6250TIP3    H140241   6.246   5.413   5.599  0.8062 -0.2767  1.5228
 6250TIP3    H240242   6.211   5.489   5.724  0.3496  1.2600  0.4835
 6251TIP3   OH240243   0.570   2.758  12.959 -0.2774 -0.4583  0.3494
 6251TIP3    H140244   0.484   2.774  12.920 -0.0697 -0.9149 -0.3136
 6251TIP3    H240245   0.587   2.666  12.941  1.5672  0.2559 -2.0106
 6252TIP3   OH240246   0.093   5.748  16.347  0.1832  0.6947  0.8305
 6252TIP3    H140247   0.107   5.722  16.256 -4.3766 -3.4061  0.9014
 6252TIP3    H240248   0.157   5.698  16.397  0.7869  0.7012  0.0718
 6253TIP3   OH240249   1.411   4.360   2.431  0.1442 -0.3849 -0.1860
 6253TIP3    H140250   1.488   4.406   2.398 -0.1395 -0.3757 -0.8565
 6253TIP3    H240251   1.389   4.405   2.513  1.8816 -1.4917  0.9400
 6254TIP3   OH240252   5.346   3.623  14.045 -0.0567 -0.5874  0.0383
 6254TIP3    H140253   5.437   3.649  14.059 -0.7487  1.6045  0.8347
 6254TIP3    H240254   5.314   3.601  14.132 -0.2069 -1.7532 -0.2961
 6255TIP3   OH240255   5.898   1.744   4.221  0.1222  0.1594 -0.3051
 6255TIP3    H140256   5.829   1.677   4.214 -0.0585  0.3314 -0.1954
 6255TIP3    H240257   5.936   1.729   4.308 -0.1469  0.4154 -0.1415
 6256TIP3   OH240258   4.180   1.305   6.230  0.5530 -0.1217 -0.4495
 6256TIP3    H140259   4.194   1.336   6.320 -1.4539  1.5830 -0.6555
 6256TIP3    H240260   4.136   1.220   6.241  1.5356 -0.5766  0.1431
 6257TIP3   OH240261   4.015   0.270  12.640  0.1125  0.2726 -0.1004
 6257TIP3    H140262   4.105   0.284  12.667  0.3711  0.7587 -1.1544
 6257TIP3    H240263   3.978   0.359  12.631 -0.9590  0.0735  1.8229
 6258TIP3   OH240264   5.322   5.091   1.911  0.1340 -0.0350 -0.2781
 6258TIP3    H140265   5.372   5.160   1.869 -0.2555  0.0505 -0.6157
 6258TIP3    H240266   5.383   5.050   1.972 -0.1905  1.9010  1.4249
 6259TIP3   OH240267   6.744   1.522   4.120  0.6022 -0.7278  0.3407
 6259TIP3    H140268   6.774   1.566   4.041 -0.8522  1.6236  0.9894
 6259TIP3    H240269   6.823   1.511   4.173  1.0906  0.7911 -0.0331
 6260TIP3   OH240270   6.300   6.617  15.852 -0.0253  0.0527 -0.1598
 6260TIP3    H140271   6.226   6.562  15.879  0.0722 -0.1111 -0.2219
 6260TIP3    H240272   6.303   6.687  15.918 -0.5222  0.3216 -0.4179
 6261TIP3   OH240273   4.117   2.615   2.106  0.4496  0.5567 -0.5080
 6261TIP3    H140274   4.139   2.525   2.082 -1.7562 -0.6554  1.4743
 6261TIP3    H240275   4.183   2.640   2.170  2.6110  1.4284 -2.9347
 6262TIP3   OH240276   0.758   4.443  12.253 -0.7026 -0.0005  0.2614
 6262TIP3    H140277   0.716   4.471  12.171  1.4192  0.7228 -0.6533
 6262TIP3    H240278   0.789   4.524  12.293 -1.6165 -0.3598  1.7851
 6263TIP3   OH240279   5.995   6.618  16.821  0.0930 -0.2600  0.0343
 6263TIP3    H140280   6.076   6.569  16.805 -0.3124 -0.9868  0.1328
 6263TIP3    H240281   6.023   6.698  16.864  0.8210 -0.1884 -0.5436
 6264TIP3   OH240282   0.247   6.295   2.904  0.0023  0.0326  0.0248
 6264TIP3    H140283   0.243   6.360   2.834  0.6262 -1.6958 -1.6953
 6264TIP3    H240284   0.157   6.267   2.917 -0.2272  0.9604  0.5537
 6265TIP3   OH240285   3.384   1.853  12.203 -0.0560  0.0757 -0.6468
 6265TIP3    H140286   3.362   1.927  12.145  0.5487  1.4075  0.7626
 6265TIP3    H240287   3.476   1.867  12.226  0.7231 -2.3025 -1.9799
 6266TIP3   OH240288   0.788   6.822  10.634 -0.1611 -0.0210 -0.1296
 6266TIP3    H140289   0.722   6.804  10.701  2.1945  1.6152  2.8357
 6266TIP3    H240290   0.827   6.737  10.614 -0.8280 -0.5160  0.6431
 6267TIP3   OH240291   1.775   0.221   2.550  0.1218  0.2118 -0.0901
 6267TIP3    H140292   1.864   0.255   2.559  0.7935 -1.4219 -0.2608
 6267TIP3    H240293   1.770   0.148   2.612 -0.8724 -0.1517 -0.5648
 6268TIP3   OH240294   3.201   3.251   1.685 -0.4376 -0.5770  0.1327
 6268TIP3    H140295   3.164   3.179   1.634 -1.0656  1.2155 -2.0814
 6268TIP3    H240296   3.128   3.282   1.738 -0.4769 -0.8187  0.2230
 6269TIP3   OH240297   2.116   3.329  15.394  0.1904  0.1454 -0.2424
 6269TIP3    H140298   2.092   3.316  15.302  0.5269 -0.4151 -0.2570
 6269TIP3    H240299   2.103   3.243  15.435 -0.9807  0.6422  0.4765
 6270TIP3   OH240300   3.172   6.653  12.339  0.0332 -0.3832 -0.0741
 6270TIP3    H140301   3.165   6.575  12.284  0.1846  0.9110 -2.0802
 6270TIP3    H240302   3.266   6.673  12.340 -0.0018 -0.2477  0.4315
 6271TIP3   OH240303   0.851   3.565  16.721 -0.2823 -0.7164  0.3777
 6271TIP3    H140304   0.876   3.478  16.689 -2.5145 -0.3513 -2.8566
 6271TIP3    H240305   0.757   3.559  16.734 -0.4729  1.1893  0.1308
 6272TIP3   OH240306   1.503   6.074  17.042 -0.3907  0.0919 -0.2425
 6272TIP3    H140307   1.456   6.155  17.022 -0.0026  0.5845  0.7209
 6272TIP3    H240308   1.457   6.037  17.118  2.0250  1.8306  2.3105
 6273TIP3   OH240309   3.176   2.185   1.210  0.4752  0.2570  0.4313
 6273TIP3    H140310   3.136   2.135   1.139 -1.4589  1.0235  0.9130
 6273TIP3    H240311   3.251   2.132   1.237 -0.8780 -1.8877  0.2478
 6274TIP3   OH240312   6.788   5.722   3.888  0.0817 -0.1412 -0.3836
 6274TIP3    H140313   6.727   5.738   3.816  0.4045  0.7082 -0.4804
 6274TIP3    H240314   6.735   5.732   3.967 -0.8487 -3.3817 -0.4556
 6275TIP3   OH240315   0.753   0.328  12.467  0.0575  0.5020  0.2042
 6275TIP3    H140316   0.663   0.309  12.440  0.1637 -0.2755  0.3530
 6275TIP3    H240317   0.754   0.422  12.484 -0.6127  0.5948 -0.2200
 6276TIP3   OH240318   0.848   4.655  15.044 -0.0789  0.5135 -0.5989
 6276TIP3    H140319   0.895   4.655  14.961 -0.6764 -1.5144 -1.0041
 6276TIP3    H240320   0.758   4.632  15.021 -0.8246  2.2020  0.3915
 6277TIP3   OH240321   5.811   4.474   1.826 -0.6494  0.6379 -0.0755
 6277TIP3    H140322   5.739   4.465   1.888 -1.1041  1.1104 -0.5234
 6277TIP3    H240323   5.803   4.398   1.768  0.3101 -0.2945  0.9532
 6278TIP3   OH240324   6.165   0.698  10.982 -0.2285  0.5218 -0.4030
 6278TIP3    H140325   6.199   0.617  10.947  0.2363  0.6025 -0.1458
 6278TIP3    H240326   6.173   0.761  10.911  0.2566  0.5649 -0.3135
 6279TIP3   OH240327   6.500   3.465   0.866 -0.1190  0.3493  0.4013
 6279TIP3    H140328   6.438   3.466   0.792 -0.4433 -1.3547  0.6131
 6279TIP3    H240329   6.552   3.386   0.852 -0.5951 -0.3438  2.3172
 6280TIP3   OH240330   4.064   2.974   3.445  0.1889  0.2060  0.6588
 6280TIP3    H140331   4.005   2.936   3.380 -0.0525 -1.3178  1.6977
 6280TIP3    H240332   4.146   2.989   3.398 -0.7887  1.7936 -0.6554
 6281TIP3   OH240333   3.626   1.163   6.120 -0.1687 -0.5879 -0.0685
 6281TIP3    H140334   3.574   1.194   6.045  0.6384  0.6388 -0.1472
 6281TIP3    H240335   3.627   1.068   6.110  1.7124 -0.3855 -2.8702
 6282TIP3   OH240336   0.526   6.319   5.463  0.0878  0.1661 -0.4294
 6282TIP3    H140337   0.525   6.378   5.388 -0.1731  0.7069 -0.0057
 6282TIP3    H240338   0.454   6.258   5.446 -1.1794  1.4083  0.2419
 6283TIP3   OH240339   0.546   0.385  12.716  0.5329  0.1722 -0.2515
 6283TIP3    H140340   0.461   0.379  12.672  0.8194 -1.8871 -0.6290
 6283TIP3    H240341   0.557   0.478  12.734 -1.4816  0.5716 -0.8200
 6284TIP3   OH240342   1.415   0.116   3.702  0.3247 -0.0203 -0.0043
 6284TIP3    H140343   1.505   0.088   3.714 -0.1477 -1.4247  0.4667
 6284TIP3    H240344   1.414   0.208   3.728  2.0916  0.7331 -2.2633
 6285TIP3   OH240345   3.725   4.582  12.967 -0.2847 -0.3151  0.2697
 6285TIP3    H140346   3.638   4.606  12.999 -0.2894  0.2571 -0.1587
 6285TIP3    H240347   3.725   4.610  12.875  0.6926  0.5878  0.5393
 6286TIP3   OH240348   0.307   0.061  13.407 -0.3169  0.6324 -0.2501
 6286TIP3    H140349   0.221   0.030  13.435  0.9128 -1.6489  1.3078
 6286TIP3    H240350   0.337   0.119  13.477  0.3303 -0.4361  0.3934
 6287TIP3   OH240351   3.924   5.648  11.819  0.1937 -0.1731  0.2890
 6287TIP3    H140352   3.897   5.723  11.872  1.0194  0.6667 -0.4370
 6287TIP3    H240353   3.860   5.644  11.748  0.2697 -0.0297  0.2132
 6288TIP3   OH240354   3.040   1.692  14.997  0.6645  0.1246  0.0631
 6288TIP3    H140355   3.004   1.775  14.965  0.4278 -0.2255 -0.5871
 6288TIP3    H240356   3.134   1.700  14.981  0.7239  0.5054  0.5576
 6289TIP3   OH240357   5.388   2.131   5.184 -0.3913 -0.1208  0.3277
 6289TIP3    H140358   5.309   2.096   5.225 -0.1364  1.3344  2.2098
 6289TIP3    H240359   5.364   2.220   5.156  0.7809  0.7142  1.8097
 6290TIP3   OH240360   5.790   2.282  16.790  0.0218 -0.1848 -0.2458
 6290TIP3    H140361   5.827   2.194  16.795 -1.4846 -0.7915  0.8155
 6290TIP3    H240362   5.835   2.331  16.858 -0.3131 -0.5981  0.2737
 6291TIP3   OH240363   1.967   3.833   3.080 -0.3496 -0.5055  0.2263
 6291TIP3    H140364   1.972   3.801   2.990 -1.1992 -1.0137  0.3487
 6291TIP3    H240365   1.873   3.840   3.097 -0.1864  0.3948  0.7960
 6292TIP3   OH240366   2.176   2.841  13.078 -0.1119 -0.0730  0.0562
 6292TIP3    H140367   2.260   2.815  13.117  0.0974 -3.5170 -2.3440
 6292TIP3    H240368   2.157   2.926  13.119  3.2345 -0.3335  2.5978
 6293TIP3   OH240369   4.018   0.779   3.827  0.0179  0.2333  0.2887
 6293TIP3    H140370   4.009   0.850   3.890 -0.4504  0.2447  0.2116
 6293TIP3    H240371   4.108   0.785   3.796 -0.7213  2.4466 -1.6743
 6294TIP3   OH240372   2.106   3.105   1.694  0.2863  0.6508 -0.5193
 6294TIP3    H140373   2.071   3.034   1.748  0.4127  1.3845  0.5762
 6294TIP3    H240374   2.135   3.063   1.613  1.0352 -0.6562  0.3962
 6295TIP3   OH240375   0.896   5.867  14.095  0.0346 -0.4445 -0.3123
 6295TIP3    H140376   0.887   5.790  14.040 -1.1086 -0.8080  0.3548
 6295TIP3    H240377   0.923   5.937  14.035 -0.8496 -0.9128 -1.2739
 6296TIP3   OH240378   0.784   2.415   5.494  0.0845 -0.1672 -0.5507
 6296TIP3    H140379   0.873   2.424   5.461 -0.0099  1.0232 -0.5198
 6296TIP3    H240380   0.780   2.474   5.569 -1.0724  0.7418 -1.2883
 6297TIP3   OH240381   2.589   1.869  15.588  0.1698 -0.2676  0.0986
 6297TIP3    H140382   2.502   1.845  15.557  0.3807  0.0652 -0.8137
 6297TIP3    H240383   2.579   1.958  15.623  0.0802 -0.3529  0.2895
 6298TIP3   OH240384   1.772   3.553   0.634 -0.0299 -0.0836  0.0058
 6298TIP3    H140385   1.791   3.465   0.603  0.3660  0.0973 -0.2728
 6298TIP3    H240386   1.741   3.541   0.724 -1.3600 -0.6235 -0.5133
 6299TIP3   OH240387   1.294   5.907   3.482 -0.3317  0.0251  0.1551
 6299TIP3    H140388   1.340   5.957   3.550  0.1712 -0.1991 -0.0130
 6299TIP3    H240389   1.236   5.971   3.441 -1.0377  0.0455  1.1297
 6300TIP3   OH240390   6.252   1.700   4.824  0.0406  0.2859  0.0778
 6300TIP3    H140391   6.230   1.655   4.742 -1.0969  2.0434 -0.6467
 6300TIP3    H240392   6.182   1.765   4.835  0.2643  0.2268  2.3737
 6301TIP3   OH240393   1.137   0.013  16.380  0.4056  0.0918 -0.2097
 6301TIP3    H140394   1.140  -0.027  16.293  2.4097 -1.9121  0.6676
 6301TIP3    H240395   1.220   0.059  16.388  1.6508 -2.2685  1.6430
 6302TIP3   OH240396   3.983   3.351  11.398  0.0026  0.0402 -0.2118
 6302TIP3    H140397   4.070   3.392  11.394 -1.1213  2.7833  0.9431
 6302TIP3    H240398   3.943   3.374  11.314  0.8181 -2.5150 -1.3951
 6303TIP3   OH240399   4.952   0.267  12.278 -0.1262  0.7075 -0.4300
 6303TIP3    H140400   4.907   0.334  12.227 -1.9959 -0.2789 -0.1461
 6303TIP3    H240401   5.044   0.276  12.253 -0.8268  0.9249 -3.2015
 6304TIP3   OH240402   5.233   5.336  16.025  0.1835  0.2631 -0.3552
 6304TIP3    H140403   5.288   5.350  15.948  0.2335 -0.5103 -0.4653
 6304TIP3    H240404   5.161   5.282  15.993 -1.5714  2.6119 -0.6110
 6305TIP3   OH240405   3.682   0.912  16.485  0.0240 -0.7441  0.0747
 6305TIP3    H140406   3.682   0.833  16.431  1.2489  0.5494 -1.9197
 6305TIP3    H240407   3.590   0.940  16.485 -0.4528 -2.1320  0.8933
 6306TIP3   OH240408   0.898   0.123  14.368  0.1548  1.0126  0.6274
 6306TIP3    H140409   0.927   0.036  14.343 -1.8674  0.0743  1.3339
 6306TIP3    H240410   0.864   0.162  14.287 -1.5063  0.0300  0.8142
 6307TIP3   OH240411   6.230   5.230  16.033 -0.1793 -0.0946 -0.0919
 6307TIP3    H140412   6.221   5.269  16.120  2.3774 -1.6522  0.9801
 6307TIP3    H240413   6.297   5.283  15.990  0.1857 -0.6886 -0.2552
 6308TIP3   OH240414   3.234   2.115  15.200 -0.5589 -0.0155  0.3426
 6308TIP3    H140415   3.268   2.166  15.273  1.2432 -0.5246 -0.0842
 6308TIP3    H240416   3.299   2.046  15.186 -1.2374 -0.4003 -1.2454
 6309TIP3   OH240417   5.966   0.879  11.586  0.4655  0.2535 -0.2705
 6309TIP3    H140418   5.981   0.867  11.680 -0.3407  0.9565 -0.0392
 6309TIP3    H240419   5.898   0.815  11.564  0.8789 -0.1299 -0.4498
 6310TIP3   OH240420   1.760   2.203   1.413  0.2540  0.6186  0.1714
 6310TIP3    H140421   1.810   2.122   1.410  1.1950  1.1391  0.9482
 6310TIP3    H240422   1.761   2.235   1.322 -1.2830 -0.8728 -0.4233
 6311TIP3   OH240423   3.189   2.526  16.213  0.3150 -0.0735  0.1750
 6311TIP3    H140424   3.155   2.440  16.238 -0.1479  0.1211  0.2454
 6311TIP3    H240425   3.282   2.523  16.233  0.2221 -0.4203  0.5629
 6312TIP3   OH240426   5.362   1.746   1.035  0.3029  0.0779  0.7224
 6312TIP3    H140427   5.391   1.661   1.001  2.8829  0.2610  2.2252
 6312TIP3    H240428   5.379   1.808   0.964  0.4428 -0.3340  0.3937
 6313TIP3   OH240429   4.601   4.016   0.007  0.3398 -0.6269  0.0743
 6313TIP3    H140430   4.552   4.052  -0.067  1.7603  1.2124 -0.0502
 6313TIP3    H240431   4.580   4.075   0.080  0.3887 -1.3294  0.6602
 6314TIP3   OH240432   1.560   4.676  11.232 -0.7379  0.4134  0.4162
 6314TIP3    H140433   1.579   4.735  11.158 -0.0217 -1.4591 -0.9651
 6314TIP3    H240434   1.626   4.697  11.297  1.0834 -0.4483 -1.0527
 6315TIP3   OH240435   1.528   0.316  12.262  0.2634 -0.0447  0.0586
 6315TIP3    H140436   1.462   0.350  12.202  1.6404 -2.0233 -2.8077
 6315TIP3    H240437   1.486   0.320  12.348 -3.2071 -0.2595 -1.4509
 6316TIP3   OH240438   6.505   0.262   0.223 -0.2183 -0.7247 -0.0269
 6316TIP3    H140439   6.549   0.344   0.200 -0.3734 -0.6649 -0.1090
 6316TIP3    H240440   6.549   0.195   0.170 -0.1217 -0.6886  0.0073
 6317TIP3   OH240441   3.381   0.940  11.640  0.3091  0.1991  0.7029
 6317TIP3    H140442   3.418   0.919  11.726  0.4595 -0.6073  0.4480
 6317TIP3    H240443   3.448   0.914  11.578  0.2096  0.8026  0.3312
 6318TIP3   OH240444   1.163   4.082  15.806 -0.1750  0.1107  0.8840
 6318TIP3    H140445   1.209   3.998  15.805  3.0430  1.7152 -0.1059
 6318TIP3    H240446   1.178   4.117  15.893 -0.5262  0.1540  0.9277
 6319TIP3   OH240447   4.834   3.546   3.589  0.7631  0.0793 -0.0566
 6319TIP3    H140448   4.929   3.539   3.600  0.9208  1.5880 -0.1741
 6319TIP3    H240449   4.823   3.609   3.518 -0.3365 -2.1551 -1.9741
 6320TIP3   OH240450   5.811   2.660   5.550  0.0404 -0.1340  0.2791
 6320TIP3    H140451   5.745   2.629   5.488 -0.4546 -0.0036  0.7352
 6320TIP3    H240452   5.889   2.608   5.530  0.1661  0.5143 -1.0392
 6321TIP3   OH240453   4.892   4.102  11.152  0.4001  0.0716 -0.1390
 6321TIP3    H140454   4.841   4.052  11.088  0.6175  1.2720 -1.3000
 6321TIP3    H240455   4.982   4.072  11.141  0.1792 -1.1324  1.0248
 6322TIP3   OH240456   1.721   4.795   5.344  0.1381  0.0172 -0.2941
 6322TIP3    H140457   1.722   4.734   5.418  0.3522 -0.7626 -0.9352
 6322TIP3    H240458   1.670   4.751   5.276 -0.5666  0.9833 -0.4139
 6323TIP3   OH240459   0.920   3.653  15.566  0.0097 -0.1620 -0.1517
 6323TIP3    H140460   0.946   3.613  15.482 -0.5123 -0.5843 -0.1150
 6323TIP3    H240461   1.000   3.695  15.597 -0.4556  2.6770 -2.3423
 6324TIP3   OH240462   0.415   2.661  14.543 -0.0005  0.4302 -0.2034
 6324TIP3    H140463   0.382   2.722  14.478  0.2337  0.7644 -0.0122
 6324TIP3    H240464   0.358   2.584  14.535  0.3842  0.2420 -1.1884
 6325TIP3   OH240465   0.655   2.511   0.671 -0.5031  0.5026 -0.1208
 6325TIP3    H140466   0.607   2.446   0.620  1.2433 -1.2058  0.3116
 6325TIP3    H240467   0.587   2.565   0.712 -2.1698 -2.4761  1.3570
 6326TIP3   OH240468   0.291   5.355  15.715 -0.0600  0.0520  0.5131
 6326TIP3    H140469   0.258   5.337  15.627  1.1766  1.0818 -0.2076
 6326TIP3    H240470   0.325   5.271  15.746  1.4758  0.0921 -0.9112
 6327TIP3   OH240471   1.631   3.716  12.040  0.5013  0.5711 -0.2592
 6327TIP3    H140472   1.654   3.665  11.962  0.1020 -2.2886  1.3354
 6327TIP3    H240473   1.714   3.729  12.086  0.3402 -1.0059  0.5729
 6328TIP3   OH240474   5.035   1.806  11.992  0.0010  0.3549 -0.0446
 6328TIP3    H140475   5.005   1.889  11.956 -0.8929 -0.3687 -1.0190
 6328TIP3    H240476   5.039   1.821  12.087  2.3631  2.2751 -0.3588
 6329TIP3   OH240477   1.831   0.886  14.424 -0.1144  0.0810  0.2610
 6329TIP3    H140478   1.908   0.831  14.413  0.1377  0.4821  0.0104
 6329TIP3    H240479   1.820   0.894  14.519 -0.6137 -1.0326  0.3207
 6330TIP3   OH240480   2.966   4.902  14.541 -0.2512 -0.0852 -0.5014
 6330TIP3    H140481   2.953   4.900  14.636 -1.3119 -0.9777 -0.6434
 6330TIP3    H240482   2.881   4.878  14.504 -0.6769  2.9049 -1.7761
 6331TIP3   OH240483   0.672   5.046   1.453 -0.1066 -0.2113 -0.3051
 6331TIP3    H140484   0.644   5.063   1.363  0.9876  0.0374 -0.6258
 6331TIP3    H240485   0.751   5.100   1.463  0.2825 -0.9198  0.5150
 6332TIP3   OH240486   6.844   4.246  16.667 -0.5272 -0.4409  0.0547
 6332TIP3    H140487   6.926   4.231  16.714  0.9248  2.7384 -1.1765
 6332TIP3    H240488   6.789   4.291  16.731 -0.8573 -1.4202  0.4795
 6333TIP3   OH240489   5.222   0.930  15.419 -0.0226 -0.5560  0.2792
 6333TIP3    H140490   5.296   0.894  15.469  2.1654 -0.4595 -2.6393
 6333TIP3    H240491   5.174   0.854  15.388  0.8404 -0.7670 -0.5715
 6334TIP3   OH240492   0.110   5.407  11.309  0.0204 -0.0013 -0.2988
 6334TIP3    H140493   0.086   5.395  11.217  1.0768 -1.4853 -0.4085
 6334TIP3    H240494   0.194   5.452  11.307 -0.4204  0.8589 -0.0186
 6335TIP3   OH240495   2.057   4.726  13.648  0.2925  0.0437  0.2949
 6335TIP3    H140496   2.002   4.650  13.634  0.0858 -0.0584  1.5132
 6335TIP3    H240497   2.130   4.694  13.701 -0.6196  0.9458  2.2316
 6336TIP3   OH240498   0.960   1.974   3.031  0.1235 -0.4481 -0.3854
 6336TIP3    H140499   0.947   1.951   3.123 -1.0271 -1.1421 -0.6997
 6336TIP3    H240500   0.872   1.968   2.993  0.5342  0.1886 -1.4518
 6337TIP3   OH240501   0.182   1.379   3.101  0.1980  0.3805 -0.1041
 6337TIP3    H140502   0.269   1.378   3.139 -0.5353 -2.2242  1.8256
 6337TIP3    H240503   0.132   1.438   3.158  0.2985  0.5342 -0.1743
 6338TIP3   OH240504   2.857   5.238   3.902  0.0645  0.9132  0.0527
 6338TIP3    H140505   2.950   5.249   3.918 -0.1454  1.3759  1.0403
 6338TIP3    H240506   2.833   5.158   3.950  0.2690 -0.1829 -1.6005
 6339TIP3   OH240507   3.855   6.504   0.624 -0.3340  0.1376 -0.2813
 6339TIP3    H140508   3.854   6.521   0.530 -0.9015  0.3418 -0.2476
 6339TIP3    H240509   3.765   6.524   0.652 -0.6776 -1.6400 -0.0028
 6340TIP3   OH240510   4.221   6.013  16.382  0.2581 -0.1857  0.6479
 6340TIP3    H140511   4.182   5.977  16.302  1.1451 -0.1120  0.1728
 6340TIP3    H240512   4.208   5.944  16.448  0.0928 -0.5069  0.2853
 6341TIP3   OH240513   5.851   0.776  12.124 -0.5312  0.3534 -0.1432
 6341TIP3    H140514   5.903   0.854  12.104  0.0296  0.4885  1.6141
 6341TIP3    H240515   5.760   0.806  12.117 -0.3348  1.6174  1.8846
 6342TIP3   OH240516   5.609   6.298  10.503 -0.5218 -0.6494 -0.2588
 6342TIP3    H140517   5.532   6.345  10.471  0.0352 -0.1553 -0.9106
 6342TIP3    H240518   5.594   6.207  10.478 -1.2731 -0.7059  0.3653
 6343TIP3   OH240519   4.097   3.747   2.380 -0.3147  0.1777 -0.4390
 6343TIP3    H140520   4.152   3.786   2.448 -0.0129 -0.6608 -0.1830
 6343TIP3    H240521   4.037   3.690   2.428  0.0823 -0.6295 -0.8899
 6344TIP3   OH240522   2.180   6.169  11.519  0.1784  0.2161 -0.2162
 6344TIP3    H140523   2.190   6.127  11.604 -0.4013  1.5091  0.5217
 6344TIP3    H240524   2.089   6.153  11.495  0.9730 -2.4754 -1.9364
 6345TIP3   OH240525   2.406   3.023   4.692  0.4317  0.1662  0.3809
 6345TIP3    H140526   2.331   3.044   4.748  1.2546 -1.0912  2.0314
 6345TIP3    H240527   2.394   2.930   4.670  1.4535 -0.0299  0.6066
 6346TIP3   OH240528   3.721   3.799  14.848  0.1505  0.2974 -0.0355
 6346TIP3    H140529   3.699   3.876  14.900 -0.0722 -0.2137  0.6413
 6346TIP3    H240530   3.662   3.731  14.880  1.5718 -0.6540  0.6579
 6347TIP3   OH240531   3.331   2.288  13.642 -0.5391  0.0633 -0.5672
 6347TIP3    H140532   3.276   2.273  13.719 -0.4215 -0.0697 -0.5082
 6347TIP3    H240533   3.309   2.376  13.613  0.2973  0.5959  0.3425
 6348TIP3   OH240534   3.457   4.448   5.516 -0.2678  0.0249 -0.2271
 6348TIP3    H140535   3.366   4.447   5.546 -0.9574  0.6399 -2.1502
 6348TIP3    H240536   3.501   4.508   5.576 -1.3649  0.5130  0.1133
 6349TIP3   OH240537   3.791   2.003  11.387 -0.0186 -0.2752 -0.2180
 6349TIP3    H140538   3.838   1.943  11.329  2.5880 -1.0942  2.4586
 6349TIP3    H240539   3.745   1.947  11.448 -0.1234  0.4887  0.4233
 6350TIP3   OH240540   6.596   2.300  14.615 -0.1595 -0.0454  0.2295
 6350TIP3    H140541   6.574   2.392  14.601  0.8489 -0.0291 -1.6330
 6350TIP3    H240542   6.612   2.293  14.709 -1.7688  1.3076  0.6480
 6351TIP3   OH240543   2.010   3.464  12.490  0.6069 -0.0140  0.1382
 6351TIP3    H140544   1.985   3.532  12.552 -0.9492  0.9838 -1.4688
 6351TIP3    H240545   1.946   3.394  12.504 -0.1821  0.5041 -0.7491
 6352TIP3   OH240546   3.073   5.834   2.129  0.3329 -0.4167  0.0423
 6352TIP3    H140547   3.124   5.762   2.165  2.7387  0.6312 -1.0080
 6352TIP3    H240548   3.120   5.858   2.049 -2.7228 -0.3164 -1.8559
 6353TIP3   OH240549   0.529   6.486   0.286  0.0161  0.4547  0.0781
 6353TIP3    H140550   0.607   6.438   0.317 -0.2082  0.7174  1.0642
 6353TIP3    H240551   0.549   6.578   0.303 -1.3078  0.3983  2.2321
 6354TIP3   OH240552   4.518   2.791  10.603  0.0856  0.0767  0.0320
 6354TIP3    H140553   4.595   2.844  10.626 -0.2107 -0.0331  1.3673
 6354TIP3    H240554   4.514   2.725  10.672 -0.9401 -0.1989 -0.2855
 6355TIP3   OH240555   6.761   5.237  11.646  0.1064 -0.2039  1.0077
 6355TIP3    H140556   6.699   5.247  11.718 -2.6508  1.2556 -1.3472
 6355TIP3    H240557   6.722   5.171  11.590  1.5444 -0.4173  0.2163
 6356TIP3   OH240558   3.000   3.041   5.775 -0.3039  0.3512  0.1646
 6356TIP3    H140559   3.015   3.117   5.719 -0.2102  2.7682  3.2458
 6356TIP3    H240560   3.080   3.033   5.827 -0.2442 -2.0568 -0.1513
 6357TIP3   OH240561   3.963   2.630   0.305  0.0624 -0.0457  0.2848
 6357TIP3    H140562   3.887   2.687   0.294 -1.3514 -1.6690  1.1264
 6357TIP3    H240563   3.926   2.545   0.329  2.1328 -1.0476  0.1602
 6358TIP3   OH240564   6.588   6.704  12.220  0.1424 -1.2552  0.1228
 6358TIP3    H140565   6.580   6.675  12.129  1.8258 -0.3172 -0.3757
 6358TIP3    H240566   6.683   6.709  12.235 -0.0291  1.6080  0.8794
 6359TIP3   OH240567   5.611   1.037  11.476  0.3841  0.4665  0.2468
 6359TIP3    H140568   5.639   1.002  11.391  0.4204  0.0873  0.4139
 6359TIP3    H240569   5.527   1.080  11.457 -0.4363 -1.0200  0.3126
 6360TIP3   OH240570   6.558   4.071  12.104 -0.2583 -0.1029  0.4673
 6360TIP3    H140571   6.493   4.002  12.089 -1.3790  1.0833 -0.3471
 6360TIP3    H240572   6.577   4.106  12.016 -1.9161  2.5378  1.0592
 6361TIP3   OH240573   3.997   6.635   5.100  0.8548  0.2217 -0.1401
 6361TIP3    H140574   3.949   6.717   5.091 -0.2407 -0.1031  2.1109
 6361TIP3    H240575   4.086   6.662   5.123  0.3286  0.8198  1.3069
 6362TIP3   OH240576   5.231   3.030   1.915  0.5977 -0.6349  0.4089
 6362TIP3    H140577   5.157   2.969   1.920  0.8070 -0.8675  0.6692
 6362TIP3    H240578   5.190   3.117   1.908  0.2978 -0.8268 -0.2830
 6363TIP3   OH240579   6.697   6.027  11.455  0.8408 -0.1369  0.3169
 6363TIP3    H140580   6.737   5.949  11.493  1.6897 -0.5045 -1.2395
 6363TIP3    H240581   6.770   6.082  11.429  0.2770  0.4495 -0.0733
 6364TIP3   OH240582   1.341   3.648   5.115 -0.0168 -0.1464 -0.2472
 6364TIP3    H140583   1.351   3.554   5.128  0.1087 -0.3176 -1.4673
 6364TIP3    H240584   1.247   3.660   5.099  0.2161 -0.3266 -1.8884
 6365TIP3   OH240585   0.285   3.220   2.506 -0.2393  0.1856 -0.3226
 6365TIP3    H140586   0.271   3.126   2.520 -0.2864 -0.1091 -2.0239
 6365TIP3    H240587   0.265   3.233   2.413  0.5582  1.7388 -0.3136
 6366TIP3   OH240588   3.641   3.966   0.309 -0.1268  0.3100 -0.3051
 6366TIP3    H140589   3.602   3.887   0.345  0.4962 -0.2817 -0.8944
 6366TIP3    H240590   3.587   3.986   0.232 -0.0809  0.2551 -0.3524
 6367TIP3   OH240591   4.059   3.199   0.468  0.1793 -0.1366  0.1728
 6367TIP3    H140592   3.986   3.244   0.510 -0.4644 -0.5312 -0.5045
 6367TIP3    H240593   4.018   3.140   0.405  1.1030  1.2816 -1.9052
 6368TIP3   OH240594   3.906   2.318  13.160  0.7522 -0.0753 -0.4985
 6368TIP3    H140595   3.847   2.279  13.225 -1.3592  0.2055 -2.1471
 6368TIP3    H240596   3.923   2.246  13.099 -0.1875  0.5620 -1.5423
 6369TIP3   OH240597   2.675   5.675   2.147 -0.2149 -0.2868 -0.6574
 6369TIP3    H140598   2.706   5.619   2.076 -1.1671 -1.2909 -0.3204
 6369TIP3    H240599   2.752   5.691   2.201  0.2192 -0.6784 -1.1538
 6370TIP3   OH240600   2.581   1.505  14.725 -0.2141 -0.0843  0.2265
 6370TIP3    H140601   2.619   1.492  14.811  0.1994  1.6956  0.3490
 6370TIP3    H240602   2.534   1.589  14.732 -4.2007 -2.0595  0.0928
 6371TIP3   OH240603   0.578   4.653  16.114  0.5304 -0.1839 -0.2617
 6371TIP3    H140604   0.644   4.703  16.161 -0.0622 -0.7642  1.2549
 6371TIP3    H240605   0.526   4.719  16.067  2.7087  0.2182 -2.2918
 6372TIP3   OH240606   4.729   6.431   2.768  0.5848  0.2915  0.0663
 6372TIP3    H140607   4.775   6.422   2.852  0.9054  2.2208  0.1469
 6372TIP3    H240608   4.788   6.484   2.714 -0.2112  0.1956 -0.9207
 6373TIP3   OH240609   3.617   2.824  14.681 -0.2388 -0.3963  0.4648
 6373TIP3    H140610   3.532   2.827  14.636 -0.6736 -0.4611  1.2608
 6373TIP3    H240611   3.678   2.866  14.620 -1.2741  1.7384  0.8022
 6374TIP3   OH240612   4.153   3.141   2.298 -0.1842  0.0997  0.2587
 6374TIP3    H140613   4.085   3.159   2.233  0.3178  2.1348  0.2143
 6374TIP3    H240614   4.206   3.072   2.258 -1.6088 -0.8003 -0.1447
 6375TIP3   OH240615   1.418   2.033  14.117  0.1370 -0.3912  0.3324
 6375TIP3    H140616   1.497   2.062  14.164 -0.2725 -0.4007  1.0447
 6375TIP3    H240617   1.346   2.055  14.176 -0.2171 -2.8444  0.9427
 6376TIP3   OH240618   6.325   6.255   5.169 -0.1851 -0.9524 -0.0995
 6376TIP3    H140619   6.348   6.224   5.257  1.2598 -0.4547 -0.2922
 6376TIP3    H240620   6.315   6.349   5.179 -2.5717 -1.1576  0.0436
 6377TIP3   OH240621   3.215   5.834  10.537 -0.1046  0.5413  0.0479
 6377TIP3    H140622   3.306   5.828  10.565  0.1935 -1.9307 -1.2366
 6377TIP3    H240623   3.171   5.761  10.581 -1.4262  1.4652  0.3428
 6378TIP3   OH240624   4.830   6.706  12.176  0.2875  0.3698 -0.0838
 6378TIP3    H140625   4.750   6.657  12.195  0.9776 -0.7237  0.0798
 6378TIP3    H240626   4.815   6.792  12.215 -1.9288  1.1706 -2.3893
 6379TIP3   OH240627   0.369   0.916  14.743  0.7647  0.5885 -0.8518
 6379TIP3    H140628   0.433   0.902  14.813  0.0822 -1.0453 -0.4983
 6379TIP3    H240629   0.421   0.941  14.667  1.8225 -0.4727 -0.5054
 6380TIP3   OH240630   5.021   5.780  11.210 -0.2941  0.4979  0.1372
 6380TIP3    H140631   4.928   5.771  11.188 -0.1789 -0.1644 -0.1098
 6380TIP3    H240632   5.044   5.868  11.180 -0.4924  0.1373 -1.1025
 6381TIP3   OH240633   3.757   3.480   0.114 -0.3953 -0.2166 -0.5151
 6381TIP3    H140634   3.823   3.446   0.054 -0.8083 -0.4983 -0.8184
 6381TIP3    H240635   3.748   3.413   0.181  3.6341  2.0762  2.7991
 6382TIP3   OH240636   0.789   5.837   3.814  0.2136 -0.1202  0.4717
 6382TIP3    H140637   0.727   5.910   3.814 -0.1871 -0.4435  1.3828
 6382TIP3    H240638   0.779   5.797   3.728 -1.2000 -0.4430  0.7546
 6383TIP3   OH240639   0.340   0.119  14.322 -0.0286 -0.5400 -0.4884
 6383TIP3    H140640   0.337   0.190  14.257  0.1836  0.9134  1.0095
 6383TIP3    H240641   0.380   0.046  14.275 -0.3396  0.2702 -2.1288
 6384TIP3   OH240642   0.233   1.943  12.993 -0.2415 -0.2832 -0.0132
 6384TIP3    H140643   0.249   1.920  13.085  0.3641  0.7217  0.1520
 6384TIP3    H240644   0.138   1.946  12.985 -0.2966  0.1098  0.7075
 6385TIP3   OH240645   0.601   4.481   4.489  0.1840  0.2708  0.2260
 6385TIP3    H140646   0.684   4.521   4.464 -0.5920  0.8513 -1.6103
 6385TIP3    H240647   0.547   4.555   4.520  0.8025 -0.3057  2.9229
 6386TIP3   OH240648   2.440   6.087  12.238  0.1714 -0.0257 -0.5349
 6386TIP3    H140649   2.510   6.045  12.289 -0.0746  1.1152  0.8133
 6386TIP3    H240650   2.389   6.135  12.303 -1.0223  0.3240 -1.6931
 6387TIP3   OH240651   2.394   0.773   1.848 -0.2792 -0.4642  0.1493
 6387TIP3    H140652   2.469   0.721   1.877 -0.8420 -0.5008  1.6835
 6387TIP3    H240653   2.363   0.730   1.769  0.7456 -1.0041  0.0341
 6388TIP3   OH240654   6.012   1.135  11.438 -0.3096  0.0099  0.5363
 6388TIP3    H140655   6.038   1.046  11.462 -0.4265 -0.0932  0.2861
 6388TIP3    H240656   6.094   1.183  11.432 -0.0915 -0.4920 -0.9695
 6389TIP3   OH240657   0.734   0.835  15.582 -0.1876  0.0712  0.6376
 6389TIP3    H140658   0.643   0.844  15.551 -0.4478 -2.2205  0.6053
 6389TIP3    H240659   0.744   0.742  15.602  2.0142  0.3675  1.1703
 6390TIP3   OH240660   1.613   2.596   3.100  0.8558  0.1099  0.0478
 6390TIP3    H140661   1.658   2.625   3.021 -0.0441  1.1681 -0.1068
 6390TIP3    H240662   1.551   2.666   3.119 -2.4334 -2.2439 -1.1022
 6391TIP3   OH240663   0.026   4.032   2.148  0.1459  0.5116 -0.5473
 6391TIP3    H140664   0.091   4.035   2.218  0.9005 -1.2596 -1.0997
 6391TIP3    H240665   0.029   3.941   2.117 -1.3703  0.8318 -1.7454
 6392TIP3   OH240666   5.606   6.636  12.264 -0.1606 -0.0280  0.6003
 6392TIP3    H140667   5.584   6.721  12.226  0.6530 -0.3255 -0.6108
 6392TIP3    H240668   5.696   6.647  12.296 -0.0798 -0.4013  0.5094
 6393TIP3   OH240669   3.026   5.618  14.784  0.2390  0.2733  0.6675
 6393TIP3    H140670   2.967   5.690  14.761  0.9994  0.9473  0.7794
 6393TIP3    H240671   3.108   5.661  14.805  1.7024 -0.7618 -2.3309
 6394TIP3   OH240672   1.274   6.376  12.359 -0.2828  0.4220 -0.5511
 6394TIP3    H140673   1.257   6.461  12.400 -0.5035  0.1044  0.0286
 6394TIP3    H240674   1.207   6.369  12.291  0.2294  1.0533 -1.1292
 6395TIP3   OH240675   5.486   5.335   0.629 -0.1417 -0.2691 -0.1263
 6395TIP3    H140676   5.494   5.240   0.620 -2.0492 -0.5487  0.6413
 6395TIP3    H240677   5.418   5.348   0.695  0.9303  1.6586  0.7052
 6396TIP3   OH240678   1.738   3.540  14.918 -0.0748  0.1500  0.2880
 6396TIP3    H140679   1.745   3.461  14.865  1.7085 -0.0411  0.7567
 6396TIP3    H240680   1.671   3.593  14.873  1.3996  0.0428 -2.2031
 6397TIP3   OH240681   4.137   0.898  11.507 -0.1522 -0.5836  0.0464
 6397TIP3    H140682   4.159   0.805  11.506  1.1085 -0.3032 -1.0580
 6397TIP3    H240683   4.199   0.937  11.568 -0.7493 -0.4619  0.5909
 6398TIP3   OH240684   3.916   2.735   1.381 -0.6999 -0.2532 -0.1385
 6398TIP3    H140685   3.890   2.787   1.456 -0.5531 -0.3250 -0.0368
 6398TIP3    H240686   3.967   2.663   1.418 -0.3109 -0.0848 -0.3363
 6399TIP3   OH240687   5.290   1.356  12.655 -0.1938 -0.2170  0.1067
 6399TIP3    H140688   5.351   1.287  12.682  1.4401  2.1993  3.2567
 6399TIP3    H240689   5.320   1.380  12.568  0.6881 -1.8670 -0.1063
 6400TIP3   OH240690   3.678   2.409   4.347 -0.1318 -0.2380  0.3188
 6400TIP3    H140691   3.662   2.417   4.441 -0.7284 -0.4773  0.2385
 6400TIP3    H240692   3.735   2.333   4.339 -0.2453 -0.3385  0.4653
 6401TIP3   OH240693   1.086   1.401   4.839  0.5469  0.6849  1.1803
 6401TIP3    H140694   1.094   1.391   4.744  1.5213  0.1868  1.3007
 6401TIP3    H240695   0.993   1.388   4.857  0.4150  0.3985  0.3428
 6402TIP3   OH240696   1.411   4.405   4.556 -0.1112  0.3016  0.1272
 6402TIP3    H140697   1.384   4.367   4.473  1.8413 -0.1558 -0.3448
 6402TIP3    H240698   1.418   4.499   4.539 -2.7368  0.6860  0.6868
 6403TIP3   OH240699   6.761   3.469   4.114 -0.3266 -0.1849  0.2551
 6403TIP3    H140700   6.684   3.452   4.169 -0.1257 -0.3298  0.4957
 6403TIP3    H240701   6.829   3.413   4.151  0.2670  0.9033  0.8666
 6404TIP3   OH240702   6.771   3.881   2.887 -0.3556  0.3070  1.1156
 6404TIP3    H140703   6.762   3.846   2.798 -0.0365  0.2106  1.1211
 6404TIP3    H240704   6.740   3.972   2.880 -0.1040  0.3758  0.8496
 6405TIP3   OH240705   6.032   6.690   5.416 -0.3420  0.5190  0.3621
 6405TIP3    H140706   6.098   6.706   5.348 -1.4721  0.2007 -0.8328
 6405TIP3    H240707   6.074   6.721   5.497  0.7923  1.4966 -0.5549
 6406TIP3   OH240708   3.708   6.232   6.094 -0.3348 -0.0533 -0.3431
 6406TIP3    H140709   3.718   6.140   6.120 -1.5258  0.2115  1.2074
 6406TIP3    H240710   3.617   6.239   6.065 -0.5241  0.8149  0.4078
 6407TIP3   OH240711   4.554   5.956   4.569 -0.4143  0.4697 -0.2578
 6407TIP3    H140712   4.539   5.876   4.619  0.5949  1.1229  1.1410
 6407TIP3    H240713   4.478   5.962   4.511 -0.3201 -1.6913 -0.6912
 6408TIP3   OH240714   5.181   4.404   0.440 -0.0417 -0.2178  0.1217
 6408TIP3    H140715   5.183   4.381   0.533  0.3307 -2.3493 -0.3430
 6408TIP3    H240716   5.272   4.423   0.418 -0.2167  0.8584  0.3067
 6409TIP3   OH240717   1.455   6.418  11.078 -0.6120 -0.5701 -0.4941
 6409TIP3    H140718   1.468   6.324  11.065  0.9764 -0.5409  0.5476
 6409TIP3    H240719   1.436   6.452  10.991 -3.5250 -2.1381 -0.5732
 6410TIP3   OH240720   2.635   5.232  13.211 -0.4491 -0.0234 -0.5831
 6410TIP3    H140721   2.640   5.216  13.305 -1.6291 -1.0117 -0.6680
 6410TIP3    H240722   2.717   5.195  13.176 -0.4974 -0.6368 -0.0662
 6411TIP3   OH240723   5.043   1.496   4.002  0.2618 -0.0128  0.0416
 6411TIP3    H140724   5.050   1.407   4.036  1.5184 -0.3933 -1.1392
 6411TIP3    H240725   5.036   1.485   3.907  1.0199  1.1597 -0.1700
 6412TIP3   OH240726   0.059   3.681   4.285 -0.4508  0.2852  0.2820
 6412TIP3    H140727  -0.033   3.707   4.281 -0.6411 -0.1941  1.4019
 6412TIP3    H240728   0.094   3.704   4.198 -1.9473 -0.8034 -0.6507
 6413TIP3   OH240729   0.366   2.208   1.714 -0.6474  0.4624  0.2660
 6413TIP3    H140730   0.317   2.275   1.667  2.0510  2.5890  0.3073
 6413TIP3    H240731   0.396   2.251   1.794 -1.1021 -1.6553  1.6741
 6414TIP3   OH240732   2.888   4.501  11.644 -0.3978 -0.4253 -0.0471
 6414TIP3    H140733   2.975   4.485  11.608 -0.8657 -0.1689 -1.3567
 6414TIP3    H240734   2.900   4.497  11.739  0.7788 -1.7261 -0.2147
 6415TIP3   OH240735   5.591   1.109  17.066  0.2932  0.3347 -0.3012
 6415TIP3    H140736   5.655   1.180  17.075 -0.6496  1.2464 -0.5442
 6415TIP3    H240737   5.508   1.148  17.095  0.0650 -1.2034  1.2380
 6416TIP3   OH240738   2.326   2.921  14.660  0.1984 -0.2803  0.0390
 6416TIP3    H140739   2.332   2.826  14.668  1.5367 -0.2171 -0.0792
 6416TIP3    H240740   2.278   2.949  14.738 -0.8082 -1.0960 -0.2619
 6417TIP3   OH240741   1.016   3.412  15.126 -1.4197 -0.2300 -0.6226
 6417TIP3    H140742   1.040   3.351  15.197 -0.6523  0.1282 -0.5652
 6417TIP3    H240743   1.085   3.401  15.061 -1.1660  0.7310 -0.5203
 6418TIP3   OH240744   3.583   4.953  10.977 -0.3322 -0.3885 -0.3381
 6418TIP3    H140745   3.498   4.996  10.988 -1.1061 -1.3818 -2.0340
 6418TIP3    H240746   3.613   4.980  10.890  0.8520 -0.4747  0.0240
 6419TIP3   OH240747   3.589   1.420   4.975  0.2172  0.5491 -0.2040
 6419TIP3    H140748   3.654   1.480   4.941  1.8569 -1.5934 -1.0781
 6419TIP3    H240749   3.552   1.377   4.898  0.6339 -1.0506  0.4415
 6420TIP3   OH240750   1.742   5.226   3.346 -0.1472  0.1308  0.0900
 6420TIP3    H140751   1.685   5.250   3.419  1.1457 -1.8916  1.9055
 6420TIP3    H240752   1.738   5.131   3.343  1.5835  0.0522 -1.0097
 6421TIP3   OH240753   5.454   1.490   0.940 -0.1344  0.2209  0.6232
 6421TIP3    H140754   5.375   1.448   0.908 -0.5722  1.4030  0.0957
 6421TIP3    H240755   5.475   1.444   1.022  0.4931 -2.2603 -0.8419
 6422TIP3   OH240756   0.550   3.101  12.529 -0.1870 -0.0510  0.1295
 6422TIP3    H140757   0.617   3.128  12.466 -0.2752  0.4498  0.2430
 6422TIP3    H240758   0.474   3.079  12.476 -0.8766  2.1158  0.1209
 6423TIP3   OH240759   5.941   6.565  14.744  0.1447 -0.4445  0.3399
 6423TIP3    H140760   5.967   6.547  14.654  0.0338 -0.1316  0.2467
 6423TIP3    H240761   6.023   6.582  14.790  0.1691 -0.2532  0.2228
 6424TIP3   OH240762   3.742   6.145   0.503 -0.3864 -0.2605 -0.3331
 6424TIP3    H140763   3.770   6.231   0.470  2.2512 -0.4738  1.0603
 6424TIP3    H240764   3.679   6.165   0.572 -1.1777  0.4467 -1.2325
 6425TIP3   OH240765   4.945   2.928   3.518  0.0484  0.2652  0.1018
 6425TIP3    H140766   4.972   2.902   3.607 -0.4634  0.6065  0.3624
 6425TIP3    H240767   4.861   2.884   3.505  0.2607 -0.0204 -0.3351
 6426TIP3   OH240768   1.281   0.416   2.382 -0.2253  0.1411  0.3553
 6426TIP3    H140769   1.226   0.417   2.460  0.6218 -0.4091  0.9758
 6426TIP3    H240770   1.369   0.434   2.415 -0.1079  1.6747 -0.6976
 6427TIP3   OH240771   0.518   2.049  11.267 -0.2489 -0.2236 -0.2866
 6427TIP3    H140772   0.540   2.079  11.355  0.0244  3.0376 -1.3017
 6427TIP3    H240773   0.603   2.038  11.224 -0.3727  0.5503 -0.7650
 6428TIP3   OH240774   0.113   4.248   5.263 -0.7463 -0.9721  0.2887
 6428TIP3    H140775   0.180   4.311   5.290  0.6875 -2.1437 -0.4506
 6428TIP3    H240776   0.051   4.247   5.336 -0.3315  0.6072  0.7105
 6429TIP3   OH240777   6.193   2.144  11.965 -0.2313  0.4925 -0.1835
 6429TIP3    H140778   6.274   2.108  11.928 -0.5706  0.2327 -0.6815
 6429TIP3    H240779   6.190   2.235  11.933 -1.0060 -0.0086 -1.6191
 6430TIP3   OH240780   3.621   3.999  15.030  0.2180  0.3025 -0.1606
 6430TIP3    H140781   3.672   4.061  15.082  2.7525 -0.3352 -1.7449
 6430TIP3    H240782   3.604   4.044  14.948  0.3876 -0.4119 -0.5932
 6431TIP3   OH240783   3.123   2.848  13.629 -0.7435  0.0429 -0.5622
 6431TIP3    H140784   3.050   2.906  13.653 -1.1128 -0.2014 -1.0555
 6431TIP3    H240785   3.092   2.805  13.549 -1.0495 -1.8812  0.5407
 6432TIP3   OH240786   5.485   0.367  11.064 -0.0790  0.0719 -0.8212
 6432TIP3    H140787   5.515   0.276  11.065 -0.6714 -0.1196 -0.3380
 6432TIP3    H240788   5.480   0.389  10.971  1.8765  0.2265 -0.9409
 6433TIP3   OH240789   0.898   1.472   4.108  0.0621 -0.3606  0.0408
 6433TIP3    H140790   0.866   1.438   4.191 -0.5081 -0.9249 -0.3943
 6433TIP3    H240791   0.992   1.454   4.110  0.4195  1.3796  1.3593
 6434TIP3   OH240792   0.059   4.414   4.712  0.1277 -0.6362  0.2047
 6434TIP3    H140793  -0.020   4.392   4.663  1.6838 -1.0063 -2.3093
 6434TIP3    H240794   0.093   4.329   4.742 -1.2632 -0.3633  2.8570
 6435TIP3   OH240795   3.065   0.859   2.501  0.0954 -0.3266 -0.4320
 6435TIP3    H140796   3.024   0.918   2.438  2.1896  1.5412 -0.2047
 6435TIP3    H240797   2.994   0.830   2.557 -0.8897  3.3957  0.5084
 6436TIP3   OH240798   6.308   3.891   0.857  0.5283 -0.5334 -0.1594
 6436TIP3    H140799   6.222   3.895   0.897  0.7650 -2.3982  0.6239
 6436TIP3    H240800   6.361   3.952   0.908 -0.0970 -0.0347 -0.0961
 6437TIP3   OH240801   1.304   5.863   4.107 -0.0977 -0.5106 -0.0695
 6437TIP3    H140802   1.375   5.856   4.171 -1.3971 -0.9824  1.3889
 6437TIP3    H240803   1.338   5.818   4.029  1.3807 -0.2669  0.3874
 6438TIP3   OH240804   1.192   4.550   3.620 -0.2455 -0.8530  0.1171
 6438TIP3    H140805   1.108   4.515   3.648 -2.0025  1.7201 -1.4446
 6438TIP3    H240806   1.199   4.525   3.528  1.9635 -3.1010  0.8003
 6439TIP3   OH240807   0.979   0.801  12.660 -0.0895 -0.0102  0.2726
 6439TIP3    H140808   0.990   0.742  12.586  1.2045  0.4049  0.1151
 6439TIP3    H240809   1.062   0.794  12.709 -0.5097  0.5224  1.0858
 6440TIP3   OH240810   6.679   0.303  13.002 -0.3032 -0.1508 -0.0051
 6440TIP3    H140811   6.740   0.303  13.075 -0.5036 -0.3779  0.1602
 6440TIP3    H240812   6.593   0.322  13.041 -0.2465  0.8381 -0.3166
 6441TIP3   OH240813   3.640   1.358  16.777 -0.1101  0.6998  0.2519
 6441TIP3    H140814   3.640   1.331  16.869 -2.5910  0.3643  0.2283
 6441TIP3    H240815   3.729   1.340  16.746 -0.0848 -2.3162  1.7245
 6442TIP3   OH240816   1.381   2.245  13.779 -0.1037  0.3499 -0.6355
 6442TIP3    H140817   1.315   2.309  13.806 -1.5010  0.0427 -2.9473
 6442TIP3    H240818   1.359   2.166  13.829 -0.1499  0.8733  0.1771
 6443TIP3   OH240819   4.194   0.082   4.672 -0.2291  0.1600  0.1799
 6443TIP3    H140820   4.212   0.108   4.762  0.3275  0.5053 -0.0267
 6443TIP3    H240821   4.154   0.158   4.632 -0.8755 -0.1396  0.2520
 6444TIP3   OH240822   1.107   1.451   2.116  0.8488  0.9574  0.0122
 6444TIP3    H140823   1.122   1.379   2.177 -0.0986 -0.3789 -1.2827
 6444TIP3    H240824   1.132   1.529   2.166  0.5901 -0.1152  1.9356
 6445TIP3   OH240825   4.351   0.182   4.380 -0.2431  0.0076 -0.2099
 6445TIP3    H140826   4.410   0.211   4.450  0.4417  0.1593 -0.8428
 6445TIP3    H240827   4.264   0.213   4.408 -0.0707 -0.3702  0.8149
 6446TIP3   OH240828   0.254   4.550   3.088  0.1705  0.0987  0.0689
 6446TIP3    H140829   0.284   4.479   3.031  0.8714  1.0743 -0.8233
 6446TIP3    H240830   0.325   4.561   3.152  0.1044  0.0643  0.1492
 6447TIP3   OH240831   1.163   6.207   0.507  0.2635 -0.3222  0.4085
 6447TIP3    H140832   1.096   6.156   0.552  0.0223  1.5373  2.3248
 6447TIP3    H240833   1.154   6.182   0.415 -0.8401 -2.5196  1.0441
 6448TIP3   OH240834   6.248   0.564  12.570 -0.0827  0.0976  0.4346
 6448TIP3    H140835   6.207   0.478  12.569 -1.1789  0.6078  0.2673
 6448TIP3    H240836   6.200   0.614  12.636  0.6538  0.5387  0.6579
 6449TIP3   OH240837   2.419   6.551   1.878 -0.1080 -0.2816  0.0878
 6449TIP3    H140838   2.425   6.642   1.850  0.6881 -0.0889  0.8525
 6449TIP3    H240839   2.381   6.554   1.965  2.5049 -0.4028  1.3385
 6450TIP3   OH240840   5.856   5.894   3.529 -0.6459  0.1000  0.4435
 6450TIP3    H140841   5.783   5.862   3.581 -1.7687  1.7996 -0.0020
 6450TIP3    H240842   5.816   5.949   3.462  0.6507 -2.6294 -2.8364
 6451TIP3   OH240843   0.902   6.108  12.805 -0.3378 -0.1395  0.5577
 6451TIP3    H140844   0.935   6.066  12.725  2.3613 -0.1037  1.5591
 6451TIP3    H240845   0.902   6.038  12.870 -0.8338  0.2311  0.9584
 6452TIP3   OH240846   3.680   2.884   4.541 -0.1465  0.2939  0.3227
 6452TIP3    H140847   3.592   2.897   4.506 -0.1817  1.8484  0.9330
 6452TIP3    H240848   3.738   2.904   4.468 -0.2786 -0.6536 -0.0579
 6453TIP3   OH240849   1.013   2.719   0.611  0.0735 -0.5402 -0.1935
 6453TIP3    H140850   0.976   2.733   0.524 -2.1751  1.0932  0.9347
 6453TIP3    H240851   0.975   2.636   0.640  0.5132 -0.8851 -0.5766
 6454TIP3   OH240852   4.916   1.492   3.723 -0.5988  0.2642 -0.1833
 6454TIP3    H140853   4.901   1.439   3.644  0.3403  3.1285 -2.4549
 6454TIP3    H240854   4.831   1.534   3.740 -0.6800 -0.0003  0.0766
 6455TIP3   OH240855   6.571   0.670  16.618 -0.0637 -0.4045  0.0168
 6455TIP3    H140856   6.595   0.727  16.546  0.6068 -0.8086 -0.0889
 6455TIP3    H240857   6.503   0.718  16.665  0.5917  0.5478  0.0271
 6456TIP3   OH240858   0.490   4.851   5.871  0.0523 -0.1729 -0.1104
 6456TIP3    H140859   0.403   4.886   5.888  0.9357  2.1914 -0.0796
 6456TIP3    H240860   0.517   4.812   5.954 -0.5780  0.0125  0.1853
 6457TIP3   OH240861   5.984   4.504  16.554 -0.0597  0.0544  0.2237
 6457TIP3    H140862   5.949   4.563  16.486  2.3604  1.9062  0.4551
 6457TIP3    H240863   5.957   4.545  16.636  1.5300  0.8326  0.3845
 6458TIP3   OH240864   6.426   5.041  16.015  0.8930  0.3146  0.2458
 6458TIP3    H140865   6.350   5.100  16.014  0.0072 -0.7605 -1.5494
 6458TIP3    H240866   6.495   5.090  15.971 -0.3123 -0.4246 -2.7464
 6459TIP3   OH240867   1.494   1.880   4.652 -0.0755 -0.6266 -0.1124
 6459TIP3    H140868   1.505   1.792   4.615 -0.0754 -0.0406 -1.5719
 6459TIP3    H240869   1.454   1.931   4.581 -0.8204  0.3572  0.9760
 6460TIP3   OH240870   5.667   1.158  13.379 -0.0120 -0.7966  0.3671
 6460TIP3    H140871   5.595   1.210  13.415 -0.1439 -0.2050 -0.7090
 6460TIP3    H240872   5.625   1.095  13.320  0.4061  0.4023 -1.2782
 6461TIP3   OH240873   1.146   1.223  10.807 -0.1517  0.0693  0.0644
 6461TIP3    H140874   1.085   1.180  10.747  0.7506 -2.8518  1.0776
 6461TIP3    H240875   1.092   1.285  10.856 -1.9770 -1.2303 -0.2180
 6462TIP3   OH240876   5.315   0.485   0.971 -0.3591  0.1488 -0.6933
 6462TIP3    H140877   5.317   0.536   1.052 -1.9017 -1.4190  0.4199
 6462TIP3    H240878   5.247   0.418   0.987  1.3588 -2.0819 -2.1486
 6463TIP3   OH240879   4.286   4.315  13.088  0.1439 -0.3517 -0.1107
 6463TIP3    H140880   4.215   4.257  13.116  0.0210 -0.3076 -0.3318
 6463TIP3    H240881   4.366   4.265  13.107  0.2137  0.5736  2.5393
 6464TIP3   OH240882   4.156   0.594   5.090 -0.0565  0.0791  0.2315
 6464TIP3    H140883   4.081   0.543   5.120  0.4448 -0.8780 -0.0959
 6464TIP3    H240884   4.231   0.556   5.135  0.5676 -0.6941 -1.3654
 6465TIP3   OH240885   3.550   6.457   0.507  0.2083  0.3305  0.3418
 6465TIP3    H140886   3.519   6.366   0.511 -0.6753  0.4930 -1.4964
 6465TIP3    H240887   3.553   6.485   0.598  2.1641 -2.0441  1.1250
 6466TIP3   OH240888   1.776   0.271   1.329 -0.3962 -0.3709  0.3329
 6466TIP3    H140889   1.765   0.199   1.267  1.2297  0.2589 -0.7565
 6466TIP3    H240890   1.714   0.337   1.301  0.0833 -0.2323 -0.4246
 6467TIP3   OH240891   4.974   0.513   4.215  0.0037  0.1509 -0.0887
 6467TIP3    H140892   5.028   0.592   4.210 -1.6768  1.3138 -0.6167
 6467TIP3    H240893   4.932   0.506   4.130  0.1811 -1.3937 -0.0862
 6468TIP3   OH240894   0.478   3.216  13.980  0.5873 -0.5192  0.3167
 6468TIP3    H140895   0.554   3.274  13.985  0.5542 -0.4626  0.1706
 6468TIP3    H240896   0.409   3.270  13.944  0.9589 -1.0449 -1.2694
 6469TIP3   OH240897   0.975   6.780   1.667 -0.2026 -0.0883  0.1776
 6469TIP3    H140898   0.976   6.728   1.587  0.5459  0.3119 -0.0841
 6469TIP3    H240899   1.067   6.790   1.691 -0.4493 -1.2302  1.7834
 6470TIP3   OH240900   6.815   2.083   4.461 -0.7357 -1.0883  0.5289
 6470TIP3    H140901   6.817   1.993   4.491  1.5658 -0.8510  1.3089
 6470TIP3    H240902   6.858   2.133   4.531  0.2921  0.2197 -0.9506
 6471TIP3   OH240903   1.824   6.254   3.924 -0.7340  0.2658  0.1063
 6471TIP3    H140904   1.743   6.264   3.873  0.0604 -0.9262 -1.5020
 6471TIP3    H240905   1.799   6.199   3.998 -1.8408  1.7401  0.8936
 6472TIP3   OH240906   2.986   1.844  12.528 -0.1659  0.3884  0.4346
 6472TIP3    H140907   3.081   1.854  12.526  0.1292 -1.9885  0.0941
 6472TIP3    H240908   2.967   1.805  12.613 -0.5132 -1.4632 -0.4401
 6473TIP3   OH240909   4.946   0.263   1.822 -0.1417  0.2898 -0.0220
 6473TIP3    H140910   4.904   0.349   1.817  0.6936  0.6533 -1.7578
 6473TIP3    H240911   5.031   0.280   1.863  0.4938  0.5411 -1.3706
 6474TIP3   OH240912   2.901   2.240  12.966  0.3258 -0.2067  0.1407
 6474TIP3    H140913   2.849   2.172  13.010 -2.4535  1.0947 -0.9045
 6474TIP3    H240914   2.900   2.215  12.874  1.4100 -0.0417  0.0798
 6475TIP3   OH240915   3.694   6.188  15.833  0.2858 -0.4711 -0.4300
 6475TIP3    H140916   3.782   6.225  15.844  0.4809 -0.6454 -1.3374
 6475TIP3    H240917   3.708   6.093  15.842  0.3515 -0.5712 -1.4449
 6476TIP3   OH240918   5.761   0.860   4.773  0.0614 -0.3888 -0.0106
 6476TIP3    H140919   5.790   0.790   4.832  0.3324  0.0598  0.3904
 6476TIP3    H240920   5.749   0.816   4.688 -0.0859 -0.9858  0.3119
 6477TIP3   OH240921   4.168   2.455   0.844  0.1386 -0.9113  0.1031
 6477TIP3    H140922   4.227   2.425   0.913  0.2990  1.4740  1.1265
 6477TIP3    H240923   4.089   2.482   0.891 -0.4973 -1.0457 -0.8707
 6478TIP3   OH240924   5.419   4.534   3.061  0.0363  0.1631 -1.0091
 6478TIP3    H140925   5.460   4.569   2.982  0.9995 -1.1523 -1.1364
 6478TIP3    H240926   5.441   4.441   3.060 -1.6993 -0.2938 -0.2629
 6479TIP3   OH240927   1.417   0.257  10.888 -0.3872 -0.5097  0.7549
 6479TIP3    H140928   1.348   0.323  10.884 -0.4894 -0.6060  0.9074
 6479TIP3    H240929   1.422   0.222  10.799  0.2640  0.3061  0.4614
 6480TIP3   OH240930   5.589   0.571  13.223 -0.0750  0.1040 -0.5107
 6480TIP3    H140931   5.505   0.538  13.190 -0.2004  0.3039 -0.3925
 6480TIP3    H240932   5.576   0.578  13.318  0.3036 -0.5297 -0.4049
 6481TIP3   OH240933   0.464   5.043  15.470 -0.1388 -0.2897  0.2869
 6481TIP3    H140934   0.491   5.125  15.511 -1.0846 -0.0727  0.4871
 6481TIP3    H240935   0.373   5.031  15.498  0.4014 -2.1172  1.3894
 6482TIP3   OH240936   1.047   5.017   4.172 -0.2038 -0.2040  0.0382
 6482TIP3    H140937   0.972   5.032   4.229 -0.1417 -1.4431  0.4675
 6482TIP3    H240938   1.009   5.005   4.085 -0.3333  1.1810 -0.1272
 6483TIP3   OH240939   0.911   2.691   5.154 -0.4640  0.0922  0.5809
 6483TIP3    H140940   0.836   2.652   5.200 -1.2211  0.3461 -0.3949
 6483TIP3    H240941   0.872   2.734   5.078  0.7378 -0.2248 -0.2389
 6484TIP3   OH240942   5.350   1.018   3.727 -0.4175 -0.2177  0.3520
 6484TIP3    H140943   5.355   0.924   3.743  0.1960 -0.2738 -0.1026
 6484TIP3    H240944   5.263   1.032   3.689 -0.8775 -0.4508  1.2945
 6485TIP3   OH240945   4.905   6.849  13.401 -0.1101  0.2090  0.5447
 6485TIP3    H140946   4.974   6.915  13.400 -0.8274  1.0044  1.5298
 6485TIP3    H240947   4.824   6.898  13.393 -0.5636 -0.7915 -1.7480
 6486TIP3   OH240948   3.913   5.605   4.198  0.2815  0.1890 -0.1096
 6486TIP3    H140949   3.969   5.663   4.146  0.7113 -1.2691 -1.3603
 6486TIP3    H240950   3.827   5.611   4.155  0.5821 -0.8470 -0.8991
 6487TIP3   OH240951   1.542   6.722   0.551 -0.1766 -0.2304 -0.2897
 6487TIP3    H140952   1.451   6.743   0.569 -0.0765 -0.4139  0.4908
 6487TIP3    H240953   1.559   6.643   0.602 -0.2291 -1.5951 -2.2806
 6488TIP3   OH240954   0.239   4.313   0.182  0.2722 -0.3683 -0.0264
 6488TIP3    H140955   0.300   4.291   0.253  2.0844  1.1188 -1.0374
 6488TIP3    H240956   0.293   4.311   0.103 -0.9250  1.2254 -0.9351
 6489TIP3   OH240957   1.459   5.563  15.968 -0.0428  0.1139 -0.1723
 6489TIP3    H140958   1.375   5.552  15.925 -0.5737 -1.1126  1.0689
 6489TIP3    H240959   1.461   5.493  16.033  1.3057  1.0284  0.8239
 6490TIP3   OH240960   4.933   4.842  15.995 -0.1563  0.2156 -0.3014
 6490TIP3    H140961   4.981   4.912  16.040 -0.7006  0.4882 -0.1238
 6490TIP3    H240962   4.859   4.824  16.053 -0.9058  0.6121 -1.1060
 6491TIP3   OH240963   0.617   5.717   2.104  0.4079 -0.1567  0.2961
 6491TIP3    H140964   0.660   5.802   2.098 -0.9593  0.4746 -1.2991
 6491TIP3    H240965   0.584   5.701   2.016 -0.1363 -1.9454  0.7841
 6492TIP3   OH240966   5.383   1.663  13.490 -0.3831 -0.4928 -0.6426
 6492TIP3    H140967   5.329   1.675  13.569 -1.4643 -1.2139 -1.2580
 6492TIP3    H240968   5.336   1.711  13.422  0.3768 -0.1576 -0.9438
 6493TIP3   OH240969   5.857   1.524  15.725  0.5185  0.0335 -0.2647
 6493TIP3    H140970   5.881   1.605  15.680  2.8345  0.9255  2.3501
 6493TIP3    H240971   5.812   1.553  15.804 -0.4553 -1.3581 -0.2726
 6494TIP3   OH240972   1.240   2.421  16.614 -0.2315  0.0329  0.0839
 6494TIP3    H140973   1.304   2.398  16.681  2.0570 -1.9280 -2.5021
 6494TIP3    H240974   1.189   2.493  16.651  2.5577  0.7526  2.8587
 6495TIP3   OH240975   6.205   2.315   2.161 -0.1203 -0.0578  0.2156
 6495TIP3    H140976   6.296   2.340   2.179  0.3995 -0.8591 -1.1203
 6495TIP3    H240977   6.212   2.227   2.123 -1.1613  0.9346 -2.5304
 6496TIP3   OH240978   0.043   2.753   4.621  0.2514 -0.3675  0.2820
 6496TIP3    H140979   0.060   2.660   4.631 -0.7338 -0.7074 -0.9111
 6496TIP3    H240980   0.100   2.780   4.549  0.6826  0.0077  0.7559
 6497TIP3   OH240981   0.012   5.373  12.188  0.2130 -0.7684 -0.4165
 6497TIP3    H140982   0.006   5.449  12.131  0.5614 -0.1392  0.3675
 6497TIP3    H240983   0.087   5.391  12.244 -1.3282 -0.3954  1.6282
 6498TIP3   OH240984   2.630   2.694  13.082  0.3029  0.4798  0.3963
 6498TIP3    H140985   2.563   2.738  13.135 -0.0273 -0.7702  1.0427
 6498TIP3    H240986   2.588   2.685  12.996  0.7377  2.2573 -0.0458
 6499TIP3   OH240987   1.444   3.500   1.222  0.0618  0.4026 -0.0716
 6499TIP3    H140988   1.519   3.475   1.276  1.0464 -0.2512 -1.6616
 6499TIP3    H240989   1.393   3.420   1.213 -0.8243  0.8240  0.9300
 6500TIP3   OH240990   1.387   6.015   4.784 -0.2118  0.4372 -0.4700
 6500TIP3    H140991   1.303   5.985   4.747 -0.7341 -0.0600  1.0180
 6500TIP3    H240992   1.373   6.107   4.804 -1.5410 -0.3066  2.5673
 6501TIP3   OH240993   2.306   3.394   2.673  0.0324  0.4405 -0.3024
 6501TIP3    H140994   2.399   3.372   2.686  0.0859  0.4538 -0.6470
 6501TIP3    H240995   2.304   3.490   2.672  0.1666  0.4379 -1.3238
 6502TIP3   OH240996   0.635   0.882   4.321 -0.1625 -0.2455 -0.2790
 6502TIP3    H140997   0.604   0.972   4.334  1.7387  0.3359  0.4954
 6502TIP3    H240998   0.563   0.827   4.353 -1.2467  0.9935 -0.5272
 6503TIP3   OH240999   4.337   6.039   6.035 -0.0214 -0.4436  0.1029
 6503TIP3    H141000   4.362   6.001   5.951  0.6216  0.8964 -0.3548
 6503TIP3    H241001   4.381   5.985   6.100 -0.1684 -1.2354 -0.4396
 6504TIP3   OH241002   6.054   4.211   4.957 -0.4018 -0.7278 -0.7256
 6504TIP3    H141003   6.150   4.217   4.954 -0.4269 -0.1660 -0.3961
 6504TIP3    H241004   6.037   4.117   4.969  0.1313 -0.7285  0.0741
 6505TIP3   OH241005   1.334   5.304  12.025  0.1042 -0.4139  0.1862
 6505TIP3    H141006   1.379   5.328  12.106  0.4664  1.6364 -0.5674
 6505TIP3    H241007   1.382   5.227  11.993 -1.1801 -2.4458  2.7684
 6506TIP3   OH241008   0.851   0.779  11.325  0.2871  0.1523  0.0229
 6506TIP3    H141009   0.793   0.852  11.345  0.0919  0.2688 -0.9225
 6506TIP3    H241010   0.797   0.701  11.336  0.0067  0.2484 -0.6206
 6507TIP3   OH241011   5.224   6.100  14.040 -0.3912 -0.2254  0.0005
 6507TIP3    H141012   5.237   6.071  14.130 -0.6122 -0.1342  0.0624
 6507TIP3    H241013   5.148   6.051  14.009 -1.8976  1.5461  0.6894
 6508TIP3   OH241014   5.827   5.280  10.410 -0.1508 -1.0398  0.3910
 6508TIP3    H141015   5.851   5.208  10.351  1.5184 -1.1306  1.1194
 6508TIP3    H241016   5.746   5.315  10.373  1.0552 -0.7825 -2.2274
 6509TIP3   OH241017   3.703   5.600  13.304 -0.1551 -0.3443 -0.1710
 6509TIP3    H141018   3.794   5.572  13.314  0.5602  1.6281 -0.8117
 6509TIP3    H241019   3.654   5.518  13.292  1.2320 -1.5777  1.9992
 6510TIP3   OH241020   4.759   0.990   4.268 -0.6375 -0.1688 -0.1567
 6510TIP3    H141021   4.697   1.033   4.328  0.3390 -0.0768  0.8237
 6510TIP3    H241022   4.837   1.047   4.270  0.3963 -1.5504  0.5606
 6511TIP3   OH241023   3.523   1.299   1.102 -0.1341  0.6001 -0.0297
 6511TIP3    H141024   3.619   1.299   1.098 -0.0522 -2.5944 -0.4066
 6511TIP3    H241025   3.502   1.263   1.188 -0.9374 -0.3924 -0.6215
 6512TIP3   OH241026   2.502   1.072   2.705 -0.2949  0.0095 -0.5629
 6512TIP3    H141027   2.426   1.018   2.725  0.3634 -0.3228  1.2329
 6512TIP3    H241028   2.526   1.048   2.615  0.3462 -3.2143  0.3303
 6513TIP3   OH241029   0.615   0.424  10.821 -0.7778 -0.0278  0.0340
 6513TIP3    H141030   0.614   0.328  10.828  0.4052 -0.1717 -1.3705
 6513TIP3    H241031   0.705   0.448  10.845 -0.9338  0.7015 -0.1006
 6514TIP3   OH241032   6.245   3.867   4.742  0.3545 -0.2181  0.4385
 6514TIP3    H141033   6.273   3.782   4.707 -0.1118 -0.3354  0.3344
 6514TIP3    H241034   6.295   3.878   4.822  1.2564 -0.0678 -0.1286
 6515TIP3   OH241035   6.457   0.861   5.969  0.5985 -0.0187  0.6346
 6515TIP3    H141036   6.425   0.777   5.934 -2.2184  1.5800 -0.9651
 6515TIP3    H241037   6.440   0.855   6.063 -3.0569 -0.0138  0.1288
 6516TIP3   OH241038   3.754   4.558   3.277  0.9277 -0.6008 -0.1632
 6516TIP3    H141039   3.799   4.587   3.356 -0.8663  0.4358  0.5632
 6516TIP3    H241040   3.712   4.475   3.303 -0.4945  0.2376  0.3655
 6517TIP3   OH241041   4.729   2.377   2.338  0.4647  0.6434  0.3817
 6517TIP3    H141042   4.702   2.369   2.246 -3.2197 -1.1296  1.4309
 6517TIP3    H241043   4.796   2.310   2.348 -1.7184 -1.8330 -0.3118
 6518TIP3   OH241044   2.770   0.242   1.251  0.4484  0.5757 -0.1596
 6518TIP3    H141045   2.735   0.330   1.266 -1.7272 -0.1760 -0.5313
 6518TIP3    H241046   2.722   0.186   1.312  1.1761 -0.5054 -0.5476
 6519TIP3   OH241047   6.210   2.872  10.848  0.0957 -0.0841  0.2961
 6519TIP3    H141048   6.140   2.906  10.903 -1.0683 -0.6304 -0.7855
 6519TIP3    H241049   6.165   2.815  10.785  1.5990 -1.0027  0.0086
 6520TIP3   OH241050   2.658   6.503  15.235 -0.5382 -0.1352 -0.4493
 6520TIP3    H141051   2.620   6.533  15.153 -1.2841 -0.0732 -0.0960
 6520TIP3    H241052   2.583   6.472  15.286 -0.1967  0.5491  0.5073
 6521TIP3   OH241053   6.264   0.903   2.385  0.0124  0.0529 -0.1812
 6521TIP3    H141054   6.247   0.939   2.299 -1.0269 -0.1836 -0.0945
 6521TIP3    H241055   6.258   0.808   2.373  2.4706 -0.1371 -0.3631
 6522TIP3   OH241056   3.294   4.740  13.454 -0.6463  0.3478  0.1726
 6522TIP3    H141057   3.351   4.780  13.520  2.1924 -0.6614 -1.5329
 6522TIP3    H241058   3.294   4.802  13.382 -1.2614  0.0560 -0.0836
 6523TIP3   OH241059   6.083   0.027  16.077  0.2110 -0.3626  0.1350
 6523TIP3    H141060   6.155   0.010  16.016  1.2517  1.7774  0.6599
 6523TIP3    H241061   6.045  -0.059  16.094  1.7657 -1.3838 -1.2427
 6524TIP3   OH241062   4.247   1.716  11.406 -0.3324  0.1936 -0.0987
 6524TIP3    H141063   4.307   1.642  11.417 -0.2082  0.3743  0.4863
 6524TIP3    H241064   4.164   1.676  11.379  0.1963 -0.0104 -1.5107
 6525TIP3   OH241065   0.976   1.934  14.168  0.0890 -0.2812 -0.5972
 6525TIP3    H141066   1.040   1.869  14.142 -0.1000 -0.6776 -0.0933
 6525TIP3    H241067   0.937   1.899  14.248  0.8561  1.0206  0.3842
 6526TIP3   OH241068   6.626   5.844  14.436 -0.2552 -0.2055 -0.2311
 6526TIP3    H141069   6.625   5.804  14.524  0.9586  2.7429  1.2604
 6526TIP3    H241070   6.546   5.895  14.433  0.6639  1.2971  0.0197
 6527TIP3   OH241071   0.995   5.241  11.009 -0.3319  0.1319  0.0678
 6527TIP3    H141072   1.020   5.222  10.918  1.5951  2.0458  0.1262
 6527TIP3    H241073   1.076   5.233  11.058 -0.9682  1.0076  1.3043
 6528TIP3   OH241074   0.087   2.444  14.829  0.0604  0.0316 -0.5868
 6528TIP3    H141075   0.009   2.400  14.862  0.1677  1.9287  2.7300
 6528TIP3    H241076   0.159   2.406  14.879  0.3233  2.7101  1.3303
 6529TIP3   OH241077   2.754   2.984   5.471  1.0496  0.0795 -0.7095
 6529TIP3    H141078   2.746   3.060   5.414 -0.3850  0.2381 -0.3389
 6529TIP3    H241079   2.805   3.014   5.546  1.8744  0.2103 -1.3103
 6530TIP3   OH241080   3.650   3.216  15.005  0.4773 -0.4931 -0.2752
 6530TIP3    H141081   3.732   3.243  15.045  0.7059  0.7139 -1.4737
 6530TIP3    H241082   3.674   3.147  14.944  0.6690  0.1248 -0.9049
 6531TIP3   OH241083   5.014   1.151  14.701 -0.1922  0.4421 -0.4071
 6531TIP3    H141084   5.068   1.076  14.672 -1.0938 -0.5029  0.2750
 6531TIP3    H241085   4.962   1.116  14.774 -0.3783  1.8494  0.1673
 6532TIP3   OH241086   3.196   0.124  10.779 -0.0324 -0.2505  0.4512
 6532TIP3    H141087   3.164   0.212  10.763 -0.6999 -0.5751 -0.0770
 6532TIP3    H241088   3.214   0.089  10.692 -2.4181 -1.5850  0.4039
 6533TIP3   OH241089   6.668   1.484  16.327 -0.2611 -0.0921 -0.3293
 6533TIP3    H141090   6.764   1.479  16.329 -0.0479  2.5982 -0.4186
 6533TIP3    H241091   6.639   1.409  16.379  1.8777 -1.0504 -0.4180
 6534TIP3   OH241092   2.156   3.352  13.144  0.6819 -0.6348 -0.2764
 6534TIP3    H141093   2.128   3.261  13.152  0.8597 -0.6666 -0.0250
 6534TIP3    H241094   2.196   3.373  13.228 -2.1273  0.6319  0.8894
 6535TIP3   OH241095   1.162   0.504  11.637 -0.2619  0.4657  0.3160
 6535TIP3    H141096   1.101   0.451  11.585  0.3209 -0.6323  0.7096
 6535TIP3    H241097   1.243   0.453  11.638 -0.1363  0.6421  1.9583
 6536TIP3   OH241098   4.229   0.038   2.226  0.2880 -0.1281  0.5176
 6536TIP3    H141099   4.316   0.052   2.190  1.7553 -1.7768  3.1323
 6536TIP3    H241100   4.173   0.026   2.149  2.5846 -0.3688 -1.2315
 6537TIP3   OH241101   4.731   6.390   4.332 -0.0210  0.4928 -0.1547
 6537TIP3    H141102   4.682   6.408   4.252 -1.1853  1.5663  0.7585
 6537TIP3    H241103   4.724   6.470   4.384  0.3413 -0.3120  1.2104
 6538TIP3   OH241104   2.571   0.552   4.629 -0.1679 -0.5483  0.4107
 6538TIP3    H141105   2.539   0.591   4.711 -0.4373  1.1324 -0.4297
 6538TIP3    H241106   2.495   0.555   4.571  0.3580 -0.4954 -0.2898
 6539TIP3   OH241107   2.483   6.133  15.053 -0.7894  0.4494  0.1037
 6539TIP3    H141108   2.456   6.224  15.070 -1.0121  0.4190 -0.0822
 6539TIP3    H241109   2.540   6.111  15.126  0.3555  1.1965 -0.5270
 6540TIP3   OH241110   4.748   0.898  15.724 -0.3331  0.8792 -0.3763
 6540TIP3    H141111   4.842   0.890  15.713 -0.3752  1.8964 -1.8002
 6540TIP3    H241112   4.723   0.967  15.663 -2.4851 -1.7089 -2.6861
 6541TIP3   OH241113   4.154   4.511  11.517 -0.0592 -0.2231  0.1792
 6541TIP3    H141114   4.067   4.484  11.546 -0.6180 -0.4958 -1.6467
 6541TIP3    H241115   4.144   4.602  11.490  0.5189  0.1130  1.0413
 6542TIP3   OH241116   4.759   1.317   2.782  0.4711  0.1773  0.0857
 6542TIP3    H141117   4.769   1.346   2.691 -1.1323 -0.7024 -0.4128
 6542TIP3    H241118   4.768   1.222   2.778 -1.1330 -0.0222  0.5739
 6543TIP3   OH241119   1.736   3.592   3.363  0.0941  0.5854 -0.0893
 6543TIP3    H141120   1.731   3.594   3.459  0.9529 -1.1325  0.0341
 6543TIP3    H241121   1.828   3.606   3.343 -0.0833  0.9516 -0.6836
 6544TIP3   OH241122   6.649   3.967   3.207 -0.4971  0.1675  0.0596
 6544TIP3    H141123   6.721   4.030   3.199  0.6581 -1.2511 -1.4810
 6544TIP3    H241124   6.632   3.961   3.301  0.3179  1.6818  0.3397
 6545TIP3   OH241125   5.066   2.467   0.895 -0.2788  0.0378  0.1964
 6545TIP3    H141126   4.997   2.411   0.859 -1.6528  0.7199  1.6638
 6545TIP3    H241127   5.140   2.454   0.835 -1.2005 -1.7699 -0.6530
 6546TIP3   OH241128   0.200   1.011   3.245 -0.5210 -0.6592  0.4090
 6546TIP3    H141129   0.107   1.009   3.270  0.0256  0.2674  2.7915
 6546TIP3    H241130   0.226   1.102   3.255  0.4659 -0.7326 -1.1661
 6547TIP3   OH241131   1.176   6.438   4.875  0.1754  0.2636  0.2385
 6547TIP3    H141132   1.227   6.371   4.830  1.2489  0.3196  1.3170
 6547TIP3    H241133   1.104   6.390   4.915  1.9915 -0.6645  2.6436
 6548TIP3   OH241134   3.663   5.545  16.197 -0.1370  0.1128  0.0212
 6548TIP3    H141135   3.665   5.500  16.112  1.1386 -0.9273  0.5672
 6548TIP3    H241136   3.727   5.615  16.189 -0.3703  0.3214 -0.0302
 6549TIP3   OH241137   1.688   0.063  16.400  0.2415 -0.4378 -0.1388
 6549TIP3    H141138   1.759   0.121  16.425  3.1551 -3.3086 -1.0463
 6549TIP3    H241139   1.679   0.003  16.474 -0.0381 -1.1422 -0.7268
 6550TIP3   OH241140   1.037   1.672  11.402  0.6227 -0.1403 -0.0389
 6550TIP3    H141141   1.113   1.674  11.344  1.0179  1.0659  0.4842
 6550TIP3    H241142   1.056   1.738  11.469 -0.4378 -0.5308  0.6719
 6551TIP3   OH241143   4.698   1.404   1.835  0.3992 -0.1658 -0.1799
 6551TIP3    H141144   4.736   1.485   1.800 -1.1068  0.6496  0.0024
 6551TIP3    H241145   4.720   1.407   1.929  2.7810 -1.4177 -0.5995
 6552TIP3   OH241146   2.461   4.491   2.414 -0.1865  0.1258  0.2401
 6552TIP3    H141147   2.515   4.451   2.346 -1.4984 -1.9983  0.3623
 6552TIP3    H241148   2.479   4.585   2.406  0.4773 -0.1386 -2.3335
 6553TIP3   OH241149   5.212   1.598   3.685  0.1921  0.3226  0.8419
 6553TIP3    H141150   5.159   1.666   3.727  0.7007  0.3882  1.3945
 6553TIP3    H241151   5.159   1.568   3.611 -0.4715  0.6131  1.1915
 6554TIP3   OH241152   3.228   3.548  15.298  0.1339 -0.4059 -0.1870
 6554TIP3    H141153   3.220   3.504  15.214  1.5025 -0.6516 -0.2087
 6554TIP3    H241154   3.267   3.483  15.356  0.9913  0.3696  0.1269
 6555TIP3   OH241155   2.117   5.646  16.679 -0.4981 -0.2664  0.4769
 6555TIP3    H141156   2.056   5.691  16.738 -0.4452 -0.6742  0.8506
 6555TIP3    H241157   2.061   5.593  16.622 -0.6359  1.1336 -0.7253
 6556TIP3   OH241158   3.184   1.115   1.908  0.4625 -0.0247  0.0041
 6556TIP3    H141159   3.238   1.188   1.938  0.8207  0.9548 -2.7299
 6556TIP3    H241160   3.095   1.151   1.907  0.4291 -0.1070  0.0610
 6557TIP3   OH241161   2.297   6.413   5.471  0.3071 -0.3092  0.0010
 6557TIP3    H141162   2.307   6.335   5.416 -0.9255 -0.1095 -0.5231
 6557TIP3    H241163   2.359   6.399   5.543  0.9499 -1.2175 -0.7025
 6558TIP3   OH241164   4.172   4.806  10.940  0.0990  0.0139  0.3156
 6558TIP3    H141165   4.193   4.867  10.868 -1.0478  0.8089  0.6339
 6558TIP3    H241166   4.156   4.722  10.896  0.9956  0.0979 -0.1998
 6559TIP3   OH241167   2.987   4.644  16.460  0.1492 -0.2729 -0.0481
 6559TIP3    H141168   3.072   4.606  16.437  0.5908  0.4964  0.2751
 6559TIP3    H241169   2.965   4.699  16.385  1.0042  1.2658  0.7765
 6560TIP3   OH241170   3.823   5.045  10.857 -0.1855 -0.5091 -0.4696
 6560TIP3    H141171   3.847   4.989  10.930  0.5930 -0.5070 -0.7166
 6560TIP3    H241172   3.878   5.016  10.785  0.9936  1.2290 -0.3332
 6561TIP3   OH241173   3.993   0.317  12.944 -0.2834  0.3689 -0.3732
 6561TIP3    H141174   4.001   0.221  12.942 -2.1220  0.1815 -0.1119
 6561TIP3    H241175   3.899   0.333  12.948 -0.0126  2.2101 -0.6571
 6562TIP3   OH241176   3.463   1.216   5.893 -0.1471 -0.4272  0.2932
 6562TIP3    H141177   3.386   1.184   5.846 -0.0521  0.0573 -0.1981
 6562TIP3    H241178   3.536   1.164   5.858 -0.3481 -1.4407  1.3227
 6563TIP3   OH241179   6.781   1.008  11.039 -0.4137 -0.0838  0.7456
 6563TIP3    H141180   6.823   1.026  11.124 -0.2974 -1.0282  0.8938
 6563TIP3    H241181   6.844   1.042  10.974  0.0378 -0.4204  1.0026
 6564TIP3   OH241182   3.560   6.533   1.722  0.0035 -1.0362  0.2952
 6564TIP3    H141183   3.641   6.508   1.677 -0.3409 -3.4403  0.8535
 6564TIP3    H241184   3.577   6.512   1.814 -1.1113 -1.2060  0.4722
 6565TIP3   OH241185   5.846   4.286  15.954  0.2682  0.0109  0.1838
 6565TIP3    H141186   5.930   4.255  15.919 -0.3722 -0.9497 -0.5651
 6565TIP3    H241187   5.840   4.247  16.041  0.0289 -0.9978 -0.2701
 6566TIP3   OH241188   3.338   4.614   2.987  0.3377 -0.4010 -0.4681
 6566TIP3    H141189   3.315   4.555   3.059  0.9030  0.2382  0.2536
 6566TIP3    H241190   3.360   4.556   2.914  2.9116 -1.2046  0.8147
 6567TIP3   OH241191   1.039   1.267  14.351  0.4154  0.4787 -0.1413
 6567TIP3    H141192   0.947   1.287  14.335  0.3366  0.7971  0.6398
 6567TIP3    H241193   1.087   1.325  14.292  0.1179 -1.2106 -2.1552
 6568TIP3   OH241194   5.908   3.190   0.686  0.1500  0.4024  0.2580
 6568TIP3    H141195   5.886   3.255   0.753 -1.1462 -0.4781  0.7442
 6568TIP3    H241196   6.001   3.205   0.667 -0.0138  2.1078  0.6392
 6569TIP3   OH241197   0.083   1.200   2.950  0.0474  0.5847  0.1837
 6569TIP3    H141198   0.103   1.115   2.990  0.1827  1.1015  1.2446
 6569TIP3    H241199   0.129   1.264   3.005  0.8326  1.2802 -1.2262
 6570TIP3   OH241200   5.240   2.116   3.740 -0.1064 -0.3178  0.3396
 6570TIP3    H141201   5.185   2.187   3.772 -1.8923 -0.5601 -1.9050
 6570TIP3    H241202   5.187   2.074   3.672  1.9051 -2.1846 -0.1845
 6571TIP3   OH241203   4.878   5.926  14.250 -0.1371 -0.0703  0.2846
 6571TIP3    H141204   4.930   5.853  14.216 -1.2803 -0.3949 -0.8404
 6571TIP3    H241205   4.884   5.993  14.183  0.2022  0.5520  0.9277
 6572TIP3   OH241206   5.856   0.737  15.605 -0.6199  0.0316 -0.3432
 6572TIP3    H141207   5.877   0.653  15.565 -2.3417 -0.1070 -1.0369
 6572TIP3    H241208   5.938   0.786  15.604  0.6013 -1.8799  0.7343
 6573TIP3   OH241209   3.844   1.254  12.935 -0.0177  0.3211 -0.1052
 6573TIP3    H141210   3.938   1.272  12.930 -0.0853  1.0588  0.9254
 6573TIP3    H241211   3.823   1.262  13.028 -1.0603 -0.0661 -0.2969
 6574TIP3   OH241212   6.512   0.799  12.449 -0.6991 -0.0138  0.3375
 6574TIP3    H141213   6.515   0.704  12.436 -2.9203 -0.2168  0.9314
 6574TIP3    H241214   6.547   0.835  12.367  2.1532 -1.2654  0.8596
 6575TIP3   OH241215   1.020   0.495  15.155  0.0274 -0.1341  0.7212
 6575TIP3    H141216   0.934   0.468  15.124  0.3142  0.6230 -0.8555
 6575TIP3    H241217   1.054   0.420  15.202 -0.6371 -1.2277 -0.4820
 6576TIP3   OH241218   1.317   0.769  11.703  0.1383 -0.1413 -0.4086
 6576TIP3    H141219   1.373   0.749  11.628 -2.3972 -0.1624 -2.4371
 6576TIP3    H241220   1.254   0.697  11.705 -2.1027  1.7010 -0.6241
 6577TIP3   OH241221   6.781   0.616   0.940  0.1058  0.8603 -0.0629
 6577TIP3    H141222   6.760   0.569   0.860  2.8848  0.1262 -0.4520
 6577TIP3    H241223   6.739   0.566   1.010 -2.3573  1.5153 -0.9677
 6578TIP3   OH241224   4.782   3.855   4.642 -0.0824  0.0146  0.1560
 6578TIP3    H141225   4.764   3.860   4.736 -0.2220  1.7336  0.0633
 6578TIP3    H241226   4.860   3.909   4.629 -0.4365  0.3142 -0.8071
 6579TIP3   OH241227   4.038   4.931  15.134 -0.5827  0.5440 -0.2167
 6579TIP3    H141228   3.954   4.968  15.162 -0.0245  0.1278  2.2923
 6579TIP3    H241229   4.019   4.838  15.120 -0.4579  0.3392  0.8915
 6580TIP3   OH241230   0.850   5.147   3.864  0.3081 -0.5149 -0.3998
 6580TIP3    H141231   0.891   5.191   3.789  1.5213 -0.7772  0.0878
 6580TIP3    H241232   0.856   5.054   3.844  1.6331 -0.6400  0.5006
 6581TIP3   OH241233   2.868   6.344   6.020  0.0915 -0.9056 -0.2694
 6581TIP3    H141234   2.831   6.308   6.101 -0.2031  1.0291  0.5175
 6581TIP3    H241235   2.957   6.370   6.044  0.2125 -0.8715 -0.7500
 6582TIP3   OH241236   0.217   1.886  12.254 -0.0570 -0.2369  0.3242
 6582TIP3    H141237   0.165   1.966  12.244 -0.4916 -0.5139  0.3545
 6582TIP3    H241238   0.211   1.866  12.347 -1.9074 -1.5954 -0.0227
 6583TIP3   OH241239   1.304   6.579   0.359 -0.2575 -0.1837 -0.2478
 6583TIP3    H141240   1.339   6.490   0.347  1.0668  0.4594 -1.5070
 6583TIP3    H241241   1.283   6.608   0.270 -3.2655 -0.1752  0.3592
 6584TIP3   OH241242   0.981   1.376   3.337 -0.2829 -0.5038  0.3272
 6584TIP3    H141243   0.961   1.458   3.383  0.2086  1.0516 -2.0504
 6584TIP3    H241244   0.897   1.345   3.305 -0.3021 -0.1408  0.0214
 6585TIP3   OH241245   1.126   2.633  14.086 -0.2517 -0.4686  0.3345
 6585TIP3    H141246   1.115   2.713  14.136 -0.5633  0.8052 -1.6323
 6585TIP3    H241247   1.116   2.562  14.149 -0.9755  1.0227  1.9542
 6586TIP3   OH241248   1.692   4.179  16.213  0.4614  0.6451  0.1544
 6586TIP3    H141249   1.773   4.131  16.195  0.1773  0.1662  0.1271
 6586TIP3    H241250   1.716   4.241  16.282  1.3771  2.0080 -1.3349
 6587TIP3   OH241251   2.178   6.255   5.887  0.7960  0.8503 -0.0056
 6587TIP3    H141252   2.217   6.224   5.805 -0.5189  0.2360 -0.4315
 6587TIP3    H241253   2.126   6.332   5.861  1.4101  1.4388  0.4846
 6588TIP3   OH241254   3.302   4.278  11.147 -0.5421 -0.2334 -0.1543
 6588TIP3    H141255   3.367   4.260  11.079 -1.0455 -0.4454 -0.5854
 6588TIP3    H241256   3.317   4.369  11.172  0.1188 -0.3668 -0.0296
 6589TIP3   OH241257   2.684   1.315  10.616  0.1075 -0.2204  0.2521
 6589TIP3    H141258   2.669   1.221  10.619 -1.0056 -0.1035 -0.7647
 6589TIP3    H241259   2.650   1.342  10.530  2.0717  0.8355 -0.2620
 6590TIP3   OH241260   1.122   2.926   4.671  0.2152 -0.4259  0.1776
 6590TIP3    H141261   1.051   2.990   4.659  1.5809  0.9418 -1.0422
 6590TIP3    H241262   1.191   2.976   4.715  1.2471 -1.0979 -0.6489
 6591TIP3   OH241263   1.168   1.736   5.510 -0.4536 -0.1237 -0.2822
 6591TIP3    H141264   1.186   1.687   5.430  0.4118 -1.4423  0.6864
 6591TIP3    H241265   1.212   1.820   5.497  0.0422 -0.4884 -1.0094
 6592TIP3   OH241266   2.538   4.221  14.562 -0.0659  0.1495  0.0113
 6592TIP3    H141267   2.509   4.304  14.601  2.0999  0.0275  2.0320
 6592TIP3    H241268   2.580   4.247  14.480 -0.2363  0.9482  0.1702
 6593TIP3   OH241269   4.318   2.942  13.220 -0.0627 -0.1925 -0.2239
 6593TIP3    H141270   4.268   2.920  13.299  1.1249  0.2645  0.6875
 6593TIP3    H241271   4.409   2.924  13.243  0.3148 -0.0066 -1.4878
 6594TIP3   OH241272   2.957   0.642  13.871 -0.5115  0.4349  0.2663
 6594TIP3    H141273   2.982   0.589  13.796 -1.6998  1.1915 -0.6975
 6594TIP3    H241274   2.936   0.728  13.834  2.2726  1.9791  1.8553
 6595TIP3   OH241275   2.750   3.854  10.893  0.1154 -0.2469 -0.1572
 6595TIP3    H141276   2.784   3.908  10.965 -1.4386  0.3615  0.1533
 6595TIP3    H241277   2.724   3.772  10.934  1.1053 -0.6814 -0.3807
 6596TIP3   OH241278   3.638   3.016  15.522 -0.5445 -0.1412 -0.2749
 6596TIP3    H141279   3.610   2.996  15.611 -3.0051  0.2870 -0.8659
 6596TIP3    H241280   3.631   3.111  15.515  0.5867 -0.0744 -0.6489
 6597TIP3   OH241281   0.400   1.929   3.553  0.1722 -0.1723  0.2229
 6597TIP3    H141282   0.407   1.940   3.647 -0.1775 -0.8439  0.3359
 6597TIP3    H241283   0.403   1.834   3.540 -0.5545 -0.1166 -0.3784
 6598TIP3   OH241284   5.024   0.223  14.278  0.2462  0.1043 -0.0378
 6598TIP3    H141285   5.060   0.171  14.350 -0.1065 -0.2187 -0.1000
 6598TIP3    H241286   5.090   0.292  14.264  0.2671  0.2297  0.6616
 6599TIP3   OH241287   4.754   2.037  12.411 -0.3970 -0.3634 -0.0238
 6599TIP3    H141288   4.821   2.029  12.479  0.4662  0.0867 -0.7866
 6599TIP3    H241289   4.804   2.051  12.331 -1.4191 -0.1284 -0.6347
 6600TIP3   OH241290   4.271   4.332  16.971  0.0293  0.0285 -0.2253
 6600TIP3    H141291   4.238   4.364  16.887  0.2727  1.7656  0.3005
 6600TIP3    H241292   4.338   4.396  16.996 -1.7057  0.9784  2.4444
 6601TIP3   OH241293   0.072   4.314  15.337 -0.3439  0.1589  0.0714
 6601TIP3    H141294   0.006   4.327  15.404  0.0118 -2.5485  1.0865
 6601TIP3    H241295   0.029   4.260  15.271  0.6003 -0.9932  0.3724
 6602TIP3   OH241296   4.174   5.682   1.680 -0.1476 -0.3689 -0.0033
 6602TIP3    H141297   4.229   5.695   1.602  2.3304  0.8696  1.7991
 6602TIP3    H241298   4.103   5.745   1.669  0.1484 -0.2078 -1.2366
 6603TIP3   OH241299   4.005   1.638   4.637 -0.0785 -0.4960 -0.2798
 6603TIP3    H141300   4.007   1.565   4.575  0.2513 -0.0395 -0.8128
 6603TIP3    H241301   4.027   1.598   4.722 -2.3791 -1.4739 -0.0532
 6604TIP3   OH241302   3.478   6.500  11.006  0.2234 -0.2211 -0.9398
 6604TIP3    H141303   3.484   6.580  10.953 -1.9023 -0.2625 -1.3151
 6604TIP3    H241304   3.418   6.523  11.077  1.7386 -0.6769  0.5509
 6605TIP3   OH241305   4.056   6.269   1.639 -0.0095  0.1579  0.0986
 6605TIP3    H141306   4.017   6.210   1.574 -1.1198 -0.3100  1.1508
 6605TIP3    H241307   3.990   6.275   1.708  0.2045  2.4152  0.1749
 6606TIP3   OH241308   6.513   6.707   0.237 -0.3395 -0.4006 -0.3787
 6606TIP3    H141309   6.608   6.697   0.244 -0.4774 -2.3566 -0.5415
 6606TIP3    H241310   6.495   6.699   0.143 -0.7062 -0.7717 -0.2816
 6607TIP3   OH241311   5.819   6.026  17.094 -0.0547 -0.0075  0.1285
 6607TIP3    H141312   5.747   6.003  17.035 -0.5815  0.1050  0.7185
 6607TIP3    H241313   5.801   6.116  17.121 -0.8409 -0.6406  1.8799
 6608TIP3   OH241314   5.546   4.467  13.973 -0.4780  0.2394 -0.0382
 6608TIP3    H141315   5.549   4.401  13.904  1.6632  1.3678 -1.1397
 6608TIP3    H241316   5.535   4.550  13.926 -0.7206  0.8862  1.1280
 6609TIP3   OH241317   3.651   6.480  15.298  0.1869 -0.5563 -0.1277
 6609TIP3    H141318   3.647   6.528  15.380 -1.4735  0.8515 -0.9861
 6609TIP3    H241319   3.743   6.487  15.271  0.3432  0.6278  0.6411
 6610TIP3   OH241320   4.163   3.947  16.365 -0.5371 -0.5727 -0.1914
 6610TIP3    H141321   4.213   4.027  16.348 -0.5487 -0.6576 -0.6361
 6610TIP3    H241322   4.227   3.887  16.402 -0.2636 -0.7285 -0.8851
 6611TIP3   OH241323   3.192   5.220   5.507 -0.0443  0.1777  0.3811
 6611TIP3    H141324   3.237   5.266   5.578  0.0915  0.3333  0.1959
 6611TIP3    H241325   3.221   5.265   5.427 -1.6864  1.2888  0.3492
 6612TIP3   OH241326   1.789   5.572  13.119  0.3324 -0.5566  0.1516
 6612TIP3    H141327   1.746   5.593  13.036  0.2343 -1.0031  0.0869
 6612TIP3    H241328   1.778   5.650  13.173 -1.1813 -0.9060  0.3869
 6613TIP3   OH241329   1.669   5.759  16.031 -0.1504 -0.3778  0.4273
 6613TIP3    H141330   1.589   5.714  16.003  0.1864 -0.3005 -0.6682
 6613TIP3    H241331   1.695   5.712  16.111 -0.9353 -0.8084  0.4456
 6614TIP3   OH241332   1.850   5.067   2.523  0.2154 -0.0122  0.4015
 6614TIP3    H141333   1.799   4.991   2.548 -0.2745 -0.5166 -1.9657
 6614TIP3    H241334   1.861   5.116   2.605 -1.5604 -1.3395  1.4981
 6615TIP3   OH241335   5.611   0.594   4.719  0.2027 -0.1500 -0.0135
 6615TIP3    H141336   5.516   0.592   4.735 -0.1087  2.6824 -0.8797
 6615TIP3    H241337   5.646   0.649   4.789  1.3836 -1.7545  0.7205
 6616TIP3   OH241338   5.036   4.204  16.533 -0.3040  0.5964  0.2215
 6616TIP3    H141339   4.970   4.161  16.588 -0.7328  0.5648 -0.3078
 6616TIP3    H241340   5.044   4.292  16.570 -1.4014  0.9407 -0.3291
 6617TIP3   OH241341   6.511   2.540  15.205 -0.6427 -0.1340  0.4349
 6617TIP3    H141342   6.443   2.592  15.248 -0.1816  1.0576 -0.2194
 6617TIP3    H241343   6.557   2.602  15.149 -0.2510 -1.3253 -0.6215
 6618TIP3   OH241344   5.709   4.182   1.120 -0.2352 -0.0150 -0.5885
 6618TIP3    H141345   5.751   4.118   1.062 -0.3268  1.0553 -1.8664
 6618TIP3    H241346   5.735   4.267   1.086 -0.7597  0.6511  0.6165
 6619TIP3   OH241347   4.637   2.206  12.592 -0.3672  0.4810  0.0927
 6619TIP3    H141348   4.651   2.123  12.547 -0.8954  0.2540  0.3453
 6619TIP3    H241349   4.682   2.271  12.537 -1.6961  0.3467 -1.2194
 6620TIP3   OH241350   1.919   0.926   0.670 -0.3710 -0.4476  0.3522
 6620TIP3    H141351   1.855   0.991   0.641 -0.6747 -0.8915  0.0183
 6620TIP3    H241352   1.988   0.928   0.605 -0.1968 -0.1990  0.5408
 6621TIP3   OH241353   3.052   5.382   0.616  0.2274 -0.4294  0.2880
 6621TIP3    H141354   3.107   5.321   0.664 -0.5763 -0.8444  0.6924
 6621TIP3    H241355   3.017   5.441   0.682 -1.1146 -1.1797  0.2806
 6622TIP3   OH241356   5.584   1.877   4.440  0.4390 -0.1803 -0.5404
 6622TIP3    H141357   5.668   1.837   4.461  0.1307 -0.1465  0.8590
 6622TIP3    H241358   5.560   1.840   4.356  0.8747 -1.8060  0.0124
 6623TIP3   OH241359   3.421   2.251   0.886 -0.4340  0.0227  0.4399
 6623TIP3    H141360   3.484   2.275   0.954  0.3577 -0.6130 -0.0504
 6623TIP3    H241361   3.412   2.156   0.894  0.1100 -0.1434 -0.6958
 6624TIP3   OH241362   2.581   2.587  15.744  0.1505  0.2983 -0.4445
 6624TIP3    H141363   2.655   2.538  15.780 -0.0069  0.3645 -0.0221
 6624TIP3    H241364   2.575   2.665  15.799 -0.5616  0.0341 -0.1292
 6625TIP3   OH241365   0.353   4.029  15.531  0.7569  0.4727 -0.0110
 6625TIP3    H141366   0.438   3.998  15.499  1.7474  0.1809  2.6694
 6625TIP3    H241367   0.366   4.044  15.624 -2.3340 -0.2171  0.6579
 6626TIP3   OH241368   0.894   6.723   0.773  0.7848  0.0193  0.3189
 6626TIP3    H141369   0.888   6.817   0.753  0.0368  0.3750  2.0064
 6626TIP3    H241370   0.957   6.689   0.709 -0.3518  1.2765 -1.5634
 6627TIP3   OH241371   1.529   3.652  11.145  0.2170 -0.0524 -0.1947
 6627TIP3    H141372   1.555   3.623  11.232  0.3297  0.1978 -0.1421
 6627TIP3    H241373   1.462   3.719  11.161  0.1933 -0.0512 -0.2999
 6628TIP3   OH241374   3.950   5.406  16.130 -0.1855 -0.1539 -0.1387
 6628TIP3    H141375   3.974   5.341  16.196 -0.4146  0.4986  0.6041
 6628TIP3    H241376   3.882   5.364  16.078 -0.0800 -0.6320  0.1051
 6629TIP3   OH241377   6.402   5.299   1.015 -0.0923  0.5184 -0.0608
 6629TIP3    H141378   6.445   5.340   1.090 -0.9343  1.0778  0.1300
 6629TIP3    H241379   6.351   5.229   1.052 -1.2709  1.3956  0.0253
 6630TIP3   OH241380   3.007   4.299  12.918 -1.0350  0.5927  0.4773
 6630TIP3    H141381   3.009   4.353  12.839 -3.0888 -1.1670 -0.8823
 6630TIP3    H241382   2.926   4.249  12.911 -0.9608 -0.1110  3.4113
 6631TIP3   OH241383   1.379   3.730   2.808 -0.9189  0.3323 -0.6466
 6631TIP3    H141384   1.309   3.688   2.757 -1.2155  0.3315 -0.2461
 6631TIP3    H241385   1.423   3.657   2.852 -0.4829  0.3055 -1.1148
 6632TIP3   OH241386   5.033   6.721  15.640  0.1374  0.1180 -0.2034
 6632TIP3    H141387   4.949   6.712  15.685  1.3008  0.4062  2.1638
 6632TIP3    H241388   5.013   6.776  15.564 -1.7937  0.2728  0.3671
 6633TIP3   OH241389   2.858   5.862  11.038 -0.2948  0.4226  0.4100
 6633TIP3    H141390   2.832   5.943  11.081  2.0896 -0.1148  3.2932
 6633TIP3    H241391   2.795   5.797  11.070 -0.4129  0.6173  0.5771
 6634TIP3   OH241392   3.213   1.919   5.200 -0.1638 -0.1885 -0.2823
 6634TIP3    H141393   3.193   1.864   5.275 -1.6568  2.6537  1.5983
 6634TIP3    H241394   3.309   1.922   5.197 -0.0753 -1.5049  0.5547
 6635TIP3   OH241395   2.765   1.358  16.485 -0.1333 -0.2911  0.4640
 6635TIP3    H141396   2.845   1.335  16.532 -0.6748 -0.9220  1.0907
 6635TIP3    H241397   2.792   1.427  16.425  0.6293  0.3804  1.5397
 6636TIP3   OH241398   6.544   1.809   2.768  0.6479  0.2738 -0.1693
 6636TIP3    H141399   6.584   1.847   2.846  1.5070 -2.3888  0.7714
 6636TIP3    H241400   6.613   1.810   2.702  0.4022  1.0755 -0.4273
 6637TIP3   OH241401   3.161   2.618  11.836  0.1652 -0.4573 -0.4455
 6637TIP3    H141402   3.136   2.697  11.883 -0.7103 -2.3003  2.4364
 6637TIP3    H241403   3.252   2.602  11.861  0.1239 -0.7359 -0.4667
 6638TIP3   OH241404   0.130   1.734   2.511  0.7218  0.4295 -0.1364
 6638TIP3    H141405   0.092   1.678   2.578  0.8801 -1.9896 -1.8958
 6638TIP3    H241406   0.136   1.677   2.434  0.6177  3.0122 -2.1897
 6639TIP3   OH241407   2.618   4.114   0.791  0.2658  0.1581  0.0935
 6639TIP3    H141408   2.707   4.094   0.820  1.2384  1.2519 -1.9601
 6639TIP3    H241409   2.562   4.069   0.854  2.2572 -0.5878  1.4233
 6640TIP3   OH241410   5.944   3.377  12.593  0.0800 -0.0216 -0.2009
 6640TIP3    H141411   5.858   3.410  12.619 -0.7019 -1.0215 -1.4192
 6640TIP3    H241412   5.978   3.443  12.532 -0.3436 -0.1864 -0.6219
 6641TIP3   OH241413   0.299   2.305   2.738 -0.1512  0.4332  0.3238
 6641TIP3    H141414   0.205   2.325   2.743 -0.0435  1.3688 -0.7877
 6641TIP3    H241415   0.312   2.232   2.798 -1.3815  1.0640  1.3972
 6642TIP3   OH241416   5.954   0.629   0.892  0.2521 -0.4905  0.8206
 6642TIP3    H141417   5.983   0.619   0.983 -0.8885 -3.4862  0.9776
 6642TIP3    H241418   5.998   0.558   0.845 -0.2788  0.1396 -0.6849
 6643TIP3   OH241419   2.627   6.033  14.831 -0.4996 -0.4839  0.2965
 6643TIP3    H141420   2.567   6.055  14.902  0.6126 -1.0184  1.4399
 6643TIP3    H241421   2.594   6.081  14.756 -2.0466 -0.3579  1.0282
 6644TIP3   OH241422   3.275   4.916  13.229 -1.2004 -0.1765  0.4079
 6644TIP3    H141423   3.222   4.979  13.181 -1.3477 -0.2594  0.4625
 6644TIP3    H241424   3.365   4.934  13.200 -1.3362 -0.5731 -0.2950
 6645TIP3   OH241425   3.976   4.069  14.703  0.4692 -0.2973  0.0532
 6645TIP3    H141426   4.018   4.116  14.774 -1.6724  0.4237  0.8974
 6645TIP3    H241427   4.039   4.074  14.631  2.2919 -0.2699  1.5704
 6646TIP3   OH241428   2.841   0.575  14.832 -0.6506  0.0727  0.3320
 6646TIP3    H141429   2.761   0.605  14.875 -1.3754 -1.3224  0.0329
 6646TIP3    H241430   2.905   0.568  14.903 -0.5024  2.0455  0.4369
 6647TIP3   OH241431   0.332   3.458   4.705 -0.0035  0.3953 -0.2459
 6647TIP3    H141432   0.239   3.452   4.727  0.1329  0.6997  0.4471
 6647TIP3    H241433   0.362   3.538   4.748  0.4976  0.5054 -0.7837
 6648TIP3   OH241434   3.939   2.833   5.565  0.1556  0.1776 -0.2474
 6648TIP3    H141435   3.926   2.928   5.569  0.2368  0.1944 -0.3984
 6648TIP3    H241436   3.941   2.813   5.472 -0.0638 -0.0008 -0.2141
 6649TIP3   OH241437   0.312   4.148  15.791 -0.1357  0.0465 -0.2511
 6649TIP3    H141438   0.274   4.062  15.810  0.3074 -0.0434  0.2571
 6649TIP3    H241439   0.258   4.183  15.720 -0.6676 -0.4120 -0.0785
 6650TIP3   OH241440   5.583   2.626   2.138  0.6057  0.3426  0.4176
 6650TIP3    H141441   5.489   2.614   2.121  0.7065  0.0109  0.0633
 6650TIP3    H241442   5.600   2.574   2.216  0.6980 -0.4679 -0.1277
 6651TIP3   OH241443   5.466   6.558  14.639  0.1976  0.5874 -0.6404
 6651TIP3    H141444   5.532   6.579  14.705  0.4884 -1.2234 -0.3003
 6651TIP3    H241445   5.383   6.557  14.686  0.5965 -2.5422  0.2530
 6652TIP3   OH241446   2.079   6.728   0.683 -0.5453  0.3018 -0.1259
 6652TIP3    H141447   2.056   6.721   0.775  0.3406 -2.0352 -0.0222
 6652TIP3    H241448   2.160   6.779   0.682 -0.1288 -0.3420  0.4702
 6653TIP3   OH241449   6.474   0.162   2.957 -0.3025  0.1050  0.2361
 6653TIP3    H141450   6.484   0.230   2.891  1.2166  0.1767  0.5118
 6653TIP3    H241451   6.523   0.195   3.033  1.4485 -1.7661 -0.0148
 6654TIP3   OH241452   1.906   2.221  13.660  0.0865  0.6163 -0.3841
 6654TIP3    H141453   1.825   2.183  13.694  1.4226 -1.6782  0.5021
 6654TIP3    H241454   1.927   2.167  13.583  1.7037 -0.1171  0.5180
 6655TIP3   OH241455   6.209   1.548   3.127 -0.1222  0.6696  0.0355
 6655TIP3    H141456   6.175   1.629   3.166 -0.8808  1.0168 -1.2553
 6655TIP3    H241457   6.131   1.502   3.097  0.3507 -0.2459  0.1794
 6656TIP3   OH241458   1.103   3.235  14.505 -0.5639 -0.3794  0.0433
 6656TIP3    H141459   1.041   3.307  14.494  1.0460  0.9896 -0.5824
 6656TIP3    H241460   1.185   3.278  14.528  0.3673 -2.0636  0.0253
 6657TIP3   OH241461   6.442   5.586   3.567  0.1341 -0.1067 -0.3414
 6657TIP3    H141462   6.410   5.603   3.656 -0.4478 -1.3615 -0.2912
 6657TIP3    H241463   6.536   5.572   3.577  0.3195  1.1376 -0.1403
 6658TIP3   OH241464   3.970   4.848   1.563 -0.6210 -0.2881  0.0891
 6658TIP3    H141465   3.967   4.943   1.553  0.2642 -0.3859 -1.4095
 6658TIP3    H241466   3.879   4.820   1.555 -0.8965  0.4205  0.5774
 6659TIP3   OH241467   2.778   3.461   6.063 -0.0619 -0.6859 -0.4744
 6659TIP3    H141468   2.840   3.506   6.007  0.1521 -0.9466 -0.4500
 6659TIP3    H241469   2.810   3.371   6.067  0.1342 -0.5922  0.3542
 6660TIP3   OH241470   3.040   5.116  12.540  0.1120  0.3851  0.4869
 6660TIP3    H141471   2.984   5.184  12.502  0.3290 -0.0331 -0.6204
 6660TIP3    H241472   3.012   5.110  12.631 -0.1506  1.7112  0.5108
 6661TIP3   OH241473   1.106   2.816  13.831 -0.2793 -0.7362  0.8345
 6661TIP3    H141474   1.067   2.759  13.765  2.4085 -1.5781 -0.1501
 6661TIP3    H241475   1.092   2.770  13.914 -0.2182 -1.6874  0.3346
 6662TIP3   OH241476   0.072   5.485   4.340 -0.2561  0.1759  0.0292
 6662TIP3    H141477   0.071   5.411   4.401 -0.7618 -0.2170 -0.4444
 6662TIP3    H241478   0.047   5.561   4.394  0.1863 -0.0097  0.4993
 6663TIP3   OH241479   5.673   2.571   0.921  0.4027  0.3100 -0.3086
 6663TIP3    H141480   5.751   2.530   0.957  0.6479  0.2222 -0.9445
 6663TIP3    H241481   5.625   2.500   0.880  1.0143  0.7076 -1.7521
 6664TIP3   OH241482   3.599   2.549  15.799  0.3515 -0.3970 -0.3991
 6664TIP3    H141483   3.592   2.613  15.871  1.5893 -0.3120 -0.3425
 6664TIP3    H241484   3.509   2.541  15.766 -0.1581 -0.0855  0.8486
 6665TIP3   OH241485   0.279   2.791  13.220 -0.0190 -0.2879 -0.1361
 6665TIP3    H141486   0.341   2.769  13.290  0.5775  0.7323 -0.3288
 6665TIP3    H241487   0.316   2.869  13.179 -2.8896  2.2010  1.6200
 6666TIP3   OH241488   1.239   4.807  11.580  0.0911 -0.5170 -0.5178
 6666TIP3    H141489   1.253   4.824  11.673  0.1571 -1.5158 -0.3387
 6666TIP3    H241490   1.181   4.878  11.551 -0.0189 -0.2651  0.2998
 6667TIP3   OH241491   2.325   0.097  14.977  1.2958  0.2787 -0.2382
 6667TIP3    H141492   2.335   0.002  14.982  1.5022  0.1170 -2.6122
 6667TIP3    H241493   2.321   0.125  15.068 -0.1531 -2.1293  0.5442
 6668TIP3   OH241494   0.762   1.625  15.044 -1.1168  0.3648  0.4620
 6668TIP3    H141495   0.809   1.582  15.115 -0.3927 -0.3077 -0.3950
 6668TIP3    H241496   0.811   1.706  15.027  0.9265 -1.1603 -1.6152
 6669TIP3   OH241497   6.029   4.928   4.241 -0.0335  0.0056 -0.0767
 6669TIP3    H141498   6.114   4.883   4.240 -0.0660 -0.0921  0.9687
 6669TIP3    H241499   5.970   4.870   4.192  0.0143 -0.9107  0.9320
 6670TIP3   OH241500   4.193   1.003  15.730 -0.4168 -0.2462 -0.1898
 6670TIP3    H141501   4.170   0.940  15.798 -0.6369 -1.8908 -1.7275
 6670TIP3    H241502   4.120   0.999  15.668 -0.1725  1.1330 -0.6135
 6671TIP3   OH241503   6.693   3.944   0.786  0.0770 -0.4352 -0.6674
 6671TIP3    H141504   6.769   3.974   0.835  0.7556  0.9840 -2.4892
 6671TIP3    H241505   6.644   4.024   0.766 -0.4924 -1.0281 -1.7550
 6672TIP3   OH241506   0.327   5.556  16.477 -0.1644 -0.2275  0.3339
 6672TIP3    H141507   0.269   5.555  16.553 -0.9455 -0.2224 -0.2440
 6672TIP3    H241508   0.362   5.467  16.472 -1.6219 -0.8024 -0.4010
 6673TIP3   OH241509   2.402   2.787   2.365  0.0305 -1.0066 -0.3134
 6673TIP3    H141510   2.319   2.778   2.318  0.5086  1.3015 -1.7510
 6673TIP3    H241511   2.377   2.802   2.456 -1.0592 -1.5196 -0.5145
 6674TIP3   OH241512   3.738   2.372  10.952  0.2780  0.1169 -0.1559
 6674TIP3    H141513   3.688   2.365  11.034  0.5236  0.3131  0.0120
 6674TIP3    H241514   3.747   2.467  10.938 -3.1410  0.2743 -2.4748
 6675TIP3   OH241515   2.484   0.143  15.637  0.3042  0.0583  0.2719
 6675TIP3    H141516   2.518   0.075  15.694  0.0673 -0.2737  0.0166
 6675TIP3    H241517   2.535   0.221  15.660 -0.1027  0.0480  1.2565
 6676TIP3   OH241518   1.517   0.189  14.668  0.2394 -0.2453 -0.2401
 6676TIP3    H141519   1.523   0.257  14.736 -0.1526  0.6733 -1.0910
 6676TIP3    H241520   1.592   0.205  14.611  0.5204 -0.9615 -0.0842
 6677TIP3   OH241521   0.124   0.477  12.511 -0.0205 -0.1078 -0.0132
 6677TIP3    H141522   0.176   0.551  12.544  0.3873 -0.6360  0.5689
 6677TIP3    H241523   0.039   0.486  12.554  0.8293 -1.3827  2.1435
 6678TIP3   OH241524   2.001   5.207  10.346 -0.1471 -0.0393 -0.1186
 6678TIP3    H141525   1.911   5.228  10.324  0.0651  1.1863  0.1329
 6678TIP3    H241526   2.000   5.192  10.441 -0.2964 -1.2502 -0.2923
 6679TIP3   OH241527   2.910   4.102   0.907  0.0362 -0.7047 -0.0751
 6679TIP3    H141528   2.998   4.122   0.875  0.6800 -1.8573  0.8719
 6679TIP3    H241529   2.897   4.010   0.883 -0.6438 -0.7278  0.3646
 6680TIP3   OH241530   4.334   4.420  13.540  0.8414 -0.0119 -0.2740
 6680TIP3    H141531   4.269   4.357  13.572 -0.4365  0.8224 -1.1229
 6680TIP3    H241532   4.366   4.464  13.618  0.8930 -0.9037  0.2190
 6681TIP3   OH241533   0.152   3.190  13.323  0.0582 -0.4724  0.3275
 6681TIP3    H141534   0.138   3.101  13.292  0.3411 -0.6322  0.6579
 6681TIP3    H241535   0.069   3.234  13.307  0.3633 -0.3926 -1.1750
 6682TIP3   OH241536   1.825   5.459   4.849  0.2302 -0.6013  0.0443
 6682TIP3    H141537   1.758   5.396   4.877  0.7163 -1.2772 -0.2783
 6682TIP3    H241538   1.884   5.465   4.924 -0.0095 -0.2529  0.2073
 6683TIP3   OH241539   6.176   6.788   1.119 -0.3191  0.1815  0.3525
 6683TIP3    H141540   6.187   6.763   1.210 -0.1701 -0.7325  0.0905
 6683TIP3    H241541   6.182   6.706   1.070  1.3544  0.8200 -0.6293
 6684TIP3   OH241542   6.486   4.744   1.036  0.4368  0.2835 -0.0964
 6684TIP3    H141543   6.545   4.770   0.965  0.0339  1.8190  0.0774
 6684TIP3    H241544   6.501   4.810   1.105 -1.1385  0.4575  0.1252
 6685TIP3   OH241545   0.961   2.010  13.641 -0.2967  0.2241 -0.2143
 6685TIP3    H141546   0.948   2.023  13.735  0.1909 -1.0167  0.0448
 6685TIP3    H241547   1.022   2.080  13.616 -0.3151  0.4755  0.4185
 6686TIP3   OH241548   2.895   3.312  12.787  0.6670 -0.0791 -0.6138
 6686TIP3    H141549   2.970   3.253  12.777 -0.9197 -1.8944 -3.2013
 6686TIP3    H241550   2.820   3.253  12.796 -0.6709  1.6240 -0.2622
 6687TIP3   OH241551   5.273   6.253   4.131 -0.5438 -0.3420  0.2639
 6687TIP3    H141552   5.282   6.158   4.125 -0.8979 -0.2936 -1.3528
 6687TIP3    H241553   5.180   6.267   4.149 -0.4838 -0.2965  0.5435
 6688TIP3   OH241554   5.785   0.203   3.706 -0.3464  0.2126 -0.4878
 6688TIP3    H141555   5.723   0.264   3.748 -1.8807  0.4319 -2.9037
 6688TIP3    H241556   5.810   0.247   3.625  1.7494 -0.6318 -0.3537
 6689TIP3   OH241557   0.910   0.907   2.964 -0.2393 -0.4558  0.0456
 6689TIP3    H141558   0.849   0.960   3.015 -0.0019 -0.3767  0.2457
 6689TIP3    H241559   0.996   0.944   2.982 -0.3418  1.1076 -2.2593
 6690TIP3   OH241560   4.898   3.926  15.168  0.0395  0.3204 -0.5802
 6690TIP3    H141561   4.873   3.834  15.160 -1.4756  0.3650  2.2837
 6690TIP3    H241562   4.860   3.967  15.090 -0.3151 -1.2572 -1.2919
 6691TIP3   OH241563   4.377   0.869  13.832  0.6434  0.0024 -0.1281
 6691TIP3    H141564   4.458   0.888  13.879  1.3241  0.8268 -1.5642
 6691TIP3    H241565   4.406   0.834  13.748 -0.3899  1.7642 -1.2909
 6692TIP3   OH241566   2.305   3.224  14.196 -0.3887 -0.1469 -0.0994
 6692TIP3    H141567   2.217   3.189  14.184 -0.1721 -1.2830  1.2898
 6692TIP3    H241568   2.354   3.152  14.235  0.8531  0.8305  0.2153
 6693TIP3   OH241569   1.621   2.250   6.223 -0.0003  0.7883 -0.1873
 6693TIP3    H141570   1.528   2.230   6.206 -0.0256  0.0440  0.7094
 6693TIP3    H241571   1.623   2.344   6.238 -1.0285  0.5119  2.0814
 6694TIP3   OH241572   3.324   3.296   3.400  0.2672 -0.4584 -0.0793
 6694TIP3    H141573   3.267   3.264   3.330  1.9495  0.0613 -1.8060
 6694TIP3    H241574   3.370   3.370   3.360 -0.2520  1.2707  2.3202
 6695TIP3   OH241575   4.922   3.116  13.170  0.1602  0.1079 -0.0194
 6695TIP3    H141576   4.961   3.116  13.257 -0.3464  1.7482  0.2431
 6695TIP3    H241577   4.995   3.136  13.111  0.5661 -1.3273 -0.0278
 6696TIP3   OH241578   4.302   2.121  12.171 -0.3570 -0.4426  0.4824
 6696TIP3    H141579   4.348   2.113  12.254  0.3296  0.0660  0.1559
 6696TIP3    H241580   4.260   2.036  12.159  0.6170 -0.9700  0.7218
 6697TIP3   OH241581   1.243   2.218  16.121 -0.2671  0.5114 -0.2421
 6697TIP3    H141582   1.153   2.188  16.130 -0.2169  0.7441  1.4659
 6697TIP3    H241583   1.256   2.276  16.196  0.8245  1.7453 -1.3263
 6698TIP3   OH241584   2.025   4.250   3.412  0.0211  0.0868 -0.1179
 6698TIP3    H141585   1.937   4.285   3.399 -0.9142 -2.1460 -0.2120
 6698TIP3    H241586   2.033   4.180   3.347  2.1368  0.6672 -0.5654
 6699TIP3   OH241587   4.376   1.582  13.376  0.0219  0.1981 -0.0755
 6699TIP3    H141588   4.431   1.572  13.298  0.4138  0.7974  0.1183
 6699TIP3    H241589   4.402   1.511  13.434  2.6391  2.0402  1.2149
 6700TIP3   OH241590   4.799   6.117   4.352 -0.4576  0.0401  0.0211
 6700TIP3    H141591   4.786   6.212   4.349 -0.4552  0.0215 -0.6426
 6700TIP3    H241592   4.824   6.100   4.443  1.0271  0.8658 -0.1883
 6701TIP3   OH241593   3.110   3.804  11.937  0.3173  0.2550  0.2622
 6701TIP3    H141594   3.126   3.713  11.912  0.9772 -0.0374  1.6575
 6701TIP3    H241595   3.179   3.825  11.999 -0.8173  1.1453  1.2842
 6702TIP3   OH241596   0.783   4.142   3.088  0.1579  0.1658 -0.0835
 6702TIP3    H141597   0.720   4.110   3.153  0.8012  0.5058  0.7321
 6702TIP3    H241598   0.804   4.065   3.035 -0.8787  0.0310 -0.3224
 6703TIP3   OH241599   2.875   1.294   3.701 -0.2147  0.0804  0.4283
 6703TIP3    H141600   2.910   1.234   3.635 -2.7403 -1.6467  0.5055
 6703TIP3    H241601   2.910   1.379   3.676 -0.6017 -0.5711 -2.8433
 6704TIP3   OH241602   5.975   1.864   0.624 -0.6443 -0.2907 -0.5597
 6704TIP3    H141603   5.984   1.779   0.581 -0.2182  0.1105 -1.2913
 6704TIP3    H241604   6.065   1.889   0.647 -0.6835  0.2659 -0.9717
 6705TIP3   OH241605   0.492   1.136  11.612  0.5976  0.1571 -0.0081
 6705TIP3    H141606   0.463   1.096  11.694 -0.2368 -0.3342 -0.5307
 6705TIP3    H241607   0.532   1.219  11.639 -1.3594  0.9026  0.7606
 6706TIP3   OH241608   6.383   0.894  16.162 -0.1342 -0.1798 -0.3939
 6706TIP3    H141609   6.370   0.816  16.216 -1.4247  1.2120  1.4035
 6706TIP3    H241610   6.392   0.859  16.073  0.6127 -2.4468  0.4866
 6707TIP3   OH241611   1.862   0.407  13.804 -0.4143  0.8216  0.4579
 6707TIP3    H141612   1.890   0.445  13.721  0.5214 -0.1583  0.3007
 6707TIP3    H241613   1.772   0.438  13.816 -0.6510  0.7688 -1.0389
 6708TIP3   OH241614   0.496   3.632  12.211 -0.0737  0.6604 -0.0171
 6708TIP3    H141615   0.405   3.650  12.234  0.0732 -1.3782  2.7859
 6708TIP3    H241616   0.545   3.707  12.244 -0.6862  1.6612 -1.3340
 6709TIP3   OH241617   6.597   2.629   3.620 -0.3530  0.0504  0.1427
 6709TIP3    H141618   6.640   2.653   3.538 -1.5990 -1.0478 -0.8865
 6709TIP3    H241619   6.510   2.668   3.615 -1.1081 -1.5327  0.0588
 6710TIP3   OH241620   3.609   5.006   3.987  0.2872  0.0437  0.1805
 6710TIP3    H141621   3.522   5.017   3.948  0.4819  0.4611 -0.1512
 6710TIP3    H241622   3.670   5.012   3.912  0.6067 -0.0870  0.4272
 6711TIP3   OH241623   4.187   5.011  11.608  0.1059 -0.1449 -0.1519
 6711TIP3    H141624   4.240   5.087  11.584 -0.1124  0.2843  0.6748
 6711TIP3    H241625   4.209   4.944  11.543  0.6399  0.4752 -0.6182
 6712TIP3   OH241626   1.413   1.825   0.723  0.2311 -0.1235 -0.5746
 6712TIP3    H141627   1.380   1.915   0.717  0.6753  0.1116  0.3259
 6712TIP3    H241628   1.498   1.833   0.765 -0.4972 -1.1089  1.2135
 6713TIP3   OH241629   2.210   6.094   0.180  0.3890  0.5738  0.4325
 6713TIP3    H141630   2.221   6.019   0.121 -1.7541  1.7050 -1.5698
 6713TIP3    H241631   2.158   6.060   0.252 -2.5412  0.5019 -1.5584
 6714TIP3   OH241632   0.870   4.519  12.527 -0.4475  0.3810 -0.0929
 6714TIP3    H141633   0.790   4.570  12.515  0.2464  1.2991 -0.9988
 6714TIP3    H241634   0.941   4.582  12.514  0.4313 -0.7775 -1.1849
 6715TIP3   OH241635   4.674   2.250   2.082 -0.0402  0.5670 -0.4195
 6715TIP3    H141636   4.665   2.155   2.070  0.2776  0.1296  2.2481
 6715TIP3    H241637   4.697   2.282   1.995  0.2558 -1.8438 -1.3295
 6716TIP3   OH241638   2.824   1.758  14.818  0.3673  0.0049  0.6895
 6716TIP3    H141639   2.908   1.718  14.797 -0.2863 -0.2183 -1.9048
 6716TIP3    H241640   2.759   1.690  14.799 -0.6069  1.4008 -1.4582
 6717TIP3   OH241641   3.711   1.422   1.428 -0.8656  0.1253  0.0937
 6717TIP3    H141642   3.620   1.393   1.440 -1.1208  0.7022 -0.3646
 6717TIP3    H241643   3.721   1.494   1.490 -0.6836 -0.0200  0.2315
 6718TIP3   OH241644   0.037   3.128   3.292  0.3116  0.0913 -0.3178
 6718TIP3    H141645   0.100   3.151   3.360 -0.5046 -1.0221  0.8539
 6718TIP3    H241646   0.041   3.201   3.230  0.1756  1.7815  1.5546
 6719TIP3   OH241647   0.711   4.526   1.423  0.4774 -0.1261 -0.8367
 6719TIP3    H141648   0.669   4.611   1.440  0.2713 -0.3305 -0.3253
 6719TIP3    H241649   0.642   4.473   1.384 -0.2036 -0.9471  1.3503
 6720TIP3   OH241650   1.581   1.505  15.737  0.6435  0.5431  0.4469
 6720TIP3    H141651   1.596   1.481  15.828  1.5079 -0.0606  0.1578
 6720TIP3    H241652   1.657   1.471  15.690  0.6669  1.6453 -0.3717
 6721TIP3   OH241653   1.825   2.748  15.670 -0.0291  0.8618  0.3842
 6721TIP3    H141654   1.812   2.758  15.764  0.5345  1.6434  0.3925
 6721TIP3    H241655   1.869   2.829  15.643 -1.1104  1.1075 -0.7363
 6722TIP3   OH241656   3.979   4.414  12.083  0.1489 -0.3113  0.0085
 6722TIP3    H141657   3.977   4.459  11.998 -1.4621 -1.4008 -0.5935
 6722TIP3    H241658   4.058   4.360  12.080  0.7171  0.5170 -0.3099
 6723TIP3   OH241659   3.523   6.510  14.801 -0.1646 -0.1498  0.0661
 6723TIP3    H141660   3.435   6.544  14.820  0.2310  1.2788 -0.4616
 6723TIP3    H241661   3.523   6.500  14.706 -0.0536 -1.0484  0.1598
 6724TIP3   OH241662   5.415   5.273   3.276  0.2225  0.0758 -0.1866
 6724TIP3    H141663   5.366   5.354   3.288  0.1034  0.0999 -0.7941
 6724TIP3    H241664   5.427   5.266   3.181  0.6183 -0.3895 -0.1074
 6725TIP3   OH241665   1.937   1.830   0.437  0.0742  0.2151  0.2929
 6725TIP3    H141666   1.984   1.861   0.360  0.4209  1.6030  1.0201
 6725TIP3    H241667   1.941   1.735   0.432 -0.1308  0.2694 -1.5149
 6726TIP3   OH241668   5.952   6.199   2.990 -0.6377 -0.5636 -0.4643
 6726TIP3    H141669   5.901   6.256   2.932 -0.1620 -2.3773 -2.8073
 6726TIP3    H241670   6.031   6.178   2.941  0.7021 -0.7558  1.6261
 6727TIP3   OH241671   1.804   5.267   1.788  0.3311 -0.5810 -0.2077
 6727TIP3    H141672   1.773   5.299   1.873  2.0612 -0.8663  0.5609
 6727TIP3    H241673   1.728   5.278   1.730 -0.0784  2.1859  0.6919
 6728TIP3   OH241674   4.938   4.633  11.274  0.2430 -0.4076  0.8308
 6728TIP3    H141675   4.941   4.728  11.264  0.6126 -0.3746  1.2163
 6728TIP3    H241676   4.847   4.614  11.296 -0.2321 -0.3243 -0.8821
 6729TIP3   OH241677   4.828   3.190   3.539  0.3133  0.3270  0.0560
 6729TIP3    H141678   4.887   3.262   3.517 -0.3642  1.5104  1.9329
 6729TIP3    H241679   4.862   3.116   3.489  2.6485  1.2658  0.1116
 6730TIP3   OH241680   6.012   1.920   2.218 -0.5792 -0.1479  0.7128
 6730TIP3    H141681   6.041   1.886   2.303  1.0432 -0.8510 -0.0724
 6730TIP3    H241682   6.082   1.979   2.191  0.4522 -2.1390 -1.4118
 6731TIP3   OH241683   6.487   1.424  12.380 -0.3271 -0.1106 -0.1279
 6731TIP3    H141684   6.487   1.359  12.310  1.4335  0.8154 -1.0521
 6731TIP3    H241685   6.434   1.385  12.449  1.1422 -2.7869 -0.4123
 6732TIP3   OH241686   0.464   3.206  14.657 -0.3820  0.7188  0.1683
 6732TIP3    H141687   0.505   3.280  14.701 -0.8342  1.1381 -0.1133
 6732TIP3    H241688   0.525   3.133  14.672  0.0973  1.1578  0.3875
 6733TIP3   OH241689   6.757   2.885  15.277  0.0687  0.1250  0.0521
 6733TIP3    H141690   6.831   2.827  15.258 -1.5392 -1.4806 -1.7399
 6733TIP3    H241691   6.753   2.889  15.372  1.7040 -0.7301  0.1924
 6734TIP3   OH241692   2.365   4.783   0.744  0.1390  0.6235  0.1966
 6734TIP3    H141693   2.306   4.708   0.752 -0.4200  0.8353 -1.5530
 6734TIP3    H241694   2.439   4.760   0.800 -0.3206 -0.9395  0.2336
 6735TIP3   OH241695   6.112   5.524  12.352 -0.1933  0.3053 -0.5529
 6735TIP3    H141696   6.074   5.440  12.377  0.2529 -0.6636 -2.8736
 6735TIP3    H241697   6.052   5.558  12.286  0.5724  0.9554 -0.9221
 6736TIP3   OH241698   0.712   5.319   2.125  0.1689  0.0439  0.3361
 6736TIP3    H141699   0.795   5.309   2.078  0.0128 -0.9053  0.2353
 6736TIP3    H241700   0.727   5.392   2.185  1.2855 -0.4940  0.7515
 6737TIP3   OH241701   5.900   6.855  11.276  0.1354 -0.2035  0.0482
 6737TIP3    H141702   5.843   6.830  11.203  0.1012  0.2413 -0.0776
 6737TIP3    H241703   5.904   6.777  11.331 -2.0558  0.3262  1.0273
 6738TIP3   OH241704   1.546   2.849   2.100 -0.6587 -0.4607  0.2578
 6738TIP3    H141705   1.555   2.923   2.040 -3.0557 -0.1742  0.1532
 6738TIP3    H241706   1.473   2.798   2.065 -1.1830 -1.0855  2.1120
 6739TIP3   OH241707   5.489   3.149  15.606  0.1895  0.2925  0.0335
 6739TIP3    H141708   5.531   3.233  15.588  1.0689  0.0317  0.8238
 6739TIP3    H241709   5.531   3.088  15.546 -1.7625  0.7174 -1.9181
 6740TIP3   OH241710   2.294   6.094   3.867  0.7552  0.2398  0.4537
 6740TIP3    H141711   2.347   6.167   3.835 -0.4573  0.4281 -1.2422
 6740TIP3    H241712   2.218   6.092   3.810 -0.7771 -0.4374  2.3942
 6741TIP3   OH241713   3.063   4.158  11.811 -0.3059  0.3158  0.0110
 6741TIP3    H141714   2.968   4.159  11.817 -0.4719 -2.4933 -0.6136
 6741TIP3    H241715   3.081   4.162  11.717  0.1032 -0.6690  0.0351
 6742TIP3   OH241716   3.963   6.188  12.412  0.0967  0.3187 -0.4813
 6742TIP3    H141717   3.977   6.127  12.484  0.3823 -0.1404 -0.9270
 6742TIP3    H241718   4.048   6.195  12.369 -0.0773  0.5817 -0.7909
 6743TIP3   OH241719   4.047   6.146   3.885  0.1133  0.5287 -0.2253
 6743TIP3    H141720   4.059   6.076   3.821  1.0625  0.9105 -0.4872
 6743TIP3    H241721   4.130   6.194   3.883 -0.5219  1.6586 -0.0402
 6744TIP3   OH241722   5.171   6.460  11.722  0.1309  0.2278 -0.1888
 6744TIP3    H141723   5.122   6.520  11.666 -0.0673  1.2220  1.0103
 6744TIP3    H241724   5.223   6.517  11.779  0.5188 -0.7545  0.4615
 6745TIP3   OH241725   6.591   3.872  10.932 -0.2039  0.0035 -0.3132
 6745TIP3    H141726   6.536   3.896  11.006 -0.9250  0.4484 -0.9859
 6745TIP3    H241727   6.638   3.952  10.910  0.2316 -0.2046 -0.1630
 6746TIP3   OH241728   2.701   4.032   1.219  0.5725 -0.0527  0.0976
 6746TIP3    H141729   2.797   4.041   1.215  0.9267 -2.0158  2.1320
 6746TIP3    H241730   2.669   4.121   1.230  1.9154  0.9516 -3.0619
 6747TIP3   OH241731   3.274   6.297   5.436 -0.1909 -0.6041 -0.0469
 6747TIP3    H141732   3.254   6.215   5.482  2.4521 -2.3216 -1.7185
 6747TIP3    H241733   3.327   6.270   5.361  2.4185  2.7694  0.3574
 6748TIP3   OH241734   4.831   4.514  15.933  0.0361  0.0148  0.0862
 6748TIP3    H141735   4.883   4.449  15.981 -0.5430  0.0408  0.7678
 6748TIP3    H241736   4.799   4.466  15.856 -0.2611 -0.4735  0.5036
 6749TIP3   OH241737   1.229   6.113   1.736 -0.6412 -0.2468  0.0185
 6749TIP3    H141738   1.320   6.084   1.737  0.0577  1.7956  0.2154
 6749TIP3    H241739   1.205   6.114   1.643 -1.0691 -2.4337  0.0639
 6750TIP3   OH241740   6.418   6.784  14.985 -0.3416  0.1304 -0.8123
 6750TIP3    H141741   6.454   6.868  14.954 -1.0005  0.0462 -1.8826
 6750TIP3    H241742   6.488   6.721  14.969  0.0575  0.4218 -0.2575
 6751TIP3   OH241743   3.749   0.021  13.058  0.1761 -0.3754  0.0510
 6751TIP3    H141744   3.787   0.084  12.996  0.9678  0.2184  1.0990
 6751TIP3    H241745   3.825  -0.027  13.092 -0.3643 -1.4693 -0.2580
 6752TIP3   OH241746   4.016   3.975   6.105  0.0167  0.0030 -0.2732
 6752TIP3    H141747   3.970   3.895   6.130  1.0929 -0.5101  0.0924
 6752TIP3    H241748   3.977   4.000   6.021 -0.1993 -0.9998 -0.4756
 6753TIP3   OH241749   1.171   4.137   4.111 -0.0700 -0.5052  0.0394
 6753TIP3    H141750   1.084   4.151   4.148  0.3501  0.5764  0.6402
 6753TIP3    H241751   1.159   4.151   4.017 -0.4915 -0.0956  0.1484
 6754TIP3   OH241752   3.661   4.687  13.782 -0.1606  0.1446  0.2964
 6754TIP3    H141753   3.648   4.606  13.832  0.2012  0.2584  0.5765
 6754TIP3    H241754   3.643   4.663  13.691  0.3611 -0.3556  0.3217
 6755TIP3   OH241755   4.796   5.159   0.263 -0.1449 -0.3994  0.1391
 6755TIP3    H141756   4.759   5.079   0.226  1.9402 -0.7907 -1.3067
 6755TIP3    H241757   4.726   5.196   0.317 -2.9588 -0.5993 -3.0191
 6756TIP3   OH241758   1.330   3.308   3.575  0.2370  0.5729  0.2524
 6756TIP3    H141759   1.284   3.390   3.592 -1.2284 -0.3103  0.7472
 6756TIP3    H241760   1.296   3.278   3.491  2.4778  1.5656 -1.1069
 6757TIP3   OH241761   0.869   1.293  13.667 -0.0524 -0.0771 -0.4652
 6757TIP3    H141762   0.903   1.338  13.590  0.7440  0.3593  0.1199
 6757TIP3    H241763   0.817   1.359  13.713  0.5214  0.0520  0.0185
 6758TIP3   OH241764   6.446   6.845   2.052  0.2998 -0.6115  0.3892
 6758TIP3    H141765   6.492   6.766   2.021  0.6283  0.1489 -1.2006
 6758TIP3    H241766   6.507   6.916   2.032 -0.3077  0.1254  1.1215
 6759TIP3   OH241767   5.880   4.796  14.158  0.2117  0.2683 -0.4655
 6759TIP3    H141768   5.915   4.829  14.075  0.1845  1.7620  0.0883
 6759TIP3    H241769   5.789   4.775  14.139  0.8587 -1.9070 -1.4501
 6760TIP3   OH241770   6.108   5.834  14.949 -0.1733 -0.6045  0.2579
 6760TIP3    H141771   6.014   5.816  14.941 -0.0894 -0.6764 -0.7720
 6760TIP3    H241772   6.115   5.896  15.022 -1.1830  0.5491 -0.5769
 6761TIP3   OH241773   1.890   0.670   3.009  0.1123  0.2909  0.3622
 6761TIP3    H141774   1.860   0.693   3.097  0.3137  1.0096  0.2465
 6761TIP3    H241775   1.912   0.577   3.015 -1.2504 -0.0346  0.6918
 6762TIP3   OH241776   1.855   6.803   3.537  1.2573 -0.1460  0.6788
 6762TIP3    H141777   1.888   6.828   3.623  1.6602  0.5355  0.3330
 6762TIP3    H241778   1.792   6.872   3.514  0.4221 -0.8312  0.8353
 6763TIP3   OH241779   6.827   4.438   6.341  0.1653 -0.3902 -0.4675
 6763TIP3    H141780   6.922   4.427   6.335  0.3011  0.0209  0.6665
 6763TIP3    H241781   6.806   4.415   6.432 -0.7845 -0.2206 -0.6357
 6764TIP3   OH241782   6.426   2.221   4.077 -0.0509  0.0773  0.2002
 6764TIP3    H141783   6.514   2.209   4.043 -0.3080  0.9195 -0.8064
 6764TIP3    H241784   6.383   2.137   4.061  0.1633  0.1052 -0.5814
 6765TIP3   OH241785   3.500   4.376   3.112  0.7609  0.6239  0.8223
 6765TIP3    H141786   3.466   4.453   3.158 -1.1710 -0.7179  1.7612
 6765TIP3    H241787   3.426   4.315   3.110  1.4151 -0.2212 -2.2182
 6766TIP3   OH241788   1.695   0.467   5.937  0.0501 -0.9840  0.1380
 6766TIP3    H141789   1.709   0.517   6.018 -0.1698  0.1805 -0.5164
 6766TIP3    H241790   1.602   0.477   5.919  0.1255 -1.1204 -0.3322
 6767TIP3   OH241791   6.573   3.158  11.152 -0.3140 -0.2409  0.3422
 6767TIP3    H141792   6.575   3.066  11.125  0.2349 -0.2891  0.5332
 6767TIP3    H241793   6.644   3.199  11.101 -0.5405  0.0696  0.2781
 6768TIP3   OH241794   0.078   2.901   0.085 -0.7042  0.3297 -0.0897
 6768TIP3    H141795   0.022   2.937   0.154 -0.2971  1.4654 -0.3237
 6768TIP3    H241796   0.092   2.975   0.025 -0.1341 -0.3337 -0.7857
 6769TIP3   OH241797   3.730   4.771  11.632 -0.5377  0.1880 -0.1327
 6769TIP3    H141798   3.755   4.842  11.573 -0.5336 -1.7100 -2.5657
 6769TIP3    H241799   3.648   4.800  11.671 -0.0752  1.8863 -0.3595
 6770TIP3   OH241800   1.699   3.207   2.681 -0.2606  0.8496 -0.0784
 6770TIP3    H141801   1.763   3.229   2.612  1.1173 -0.0128  0.8650
 6770TIP3    H241802   1.665   3.291   2.710  0.8862  1.3885 -0.2220
 6771TIP3   OH241803   0.838   4.554  15.443 -0.0102 -0.2650  0.1343
 6771TIP3    H141804   0.750   4.547  15.407 -0.4285  1.7716  0.6291
 6771TIP3    H241805   0.825   4.550  15.538 -0.1654  3.8863  0.4582
 6772TIP3   OH241806   2.106   1.488   5.448  0.0460  0.4379  0.1846
 6772TIP3    H141807   2.121   1.402   5.487 -1.6911  0.0708  0.1317
 6772TIP3    H241808   2.156   1.548   5.503 -0.9357 -0.2764  1.9694
 6773TIP3   OH241809   4.950   2.277   0.643 -0.4676 -0.1287  0.0945
 6773TIP3    H141810   5.004   2.206   0.610 -0.0625  0.4536 -0.5086
 6773TIP3    H241811   4.883   2.233   0.696 -0.6429 -1.0119 -0.8306
 6774TIP3   OH241812   4.090   4.639   0.351  0.0597  0.2933 -0.6795
 6774TIP3    H141813   4.029   4.702   0.391 -0.1852  0.6500 -1.6021
 6774TIP3    H241814   4.065   4.555   0.390 -0.3753  0.5864 -0.3083
 6775TIP3   OH241815   3.061   1.884  11.720 -0.3748  0.6376 -0.1717
 6775TIP3    H141816   3.082   1.871  11.812  1.9168 -0.1434 -0.7528
 6775TIP3    H241817   3.085   1.975  11.702 -1.1950  0.9136  0.0566
 6776TIP3   OH241818   1.333   6.652  12.548 -0.7652 -0.1557  0.7695
 6776TIP3    H141819   1.243   6.668  12.519 -1.3207 -0.1159  2.4047
 6776TIP3    H241820   1.330   6.668  12.643  1.6544  2.9071  0.4787
 6777TIP3   OH241821   2.991   4.659   0.589 -0.4595  0.2770  0.9158
 6777TIP3    H141822   2.906   4.615   0.591  0.2123 -1.8696 -3.8654
 6777TIP3    H241823   3.055   4.589   0.604  0.4946  0.1644 -2.6927
 6778TIP3   OH241824   1.111   1.877   1.293  0.4221 -0.4527 -0.4105
 6778TIP3    H141825   1.062   1.811   1.243 -1.6398  0.5273  0.2313
 6778TIP3    H241826   1.168   1.825   1.350 -0.6338 -1.6870 -0.4139
 6779TIP3   OH241827   4.872   3.534  13.279 -0.3846  0.0799  0.0115
 6779TIP3    H141828   4.866   3.441  13.299  0.6421 -0.0972 -0.4530
 6779TIP3    H241829   4.942   3.541  13.214 -1.5308  0.9895 -1.2050
 6780TIP3   OH241830   0.666   5.544  12.750 -0.4062 -0.4318  0.2411
 6780TIP3    H141831   0.729   5.585  12.810 -2.9587  1.4272  1.8701
 6780TIP3    H241832   0.598   5.508  12.807 -0.7385 -2.6036 -1.4279
 6781TIP3   OH241833   2.001   6.526  13.576 -0.5284  0.5083 -0.0877
 6781TIP3    H141834   2.073   6.560  13.522  0.3733  0.3913  1.0070
 6781TIP3    H241835   1.977   6.599  13.633 -0.9516  0.3889 -0.1075
 6782TIP3   OH241836   5.271   4.624   4.533 -0.1763 -0.1613 -0.3138
 6782TIP3    H141837   5.310   4.539   4.553  2.1730  0.9107 -0.0200
 6782TIP3    H241838   5.245   4.659   4.618  3.2523  1.3452  0.2780
 6783TIP3   OH241839   0.950   4.165   4.700  0.1896  0.2338  0.1269
 6783TIP3    H141840   0.959   4.207   4.615  2.3014 -0.3774 -0.0239
 6783TIP3    H241841   0.981   4.076   4.686 -0.0797 -0.0750  1.3908
 6784TIP3   OH241842   0.190   2.418  15.684  0.3224  0.2680 -0.0915
 6784TIP3    H141843   0.178   2.403  15.591 -2.6100  1.7248 -0.0659
 6784TIP3    H241844   0.179   2.513  15.695  1.8054  0.3025  1.6196
 6785TIP3   OH241845   5.095   5.765  10.932 -0.2547 -0.6109  0.1138
 6785TIP3    H141846   5.175   5.713  10.928  0.0346 -0.2255  0.7410
 6785TIP3    H241847   5.121   5.847  10.974 -1.0248 -0.5763  0.5484
 6786TIP3   OH241848   3.497   6.837   1.391 -0.0162  0.5537 -0.6376
 6786TIP3    H141849   3.497   6.861   1.484  0.9527 -0.3911 -0.3718
 6786TIP3    H241850   3.542   6.910   1.348 -0.4938  1.0110 -0.3736
 6787TIP3   OH241851   3.255   3.078   1.092 -0.1181 -0.1366 -0.0764
 6787TIP3    H141852   3.192   3.142   1.125  0.7414  0.6765  0.0275
 6787TIP3    H241853   3.340   3.119   1.106  0.4894 -1.5205  0.4685
 6788TIP3   OH241854   2.537   5.971  15.369 -0.3121 -0.1103 -0.1698
 6788TIP3    H141855   2.500   6.055  15.395 -1.4450 -0.2952 -1.1041
 6788TIP3    H241856   2.482   5.906  15.413 -0.1930 -0.3733 -0.4081
 6789TIP3   OH241857   5.601   1.263   5.737 -0.4021  0.3215 -0.1986
 6789TIP3    H141858   5.632   1.195   5.797 -0.2369  0.7243  0.1766
 6789TIP3    H241859   5.589   1.217   5.654 -1.7936 -0.5000  0.4319
 6790TIP3   OH241860   2.724   5.241  16.871 -0.5793  0.0679 -0.5587
 6790TIP3    H141861   2.780   5.317  16.883  0.9911 -1.0529 -0.5483
 6790TIP3    H241862   2.654   5.252  16.936  1.1491  0.1306  1.3803
 6791TIP3   OH241863   5.884   3.141   2.748  0.4212  0.0717  0.4940
 6791TIP3    H141864   5.970   3.138   2.789  0.8142 -0.6123 -0.3749
 6791TIP3    H241865   5.850   3.228   2.772  1.6710  0.6707  0.1938
 6792TIP3   OH241866   0.479   1.487  13.554 -0.3895 -0.5261  0.9440
 6792TIP3    H141867   0.475   1.546  13.630 -0.0603 -0.5442  0.9794
 6792TIP3    H241868   0.389   1.457  13.542 -0.9266  1.4075 -0.2082
 6793TIP3   OH241869   2.809   0.007   4.345  0.5173 -0.2440  0.2676
 6793TIP3    H141870   2.884  -0.043   4.314  0.5701 -0.6758  1.0521
 6793TIP3    H241871   2.741  -0.059   4.359  0.0197  0.1311 -0.3515
 6794TIP3   OH241872   3.310   0.234  14.708 -0.1146  0.0945 -0.4802
 6794TIP3    H141873   3.247   0.240  14.780 -1.4524 -0.0426 -1.6079
 6794TIP3    H241874   3.384   0.288  14.737 -0.5348 -0.0906  1.0603
 6795TIP3   OH241875   2.198   1.753  12.434 -0.1165  0.3460 -0.1614
 6795TIP3    H141876   2.268   1.806  12.473 -1.4493  1.6874  0.5057
 6795TIP3    H241877   2.180   1.795  12.350 -0.1244 -0.0175 -0.3461
 6796TIP3   OH241878   4.229   1.979  11.365 -0.4326 -0.0323 -0.7209
 6796TIP3    H141879   4.243   2.023  11.449 -0.5952  2.0427 -1.7188
 6796TIP3    H241880   4.228   1.886  11.387 -0.8496  0.4522  1.6315
 6797TIP3   OH241881   3.372   3.019   6.493  0.1958  0.2370  0.0099
 6797TIP3    H141882   3.319   2.939   6.491  1.3166 -0.5046 -1.2591
 6797TIP3    H241883   3.328   3.079   6.432 -0.1493  0.2920  0.3039
 6798TIP3   OH241884   2.854   1.479   5.706 -0.3294  0.1761 -0.2394
 6798TIP3    H141885   2.820   1.505   5.620 -1.0803 -0.7340 -0.2390
 6798TIP3    H241886   2.819   1.543   5.767 -0.5097  0.3223 -0.4951
 6799TIP3   OH241887   0.668   0.680  16.330  0.7820 -0.2412  0.6379
 6799TIP3    H141888   0.742   0.734  16.360  0.6894  0.8751 -1.0041
 6799TIP3    H241889   0.697   0.645  16.246 -0.4178 -0.0766  0.1421
 6800TIP3   OH241890   1.945   5.023  13.497  0.6885  0.0266  0.4932
 6800TIP3    H141891   2.028   5.034  13.449 -0.1757 -0.0173 -1.0914
 6800TIP3    H241892   1.947   5.092  13.563  2.5172 -0.7380  1.3195
 6801TIP3   OH241893   6.485   1.115  16.270  0.9423 -0.4813 -0.2171
 6801TIP3    H141894   6.451   1.045  16.214 -0.7043  0.3061 -0.2600
 6801TIP3    H241895   6.579   1.115  16.254  1.0909 -3.0309  0.1759
 6802TIP3   OH241896   5.879   4.310   6.775  0.1181 -0.7098 -0.0039
 6802TIP3    H141897   5.916   4.240   6.721  1.0620 -0.3038  0.0918
 6802TIP3    H241898   5.934   4.312   6.853 -0.1855 -0.1653  0.2037
 6803TIP3   OH241899   1.276   4.250  12.906  0.0449  0.1910 -0.1049
 6803TIP3    H141900   1.253   4.162  12.876  0.1725 -0.3910  1.4260
 6803TIP3    H241901   1.331   4.236  12.983 -0.9909  1.6067  0.9492
 6804TIP3   OH241902   5.511   0.948   3.158  0.2686 -0.3514 -0.1555
 6804TIP3    H141903   5.476   1.023   3.111  0.1694  0.3559  1.0070
 6804TIP3    H241904   5.523   0.881   3.091  0.0801  0.5972 -1.1648
 6805TIP3   OH241905   1.179   1.673  12.382 -0.0797 -0.1770  0.2700
 6805TIP3    H141906   1.153   1.756  12.422  0.1387  1.0812 -2.0396
 6805TIP3    H241907   1.101   1.618  12.391 -0.6459  0.6721  0.8014
 6806TIP3   OH241908   1.768   5.231   0.952  0.2538 -0.2883  0.2122
 6806TIP3    H141909   1.787   5.318   0.917  1.8690 -0.3750  0.7686
 6806TIP3    H241910   1.724   5.185   0.881  0.3810  0.6291 -0.4736
 6807TIP3   OH241911   5.792   0.644   3.821 -0.7472 -0.5613 -0.0970
 6807TIP3    H141912   5.842   0.575   3.864 -0.5588  0.1850  0.9159
 6807TIP3    H241913   5.762   0.700   3.892 -0.2358  0.8522 -0.9567
 6808TIP3   OH241914   2.556   4.505  13.098  0.4508  0.1683  0.1260
 6808TIP3    H141915   2.604   4.562  13.159  1.0038  0.2101 -0.3515
 6808TIP3    H241916   2.605   4.423  13.097 -1.0312 -0.8248  1.7923
 6809TIP3   OH241917   3.963   0.223  16.603 -0.1317  0.4481 -0.0111
 6809TIP3    H141918   3.933   0.217  16.512 -0.3224  0.9492  0.0185
 6809TIP3    H241919   4.049   0.180  16.603  0.6684  1.9904 -0.7870
 6810TIP3   OH241920   3.921   0.063   2.569 -0.1618  0.5449 -0.2058
 6810TIP3    H141921   3.859   0.106   2.510  0.4803  0.9652 -0.5825
 6810TIP3    H241922   4.003   0.112   2.558  0.2168  0.0494  0.3479
 6811TIP3   OH241923   1.706   3.084   4.033  0.1055  0.1648  0.2416
 6811TIP3    H141924   1.713   3.128   3.948  2.2444  3.0472  1.7418
 6811TIP3    H241925   1.773   3.016   4.030  0.5065  0.5701 -0.2250
 6812TIP3   OH241926   2.025   2.249   0.353  0.1175  1.0627 -0.0257
 6812TIP3    H141927   2.032   2.267   0.447  2.1695 -1.5811  0.4632
 6812TIP3    H241928   2.018   2.154   0.348  1.9737  0.9528 -2.5799
 6813TIP3   OH241929   4.657   6.668   5.895  0.3578 -0.3199 -0.3887
 6813TIP3    H141930   4.623   6.748   5.934 -2.5781 -1.1878 -0.9230
 6813TIP3    H241931   4.693   6.695   5.811 -0.7431  0.4675 -0.6293
 6814TIP3   OH241932   1.220   1.871  12.954  0.2388  0.2921 -0.3153
 6814TIP3    H141933   1.130   1.865  12.983  0.6211 -1.2052  0.6325
 6814TIP3    H241934   1.243   1.782  12.928  0.9868  0.9324 -2.0092
 6815TIP3   OH241935   1.613   2.053  14.787  0.4823 -0.2183  0.0538
 6815TIP3    H141936   1.624   2.125  14.725  1.1123  1.0891  1.6187
 6815TIP3    H241937   1.545   1.998  14.749  1.4566  0.0372 -2.2276
 6816TIP3   OH241938   2.228   6.501  16.507 -0.1452  0.1623  0.4691
 6816TIP3    H141939   2.304   6.458  16.545  0.4502  1.2409  0.5430
 6816TIP3    H241940   2.227   6.472  16.416 -1.1734 -1.8818  1.0722
 6817TIP3   OH241941   4.294   5.320  12.228 -0.2297 -0.2332  0.3274
 6817TIP3    H141942   4.227   5.259  12.196  1.9058 -2.3591 -0.3269
 6817TIP3    H241943   4.295   5.390  12.163 -1.9095 -0.0418  0.4551
 6818TIP3   OH241944   0.263   2.312  15.023 -0.1979  0.0892 -0.3242
 6818TIP3    H141945   0.325   2.290  15.092 -0.9295  0.0566  0.3363
 6818TIP3    H241946   0.179   2.276  15.053 -1.1094  2.3405  0.0613
 6819TIP3   OH241947   0.487   4.967  12.470 -0.2252  0.1477 -0.0066
 6819TIP3    H141948   0.455   4.933  12.553  0.0931 -2.4322 -0.8396
 6819TIP3    H241949   0.580   4.944  12.468 -0.4467 -0.7449 -1.4596
 6820TIP3   OH241950   5.813   6.731   0.766 -0.1078 -0.6181  0.2327
 6820TIP3    H141951   5.799   6.723   0.671  1.1640  1.3779 -0.1878
 6820TIP3    H241952   5.867   6.810   0.775  1.5069 -1.8788  2.4696
 6821TIP3   OH241953   2.041   6.374  15.068 -0.1101 -0.0687 -0.0424
 6821TIP3    H141954   2.127   6.350  15.034 -0.8232 -0.8358 -1.4146
 6821TIP3    H241955   2.002   6.290  15.095 -0.7841  0.1396 -0.3378
 6822TIP3   OH241956   5.836   4.025  16.637  0.0696 -0.6758  0.4801
 6822TIP3    H141957   5.752   4.030  16.591  0.3319 -0.6022  0.0000
 6822TIP3    H241958   5.816   4.054  16.726  0.2184  2.8243 -0.4761
 6823TIP3   OH241959   4.641   5.385   5.879  0.6152 -0.7450 -0.2089
 6823TIP3    H141960   4.676   5.366   5.966  1.5369 -0.4099 -0.4957
 6823TIP3    H241961   4.684   5.322   5.822  0.4722 -0.5609 -0.5198
 6824TIP3   OH241962   5.563   6.097   3.979 -0.4558 -0.0321  0.0620
 6824TIP3    H141963   5.527   6.055   4.058  0.4258  2.5392  1.9812
 6824TIP3    H241964   5.630   6.036   3.948 -1.2898 -1.4241  0.8770
 6825TIP3   OH241965   4.366   4.560  15.347 -0.1810  0.3774 -0.0635
 6825TIP3    H141966   4.310   4.484  15.334 -0.6845  0.9172 -1.1946
 6825TIP3    H241967   4.306   4.634  15.355  0.2907  0.6502  1.2265
 6826TIP3   OH241968   6.371   2.267  14.330  0.2120  0.1411 -0.1782
 6826TIP3    H141969   6.362   2.211  14.253 -0.5186 -0.0040  0.0037
 6826TIP3    H241970   6.354   2.210  14.404 -0.1624  0.5108  0.0288
 6827TIP3   OH241971   0.082   0.673   5.690  0.6861  0.0605  0.2642
 6827TIP3    H141972   0.074   0.579   5.674  1.7507 -0.3635  1.9770
 6827TIP3    H241973  -0.006   0.699   5.718  0.1713 -0.2394 -1.0299
 6828TIP3   OH241974   4.384   5.166   2.537 -0.1844 -0.3560  0.4206
 6828TIP3    H141975   4.369   5.140   2.446  0.8267 -0.3278  0.2340
 6828TIP3    H241976   4.475   5.195   2.539  0.0414 -1.0810  1.6080
 6829TIP3   OH241977   4.690   1.744   1.414 -0.1880 -0.1552  0.1443
 6829TIP3    H141978   4.600   1.775   1.410  0.0796  0.7317  0.8259
 6829TIP3    H241979   4.703   1.718   1.505  0.1257 -0.6707 -0.0394
 6830TIP3   OH241980   4.781   4.454   5.677  0.0841  0.4777 -0.5366
 6830TIP3    H141981   4.801   4.468   5.585 -0.0835  1.7265 -0.3946
 6830TIP3    H241982   4.804   4.362   5.693 -0.5753  0.0325 -1.9969
 6831TIP3   OH241983   4.866   2.002  15.939  0.8583  0.3625 -0.4103
 6831TIP3    H141984   4.959   2.024  15.928  1.4755 -2.5592 -2.1938
 6831TIP3    H241985   4.820   2.071  15.891  2.0671  1.7862  0.3752
 6832TIP3   OH241986   3.899   1.085  10.874 -0.1132 -0.1141  0.1902
 6832TIP3    H141987   3.955   1.161  10.891 -2.4334  1.8071 -0.1863
 6832TIP3    H241988   3.934   1.046  10.794  2.4049 -0.8062  1.5166
 6833TIP3   OH241989   0.625   4.062   4.220  0.3114  0.1429  0.5327
 6833TIP3    H141990   0.619   4.126   4.291 -0.3171  0.8402 -0.1258
 6833TIP3    H241991   0.579   4.104   4.147  4.0045  1.0526 -1.4968
 6834TIP3   OH241992   2.377   4.627  16.491 -0.0842  0.3176 -0.8735
 6834TIP3    H141993   2.368   4.613  16.585 -2.5422  1.3871 -0.8831
 6834TIP3    H241994   2.453   4.684  16.482 -0.2288  0.7473  0.5157
 6835TIP3   OH241995   2.641   4.300   1.913  0.0857 -0.2133  0.2207
 6835TIP3    H141996   2.654   4.378   1.859 -0.4764  0.5543  1.1695
 6835TIP3    H241997   2.727   4.282   1.950 -0.1030  0.9464  1.2861
 6836TIP3   OH241998   4.888   3.429   0.529  0.3016  0.2432 -0.2836
 6836TIP3    H141999   4.795   3.408   0.522  0.5920 -0.8197 -1.0953
 6836TIP3    H242000   4.930   3.348   0.558  1.0835  0.4639 -0.7538
 6837TIP3   OH242001   5.368   3.081   1.053 -0.4680  0.4393  0.0672
 6837TIP3    H142002   5.393   3.004   1.104 -0.1407  0.3232 -0.2635
 6837TIP3    H242003   5.450   3.124   1.032 -0.6709  1.0614  0.5197
 6838TIP3   OH242004   0.943   0.395  16.796  0.1521 -0.0869 -0.1938
 6838TIP3    H142005   0.908   0.391  16.885 -0.3446 -1.6174 -0.4245
 6838TIP3    H242006   0.915   0.312  16.756 -0.7829  1.1236 -2.1943
 6839TIP3   OH242007   2.056   3.527   3.050 -0.5571  0.1171  0.1827
 6839TIP3    H142008   1.984   3.492   2.996  0.2324  0.7545 -1.3524
 6839TIP3    H242009   2.045   3.485   3.135 -1.8847 -0.9099 -0.4608
 6840TIP3   OH242010   0.335   5.804   5.961 -0.0034  0.7143  0.1693
 6840TIP3    H142011   0.431   5.797   5.955  0.1134 -0.0718  2.2834
 6840TIP3    H242012   0.320   5.885   6.008 -0.2684 -0.0357  1.4337
 6841TIP3   OH242013   6.775   5.212   5.504  0.0321 -0.6167  0.5579
 6841TIP3    H142014   6.868   5.195   5.491 -0.0977 -0.9843  0.0449
 6841TIP3    H242015   6.752   5.162   5.582  0.3560 -0.1808  0.9331
 6842TIP3   OH242016   3.986   3.820  12.969  0.0217  1.0227 -0.4532
 6842TIP3    H142017   4.070   3.856  12.939  1.9930 -2.6005  0.0156
 6842TIP3    H242018   3.961   3.760  12.899 -0.2648 -0.5444  0.9359
 6843TIP3   OH242019   5.368   6.176  11.358  0.6170  0.6013  1.0381
 6843TIP3    H142020   5.283   6.195  11.396 -2.1792 -0.5130 -3.8816
 6843TIP3    H242021   5.391   6.256  11.310  1.4400  0.2342  0.8107
 6844TIP3   OH242022   2.865   1.248  12.756 -0.1584  0.0540 -0.0200
 6844TIP3    H142023   2.811   1.293  12.691 -0.0430 -1.0803 -0.9525
 6844TIP3    H242024   2.854   1.298  12.836 -0.1832  1.5994 -0.9508
 6845TIP3   OH242025   5.616   1.462   1.639  0.7598  0.7313  0.0568
 6845TIP3    H142026   5.667   1.465   1.559  1.8692  1.3584  0.7663
 6845TIP3    H242027   5.649   1.386   1.687  0.4053  0.6183  0.1314
 6846TIP3   OH242028   4.722   6.816   5.687 -0.3965 -0.5614 -0.0422
 6846TIP3    H142029   4.726   6.817   5.592 -0.5570 -3.1353 -0.1449
 6846TIP3    H242030   4.784   6.884   5.715 -1.6418  1.4630 -1.9251
 6847TIP3   OH242031   2.172   2.008   5.827 -0.0711 -0.5452  0.4135
 6847TIP3    H142032   2.132   1.997   5.740  1.0826  1.1654 -0.3944
 6847TIP3    H242033   2.153   2.099   5.850  0.5943 -0.6599  1.4569
 6848TIP3   OH242034   6.045   0.405   2.434  0.4597 -0.3278 -0.6393
 6848TIP3    H142035   5.983   0.478   2.435  3.5039  2.4685 -0.4643
 6848TIP3    H242036   6.047   0.374   2.524  1.1565  1.3048 -0.0640
 6849TIP3   OH242037   6.134   2.560   1.811 -0.1431 -0.0727  0.6184
 6849TIP3    H142038   6.058   2.578   1.755  0.0418 -0.3789  0.2691
 6849TIP3    H242039   6.165   2.647   1.837  0.9487  0.1645 -1.3295
 6850TIP3   OH242040   0.850   6.262   4.614 -0.2225  0.7547  0.2382
 6850TIP3    H142041   0.921   6.299   4.667  0.9529 -1.5132  0.3621
 6850TIP3    H242042   0.876   6.280   4.524 -1.7765  3.8086  0.2538
 6851TIP3   OH242043   4.541   0.115  10.409  0.1088  0.5795 -0.7461
 6851TIP3    H142044   4.600   0.054  10.454 -0.9081 -1.8746 -2.4782
 6851TIP3    H242045   4.534   0.190  10.467 -0.4535 -1.9605  2.8026
 6852TIP3   OH242046   5.180   1.894  15.005  0.1186 -0.0803  0.2323
 6852TIP3    H142047   5.201   1.811  14.962 -0.9116  0.3202 -1.0977
 6852TIP3    H242048   5.238   1.957  14.963 -0.1185  0.1263  0.2208
 6853TIP3   OH242049   5.913   6.783  14.373 -0.2482  0.0762  0.3397
 6853TIP3    H142050   5.976   6.790  14.301 -1.7673  0.1024 -1.0300
 6853TIP3    H242051   5.835   6.828  14.342 -1.3990 -1.0574  1.4770
 6854TIP3   OH242052   2.431   5.549  10.926  0.0056  0.4166 -0.2390
 6854TIP3    H142053   2.410   5.473  10.873  2.6127  0.1154 -0.9611
 6854TIP3    H242054   2.444   5.620  10.863 -0.1777  0.9147  0.2699
 6855TIP3   OH242055   5.710   6.140   3.370 -0.1624  0.2039  0.3126
 6855TIP3    H142056   5.652   6.215   3.380  0.7322  0.7755  1.5426
 6855TIP3    H242057   5.743   6.145   3.281 -0.6888  0.8346  0.1529
 6856TIP3   OH242058   3.682   1.055   5.835 -0.4195  0.1241  0.0423
 6856TIP3    H142059   3.664   0.996   5.908 -1.6075  0.6118  0.1676
 6856TIP3    H242060   3.710   0.997   5.764  0.3543 -0.3900  0.7591
 6857TIP3   OH242061   0.963   0.566  15.746  0.1240 -0.0216 -0.5164
 6857TIP3    H142062   1.004   0.645  15.782  1.3016 -0.5555 -0.6394
 6857TIP3    H242063   0.990   0.565  15.654  1.0254 -1.1386 -0.2506
 6858TIP3   OH242064   3.398   5.510  13.076  0.1734 -0.5050  0.2999
 6858TIP3    H142065   3.334   5.539  13.141 -2.0003 -2.5787 -0.7720
 6858TIP3    H242066   3.455   5.450  13.124  0.1733 -0.0725  0.8522
 6859TIP3   OH242067   2.723   1.199   1.037  0.2732 -0.0027 -0.2522
 6859TIP3    H142068   2.740   1.200   0.943 -1.5215 -1.1175 -0.6379
 6859TIP3    H242069   2.682   1.284   1.055  1.4423  0.5890 -0.2668
 6860TIP3   OH242070   2.450   2.873  15.034  0.0834  0.3374 -0.2408
 6860TIP3    H142071   2.510   2.948  15.029  0.2388  0.2492  0.2325
 6860TIP3    H242072   2.454   2.846  15.125 -0.2138 -0.0535 -0.3429
 6861TIP3   OH242073   0.716   5.264   5.281 -0.5248 -0.3467 -0.1342
 6861TIP3    H142074   0.733   5.317   5.358 -0.1931  0.2067 -0.5822
 6861TIP3    H242075   0.775   5.299   5.214 -1.0946 -0.5531 -0.7536
 6862TIP3   OH242076   5.622   3.249  13.913 -0.1972 -0.3088 -0.3755
 6862TIP3    H142077   5.530   3.276  13.907 -0.6032 -1.7190 -1.1371
 6862TIP3    H242078   5.625   3.193  13.990  0.4786  1.2433  0.7780
 6863TIP3   OH242079   5.961   2.028  11.643  0.5336 -0.2073 -0.0657
 6863TIP3    H142080   5.960   2.032  11.739  0.5325  0.7584 -0.0978
 6863TIP3    H242081   5.932   1.939  11.623 -2.9259  0.5773  0.7805
 6864TIP3   OH242082   2.540   3.640  12.997 -0.0892  0.4882  0.3195
 6864TIP3    H142083   2.628   3.621  13.029  0.1383  1.4017  0.2614
 6864TIP3    H242084   2.503   3.699  13.063 -0.0300  1.4752 -0.5151
 6865TIP3   OH242085   4.729   3.307   2.944 -0.4190 -0.0594  0.1310
 6865TIP3    H142086   4.759   3.270   3.027 -1.0967 -0.6157  0.1335
 6865TIP3    H242087   4.809   3.329   2.897 -0.0268  0.1565  0.8817
 6866TIP3   OH242088   4.858   0.631   0.925 -0.6900  0.1527  0.8340
 6866TIP3    H142089   4.861   0.697   0.993  1.8166  2.5300 -1.3178
 6866TIP3    H242090   4.943   0.639   0.880 -2.1053 -1.3081 -2.4600
 6867TIP3   OH242091   5.040   6.666   3.051  0.0473  0.9520  0.4937
 6867TIP3    H142092   5.127   6.650   3.089  0.0479  1.0037  0.5153
 6867TIP3    H242093   4.987   6.695   3.125  0.1821  1.5487  0.3646
 6868TIP3   OH242094   0.737   4.682   3.447 -0.3607  0.2949 -0.0543
 6868TIP3    H142095   0.714   4.642   3.530  3.1411 -2.1572 -0.0836
 6868TIP3    H242096   0.783   4.763   3.470  2.5561 -1.4392  0.6742
 6869TIP3   OH242097   0.580   0.044   1.493 -0.2909  0.2267  0.1293
 6869TIP3    H142098   0.492   0.037   1.531 -0.5714 -0.1106 -0.5545
 6869TIP3    H242099   0.637  -0.002   1.554 -0.6081  0.3526  0.5228
 6870TIP3   OH242100   5.355   6.516  16.751 -0.2444 -0.1814 -0.5179
 6870TIP3    H142101   5.288   6.449  16.737 -1.1468  0.6940 -0.5196
 6870TIP3    H242102   5.438   6.472  16.733 -0.5208 -2.1623  2.3453
 6871TIP3   OH242103   1.941   2.674  16.529 -0.3136  0.1343  0.3610
 6871TIP3    H142104   1.930   2.586  16.565 -0.6155  0.3744  0.8708
 6871TIP3    H242105   1.870   2.682  16.465 -0.8291  0.3171  0.9436
 6872TIP3   OH242106   0.855   3.970   5.916  0.1325 -0.0517  0.3067
 6872TIP3    H142107   0.815   4.051   5.885 -1.1335 -0.0324  1.8513
 6872TIP3    H242108   0.865   3.982   6.010 -0.2936 -1.7545  0.6174
 6873TIP3   OH242109   5.180   4.277  16.281 -0.1492  0.2848  0.2439
 6873TIP3    H142110   5.124   4.300  16.355  0.4518  1.1474  0.4590
 6873TIP3    H242111   5.257   4.334  16.291 -0.1556  0.5804 -1.1724
 6874TIP3   OH242112   2.085   2.135  15.266 -0.0826 -0.6813  0.6600
 6874TIP3    H142113   2.096   2.041  15.252 -0.7286 -0.5107 -1.3356
 6874TIP3    H242114   2.174   2.169  15.274  0.3799 -1.0778 -1.9254
 6875TIP3   OH242115   4.136   2.501   2.979 -0.1741  0.4424 -0.1570
 6875TIP3    H142116   4.113   2.568   3.044 -0.2938  1.1403 -0.9077
 6875TIP3    H242117   4.094   2.421   3.012  0.0812  0.6907  0.8200
 6876TIP3   OH242118   4.420   6.400   2.514  0.5498  0.2059  0.0373
 6876TIP3    H142119   4.460   6.320   2.548  0.1122  0.3896  1.0005
 6876TIP3    H242120   4.367   6.433   2.586 -2.0577 -0.4959 -1.4474
 6877TIP3   OH242121   5.137   3.451   6.145 -0.2678 -0.2270 -0.2251
 6877TIP3    H142122   5.076   3.414   6.082 -1.6623  0.6055  0.5911
 6877TIP3    H242123   5.198   3.379   6.164 -1.5068 -1.3825 -0.4136
 6878TIP3   OH242124   5.432   5.434  16.263  0.2090  0.0276  0.1597
 6878TIP3    H142125   5.336   5.431  16.268  0.1846 -1.1258 -0.4582
 6878TIP3    H242126   5.454   5.527  16.261 -1.1097  0.3747 -3.0303
 6879TIP3   OH242127   4.708   0.729   3.712  0.5573 -0.1736  0.1268
 6879TIP3    H142128   4.681   0.709   3.622  1.0861 -2.3466  0.4109
 6879TIP3    H242129   4.718   0.825   3.713 -1.0828  0.0663 -1.6453
 6880TIP3   OH242130   0.963   5.325  14.245 -0.3095 -0.3747 -0.8328
 6880TIP3    H142131   0.878   5.321  14.202 -1.1854  0.9868  0.6549
 6880TIP3    H242132   0.945   5.366  14.330  1.2554 -3.2315  1.0453
 6881TIP3   OH242133   1.275   0.855   4.658 -0.1936 -0.2566 -0.2259
 6881TIP3    H142134   1.308   0.903   4.733 -0.7620  0.6402 -0.5395
 6881TIP3    H242135   1.330   0.776   4.654 -1.1529 -1.1233  2.0609
 6882TIP3   OH242136   0.593   5.776  14.089 -0.0013  0.4249 -0.1238
 6882TIP3    H142137   0.668   5.755  14.032  0.4445  1.9060 -0.1205
 6882TIP3    H242138   0.632   5.805  14.171 -0.5408  1.9619 -0.3844
 6883TIP3   OH242139   3.038   3.375   4.054 -0.4548 -0.4769  0.2926
 6883TIP3    H142140   3.002   3.313   4.117 -0.0555  0.7240  1.7496
 6883TIP3    H242141   3.132   3.372   4.067 -0.0446 -2.3082 -2.2885
 6884TIP3   OH242142   2.848   5.557   3.214  0.3636 -0.0573 -0.6405
 6884TIP3    H142143   2.831   5.463   3.208 -3.1832  0.2744  1.3838
 6884TIP3    H242144   2.808   5.594   3.135 -0.7469 -0.0518 -0.0909
 6885TIP3   OH242145   5.018   2.794   3.759  0.3347 -0.4140 -0.1025
 6885TIP3    H142146   5.039   2.837   3.842 -0.5845  2.2852 -1.1474
 6885TIP3    H242147   4.948   2.733   3.781  0.1833  0.1817  1.1581
 6886TIP3   OH242148   4.748   2.350   1.846 -0.4446  0.3971 -0.1427
 6886TIP3    H142149   4.744   2.438   1.807  0.1282 -0.4266 -2.2157
 6886TIP3    H242150   4.838   2.343   1.878 -0.4261  0.5007 -0.1717
 6887TIP3   OH242151   2.942   2.531   1.816 -0.0099 -0.6036  0.2499
 6887TIP3    H142152   3.011   2.483   1.863  1.0102 -1.9925 -2.4596
 6887TIP3    H242153   2.989   2.602   1.772 -1.0285  0.9644  1.5605
 6888TIP3   OH242154   3.676   0.714   0.915  0.0376 -0.0341 -0.3473
 6888TIP3    H142155   3.670   0.725   0.820  1.2996  0.9391 -0.3286
 6888TIP3    H242156   3.768   0.692   0.932 -0.1627 -0.1737  0.6598
 6889TIP3   OH242157   5.465   1.233   3.171  0.4123 -0.5691 -0.3824
 6889TIP3    H142158   5.416   1.205   3.094 -0.3583 -1.0729  0.2721
 6889TIP3    H242159   5.398   1.269   3.230  1.1226  0.7450 -0.3630
 6890TIP3   OH242160   5.835   0.791   1.964 -0.2289 -0.5340 -0.0583
 6890TIP3    H142161   5.802   0.705   1.990 -2.4673 -0.1086 -1.2325
 6890TIP3    H242162   5.895   0.773   1.891  0.7353 -1.1984  0.8779
 6891TIP3   OH242163   6.557   6.532   0.926 -0.3297 -0.3062 -1.1372
 6891TIP3    H142164   6.465   6.559   0.927 -0.5602 -1.0549 -1.3511
 6891TIP3    H242165   6.555   6.439   0.946  0.3220 -0.5105 -1.9939
 6892TIP3   OH242166   5.960   5.275  12.708  0.0001 -0.3582  0.4608
 6892TIP3    H142167   5.921   5.240  12.628 -0.7044 -0.5539  0.8721
 6892TIP3    H242168   6.033   5.329  12.679  0.2736 -1.0991 -0.2622
 6893TIP3   OH242169   2.290   1.633   6.187  0.1415  0.8515  0.3016
 6893TIP3    H142170   2.365   1.655   6.243 -0.4302  4.1408 -0.0185
 6893TIP3    H242171   2.257   1.717   6.157 -2.1273 -0.6092 -1.6947
 6894TIP3   OH242172   6.112   5.983  14.692 -0.0705 -0.1218  0.0553
 6894TIP3    H142173   6.167   6.061  14.686  2.0986 -1.6294 -0.9948
 6894TIP3    H242174   6.116   5.958  14.784  0.9874 -0.1472  0.0202
 6895TIP3   OH242175   6.199   6.421  14.316 -0.1751 -0.2826  0.3899
 6895TIP3    H142176   6.129   6.463  14.366  0.0040 -0.5902  0.9091
 6895TIP3    H242177   6.193   6.459  14.229 -0.5207  0.2298  0.6353
 6896TIP3   OH242178   1.695   3.387   1.309 -0.1012 -0.7686 -0.1979
 6896TIP3    H142179   1.694   3.376   1.404 -1.1075 -1.3929 -0.2717
 6896TIP3    H242180   1.751   3.464   1.295 -1.4790  0.5191  1.0157
 6897TIP3   OH242181   0.044   0.851   2.958  0.2786 -0.1394  0.6375
 6897TIP3    H142182   0.133   0.886   2.951  0.5035 -0.4471  1.8342
 6897TIP3    H242183   0.053   0.759   2.933  0.0005  0.1953 -0.7751
 6898TIP3   OH242184   2.496   4.447  12.268 -0.8242 -0.1551 -0.1819
 6898TIP3    H142185   2.520   4.539  12.265  0.1299 -0.4092 -1.1580
 6898TIP3    H242186   2.446   4.433  12.187 -0.1387 -0.7013 -0.5143
 6899TIP3   OH242187   6.656   1.668   0.155  0.2321 -0.4635 -0.3168
 6899TIP3    H142188   6.711   1.720   0.097  0.2338  0.0035  0.0982
 6899TIP3    H242189   6.625   1.730   0.221 -1.1966 -0.6105 -0.8167
 6900TIP3   OH242190   5.150   4.764  14.212  0.8524  0.0803  0.2537
 6900TIP3    H142191   5.070   4.751  14.264 -0.1052  0.2387 -1.1303
 6900TIP3    H242192   5.197   4.681  14.220  0.1747 -0.2910  0.4633
 6901TIP3   OH242193   1.223   5.036   2.358  0.1723 -0.1861  0.2750
 6901TIP3    H142194   1.182   5.024   2.444  0.0862  1.0856  0.4306
 6901TIP3    H242195   1.317   5.041   2.377  0.1527  0.1025  0.3008
 6902TIP3   OH242196   0.342   5.177   5.088 -0.5803 -0.0533 -0.1945
 6902TIP3    H142197   0.401   5.106   5.114  0.3619 -0.4985 -3.1403
 6902TIP3    H242198   0.396   5.232   5.031 -2.0014  1.6638  0.0414
 6903TIP3   OH242199   5.763   6.405  10.717  0.2327  0.3419 -0.3570
 6903TIP3    H142200   5.732   6.368  10.799  1.6663 -1.1823 -0.4466
 6903TIP3    H242201   5.713   6.358  10.649  0.7152 -0.0909 -0.4162
 6904TIP3   OH242202   6.147   2.727  12.226  0.0883  0.1189  0.2403
 6904TIP3    H142203   6.172   2.765  12.311  1.6993 -0.6380  0.1428
 6904TIP3    H242204   6.213   2.760  12.165  1.0654 -2.1280  0.0028
 6905TIP3   OH242205   0.148   3.265   0.569 -0.2678  0.0224  0.4933
 6905TIP3    H142206   0.217   3.300   0.513  0.4451 -0.7193  0.8898
 6905TIP3    H242207   0.070   3.315   0.546  0.6363  1.6337  0.8113
 6906TIP3   OH242208   1.056   4.493  13.718  0.2847 -0.5791  0.2171
 6906TIP3    H142209   1.129   4.456  13.768  0.3746 -0.5646  0.0967
 6906TIP3    H242210   1.055   4.442  13.637 -0.0639 -0.8179  0.3722
 6907TIP3   OH242211   1.843   1.314   3.695  0.8671 -0.0846  0.0134
 6907TIP3    H142212   1.915   1.374   3.674  0.4440 -0.4451 -2.7968
 6907TIP3    H242213   1.765   1.358   3.660 -0.2625  0.0096  2.4531
 6908TIP3   OH242214   4.798   1.314  17.091  0.1518 -0.0591  0.1401
 6908TIP3    H142215   4.743   1.287  17.165 -0.5375 -2.6448 -1.2055
 6908TIP3    H242216   4.738   1.361  17.033  0.4326  0.9741  0.6615
 6909TIP3   OH242217   4.085   2.357  16.659  0.0350 -0.0143 -0.7287
 6909TIP3    H142218   4.107   2.434  16.608  0.0531  0.2555 -0.3217
 6909TIP3    H242219   4.162   2.341  16.713 -0.2882  0.1974 -0.1955
 6910TIP3   OH242220   6.162   6.683   3.232 -0.9685  0.3813 -0.3408
 6910TIP3    H142221   6.208   6.671   3.149  0.1492  0.7797  0.1922
 6910TIP3    H242222   6.073   6.652   3.215  0.1391 -3.0686 -0.6731
 6911TIP3   OH242223   4.367   0.730   5.912 -0.3211  0.4784  0.1916
 6911TIP3    H142224   4.419   0.810   5.902  1.6810 -0.6746  0.7642
 6911TIP3    H242225   4.301   0.753   5.977  1.0189  1.3404  1.3139
 6912TIP3   OH242226   2.279   0.123  11.947  0.1876 -0.5715  0.1473
 6912TIP3    H142227   2.282   0.202  11.893  0.4656 -0.3735  0.4505
 6912TIP3    H242228   2.248   0.054  11.887 -1.2655  0.0156  0.1838
 6913TIP3   OH242229   0.193   0.644   5.415  0.5525 -0.0649  0.4594
 6913TIP3    H142230   0.245   0.601   5.482 -0.4122 -0.4707  0.9720
 6913TIP3    H242231   0.232   0.731   5.405  0.9634 -0.1555  1.2493
 6914TIP3   OH242232   4.547   6.370   0.994 -0.3620  0.0625  0.1150
 6914TIP3    H142233   4.555   6.281   1.030 -0.3133  0.1161  0.2379
 6914TIP3    H242234   4.490   6.360   0.918 -0.4889 -0.0487  0.2236
 6915TIP3   OH242235   1.661   6.270   0.411  0.2013 -0.1187 -0.2224
 6915TIP3    H142236   1.616   6.315   0.340  0.4726  1.3307  0.4779
 6915TIP3    H242237   1.678   6.338   0.476  3.3594 -0.5670 -0.4119
 6916TIP3   OH242238   5.349   0.054  11.778  0.0554  0.2626 -0.4621
 6916TIP3    H142239   5.294   0.038  11.702  0.6650  0.9879 -1.0672
 6916TIP3    H242240   5.334  -0.022  11.835 -0.4589 -0.2460 -1.2615
 6917TIP3   OH242241   6.664   4.685   0.419  0.4873 -0.0488  0.4836
 6917TIP3    H142242   6.675   4.732   0.502 -1.1847  0.1187  0.6335
 6917TIP3    H242243   6.679   4.751   0.352  0.6526  0.0933  0.6563
 6918TIP3   OH242244   0.350   2.310   5.810  0.0648  0.0026  0.2946
 6918TIP3    H142245   0.265   2.313   5.765  0.6496 -0.8889 -0.9276
 6918TIP3    H242246   0.328   2.292   5.901 -1.0168 -1.7982 -0.2695
 6919TIP3   OH242247   5.348   4.531  14.917 -0.3343 -0.0259 -0.4378
 6919TIP3    H142248   5.363   4.477  14.994 -2.5392  0.2489  0.2515
 6919TIP3    H242249   5.424   4.515  14.861 -0.6024 -3.3954 -0.0313
 6920TIP3   OH242250   4.579   5.768  13.581  0.2254 -0.3070  0.0432
 6920TIP3    H142251   4.611   5.678  13.588  0.6083 -0.2439 -0.8232
 6920TIP3    H242252   4.609   5.810  13.661  0.6699 -0.7610  0.1227
 6921TIP3   OH242253   4.202   5.903  12.913 -0.2970  0.1784 -0.0426
 6921TIP3    H142254   4.166   5.874  12.997  0.2689 -0.2348  0.0628
 6921TIP3    H242255   4.271   5.964  12.937  0.0277 -0.1248 -0.1939
 6922TIP3   OH242256   4.056   2.476  10.988 -0.3962 -0.2277 -0.1006
 6922TIP3    H142257   4.057   2.565  10.950 -0.0953  0.7637  2.0839
 6922TIP3    H242258   4.013   2.487  11.073 -0.1886 -2.1572  0.2876
 6923TIP3   OH242259   2.577   2.497   2.934  0.0773  0.0188 -0.2448
 6923TIP3    H142260   2.629   2.417   2.936 -0.9823 -0.6912 -0.3654
 6923TIP3    H242261   2.520   2.487   2.858 -1.7173 -0.2021  1.0574
 6924TIP3   OH242262   1.680   2.465   2.680  0.1133  0.2379  0.0483
 6924TIP3    H142263   1.627   2.393   2.714 -1.3501  1.2208 -0.0795
 6924TIP3    H242264   1.692   2.444   2.587 -0.5623  0.2921 -0.0558
 6925TIP3   OH242265   4.268   2.387   2.051 -0.5070 -0.2930  0.4573
 6925TIP3    H142266   4.339   2.384   2.115 -1.8019 -0.0456  1.9552
 6925TIP3    H242267   4.311   2.416   1.970  0.5664  3.5269  2.1313
 6926TIP3   OH242268   1.628   6.738  16.183 -0.1095  0.0483 -0.1009
 6926TIP3    H142269   1.617   6.832  16.196 -2.2334 -0.2124  0.2692
 6926TIP3    H242270   1.691   6.712  16.250 -2.8149  0.5444  2.8725
 6927TIP3   OH242271   1.116   0.488  12.618 -0.0533  0.3821  0.5791
 6927TIP3    H142272   1.113   0.395  12.596 -1.4427  0.1523  1.5974
 6927TIP3    H242273   1.164   0.492  12.700 -1.8631  0.2778  1.6854
 6928TIP3   OH242274   3.189   4.475   0.609  0.4704  0.3009  0.1612
 6928TIP3    H142275   3.231   4.430   0.536 -0.6754 -2.6332  1.1638
 6928TIP3    H242276   3.245   4.456   0.685 -0.5920 -0.4503  0.7964
 6929TIP3   OH242277   6.346   2.535   5.404  0.0293 -0.7806  0.3884
 6929TIP3    H142278   6.251   2.536   5.388  0.1579 -2.7417 -0.7945
 6929TIP3    H242279   6.384   2.570   5.324  0.3320  0.2848  0.9760
 6930TIP3   OH242280   0.581   4.843   0.177  0.2718  0.8074  0.5694
 6930TIP3    H142281   0.557   4.817   0.088 -0.2066 -1.4243  1.2862
 6930TIP3    H242282   0.503   4.885   0.212 -0.5795 -0.9234  0.8540
 6931TIP3   OH242283   1.400   4.507   0.644  0.7183  0.4521 -0.1954
 6931TIP3    H142284   1.349   4.484   0.566  1.4092 -1.2816 -0.1971
 6931TIP3    H242285   1.463   4.435   0.653  0.5780  0.5327  2.0390
 6932TIP3   OH242286   3.835   4.986  14.358 -0.1461 -0.1811  0.0573
 6932TIP3    H142287   3.837   5.021  14.269  0.0217 -0.6512 -0.1270
 6932TIP3    H242288   3.781   4.907  14.351 -0.9352  0.3091  0.5667
 6933TIP3   OH242289   0.997   0.489  14.789  0.3176 -0.1704  0.4168
 6933TIP3    H142290   0.943   0.477  14.711  1.7796 -0.2756 -0.6315
 6933TIP3    H242291   1.001   0.402  14.829 -2.6275  0.3830  2.1985
 6934TIP3   OH242292   6.742   4.240  13.558 -0.2934 -0.5548 -0.0092
 6934TIP3    H142293   6.703   4.328  13.557  2.0116  0.5738  1.2737
 6934TIP3    H242294   6.727   4.207  13.469 -1.5333  0.9570 -0.4178
 6935TIP3   OH242295   0.544   0.180  14.509 -0.3268 -0.5220 -0.3086
 6935TIP3    H142296   0.463   0.177  14.459  0.1253 -0.4860 -1.0671
 6935TIP3    H242297   0.545   0.268  14.547 -1.3999 -1.0698  1.0263
 6936TIP3   OH242298   3.639   0.249  12.149  0.3510  0.0783 -0.0010
 6936TIP3    H142299   3.590   0.223  12.071  0.0339 -2.5737  0.9832
 6936TIP3    H242300   3.621   0.343  12.158 -1.8710 -0.1152 -1.5210
 6937TIP3   OH242301   4.861   4.814   4.610  0.8415  0.1484 -0.2979
 6937TIP3    H142302   4.811   4.872   4.667  0.4023 -1.8125  1.4202
 6937TIP3    H242303   4.941   4.795   4.660  0.5399 -1.4599 -0.3860
 6938TIP3   OH242304   2.782   6.483  13.410  0.2624 -0.2763  0.3263
 6938TIP3    H142305   2.728   6.416  13.369  3.1231 -2.5723 -0.0747
 6938TIP3    H242306   2.772   6.468  13.504  0.3268 -0.7844  0.2538
 6939TIP3   OH242307   4.048   3.116   5.545  0.2590  0.5761  0.1431
 6939TIP3    H142308   4.023   3.081   5.460  0.2417  3.1788 -1.0445
 6939TIP3    H242309   3.965   3.139   5.587  0.3147  1.3563 -0.1446
 6940TIP3   OH242310   2.600   3.430   3.290 -0.1283  0.3463  0.2692
 6940TIP3    H142311   2.676   3.464   3.338 -1.2549  1.6448  1.2197
 6940TIP3    H242312   2.581   3.497   3.224  0.9656 -1.0918 -1.5819
 6941TIP3   OH242313   6.326   2.480   5.785 -0.5510  0.0837  0.1553
 6941TIP3    H142314   6.260   2.442   5.843 -1.1136 -0.0745 -0.5788
 6941TIP3    H242315   6.276   2.530   5.720  0.1561  1.7814  0.8567
 6942TIP3   OH242316   3.711   0.247   1.012  0.1291 -0.3170  0.5137
 6942TIP3    H142317   3.724   0.341   1.025  0.3448 -0.4843  1.5877
 6942TIP3    H242318   3.800   0.211   1.006  0.0627 -0.2654 -1.5632
 6943TIP3   OH242319   1.061   2.107   5.363 -0.5739 -0.2780  0.4671
 6943TIP3    H142320   1.075   2.159   5.283  2.1338 -1.7032 -0.1277
 6943TIP3    H242321   0.969   2.122   5.385 -0.8024  2.0893 -1.5156
 6944TIP3   OH242322   6.087   4.410  13.663  0.0933  0.3851 -0.3794
 6944TIP3    H142323   6.140   4.457  13.727  1.4304  0.8364 -1.7651
 6944TIP3    H242324   5.997   4.438  13.682 -0.0813 -1.9978  3.3712
 6945TIP3   OH242325   5.394   6.231  15.529 -0.7511 -0.0787 -0.3806
 6945TIP3    H142326   5.386   6.158  15.468 -0.2290  0.4223 -1.0635
 6945TIP3    H242327   5.482   6.264  15.515 -0.2372 -0.6076  1.4090
 6946TIP3   OH242328   4.564   4.081   1.537 -0.0832 -0.0993 -0.7534
 6946TIP3    H142329   4.629   4.048   1.475  0.3900  0.2109 -0.4333
 6946TIP3    H242330   4.486   4.028   1.522  0.7551 -1.5966 -0.0143
 6947TIP3   OH242331   3.039   4.935   3.853  0.1083  0.9385 -0.0518
 6947TIP3    H142332   3.053   4.973   3.767 -0.8707  3.7174  0.9020
 6947TIP3    H242333   2.955   4.890   3.847 -0.5719  2.1946 -0.2658
 6948TIP3   OH242334   3.530   4.909  13.865  0.2780  0.0861  0.1240
 6948TIP3    H142335   3.478   4.880  13.940 -2.3782  0.0502 -1.5928
 6948TIP3    H242336   3.602   4.846  13.860 -2.1957 -2.9518 -0.1687
 6949TIP3   OH242337   5.262   1.817   4.855 -0.2318 -0.6514 -0.1517
 6949TIP3    H142338   5.310   1.748   4.811 -0.5825 -1.0217  0.0400
 6949TIP3    H242339   5.185   1.774   4.892  0.6486 -0.6097  1.8568
 6950TIP3   OH242340   0.184   6.722  11.493  0.1473  0.3524 -0.0124
 6950TIP3    H142341   0.161   6.789  11.429 -0.7542  0.7815  0.7499
 6950TIP3    H242342   0.203   6.770  11.573 -0.0782 -0.2736  0.4262
 6951TIP3   OH242343   0.294   1.446  14.900 -0.0437 -0.2807  1.0758
 6951TIP3    H142344   0.254   1.368  14.861 -0.8337  0.1336  1.0334
 6951TIP3    H242345   0.230   1.475  14.965 -0.1094  0.7768  0.5456
 6952TIP3   OH242346   6.825   2.734  14.125  0.2656  0.1213  0.0020
 6952TIP3    H142347   6.838   2.648  14.165 -0.2600 -0.9436 -2.0209
 6952TIP3    H242348   6.900   2.746  14.068 -1.1652 -0.4573 -2.1164
 6953TIP3   OH242349   2.495   4.696   0.452  0.2675  0.5216 -0.2387
 6953TIP3    H142350   2.419   4.686   0.395 -1.9866 -2.5373  2.8445
 6953TIP3    H242351   2.462   4.747   0.526  1.8729  0.9248  0.2293
 6954TIP3   OH242352   4.997   6.378  15.179 -0.0797  0.2913 -0.6254
 6954TIP3    H142353   4.904   6.366  15.163 -0.1847  0.1624  0.0370
 6954TIP3    H242354   5.001   6.424  15.263  0.4834 -2.2639  0.8833
 6955TIP3   OH242355   0.213   0.703  11.910 -0.6657  0.0163  0.3876
 6955TIP3    H142356   0.232   0.715  12.003 -0.7615 -0.0304  0.4120
 6955TIP3    H242357   0.207   0.609  11.898 -2.2430  0.0557  0.6501
 6956TIP3   OH242358   4.174   3.141   2.868 -0.5127  0.2743 -0.0353
 6956TIP3    H142359   4.212   3.220   2.830  0.3784 -0.2719 -0.2890
 6956TIP3    H242360   4.249   3.089   2.896 -1.1072  0.0016  1.1510
 6957TIP3   OH242361   1.774   4.694  13.137  0.8101  0.3553  0.0024
 6957TIP3    H142362   1.853   4.716  13.187  0.8709 -1.1786  0.6293
 6957TIP3    H242363   1.705   4.684  13.203 -0.1008  2.2686 -0.5829
 6958TIP3   OH242364   3.631   3.418   1.655 -0.3782 -0.1640 -0.8535
 6958TIP3    H142365   3.636   3.482   1.726  2.4721 -0.0632 -1.0268
 6958TIP3    H242366   3.656   3.335   1.696  3.1007  0.2027 -1.9306
 6959TIP3   OH242367   4.432   3.868   4.847  0.0029  0.3531  0.2191
 6959TIP3    H142368   4.442   3.831   4.759  2.0161  1.9567 -0.3075
 6959TIP3    H242369   4.513   3.843   4.892 -1.2051 -0.8351  1.8305
 6960TIP3   OH242370   5.045   3.150   5.216  0.1400  0.0546  0.3536
 6960TIP3    H142371   5.088   3.231   5.242  2.6352 -1.6847  2.1242
 6960TIP3    H242372   5.052   3.148   5.121  1.3005  1.2577  0.3934
 6961TIP3   OH242373   0.654   3.792   5.869 -0.4962  0.5418 -0.4126
 6961TIP3    H142374   0.714   3.851   5.914  0.3312  0.4764 -1.4155
 6961TIP3    H242375   0.669   3.707   5.911 -1.8877  1.0422  1.2251
 6962TIP3   OH242376   6.773   6.457   0.040 -0.1409 -0.1636  0.1966
 6962TIP3    H142377   6.769   6.521   0.111  0.4387  1.3341 -1.0544
 6962TIP3    H242378   6.825   6.385   0.075 -1.4929 -0.3716  1.9230
 6963TIP3   OH242379   3.576   1.539  14.402  0.3730 -0.3670  0.3750
 6963TIP3    H142380   3.648   1.602  14.394  0.6425 -0.7068  0.0659
 6963TIP3    H242381   3.619   1.457  14.429  0.0943 -0.5575  0.2430
 6964TIP3   OH242382   3.078   2.167   0.904  0.1615 -0.1202  0.2583
 6964TIP3    H142383   3.103   2.153   0.813 -0.1489 -0.6156  0.2453
 6964TIP3    H242384   3.123   2.247   0.929  0.5737 -0.2012 -0.2078
 6965TIP3   OH242385   3.623   6.789   5.094 -0.0910 -0.2105 -0.5390
 6965TIP3    H142386   3.621   6.792   4.998 -0.3052 -1.3969 -0.5964
 6965TIP3    H242387   3.704   6.833   5.118 -0.2857  0.5454 -1.2418
 6966TIP3   OH242388   3.552   5.930   4.935 -0.4095  0.4731 -0.3216
 6966TIP3    H142389   3.534   5.861   4.999 -2.6238  0.0101 -1.3629
 6966TIP3    H242390   3.646   5.947   4.945 -0.3399 -0.7633  1.8360
 6967TIP3   OH242391   5.201   6.335   2.251  0.5460  0.0981 -0.1232
 6967TIP3    H142392   5.157   6.419   2.244 -0.7989 -0.5898 -0.1777
 6967TIP3    H242393   5.223   6.327   2.344 -2.2174 -0.8552  0.5501
 6968TIP3   OH242394   4.887   6.579   5.546  0.1886  0.3844  0.2437
 6968TIP3    H142395   4.942   6.650   5.581  0.0974  0.6785 -0.1978
 6968TIP3    H242396   4.932   6.552   5.466  0.1707  0.0076  0.3632
 6969TIP3   OH242397   2.643   1.511  13.363  0.0274 -0.3768  0.4975
 6969TIP3    H142398   2.704   1.438  13.369 -0.0586 -0.6092 -1.1055
 6969TIP3    H242399   2.663   1.553  13.280 -0.2784  1.1188  1.1430
 6970TIP3   OH242400   6.787   6.290  11.084  0.1346 -0.0561 -0.0767
 6970TIP3    H142401   6.793   6.200  11.051 -0.8789 -0.4743  0.8116
 6970TIP3    H242402   6.874   6.309  11.119  0.8108 -0.1142 -1.6485
 6971TIP3   OH242403   0.209   3.977  15.284 -0.0583 -0.1672  0.2435
 6971TIP3    H142404   0.294   3.987  15.241 -0.0104 -0.1664  0.3396
 6971TIP3    H242405   0.227   3.986  15.377 -0.7711  4.2359  0.1400
 6972TIP3   OH242406   4.374   3.592  16.163  0.5789  0.2557 -0.4484
 6972TIP3    H142407   4.423   3.539  16.101  0.3486 -1.4555  0.7839
 6972TIP3    H242408   4.441   3.639  16.213  0.8593 -0.3155 -0.2884
 6973TIP3   OH242409   2.068   0.743  16.751  0.2896 -0.5372  0.0557
 6973TIP3    H142410   2.148   0.715  16.795  0.6369  0.6641  0.2339
 6973TIP3    H242411   2.094   0.820  16.701 -1.0882  0.9743  1.5397
 6974TIP3   OH242412   0.315   0.956   3.007 -0.7772  0.0399  0.1204
 6974TIP3    H142413   0.284   0.942   3.097 -0.7898  1.6795  0.4067
 6974TIP3    H242414   0.349   1.046   3.008 -0.6350  0.0207 -1.4780
 6975TIP3   OH242415   3.017   5.646  15.730  0.0571  0.3904  0.2665
 6975TIP3    H142416   3.073   5.715  15.695 -0.3678 -0.4017 -2.1391
 6975TIP3    H242417   2.955   5.627  15.660  0.1734 -2.4570  0.8112
 6976TIP3   OH242418   0.755   1.829   0.397  0.1242 -0.4251  0.4138
 6976TIP3    H142419   0.812   1.880   0.455 -1.0316 -1.5279  2.6243
 6976TIP3    H242420   0.816   1.783   0.339  1.2224  2.7123 -1.1360
 6977TIP3   OH242421   4.999   6.062   1.023 -0.1881  0.7374 -0.0878
 6977TIP3    H142422   5.094   6.045   1.023  0.3191  3.1671 -0.3527
 6977TIP3    H242423   4.992   6.155   1.047 -2.4525  0.8707 -1.0771
 6978TIP3   OH242424   6.509   0.042  13.091 -0.7063  0.7181 -0.1306
 6978TIP3    H142425   6.553  -0.019  13.150 -2.8447 -0.4130  0.4016
 6978TIP3    H242426   6.553   0.029  13.007  0.7511  0.5453  0.6308
 6979TIP3   OH242427   1.274   6.828  13.630 -0.1995  0.1577  0.1021
 6979TIP3    H142428   1.311   6.746  13.662 -0.6808 -0.2466 -0.3729
 6979TIP3    H242429   1.250   6.876  13.709 -0.6048 -0.4753  0.3639
 6980TIP3   OH242430   2.039   3.264  16.014  0.4461  0.4383 -0.1495
 6980TIP3    H142431   2.016   3.356  16.027  1.0495  0.4905  0.6122
 6980TIP3    H242432   2.127   3.266  15.977 -0.5689  0.2323 -2.7423
 6981TIP3   OH242433   6.451   5.914   4.472 -0.1333 -0.4822  0.0728
 6981TIP3    H142434   6.360   5.894   4.453  0.2315 -2.2283 -0.0010
 6981TIP3    H242435   6.465   6.002   4.435 -1.6617 -0.3511 -0.2494
 6982TIP3   OH242436   0.830   4.697   4.117  0.2627  0.7374  0.6266
 6982TIP3    H142437   0.904   4.699   4.056  1.0566 -2.8369  1.2534
 6982TIP3    H242438   0.763   4.645   4.072 -0.4168  0.8173  1.5126
 6983TIP3   OH242439   5.147   6.300  16.660  0.1374  0.3336  0.2781
 6983TIP3    H142440   5.053   6.287  16.648  0.1941 -0.6597  0.8786
 6983TIP3    H242441   5.180   6.319  16.571 -0.5698  0.3599  0.0171
 6984TIP3   OH242442   5.916   3.496   5.564  0.0580 -0.7328 -0.5568
 6984TIP3    H142443   5.942   3.532   5.649  0.0412 -1.8456 -0.0537
 6984TIP3    H242444   5.900   3.572   5.509  2.7518  0.0255 -0.4262
 6985TIP3   OH242445   3.684   2.591   3.930 -0.5041  0.0783  0.2620
 6985TIP3    H142446   3.608   2.548   3.893 -0.0950  0.4632 -1.0630
 6985TIP3    H242447   3.734   2.521   3.971 -1.5332 -0.1817  1.1131
 6986TIP3   OH242448   3.533   4.684  11.059 -0.4332 -0.3946  0.1965
 6986TIP3    H142449   3.590   4.681  11.135  1.0590 -0.2589 -0.8644
 6986TIP3    H242450   3.545   4.773  11.024 -1.6787 -0.2005  0.2162
 6987TIP3   OH242451   0.488   5.405   4.283 -0.2269  0.2613  0.2819
 6987TIP3    H142452   0.411   5.449   4.247 -1.0084 -1.0884  0.2321
 6987TIP3    H242453   0.559   5.428   4.223 -0.9164  0.2983 -0.5358
 6988TIP3   OH242454   1.963   4.909   5.233 -0.0523 -0.7676  0.2341
 6988TIP3    H142455   1.925   4.996   5.241  0.9556  0.0780 -2.7959
 6988TIP3    H242456   1.900   4.850   5.275 -1.5095  1.2288  0.9589
 6989TIP3   OH242457   2.351   0.466   2.306  0.1406 -0.3363 -0.1834
 6989TIP3    H142458   2.429   0.436   2.353 -0.3164 -0.1017  0.7542
 6989TIP3    H242459   2.374   0.458   2.213  1.3136 -0.1628  0.0770
 6990TIP3   OH242460   3.126   6.824   4.467  0.3392  0.8133 -0.1781
 6990TIP3    H142461   3.184   6.840   4.542 -0.9045 -0.4673  1.1216
 6990TIP3    H242462   3.088   6.909   4.447  0.7953  1.1995  0.5493
 6991TIP3   OH242463   2.505   1.356   6.376  0.4122 -0.2070 -0.0503
 6991TIP3    H142464   2.544   1.310   6.451  0.5167 -0.2279 -0.1164
 6991TIP3    H242465   2.416   1.322   6.370  0.6554 -0.7954 -0.4249
 6992TIP3   OH242466   4.916   6.681  11.653  0.6848 -0.9207 -0.2732
 6992TIP3    H142467   4.898   6.638  11.737  3.4970  1.9844  2.0670
 6992TIP3    H242468   4.851   6.752  11.649  0.9144 -0.7126 -0.2810
 6993TIP3   OH242469   2.004   0.374  14.245  0.0524  0.2685  0.1517
 6993TIP3    H142470   2.024   0.465  14.269  1.3334 -0.3498  1.6717
 6993TIP3    H242471   2.003   0.327  14.329  1.7297 -1.5227 -0.7389
 6994TIP3   OH242472   6.696   4.439  14.241 -0.1807  0.2487  1.3548
 6994TIP3    H142473   6.686   4.367  14.178 -1.5257  0.3581  1.4036
 6994TIP3    H242474   6.686   4.397  14.326 -0.1938  0.3810  1.4180
 6995TIP3   OH242475   5.351   0.883  11.868 -0.0725  0.2586 -0.5316
 6995TIP3    H142476   5.293   0.958  11.852 -1.4352 -1.2182 -3.1821
 6995TIP3    H242477   5.334   0.859  11.959 -2.9466  0.5415 -0.9042
 6996TIP3   OH242478   6.374   2.509   2.823  0.2060 -0.4696  0.0557
 6996TIP3    H142479   6.387   2.483   2.914 -2.8839 -0.4890  0.6113
 6996TIP3    H242480   6.383   2.427   2.774 -0.0934 -0.8523  0.6193
 6997TIP3   OH242481   6.711   2.453   4.365  0.2055 -0.2351  1.0335
 6997TIP3    H142482   6.642   2.392   4.393  0.2366 -0.9296 -0.3130
 6997TIP3    H242483   6.673   2.500   4.291  0.0404  1.7242  2.2882
 6998TIP3   OH242484   5.522   4.398  15.131  0.6075  0.1454  0.2850
 6998TIP3    H142485   5.466   4.362  15.199 -0.1002  1.7773  0.6093
 6998TIP3    H242486   5.568   4.470  15.173  0.5361  0.8650 -0.8304
 6999TIP3   OH242487   0.080   5.352   1.444  0.1015  0.1623  0.5160
 6999TIP3    H142488   0.004   5.408   1.429  0.2466  0.5096  1.0354
 6999TIP3    H242489   0.133   5.401   1.508  0.1544 -0.6388  1.1019
 7000TIP3   OH242490   6.230   2.171  15.933 -0.2999 -0.2922 -0.3200
 7000TIP3    H142491   6.208   2.263  15.918 -0.0742  0.0833  1.4271
 7000TIP3    H242492   6.270   2.170  16.020 -0.3235 -2.0539 -0.3000
 7001TIP3   OH242493   0.990   4.338   0.583  0.2005  0.5537 -0.4018
 7001TIP3    H142494   0.900   4.334   0.552  0.3461  0.3160 -0.8039
 7001TIP3    H242495   1.031   4.406   0.530  0.6292 -0.3198 -1.2320
 7002TIP3   OH242496   3.856   5.520   1.997  0.0368 -0.1299  0.3385
 7002TIP3    H142497   3.926   5.521   2.062  0.1392  1.4012  0.2353
 7002TIP3    H242498   3.898   5.490   1.916 -0.2273 -2.6796  1.0547
 7003TIP3   OH242499   0.805   2.572  13.397  0.3364  0.3043 -0.3068
 7003TIP3    H142500   0.769   2.573  13.308  0.1295  0.1144 -0.2277
 7003TIP3    H242501   0.878   2.511  13.392 -0.1468 -0.3007 -0.1728
 7004TIP3   OH242502   5.228   1.118  16.760 -0.4740  0.5828  0.4559
 7004TIP3    H142503   5.143   1.078  16.740 -0.5677  0.3404  1.3045
 7004TIP3    H242504   5.209   1.185  16.826 -0.1245  1.1353  0.0085
 7005TIP3   OH242505   2.029   6.449   3.166 -0.1784 -0.6449 -0.1633
 7005TIP3    H142506   2.053   6.500   3.089  0.8115 -0.9929 -0.0989
 7005TIP3    H242507   1.951   6.493   3.201 -0.1020  0.0433 -0.8440
 7006TIP3   OH242508   6.292   6.160   5.958  0.6017 -0.2490 -0.3213
 7006TIP3    H142509   6.356   6.215   5.914  0.2968 -0.3331 -0.8818
 7006TIP3    H242510   6.344   6.098   6.009  0.9421  0.8568  0.7154
 7007TIP3   OH242511   6.504   1.693  12.022  0.3840 -0.0283 -0.1218
 7007TIP3    H142512   6.412   1.712  12.002 -0.2063  0.4549  2.7282
 7007TIP3    H242513   6.551   1.770  11.989 -0.5797  0.9527  0.7147
 7008TIP3   OH242514   2.843   4.285  12.123  0.0230  0.0581  0.2973
 7008TIP3    H142515   2.902   4.342  12.173 -0.4693 -0.1071  1.0797
 7008TIP3    H242516   2.765   4.277  12.178 -0.7762  0.3397 -0.7636
 7009TIP3   OH242517   5.072   6.328  13.300 -0.1200 -0.0472  0.0132
 7009TIP3    H142518   5.055   6.234  13.311 -2.6384  0.1979 -0.9957
 7009TIP3    H242519   4.985   6.368  13.305  0.7255  2.0669 -1.0425
 7010TIP3   OH242520   5.668   3.895   5.299  0.0797 -1.0172 -0.7318
 7010TIP3    H142521   5.615   3.897   5.378  2.4837 -3.3008  1.1606
 7010TIP3    H242522   5.615   3.846   5.235 -1.4721 -0.0897 -0.1936
 7011TIP3   OH242523   4.930   2.565  11.911 -0.1189 -0.2971  0.2931
 7011TIP3    H142524   4.875   2.494  11.878  0.4451  0.0724 -1.5976
 7011TIP3    H242525   4.980   2.527  11.983 -0.5952 -1.5039  0.0015
 7012TIP3   OH242526   0.524   2.217  11.960 -0.0310 -0.3273  0.2708
 7012TIP3    H142527   0.476   2.163  12.023 -0.7428  1.0750  0.9795
 7012TIP3    H242528   0.516   2.306  11.994  0.1797  0.3795 -1.4411
 7013TIP3   OH242529   1.149   4.571   5.528 -0.6572  0.7576 -0.6683
 7013TIP3    H142530   1.105   4.588   5.444 -2.0492 -0.4191 -0.2115
 7013TIP3    H242531   1.238   4.545   5.504 -0.4408  2.2590 -1.6645
 7014TIP3   OH242532   1.716   6.225  11.250  0.4618 -0.2085 -0.1023
 7014TIP3    H142533   1.723   6.144  11.200  0.6249 -1.4252  1.7889
 7014TIP3    H242534   1.679   6.288  11.188 -0.5262 -1.9508 -1.3925
 7015TIP3   OH242535   3.715   1.208   4.540 -0.6110 -0.4451  0.1617
 7015TIP3    H142536   3.660   1.133   4.515  2.3846 -2.8898  0.3585
 7015TIP3    H242537   3.764   1.229   4.460  0.0767 -0.0606  0.6837
 7016TIP3   OH242538   3.791   2.061   0.959 -0.4486  0.1461 -0.2109
 7016TIP3    H142539   3.785   2.057   0.864  0.4936  0.7542 -0.3107
 7016TIP3    H242540   3.752   1.979   0.989 -2.3783  0.7144 -1.0263
 7017TIP3   OH242541   5.836   2.135  12.651 -0.7642  0.5395  0.5052
 7017TIP3    H142542   5.878   2.174  12.574  0.2170  0.8567  1.1793
 7017TIP3    H242543   5.758   2.189  12.664  0.2685  1.9854  1.0741
 7018TIP3   OH242544   5.130   2.356   2.365  0.3214 -0.1322 -0.4686
 7018TIP3    H142545   5.142   2.345   2.271  0.1430  0.8095 -0.6125
 7018TIP3    H242546   5.054   2.302   2.387 -0.2385  0.3979 -1.0485
 7019TIP3   OH242547   2.905   5.802  12.165 -0.2373  0.1914  0.4077
 7019TIP3    H142548   2.839   5.748  12.123 -0.8521  0.2703  1.2411
 7019TIP3    H242549   2.988   5.757  12.148 -0.4718  0.2021 -0.8236
 7020TIP3   OH242550   1.463   4.597   2.014  1.4590  0.0568 -0.6161
 7020TIP3    H142551   1.483   4.578   2.105  0.4810 -0.7713 -0.5595
 7020TIP3    H242552   1.384   4.546   1.995  0.6415  1.5662 -1.4267
 7021TIP3   OH242553   0.965   1.105   0.397 -0.4635  0.9853  0.0725
 7021TIP3    H142554   1.009   1.021   0.407  0.1822  1.1275 -1.4165
 7021TIP3    H242555   0.958   1.119   0.303 -1.1694  2.2919  0.2818
 7022TIP3   OH242556   4.275   3.283  14.060  0.0160 -0.0739  0.0895
 7022TIP3    H142557   4.358   3.246  14.090  0.4064  0.0135 -0.8445
 7022TIP3    H242558   4.223   3.293  14.140  1.2294  0.6981  0.8210
 7023TIP3   OH242559   2.047   2.787  12.528 -0.4046  0.3730  0.5499
 7023TIP3    H142560   2.096   2.823  12.602 -1.6209 -1.1290  2.1723
 7023TIP3    H242561   2.095   2.817  12.451  1.4328  1.2694  1.9556
 7024TIP3   OH242562   1.101   0.399   3.622 -0.4111  0.2287  0.3095
 7024TIP3    H142563   1.039   0.471   3.634  1.6376  2.0297  0.6640
 7024TIP3    H242564   1.053   0.321   3.651 -3.0899  1.2237 -1.1555
 7025TIP3   OH242565   6.399   1.616   3.710  0.3443  0.0676  0.0925
 7025TIP3    H142566   6.321   1.671   3.707  1.6624  1.9809 -3.4279
 7025TIP3    H242567   6.366   1.527   3.695 -1.1889  0.7830 -0.9672
 7026TIP3   OH242568   2.502   4.562   2.694 -0.5388 -0.3162  0.0095
 7026TIP3    H142569   2.465   4.639   2.652  1.8885  1.4774  0.9155
 7026TIP3    H242570   2.568   4.530   2.633 -0.3424 -0.6333  0.3794
 7027TIP3   OH242571   1.549   6.563  11.296 -0.4369 -0.1344  0.1612
 7027TIP3    H142572   1.545   6.502  11.222 -1.6378  0.6544 -0.4498
 7027TIP3    H242573   1.521   6.511  11.371  0.8560 -0.9599  0.0993
 7028TIP3   OH242574   3.193   0.381  11.468 -0.2676  0.2008 -0.0634
 7028TIP3    H142575   3.100   0.401  11.454 -0.3555  0.7270  1.1318
 7028TIP3    H242576   3.224   0.352  11.383 -1.5309  0.0251 -0.4871
 7029TIP3   OH242577   1.245   0.877  16.010  0.4938  0.0921  0.0719
 7029TIP3    H142578   1.335   0.882  15.980  0.5111  1.1290  0.2579
 7029TIP3    H242579   1.248   0.908  16.101  0.1207 -0.9830  0.4712
 7030TIP3   OH242580   4.137   1.696   3.914 -0.1507  0.5127 -0.5307
 7030TIP3    H142581   4.115   1.777   3.867 -0.8724 -0.5290 -2.0568
 7030TIP3    H242582   4.174   1.727   3.997  0.0906  2.4135 -1.2781
 7031TIP3   OH242583   5.095   4.974  16.174 -0.2216 -0.5266  0.1637
 7031TIP3    H142584   5.066   4.953  16.263 -0.8544  0.7236  0.2839
 7031TIP3    H242585   5.178   5.020  16.187 -2.4051  3.8075  0.5870
 7032TIP3   OH242586   2.414   0.952  15.272  0.1781  0.4640 -0.3412
 7032TIP3    H142587   2.405   0.860  15.298  0.8712  0.9265  1.7282
 7032TIP3    H242588   2.363   0.959  15.192 -2.2964 -1.0736  0.9787
 7033TIP3   OH242589   6.050   5.062  13.632 -0.1832  0.9438 -0.3121
 7033TIP3    H142590   6.052   4.970  13.605 -0.3732  0.6896  0.5125
 7033TIP3    H242591   5.976   5.100  13.583 -1.6845  0.0484  1.1481
 7034TIP3   OH242592   2.396   4.980  16.514  0.2109  0.7855  0.1601
 7034TIP3    H142593   2.328   4.927  16.555  0.0287  0.9713  0.0950
 7034TIP3    H242594   2.426   5.039  16.583  0.2424  0.7688  0.1612
 7035TIP3   OH242595   4.451   3.543   4.745 -0.3075 -0.4809  0.3671
 7035TIP3    H142596   4.384   3.492   4.791 -0.7237 -0.8244 -0.5850
 7035TIP3    H242597   4.404   3.616   4.706  0.1366  0.1259  0.9427
 7036TIP3   OH242598   6.315   4.470   1.347 -0.4347  0.2742 -0.1624
 7036TIP3    H142599   6.323   4.472   1.252 -0.8809 -1.8709 -0.3016
 7036TIP3    H242600   6.222   4.460   1.363 -0.2277 -0.9364  0.4081
 7037TIP3   OH242601   4.554   4.162  15.036 -0.1330 -0.1973 -0.0278
 7037TIP3    H142602   4.517   4.232  15.089  0.3460  1.3589 -1.6412
 7037TIP3    H242603   4.648   4.179  15.035  0.0567 -1.1875 -0.0038
 7038TIP3   OH242604   2.910   4.688   4.148 -0.4438 -0.3602 -0.4125
 7038TIP3    H142605   2.836   4.670   4.206  0.0678  0.0145  0.3607
 7038TIP3    H242606   2.936   4.777   4.169 -0.4219 -0.1198 -1.4165
 7039TIP3   OH242607   4.730   6.701   3.693 -0.4356  0.8438 -0.2712
 7039TIP3    H142608   4.644   6.721   3.730 -0.9244 -1.1029 -0.2503
 7039TIP3    H242609   4.713   6.632   3.629  1.2391 -0.3124  0.4707
 7040TIP3   OH242610   5.588   0.418   3.446 -0.0081  0.6244  0.0734
 7040TIP3    H142611   5.608   0.347   3.385  3.1445  0.9360  0.5737
 7040TIP3    H242612   5.671   0.466   3.456 -0.5454  1.0942  3.9233
 7041TIP3   OH242613   0.862   1.340   4.353 -0.7135 -0.1478 -0.4530
 7041TIP3    H142614   0.947   1.296   4.349 -0.3324  0.5387 -0.0565
 7041TIP3    H242615   0.841   1.343   4.446 -0.5309  0.8738 -0.4340
 7042TIP3   OH242616   5.047   4.480   5.963 -0.3565  0.5249 -0.5088
 7042TIP3    H142617   5.120   4.532   5.997  0.4083 -2.0750  2.1738
 7042TIP3    H242618   4.969   4.532   5.985  0.4903  2.2363 -1.3153
 7043TIP3   OH242619   5.307   2.432   5.619  0.1878 -0.4769  0.0699
 7043TIP3    H142620   5.346   2.399   5.539  1.3081  1.1086 -0.0938
 7043TIP3    H242621   5.366   2.503   5.647 -0.5076 -0.5722  1.9452
 7044TIP3   OH242622   1.788   2.905  13.607 -0.6986  0.0986  0.5900
 7044TIP3    H142623   1.701   2.941  13.626 -0.5184  0.3003  1.0516
 7044TIP3    H242624   1.804   2.844  13.679  0.6441  1.9949  1.9909
 7045TIP3   OH242625   3.885   5.290   6.225 -0.2894 -0.1300 -0.1207
 7045TIP3    H142626   3.810   5.235   6.201 -0.4888 -0.1701  0.5689
 7045TIP3    H242627   3.929   5.241   6.295 -1.8558  1.6618  2.2575
 7046TIP3   OH242628   2.127   5.919  11.245  0.3249  0.5375 -0.1717
 7046TIP3    H142629   2.090   5.992  11.294 -0.8095 -0.5468  0.6363
 7046TIP3    H242630   2.175   5.961  11.173  0.4617  2.0948  0.7728
 7047TIP3   OH242631   0.461   3.598  15.318 -0.6233 -0.4903 -0.1646
 7047TIP3    H142632   0.385   3.640  15.276 -1.1003  0.1491  1.2655
 7047TIP3    H242633   0.453   3.506  15.295 -0.5644 -0.0988 -1.8891
 7048TIP3   OH242634   6.547   4.774   5.308  0.2970 -0.8978  0.0264
 7048TIP3    H142635   6.495   4.855   5.310 -0.4237 -1.3620  0.2820
 7048TIP3    H242636   6.600   4.783   5.228  1.0628  0.3273  0.6412
 7049TIP3   OH242637   5.047   4.180   0.028  0.5500 -0.6846 -0.6964
 7049TIP3    H142638   5.016   4.091   0.041  1.1733 -0.9476 -0.9907
 7049TIP3    H242639   5.071   4.184  -0.064  1.4792 -0.5164 -0.4563
 7050TIP3   OH242640   0.569   6.755   1.240  0.3971  0.0376  0.1410
 7050TIP3    H142641   0.571   6.779   1.333  1.3777 -2.3091  0.7965
 7050TIP3    H242642   0.497   6.692   1.233 -0.2013  0.8105 -0.8882
 7051TIP3   OH242643   4.489   5.504   0.354 -0.2669  0.1482 -0.2397
 7051TIP3    H142644   4.427   5.540   0.418  0.2878 -1.1319  1.0619
 7051TIP3    H242645   4.437   5.443   0.302 -0.1869 -0.7407  0.6920
 7052TIP3   OH242646   6.206   3.685  16.779  0.0690  0.1122 -0.1957
 7052TIP3    H142647   6.146   3.760  16.786 -0.4645 -0.4364  2.0383
 7052TIP3    H242648   6.179   3.640  16.699 -0.0989  1.8474 -1.1718
 7053TIP3   OH242649   4.174   2.320  12.006  0.0510 -1.0043  0.1683
 7053TIP3    H142650   4.213   2.262  12.072  0.6788 -1.7661 -0.8575
 7053TIP3    H242651   4.118   2.263  11.954 -1.4344 -0.1697  0.7865
 7054TIP3   OH242652   2.531   6.092   2.974  0.4256 -0.0248 -0.6006
 7054TIP3    H142653   2.530   6.148   3.052  1.1908 -2.1211  1.0068
 7054TIP3    H242654   2.598   6.131   2.918  1.5044  0.2572  0.8293
 7055TIP3   OH242655   4.640   4.328  12.768 -0.6140  0.4914 -0.3552
 7055TIP3    H142656   4.570   4.392  12.783  0.7785  1.8834  0.4735
 7055TIP3    H242657   4.717   4.367  12.808  0.6345 -1.0576 -1.1465
 7056TIP3   OH242658   3.654   2.106  16.631  0.6995 -0.2811  0.1854
 7056TIP3    H142659   3.654   2.159  16.551  0.7637 -0.5849 -0.0152
 7056TIP3    H242660   3.714   2.152  16.690 -1.1261  1.2826  0.9405
 7057TIP3   OH242661   3.123   5.052   1.100  0.0956  0.3773 -0.0280
 7057TIP3    H142662   3.105   4.976   1.044 -1.4478  0.2546  0.5670
 7057TIP3    H242663   3.196   5.024   1.156  2.5130  0.9383 -2.6952
 7058TIP3   OH242664   2.413   5.068  14.830  0.3145  0.3933  0.1924
 7058TIP3    H142665   2.431   5.078  14.737  3.5739  0.1822  0.6953
 7058TIP3    H242666   2.415   4.973  14.845  1.2801  0.4723  0.6705
 7059TIP3   OH242667   3.103   4.119   1.187  0.0115  0.0764  0.2718
 7059TIP3    H142668   3.125   4.149   1.275 -0.3136  0.1425  0.3328
 7059TIP3    H242669   3.110   4.197   1.132 -0.1636  0.1195  0.3090
 7060TIP3   OH242670   5.750   1.111   4.354 -1.0671 -0.1829  0.3182
 7060TIP3    H142671   5.791   1.146   4.275 -0.3816 -0.0154  0.7410
 7060TIP3    H242672   5.667   1.075   4.323 -0.5010 -0.7577 -0.5969
 7061TIP3   OH242673   2.644   4.850   5.395  0.4753  0.4545 -0.0915
 7061TIP3    H142674   2.679   4.937   5.414  5.0372 -1.3262  0.9901
 7061TIP3    H242675   2.553   4.854   5.424  1.3110  3.9866  2.8578
 7062TIP3   OH242676   6.102   2.352   1.347  0.0878  0.3444  0.6266
 7062TIP3    H142677   6.134   2.418   1.286  0.6145  0.8800  1.4703
 7062TIP3    H242678   6.047   2.294   1.293  1.5229  0.0815 -0.6264
 7063TIP3   OH242679   6.393   4.015   1.839 -0.0891  0.4367 -0.2126
 7063TIP3    H142680   6.366   4.051   1.924  1.5529  3.4802 -0.8490
 7063TIP3    H242681   6.376   4.086   1.777  2.7992 -0.0586 -1.7095
 7064TIP3   OH242682   4.906   4.770   5.083  0.4563  0.1034  0.2384
 7064TIP3    H142683   4.855   4.818   5.017 -1.1938  0.1627  1.4817
 7064TIP3    H242684   4.904   4.679   5.054 -0.5770  0.0717  0.3904
 7065TIP3   OH242685   3.064   2.241   2.071 -0.7098  0.1232 -0.0747
 7065TIP3    H142686   3.102   2.318   2.028 -0.7566 -0.3194 -0.9243
 7065TIP3    H242687   2.972   2.243   2.045 -0.4361 -0.9524 -1.2135
 7066TIP3   OH242688   6.769   4.047  15.954  0.4921 -0.4231  0.0475
 7066TIP3    H142689   6.718   3.966  15.949  0.6183 -0.4804 -0.2896
 7066TIP3    H242690   6.748   4.094  15.874  0.5293 -0.1857  0.1756
 7067TIP3   OH242691   2.039   6.656  13.299  0.6755  0.0691 -0.1090
 7067TIP3    H142692   1.960   6.611  13.328  0.6490 -0.5239 -1.0616
 7067TIP3    H242693   2.056   6.721  13.367 -0.0900 -0.4343  0.5768
 7068TIP3   OH242694   4.191   5.576  11.797  0.1798  0.1688 -0.2771
 7068TIP3    H142695   4.097   5.594  11.807  0.2826 -0.4612  3.2567
 7068TIP3    H242696   4.201   5.486  11.827  1.8734  0.0200 -1.2059
 7069TIP3   OH242697   2.026   0.002  13.509 -0.0799 -0.0634 -0.3824
 7069TIP3    H142698   1.958   0.069  13.503 -1.1965 -1.1163  0.1054
 7069TIP3    H242699   2.083   0.032  13.579 -1.6266 -0.4774  1.1495
 7070TIP3   OH242700   3.450   0.274   2.058  0.0361  0.4571  0.1939
 7070TIP3    H142701   3.421   0.326   2.133 -0.0766  0.7303 -0.0367
 7070TIP3    H242702   3.536   0.241   2.084 -1.1574 -1.7781  1.5836
 7071TIP3   OH242703   0.116   2.331  11.663 -0.2312  0.0556 -0.2235
 7071TIP3    H142704   0.140   2.417  11.628  0.8275 -0.5374 -1.0124
 7071TIP3    H242705   0.117   2.274  11.586 -1.1777 -0.6287  0.2528
 7072TIP3   OH242706   3.364   1.132  15.569  0.0904 -0.2763 -0.8067
 7072TIP3    H142707   3.308   1.136  15.492 -1.0834 -2.1041 -0.1172
 7072TIP3    H242708   3.343   1.210  15.619 -2.8309 -1.4649  0.0201
 7073TIP3   OH242709   5.496   5.963  14.471 -0.4593 -0.2866 -0.4586
 7073TIP3    H142710   5.455   5.881  14.441  0.2773 -1.1161  0.6974
 7073TIP3    H242711   5.504   5.952  14.566  1.8006  0.1136 -0.5484
 7074TIP3   OH242712   4.938   6.211   2.119  0.1067 -0.2991 -0.7322
 7074TIP3    H142713   4.875   6.219   2.047  0.3802  2.2002 -0.7825
 7074TIP3    H242714   4.969   6.301   2.134  1.0107 -0.9305  1.6665
 7075TIP3   OH242715   5.485   4.875   2.592 -0.2257  0.0893  1.0913
 7075TIP3    H142716   5.457   4.816   2.523  0.2324 -1.3434  2.0940
 7075TIP3    H242717   5.565   4.916   2.558  0.5123 -1.2943  1.0954
 7076TIP3   OH242718   3.800   4.872  16.313 -0.8117 -0.6522  0.3281
 7076TIP3    H142719   3.863   4.884  16.383 -0.4367 -0.4918 -0.0338
 7076TIP3    H242720   3.755   4.956  16.305 -0.3051 -0.4250 -0.1535
 7077TIP3   OH242721   1.329   2.602   4.261 -0.1503  0.1646 -0.2865
 7077TIP3    H142722   1.324   2.638   4.172 -1.4550 -0.2717 -0.4090
 7077TIP3    H242723   1.351   2.677   4.316  2.1248  0.1893 -1.1134
 7078TIP3   OH242724   5.824   4.376  13.843  0.6774 -0.1001 -0.2139
 7078TIP3    H142725   5.754   4.435  13.871  0.0604 -0.1009 -1.6697
 7078TIP3    H242726   5.787   4.288  13.853  0.4705 -0.1017 -0.9552
 7079TIP3   OH242727   4.639   4.585  12.456 -0.3318 -0.4435 -0.2762
 7079TIP3    H142728   4.604   4.670  12.426 -2.5462 -2.3653 -3.8406
 7079TIP3    H242729   4.565   4.542  12.499  0.7523 -0.6847  1.4392
 7080TIP3   OH242730   3.410   3.562   0.197  0.4301  0.1183 -0.0276
 7080TIP3    H142731   3.404   3.645   0.149  1.8501 -1.0226 -2.3362
 7080TIP3    H242732   3.321   3.527   0.194 -0.3818  1.8066  1.6383
 7081TIP3   OH242733   4.789   0.323  11.534 -0.0119 -0.5601 -0.4091
 7081TIP3    H142734   4.769   0.368  11.616  1.0245  0.6664 -0.8061
 7081TIP3    H242735   4.831   0.390  11.479  1.0424 -1.8498 -1.2336
 7082TIP3   OH242736   5.981   3.921   2.092 -0.7473  0.1244  0.0508
 7082TIP3    H142737   5.915   3.874   2.144 -1.4650 -1.2252 -1.9521
 7082TIP3    H242738   5.929   3.974   2.032  0.0516  0.9633  0.0906
 7083TIP3   OH242739   0.303   4.941   1.491 -0.0718  0.0368 -0.0037
 7083TIP3    H142740   0.281   5.027   1.455 -2.6934 -0.6519 -0.2275
 7083TIP3    H242741   0.359   4.961   1.566  1.4466  1.7624 -1.4898
 7084TIP3   OH242742   5.280   1.161  16.433  0.1245 -0.1303 -0.3940
 7084TIP3    H142743   5.349   1.135  16.494 -2.2498 -0.0006  2.6634
 7084TIP3    H242744   5.304   1.249  16.404  1.1972 -0.0434  0.6978
 7085TIP3   OH242745   4.224   3.550  10.592 -0.0885 -0.1020 -0.4881
 7085TIP3    H142746   4.299   3.548  10.533  1.4857  0.0395  1.3941
 7085TIP3    H242747   4.155   3.595  10.542  1.1395 -0.0265 -2.1909
 7086TIP3   OH242748   6.355   3.289   4.957  0.1994 -0.1549  0.1458
 7086TIP3    H142749   6.334   3.196   4.967 -0.0785 -0.0766  0.2893
 7086TIP3    H242750   6.409   3.293   4.878  0.0408 -0.4124  0.0235
 7087TIP3   OH242751   5.083   5.442  11.400 -0.0019 -0.7033  0.0789
 7087TIP3    H142752   4.990   5.429  11.383 -0.7183 -0.1787  3.0866
 7087TIP3    H242753   5.106   5.374  11.463  1.6445 -0.7391 -0.5053
 7088TIP3   OH242754   0.580   2.458   6.042  0.2531 -0.5425  0.3497
 7088TIP3    H142755   0.612   2.397   5.975  0.9851  0.3369 -0.1152
 7088TIP3    H242756   0.526   2.520   5.993 -0.4239 -0.7502  0.8141
 7089TIP3   OH242757   0.989   0.958  14.427 -0.3641 -0.2414 -0.2427
 7089TIP3    H142758   1.020   0.920  14.509 -0.4139  1.4496  0.5986
 7089TIP3    H242759   0.943   0.886  14.383  2.4086 -2.1197 -0.3288
 7090TIP3   OH242760   3.067   4.705  11.349  0.2424  0.2912  0.7840
 7090TIP3    H142761   3.089   4.783  11.298  0.6339 -0.1528  0.2605
 7090TIP3    H242762   3.044   4.639  11.284 -2.9158  0.7555  1.3058
 7091TIP3   OH242763   3.769   2.411   6.568  0.0597 -0.3049 -0.2624
 7091TIP3    H142764   3.859   2.429   6.543 -0.1465  0.3752 -0.5283
 7091TIP3    H242765   3.752   2.323   6.535  0.5863 -0.3939 -0.3034
 7092TIP3   OH242766   3.655   0.964   3.523 -0.4563  0.3074 -0.0671
 7092TIP3    H142767   3.633   1.058   3.518 -0.6943  0.3153  0.9842
 7092TIP3    H242768   3.702   0.955   3.605 -1.1975 -0.6454  0.2674
 7093TIP3   OH242769   2.009   4.021   0.709  0.6032  0.7070 -0.5183
 7093TIP3    H142770   1.956   4.046   0.633 -0.7388 -1.0619 -0.2106
 7093TIP3    H242771   2.020   3.927   0.701 -1.5565  0.0534  2.6693
 7094TIP3   OH242772   6.693   2.092  12.401 -0.0879  0.6117 -0.7097
 7094TIP3    H142773   6.651   2.017  12.444  1.8474  0.2554  0.7185
 7094TIP3    H242774   6.636   2.112  12.327 -1.4070 -1.3930 -0.3330
 7095TIP3   OH242775   4.577   6.546   5.618 -0.7062 -0.5179 -0.1758
 7095TIP3    H142776   4.649   6.605   5.597  0.6468 -1.6960  0.9433
 7095TIP3    H242777   4.561   6.497   5.537  0.2925 -0.7723 -0.2292
 7096TIP3   OH242778   4.568   2.364   3.431  0.3470  0.0752 -0.3048
 7096TIP3    H142779   4.600   2.448   3.464 -0.0436  0.4728 -0.9243
 7096TIP3    H242780   4.553   2.312   3.510 -1.7440  1.4330  0.2846
 7097TIP3   OH242781   2.702   3.359   0.054  0.2335 -0.1198 -0.2946
 7097TIP3    H142782   2.671   3.269   0.056  1.2667 -0.5861 -2.6246
 7097TIP3    H242783   2.677   3.394   0.140 -1.2294 -2.2346  0.2327
 7098TIP3   OH242784   5.871   5.340  15.697 -0.2972  0.2536  0.0873
 7098TIP3    H142785   5.935   5.303  15.758  0.5488  0.3903 -0.6959
 7098TIP3    H242786   5.821   5.264  15.667 -2.1711  0.3917  2.4891
 7099TIP3   OH242787   0.678   4.447   3.278 -0.1419 -0.2218  0.2212
 7099TIP3    H142788   0.712   4.480   3.194  0.4865  0.7631  0.8330
 7099TIP3    H242789   0.718   4.505   3.343 -0.1719 -1.3255  1.2452
 7100TIP3   OH242790   2.947   6.354  16.751  0.0825 -0.1562 -0.1788
 7100TIP3    H142791   2.981   6.272  16.786  0.7037  0.2999  0.3125
 7100TIP3    H242792   2.979   6.357  16.661  2.1942  0.6989  0.5388
 7101TIP3   OH242793   2.741   5.244  16.415 -0.3375  0.5834 -0.5919
 7101TIP3    H142794   2.735   5.181  16.487 -0.2158 -0.4380 -1.4500
 7101TIP3    H242795   2.771   5.325  16.457  1.0467 -0.3531  0.3251
 7102TIP3   OH242796   4.437   0.224   1.671  0.3647  0.3253  0.5825
 7102TIP3    H142797   4.423   0.187   1.758  1.0509 -0.3465  0.4250
 7102TIP3    H242798   4.529   0.207   1.653  0.7202  2.2054  0.5149
 7103TIP3   OH242799   3.835   3.687   5.487  0.2432  0.6234 -0.2770
 7103TIP3    H142800   3.907   3.750   5.484  1.5901 -0.8099  0.0079
 7103TIP3    H242801   3.877   3.606   5.516 -1.1396 -0.7477 -1.8929
 7104TIP3   OH242802   5.489   2.707  16.459 -0.1386  0.4011 -0.2941
 7104TIP3    H142803   5.408   2.672  16.422  0.2160  0.1204 -0.8043
 7104TIP3    H242804   5.557   2.686  16.395  0.5189 -0.2861  0.5953
 7105TIP3   OH242805   6.027   5.695   5.595  0.7099  0.6418  0.4809
 7105TIP3    H142806   6.088   5.623   5.612 -0.8952 -0.7481  0.6805
 7105TIP3    H242807   5.995   5.678   5.507  1.5183  2.0898 -0.1265
 7106TIP3   OH242808   1.345   1.220  16.826 -0.1563  0.1452  0.0511
 7106TIP3    H142809   1.432   1.251  16.850 -0.1285  0.5854 -0.6020
 7106TIP3    H242810   1.288   1.254  16.894 -0.1621  1.8496 -0.7585
 7107TIP3   OH242811   0.391   4.567  12.811 -0.6278  0.3141 -0.4048
 7107TIP3    H142812   0.440   4.522  12.742 -0.6327  0.1412 -0.2970
 7107TIP3    H242813   0.454   4.629  12.849 -0.1380 -0.6724  0.4680
 7108TIP3   OH242814   0.185   1.103  16.803 -0.1396  0.4122 -0.4819
 7108TIP3    H142815   0.143   1.035  16.750 -0.6976 -0.3364  0.8591
 7108TIP3    H242816   0.279   1.085  16.795 -0.2694 -2.9947  2.7733
 7109TIP3   OH242817   4.785   0.838  13.664  0.0334 -0.5934  0.3726
 7109TIP3    H142818   4.847   0.801  13.727  0.5194 -0.7787 -0.1995
 7109TIP3    H242819   4.825   0.821  13.579 -0.0004  0.7610  0.0649
 7110TIP3   OH242820   3.761   6.547   6.644 -0.0354 -0.1171  0.2922
 7110TIP3    H142821   3.727   6.486   6.579  0.1827  0.9171 -0.8273
 7110TIP3    H242822   3.714   6.629   6.627  0.5331  0.3642  0.9842
 7111TIP3   OH242823   6.430   3.188   0.970  0.0504 -0.5620 -0.5435
 7111TIP3    H142824   6.398   3.110   1.015  1.3546 -0.9850 -0.3254
 7111TIP3    H242825   6.350   3.237   0.948 -0.6781 -0.4681  1.9673
 7112TIP3   OH242826   2.811   6.293   4.939  0.3713 -0.0904  0.4436
 7112TIP3    H142827   2.813   6.386   4.917  2.9515  0.4642  2.3850
 7112TIP3    H242828   2.735   6.258   4.893 -0.3079  2.8269 -0.8750
 7113TIP3   OH242829   4.339   5.645   3.908  0.4073  0.3556 -0.3208
 7113TIP3    H142830   4.380   5.583   3.847 -0.6044 -0.1265 -0.5316
 7113TIP3    H242831   4.411   5.674   3.964  0.7487 -1.8062  0.4577
 7114TIP3   OH242832   3.823   0.734  11.596 -0.7177 -0.2341  0.8453
 7114TIP3    H142833   3.787   0.805  11.650 -0.3348  0.6196  0.0091
 7114TIP3    H242834   3.890   0.694  11.651 -0.1506  0.7878  0.9195
 7115TIP3   OH242835   0.187   2.409  14.167 -0.0384  0.5010 -0.0399
 7115TIP3    H142836   0.195   2.412  14.071 -2.1603  0.3832 -0.2842
 7115TIP3    H242837   0.169   2.317  14.187 -0.5176  0.6773  0.3619
 7116TIP3   OH242838   5.408   6.618   4.851 -0.1994 -0.5544  0.0935
 7116TIP3    H142839   5.486   6.613   4.794 -0.9059 -0.0485 -0.9460
 7116TIP3    H242840   5.435   6.575   4.932  0.3855 -2.6935 -1.1574
 7117TIP3   OH242841   6.713   6.570   0.717 -0.1286  0.1763 -0.6756
 7117TIP3    H142842   6.650   6.537   0.652 -0.0515  1.2926 -1.3487
 7117TIP3    H242843   6.668   6.562   0.801 -1.0211  0.5905 -1.1040
 7118TIP3   OH242844   0.749   1.058   3.127  0.3449  0.2185 -0.2471
 7118TIP3    H142845   0.770   1.132   3.069 -1.6307  1.2222  0.2191
 7118TIP3    H242846   0.730   1.099   3.211 -1.3956 -0.7390 -0.1300
 7119TIP3   OH242847   3.745   4.761   3.066 -0.0115 -0.1817  0.0657
 7119TIP3    H142848   3.812   4.809   3.115  0.1539  0.6436 -0.9302
 7119TIP3    H242849   3.755   4.670   3.094  1.5813 -0.0856 -0.1150
 7120TIP3   OH242850   6.054   4.263  12.637 -0.2076 -0.3522 -0.3082
 7120TIP3    H142851   6.080   4.355  12.641  0.2885 -0.4354 -1.1886
 7120TIP3    H242852   5.974   4.263  12.584 -0.0229 -0.4577 -0.5902
 7121TIP3   OH242853   2.588   3.630   1.644  0.9652  0.5434  0.5207
 7121TIP3    H142854   2.547   3.549   1.610  0.4550  0.1092  2.0915
 7121TIP3    H242855   2.656   3.599   1.703  2.1765  1.2892 -0.4392
 7122TIP3   OH242856   1.866   3.588   4.534  0.3499 -0.0113 -0.5061
 7122TIP3    H142857   1.937   3.628   4.584  0.2257  0.6503 -0.8609
 7122TIP3    H242858   1.865   3.635   4.451 -1.0838  0.6069 -0.1621
 7123TIP3   OH242859   2.758   2.096  13.137  0.3343  0.1603 -0.5094
 7123TIP3    H142860   2.666   2.106  13.163  0.0430 -1.5931 -0.7816
 7123TIP3    H242861   2.808   2.121  13.214 -0.4138 -0.1984  0.1000
 7124TIP3   OH242862   4.089   3.544  14.607  0.0179  0.2272 -0.2515
 7124TIP3    H142863   4.060   3.484  14.538  0.3352 -1.6232  1.1139
 7124TIP3    H242864   4.074   3.631  14.572 -0.1464 -0.6376 -2.5023
 7125TIP3   OH242865   3.577   5.755  16.570  0.1012  0.3798  0.1333
 7125TIP3    H142866   3.546   5.749  16.661  1.5194  0.0851  0.6241
 7125TIP3    H242867   3.513   5.705  16.520  0.2486 -0.9625  1.2342
 7126TIP3   OH242868   1.492   6.446  16.341  0.3489 -0.2300  0.1560
 7126TIP3    H142869   1.434   6.417  16.271  0.8205 -1.4982  0.2556
 7126TIP3    H242870   1.579   6.418  16.312  0.6984  0.2363  0.7402
 7127TIP3   OH242871   3.917   4.227  13.412 -0.0159 -0.3327 -0.1180
 7127TIP3    H142872   3.873   4.302  13.371 -1.6088 -2.0559 -1.8111
 7127TIP3    H242873   3.853   4.193  13.475  0.8595 -0.0674  0.9508
 7128TIP3   OH242874   1.967   0.859   1.002 -0.1839 -0.3083  0.1363
 7128TIP3    H142875   2.033   0.790   1.003  0.0996 -0.2399 -3.2120
 7128TIP3    H242876   1.952   0.878   0.909 -3.1133  1.4352  0.8067
 7129TIP3   OH242877   0.385   0.964  12.342 -0.0918  1.1577 -0.4253
 7129TIP3    H142878   0.348   0.939  12.426 -0.0890 -3.1127 -1.4640
 7129TIP3    H242879   0.480   0.970  12.358  0.0154 -0.5646 -0.2207
 7130TIP3   OH242880   4.794   5.187  12.335 -0.4656  0.0980 -0.4283
 7130TIP3    H142881   4.842   5.269  12.321 -0.3308  0.5714  2.1638
 7130TIP3    H242882   4.710   5.215  12.372 -1.1564 -0.8957 -1.1974
 7131TIP3   OH242883   0.091   5.873   1.748 -0.2588  0.4948 -0.6790
 7131TIP3    H142884   0.073   5.945   1.809 -0.7826 -0.7787  0.7130
 7131TIP3    H242885   0.078   5.912   1.661  0.4123  2.3247 -0.0132
 7132TIP3   OH242886   3.694   4.677  16.043  0.1796  0.1107 -0.2465
 7132TIP3    H142887   3.755   4.614  16.004  1.0111  0.4424  0.4770
 7132TIP3    H242888   3.710   4.758  15.995  1.2566  0.5397  0.7698
 7133TIP3   OH242889   5.866   2.785  14.957  0.5104  0.0855 -0.0311
 7133TIP3    H142890   5.789   2.838  14.936  0.5329  0.6962  1.2774
 7133TIP3    H242891   5.924   2.846  15.003  1.2388 -0.6878  0.0919
 7134TIP3   OH242892   6.365   5.883   2.703  0.1093 -0.0175 -0.0427
 7134TIP3    H142893   6.288   5.886   2.759  0.5958 -0.5651  0.6825
 7134TIP3    H242894   6.373   5.972   2.668 -0.5941  0.1550  0.2144
 7135TIP3   OH242895   6.541   6.442   5.542 -0.0177 -0.3207 -0.3090
 7135TIP3    H142896   6.630   6.455   5.508 -0.3593  1.0851 -0.7405
 7135TIP3    H242897   6.551   6.378   5.612  0.9831 -2.0182 -1.9123
 7136TIP3   OH242898   4.534   0.013  14.352 -0.1657 -0.2502 -0.2318
 7136TIP3    H142899   4.605   0.076  14.338  1.5119 -2.3900 -2.2876
 7136TIP3    H242900   4.520   0.013  14.446  2.1357  0.7697  0.1921
 7137TIP3   OH242901   4.679   2.829   1.806 -0.7668 -0.5008 -0.0010
 7137TIP3    H142902   4.737   2.882   1.752  1.3110 -2.3134  0.2952
 7137TIP3    H242903   4.663   2.882   1.884  3.1062 -0.9887  1.3475
 7138TIP3   OH242904   5.023   5.896  11.497  0.2315  0.5714 -0.2859
 7138TIP3    H142905   4.942   5.939  11.467 -0.5281 -0.5002  0.1510
 7138TIP3    H242906   5.055   5.851  11.419 -0.6816 -0.6111 -0.0063
 7139TIP3   OH242907   5.995   6.511  14.463 -0.1570 -0.0456 -0.5501
 7139TIP3    H142908   5.965   6.601  14.448  0.7605  0.0266 -2.0816
 7139TIP3    H242909   5.916   6.458  14.455 -0.2946  0.3723 -2.2402
 7140TIP3   OH242910   5.370   3.976  15.582  0.4731  0.1397  0.1835
 7140TIP3    H142911   5.438   4.040  15.562  1.4593 -0.7538  0.5490
 7140TIP3    H242912   5.416   3.905  15.626 -0.9632  0.2683  2.0529
 7141TIP3   OH242913   4.893   0.140   4.528 -0.9035 -0.0438 -0.3396
 7141TIP3    H142914   4.965   0.093   4.485  0.0946 -0.0231  1.2139
 7141TIP3    H242915   4.936   0.207   4.581 -2.1271  0.4648  0.0541
 7142TIP3   OH242916   0.459   6.412  13.471 -0.0723  0.2400  0.4917
 7142TIP3    H142917   0.365   6.407  13.459  0.0401 -0.7574 -0.0988
 7142TIP3    H242918   0.490   6.461  13.394 -0.2551  2.1305  1.5645
 7143TIP3   OH242919   5.059   0.166  15.801 -0.6736 -0.4248 -0.3126
 7143TIP3    H142920   5.105   0.175  15.718 -0.0413 -2.2058 -0.2090
 7143TIP3    H242921   5.000   0.091  15.787 -0.5860 -0.7207  0.8287
 7144TIP3   OH242922   3.506   2.023   0.589  0.2851  0.0171 -0.2639
 7144TIP3    H142923   3.423   2.027   0.638  0.1876 -0.9535 -0.3271
 7144TIP3    H242924   3.498   2.092   0.523  0.4167  1.3608  1.0641
 7145TIP3   OH242925   6.801   3.743   3.624  0.1872 -0.3443  0.0001
 7145TIP3    H142926   6.862   3.816   3.617  0.3082 -0.4301  0.1611
 7145TIP3    H242927   6.844   3.681   3.682  0.9990 -1.4452 -1.6934
 7146TIP3   OH242928   4.003   5.132   3.105  1.0525  0.2874  0.1885
 7146TIP3    H142929   4.031   5.093   3.022 -1.6355 -0.8004 -0.3229
 7146TIP3    H242930   3.958   5.213   3.079 -1.1770 -0.8304  0.3386
 7147TIP3   OH242931   0.720   5.871  14.312 -0.0885 -0.4519  0.2221
 7147TIP3    H142932   0.795   5.896  14.258 -1.3703 -1.7579 -2.3400
 7147TIP3    H242933   0.758   5.844  14.396  2.1965 -0.2739 -0.7005
 7148TIP3   OH242934   0.717   6.814   5.629  0.3041 -0.3990 -0.6185
 7148TIP3    H142935   0.629   6.784   5.650  0.0134 -0.8019 -2.2244
 7148TIP3    H242936   0.752   6.849   5.711 -1.1354 -0.7517  0.1677
 7149TIP3   OH242937   0.685   0.678   5.376  0.3229 -0.5660 -0.6446
 7149TIP3    H142938   0.628   0.702   5.449  1.6544  2.4882 -0.4699
 7149TIP3    H242939   0.628   0.688   5.299  0.0954  0.6986 -0.3407
 7150TIP3   OH242940   6.199   3.695   3.414 -0.2919  0.1120 -0.5648
 7150TIP3    H142941   6.290   3.718   3.395 -0.3759 -0.8440 -2.3444
 7150TIP3    H242942   6.201   3.600   3.430 -0.8069  0.2903  0.6861
 7151TIP3   OH242943   0.889   5.522  11.689  0.1739  0.2074  0.4946
 7151TIP3    H142944   0.898   5.616  11.675  0.4277  0.0599 -0.3887
 7151TIP3    H242945   0.936   5.505  11.770  4.1017  0.1832 -1.5410
 7152TIP3   OH242946   3.733   6.712  15.421 -0.2297 -0.3315  0.0278
 7152TIP3    H142947   3.655   6.763  15.403 -0.3919 -1.0342 -1.3766
 7152TIP3    H242948   3.774   6.699  15.336  1.0766 -0.5224  0.6547
 7153TIP3   OH242949   1.513   2.761   1.023  0.2534 -0.0695  0.4212
 7153TIP3    H142950   1.590   2.734   1.074  0.4964 -0.0341  0.0821
 7153TIP3    H242951   1.462   2.680   1.012  1.0053 -0.4355 -0.6334
 7154TIP3   OH242952   2.702   4.272  15.969 -0.6773 -0.1428  0.3032
 7154TIP3    H142953   2.617   4.315  15.982 -0.9849 -0.1972 -1.3565
 7154TIP3    H242954   2.698   4.237  15.880  1.9118  1.8162 -0.7239
 7155TIP3   OH242955   2.862   5.223   2.673 -0.4184  0.1107 -0.1996
 7155TIP3    H142956   2.957   5.231   2.684 -0.1231 -1.6941 -1.0718
 7155TIP3    H242957   2.839   5.292   2.611  0.5324 -0.2019 -0.9229
 7156TIP3   OH242958   6.768   2.430   6.181 -0.1948  0.7764 -0.0429
 7156TIP3    H142959   6.718   2.469   6.109 -1.3180 -0.9201 -0.2647
 7156TIP3    H242960   6.700   2.397   6.241  0.5800 -1.6654 -0.3835
 7157TIP3   OH242961   1.955   3.786   2.090  0.3584  0.0897  0.1679
 7157TIP3    H142962   2.017   3.714   2.076  0.8268  0.3613  0.8180
 7157TIP3    H242963   1.965   3.842   2.013  1.0695  0.2362  0.3660
 7158TIP3   OH242964   6.596   4.420  14.878  0.2612  0.1261 -0.5119
 7158TIP3    H142965   6.617   4.368  14.956  1.0840  0.8703 -0.2200
 7158TIP3    H242966   6.633   4.369  14.806  0.3568 -0.0876 -0.3158
 7159TIP3   OH242967   2.636   3.552   5.187  0.5035  0.1214 -0.2976
 7159TIP3    H142968   2.697   3.479   5.177  0.3371 -0.2010  0.9782
 7159TIP3    H242969   2.670   3.603   5.259 -0.4042  0.2715  0.0397
 7160TIP3   OH242970   0.813   3.721   0.422  1.1340 -0.1538  0.2038
 7160TIP3    H142971   0.725   3.684   0.416  0.7803  0.6668  0.2009
 7160TIP3    H242972   0.855   3.672   0.493  0.3077  0.1720  0.9353
 7161TIP3   OH242973   4.495   2.989   3.659 -0.8089  0.0683 -0.2096
 7161TIP3    H142974   4.563   2.924   3.675  0.2821  0.9755 -0.9666
 7161TIP3    H242975   4.419   2.938   3.633 -0.4011 -0.9724  0.5809
 7162TIP3   OH242976   4.086   3.472  14.245  0.0696  0.7531 -0.5124
 7162TIP3    H142977   4.162   3.489  14.301 -0.5835  1.3970  0.2023
 7162TIP3    H242978   4.089   3.542  14.179 -0.8522  1.8128  0.5448
 7163TIP3   OH242979   1.969   0.418   3.050  0.1058 -0.1730 -0.3424
 7163TIP3    H142980   1.946   0.375   3.133  1.3525 -0.1497  0.0284
 7163TIP3    H242981   2.063   0.402   3.040  0.0053 -0.0211 -1.6717
 7164TIP3   OH242982   0.159   2.460  13.078 -0.5445 -0.4703 -0.1842
 7164TIP3    H142983   0.233   2.404  13.057 -0.6886 -0.5023 -0.6240
 7164TIP3    H242984   0.082   2.406  13.057 -0.7314 -0.9511  1.5640
 7165TIP3   OH242985   1.015   4.116  15.108 -0.4810  0.4050  0.1199
 7165TIP3    H142986   1.048   4.027  15.118  0.8933  1.0929  2.5521
 7165TIP3    H242987   0.946   4.123  15.175 -0.1179  1.3558  0.4076
 7166TIP3   OH242988   2.682   3.177  13.787 -0.0471  0.0390 -0.2652
 7166TIP3    H142989   2.715   3.191  13.876  0.0062 -0.8175 -0.1378
 7166TIP3    H242990   2.640   3.260  13.763  0.2813  0.4092  0.4057
 7167TIP3   OH242991   5.653   1.863   5.345  0.4229 -0.5845 -0.5007
 7167TIP3    H142992   5.724   1.815   5.389  0.7455 -0.7309 -1.1640
 7167TIP3    H242993   5.629   1.807   5.271  0.1474 -0.1658 -0.7278
 7168TIP3   OH242994   0.423   4.164  13.645 -0.1072  0.1366 -0.0124
 7168TIP3    H142995   0.345   4.219  13.642 -0.3655 -0.2360 -0.2388
 7168TIP3    H242996   0.392   4.076  13.620 -0.1336 -0.6490  2.5509
 7169TIP3   OH242997   5.624   0.586   0.216  0.5975  0.2878  0.3092
 7169TIP3    H142998   5.684   0.626   0.279  0.8247 -0.5304  0.6341
 7169TIP3    H242999   5.547   0.563   0.268 -0.1604  1.6468 -0.1749
 7170TIP3   OH243000   0.263   1.854   5.870 -0.2062 -1.2434  0.0459
 7170TIP3    H143001   0.268   1.847   5.966  1.0681 -1.7052 -0.0389
 7170TIP3    H243002   0.192   1.795   5.846 -0.8420 -0.7786  0.7334
 7171TIP3   OH243003   4.411   5.193   0.610 -0.3362  0.6361 -0.3192
 7171TIP3    H143004   4.319   5.200   0.586  0.3168  3.3225 -2.5270
 7171TIP3    H243005   4.413   5.217   0.703 -1.7893  1.1286 -0.3914
 7172TIP3   OH243006   5.100   5.798  15.253 -0.1573  0.4003  0.4055
 7172TIP3    H143007   5.025   5.739  15.263 -1.0119  1.1839 -1.0284
 7172TIP3    H243008   5.072   5.862  15.188  2.1805  0.0281 -1.0904
 7173TIP3   OH243009   2.102   6.322  11.932 -0.0944 -0.3885  0.5005
 7173TIP3    H143010   2.179   6.378  11.923  0.5984 -1.3167  0.4771
 7173TIP3    H243011   2.103   6.295  12.024 -0.1997 -0.6729  0.4193
 7174TIP3   OH243012   6.365   3.331   1.457  0.1708 -0.3628  0.0558
 7174TIP3    H143013   6.340   3.391   1.527 -0.5572  0.3277 -0.7769
 7174TIP3    H243014   6.413   3.386   1.394 -0.8435 -0.5354 -0.9031
 7175TIP3   OH243015   2.017   2.170  12.403  0.3776  0.6059 -0.3840
 7175TIP3    H143016   2.029   2.191  12.311  0.4834 -1.9014 -1.0304
 7175TIP3    H243017   1.922   2.171  12.416  0.3263  0.2850 -0.7141
 7176TIP3   OH243018   3.366   4.969   0.265 -0.0626 -0.3655 -1.0210
 7176TIP3    H143019   3.343   4.892   0.214 -1.1602 -1.2022  0.6848
 7176TIP3    H243020   3.416   5.024   0.204 -0.1947 -1.9120 -2.5763
 7177TIP3   OH243021   1.594   6.665  12.456  0.8170  0.3410 -0.2261
 7177TIP3    H143022   1.501   6.649  12.476  1.0439 -0.3734  0.2585
 7177TIP3    H243023   1.618   6.737  12.514  0.9330 -0.3948  0.6523
 7178TIP3   OH243024   1.955   6.488   5.230 -0.0206  0.3853 -0.4671
 7178TIP3    H143025   1.916   6.403   5.213  1.3083  0.2049 -3.1029
 7178TIP3    H243026   1.884   6.539   5.269 -1.7675 -1.0343 -1.6000
 7179TIP3   OH243027   0.087   3.178  15.818 -0.2921  0.3521 -0.1254
 7179TIP3    H143028   0.062   3.264  15.853 -0.6627  0.3806 -0.4613
 7179TIP3    H243029   0.119   3.196  15.730 -0.0470  0.1850 -0.0731
 7180TIP3   OH243030   4.522   5.245   0.101 -0.1040 -0.5851  0.3918
 7180TIP3    H143031   4.426   5.243   0.100 -0.1055 -1.5774 -1.0943
 7180TIP3    H243032   4.545   5.254   0.194 -1.6211 -0.3538  0.7788
 7181TIP3   OH243033   4.522   1.577   5.366  0.0731 -0.1306  0.1327
 7181TIP3    H143034   4.447   1.565   5.424  0.1332 -1.7747 -0.1018
 7181TIP3    H243035   4.593   1.604   5.425 -0.4090  0.3656  0.5018
 7182TIP3   OH243036   2.912   1.048  16.246  0.1216 -0.8742 -0.3376
 7182TIP3    H143037   2.906   1.038  16.151  3.7286  1.5972 -1.0319
 7182TIP3    H243038   2.845   1.113  16.268 -1.6187 -2.3896 -0.8557
 7183TIP3   OH243039   3.085   1.989   3.356  0.2824 -0.0545  0.3154
 7183TIP3    H143040   3.124   2.076   3.346  1.0975 -0.5152 -0.7335
 7183TIP3    H243041   3.123   1.937   3.285 -0.7336 -1.0822  0.4903
 7184TIP3   OH243042   2.181   5.233   2.600  0.3586 -0.2016 -0.4403
 7184TIP3    H143043   2.202   5.324   2.620  0.6603 -0.6041  1.2319
 7184TIP3    H243044   2.216   5.219   2.512 -1.4498  1.8353 -1.5710
 7185TIP3   OH243045   5.753   6.607   6.398 -0.1421 -0.1777  0.3781
 7185TIP3    H143046   5.660   6.589   6.407  0.0545 -1.5618 -0.1682
 7185TIP3    H243047   5.757   6.695   6.360 -1.1807  0.4235  1.6177
 7186TIP3   OH243048   2.862   6.023  15.783 -0.5482 -0.6810 -0.0703
 7186TIP3    H143049   2.827   6.106  15.815  0.3703 -0.4176  0.2789
 7186TIP3    H243050   2.920   5.993  15.852  0.3600 -0.8168 -0.8725
 7187TIP3   OH243051   6.049   1.796  14.460  0.3104 -0.5663  0.3681
 7187TIP3    H143052   5.990   1.721  14.459 -0.3710 -0.0339 -0.5447
 7187TIP3    H243053   6.079   1.802  14.551 -2.3408  0.1525  1.2931
 7188TIP3   OH243054   4.383   3.061   3.023  0.1853 -0.2594  0.0165
 7188TIP3    H143055   4.398   3.155   3.032 -1.7241  0.2592 -1.6212
 7188TIP3    H243056   4.469   3.022   3.036  1.1232  1.7393  0.1894
 7189TIP3   OH243057   4.198   4.451  16.719  0.2643  0.2074 -0.0426
 7189TIP3    H143058   4.193   4.545  16.702 -0.2314  0.2121  0.0871
 7189TIP3    H243059   4.179   4.409  16.635  1.5598  0.2164 -0.3492
 7190TIP3   OH243060   4.343   4.973   3.117 -0.2009 -0.2427 -0.9242
 7190TIP3    H143061   4.262   5.003   3.077  0.5176  1.1400 -1.4246
 7190TIP3    H243062   4.412   5.003   3.056  0.9132  1.7421  1.1494
 7191TIP3   OH243063   6.458   6.547  11.982 -0.0802  0.0343  0.2493
 7191TIP3    H143064   6.405   6.482  12.028  0.6419 -0.2678  0.6868
 7191TIP3    H243065   6.483   6.504  11.900 -0.0552 -0.0310  0.2913
 7192TIP3   OH243066   5.687   2.079   2.552 -0.5634  0.1583  0.0220
 7192TIP3    H143067   5.626   2.152   2.548  0.2000  0.8247  0.3605
 7192TIP3    H243068   5.637   2.008   2.594 -1.2487  0.5360 -0.1509
 7193TIP3   OH243069   2.504   1.685   4.609  0.1814 -0.2763 -0.5731
 7193TIP3    H143070   2.593   1.710   4.584 -0.4773  2.7871 -0.3028
 7193TIP3    H243071   2.506   1.684   4.704  0.0264 -0.5858 -0.5753
 7194TIP3   OH243072   5.665   5.695  13.583 -0.7772 -0.0965  0.7001
 7194TIP3    H143073   5.695   5.748  13.509  0.6143  2.2714  2.8020
 7194TIP3    H243074   5.573   5.718  13.593 -1.2210 -1.0867 -0.7271
 7195TIP3   OH243075   0.112   5.723  12.573  0.3928 -0.5542  0.0673
 7195TIP3    H143076   0.049   5.662  12.613 -0.7790  0.9193  0.5587
 7195TIP3    H243077   0.191   5.714  12.627 -1.1707  1.4651  3.0057
 7196TIP3   OH243078   5.741   3.336  13.206 -0.2002 -0.4727  0.2437
 7196TIP3    H143079   5.661   3.321  13.256 -0.1950  0.5319  0.5663
 7196TIP3    H243080   5.737   3.271  13.136 -3.4712  2.0585 -2.3335
 7197TIP3   OH243081   1.743   4.663   4.992  0.5852  0.1470  0.5738
 7197TIP3    H143082   1.729   4.591   4.931  0.9177 -1.0584  1.8683
 7197TIP3    H243083   1.836   4.684   4.985  0.1345  1.8639 -1.2524
 7198TIP3   OH243084   1.588   1.761  12.059 -0.6245 -0.3686  0.4934
 7198TIP3    H143085   1.650   1.748  12.131 -0.5367 -0.0927  0.4682
 7198TIP3    H243086   1.506   1.784  12.102 -0.1918  1.3510  0.4680
 7199TIP3   OH243087   3.097   1.161  15.786 -0.2987 -0.1214 -0.5229
 7199TIP3    H143088   3.172   1.197  15.740 -0.0568  0.1770  0.0839
 7199TIP3    H243089   3.134   1.105  15.854 -0.6568 -0.8679 -0.9255
 7200TIP3   OH243090   3.022   5.064  17.103 -0.0458  0.1936  0.5014
 7200TIP3    H143091   3.087   5.114  17.053  1.5776  0.6103  2.8397
 7200TIP3    H243092   2.980   5.129  17.160  0.3188 -0.6563  1.8040
 7201TIP3   OH243093   1.449   0.032  11.963 -0.3431 -0.1481  0.0605
 7201TIP3    H143094   1.523   0.055  12.019 -1.8256  0.5807  1.8592
 7201TIP3    H243095   1.488  -0.007  11.885  1.8743 -0.3398  1.1929
 7202TIP3   OH243096   3.688   6.779  13.516 -0.1351  0.6770 -0.0152
 7202TIP3    H143097   3.678   6.788  13.611  1.2826  0.0321  0.2122
 7202TIP3    H243098   3.768   6.729  13.505 -0.3536  0.6320 -1.5659
 7203TIP3   OH243099   2.874   0.185   0.355  0.2501 -0.2404 -0.7269
 7203TIP3    H143100   2.859   0.196   0.261 -1.9579 -0.5523 -0.4550
 7203TIP3    H243101   2.820   0.252   0.396  1.0312 -0.2477  0.3452
 7204TIP3   OH243102   5.718   3.938   6.120  0.1744  0.5307  0.2633
 7204TIP3    H143103   5.626   3.958   6.136 -0.5169 -3.2199  2.0248
 7204TIP3    H243104   5.766   4.002   6.173 -1.5261  0.9633  1.3579
 7205TIP3   OH243105   6.469   2.800  10.574  0.1948  0.2609 -0.4557
 7205TIP3    H143106   6.539   2.746  10.537  0.9084  0.0598  1.0835
 7205TIP3    H243107   6.391   2.774  10.527  0.8374 -0.9030 -0.9156
 7206TIP3   OH243108   4.932   0.747  16.078 -0.1476 -0.5128  0.2286
 7206TIP3    H143109   4.948   0.840  16.091 -0.0521 -0.3757 -0.8264
 7206TIP3    H243110   4.860   0.727  16.138 -0.9678  0.5007 -0.3922
 7207TIP3   OH243111   1.745   3.377  11.756 -0.1788  0.5029  0.0736
 7207TIP3    H143112   1.803   3.342  11.689  1.5155  0.8589  1.2732
 7207TIP3    H243113   1.764   3.326  11.834 -1.1141  0.9868  0.6437
 7208TIP3   OH243114   4.375   1.746   4.258 -0.8077 -0.6422  0.4347
 7208TIP3    H143115   4.443   1.741   4.191 -1.7982 -0.8696 -0.5951
 7208TIP3    H243116   4.422   1.736   4.341  0.4135 -0.6725 -0.2330
 7209TIP3   OH243117   3.484   0.627   5.307  0.0253 -0.1330 -0.4481
 7209TIP3    H143118   3.434   0.603   5.385  0.8889  0.3313  0.2737
 7209TIP3    H243119   3.434   0.592   5.234 -0.6785 -0.7928  0.3347
 7210TIP3   OH243120   1.062   0.264  15.292  0.3687  0.1798  0.0599
 7210TIP3    H143121   1.104   0.201  15.233  0.9023 -0.4545  1.0967
 7210TIP3    H243122   1.106   0.251  15.376 -1.6439 -0.2451  1.0920
 7211TIP3   OH243123   4.626   0.423  14.073  0.2446  0.2289  0.8338
 7211TIP3    H143124   4.622   0.514  14.104 -0.1356  1.0371 -1.4034
 7211TIP3    H243125   4.687   0.425  14.000 -0.1885 -1.2195  0.4009
 7212TIP3   OH243126   0.701   2.847   3.590 -0.6563  0.6296  0.3183
 7212TIP3    H143127   0.619   2.836   3.638 -0.8744 -0.8192 -0.3231
 7212TIP3    H243128   0.749   2.766   3.605  0.9564  1.7021  1.1728
 7213TIP3   OH243129   0.772   6.694   3.247 -0.0617  0.1321 -0.0028
 7213TIP3    H143130   0.722   6.629   3.295 -0.9426  1.4392  0.9205
 7213TIP3    H243131   0.753   6.677   3.155 -0.9724 -0.3558  0.2701
 7214TIP3   OH243132   0.615   0.266   2.570  0.5210  0.0994  0.0196
 7214TIP3    H143133   0.554   0.332   2.536  0.4953  0.3763  0.5873
 7214TIP3    H243134   0.679   0.317   2.620 -0.2289 -0.4104  1.5474
 7215TIP3   OH243135   3.295   6.732  11.714  0.4205  0.1741  0.0153
 7215TIP3    H143136   3.360   6.709  11.781  1.0181 -0.4651 -0.7580
 7215TIP3    H243137   3.265   6.647  11.680 -0.6783  0.4636  0.2107
 7216TIP3   OH243138   6.024   2.039   3.558 -0.6905 -0.3025  0.2821
 7216TIP3    H143139   5.934   2.059   3.531 -1.1368 -1.2749  0.9796
 7216TIP3    H243140   6.015   2.005   3.647  0.3245 -0.8497  0.1869
 7217TIP3   OH243141   4.920   4.459  11.051  0.0136  0.7267 -0.1173
 7217TIP3    H143142   4.908   4.541  11.100  1.5048  1.0267 -0.2216
 7217TIP3    H243143   4.944   4.487  10.963  1.1964  0.1955  0.0230
 7218TIP3   OH243144   6.764   6.298  13.778  0.4633 -0.5737  0.0885
 7218TIP3    H143145   6.852   6.295  13.739  0.2475 -1.5266 -0.3751
 7218TIP3    H243146   6.769   6.238  13.852  0.1894 -0.6934  0.0130
 7219TIP3   OH243147   2.855   5.045  13.723 -0.0867  0.6558 -0.4747
 7219TIP3    H143148   2.901   4.962  13.734  0.0409  0.4417 -2.4448
 7219TIP3    H243149   2.765   5.026  13.747 -0.2292 -0.2807 -1.6637
 7220TIP3   OH243150   5.243   2.287   1.843 -0.1435  0.0623  0.3410
 7220TIP3    H143151   5.187   2.300   1.766 -0.4759  0.2716  0.6178
 7220TIP3    H243152   5.278   2.373   1.863  0.9154 -0.1982 -0.3052
 7221TIP3   OH243153   0.257   1.741   1.063  0.1147  0.0187  0.5508
 7221TIP3    H143154   0.214   1.751   1.148 -1.2921 -0.3166 -0.1025
 7221TIP3    H243155   0.195   1.693   1.009 -0.6179  3.2665 -1.8341
 7222TIP3   OH243156   4.973   1.261   4.823 -0.4107 -0.5155 -0.2340
 7222TIP3    H143157   4.999   1.219   4.905 -2.7000 -2.0814 -0.2411
 7222TIP3    H243158   5.029   1.219   4.757  1.4266  0.7361  0.4282
 7223TIP3   OH243159   0.279   2.398   3.708  0.5616 -0.6043  0.4018
 7223TIP3    H143160   0.246   2.308   3.707 -0.5582 -0.2276  1.4982
 7223TIP3    H243161   0.336   2.402   3.785  2.9934 -1.1410 -1.2557
 7224TIP3   OH243162   4.432   1.258   5.701  0.1701 -0.6050 -0.0042
 7224TIP3    H143163   4.437   1.184   5.761 -0.7621 -0.3274  0.4333
 7224TIP3    H243164   4.516   1.303   5.711  0.2509 -0.8945  0.6573
 7225TIP3   OH243165   1.253   5.273   0.924  0.1836 -0.0248 -0.2240
 7225TIP3    H143166   1.237   5.181   0.902  1.0443 -0.3281  0.3475
 7225TIP3    H243167   1.204   5.286   1.006  1.8551 -0.6542  0.9466
 7226TIP3   OH243168   4.587   3.869  11.072 -0.1480  0.1294 -0.7130
 7226TIP3    H143169   4.518   3.889  11.008 -0.8048 -1.2254 -0.4670
 7226TIP3    H243170   4.657   3.831  11.020 -0.8407 -1.3427 -0.6236
 7227TIP3   OH243171   0.953   5.934   4.028  0.0881 -0.1948  0.0123
 7227TIP3    H143172   0.935   5.883   3.949  3.6472  0.7138 -1.6168
 7227TIP3    H243173   0.992   5.872   4.089 -0.8529 -0.4920  0.3373
 7228TIP3   OH243174   5.535   5.095   6.240  0.1113  0.2985 -0.0655
 7228TIP3    H143175   5.599   5.164   6.260 -0.1904  0.3225  0.8609
 7228TIP3    H243176   5.576   5.015   6.273 -0.4609  0.3609  0.8278
 7229TIP3   OH243177   1.961   1.099  11.328  0.8790  0.7134 -0.2960
 7229TIP3    H143178   2.017   1.060  11.395  0.7752  1.4854  0.2505
 7229TIP3    H243179   1.872   1.086  11.360  0.6112 -1.8300 -1.8649
 7230TIP3   OH243180   0.977   5.505  13.823 -0.2407 -0.0289  0.6670
 7230TIP3    H143181   0.915   5.433  13.835  0.4769 -0.3559  2.8600
 7230TIP3    H243182   1.051   5.483  13.880 -0.0962  2.5287  1.6252
 7231TIP3   OH243183   1.375   3.594  11.775  0.0923  0.8865  0.0425
 7231TIP3    H143184   1.338   3.549  11.698  1.7206 -0.5694  0.0470
 7231TIP3    H243185   1.336   3.549  11.850  0.8834  0.1789  0.0446
 7232TIP3   OH243186   3.300   3.669   3.077 -0.0268  0.2290 -0.0082
 7232TIP3    H143187   3.374   3.696   3.131 -0.4331  1.0141  0.1768
 7232TIP3    H243188   3.331   3.676   2.987  0.3874 -0.2653  0.0951
 7233TIP3   OH243189   4.990   3.691  15.432 -0.0799 -0.2046 -0.1135
 7233TIP3    H143190   4.912   3.716  15.481 -0.5928 -1.5289 -0.2135
 7233TIP3    H243191   4.977   3.598  15.413  2.8901 -1.3334  2.4785
 7234TIP3   OH243192   3.635   0.493   5.074  0.7328 -0.2236  0.1885
 7234TIP3    H143193   3.672   0.563   5.020  1.4539 -0.2321  0.6529
 7234TIP3    H243194   3.541   0.497   5.057  0.6889  1.2114  0.5783
 7235TIP3   OH243195   5.832   6.169  16.467 -0.3321 -0.1250  0.3685
 7235TIP3    H143196   5.874   6.104  16.410 -1.2023 -0.8753  0.5640
 7235TIP3    H243197   5.855   6.142  16.555 -0.0266  0.3136  0.4258
 7236TIP3   OH243198   3.000   4.489  11.203 -0.1848 -0.2737 -0.0142
 7236TIP3    H143199   3.003   4.453  11.114 -2.3733  0.1357 -0.3131
 7236TIP3    H243200   2.921   4.450  11.242 -0.4907  1.2421  0.9598
 7237TIP3   OH243201   5.140   4.840  12.988  0.3753  0.1900  0.3615
 7237TIP3    H143202   5.214   4.864  12.932 -0.0463  1.6014  0.3808
 7237TIP3    H243203   5.166   4.756  13.027  0.3184 -1.3653 -2.6177
 7238TIP3   OH243204   0.779   4.585  11.815 -0.0642  0.5291  0.1129
 7238TIP3    H143205   0.825   4.628  11.743 -0.2612  1.4101  0.5003
 7238TIP3    H243206   0.707   4.537  11.773  0.8187 -0.3680 -0.4368
 7239TIP3   OH243207   3.110   0.229   1.981 -0.1594  0.2239  0.0974
 7239TIP3    H143208   3.027   0.264   2.014  0.6150  1.3075  0.9383
 7239TIP3    H243209   3.086   0.144   1.944 -1.6366  0.4870  0.3757
 7240TIP3   OH243210   5.476   1.569   3.330 -0.9190  0.1831 -0.5015
 7240TIP3    H143211   5.485   1.553   3.424  1.1089  1.7456 -0.3644
 7240TIP3    H243212   5.553   1.529   3.291 -0.5174  1.5574 -1.1903
 7241TIP3   OH243213   0.021   1.261  11.673  0.0510  0.8778  0.7498
 7241TIP3    H143214  -0.035   1.332  11.642 -1.7134 -0.1422  1.4235
 7241TIP3    H243215  -0.027   1.224  11.748  1.2977 -0.4980  0.9091
 7242TIP3   OH243216   3.793   6.701  12.471  0.6190 -0.4285  0.1626
 7242TIP3    H143217   3.767   6.760  12.401 -0.6088 -1.3350 -0.1636
 7242TIP3    H243218   3.813   6.618  12.427  0.4502 -0.8248  0.8173
 7243TIP3   OH243219   1.933   0.821  12.815  0.2389 -0.0533  0.1376
 7243TIP3    H143220   2.003   0.774  12.769 -0.4417  0.0160 -1.0082
 7243TIP3    H243221   1.852   0.785  12.778 -0.3194  2.5055 -1.3914
 7244TIP3   OH243222   1.722   6.340  13.429 -0.2618  0.3327 -0.9512
 7244TIP3    H143223   1.628   6.332  13.449 -0.1096  1.6163  0.3731
 7244TIP3    H243224   1.757   6.253  13.448 -0.8788  0.3452  0.3545
 7245TIP3   OH243225   1.477   0.034  16.607  1.0094  0.3232 -0.3042
 7245TIP3    H143226   1.509  -0.031  16.669 -1.8218 -0.6235  0.3016
 7245TIP3    H243227   1.457   0.111  16.660 -3.3522 -1.1409  0.6066
 7246TIP3   OH243228   6.319   6.582  12.334  0.6800 -0.2701  0.6059
 7246TIP3    H143229   6.343   6.526  12.260  0.2613  2.2310 -1.6000
 7246TIP3    H243230   6.402   6.614  12.368  0.9228  2.0544 -1.8134
 7247TIP3   OH243231   0.805   0.324  16.161  0.3368 -0.6591 -0.2785
 7247TIP3    H143232   0.893   0.307  16.192 -0.1284 -0.6417  1.1427
 7247TIP3    H243233   0.774   0.241  16.125 -0.3687 -1.7721  2.6333
 7248TIP3   OH243234   0.630   3.749  14.410 -0.3002  0.4618  0.1652
 7248TIP3    H143235   0.578   3.826  14.435  0.9247  0.8687  1.6224
 7248TIP3    H243236   0.721   3.779  14.417  0.1935 -1.0235  0.3884
 7249TIP3   OH243237   4.789   0.960   1.903 -0.1243 -0.2730 -0.1850
 7249TIP3    H143238   4.751   0.872   1.908  0.5696 -0.7113 -1.9352
 7249TIP3    H243239   4.720   1.015   1.868  0.4071 -0.8570 -2.3438
 7250TIP3   OH243240   6.616   1.035   0.376  0.3695 -0.5053 -0.1275
 7250TIP3    H143241   6.574   0.951   0.395 -0.3970 -0.2970 -0.8188
 7250TIP3    H243242   6.708   1.021   0.396  0.4998 -1.9497 -1.5394
 7251TIP3   OH243243   4.206   0.263   3.120  0.1857  0.6346 -0.1232
 7251TIP3    H143244   4.238   0.173   3.112 -0.0604  0.6339 -1.3289
 7251TIP3    H243245   4.279   0.317   3.088  0.5692  0.9163  1.1870
 7252TIP3   OH243246   1.166   2.622  16.787  0.5989  0.4745 -0.7140
 7252TIP3    H143247   1.255   2.629  16.821 -0.0625 -1.7549  1.9141
 7252TIP3    H243248   1.112   2.610  16.865 -1.6031 -1.1919 -2.3670
 7253TIP3   OH243249   3.408   3.289  14.542  0.4200 -0.2901  0.5882
 7253TIP3    H143250   3.338   3.338  14.586  0.9418  0.5753  0.4887
 7253TIP3    H243251   3.380   3.198  14.545 -0.9064  0.0805  0.2146
 7254TIP3   OH243252   6.041   4.916   1.755  0.5543 -0.3887 -0.2992
 7254TIP3    H143253   6.048   4.981   1.684 -3.8675  1.5442  0.6557
 7254TIP3    H243254   6.010   4.837   1.712  0.0514  0.0720 -0.8024
 7255TIP3   OH243255   6.650   1.719  15.948  0.1173  0.2269 -0.1749
 7255TIP3    H143256   6.658   1.809  15.980  0.4834  0.1779 -0.1243
 7255TIP3    H243257   6.573   1.721  15.891  0.2608  0.6279 -0.3613
 7256TIP3   OH243258   5.703   1.069  14.347  1.1841  0.5494 -0.6723
 7256TIP3    H143259   5.639   0.999  14.340 -0.5057  2.0930 -1.5285
 7256TIP3    H243260   5.735   1.064  14.437  1.5098 -1.5768 -0.8508
 7257TIP3   OH243261   5.840   3.717  11.733 -0.0144  0.1277  0.0876
 7257TIP3    H143262   5.773   3.652  11.711 -0.3639 -0.0770  1.6390
 7257TIP3    H243263   5.804   3.800  11.701 -1.3701  0.1355  1.5243
 7258TIP3   OH243264   1.179   4.882   6.328 -0.2739 -0.0167  0.0795
 7258TIP3    H143265   1.100   4.871   6.275 -0.1360  0.0274 -0.1356
 7258TIP3    H243266   1.168   4.967   6.371 -1.5957 -1.1385  2.1643
 7259TIP3   OH243267   3.329   6.181   5.735 -0.3629  0.4935  0.5006
 7259TIP3    H143268   3.398   6.133   5.782  2.4101  1.2046 -2.5446
 7259TIP3    H243269   3.357   6.272   5.737 -1.2881  0.8281 -0.7179
 7260TIP3   OH243270   5.223   4.862   1.807  0.7757 -0.1250  0.2228
 7260TIP3    H143271   5.241   4.950   1.841 -4.9886  1.0019  1.4169
 7260TIP3    H243272   5.182   4.816   1.880  0.0664 -2.4187 -1.4914
 7261TIP3   OH243273   5.781   6.288   0.959  0.3431 -0.0063 -0.1965
 7261TIP3    H143274   5.830   6.371   0.963  1.2901 -0.5846  0.8935
 7261TIP3    H243275   5.849   6.221   0.958 -0.4211 -0.8147  0.6041
 7262TIP3   OH243276   4.259   6.061  11.053  0.7440  0.7951  0.1574
 7262TIP3    H143277   4.178   6.096  11.090 -0.2435 -0.7838 -0.3860
 7262TIP3    H243278   4.290   6.128  10.993  0.3120  1.7692  0.9976
 7263TIP3   OH243279   4.589   2.652  11.087  0.2882  0.1470 -0.0618
 7263TIP3    H143280   4.587   2.706  11.008 -0.3489 -0.4555 -0.4645
 7263TIP3    H243281   4.501   2.660  11.124  0.1823 -0.6424 -0.1399
 7264TIP3   OH243282   3.216   3.231   3.636  0.3449  0.1172 -0.3525
 7264TIP3    H143283   3.253   3.248   3.550  0.3163  1.0053 -0.2052
 7264TIP3    H243284   3.129   3.194   3.618  1.3568 -2.2832 -0.6994
 7265TIP3   OH243285   1.902   4.748  12.309  0.0536 -0.0655  0.1391
 7265TIP3    H143286   1.869   4.669  12.351  0.0049 -0.7866 -1.1925
 7265TIP3    H243287   1.854   4.819  12.350 -1.4144 -0.8999 -0.0635
 7266TIP3   OH243288   3.973   5.792   5.739  0.0567 -0.1774  0.2847
 7266TIP3    H143289   3.915   5.821   5.809 -0.2539  0.6750 -0.3162
 7266TIP3    H243290   3.916   5.782   5.663  0.7707  1.3484 -0.5002
 7267TIP3   OH243291   3.351   2.806   3.240 -0.2488  0.2015 -0.9172
 7267TIP3    H143292   3.364   2.826   3.147 -0.2647  3.2822 -0.3587
 7267TIP3    H243293   3.393   2.878   3.286 -1.2593 -0.6418  1.4662
 7268TIP3   OH243294   0.439   2.706  14.816 -0.5490 -0.3292 -0.3680
 7268TIP3    H143295   0.492   2.653  14.876 -2.0714 -0.3012  1.0876
 7268TIP3    H243296   0.434   2.654  14.736  1.2890 -0.5134 -0.3989
 7269TIP3   OH243297   4.707   4.627   4.451 -0.3860 -0.3289  0.7575
 7269TIP3    H143298   4.624   4.653   4.491 -0.4748 -0.7859  0.8840
 7269TIP3    H243299   4.773   4.641   4.518 -0.1128  1.5357  0.1371
 7270TIP3   OH243300   5.999   6.292   3.867 -0.8246 -0.1450 -0.5728
 7270TIP3    H143301   6.082   6.248   3.846  0.8076  2.0234  0.8704
 7270TIP3    H243302   5.953   6.298   3.784  2.3293  2.1316 -2.3680
 7271TIP3   OH243303   2.265   5.279  14.966  0.2210 -0.6009  0.0003
 7271TIP3    H143304   2.291   5.202  14.915 -0.4047 -1.7803  1.3719
 7271TIP3    H243305   2.179   5.255  15.002  0.3535  0.4381  1.0537
 7272TIP3   OH243306   5.582   0.936  16.856  0.0088  0.2622 -0.3125
 7272TIP3    H143307   5.659   0.880  16.857 -1.6383 -2.1455  0.7442
 7272TIP3    H243308   5.598   1.001  16.925  1.3554  0.2370 -0.5877
 7273TIP3   OH243309   4.181   5.006  16.739 -0.5070 -0.3676  0.3081
 7273TIP3    H143310   4.234   5.075  16.698 -0.7873 -0.4075 -0.1284
 7273TIP3    H243311   4.199   5.015  16.832 -0.8010  0.5247  0.2930
 7274TIP3   OH243312   3.805   0.641  14.721  0.0287 -0.1731  0.7557
 7274TIP3    H143313   3.735   0.634  14.786 -1.9895  0.5737 -1.2023
 7274TIP3    H243314   3.761   0.630  14.637  2.3274  0.1316 -0.5802
 7275TIP3   OH243315   3.007   6.774   0.107 -0.0597 -0.2539  0.3490
 7275TIP3    H143316   2.999   6.705   0.173 -0.2795 -0.2814  0.2963
 7275TIP3    H243317   2.936   6.755   0.045  0.4747 -0.5439 -0.1871
 7276TIP3   OH243318   5.012   0.035   1.548 -0.2937 -0.3086  0.3227
 7276TIP3    H143319   5.016  -0.031   1.617 -0.1205 -0.0243  0.5896
 7276TIP3    H243320   4.940   0.007   1.491  1.0559 -1.8332 -0.7193
 7277TIP3   OH243321   6.600   1.145  12.911 -0.4796 -0.1891 -0.4942
 7277TIP3    H143322   6.634   1.087  12.843 -0.4746 -0.2392 -0.4500
 7277TIP3    H243323   6.507   1.122  12.918 -0.7833  0.7072 -1.3896
 7278TIP3   OH243324   1.180   1.965   3.896 -0.1686 -0.4288  0.2650
 7278TIP3    H143325   1.262   2.009   3.917 -0.5754  1.8352 -2.2623
 7278TIP3    H243326   1.207   1.887   3.848  0.5745  0.3608 -0.6571
 7279TIP3   OH243327   3.164   1.184   2.311  0.5075 -0.5491 -0.6082
 7279TIP3    H143328   3.173   1.093   2.282  3.0099 -1.0172  1.3050
 7279TIP3    H243329   3.201   1.236   2.239  1.2017 -1.2271 -0.7559
 7280TIP3   OH243330   0.596   5.384   0.611  0.0870 -0.3242 -0.7144
 7280TIP3    H143331   0.632   5.357   0.695  1.9903  0.0283 -1.3756
 7280TIP3    H243332   0.537   5.313   0.587 -0.8858 -0.2021  1.1151
 7281TIP3   OH243333   4.628   5.334   2.218 -0.4880 -0.3794  0.1513
 7281TIP3    H143334   4.592   5.365   2.135  0.3267 -0.6742 -0.3255
 7281TIP3    H243335   4.602   5.242   2.222  1.6436 -1.1036 -1.0593
 7282TIP3   OH243336   2.072   6.239  13.157 -0.3018  0.3436 -0.2130
 7282TIP3    H143337   1.986   6.282  13.156 -0.2290  0.4841 -0.4989
 7282TIP3    H243338   2.103   6.250  13.247  0.0809  1.6037 -0.4828
 7283TIP3   OH243339   2.384   0.441   1.282 -0.0167 -0.6896 -0.1884
 7283TIP3    H143340   2.361   0.527   1.246 -1.0973  0.1942  2.3487
 7283TIP3    H243341   2.301   0.406   1.314  0.3390 -2.9223 -1.4785
 7284TIP3   OH243342   2.723   3.637   0.765  0.4903 -0.4007 -0.4469
 7284TIP3    H143343   2.697   3.561   0.818  1.0583 -1.0616 -1.0962
 7284TIP3    H243344   2.763   3.599   0.687  1.8115  0.5782 -0.2792
 7285TIP3   OH243345   0.258   2.585   0.308  0.1082 -0.0494 -0.3531
 7285TIP3    H143346   0.238   2.569   0.216 -1.1493 -1.4450  0.1053
 7285TIP3    H243347   0.328   2.523   0.329 -1.1163 -1.3456  0.1194
 7286TIP3   OH243348   1.049   0.294   3.123  0.1252 -0.0663  0.0481
 7286TIP3    H143349   0.959   0.290   3.089  0.5132 -0.0251 -1.0053
 7286TIP3    H243350   1.073   0.386   3.116  0.2779 -0.0900  0.2680
 7287TIP3   OH243351   2.710   1.358   4.761  0.2888  0.5428 -0.1501
 7287TIP3    H143352   2.804   1.341   4.769  0.1367 -0.2604 -0.0263
 7287TIP3    H243353   2.683   1.312   4.682 -0.0033  0.7760 -0.1912
 7288TIP3   OH243354   6.222   5.385   4.501 -0.2697  0.0366  0.2708
 7288TIP3    H143355   6.307   5.424   4.480 -0.9511  1.5966  0.3151
 7288TIP3    H243356   6.198   5.335   4.423  1.0510 -1.1335  0.5735
 7289TIP3   OH243357   4.286   3.757  16.991 -0.1338  0.7957 -0.4213
 7289TIP3    H143358   4.356   3.735  17.053  0.8753  0.0529 -1.7895
 7289TIP3    H243359   4.223   3.686  17.000 -0.8855  1.5834  0.9843
 7290TIP3   OH243360   6.837   5.573   0.605  0.0898  0.0651  0.0141
 7290TIP3    H143361   6.768   5.575   0.540 -1.0629  0.1117  1.1929
 7290TIP3    H243362   6.826   5.654   0.655  0.0187 -0.6163  1.1577
 7291TIP3   OH243363   5.280   4.083   4.399 -0.2481 -0.4137 -0.0537
 7291TIP3    H143364   5.221   4.094   4.325 -1.5972  2.5742  1.2786
 7291TIP3    H243365   5.355   4.138   4.379 -1.1423  1.3609  1.1800
 7292TIP3   OH243366   0.508   0.880   2.720  0.1508 -0.0974  0.7767
 7292TIP3    H143367   0.546   0.849   2.802  0.4739 -0.3016  0.5561
 7292TIP3    H243368   0.414   0.886   2.737  0.0109 -1.5940  0.7303
 7293TIP3   OH243369   5.826   5.383  14.540 -0.2372  0.3323 -0.2936
 7293TIP3    H143370   5.745   5.351  14.500  1.2727 -0.5278 -2.9102
 7293TIP3    H243371   5.881   5.407  14.465  0.6321  4.4288  1.3851
 7294TIP3   OH243372   3.869   3.648  16.612 -0.2670 -0.3757  0.7739
 7294TIP3    H143373   3.905   3.688  16.691  0.3238 -1.4384  1.0628
 7294TIP3    H243374   3.793   3.702  16.591  0.1490  0.5204  1.4891
 7295TIP3   OH243375   2.754   3.753   5.814  0.2289 -0.0599 -0.3757
 7295TIP3    H143376   2.663   3.753   5.785  0.3981 -0.3729 -0.9229
 7295TIP3    H243377   2.782   3.844   5.805 -0.0765  0.0755 -0.0298
 7296TIP3   OH243378   6.191   4.745   4.052 -0.1411  0.1644 -0.1184
 7296TIP3    H143379   6.251   4.741   4.127 -1.3259  0.4720  0.8573
 7296TIP3    H243380   6.164   4.654   4.039  0.6117 -0.0000 -0.6551
 7297TIP3   OH243381   2.077   3.962   4.299  0.3318 -0.0304  0.5709
 7297TIP3    H143382   2.099   3.871   4.279  0.1618  0.3393 -1.6071
 7297TIP3    H243383   1.988   3.959   4.333 -0.2814 -0.5724 -1.0075
 7298TIP3   OH243384   2.782   2.888   1.213  0.1842  0.2499  0.0526
 7298TIP3    H143385   2.835   2.813   1.239 -0.5590 -0.7046 -1.0741
 7298TIP3    H243386   2.759   2.870   1.122 -0.2824  1.6951 -0.1299
 7299TIP3   OH243387   3.076   1.346   5.534 -0.6257  0.4968  0.5421
 7299TIP3    H143388   3.030   1.342   5.617  0.3533  0.4051  1.0879
 7299TIP3    H243389   3.086   1.440   5.516 -0.1810  0.5189  0.8997
 7300TIP3   OH243390   3.048   0.588  12.933 -0.4013  0.0535  0.1933
 7300TIP3    H143391   3.047   0.578  12.838 -2.5354  0.5854  0.1263
 7300TIP3    H243392   2.967   0.633  12.954 -0.2943 -0.6398  2.3466
 7301TIP3   OH243393   2.898   6.367   5.737  0.1064  0.4241 -0.3751
 7301TIP3    H143394   2.814   6.391   5.699  1.1806  0.4060 -2.9334
 7301TIP3    H243395   2.881   6.363   5.831 -2.4998  1.3350 -0.7235
 7302TIP3   OH243396   6.123   4.829   3.330  0.3294 -0.0665 -0.0364
 7302TIP3    H143397   6.106   4.919   3.361 -1.0449 -0.4175  0.2900
 7302TIP3    H243398   6.062   4.775   3.380  0.5370 -1.0863 -0.8636
 7303TIP3   OH243399   6.016   0.307   0.129  0.5905  0.1760 -0.5312
 7303TIP3    H143400   6.085   0.279   0.068  0.6055 -0.1345 -0.3736
 7303TIP3    H243401   6.037   0.262   0.211 -0.8196 -1.3782 -0.9672
 7304TIP3   OH243402   5.980   0.457  13.210  0.0894  0.2705  0.0539
 7304TIP3    H143403   6.053   0.467  13.149  0.1611  0.0070  0.0985
 7304TIP3    H243404   6.021   0.442  13.295  0.0106  1.5087  0.3318
 7305TIP3   OH243405   4.494   2.034   2.047  0.3221 -0.3556  0.2950
 7305TIP3    H143406   4.492   1.972   1.974 -0.5229  0.7813 -0.6716
 7305TIP3    H243407   4.405   2.031   2.084  0.9209 -1.4395  1.7629
 7306TIP3   OH243408   0.049   4.490  13.167 -0.3789  0.6512 -0.6035
 7306TIP3    H143409   0.139   4.510  13.195  0.1441 -0.3492 -1.4751
 7306TIP3    H243410   0.060   4.449  13.081 -1.7492  1.3639 -1.1342
 7307TIP3   OH243411   3.858   3.017  16.665  0.4194 -0.2917  0.1925
 7307TIP3    H143412   3.861   2.932  16.709  0.8890  1.1219  3.1354
 7307TIP3    H243413   3.766   3.028  16.640  0.2808 -1.4809  0.1185
 7308TIP3   OH243414   1.543   4.708   3.438 -0.3362 -0.2832 -0.1786
 7308TIP3    H143415   1.623   4.662   3.463 -0.2236 -0.3594 -0.6688
 7308TIP3    H243416   1.517   4.668   3.355 -0.6751 -0.0037 -0.2111
 7309TIP3   OH243417   4.729   5.556   4.508 -1.1862  0.4843 -0.1712
 7309TIP3    H143418   4.759   5.618   4.575  0.9058 -0.8255  0.1740
 7309TIP3    H243419   4.805   5.502   4.489 -2.5867 -1.1526 -1.4323
 7310TIP3   OH243420   3.915   0.453   0.673 -0.2123  0.1547 -0.0419
 7310TIP3    H143421   4.010   0.459   0.681 -0.3813  1.7907  1.3818
 7310TIP3    H243422   3.900   0.427   0.582  1.5991 -1.2317  0.0164
 7311TIP3   OH243423   0.888   4.344   1.345 -0.1165  0.3110  1.1398
 7311TIP3    H143424   0.830   4.418   1.358 -0.1719  0.1121  2.1306
 7311TIP3    H243425   0.956   4.377   1.286 -1.0403  0.6368  0.2284
 7312TIP3   OH243426   2.483   3.313  13.673  0.2072 -0.4278  0.7153
 7312TIP3    H143427   2.502   3.257  13.598 -1.2891 -0.6463  0.4744
 7312TIP3    H243428   2.458   3.397  13.635  0.5754 -0.1728  1.0242
 7313TIP3   OH243429   1.310   1.972  16.585 -0.3527  0.4477 -0.1445
 7313TIP3    H143430   1.251   1.962  16.511 -0.5218  1.3482 -0.1441
 7313TIP3    H243431   1.256   2.012  16.653 -0.8722 -2.4918  1.3359
 7314TIP3   OH243432   1.247   6.265   2.647 -0.0640 -0.4312  0.2331
 7314TIP3    H143433   1.160   6.226   2.640  0.2499 -1.3446  1.1845
 7314TIP3    H243434   1.232   6.353   2.682 -0.6386 -0.3700 -0.1526
 7315TIP3   OH243435   5.965   0.683   4.552 -0.5288 -0.6304  0.1122
 7315TIP3    H143436   6.013   0.733   4.618  0.6518 -0.9359 -0.4830
 7315TIP3    H243437   6.033   0.648   4.494 -1.5772  0.8697 -2.1722
 7316TIP3   OH243438   5.909   4.425   2.231  0.0877  0.3837 -0.2459
 7316TIP3    H143439   5.827   4.475   2.234 -1.1665 -1.6021  1.4511
 7316TIP3    H243440   5.974   4.488   2.199 -2.1091  1.9612 -1.9519
 7317TIP3   OH243441   6.454   2.723   3.992 -0.0339  0.2638 -0.7252
 7317TIP3    H143442   6.502   2.802   3.966  1.8523  0.0310  1.6909
 7317TIP3    H243443   6.377   2.756   4.037  0.3005  0.7243 -0.4791
 7318TIP3   OH243444   1.113   1.109  15.101  0.2014 -0.3409 -0.1110
 7318TIP3    H143445   1.106   1.026  15.055  1.3989 -0.3956 -0.2110
 7318TIP3    H243446   1.099   1.086  15.193 -0.3036 -0.5178 -0.2286
 7319TIP3   OH243447   2.940   5.825   2.608  0.5951 -0.1248  0.5681
 7319TIP3    H143448   2.872   5.783   2.660  1.1426 -0.5887  0.9197
 7319TIP3    H243449   3.022   5.789   2.642  0.9489 -0.7886 -0.8934
 7320TIP3   OH243450   4.557   0.586   2.655  0.4261 -0.0344  0.0243
 7320TIP3    H143451   4.625   0.570   2.590  0.3894 -1.8782  0.3762
 7320TIP3    H243452   4.604   0.603   2.736  0.5504 -2.2825  0.4913
 7321TIP3   OH243453   5.035   1.431  13.177 -0.3341 -0.0552  0.2135
 7321TIP3    H143454   4.957   1.484  13.163 -0.6101  0.0576  1.9406
 7321TIP3    H243455   5.098   1.462  13.111 -2.0202 -0.8036 -1.8527
 7322TIP3   OH243456   5.251   5.419  14.317  0.2034 -0.5858  0.1562
 7322TIP3    H143457   5.263   5.376  14.401  1.6880 -0.7107 -0.0966
 7322TIP3    H243458   5.250   5.347  14.253 -1.2178 -0.5180  0.0688
 7323TIP3   OH243459   2.176   0.271  13.582  0.2017  0.4135  0.0088
 7323TIP3    H143460   2.187   0.326  13.504 -0.6440  0.9316  0.2390
 7323TIP3    H243461   2.213   0.324  13.653 -0.0887  0.4414  0.1399
 7324TIP3   OH243462   5.772   2.299  14.879 -0.4312  0.8213  0.3793
 7324TIP3    H143463   5.715   2.315  14.804 -0.6444  1.9038  0.7525
 7324TIP3    H243464   5.718   2.250  14.941 -0.3346  0.1518 -0.0579
 7325TIP3   OH243465   3.745   1.882  15.599 -0.7149 -0.6978  0.6267
 7325TIP3    H143466   3.793   1.923  15.671  0.5439  1.3559 -1.2615
 7325TIP3    H243467   3.760   1.788  15.611  1.9699 -0.2600  1.3758
 7326TIP3   OH243468   2.228   4.775   4.086  0.3313  0.2187  0.0200
 7326TIP3    H143469   2.203   4.836   4.156  1.3746  1.3196 -0.5192
 7326TIP3    H243470   2.303   4.817   4.044 -0.0496 -0.5936 -1.5430
 7327TIP3   OH243471   0.426   4.781  13.918  0.5552  0.1998 -0.4123
 7327TIP3    H143472   0.447   4.851  13.980 -1.3781  0.2529  0.2473
 7327TIP3    H243473   0.443   4.700  13.967  2.9825  0.1222 -1.2408
 7328TIP3   OH243474   1.849   4.669  11.948  0.0880 -0.0318  0.5371
 7328TIP3    H143475   1.897   4.600  11.993  1.1421  0.3321 -0.0169
 7328TIP3    H243476   1.913   4.711  11.891 -0.8967  0.4055 -0.2920
 7329TIP3   OH243477   6.810   1.012   3.353 -0.4308  0.3319 -0.4367
 7329TIP3    H143478   6.838   0.995   3.443  2.1843  1.0584 -1.0227
 7329TIP3    H243479   6.777   1.102   3.355 -0.7766  0.1987 -0.1284
 7330TIP3   OH243480   6.797   3.671  15.789  0.7048  0.5754 -0.3219
 7330TIP3    H143481   6.711   3.650  15.752  0.6751 -2.3925  1.1416
 7330TIP3    H243482   6.816   3.759  15.757 -2.5045  1.0219 -1.3334
 7331TIP3   OH243483   0.362   3.891   5.576 -0.3327 -0.0097  0.3017
 7331TIP3    H143484   0.289   3.910   5.516 -0.5888  0.1277  0.6529
 7331TIP3    H243485   0.366   3.796   5.580 -0.2877 -0.0195  0.0305
 7332TIP3   OH243486   1.192   5.979  16.645 -0.2450 -0.6270 -0.3173
 7332TIP3    H143487   1.239   5.988  16.562 -0.4435 -2.3414 -0.6530
 7332TIP3    H243488   1.191   5.885  16.663 -0.3729 -0.3185  1.5500
 7333TIP3   OH243489   2.968   4.042  13.912 -0.0182 -0.4633  0.1910
 7333TIP3    H143490   2.972   4.006  14.000  0.0477 -2.6968 -0.6543
 7333TIP3    H243491   2.976   3.965  13.854  0.6841  0.9891 -1.7606
 7334TIP3   OH243492   6.802   3.705   5.277  0.5652  0.0953 -0.9580
 7334TIP3    H143493   6.746   3.637   5.241  1.1896 -1.0687  0.1611
 7334TIP3    H243494   6.886   3.661   5.292  1.6923  1.7018 -2.2788
 7335TIP3   OH243495   1.271   2.096   4.745 -0.1915 -0.3355 -0.0596
 7335TIP3    H143496   1.295   2.188   4.733 -0.7812 -0.1561  0.1013
 7335TIP3    H243497   1.325   2.049   4.681 -1.3624  0.3434 -1.6191
 7336TIP3   OH243498   6.839   3.642  13.039 -0.0199  0.2680  0.1057
 7336TIP3    H143499   6.901   3.674  13.105  1.6160 -0.0655 -1.2066
 7336TIP3    H243500   6.759   3.622  13.088  0.6610  1.3911  1.7471
 7337TIP3   OH243501   2.053   1.193  16.102 -0.0444 -0.1232 -0.0685
 7337TIP3    H143502   2.145   1.191  16.077 -0.2845  0.5658 -1.0638
 7337TIP3    H243503   2.043   1.119  16.161  0.6014 -1.7734 -1.9147
 7338TIP3   OH243504   2.694   1.145  15.340 -0.1418  0.2111  0.4383
 7338TIP3    H143505   2.620   1.096  15.303 -1.3164  2.7295 -0.8023
 7338TIP3    H243506   2.720   1.206  15.271  1.8512  0.7229  1.5622
 7339TIP3   OH243507   1.514   1.025  15.552  0.2834 -0.1636 -0.1689
 7339TIP3    H143508   1.435   0.971  15.553  0.2248 -0.0788 -0.2025
 7339TIP3    H243509   1.557   1.005  15.635  0.8164 -1.0680 -0.6493
 7340TIP3   OH243510   3.800   1.979   2.168  0.1109  0.1626  0.3741
 7340TIP3    H143511   3.778   1.931   2.247  0.4528  0.1151  0.4427
 7340TIP3    H243512   3.857   1.920   2.119 -0.6248 -0.0686 -0.2180
 7341TIP3   OH243513   6.243   5.199  13.404 -0.0476  0.1348 -0.3021
 7341TIP3    H143514   6.286   5.168  13.484 -0.5714 -0.4966 -0.2526
 7341TIP3    H243515   6.151   5.210  13.429  0.3424  3.2199  0.0860
 7342TIP3   OH243516   3.543   5.269   0.681 -0.9584 -0.1865 -0.6191
 7342TIP3    H143517   3.523   5.356   0.714 -0.8987 -1.0043  1.7718
 7342TIP3    H243518   3.614   5.238   0.737 -1.9135 -2.3041 -0.5042
 7343TIP3   OH243519   3.864   4.196  10.397 -0.7052  0.1133 -0.6664
 7343TIP3    H143520   3.894   4.255  10.329  0.8455  0.2730  0.1205
 7343TIP3    H243521   3.809   4.250  10.454 -0.0081  0.6011 -0.4412
 7344TIP3   OH243522   1.865   3.175   5.568 -0.7340  1.0729 -0.0531
 7344TIP3    H143523   1.902   3.126   5.494 -0.0497  2.9414 -1.0084
 7344TIP3    H243524   1.781   3.133   5.584 -0.0668 -0.5846 -0.6219
 7345TIP3   OH243525   3.355   5.431   2.674  0.1609 -0.4309  0.9260
 7345TIP3    H143526   3.412   5.469   2.742  2.3100  0.0886 -1.0484
 7345TIP3    H243527   3.396   5.346   2.655 -0.6259 -0.7183  0.5126
 7346TIP3   OH243528   3.488   3.464  13.173 -0.3005 -0.1345 -0.7166
 7346TIP3    H143529   3.501   3.388  13.229  0.7449  1.1580  0.8676
 7346TIP3    H243530   3.563   3.462  13.112 -0.1488 -0.2521 -0.5276
 7347TIP3   OH243531   2.021   2.147   6.046 -0.4150 -0.3574  0.4117
 7347TIP3    H143532   2.100   2.170   6.095  0.5246 -1.7680 -0.3851
 7347TIP3    H243533   1.971   2.093   6.107  1.2047 -2.9299 -0.4038
 7348TIP3   OH243534   4.332   0.681  12.693 -0.1284 -0.2386 -0.1992
 7348TIP3    H143535   4.424   0.654  12.699  0.4298  1.2512 -1.3614
 7348TIP3    H243536   4.317   0.734  12.770  0.5390  0.9483 -0.8534
 7349TIP3   OH243537   5.350   1.887  13.804 -0.4096  0.1609  0.5088
 7349TIP3    H143538   5.350   1.792  13.798 -0.0858  0.2287 -0.6998
 7349TIP3    H243539   5.304   1.917  13.725 -0.6420  1.0047  0.9430
 7350TIP3   OH243540   4.144   1.083  11.889 -0.0879  0.0158  0.5836
 7350TIP3    H143541   4.098   1.146  11.945 -2.2219 -0.6738 -0.3061
 7350TIP3    H243542   4.092   1.079  11.809  0.9484 -1.6206 -0.0542
 7351TIP3   OH243543   5.700   6.576  12.956  1.0239  0.0737 -0.0837
 7351TIP3    H143544   5.648   6.656  12.952 -0.1898 -0.7333 -1.1374
 7351TIP3    H243545   5.660   6.526  13.027  1.2806  0.0572  0.0506
 7352TIP3   OH243546   4.127   6.069   0.197 -0.0077 -0.1313 -0.0699
 7352TIP3    H143547   4.203   6.063   0.255 -0.9422  2.2059  1.5583
 7352TIP3    H243548   4.060   6.015   0.240 -0.2870  0.5522  0.3856
 7353TIP3   OH243549   1.839   3.842  15.925  0.1603 -0.2286 -0.3712
 7353TIP3    H143550   1.775   3.888  15.870  1.1336 -0.0172 -1.3522
 7353TIP3    H243551   1.788   3.812  16.000 -0.8491  1.0135 -0.5150
 7354TIP3   OH243552   0.375   2.817  15.557  0.1489  0.2789 -0.2587
 7354TIP3    H143553   0.375   2.827  15.462  0.7869 -0.1354 -0.3111
 7354TIP3    H243554   0.355   2.904  15.591 -1.2425  0.1974 -0.7822
 7355TIP3   OH243555   6.553   4.529  16.611 -0.3626 -0.2700  0.1024
 7355TIP3    H143556   6.544   4.531  16.515  0.4665 -0.0003  0.0253
 7355TIP3    H243557   6.468   4.498  16.642  0.1192 -2.7301 -0.8477
 7356TIP3   OH243558   1.459   5.059   4.940 -0.3710 -0.1616 -0.3946
 7356TIP3    H143559   1.394   5.007   4.985  0.3849 -0.0645  0.8474
 7356TIP3    H243560   1.509   4.996   4.888 -0.4925 -0.4442 -0.1699
 7357TIP3   OH243561   2.725   4.851  13.484  0.2326  0.0174  0.0879
 7357TIP3    H143562   2.772   4.791  13.426 -0.9268  0.6688 -1.5903
 7357TIP3    H243563   2.764   4.937  13.467  0.0288  0.1825  0.4388
 7358TIP3   OH243564   6.448   1.410   0.650 -0.0803 -0.2821  0.1172
 7358TIP3    H143565   6.472   1.330   0.696  0.6300  0.6361  1.3930
 7358TIP3    H243566   6.492   1.404   0.565 -0.9671 -1.7382 -0.2782
 7359TIP3   OH243567   2.244   4.625  14.268  0.3891  0.1547  0.2484
 7359TIP3    H143568   2.180   4.602  14.336  0.1582  0.0825  0.0103
 7359TIP3    H243569   2.193   4.625  14.187  0.5862  0.5970  0.1237
 7360TIP3   OH243570   4.677   0.101   4.375 -0.3568  0.4034  0.2473
 7360TIP3    H143571   4.629   0.176   4.338 -0.3018  0.1716 -0.3034
 7360TIP3    H243572   4.758   0.139   4.408 -1.6414  1.1192  2.8456
 7361TIP3   OH243573   2.246   0.945   5.308 -0.0543 -0.5687 -0.4156
 7361TIP3    H143574   2.333   0.973   5.336  0.3791 -0.8657 -1.4312
 7361TIP3    H243575   2.207   1.024   5.269 -1.0847  0.1610  1.8746
 7362TIP3   OH243576   4.352   3.649  13.594  0.4627  0.6208 -0.2974
 7362TIP3    H143577   4.309   3.696  13.523 -0.7075 -0.0116 -0.0294
 7362TIP3    H243578   4.327   3.558  13.582 -0.6648  0.6342  1.5167
 7363TIP3   OH243579   6.129   1.638   1.861  0.1832  0.6367 -0.0704
 7363TIP3    H143580   6.125   1.553   1.904  4.0034 -0.4587 -1.4040
 7363TIP3    H243581   6.200   1.684   1.907 -0.9856  2.6447 -0.1765
 7364TIP3   OH243582   2.342   6.442  14.345 -0.1950  0.3836 -0.3693
 7364TIP3    H143583   2.391   6.360  14.336  0.2037  0.4820  0.7111
 7364TIP3    H243584   2.345   6.461  14.439 -0.1645  1.7131 -0.6279
 7365TIP3   OH243585   4.536   4.038   2.898 -0.7844  0.2352  0.3523
 7365TIP3    H143586   4.471   3.977   2.932  1.4119 -1.7159  1.2714
 7365TIP3    H243587   4.617   4.017   2.945  1.0900  1.0644 -2.2531
 7366TIP3   OH243588   6.216   0.855  12.328 -0.2480 -0.0927  0.0055
 7366TIP3    H143589   6.164   0.787  12.371  0.8308 -1.3539 -0.5971
 7366TIP3    H243590   6.273   0.806  12.268  1.1447  1.2820  0.1640
 7367TIP3   OH243591   1.145   2.136   2.530  0.2660 -0.4326 -0.0232
 7367TIP3    H143592   1.175   2.221   2.563 -0.0062  0.7052 -2.4857
 7367TIP3    H243593   1.216   2.107   2.472 -1.3637  0.1798 -2.4526
 7368TIP3   OH243594   6.006   3.291  12.026  0.5518 -0.2756  0.0405
 7368TIP3    H143595   5.965   3.376  12.010 -0.0805 -0.5446  0.1860
 7368TIP3    H243596   6.026   3.292  12.120  0.5873 -0.2678  0.0326
 7369TIP3   OH243597   0.953   5.240  13.574  0.0268 -0.3591 -0.0396
 7369TIP3    H143598   1.000   5.213  13.652  0.7010 -3.7104 -1.4400
 7369TIP3    H243599   0.870   5.276  13.607  0.9906 -0.0514  2.2113
 7370TIP3   OH243600   2.350   5.088  14.335  0.0306  0.6197  0.1163
 7370TIP3    H143601   2.422   5.041  14.293 -0.9042 -0.2541 -0.5297
 7370TIP3    H243602   2.311   5.140  14.265  0.8926  2.2155  0.7656
 7371TIP3   OH243603   0.395   4.170   2.197 -0.5085  0.8011 -0.1529
 7371TIP3    H143604   0.365   4.160   2.287 -1.1731  2.1593 -0.2112
 7371TIP3    H243605   0.452   4.247   2.198 -2.4919  2.3779 -1.3167
 7372TIP3   OH243606   2.391   0.548  12.644 -0.3313  0.0059  0.1687
 7372TIP3    H143607   2.426   0.637  12.639  0.3921 -0.3443 -1.6185
 7372TIP3    H243608   2.467   0.491  12.628 -1.1401 -0.8686 -0.6736
 7373TIP3   OH243609   5.850   2.189   5.146  0.2675  0.0927 -0.3643
 7373TIP3    H143610   5.838   2.200   5.240  2.0834  0.0490 -0.1092
 7373TIP3    H243611   5.872   2.097   5.135 -0.0512  0.0719 -0.8612
 7374TIP3   OH243612   2.209   0.340   1.447  0.4630 -0.1366 -0.1609
 7374TIP3    H143613   2.186   0.314   1.358 -0.7400 -0.0527  0.1158
 7374TIP3    H243614   2.127   0.337   1.495  0.8027  1.3740  0.5677
 7375TIP3   OH243615   5.042   5.391   0.003 -0.0164  0.3951  0.2670
 7375TIP3    H143616   5.114   5.438   0.043 -0.5404  1.1676  0.3088
 7375TIP3    H243617   5.038   5.424  -0.087  0.6733 -0.7853 -0.2354
 7376TIP3   OH243618   4.910   0.353   5.219  0.6206  0.6152  0.1232
 7376TIP3    H143619   4.941   0.263   5.224 -1.3159 -0.0454  1.8182
 7376TIP3    H243620   4.907   0.372   5.125  1.6545 -0.8381 -0.2451
 7377TIP3   OH243621   6.648   6.333   1.361 -0.0660 -0.0186 -0.5043
 7377TIP3    H143622   6.717   6.397   1.377  0.1804 -0.7141  1.4776
 7377TIP3    H243623   6.566   6.381   1.372  0.1178 -0.0054  0.9339
 7378TIP3   OH243624   6.748   4.422   5.923  0.3310  0.3832  0.4526
 7378TIP3    H143625   6.790   4.508   5.915  1.1417 -0.1183 -1.0687
 7378TIP3    H243626   6.816   4.360   5.898 -0.2122 -0.7285  1.6498
 7379TIP3   OH243627   4.874   4.095   2.818 -0.0606  0.4900 -0.4954
 7379TIP3    H143628   4.927   4.030   2.772  1.1450  1.5452 -0.6473
 7379TIP3    H243629   4.857   4.056   2.903 -1.7110 -1.1837 -1.5124
 7380TIP3   OH243630   6.196   3.840   4.024 -0.3378 -0.3587 -0.2741
 7380TIP3    H143631   6.132   3.830   4.095  0.6095 -0.5471  0.5733
 7380TIP3    H243632   6.145   3.826   3.944 -1.7152  1.1748  0.2672
 7381TIP3   OH243633   4.403   4.330  15.776 -0.0835 -0.1897  0.8788
 7381TIP3    H143634   4.309   4.311  15.782 -0.0825 -0.4060  0.2730
 7381TIP3    H243635   4.428   4.355  15.865 -0.8768  0.6247  0.8873
 7382TIP3   OH243636   4.705   1.538  12.455 -0.7397 -0.2924 -0.3353
 7382TIP3    H143637   4.674   1.613  12.404  0.1659  1.9162  2.1675
 7382TIP3    H243638   4.659   1.545  12.539  0.2353 -1.8739  0.3840
 7383TIP3   OH243639   2.147   6.200  11.148 -0.7350  0.0919  0.1430
 7383TIP3    H143640   2.086   6.273  11.161 -1.4601 -0.4971  0.0971
 7383TIP3    H243641   2.189   6.220  11.064 -0.6466  0.6532  0.3129
 7384TIP3   OH243642   3.048   3.051  14.597  0.7645 -0.3995  0.6536
 7384TIP3    H143643   3.093   3.021  14.675 -0.4051 -0.3657  1.3608
 7384TIP3    H243644   2.989   2.979  14.574  1.3197 -0.5422 -0.3923
 7385TIP3   OH243645   6.570   2.581  12.091 -0.5972  0.4153 -0.1397
 7385TIP3    H143646   6.641   2.643  12.075  0.3422 -1.0653 -2.0703
 7385TIP3    H243647   6.504   2.603  12.026 -0.9277  0.3287  0.1604
 7386TIP3   OH243648   2.036   4.968  12.702  0.0474 -0.0043 -0.3348
 7386TIP3    H143649   2.078   4.904  12.759  2.6145  0.9075 -1.0560
 7386TIP3    H243650   1.971   4.918  12.652  1.2516 -1.8369 -0.1644
 7387TIP3   OH243651   4.186   1.428   6.495 -0.1989 -0.3784 -0.1425
 7387TIP3    H143652   4.093   1.406   6.488  0.1068 -1.2420 -2.2286
 7387TIP3    H243653   4.218   1.376   6.568 -1.6392  1.1906  1.7347
 7388TIP3   OH243654   5.551   4.899  14.895 -0.2811  0.4462 -0.3245
 7388TIP3    H143655   5.608   4.942  14.832 -1.3519  0.0005 -1.6612
 7388TIP3    H243656   5.462   4.914  14.861 -0.7797 -1.3595  0.0687
 7389TIP3   OH243657   0.905   1.586  10.635 -0.9789  0.2685 -0.2566
 7389TIP3    H143658   0.884   1.493  10.648 -1.7110  0.0549 -2.4728
 7389TIP3    H243659   0.975   1.603  10.697 -0.7342 -1.8176  0.1321
 7390TIP3   OH243660   6.214   4.837  14.502  0.0686  0.0085 -0.0249
 7390TIP3    H143661   6.304   4.858  14.478 -0.3526  0.0430 -1.6592
 7390TIP3    H243662   6.183   4.779  14.432 -1.2727  0.2309  0.3569
 7391TIP3   OH243663   3.435   6.179  11.921  0.2231 -0.5951  0.4249
 7391TIP3    H143664   3.419   6.099  11.971 -0.5496 -0.7894 -0.1086
 7391TIP3    H243665   3.350   6.200  11.882  0.1812  1.0014  1.2790
 7392TIP3   OH243666   0.375   6.665   5.009  0.0989 -0.3555 -0.3261
 7392TIP3    H143667   0.336   6.734   5.064 -1.2570 -1.3813  0.0736
 7392TIP3    H243668   0.462   6.651   5.046 -0.7225 -0.9272  1.5517
 7393TIP3   OH243669   1.448   1.850  15.554 -0.0913 -0.1395 -0.5028
 7393TIP3    H143670   1.477   1.835  15.644  1.4769  1.4996 -0.6813
 7393TIP3    H243671   1.358   1.882  15.563  0.2393  0.5416  0.5315
 7394TIP3   OH243672   4.277   6.146  14.711 -0.1436  0.1118 -0.0105
 7394TIP3    H143673   4.249   6.238  14.711  1.3530  0.6329  1.5000
 7394TIP3    H243674   4.218   6.103  14.650 -0.2625  2.2570 -1.5370
 7395TIP3   OH243675   2.450   2.629  16.077 -0.5365  0.4608  0.2858
 7395TIP3    H143676   2.499   2.707  16.054  1.4611 -0.9710 -0.6213
 7395TIP3    H243677   2.446   2.630  16.173  1.9423  0.3133  0.4513
 7396TIP3   OH243678   3.198   4.864   5.385  0.1324 -0.7938 -0.7180
 7396TIP3    H143679   3.203   4.811   5.464 -2.4273 -0.3402 -0.1561
 7396TIP3    H243680   3.258   4.821   5.323  1.5520 -1.6330  1.1600
 7397TIP3   OH243681   1.308   5.304  11.599  0.1305  0.0017  0.4136
 7397TIP3    H143682   1.337   5.252  11.525 -0.0168 -0.5702  0.7514
 7397TIP3    H243683   1.281   5.240  11.665  0.8103  0.4847  1.1899
 7398TIP3   OH243684   5.027   0.498   4.897 -0.1883  0.7422 -0.2488
 7398TIP3    H143685   5.104   0.556   4.894 -0.3995  1.0946  0.9131
 7398TIP3    H243686   4.976   0.523   4.820  0.4750  1.0474 -0.6022
 7399TIP3   OH243687   1.273   2.011  13.301 -0.3622 -0.3063 -0.1065
 7399TIP3    H143688   1.287   1.942  13.366 -1.0172  0.6524  1.0961
 7399TIP3    H243689   1.337   1.992  13.232  1.0908 -0.7522  1.3134
 7400TIP3   OH243690   2.376   0.490   0.761 -0.2448 -0.1107 -0.3865
 7400TIP3    H143691   2.375   0.585   0.752 -0.2447  0.0610  1.1556
 7400TIP3    H243692   2.368   0.457   0.672  1.1747  1.3315 -1.0895
 7401TIP3   OH243693   5.219   6.441   3.604  0.2810 -1.0160  0.7195
 7401TIP3    H143694   5.150   6.458   3.540  0.0506 -0.5533  1.0841
 7401TIP3    H243695   5.267   6.524   3.611  1.3393 -1.5444 -0.0725
 7402TIP3   OH243696   6.618   0.665   1.567  0.0051 -0.0122  0.0477
 7402TIP3    H143697   6.555   0.636   1.634 -1.0623 -0.7250 -1.2045
 7402TIP3    H243698   6.589   0.753   1.543  0.1674  0.0996  0.2586
 7403TIP3   OH243699   0.041   0.014  13.151 -0.3234  0.0300 -0.6185
 7403TIP3    H143700   0.089  -0.036  13.217  0.1164 -0.5746 -1.3844
 7403TIP3    H243701  -0.015  -0.050  13.109 -0.8223  0.4734 -0.6375
 7404TIP3   OH243702   5.446   6.814   0.623 -0.4627  0.5997  0.2305
 7404TIP3    H143703   5.410   6.877   0.686 -1.0476 -0.8347  1.3660
 7404TIP3    H243704   5.410   6.842   0.539 -1.9303  0.9111  0.9237
 7405TIP3   OH243705   1.928   1.259   1.259 -0.0436  0.3104 -0.5078
 7405TIP3    H143706   2.003   1.220   1.216 -0.9545 -0.6368 -1.2782
 7405TIP3    H243707   1.885   1.186   1.304 -0.8449  0.7171 -0.5922
 7406TIP3   OH243708   5.295   5.015  11.872 -0.1178 -0.4729 -0.3009
 7406TIP3    H143709   5.225   5.075  11.901  1.9104  0.8791  2.2136
 7406TIP3    H243710   5.312   5.041  11.782 -2.0462 -0.0536 -0.5969
 7407TIP3   OH243711   1.252   2.873   0.597 -0.1414 -0.1113  0.2061
 7407TIP3    H143712   1.203   2.904   0.521  1.7042  0.5937 -0.7538
 7407TIP3    H243713   1.189   2.820   0.646 -1.4533 -0.3805 -1.6695
 7408TIP3   OH243714   4.835   2.807  11.814 -0.3158 -0.0415  0.0449
 7408TIP3    H143715   4.914   2.855  11.841 -0.1029 -1.2797  1.8132
 7408TIP3    H243716   4.854   2.716  11.836 -2.2551 -0.3515  0.6026
 7409TIP3   OH243717   0.067   2.837   3.297 -0.4451 -0.0716  0.0728
 7409TIP3    H143718   0.093   2.793   3.379 -0.0086  0.7612  0.3862
 7409TIP3    H243719   0.071   2.930   3.317  1.0071  0.1959 -1.3013
 7410TIP3   OH243720   1.510   1.238  12.001  0.4121  0.2516 -0.2498
 7410TIP3    H143721   1.600   1.244  12.035 -0.1574 -0.2018  1.4652
 7410TIP3    H243722   1.495   1.145  11.988 -0.0876  0.2430  0.3325
 7411TIP3   OH243723   5.120   0.106   2.579 -0.0634 -0.0541 -0.2003
 7411TIP3    H143724   5.095   0.161   2.654  0.5177 -1.4778  1.1027
 7411TIP3    H243725   5.046   0.046   2.568  0.9716 -1.6633  1.0914
 7412TIP3   OH243726   2.745   5.259  10.363 -0.1609  0.5211 -0.4247
 7412TIP3    H143727   2.685   5.186  10.353  0.8338 -0.3019 -0.5958
 7412TIP3    H243728   2.719   5.301  10.445 -0.5133 -0.2462 -0.1373
 7413TIP3   OH243729   2.864   3.492   5.368  0.2151  0.1712  0.6461
 7413TIP3    H143730   2.892   3.402   5.386 -0.7184 -0.2740 -0.0620
 7413TIP3    H243731   2.896   3.542   5.444  1.4920 -0.5814  0.6448
 7414TIP3   OH243732   6.376   0.024   3.314  0.2485 -0.0174 -0.4312
 7414TIP3    H143733   6.322  -0.046   3.278 -0.2905  0.4198 -0.4868
 7414TIP3    H243734   6.386   0.001   3.407 -1.3627  0.7029 -0.0494
 7415TIP3   OH243735   1.921   2.252  14.565 -0.3981  0.2363  0.0003
 7415TIP3    H143736   1.950   2.310  14.494  0.3423 -0.3409 -0.1799
 7415TIP3    H243737   2.000   2.233  14.614 -0.7473 -0.1334  0.4278
 7416TIP3   OH243738   5.129   0.405  16.278 -0.3123  0.2247 -0.7497
 7416TIP3    H143739   5.035   0.383  16.281 -0.1466 -0.4553 -0.2550
 7416TIP3    H243740   5.154   0.391  16.187 -0.6170  0.0500 -0.8090
 7417TIP3   OH243741   5.454   0.596  12.041 -0.4250  0.1277 -0.3628
 7417TIP3    H143742   5.549   0.587  12.033 -0.6609 -0.6572 -4.5393
 7417TIP3    H243743   5.440   0.690  12.058  1.0251  0.1690  0.7915
 7418TIP3   OH243744   4.722   1.024   5.564 -0.2623  0.0530  0.1571
 7418TIP3    H143745   4.747   1.114   5.541  1.9905 -1.0357 -2.1713
 7418TIP3    H243746   4.662   0.997   5.495  0.2152 -0.6836  0.0176
 7419TIP3   OH243747   4.511   2.076   4.603 -0.1537 -0.3332 -0.0309
 7419TIP3    H143748   4.459   2.018   4.659 -0.6282 -1.7223 -1.8024
 7419TIP3    H243749   4.489   2.049   4.514  0.2976  2.0225 -0.9235
 7420TIP3   OH243750   1.013   5.298  12.981  0.0982 -0.0637  0.1308
 7420TIP3    H143751   0.924   5.319  13.008 -1.1599 -1.6721 -2.3610
 7420TIP3    H243752   1.018   5.202  12.988  0.3842 -0.3792 -2.8627
 7421TIP3   OH243753   3.958   3.443   5.544  0.2225 -0.2123 -0.6574
 7421TIP3    H143754   4.043   3.448   5.500  0.3014  1.0663 -0.4087
 7421TIP3    H243755   3.967   3.371   5.607  0.8280 -0.6376 -1.2216
 7422TIP3   OH243756   2.491   5.666  11.461  0.5719  0.1997 -0.1023
 7422TIP3    H143757   2.530   5.753  11.448 -0.6205  0.9031  0.8027
 7422TIP3    H243758   2.414   5.666  11.404  0.2765 -0.0618  0.2964
 7423TIP3   OH243759   2.698   1.974   4.237  0.2397  0.1977  0.6558
 7423TIP3    H143760   2.666   2.064   4.244 -2.5176 -0.6264  0.1628
 7423TIP3    H243761   2.619   1.920   4.245  2.0421 -2.3322  3.2415
 7424TIP3   OH243762   5.784   6.267  10.996  0.2398  0.3777  0.2325
 7424TIP3    H143763   5.758   6.200  10.932 -1.6629  0.1638  1.1641
 7424TIP3    H243764   5.837   6.220  11.060  3.6476  0.9064 -1.9356
 7425TIP3   OH243765   2.696   4.109   2.566  0.0410 -0.0593  0.3837
 7425TIP3    H143766   2.601   4.119   2.566  0.2451  2.9194 -1.0035
 7425TIP3    H243767   2.719   4.098   2.474  1.0637 -0.5523  0.6850
 7426TIP3   OH243768   5.917   4.883  13.273 -0.3677  0.4092 -0.0927
 7426TIP3    H143769   6.005   4.847  13.266 -0.3433  0.4489 -0.0034
 7426TIP3    H243770   5.873   4.855  13.194 -0.0938  0.8796 -0.4195
 7427TIP3   OH243771   0.104   4.033  11.903 -0.3109  0.1342 -0.5763
 7427TIP3    H143772   0.101   4.076  11.988 -1.3959 -1.2635  0.1240
 7427TIP3    H243773   0.101   4.105  11.840 -1.2614  1.1179  0.5504
 7428TIP3   OH243774   3.890   1.391   3.593 -0.7434  0.3241  0.1575
 7428TIP3    H143775   3.955   1.445   3.638 -0.1988  0.4023 -0.6954
 7428TIP3    H243776   3.921   1.386   3.502 -2.6602  1.5224 -0.6259
 7429TIP3   OH243777   5.890   3.419   1.898 -0.1829 -0.5576 -0.1529
 7429TIP3    H143778   5.843   3.496   1.865  1.2709  0.4342 -0.0405
 7429TIP3    H243779   5.961   3.405   1.834  1.5039  0.2017  1.4471
 7430TIP3   OH243780   5.244   0.494   3.413 -0.2266  0.3328  0.3381
 7430TIP3    H143781   5.280   0.442   3.485 -0.9505  0.5439  0.8595
 7430TIP3    H243782   5.301   0.570   3.408  0.3879 -0.1350  0.0686
 7431TIP3   OH243783   3.987   1.095   2.066 -0.0400  0.1246  0.5407
 7431TIP3    H143784   3.959   1.097   1.974 -1.3327 -2.7878  0.7684
 7431TIP3    H243785   4.072   1.052   2.064 -0.5478 -0.9289  0.7440
 7432TIP3   OH243786   2.716   1.867  12.964  0.5474  0.1268 -0.2337
 7432TIP3    H143787   2.622   1.885  12.967  0.2376 -1.4155  0.5911
 7432TIP3    H243788   2.756   1.933  13.021 -0.3414 -0.7109  1.4331
 7433TIP3   OH243789   4.281   5.950  14.387  0.7626 -0.3747  0.4108
 7433TIP3    H143790   4.234   6.022  14.344  2.2508 -0.0207 -0.7169
 7433TIP3    H243791   4.224   5.874  14.375  0.9323 -0.1967 -1.9137
 7434TIP3   OH243792   1.574   4.255   5.361 -0.1972  0.1499 -0.1081
 7434TIP3    H143793   1.490   4.247   5.406 -0.0215  0.5904  0.3039
 7434TIP3    H243794   1.621   4.174   5.384 -0.3646  0.0680 -0.0485
 7435TIP3   OH243795   0.454   1.668  14.356 -0.5349 -0.0014  0.3284
 7435TIP3    H143796   0.506   1.613  14.414 -0.4926  1.3002  1.5797
 7435TIP3    H243797   0.477   1.758  14.381 -2.1913  0.6038 -0.1616
 7436TIP3   OH243798   2.449   5.909   0.637 -0.6619 -1.0853  0.3564
 7436TIP3    H143799   2.494   5.933   0.557  0.2407 -0.7449  0.9500
 7436TIP3    H243800   2.509   5.849   0.682 -0.4353 -0.0230  1.5276
 7437TIP3   OH243801   5.759   0.275  10.731 -0.7424 -0.5745 -0.6694
 7437TIP3    H143802   5.757   0.215  10.805 -2.5810 -0.6278 -0.7087
 7437TIP3    H243803   5.700   0.235  10.667 -0.7595  0.4811 -1.3290
 7438TIP3   OH243804   6.681   1.124  16.959  0.2990  0.5031  0.0537
 7438TIP3    H143805   6.738   1.189  16.999  1.0945 -0.2727  0.2171
 7438TIP3    H243806   6.741   1.056  16.926 -0.4322  0.3963 -1.1169
 7439TIP3   OH243807   3.220   1.449   2.395 -0.3800  0.3203  0.2493
 7439TIP3    H143808   3.130   1.476   2.414 -0.2190  0.8096  0.3185
 7439TIP3    H243809   3.212   1.356   2.371 -0.5986 -0.3217  2.6050
 7440TIP3   OH243810   0.452   1.778   0.009 -0.2090 -0.0273  0.6639
 7440TIP3    H143811   0.462   1.818   0.095  1.9130 -2.9446  1.9206
 7440TIP3    H243812   0.374   1.723   0.017 -0.7291  0.6358  0.2778
 7441TIP3   OH243813   4.095   6.504  11.625 -0.2104 -0.1380 -0.1711
 7441TIP3    H143814   4.051   6.419  11.624  0.2800 -0.4122 -1.7839
 7441TIP3    H243815   4.188   6.483  11.630 -0.0608  0.2637 -1.0142
 7442TIP3   OH243816   1.975   6.332  14.423  0.3080 -0.1750  0.0382
 7442TIP3    H143817   1.968   6.272  14.497  0.9675 -0.5331 -0.1805
 7442TIP3    H243818   1.921   6.407  14.448 -1.4127 -1.3052 -0.1490
 7443TIP3   OH243819   6.532   1.878   4.158 -0.2378 -0.0937 -0.5594
 7443TIP3    H143820   6.532   1.840   4.070  0.1775 -0.9333 -0.2078
 7443TIP3    H243821   6.623   1.904   4.173  0.4449 -2.8139  0.7827
 7444TIP3   OH243822   4.409   5.795   1.028 -0.2043 -0.1133 -0.2175
 7444TIP3    H143823   4.420   5.889   1.046 -1.0618 -0.0339 -0.0937
 7444TIP3    H243824   4.338   5.791   0.964 -1.4100 -0.7814  1.1082
 7445TIP3   OH243825   4.344   5.214   5.181  0.6845 -0.4793 -0.6842
 7445TIP3    H143826   4.381   5.131   5.150  1.5883 -0.8847  1.3471
 7445TIP3    H243827   4.417   5.275   5.181  0.4035 -0.1382 -0.5647
 7446TIP3   OH243828   3.590   3.005   2.811 -0.1403  0.6871 -0.4361
 7446TIP3    H143829   3.612   3.096   2.788 -0.9156  0.8253 -0.6705
 7446TIP3    H243830   3.504   2.991   2.771  0.3063 -0.4002 -1.0588
 7447TIP3   OH243831   2.746   2.298  15.348  0.1383 -0.0801 -0.1673
 7447TIP3    H143832   2.753   2.279  15.254 -0.8035 -2.7164  0.2282
 7447TIP3    H243833   2.828   2.267  15.385  0.4505  0.8305 -0.0626
 7448TIP3   OH243834   5.700   3.057   4.349  0.0747 -0.1591 -0.0069
 7448TIP3    H143835   5.689   2.988   4.414 -0.9854  1.5593  1.7175
 7448TIP3    H243836   5.612   3.073   4.315  0.0678  1.2850  0.6355
 7449TIP3   OH243837   6.798   2.932  10.640 -0.2177 -0.2862 -0.1198
 7449TIP3    H143838   6.882   2.930  10.685 -0.7186  0.1722  0.8923
 7449TIP3    H243839   6.769   2.841  10.638 -0.2214 -0.3083  0.5865
 7450TIP3   OH243840   2.878   2.826   4.077 -0.3587  0.0522 -0.3097
 7450TIP3    H143841   2.822   2.757   4.113  1.3088 -0.9692  0.4475
 7450TIP3    H243842   2.966   2.789   4.080  0.1786  0.9330 -3.1392
 7451TIP3   OH243843   2.458   2.377  16.228 -0.0279  0.0203 -0.6460
 7451TIP3    H143844   2.401   2.436  16.278  0.1492 -0.0663 -0.3392
 7451TIP3    H243845   2.505   2.434  16.168  0.0772  0.1810 -0.4129
 7452TIP3   OH243846   3.914   5.841  15.045 -0.0901 -0.0599  0.1536
 7452TIP3    H143847   3.866   5.862  15.125 -0.5397 -0.8153  0.0884
 7452TIP3    H243848   3.866   5.887  14.976 -0.2070 -0.1073  0.2029
 7453TIP3   OH243849   0.385   0.507   0.471  0.2646 -1.6500 -0.0097
 7453TIP3    H143850   0.292   0.499   0.449  0.1745  0.7113 -0.7789
 7453TIP3    H243851   0.385   0.549   0.558  0.4251  2.2884 -1.6826
 7454TIP3   OH243852   4.897   4.242   3.580 -0.2869  0.4971  0.1862
 7454TIP3    H143853   4.933   4.308   3.520  0.8409  0.9449  1.3090
 7454TIP3    H243854   4.881   4.290   3.661 -0.7473 -0.3443  0.6064
 7455TIP3   OH243855   2.601   5.077  15.906  0.7745 -0.3697  1.0659
 7455TIP3    H143856   2.635   5.140  15.970 -0.9385  0.3597  1.3099
 7455TIP3    H243857   2.586   4.997  15.956  0.7904 -0.2483  1.2662
 7456TIP3   OH243858   1.163   6.065   1.423 -0.1417  0.0636 -0.1220
 7456TIP3    H143859   1.116   6.024   1.350 -0.8639 -0.9089  0.8606
 7456TIP3    H243860   1.248   6.089   1.386 -0.2470 -1.0088 -1.1191
 7457TIP3   OH243861   1.947   2.513  11.463  0.3746 -0.5329  0.1458
 7457TIP3    H143862   1.936   2.458  11.386  0.6520 -0.1349 -0.1848
 7457TIP3    H243863   1.924   2.457  11.537 -0.3527 -0.7794 -0.2556
 7458TIP3   OH243864   0.011   1.115   0.442 -0.5914  0.3400 -0.2503
 7458TIP3    H143865   0.021   1.203   0.407  2.2035 -0.3540 -1.4373
 7458TIP3    H243866   0.070   1.111   0.517  1.1832 -1.1066 -1.6027
 7459TIP3   OH243867   2.333   2.548   4.872 -0.2819 -0.0505 -0.3987
 7459TIP3    H143868   2.269   2.478   4.862 -1.9725  1.2460  0.7882
 7459TIP3    H243869   2.333   2.594   4.788 -1.1592  0.1064 -0.3235
 7460TIP3   OH243870   4.543   1.082  11.133  0.1352 -0.2875 -0.1805
 7460TIP3    H143871   4.531   1.051  11.043  2.1062 -0.1001 -0.5463
 7460TIP3    H243872   4.525   1.006  11.188  0.4088 -0.8196 -0.8217
 7461TIP3   OH243873   0.769   0.114   0.110  0.7285 -0.4429 -0.3615
 7461TIP3    H143874   0.805   0.130   0.197 -0.0587  0.8038 -0.2386
 7461TIP3    H243875   0.675   0.102   0.126  0.0617  2.6570 -1.2626
 7462TIP3   OH243876   0.310   0.366  15.565  0.1705 -0.1318  0.0015
 7462TIP3    H143877   0.307   0.274  15.588 -0.7136 -0.5993 -1.7843
 7462TIP3    H243878   0.333   0.366  15.472  0.8965  1.4874  0.1461
 7463TIP3   OH243879   4.988   5.115  12.630 -0.7939  0.2977  0.2782
 7463TIP3    H143880   4.941   5.177  12.575 -1.0513 -0.5939 -0.5374
 7463TIP3    H243881   5.080   5.137  12.618 -0.6429 -1.4030 -2.5212
 7464TIP3   OH243882   1.061   3.257   3.858  0.1488  0.0985  0.2554
 7464TIP3    H143883   0.971   3.285   3.874 -0.2644  0.0502 -1.6915
 7464TIP3    H243884   1.077   3.189   3.923 -1.3380 -0.1317  0.4129
 7465TIP3   OH243885   3.177   6.159  14.245 -0.5708 -0.3353  0.3587
 7465TIP3    H143886   3.153   6.249  14.266 -1.6860 -0.1844 -1.3328
 7465TIP3    H243887   3.220   6.165  14.159  0.7902 -1.2477  0.9399
 7466TIP3   OH243888   3.704   1.368   5.227 -0.0035 -0.4041 -0.1436
 7466TIP3    H143889   3.635   1.383   5.162 -0.9389 -1.2637  0.6193
 7466TIP3    H243890   3.761   1.445   5.220 -1.9164  1.1273  0.2636
 7467TIP3   OH243891   2.555   0.077  13.626  0.1664  0.1922 -0.3298
 7467TIP3    H143892   2.586   0.149  13.571 -0.9996  0.3156 -0.8654
 7467TIP3    H243893   2.621   0.009  13.617  0.3952  0.5217 -1.2336
 7468TIP3   OH243894   2.977   6.469   5.376 -0.0828 -0.3370 -0.4904
 7468TIP3    H143895   2.979   6.463   5.281  0.3008 -1.9797 -0.4053
 7468TIP3    H243896   2.915   6.541   5.394 -0.8933 -0.6295 -1.9510
 7469TIP3   OH243897   5.636   4.222  12.516  0.3582  0.4745  0.4943
 7469TIP3    H143898   5.715   4.230  12.462 -0.5360  1.6984 -0.6891
 7469TIP3    H243899   5.579   4.291  12.485 -1.9405 -1.4850  0.0659
 7470TIP3   OH243900   3.754   6.159   4.739  0.0833  0.2770  0.5334
 7470TIP3    H143901   3.695   6.086   4.761 -0.4188  0.5395  0.0946
 7470TIP3    H243902   3.698   6.221   4.693  0.5021  0.9623  0.9431
 7471TIP3   OH243903   6.813   3.903  15.519 -0.2010 -0.5989  0.0617
 7471TIP3    H143904   6.743   3.847  15.487  0.3693 -1.7260  0.7589
 7471TIP3    H243905   6.893   3.855  15.500  0.3436  0.2422  0.1477
 7472TIP3   OH243906   4.311   2.109   2.556  0.2509  0.1678 -0.7664
 7472TIP3    H143907   4.349   2.021   2.552  0.8390  0.4520 -3.7604
 7472TIP3    H243908   4.386   2.168   2.557 -0.1286  0.6552 -0.8359
 7473TIP3   OH243909   0.364   1.930  10.970 -0.9952  0.1365 -0.7536
 7473TIP3    H143910   0.299   1.964  10.908 -2.1466  1.8516  1.2308
 7473TIP3    H243911   0.381   2.004  11.029  1.7967 -0.6804 -0.3696
 7474TIP3   OH243912   3.786   0.753   3.700  0.4492  0.1427 -0.0566
 7474TIP3    H143913   3.872   0.746   3.740  0.7562 -0.1525 -0.7606
 7474TIP3    H243914   3.739   0.816   3.756  0.9561 -0.0383  0.5903
 7475TIP3   OH243915   3.937   3.625  11.934  0.1102 -0.0794 -0.3556
 7475TIP3    H143916   4.031   3.620  11.949 -0.2358 -1.3859  1.8724
 7475TIP3    H243917   3.916   3.544  11.887 -0.1053 -0.5710  0.5750
 7476TIP3   OH243918   2.163   6.408   1.904 -0.5368  0.2407  0.4844
 7476TIP3    H143919   2.175   6.476   1.838  1.4160 -0.6279 -0.1149
 7476TIP3    H243920   2.162   6.455   1.988  0.1625  1.0703  0.0388
 7477TIP3   OH243921   6.452   4.230   4.209 -0.1378  0.5043  0.0526
 7477TIP3    H143922   6.401   4.217   4.129 -0.6892  2.4665  0.0420
 7477TIP3    H243923   6.406   4.179   4.276 -0.7513  0.3517 -0.4769
 7478TIP3   OH243924   6.325   3.314  15.047  0.1607  0.3461  0.3688
 7478TIP3    H143925   6.373   3.243  15.004  0.9326  1.4550 -0.6511
 7478TIP3    H243926   6.391   3.380  15.066 -0.8271  1.5894 -0.3887
 7479TIP3   OH243927   5.304   4.435  13.462  0.3219 -0.0069 -0.4768
 7479TIP3    H143928   5.358   4.384  13.402  0.5032  0.6226 -0.8559
 7479TIP3    H243929   5.269   4.370  13.524 -0.2513 -0.7385 -1.5341
 7480TIP3   OH243930   0.388   3.116  16.723 -0.2166  0.3316  0.1815
 7480TIP3    H143931   0.432   3.085  16.643 -0.6109  0.2912 -0.0218
 7480TIP3    H243932   0.425   3.062  16.793  0.3545  0.5720  0.0696
 7481TIP3   OH243933   4.083   3.957   0.504 -0.2840 -0.3396  0.0348
 7481TIP3    H143934   4.101   4.039   0.458  3.1506 -0.4740  0.8504
 7481TIP3    H243935   3.988   3.956   0.515 -0.4942  3.6535  0.1856
 7482TIP3   OH243936   4.878   5.260   3.117 -0.3563  0.4142 -0.0163
 7482TIP3    H143937   4.952   5.232   3.063 -0.5376 -3.1025  1.3544
 7482TIP3    H243938   4.919   5.298   3.195 -0.0649  0.7348 -0.3170
 7483TIP3   OH243939   6.671   3.598  14.417 -0.2651  0.2666  0.5324
 7483TIP3    H143940   6.593   3.542  14.417 -1.1947  1.4847 -0.3447
 7483TIP3    H243941   6.744   3.539  14.434 -1.1190 -1.3438 -1.0564
 7484TIP3   OH243942   2.637   0.256   0.075 -0.0910  0.1597 -0.5657
 7484TIP3    H143943   2.603   0.342   0.100  0.4173  0.8766 -2.1678
 7484TIP3    H243944   2.703   0.276   0.008 -0.2012 -1.4957 -1.2058
 7485TIP3   OH243945   0.495   4.774  17.021 -0.2973  0.1156 -0.0152
 7485TIP3    H143946   0.399   4.774  17.027 -0.2130 -0.5151  3.5590
 7485TIP3    H243947   0.516   4.687  16.987 -0.9375  0.1685 -0.5923
 7486TIP3   OH243948   4.909   0.758  12.419  0.3674 -0.4635 -0.5066
 7486TIP3    H143949   4.831   0.751  12.364  0.5895  0.3477 -0.9469
 7486TIP3    H243950   4.963   0.683  12.394 -0.4077 -1.2220  0.0407
 7487TIP3   OH243951   3.551   0.906  15.161 -0.1383  0.3189  0.0748
 7487TIP3    H143952   3.575   0.994  15.192 -1.2110  0.7630 -0.2989
 7487TIP3    H243953   3.516   0.921  15.073 -0.0390 -0.5354 -0.1197
 7488TIP3   OH243954   1.358   5.178  11.343 -0.6206  0.2255  0.3809
 7488TIP3    H143955   1.313   5.178  11.259  0.3794 -1.3731 -0.2055
 7488TIP3    H243956   1.451   5.191  11.321 -0.3422 -0.2367  1.2232
 7489TIP3   OH243957   6.514   3.359   0.311 -0.4714  0.1090  0.0154
 7489TIP3    H143958   6.561   3.340   0.230 -0.3027  1.1582 -0.1448
 7489TIP3    H243959   6.521   3.278   0.362  1.2674  0.1257 -0.1249
 7490TIP3   OH243960   1.230   6.431   0.066  0.2177 -0.0359  0.2133
 7490TIP3    H143961   1.274   6.516   0.073 -2.1265  1.4236 -1.2705
 7490TIP3    H243962   1.274   6.388  -0.008 -0.9935  1.5859 -1.5466
 7491TIP3   OH243963   4.510   3.896   0.330 -0.3290  0.8629  0.4865
 7491TIP3    H143964   4.502   3.854   0.415 -0.6534  0.6694  0.3625
 7491TIP3    H243965   4.426   3.879   0.287  0.5946 -0.8947 -0.7213
 7492TIP3   OH243966   6.062   0.779  13.425  0.0627  0.1610  0.2361
 7492TIP3    H143967   6.128   0.821  13.480  0.7988 -0.5324 -0.1026
 7492TIP3    H243968   6.102   0.696  13.398 -0.3744  0.3821 -1.1505
 7493TIP3   OH243969   6.656   6.379  12.368  0.1049 -0.2489 -0.2738
 7493TIP3    H143970   6.646   6.340  12.454  0.7321  2.1610  0.9712
 7493TIP3    H243971   6.721   6.448  12.380  0.0510  0.3096 -2.6316
 7494TIP3   OH243972   0.540   4.042  14.423  0.7665  0.3377  0.1861
 7494TIP3    H143973   0.507   3.995  14.499  2.1446 -0.6640  0.2103
 7494TIP3    H243974   0.531   4.134  14.445 -0.1401  0.0715  0.9720
 7495TIP3   OH243975   2.593   1.890  16.027  0.5124 -0.4074 -0.4660
 7495TIP3    H143976   2.558   1.979  16.037  1.6426 -0.0494  0.5824
 7495TIP3    H243977   2.641   1.874  16.109  3.2850 -0.6242 -2.0155
 7496TIP3   OH243978   2.876   3.214   3.214 -0.4003  0.2203  0.6335
 7496TIP3    H143979   2.834   3.154   3.276  0.0976  1.6844  2.4498
 7496TIP3    H243980   2.868   3.300   3.254 -0.0601  1.2334 -1.3663
 7497TIP3   OH243981   0.331   4.290  15.113  0.4718  0.6962 -0.7883
 7497TIP3    H143982   0.288   4.205  15.100  0.6306  0.4991 -0.1103
 7497TIP3    H243983   0.381   4.278  15.194 -0.5096  1.8349  0.0272
 7498TIP3   OH243984   0.602   4.796  12.961  0.0937 -0.1332 -0.2330
 7498TIP3    H143985   0.557   4.789  13.046 -0.1981 -0.5781 -0.4205
 7498TIP3    H243986   0.691   4.767  12.979  0.3802  0.9530  0.1894
 7499TIP3   OH243987   0.626   0.949  14.284 -0.2157 -0.3545 -0.0585
 7499TIP3    H143988   0.710   0.922  14.247 -0.3366  0.6403 -1.1313
 7499TIP3    H243989   0.605   1.030  14.237 -0.7760  0.5423  1.6699
 7500TIP3   OH243990   6.669   3.380  15.169  0.0503 -0.3757  0.4426
 7500TIP3    H143991   6.762   3.392  15.148 -0.1023  0.0689 -0.0119
 7500TIP3    H243992   6.663   3.291  15.204  0.3585 -1.1408 -1.3394
 7501TIP3   OH243993   1.568   1.580   5.961 -0.6893 -0.1891 -0.2129
 7501TIP3    H143994   1.494   1.640   5.953 -0.5912  0.0781  0.7807
 7501TIP3    H243995   1.562   1.523   5.884 -0.8329  1.0378 -1.1392
 7502TIP3   OH243996   4.139   0.809   5.258 -0.1169 -0.0251 -0.0271
 7502TIP3    H143997   4.093   0.777   5.335 -0.3251 -0.2156 -0.2296
 7502TIP3    H243998   4.122   0.743   5.190 -1.4438  1.0188 -0.7689
 7503TIP3   OH243999   4.518   5.484  15.415  0.0448 -0.0023 -0.3172
 7503TIP3    H144000   4.457   5.457  15.346 -0.4909  0.0258  0.1289
 7503TIP3    H244001   4.507   5.418  15.483  0.9815 -0.3426 -0.4888
 7504TIP3   OH244002   1.360   3.435  12.199 -0.1712 -1.0618 -0.2135
 7504TIP3    H144003   1.398   3.426  12.111  1.3571 -0.5501  0.3628
 7504TIP3    H244004   1.292   3.501  12.189 -0.5565 -1.5831 -1.1654
 7505TIP3   OH244005   4.676   6.126   0.238 -0.4332 -0.4725 -0.2023
 7505TIP3    H144006   4.684   6.210   0.193  0.9101  0.5985  1.9115
 7505TIP3    H244007   4.730   6.066   0.186  0.0043  0.3825 -0.7503
 7506TIP3   OH244008   6.079   5.197   4.657 -0.1226 -0.0508 -0.5471
 7506TIP3    H144009   6.136   5.201   4.734 -0.3797 -0.9806 -0.3010
 7506TIP3    H244010   6.123   5.252   4.592  0.4932  0.1211  0.0036
 7507TIP3   OH244011   0.738   5.501  15.492 -0.1160  0.2400 -0.3724
 7507TIP3    H144012   0.782   5.441  15.431  1.1191  1.6756 -0.9432
 7507TIP3    H244013   0.747   5.587  15.452  0.1601  1.1449  1.5439
 7508TIP3   OH244014   0.284   2.642  11.853 -0.7165  0.2072 -0.5985
 7508TIP3    H144015   0.347   2.599  11.794 -0.1622 -1.9247  1.3941
 7508TIP3    H244016   0.228   2.692  11.794  1.8594  0.9834 -2.6262
 7509TIP3   OH244017   2.105   0.009  16.028  0.0936 -0.5693 -0.2680
 7509TIP3    H144018   2.134   0.098  16.010  0.7646 -0.6344  0.4158
 7509TIP3    H244019   2.018   0.003  15.989  0.9713 -0.3470 -2.4050
 7510TIP3   OH244020   6.853   0.361   3.107  0.9728 -0.1293 -0.4605
 7510TIP3    H144021   6.905   0.392   3.181  0.9631 -0.3571 -0.3609
 7510TIP3    H244022   6.767   0.400   3.121  0.9564 -0.2152 -0.3268
 7511TIP3   OH244023   0.865   1.580   2.285 -0.7799 -0.1223  0.0377
 7511TIP3    H144024   0.870   1.535   2.200 -0.2903  2.2463 -1.2757
 7511TIP3    H244025   0.867   1.673   2.263  0.8712  0.5941  2.7645
 7512TIP3   OH244026   4.039   4.235  11.362  0.3217 -0.2474  0.0747
 7512TIP3    H144027   4.021   4.323  11.331  1.0421 -0.2558 -0.3721
 7512TIP3    H244028   4.056   4.184  11.283  0.7831 -0.5880  0.3897
 7513TIP3   OH244029   5.623   4.466  16.750 -0.0305  0.3234  0.2641
 7513TIP3    H144030   5.718   4.459  16.759  0.1120  1.1234 -0.4123
 7513TIP3    H244031   5.589   4.443  16.836  0.8007  0.4391  0.6359
 7514TIP3   OH244032   4.960   1.441   5.209  0.7007  0.0613 -0.4693
 7514TIP3    H144033   4.984   1.527   5.244 -0.6266  0.1711  0.2576
 7514TIP3    H244034   4.908   1.460   5.131 -0.9034  0.0069  0.5409
 7515TIP3   OH244035   1.813   6.385   1.610  0.5006 -0.2773  0.2886
 7515TIP3    H144036   1.758   6.408   1.685 -1.1422 -0.6308 -0.7464
 7515TIP3    H244037   1.756   6.334   1.553  0.8144  2.1702 -2.4763
 7516TIP3   OH244038   2.052   6.564   2.504  0.1306  0.7331  0.1938
 7516TIP3    H144039   2.137   6.520   2.501  0.5141  1.5217 -1.0605
 7516TIP3    H244040   2.021   6.561   2.413 -1.5048 -0.1272  0.7370
 7517TIP3   OH244041   4.240   5.818  10.328 -0.0774 -0.1139  0.1106
 7517TIP3    H144042   4.299   5.889  10.304  0.0400 -0.7242 -1.5732
 7517TIP3    H244043   4.294   5.739  10.324 -0.7255 -0.5529 -0.4059
 7518TIP3   OH244044   5.029   4.914   2.730  0.2856  0.3817 -0.3267
 7518TIP3    H144045   5.063   4.999   2.700  1.4604 -0.3473 -1.1494
 7518TIP3    H244046   5.024   4.861   2.650 -0.2047 -0.4006  0.2179
 7519TIP3   OH244047   4.589   0.248  16.817  0.2919 -0.4851 -0.1305
 7519TIP3    H144048   4.626   0.275  16.733 -0.3933 -0.9943 -0.6089
 7519TIP3    H244049   4.511   0.304  16.828 -0.3867 -1.3402 -0.4934
 7520TIP3   OH244050   1.409   1.164   0.097  0.1679 -0.4074 -0.8040
 7520TIP3    H144051   1.476   1.205   0.152  0.5522 -1.9523 -0.0425
 7520TIP3    H244052   1.341   1.231   0.087  1.3435  0.8330 -0.7302
 7521TIP3   OH244053   5.755   0.906   0.088  0.0929 -0.4497  0.3002
 7521TIP3    H144054   5.756   0.868   0.000 -0.8357  0.9923 -0.3751
 7521TIP3    H244055   5.687   0.974   0.084  1.7764  1.4115  1.3602
 7522TIP3   OH244056   2.303   5.184   0.927  0.4091  0.3871 -0.0679
 7522TIP3    H144057   2.286   5.091   0.908 -0.3249  0.1551  1.5590
 7522TIP3    H244058   2.277   5.195   1.019  1.4091  1.9854  0.0642
 7523TIP3   OH244059   6.244   4.299   5.316 -0.1266 -0.3247  0.9331
 7523TIP3    H144060   6.195   4.334   5.241  2.4716 -0.9910 -1.2293
 7523TIP3    H244061   6.248   4.372   5.378 -0.7031  0.9164 -0.4395
 7524TIP3   OH244062   5.283   5.437   2.004 -0.2501 -0.0077 -0.3772
 7524TIP3    H144063   5.279   5.402   2.093  0.8241 -0.2272 -0.3980
 7524TIP3    H244064   5.272   5.531   2.015 -2.2743 -0.2250 -0.2341
 7525TIP3   OH244065   4.167   0.549   5.426  0.1317  0.3913  0.0311
 7525TIP3    H144066   4.101   0.615   5.448 -1.6616 -1.1170 -0.5449
 7525TIP3    H244067   4.149   0.476   5.486  1.2206 -0.1041 -0.2170
 7526TIP3   OH244068   0.368   6.617   3.130  0.1166 -0.0522 -0.4959
 7526TIP3    H144069   0.385   6.665   3.049 -0.0322 -0.2611 -0.6500
 7526TIP3    H244070   0.441   6.641   3.188 -0.2397  0.7853 -0.3783
 7527TIP3   OH244071   6.411   2.005  17.029 -0.0212  0.4194  0.4856
 7527TIP3    H144072   6.352   1.945  17.074 -0.3182  0.0639 -0.3443
 7527TIP3    H244073   6.355   2.048  16.964  0.3037  1.2113  0.7264
 7528TIP3   OH244074   3.054   0.632   2.239  0.0150  0.3662  0.3376
 7528TIP3    H144075   3.056   0.725   2.261  0.3817  0.1692  1.1653
 7528TIP3    H244076   2.994   0.627   2.164  0.5283  1.3487 -0.1584
 7529TIP3   OH244077   6.077   6.344   0.847  0.0467 -0.2963 -0.0261
 7529TIP3    H144078   6.057   6.285   0.774 -1.3899 -1.4431  1.2352
 7529TIP3    H244079   6.089   6.286   0.922 -1.9742  0.9772  1.3963
 7530TIP3   OH244080   3.937   2.382  10.286 -0.1369  0.6304  0.1566
 7530TIP3    H144081   3.939   2.413  10.195 -2.2752  0.9127  0.1567
 7530TIP3    H244082   4.014   2.324  10.293  1.3839  2.3617 -1.1261
 7531TIP3   OH244083   2.178   1.741   0.752  0.0232  0.0970  0.2075
 7531TIP3    H144084   2.178   1.651   0.720 -1.0586  0.5435 -1.1570
 7531TIP3    H244085   2.120   1.740   0.828 -0.6126 -0.2116 -0.2744
 7532TIP3   OH244086   5.424   4.015  13.905  0.7977  0.3336 -0.3384
 7532TIP3    H144087   5.467   3.937  13.870  2.0217  1.1794 -0.7901
 7532TIP3    H244088   5.336   4.012  13.869  1.0101 -0.5421 -0.8112
 7533TIP3   OH244089   1.741   0.310  13.075  0.4543  0.8671 -0.3386
 7533TIP3    H144090   1.800   0.238  13.096  2.2489  1.9582 -1.3501
 7533TIP3    H244091   1.760   0.331  12.984 -1.2274  1.5353 -0.5608
 7534TIP3   OH244092   0.272   1.507   5.156  0.7517  0.4494  0.0663
 7534TIP3    H144093   0.206   1.446   5.191  0.3923  0.4869 -0.5321
 7534TIP3    H244094   0.231   1.544   5.078  1.6321  0.2003 -0.5238
 7535TIP3   OH244095   4.124   4.097   4.219 -0.6242 -0.4202 -0.2070
 7535TIP3    H144096   4.194   4.122   4.159  1.1633 -1.4063  1.3389
 7535TIP3    H244097   4.112   4.003   4.202  0.1186 -0.7787  1.1170
 7536TIP3   OH244098   5.148   5.003   3.502  0.0893  0.1988  0.2447
 7536TIP3    H144099   5.076   5.040   3.450  0.6169  0.6055 -0.2046
 7536TIP3    H244100   5.104   4.956   3.573 -0.6370 -0.1429 -0.4155
 7537TIP3   OH244101   2.127   3.272   5.184  0.4512  0.2882 -0.0727
 7537TIP3    H144102   2.159   3.336   5.122 -1.6745  0.9007 -0.6356
 7537TIP3    H244103   2.169   3.295   5.267  0.1198  2.1225 -0.3720
 7538TIP3   OH244104   4.575   1.073   2.206  0.2514  0.1221 -0.1414
 7538TIP3    H144105   4.664   1.066   2.172  0.9874 -3.5017  2.0431
 7538TIP3    H244106   4.582   1.135   2.278  0.4292  1.5967 -1.3739
 7539TIP3   OH244107   0.387   3.711  14.921 -0.0831  0.5751  0.0781
 7539TIP3    H144108   0.464   3.757  14.887  0.8280  1.0092  2.5298
 7539TIP3    H244109   0.389   3.625  14.879  1.2050  0.9301 -0.6294
 7540TIP3   OH244110   1.702   2.748  16.775 -0.2341 -0.1297  0.1926
 7540TIP3    H144111   1.690   2.704  16.690 -0.7705  0.6185 -0.1234
 7540TIP3    H244112   1.619   2.736  16.820 -0.3988  0.6013  0.0843
 7541TIP3   OH244113   0.277   1.411   2.792  0.3938  0.2206  0.3551
 7541TIP3    H144114   0.202   1.378   2.741 -0.0053 -0.9104  1.6163
 7541TIP3    H244115   0.295   1.497   2.754 -2.3296  1.0934  0.8078
 7542TIP3   OH244116   1.847   0.704   4.144 -0.1317 -0.5034  0.2402
 7542TIP3    H144117   1.820   0.696   4.053  1.8391 -1.2601 -0.3271
 7542TIP3    H244118   1.855   0.614   4.175 -0.3452 -0.2617  1.0342
 7543TIP3   OH244119   4.717   5.480  13.684  0.3910  0.1534 -0.0270
 7543TIP3    H144120   4.699   5.408  13.624  0.3533 -1.9915  2.3861
 7543TIP3    H244121   4.809   5.502  13.668  1.1093 -2.0555  0.7138
 7544TIP3   OH244122   2.230   2.512   2.419  0.7542  0.0184 -0.2931
 7544TIP3    H144123   2.195   2.498   2.331 -0.2988 -1.4535  0.3137
 7544TIP3    H244124   2.312   2.462   2.421 -1.4283 -3.9194  0.8668
 7545TIP3   OH244125   3.483   5.930  11.001  0.4699 -0.2626 -0.1318
 7545TIP3    H144126   3.512   5.839  11.009  1.7492 -0.0476 -1.7384
 7545TIP3    H244127   3.523   5.975  11.076  1.2937 -0.7065 -0.2885
 7546TIP3   OH244128   2.638   4.209  16.704  0.2067 -0.6698  0.4666
 7546TIP3    H144129   2.574   4.252  16.762 -1.2089 -0.1918 -1.3318
 7546TIP3    H244130   2.614   4.117  16.706  0.4469 -0.7234  0.9727
 7547TIP3   OH244131   2.067   0.725   2.486  0.2812 -0.1168  0.2102
 7547TIP3    H144132   2.068   0.712   2.391  0.2624  1.0379  0.0374
 7547TIP3    H244133   2.145   0.679   2.517  0.5429 -0.1156 -0.4201
 7548TIP3   OH244134   1.616   2.445  11.547 -0.2388 -0.4469  0.1483
 7548TIP3    H144135   1.659   2.486  11.622  0.0680  0.4059 -0.4699
 7548TIP3    H244136   1.544   2.504  11.526 -0.8940 -1.1710  0.3476
 7549TIP3   OH244137   0.767   3.803   0.742  0.2027  0.3540  0.2903
 7549TIP3    H144138   0.833   3.750   0.698 -0.7222 -0.3971 -0.2475
 7549TIP3    H244139   0.740   3.867   0.676 -0.0388  0.2651  0.3021
 7550TIP3   OH244140   5.312   5.469   5.910  0.0701  0.0051 -0.3315
 7550TIP3    H144141   5.285   5.560   5.918 -0.2687 -0.1660  0.7464
 7550TIP3    H244142   5.242   5.420   5.955  1.0820 -0.6347  0.5949
 7551TIP3   OH244143   3.199   1.397  12.199  0.1438  0.3024  0.2931
 7551TIP3    H144144   3.268   1.455  12.233 -1.0921  2.3426 -0.5014
 7551TIP3    H244145   3.133   1.457  12.163 -1.1405 -1.6335 -0.7297
 7552TIP3   OH244146   4.840   2.503  16.207  0.1334 -0.2294 -0.5994
 7552TIP3    H144147   4.844   2.591  16.170 -0.5395 -0.2975 -0.8497
 7552TIP3    H244148   4.823   2.447  16.131 -2.3189 -0.2645 -0.0774
 7553TIP3   OH244149   0.395   1.280  12.255  0.0366 -0.6545 -0.3785
 7553TIP3    H144150   0.401   1.370  12.286  0.0103 -0.9210  0.4398
 7553TIP3    H244151   0.456   1.275  12.182  0.9438 -0.2831  0.3335
 7554TIP3   OH244152   1.464   1.589   2.717 -0.7344 -0.5081  0.2461
 7554TIP3    H144153   1.386   1.594   2.772 -1.0374  0.8695 -0.2696
 7554TIP3    H244154   1.515   1.667   2.741 -0.6422 -0.1502 -1.0621
 7555TIP3   OH244155   5.412   4.013   1.669  0.6432 -0.0361  0.0055
 7555TIP3    H144156   5.347   4.062   1.719  0.1864 -0.6668  0.0380
 7555TIP3    H244157   5.365   3.937   1.634  1.2698 -0.3109 -0.2732
 7556TIP3   OH244158   3.330   0.056   4.729  0.3256 -0.3962  0.1497
 7556TIP3    H144159   3.310   0.021   4.816  0.8978 -0.4565  0.2659
 7556TIP3    H244160   3.409   0.109   4.743  0.0407  0.1288 -0.2132
 7557TIP3   OH244161   2.110   4.143  15.855 -0.2192 -0.0950 -0.0809
 7557TIP3    H144162   2.063   4.186  15.784  0.3604  1.1963  0.2851
 7557TIP3    H244163   2.143   4.215  15.909  0.9233 -0.9964  0.4653
 7558TIP3   OH244164   6.795   5.368  16.746  0.5158  0.5073  0.2904
 7558TIP3    H144165   6.791   5.273  16.739  0.8982  0.5616 -0.8680
 7558TIP3    H244166   6.713   5.393  16.789 -0.7437 -0.1565 -1.6139
 7559TIP3   OH244167   5.210   6.564   5.732  0.0763  0.3054 -0.2990
 7559TIP3    H144168   5.156   6.643   5.739 -1.5567 -0.6018 -1.8296
 7559TIP3    H244169   5.201   6.537   5.641 -0.3060 -2.2484  0.4258
 7560TIP3   OH244170   6.339   3.664  11.885  0.2185 -0.4831  0.3551
 7560TIP3    H144171   6.291   3.747  11.887 -1.4254 -1.2352 -2.0896
 7560TIP3    H244172   6.413   3.680  11.827  1.1278 -0.1781  1.5825
 7561TIP3   OH244173   5.662   3.963  13.191 -0.5219  0.6680 -0.0635
 7561TIP3    H144174   5.690   3.957  13.100  1.3262 -1.2438  0.5117
 7561TIP3    H244175   5.740   3.994  13.237 -0.1641 -1.8671  1.2454
 7562TIP3   OH244176   4.973   5.420   4.503 -0.2413  0.2453 -0.2577
 7562TIP3    H144177   5.036   5.348   4.497 -0.5640 -0.1835  1.0258
 7562TIP3    H244178   5.002   5.471   4.579 -0.4941  0.9952 -0.6548
 7563TIP3   OH244179   1.272   6.228  16.446  0.0286  0.2538 -0.1222
 7563TIP3    H144180   1.256   6.268  16.361 -0.5864 -0.5452 -0.3894
 7563TIP3    H244181   1.278   6.134  16.429 -0.6481  0.0235  0.7689
 7564TIP3   OH244182   1.062   2.607  12.538  0.5958 -0.0779  0.2714
 7564TIP3    H144183   1.092   2.517  12.546 -0.9457 -0.9404 -2.4867
 7564TIP3    H244184   1.063   2.625  12.443 -0.3719  2.3540  0.6341
 7565TIP3   OH244185   2.863   1.230   4.298  0.4421  0.2603  0.1542
 7565TIP3    H144186   2.900   1.257   4.382  1.3108  2.1260 -0.7839
 7565TIP3    H244187   2.923   1.264   4.232  0.5522 -2.3567 -1.2526
 7566TIP3   OH244188   5.541   2.851  14.545 -0.5869  0.5124  0.0595
 7566TIP3    H144189   5.471   2.786  14.536 -0.1535  0.0296  0.1496
 7566TIP3    H244190   5.556   2.882  14.456  1.0739 -1.4990 -0.4489
 7567TIP3   OH244191   1.901   1.132   4.411  0.5536  0.2054 -0.2660
 7567TIP3    H144192   1.903   1.095   4.499 -3.0113  1.0606  0.3540
 7567TIP3    H244193   1.903   1.056   4.353  3.7121 -0.3439  0.4124
 7568TIP3   OH244194   4.260   3.550   1.302 -0.4251  0.0339 -0.6850
 7568TIP3    H144195   4.342   3.591   1.329 -0.6498  0.1156 -0.1107
 7568TIP3    H244196   4.283   3.458   1.289 -0.0403  0.2289 -1.4505
 7569TIP3   OH244197   4.236   5.812  16.581  0.1262 -0.3876 -0.0149
 7569TIP3    H144198   4.172   5.741  16.584  0.2449 -0.5752 -1.5679
 7569TIP3    H244199   4.249   5.836  16.673 -0.4989 -1.8394  0.4751
 7570TIP3   OH244200   1.821   2.238   3.389  0.2437  0.4036 -0.2975
 7570TIP3    H144201   1.882   2.286   3.446  0.6693 -2.3383  1.7738
 7570TIP3    H244202   1.740   2.288   3.394  1.8057  3.3425 -1.9514
 7571TIP3   OH244203   4.615   5.058  10.254  0.4202 -0.4339  0.4364
 7571TIP3    H144204   4.655   5.124  10.197 -0.6719 -0.6335 -0.6099
 7571TIP3    H244205   4.572   5.108  10.323  0.4094 -0.1051  0.1917
 7572TIP3   OH244206   4.343   4.928  16.229 -0.5618 -0.0166  0.4831
 7572TIP3    H144207   4.439   4.935  16.231 -0.4096  0.4778 -2.7484
 7572TIP3    H244208   4.313   5.018  16.245 -0.4520  0.0072  0.5626
 7573TIP3   OH244209   5.907   2.134  14.561 -0.1413 -0.0472 -0.2996
 7573TIP3    H144210   5.883   2.095  14.645 -0.6596  0.3636 -0.2494
 7573TIP3    H244211   5.860   2.083  14.496  2.6594 -2.4434 -0.6900
 7574TIP3   OH244212   4.485   6.073   1.006  0.2405 -0.2389 -0.1504
 7574TIP3    H144213   4.567   6.082   1.055  1.6850 -1.0055 -2.2817
 7574TIP3    H244214   4.513   6.061   0.915 -2.1052 -3.6019 -0.5745
 7575TIP3   OH244215   5.851   1.211  14.932  0.3573 -0.1549 -0.3276
 7575TIP3    H144216   5.890   1.291  14.896  1.5093 -0.8585 -0.7131
 7575TIP3    H244217   5.767   1.239  14.968 -0.0190  0.9166 -1.9394
 7576TIP3   OH244218   3.451   1.054  13.169  0.8092  0.0547  0.3130
 7576TIP3    H144219   3.434   1.083  13.259 -0.9890  0.9467 -0.2685
 7576TIP3    H244220   3.528   1.105  13.142 -0.1017  1.6079  0.5536
 7577TIP3   OH244221   3.857   4.146  12.078 -0.1244 -0.1097 -0.1289
 7577TIP3    H144222   3.914   4.219  12.100 -0.2725 -0.8024  2.9888
 7577TIP3    H244223   3.771   4.172  12.112 -0.5334 -1.1031 -0.3721
 7578TIP3   OH244224   3.795   3.126  10.475  0.4052 -0.6470  0.0354
 7578TIP3    H144225   3.715   3.178  10.482  0.6697  0.1022 -1.8026
 7578TIP3    H244226   3.767   3.035  10.486 -0.5270 -0.3151  0.4360
 7579TIP3   OH244227   3.762   1.724  14.287  0.0508 -0.2228 -0.0296
 7579TIP3    H144228   3.850   1.719  14.250 -0.0099  0.1883 -0.2326
 7579TIP3    H244229   3.759   1.810  14.330 -0.5417  0.1418 -0.7774
 7580TIP3   OH244230   5.171   6.603  16.045 -0.0501 -0.1940  0.1170
 7580TIP3    H144231   5.116   6.525  16.048 -0.4530  0.0930  0.3943
 7580TIP3    H244232   5.144   6.655  16.121  1.6714 -0.7278  1.1410
 7581TIP3   OH244233   3.674   1.494  15.026  0.0194 -0.0306 -0.1807
 7581TIP3    H144234   3.614   1.525  15.094  1.0105  0.6991  0.3982
 7581TIP3    H244235   3.750   1.463  15.075  0.7146  0.4366 -0.9507
 7582TIP3   OH244236   2.329   4.643   5.079  0.8790 -0.9824  0.3510
 7582TIP3    H144237   2.395   4.597   5.130 -0.0427  0.7107  3.3370
 7582TIP3    H244238   2.379   4.705   5.025  1.8279 -1.1844  0.9766
 7583TIP3   OH244239   6.032   2.122   0.510 -0.1686  0.1988  0.7209
 7583TIP3    H144240   6.119   2.102   0.475  0.6039  0.8035  2.1807
 7583TIP3    H244241   6.015   2.052   0.573 -1.7421 -1.1433 -1.0790
 7584TIP3   OH244242   3.669   5.662   4.034 -0.0226 -0.0209 -0.2569
 7584TIP3    H144243   3.728   5.724   3.990  2.0626  0.0011  2.3169
 7584TIP3    H244244   3.608   5.718   4.083 -0.1316 -0.0429 -0.3655
 7585TIP3   OH244245   3.178   1.881   4.457 -0.4195  0.3143 -0.3347
 7585TIP3    H144246   3.103   1.884   4.397  0.7971  0.0791 -1.9372
 7585TIP3    H244247   3.162   1.951   4.520 -2.0782  0.1293 -0.5095
 7586TIP3   OH244248   3.774   1.691   2.757  0.2076  0.4416  0.5818
 7586TIP3    H144249   3.691   1.643   2.767  0.3989 -0.3084 -1.0591
 7586TIP3    H244250   3.841   1.624   2.765  0.5578  0.7011 -0.1250
 7587TIP3   OH244251   3.518   2.229  15.793  0.2980 -0.9826 -0.4862
 7587TIP3    H144252   3.492   2.269  15.711  0.1665 -2.1092 -1.0069
 7587TIP3    H244253   3.613   2.242  15.797  0.7496 -3.1287 -2.1070
 7588TIP3   OH244254   4.975   6.440  13.836  0.3178 -0.0340  0.1518
 7588TIP3    H144255   4.976   6.414  13.744  0.9130  1.3762 -0.2784
 7588TIP3    H244256   4.885   6.469  13.852  0.5107  0.9234 -0.3823
 7589TIP3   OH244257   1.591   2.294  12.915  0.3401  0.0637 -0.5587
 7589TIP3    H144258   1.500   2.322  12.918 -0.0029 -1.0283  0.7888
 7589TIP3    H244259   1.635   2.348  12.981  0.4752 -0.0213 -0.5786
 7590TIP3   OH244260   2.831   1.040  16.603 -0.5450  0.1107 -0.4719
 7590TIP3    H144261   2.910   1.017  16.554 -0.4559 -1.0228  0.1654
 7590TIP3    H244262   2.823   1.135  16.593  1.6704  0.4714  0.5836
 7591TIP3   OH244263   3.858   5.849   3.948  0.5420  0.0366  0.0455
 7591TIP3    H144264   3.841   5.898   4.029  0.8922 -0.0602  0.1788
 7591TIP3    H244265   3.906   5.909   3.892  2.7176 -0.7572  0.9606
 7592TIP3   OH244266   6.546   1.418   2.934 -0.2998 -0.2306  0.7681
 7592TIP3    H144267   6.536   1.513   2.943  0.9730  0.1586 -1.2132
 7592TIP3    H244268   6.508   1.399   2.848  0.0848 -1.4021  0.8483
 7593TIP3   OH244269   0.005   0.633  10.905 -0.4147 -0.3971 -0.6375
 7593TIP3    H144270  -0.009   0.566  10.838 -1.1399 -0.0060 -0.8909
 7593TIP3    H244271   0.037   0.709  10.857 -0.5910 -0.2308 -0.4973
 7594TIP3   OH244272   3.004   1.387   4.475  0.1826 -0.4497  0.3901
 7594TIP3    H144273   2.999   1.372   4.569  1.5635  0.6284  0.6573
 7594TIP3    H244274   3.064   1.460   4.465  0.8810 -1.2040 -1.3915
 7595TIP3   OH244275   0.747   6.246  14.070 -0.6509 -0.3564 -0.1951
 7595TIP3    H144276   0.780   6.216  13.985 -0.3452  1.8778 -0.9370
 7595TIP3    H244277   0.660   6.207  14.077 -0.9988  0.0052 -1.9144
 7596TIP3   OH244278   5.291   0.943  15.117  0.2224  0.5196 -0.8458
 7596TIP3    H144279   5.356   0.914  15.181 -0.1806 -0.5860 -0.9147
 7596TIP3    H244280   5.207   0.920  15.157 -0.0770  0.8110 -1.3023
 7597TIP3   OH244281   3.535   5.800  11.421  0.0173  0.2184 -0.0210
 7597TIP3    H144282   3.566   5.885  11.452  0.9807  0.6790 -2.0515
 7597TIP3    H244283   3.606   5.769  11.364 -1.4654 -0.6901 -1.4420
 7598TIP3   OH244284   2.315   5.355  12.866 -0.1505 -0.1252 -0.4337
 7598TIP3    H144285   2.317   5.284  12.930  0.8880 -0.6462 -1.0120
 7598TIP3    H244286   2.327   5.435  12.917 -1.2491 -0.3571  0.2146
 7599TIP3   OH244287   5.340   2.369  16.314  0.0051  0.2860 -0.3719
 7599TIP3    H144288   5.377   2.342  16.230  1.9008  0.4918  0.3452
 7599TIP3    H244289   5.389   2.318  16.379 -1.0146  0.5696  0.6460
 7600TIP3   OH244290   3.420   4.534  16.306 -0.5345 -0.2573 -0.0297
 7600TIP3    H144291   3.494   4.476  16.289 -1.8678 -1.6767 -1.2564
 7600TIP3    H244292   3.456   4.622  16.294  1.3028 -0.8169  0.9470
 7601TIP3   OH244293   0.007   6.552   5.131  0.3617 -0.6011  0.1819
 7601TIP3    H144294   0.033   6.613   5.062  0.5390 -0.0750  0.6957
 7601TIP3    H244295  -0.050   6.605   5.188 -0.8000 -1.3745 -0.2296
 7602TIP3   OH244296   6.668   0.283   4.876 -0.1249 -0.1505  0.3851
 7602TIP3    H144297   6.581   0.296   4.840 -0.4109  0.2363  1.2042
 7602TIP3    H244298   6.718   0.358   4.846  0.1571 -0.7571 -0.7311
 7603TIP3   OH244299   6.005   4.991   1.410  0.5524 -0.7873  0.3360
 7603TIP3    H144300   6.027   4.928   1.342  0.0320 -0.0148 -0.5718
 7603TIP3    H244301   6.089   5.019   1.446  0.8661 -0.6994 -0.4575
 7604TIP3   OH244302   1.100   1.905  12.496 -0.9330 -0.2318 -0.2311
 7604TIP3    H144303   1.124   1.964  12.568 -2.2861 -0.6983  0.6428
 7604TIP3    H244304   1.005   1.895  12.504 -0.9009 -1.5183 -1.1465
 7605TIP3   OH244305   4.773   6.084   1.398 -0.2312  0.2855 -0.7427
 7605TIP3    H144306   4.703   6.106   1.459 -0.7012 -0.4098 -1.0179
 7605TIP3    H244307   4.747   5.999   1.362  0.1550  0.5821 -1.7385
 7606TIP3   OH244308   1.129   0.083   5.353  0.3708 -0.2603  0.3805
 7606TIP3    H144309   1.148   0.077   5.259  1.0671 -1.9613  0.5867
 7606TIP3    H244310   1.035   0.070   5.360  0.1340  0.9935 -0.1340
 7607TIP3   OH244311   3.222   3.037   5.992 -0.0174  0.4057  0.1933
 7607TIP3    H144312   3.289   3.058   6.057  1.5874  1.6739 -1.7642
 7607TIP3    H244313   3.142   3.079   6.027  0.1809 -0.8851  2.4098
 7608TIP3   OH244314   4.627   0.279   2.877 -0.4608  0.3834 -0.4893
 7608TIP3    H144315   4.634   0.269   2.782 -1.1387 -0.2338 -0.4861
 7608TIP3    H244316   4.584   0.198   2.907  0.1642  0.3644  0.4006
 7609TIP3   OH244317   4.540   6.387  13.193  0.4822  0.1956  0.5256
 7609TIP3    H144318   4.603   6.322  13.162 -0.4140 -0.5455  0.1870
 7609TIP3    H244319   4.493   6.343  13.265 -0.7345  0.1029 -0.2859
 7610TIP3   OH244320   6.640   2.599  13.205  0.3257  0.1793  0.2459
 7610TIP3    H144321   6.575   2.657  13.165  0.1204 -0.0995  0.1685
 7610TIP3    H244322   6.662   2.641  13.288 -0.0034  0.2441  0.3018
 7611TIP3   OH244323   4.680   3.235  13.966 -0.4977  0.0400  0.1603
 7611TIP3    H144324   4.668   3.330  13.968  1.9670  0.5153 -1.8757
 7611TIP3    H244325   4.591   3.199  13.965 -1.4900  2.3456  0.3349
 7612TIP3   OH244326   2.023   0.024   3.289  0.8914 -0.2612 -0.5283
 7612TIP3    H144327   2.096   0.012   3.349 -1.1466 -1.7771  1.8823
 7612TIP3    H244328   1.991  -0.065   3.272 -1.6020  0.4169  0.1817
 7613TIP3   OH244329   4.573   2.766  15.144  0.5845  0.3964 -0.4904
 7613TIP3    H144330   4.576   2.860  15.125 -0.6013  0.5736  0.1546
 7613TIP3    H244331   4.606   2.725  15.064  2.7716  1.4007 -0.1714
 7614TIP3   OH244332   3.872   4.697   3.455 -0.4488 -0.0616 -0.1305
 7614TIP3    H144333   3.923   4.774   3.431 -0.5604 -0.2991 -1.1930
 7614TIP3    H244334   3.788   4.731   3.486  0.3748  0.3424  1.8035
 7615TIP3   OH244335   0.224   1.248   5.252  0.5077  0.4196 -0.3072
 7615TIP3    H144336   0.155   1.196   5.210 -0.7119  1.1108  0.7403
 7615TIP3    H244337   0.240   1.203   5.335 -0.3502  1.5097  0.4793
 7616TIP3   OH244338   5.371   0.879  16.461  0.1357  0.4358 -0.6120
 7616TIP3    H144339   5.398   0.944  16.526  0.9132  0.2189 -0.7175
 7616TIP3    H244340   5.277   0.866  16.478  0.3127  0.4238  0.4382
 7617TIP3   OH244341   2.178   3.022  10.994  0.0043  0.0584  0.2490
 7617TIP3    H144342   2.221   2.984  10.918 -1.2990  0.0534 -0.5215
 7617TIP3    H244343   2.130   3.097  10.960  0.3708  0.7816  1.2885
 7618TIP3   OH244344   1.388   0.860   3.324 -0.5400  0.7607  0.5592
 7618TIP3    H144345   1.460   0.840   3.265 -0.9558  0.8963  0.0024
 7618TIP3    H244346   1.311   0.821   3.282 -0.5592 -0.7753  1.9013
 7619TIP3   OH244347   3.449   2.837  13.242 -0.1248 -0.2756  0.0894
 7619TIP3    H144348   3.376   2.845  13.182 -0.3984  1.5849  0.6110
 7619TIP3    H244349   3.435   2.753  13.286 -1.4312 -0.3608 -0.4437
 7620TIP3   OH244350   2.988   5.688   5.204 -0.4608  0.0478 -0.0446
 7620TIP3    H144351   2.968   5.731   5.287 -1.3899 -0.0244 -0.2213
 7620TIP3    H244352   2.968   5.596   5.219  0.6402 -0.1971  0.0470
 7621TIP3   OH244353   5.238   4.206   5.529  0.0489 -0.1326  0.1411
 7621TIP3    H144354   5.182   4.196   5.605 -1.4652  1.9759 -0.5831
 7621TIP3    H244355   5.324   4.228   5.564 -0.3252 -0.4187  1.2503
 7622TIP3   OH244356   4.682   3.335  11.771 -0.0225 -0.7246 -0.3579
 7622TIP3    H144357   4.732   3.256  11.792 -0.7883 -2.0466 -3.0123
 7622TIP3    H244358   4.610   3.334  11.834  1.4430 -0.5586  1.4230
 7623TIP3   OH244359   2.534   6.017   6.451  0.1643 -0.0702  0.4005
 7623TIP3    H144360   2.609   5.958   6.464  0.1223 -0.7326 -1.9441
 7623TIP3    H244361   2.484   5.977   6.379 -0.6437  2.0806 -0.3082
 7624TIP3   OH244362   0.657   5.686   1.344  0.3052  0.2314 -0.2653
 7624TIP3    H144363   0.676   5.599   1.308 -1.3956 -0.3833  0.2275
 7624TIP3    H244364   0.619   5.735   1.271  1.4205  0.6381 -0.5888
 7625TIP3   OH244365   6.387   2.262   4.947  0.3669  0.0718 -0.7670
 7625TIP3    H144366   6.469   2.306   4.968 -0.8511  1.9623  0.3346
 7625TIP3    H244367   6.350   2.313   4.875 -0.3574 -0.0604 -0.5004
 7626TIP3   OH244368   6.242   4.506   5.509 -0.2026  0.0380 -0.1226
 7626TIP3    H144369   6.167   4.566   5.498  0.0456  0.6171  1.1666
 7626TIP3    H244370   6.286   4.538   5.588  0.7245 -1.0335 -0.1947
 7627TIP3   OH244371   6.425   3.360   5.257  0.2082  0.0080  0.4977
 7627TIP3    H144372   6.368   3.346   5.333  1.8662 -1.0830  1.6095
 7627TIP3    H244373   6.365   3.369   5.183 -1.3931 -1.9653  1.4615
 7628TIP3   OH244374   1.554   0.270  13.966 -0.5301 -0.1786 -0.3390
 7628TIP3    H144375   1.632   0.273  14.023  0.7628  1.7334 -2.0601
 7628TIP3    H244376   1.491   0.217  14.014 -0.0422  2.3518  3.5421
 7629TIP3   OH244377   1.069   0.619   4.592 -0.4021 -0.5213 -0.3767
 7629TIP3    H144378   1.009   0.588   4.524 -0.8541 -0.1775 -0.1394
 7629TIP3    H244379   1.117   0.690   4.550 -1.4027  0.3911 -0.0482
 7630TIP3   OH244380   5.367   3.032   2.958  0.3545  0.3276 -0.2227
 7630TIP3    H144381   5.289   3.068   3.000  0.9986  1.3755  0.1271
 7630TIP3    H244382   5.337   3.004   2.871 -0.5729 -0.0548  0.2066
 7631TIP3   OH244383   6.496   2.322   2.275 -0.4822 -0.6875  0.0506
 7631TIP3    H144384   6.579   2.316   2.229 -0.2290 -1.0714  0.5476
 7631TIP3    H244385   6.474   2.415   2.272  0.7421 -0.3254  1.2508
 7632TIP3   OH244386   6.731   2.135   3.439  0.3189 -0.7796 -0.3581
 7632TIP3    H144387   6.636   2.147   3.435  0.2406 -1.5639 -1.0845
 7632TIP3    H244388   6.756   2.116   3.349  1.2146 -0.2982 -0.2195
 7633TIP3   OH244389   2.805   4.052   4.337 -0.2988  0.9285  0.0641
 7633TIP3    H144390   2.830   4.135   4.298 -0.5435  1.0344  0.1294
 7633TIP3    H244391   2.797   3.992   4.263 -0.2623  0.9990  0.0037
 7634TIP3   OH244392   4.722   4.566  13.535  0.1623  0.2311 -0.1166
 7634TIP3    H144393   4.630   4.590  13.522 -0.1489 -1.3870 -1.0801
 7634TIP3    H244394   4.761   4.571  13.448  0.7412 -0.1223  0.1180
 7635TIP3   OH244395   0.132   0.431  11.954 -0.1721 -0.5087  0.0886
 7635TIP3    H144396   0.049   0.383  11.955 -0.3627 -0.1961 -0.4757
 7635TIP3    H244397   0.199   0.363  11.959 -0.4180 -0.6860  4.1512
 7636TIP3   OH244398   5.317   4.345   1.451 -0.0707 -0.4817  0.4256
 7636TIP3    H144399   5.227   4.326   1.475 -0.0203 -2.3574 -0.6390
 7636TIP3    H244400   5.312   4.428   1.402 -1.3314 -0.9268 -0.2548
 7637TIP3   OH244401   1.152   3.954   4.431  0.0380  0.4385 -0.6469
 7637TIP3    H144402   1.172   3.931   4.522  1.7111 -0.5782 -1.2305
 7637TIP3    H244403   1.220   4.016   4.407 -1.5029  2.2085 -0.6775
 7638TIP3   OH244404   0.481   5.788   3.552 -0.2972 -0.3559  0.4654
 7638TIP3    H144405   0.393   5.751   3.540 -0.8115  0.8213  0.4025
 7638TIP3    H244406   0.522   5.781   3.466 -0.8899  0.4434  0.1064
 7639TIP3   OH244407   1.737   6.053   1.037 -0.0651  0.3637 -0.3118
 7639TIP3    H144408   1.766   5.972   1.078  1.7934  0.7611 -0.7705
 7639TIP3    H244409   1.645   6.038   1.017 -0.0628 -1.1851  0.6781
 7640TIP3   OH244410   5.163   5.781   3.367  0.3938  0.5292 -0.2075
 7640TIP3    H144411   5.088   5.837   3.389  0.0361 -0.4340  1.1089
 7640TIP3    H244412   5.233   5.810   3.426 -0.0449 -0.9085  1.0951
 7641TIP3   OH244413   3.745   3.614   0.616  0.3713  0.4580 -0.1977
 7641TIP3    H144414   3.825   3.666   0.619  0.0092  0.9899  0.6350
 7641TIP3    H244415   3.695   3.650   0.543 -1.7730  4.2368  2.7838
 7642TIP3   OH244416   1.696   5.697  14.046 -0.4335  0.4340  0.4295
 7642TIP3    H144417   1.736   5.615  14.018 -2.2598  0.1680 -1.6669
 7642TIP3    H244418   1.766   5.762  14.039  0.0737 -0.2731 -1.6288
 7643TIP3   OH244419   5.515   0.960   4.625 -0.5145  0.4925  0.4656
 7643TIP3    H144420   5.523   1.053   4.605  1.6791 -0.2039 -2.5705
 7643TIP3    H244421   5.605   0.932   4.643 -0.7202 -1.4943 -1.2709
 7644TIP3   OH244422   1.901   0.995   2.173  0.1658  0.2672  0.4665
 7644TIP3    H144423   1.879   0.993   2.079  0.1638  1.2149  0.4401
 7644TIP3    H244424   1.854   1.071   2.207  0.7864  0.3847  1.0857
 7645TIP3   OH244425   6.754   4.749  14.381 -0.1440  0.2440 -0.2533
 7645TIP3    H144426   6.755   4.654  14.365 -1.4005  0.4897 -2.1317
 7645TIP3    H244427   6.838   4.779  14.346  0.4601 -0.2184  0.7683
 7646TIP3   OH244428   0.181   3.385   6.378  0.2537 -0.5481  0.6508
 7646TIP3    H144429   0.239   3.313   6.355  0.8580  0.4994 -1.3726
 7646TIP3    H244430   0.238   3.448   6.423  0.3140 -0.2332  0.1360
 7647TIP3   OH244431   5.994   1.852  11.410  0.0237  0.3625 -0.2406
 7647TIP3    H144432   6.069   1.797  11.431 -0.8481 -1.1187 -0.8648
 7647TIP3    H244433   5.975   1.834  11.318 -0.8925  0.9506 -0.1820
 7648TIP3   OH244434   6.364   6.177  11.711 -0.1684  0.5363  0.0179
 7648TIP3    H144435   6.282   6.167  11.761 -0.8011  2.8044 -0.4836
 7648TIP3    H244436   6.343   6.143  11.624 -0.1733 -0.0683  0.2506
 7649TIP3   OH244437   5.070   4.080  12.645 -0.1808 -0.0063  0.3577
 7649TIP3    H144438   4.996   4.022  12.666  0.4091 -1.6124 -1.6887
 7649TIP3    H244439   5.122   4.031  12.582  0.0326  3.0141 -2.0214
 7650TIP3   OH244440   0.966   0.382   2.151  0.2851 -0.2188 -0.6763
 7650TIP3    H144441   1.029   0.363   2.082 -0.0465  0.7079 -1.2618
 7650TIP3    H244442   0.906   0.307   2.151  0.7959 -0.6287 -0.7957
 7651TIP3   OH244443   3.212   3.990  13.228 -0.3582 -0.4526 -0.1068
 7651TIP3    H144444   3.183   4.068  13.275  0.1886 -0.3397  0.0554
 7651TIP3    H244445   3.147   3.977  13.159 -0.7186 -0.1394  0.1696
 7652TIP3   OH244446   6.093   5.597  14.400 -0.2369  0.4789 -0.1928
 7652TIP3    H144447   6.042   5.522  14.368 -1.5454  0.5881  1.5035
 7652TIP3    H244448   6.105   5.580  14.493 -1.8105  3.0065  0.5761
 7653TIP3   OH244449   3.568   2.266  14.812 -0.3231  0.2638  0.1299
 7653TIP3    H144450   3.581   2.172  14.803 -1.4211  0.0433  0.6298
 7653TIP3    H244451   3.529   2.277  14.899 -2.5026  0.8907 -0.8453
 7654TIP3   OH244452   2.576   1.360   2.693 -0.0979 -0.0435  0.1095
 7654TIP3    H144453   2.518   1.418   2.742  0.0109 -0.5185  0.8051
 7654TIP3    H244454   2.535   1.274   2.699  0.7157 -0.4064  0.6926
 7655TIP3   OH244455   2.164   2.235   4.632  0.0067  0.0719 -0.0419
 7655TIP3    H144456   2.247   2.203   4.596  0.3118 -0.9196  1.4508
 7655TIP3    H244457   2.101   2.165   4.615 -0.1889  0.2188  0.0599
 7656TIP3   OH244458   1.898   3.488  16.182 -0.5390 -0.1708 -0.2958
 7656TIP3    H144459   1.963   3.518  16.118 -2.0642  0.4645 -1.6205
 7656TIP3    H244460   1.891   3.560  16.245  1.3966 -1.0361  1.0184
 7657TIP3   OH244461   3.163   6.208   0.433  0.1736  0.5035  0.2241
 7657TIP3    H144462   3.116   6.128   0.457 -0.3890  1.6243  3.3524
 7657TIP3    H244463   3.131   6.230   0.346 -0.6949 -1.8927 -0.1380
 7658TIP3   OH244464   2.046   5.542   3.381 -0.1317 -0.1016  0.4288
 7658TIP3    H144465   2.022   5.450   3.376 -0.0758 -0.2345  2.0639
 7658TIP3    H244466   1.967   5.590   3.357 -0.4092 -0.5611  0.4300
 7659TIP3   OH244467   4.652   5.519   3.533 -0.5831  0.1742 -0.5234
 7659TIP3    H144468   4.720   5.566   3.484  1.8847 -1.2267  1.2894
 7659TIP3    H244469   4.692   5.435   3.554 -2.5236 -0.3164  1.5741
 7660TIP3   OH244470   4.879   4.409  12.881 -0.1753 -0.7090  0.0039
 7660TIP3    H144471   4.972   4.390  12.868 -0.5008 -1.2544 -1.8078
 7660TIP3    H244472   4.862   4.487  12.829 -0.8369 -0.8847 -0.0536
 7661TIP3   OH244473   4.027   3.885  11.552  0.2167  0.1610  0.5288
 7661TIP3    H144474   4.099   3.831  11.583 -1.0350 -0.8357  1.8432
 7661TIP3    H244475   3.996   3.840  11.473  1.3758  0.9395 -0.4128
 7662TIP3   OH244476   3.126   3.152  12.825 -0.0840  0.1182 -0.5627
 7662TIP3    H144477   3.078   3.069  12.830 -1.2078  0.6934 -1.3715
 7662TIP3    H244478   3.190   3.147  12.896 -0.5224 -1.1969 -0.2298
 7663TIP3   OH244479   2.536   1.184  16.503  0.4295 -0.1896 -0.4062
 7663TIP3    H144480   2.603   1.237  16.461  0.8275 -1.8545 -2.0225
 7663TIP3    H244481   2.454   1.228  16.483  0.6398 -0.7153 -2.7469
 7664TIP3   OH244482   3.688   3.838  13.232  0.4370 -0.2632 -0.0386
 7664TIP3    H144483   3.748   3.905  13.200  0.1644  1.0784  2.0503
 7664TIP3    H244484   3.620   3.887  13.279 -0.4017 -1.9461  0.5998
 7665TIP3   OH244485   6.032   1.223  16.751  0.4244  0.5443 -0.5479
 7665TIP3    H144486   6.115   1.232  16.797 -1.1995  3.0140  2.2794
 7665TIP3    H244487   6.028   1.298  16.693 -0.3034  1.1677  0.2768
 7666TIP3   OH244488   2.646   2.025   0.602  0.1836  0.0503  0.1608
 7666TIP3    H144489   2.710   2.012   0.672  1.1150  1.6029 -0.3728
 7666TIP3    H244490   2.698   2.052   0.526 -0.7242 -2.1356 -1.3720
 7667TIP3   OH244491   3.910   1.411   6.519 -0.5293 -0.7508  0.0223
 7667TIP3    H144492   3.854   1.347   6.476 -0.0611 -1.5576  0.5795
 7667TIP3    H244493   3.868   1.495   6.502 -2.3240 -1.3870  1.0300
 7668TIP3   OH244494   1.700   5.469  11.392  0.0922  0.1976  0.2090
 7668TIP3    H144495   1.681   5.411  11.318  0.4320 -0.4272  0.6040
 7668TIP3    H244496   1.794   5.484  11.388  0.5126 -1.6529  1.7935
 7669TIP3   OH244497   5.449   5.067  16.999 -0.0047  0.1353 -0.7673
 7669TIP3    H144498   5.376   5.004  16.999  1.5746 -1.7995 -1.4803
 7669TIP3    H244499   5.482   5.065  17.088  1.4353 -1.8460 -1.2827
 7670TIP3   OH244500   4.554   0.315   6.680  0.1751  0.4912  0.1124
 7670TIP3    H144501   4.560   0.221   6.697  2.6381  0.2456 -1.5475
 7670TIP3    H244502   4.462   0.329   6.657  0.3617 -2.2497 -3.0322
 7671TIP3   OH244503   3.003   1.683   5.908  0.3097  0.2244  0.6367
 7671TIP3    H144504   2.999   1.735   5.828  0.1467  0.8673  1.0598
 7671TIP3    H244505   3.088   1.639   5.904 -0.1284 -0.5787 -0.3972
 7672TIP3   OH244506   0.829   0.227  15.474  0.1699 -0.6601 -0.6962
 7672TIP3    H144507   0.913   0.221  15.429  1.2744  0.1281  1.1377
 7672TIP3    H244508   0.848   0.277  15.553 -2.2057  0.2470 -0.6193
 7673TIP3   OH244509   0.634   2.186   2.441 -0.0549  0.0695 -0.8434
 7673TIP3    H144510   0.603   2.210   2.529 -1.6857 -1.1498 -1.0519
 7673TIP3    H244511   0.729   2.184   2.450 -0.2084 -1.2002  1.2396
 7674TIP3   OH244512   6.525   4.777  13.660 -0.6206 -0.2943  0.3071
 7674TIP3    H144513   6.592   4.775  13.728 -0.2527 -0.6423 -0.0612
 7674TIP3    H244514   6.445   4.750  13.705 -0.5704  0.3807  0.8063
 7675TIP3   OH244515   6.013   4.331  16.199  0.1764 -0.0972  0.3608
 7675TIP3    H144516   6.070   4.379  16.140 -0.9113 -0.0306 -0.6654
 7675TIP3    H244517   5.934   4.384  16.205 -0.5686 -1.1557  0.1664
 7676TIP3   OH244518   3.240   1.987  12.775  0.7851  0.1307  0.4417
 7676TIP3    H144519   3.329   2.021  12.782  1.2000 -0.7648 -0.2444
 7676TIP3    H244520   3.230   1.929  12.851  0.9468 -0.1201  0.2711
 7677TIP3   OH244521   0.988   0.521  15.473  0.1053 -0.2342 -0.5409
 7677TIP3    H144522   1.018   0.466  15.401  1.0882 -0.8050  0.2857
 7677TIP3    H244523   0.896   0.541  15.452 -0.1678 -1.9070 -1.0144
 7678TIP3   OH244524   1.539   2.326   3.888  0.3260  0.2412 -0.6970
 7678TIP3    H144525   1.513   2.403   3.939 -1.7227  0.1863 -1.5485
 7678TIP3    H244526   1.609   2.286   3.939 -0.5482  1.0651  1.2744
 7679TIP3   OH244527   5.214   1.214   4.397  0.0060 -0.0239  0.8910
 7679TIP3    H144528   5.127   1.209   4.438 -0.8814 -3.5158 -1.0563
 7679TIP3    H244529   5.213   1.299   4.352 -2.2167  0.2372  1.2872
 7680TIP3   OH244530   3.359   4.891  16.790  0.0339 -0.1499  0.2463
 7680TIP3    H144531   3.275   4.904  16.746  0.3000  1.5333  0.1688
 7680TIP3    H244532   3.339   4.899  16.883  0.1013  0.1567  0.2331
 7681TIP3   OH244533   4.580   4.425  13.917 -0.6488 -0.3617 -0.1987
 7681TIP3    H144534   4.658   4.471  13.950 -1.3121  1.3628 -0.9097
 7681TIP3    H244535   4.507   4.464  13.965 -1.0975 -2.2073  0.7170
 7682TIP3   OH244536   5.803   2.684  11.483 -0.6299 -0.9854 -0.6418
 7682TIP3    H144537   5.711   2.713  11.481 -0.0446  1.0625 -1.3639
 7682TIP3    H244538   5.800   2.593  11.453 -2.5197 -1.3584  0.4788
 7683TIP3   OH244539   5.849   6.000   4.708  0.5724 -0.4493  0.2329
 7683TIP3    H144540   5.914   5.966   4.769 -1.6138 -0.3722  2.8310
 7683TIP3    H244541   5.772   5.944   4.722 -0.1474 -0.1755 -2.2444
 7684TIP3   OH244542   2.348   2.066   4.240  0.1301  0.0976  0.2108
 7684TIP3    H144543   2.344   2.003   4.312  1.9291 -0.5701 -0.2293
 7684TIP3    H244544   2.415   2.129   4.266 -0.4365  0.8667 -0.1327
 7685TIP3   OH244545   5.334   6.656   0.157  0.2908  0.1677  0.0906
 7685TIP3    H144546   5.284   6.631   0.080 -1.0118  1.8105  0.3653
 7685TIP3    H244547   5.415   6.693   0.122  0.0856  0.0979 -0.4650
 7686TIP3   OH244548   2.857   6.584  11.401  0.0173  0.1137 -0.2426
 7686TIP3    H144549   2.835   6.571  11.493  0.1546 -0.4106 -0.2767
 7686TIP3    H244550   2.945   6.621  11.402 -0.8957  2.4515 -0.0997
 7687TIP3   OH244551   3.382   0.617   0.994 -0.0017  0.1495 -0.0053
 7687TIP3    H144552   3.474   0.611   0.969  0.0325 -0.7380  0.3137
 7687TIP3    H244553   3.353   0.700   0.956  0.6888  0.0149 -0.8632
 7688TIP3   OH244554   3.279   4.254   4.346 -0.2901 -1.0183 -0.0466
 7688TIP3    H144555   3.230   4.227   4.423 -0.4983 -1.5391 -0.3575
 7688TIP3    H244556   3.311   4.342   4.368 -0.1158 -1.2628  0.7376
 7689TIP3   OH244557   1.804   2.486  16.840 -0.3141 -0.1613  0.5655
 7689TIP3    H144558   1.822   2.506  16.932  0.0905  1.0913  0.2383
 7689TIP3    H244559   1.781   2.570  16.801 -1.3954 -0.8296 -0.2856
 7690TIP3   OH244560   5.843   1.547   4.937 -0.4060  0.3675 -0.1823
 7690TIP3    H144561   5.889   1.500   5.006 -0.6243 -0.3544 -0.5139
 7690TIP3    H244562   5.815   1.629   4.978  2.6693  1.6631 -0.4442
 7691TIP3   OH244563   0.005   0.404  13.601 -0.7595 -0.0168 -0.2841
 7691TIP3    H144564   0.040   0.345  13.667  2.1529  0.5746 -1.1454
 7691TIP3    H244565  -0.001   0.489  13.646 -0.3045  0.0357 -0.3113
 7692TIP3   OH244566   1.182   1.947   0.432  0.0449  0.0471  0.2898
 7692TIP3    H144567   1.113   1.970   0.494  1.2295  1.3212  1.1910
 7692TIP3    H244568   1.261   1.941   0.486  1.0572  0.9042 -1.0373
 7693TIP3   OH244569   0.663   5.788  16.447  0.2092  0.6036  0.5171
 7693TIP3    H144570   0.725   5.744  16.389 -0.0674  0.3969  0.3714
 7693TIP3    H244571   0.659   5.878  16.415  1.3864  0.9550  1.3207
 7694TIP3   OH244572   4.485   1.750  15.331  0.3537  0.0795  0.2840
 7694TIP3    H144573   4.520   1.737  15.419  0.0196 -0.5877  0.3247
 7694TIP3    H244574   4.511   1.672  15.283 -0.7616 -0.2661  0.2144
 7695TIP3   OH244575   1.567   1.696  13.026 -0.0480  0.0269  0.1708
 7695TIP3    H144576   1.644   1.640  13.017 -0.7861 -1.2569  1.3110
 7695TIP3    H244577   1.564   1.719  13.119 -0.2241  1.3087 -0.1332
 7696TIP3   OH244578   0.134   2.198   6.021  0.7376 -0.9646 -0.1196
 7696TIP3    H144579   0.092   2.187   5.935  0.3447 -0.4033 -0.0063
 7696TIP3    H244580   0.075   2.155   6.082  1.7522 -2.6679 -0.2950
 7697TIP3   OH244581   2.967   2.671  12.133  0.0848 -0.2473  0.2832
 7697TIP3    H144582   2.902   2.698  12.198  0.2911  0.2554  0.2921
 7697TIP3    H244583   2.918   2.620  12.069  0.0782 -1.6941  1.4017
 7698TIP3   OH244584   1.271   0.522  11.134 -0.0517  0.0687 -0.3100
 7698TIP3    H144585   1.231   0.478  11.060 -1.1029  0.3062  0.1092
 7698TIP3    H244586   1.199   0.543  11.193  0.9223 -1.6515  1.6211
 7699TIP3   OH244587   0.423   2.525  10.950  0.2072  0.5009 -0.2555
 7699TIP3    H144588   0.381   2.584  10.887 -0.7482  0.5929  0.4415
 7699TIP3    H244589   0.429   2.442  10.903  0.7825  0.9234 -0.9484
 7700TIP3   OH244590   2.658   4.161  11.622  0.0720  0.1635 -0.0737
 7700TIP3    H144591   2.713   4.237  11.606 -0.9492  0.7812 -0.7508
 7700TIP3    H244592   2.606   4.184  11.699 -0.6010  0.3787 -0.5782
 7701TIP3   OH244593   5.668   4.075   3.415 -0.0301 -0.5644 -0.3017
 7701TIP3    H144594   5.678   3.980   3.405 -0.1898 -0.5674 -0.4364
 7701TIP3    H244595   5.613   4.102   3.342  1.5054 -0.0933 -1.3288
 7702TIP3   OH244596   4.594   3.363   1.823  0.3997 -0.3727 -0.4483
 7702TIP3    H144597   4.571   3.384   1.914 -1.3927  0.9945 -1.1575
 7702TIP3    H244598   4.625   3.272   1.826  0.1800 -0.4223  1.4812
 7703TIP3   OH244599   2.464   4.725  12.713  0.0885  0.0170  0.0554
 7703TIP3    H144600   2.557   4.748  12.709  0.4868 -1.3351  1.1199
 7703TIP3    H244601   2.462   4.630  12.714 -1.2654  0.0230  0.8931
 7704TIP3   OH244602   5.122   6.163   5.144  0.0191  0.0721  0.3378
 7704TIP3    H144603   5.112   6.199   5.056 -1.2791 -1.5573 -0.2453
 7704TIP3    H244604   5.034   6.166   5.182  0.2741 -0.5723  1.0234
 7705TIP3   OH244605   0.414   6.013  13.072 -0.0759  0.1706 -0.4466
 7705TIP3    H144606   0.360   6.072  13.125 -0.4100  0.4713 -1.0976
 7705TIP3    H244607   0.498   6.057  13.065 -0.0508  0.1600 -0.2236
 7706TIP3   OH244608   4.671   2.499  16.991  0.1794 -0.0702  0.5117
 7706TIP3    H144609   4.698   2.537  17.074  0.8042 -1.4776  0.9791
 7706TIP3    H244610   4.622   2.569  16.948 -1.9997  0.0414  2.9488
 7707TIP3   OH244611   1.716   1.732  14.302 -0.0108  0.1394  0.1953
 7707TIP3    H144612   1.669   1.736  14.218  0.0239  1.8931  0.2236
 7707TIP3    H244613   1.681   1.805  14.353  0.4556 -0.4882  1.4648
 7708TIP3   OH244614   1.312   3.622  11.451  0.5035  0.1588  0.0728
 7708TIP3    H144615   1.300   3.676  11.373  1.4632  0.9512  0.4500
 7708TIP3    H244616   1.291   3.680  11.524  1.2534 -0.0617  0.4747
 7709TIP3   OH244617   4.910   0.500   0.210  0.0512  0.4075 -0.0634
 7709TIP3    H144618   4.884   0.586   0.244 -2.2106  0.2816 -1.2849
 7709TIP3    H244619   4.891   0.504   0.116  1.9513 -0.7486 -0.5676
 7710TIP3   OH244620   4.361   1.289   0.743  0.3509 -0.7264  0.2169
 7710TIP3    H144621   4.307   1.320   0.670  1.5459 -0.6104 -0.6519
 7710TIP3    H244622   4.305   1.227   0.790 -1.2338  0.8857  0.5542
 7711TIP3   OH244623   5.824   0.722   3.081 -0.0827 -0.4794 -0.6594
 7711TIP3    H144624   5.896   0.734   3.144 -0.8372  1.8475 -0.1428
 7711TIP3    H244625   5.868   0.710   2.997  0.9811  1.5276 -0.4679
 7712TIP3   OH244626   3.986   4.424   3.753 -0.2984 -0.8038 -0.2209
 7712TIP3    H144627   3.933   4.389   3.681  0.0012 -1.7468  0.0002
 7712TIP3    H244628   4.042   4.490   3.712 -2.6900  1.3857 -0.1964
 7713TIP3   OH244629   5.600   1.153  16.409 -0.2019  0.0734 -0.5870
 7713TIP3    H144630   5.579   1.117  16.495  0.0887  1.9015  0.2977
 7713TIP3    H244631   5.644   1.082  16.363  0.3718 -0.6907  1.0733
 7714TIP3   OH244632   0.324   4.778   1.103 -0.2575 -0.1493  0.3895
 7714TIP3    H144633   0.365   4.742   1.024  0.6593  0.1991  0.6889
 7714TIP3    H244634   0.378   4.853   1.126 -1.5496  0.8177  0.3640
 7715TIP3   OH244635   2.821   2.661  12.532  0.4274  0.6527  0.5480
 7715TIP3    H144636   2.792   2.579  12.573 -0.6538  1.0556  0.6236
 7715TIP3    H244637   2.902   2.683  12.578 -0.1906  0.5303  1.7426
 7716TIP3   OH244638   3.810   3.251  12.414  0.3229  0.2361  0.0946
 7716TIP3    H144639   3.841   3.161  12.418  1.0201  0.4877  0.3464
 7716TIP3    H244640   3.872   3.295  12.356 -0.2638  0.4594 -0.3770
 7717TIP3   OH244641   0.488   5.464  11.696 -0.4934 -0.2799  0.2848
 7717TIP3    H144642   0.393   5.462  11.703 -0.5385  0.4832  0.0150
 7717TIP3    H244643   0.504   5.509  11.612  0.1133  2.1909  1.6223
 7718TIP3   OH244644   4.750   3.681   0.426  0.0502  0.1387 -0.4708
 7718TIP3    H144645   4.831   3.629   0.418  0.3782  0.3499  1.1856
 7718TIP3    H244646   4.760   3.751   0.362  1.4236  0.4425  0.0378
 7719TIP3   OH244647   2.686   0.131   5.361  0.4194 -0.2602 -0.2188
 7719TIP3    H144648   2.765   0.133   5.414  0.0498  0.0645  0.3291
 7719TIP3    H244649   2.619   0.173   5.415 -0.6749 -2.4150  0.2269
 7720TIP3   OH244650   0.273   5.058  15.751  0.5094 -1.1130  0.2141
 7720TIP3    H144651   0.274   4.969  15.788  1.3325 -0.6853  1.2636
 7720TIP3    H244652   0.184   5.067  15.715  0.1368 -2.0644  0.8316
 7721TIP3   OH244653   1.388   1.111  14.578 -0.7224  0.2591 -0.6354
 7721TIP3    H144654   1.479   1.129  14.604 -0.6841 -0.9827  0.1383
 7721TIP3    H244655   1.387   1.128  14.484  0.8067 -1.5214 -1.0270
 7722TIP3   OH244656   0.923   5.613   5.632 -0.0422 -0.4311 -0.1036
 7722TIP3    H144657   1.005   5.662   5.626 -1.2970  1.8825  0.5596
 7722TIP3    H244658   0.943   5.539   5.690  1.9362 -0.8038 -1.1868
 7723TIP3   OH244659   4.918   3.604   4.426 -0.0094  0.0601  0.0302
 7723TIP3    H144660   4.873   3.658   4.362  0.3425  1.4404  0.9134
 7723TIP3    H244661   4.850   3.546   4.460 -0.7585  0.9962  0.1726
 7724TIP3   OH244662   2.481   5.423   1.301 -0.4448 -0.2901  1.1808
 7724TIP3    H144663   2.470   5.389   1.390 -0.0814 -3.0681  0.2785
 7724TIP3    H244664   2.406   5.388   1.253 -1.1168  1.9123  0.5308
 7725TIP3   OH244665   6.004   6.769  11.775  0.5341  0.1170 -0.3720
 7725TIP3    H144666   5.973   6.775  11.866 -0.2765  0.5685 -0.6717
 7725TIP3    H244667   6.082   6.714  11.781 -1.0046 -2.1525  0.2464
 7726TIP3   OH244668   2.436   3.037  13.772  0.0340 -0.0732 -0.0062
 7726TIP3    H144669   2.518   3.087  13.765  0.2305 -0.4703 -0.5770
 7726TIP3    H244670   2.451   2.976  13.844 -0.2058  0.6697  0.6959
 7727TIP3   OH244671   5.123   1.786   0.855  0.7113 -0.3202 -0.2013
 7727TIP3    H144672   5.034   1.753   0.848  0.0915  1.6384 -3.5315
 7727TIP3    H244673   5.119   1.850   0.926 -0.4858 -0.4472 -0.1359
 7728TIP3   OH244674   0.260   6.405  12.778 -0.2400 -0.8358 -0.5463
 7728TIP3    H144675   0.210   6.349  12.718 -0.5693 -0.4020 -0.6828
 7728TIP3    H244676   0.195   6.465  12.815 -0.1609 -1.5073  0.7373
 7729TIP3   OH244677   0.768   3.350   2.008  0.1786  0.1501  0.4145
 7729TIP3    H144678   0.773   3.403   2.087  0.8996  1.9146 -0.7503
 7729TIP3    H244679   0.753   3.413   1.938 -1.6241 -1.4715 -0.7534
 7730TIP3   OH244680   4.912   2.324  15.381 -0.0235  0.0240  0.4345
 7730TIP3    H144681   4.817   2.322  15.370  0.0372 -2.1233 -0.0810
 7730TIP3    H244682   4.941   2.234  15.365  2.1077  0.6099  0.5843
 7731TIP3   OH244683   4.132   0.135  12.309  0.0434  0.1173 -0.0785
 7731TIP3    H144684   4.114   0.205  12.372  1.0194 -1.3278  1.9309
 7731TIP3    H244685   4.050   0.126  12.259 -1.1635  0.6770  1.6758
 7732TIP3   OH244686   0.350   5.309  13.344  0.0920  0.6383  0.0443
 7732TIP3    H144687   0.350   5.400  13.314 -1.4496 -0.1062 -2.5116
 7732TIP3    H244688   0.258   5.283  13.345  0.5987 -1.5480 -1.6488
 7733TIP3   OH244689   5.534   3.189  11.021 -0.1688 -0.3340  0.2908
 7733TIP3    H144690   5.504   3.269  10.978 -0.3365 -1.6929 -2.3198
 7733TIP3    H244691   5.457   3.156  11.066 -0.4930  0.2349  0.1615
 7734TIP3   OH244692   0.151   1.316   2.174 -0.0944 -0.7014  0.5165
 7734TIP3    H144693   0.204   1.348   2.101  0.5760  2.8960  2.3234
 7734TIP3    H244694   0.183   1.228   2.190  1.4098 -0.7084 -1.9747
 7735TIP3   OH244695   3.340   2.211  13.266 -0.3356 -0.2092 -0.6384
 7735TIP3    H144696   3.363   2.139  13.324 -1.0700  0.7259  0.8809
 7735TIP3    H244697   3.280   2.173  13.202  0.0615 -1.1430 -0.4730
 7736TIP3   OH244698   0.809   5.146  12.406 -0.5866  0.3286  0.3237
 7736TIP3    H144699   0.779   5.232  12.435 -1.4903 -0.0333  0.5029
 7736TIP3    H244700   0.889   5.164  12.356  0.2114  1.0929  1.8142
 7737TIP3   OH244701   2.094   6.638   3.652 -0.0479  0.4769  0.0376
 7737TIP3    H144702   2.027   6.676   3.595 -1.0771 -2.0370 -0.5574
 7737TIP3    H244703   2.051   6.563   3.693  1.5520  0.4989  1.9337
 7738TIP3   OH244704   4.428   5.343  11.075  0.5011  0.2123 -0.1913
 7738TIP3    H144705   4.387   5.261  11.047  0.4488  0.5057 -1.0152
 7738TIP3    H244706   4.498   5.357  11.012  0.4035  0.8787 -0.1533
 7739TIP3   OH244707   2.657   5.919  16.403  0.2615 -0.3815 -0.2012
 7739TIP3    H144708   2.731   5.900  16.461 -0.5360 -0.8917  0.6596
 7739TIP3    H244709   2.674   5.867  16.324 -0.7459 -3.0434  1.2252
 7740TIP3   OH244710   1.166   1.227  13.735 -0.0382  0.4177  0.1440
 7740TIP3    H144711   1.219   1.255  13.810  0.8793 -2.4713  0.7243
 7740TIP3    H244712   1.082   1.270  13.747  0.5768  1.1971  2.0226
 7741TIP3   OH244713   1.929   3.463   9.869  0.1764 -0.0422  0.2463
 7741TIP3    H144714   1.855   3.492   9.922  0.3889  2.7575 -0.8352
 7741TIP3    H244715   2.004   3.467   9.929 -0.1605 -0.5302  0.7037
 7742TIP3   OH244716   4.249   4.077   3.635  0.0274  0.6009 -0.3771
 7742TIP3    H144717   4.163   4.057   3.673  0.9357 -2.1812  0.4168
 7742TIP3    H244718   4.278   4.156   3.680 -0.6160 -0.4238  1.9757
 7743TIP3   OH244719   1.048   6.802   2.063 -0.0449 -0.7612  0.1192
 7743TIP3    H144720   1.018   6.711   2.064  1.2074 -1.2138 -0.4711
 7743TIP3    H244721   1.142   6.796   2.045  0.5254  0.5478  2.2642
 7744TIP3   OH244722   6.537   1.487   6.157 -0.6260 -0.0615  0.7514
 7744TIP3    H144723   6.538   1.487   6.253 -1.2586 -0.3928  0.7595
 7744TIP3    H244724   6.629   1.500   6.133 -0.1627 -1.8153  1.4129
 7745TIP3   OH244725   4.587   3.482  15.986 -0.0960  0.1793  0.1798
 7745TIP3    H144726   4.667   3.445  16.024 -1.1672  0.4296  2.8824
 7745TIP3    H244727   4.602   3.479  15.892  1.8755 -2.5574  0.4540
 7746TIP3   OH244728   3.607   2.069   2.488  0.3350  0.4247  0.3452
 7746TIP3    H144729   3.590   2.153   2.531 -1.4563 -0.8627  2.3717
 7746TIP3    H244730   3.670   2.025   2.546 -1.8886 -1.2132  1.6665
 7747TIP3   OH244731   2.074   3.237  15.656  0.1786  0.2586  0.4455
 7747TIP3    H144732   2.029   3.287  15.725  0.4524 -1.8731  2.3128
 7747TIP3    H244733   2.167   3.246  15.676  0.2263 -1.0757  0.9430
 7748TIP3   OH244734   4.772   0.222  17.012 -0.2590 -0.2847 -0.2148
 7748TIP3    H144735   4.715   0.232  16.936 -1.3743 -3.8503 -0.0444
 7748TIP3    H244736   4.715   0.238  17.088 -0.2616 -0.8664 -0.0895
 7749TIP3   OH244737   6.343   0.430   0.676 -0.3825  0.0817  0.3089
 7749TIP3    H144738   6.337   0.424   0.580 -0.7453  1.2855  0.2329
 7749TIP3    H244739   6.379   0.346   0.703  1.1915  0.2611 -1.0252
 7750TIP3   OH244740   3.573   4.908   6.145  0.6597 -0.5552 -0.2534
 7750TIP3    H144741   3.482   4.879   6.145  0.3961  0.2352  0.4694
 7750TIP3    H244742   3.607   4.878   6.230 -0.2546  3.0583  1.5712
 7751TIP3   OH244743   4.551   4.949   4.431 -0.4533  0.2411 -0.2844
 7751TIP3    H144744   4.629   4.973   4.381 -0.2666  1.3706  0.5298
 7751TIP3    H244745   4.478   4.964   4.371 -0.0777 -0.8079 -1.0466
 7752TIP3   OH244746   3.761   4.794   5.925  0.1764 -0.0436 -0.6329
 7752TIP3    H144747   3.800   4.807   6.011 -0.1127 -0.5217 -0.4256
 7752TIP3    H244748   3.835   4.779   5.866  0.3120 -4.5695  0.3323
 7753TIP3   OH244749   1.371   5.670   3.713 -0.5432  0.4922 -0.2347
 7753TIP3    H144750   1.278   5.692   3.724 -0.4002  0.9435  0.0829
 7753TIP3    H244751   1.418   5.738   3.762 -0.0745 -0.1921  0.2826
 7754TIP3   OH244752   3.141   4.908  10.869  0.7111  0.0368  0.4505
 7754TIP3    H144753   3.133   4.971  10.798  0.5924  1.1459  1.4131
 7754TIP3    H244754   3.127   4.822  10.828  1.3782  0.5885 -0.9738
 7755TIP3   OH244755   4.579   4.311   0.470 -0.1572 -0.2789  0.4212
 7755TIP3    H144756   4.533   4.258   0.405 -0.9288  1.3383 -0.3930
 7755TIP3    H244757   4.584   4.254   0.547 -0.5906 -1.6723 -0.5403
 7756TIP3   OH244758   4.148   6.370   4.572  0.4095  0.0557  0.1756
 7756TIP3    H144759   4.232   6.355   4.529  1.4985  2.2211  1.3546
 7756TIP3    H244760   4.147   6.308   4.645  0.0434 -1.3273 -0.9544
 7757TIP3   OH244761   2.314   3.644   0.186 -0.7899 -0.4103  0.1220
 7757TIP3    H144762   2.313   3.725   0.237  1.0880 -0.4370  0.2784
 7757TIP3    H244763   2.375   3.587   0.232 -2.1461 -1.9947  0.0713
 7758TIP3   OH244764   3.658   2.206   2.157 -0.2234 -0.2464  0.2280
 7758TIP3    H144765   3.735   2.245   2.115 -1.0318  0.0712 -1.0459
 7758TIP3    H244766   3.680   2.114   2.167  1.4755  0.3310  2.6953
 7759TIP3   OH244767   4.216   2.670  15.527  0.2661  0.1175 -0.0068
 7759TIP3    H144768   4.295   2.684  15.475 -0.4270 -0.8041 -1.3725
 7759TIP3    H244769   4.157   2.741  15.501 -0.1120 -0.3915 -0.5710
 7760TIP3   OH244770   2.029   1.145  15.290 -0.1286  0.2916 -0.2066
 7760TIP3    H144771   2.054   1.053  15.287  1.8360  0.6935  1.3848
 7760TIP3    H244772   1.937   1.146  15.264 -0.4162 -2.2061  0.4473
 7761TIP3   OH244773   1.146   4.879  13.645  0.4127 -0.2204  0.4218
 7761TIP3    H144774   1.121   4.787  13.632  0.6761 -0.4345  1.3296
 7761TIP3    H244775   1.216   4.875  13.709 -0.8109  0.7373  1.8819
 7762TIP3   OH244776   0.890   3.458   2.703 -0.3409  0.0833 -0.6585
 7762TIP3    H144777   0.809   3.411   2.682 -1.0897  0.8163  0.4915
 7762TIP3    H244778   0.862   3.533   2.756  0.9886  0.9199 -1.0625
 7763TIP3   OH244779   6.259   4.684   2.516 -0.3643  0.2593 -0.3014
 7763TIP3    H144780   6.173   4.692   2.475 -0.7247  2.3443  0.7467
 7763TIP3    H244781   6.321   4.703   2.445 -0.6864 -1.4141 -1.1018
 7764TIP3   OH244782   4.689   5.855  15.291 -0.1793 -0.0337 -0.7422
 7764TIP3    H144783   4.688   5.762  15.272 -0.0113 -0.3052  0.4835
 7764TIP3    H244784   4.600   5.885  15.269 -0.2424 -0.4799 -1.1134
 7765TIP3   OH244785   0.296   1.769   5.269 -0.4254 -0.3211 -0.5759
 7765TIP3    H144786   0.315   1.675   5.272  0.8040 -0.0741 -0.4418
 7765TIP3    H244787   0.287   1.793   5.362  2.0250  0.2166 -0.4170
 7766TIP3   OH244788   0.617   2.110  13.564  0.1197 -0.6210 -0.1902
 7766TIP3    H144789   0.702   2.142  13.596 -0.7851  0.8806  0.7967
 7766TIP3    H244790   0.572   2.079  13.642 -1.2357  1.0004 -0.2811
 7767TIP3   OH244791   4.084   5.156  13.040 -0.2446  0.1866  0.1468
 7767TIP3    H144792   4.117   5.066  13.052 -1.4947 -0.1330  1.4556
 7767TIP3    H244793   4.146   5.211  13.087  0.3236 -0.0191 -0.3468
 7768TIP3   OH244794   6.749   5.145  14.749 -0.1374  0.0273 -0.1907
 7768TIP3    H144795   6.843   5.158  14.760 -0.1449  0.0586 -0.1623
 7768TIP3    H244796   6.709   5.211  14.806 -0.1760  0.3125 -0.5425
 7769TIP3   OH244797   6.691   0.690  11.926 -0.0522 -0.5187  0.2548
 7769TIP3    H144798   6.733   0.738  11.855 -0.3396  1.8797  1.6251
 7769TIP3    H244799   6.761   0.635  11.963  0.2849 -1.1948 -1.3213
 7770TIP3   OH244800   5.902   0.809   5.145  0.7501  0.4219 -0.1484
 7770TIP3    H144801   5.951   0.730   5.121  0.8077 -0.0119  1.2716
 7770TIP3    H244802   5.810   0.781   5.146  0.8196  0.1926  0.9388
 7771TIP3   OH244803   3.295   6.785  13.556  0.5308  0.1872  0.8655
 7771TIP3    H144804   3.361   6.829  13.502  0.7235 -1.5995 -0.4521
 7771TIP3    H244805   3.339   6.705  13.586 -1.1419 -1.3575 -0.5427
 7772TIP3   OH244806   0.230   3.591   3.462 -0.0134 -0.6695  0.0375
 7772TIP3    H144807   0.202   3.624   3.376  0.3242 -0.4531  0.0088
 7772TIP3    H244808   0.156   3.539   3.493 -0.6287  0.2471  0.1567
 7773TIP3   OH244809   5.125   4.213  11.468  0.1613  0.1028  0.3951
 7773TIP3    H144810   5.124   4.254  11.555  2.2273  0.5202  0.2654
 7773TIP3    H244811   5.174   4.274  11.413 -0.3419 -0.5820 -0.8480
 7774TIP3   OH244812   2.024   0.230   4.644 -0.0614  0.0436  0.1715
 7774TIP3    H144813   2.078   0.287   4.589 -1.0813  1.1852  0.3044
 7774TIP3    H244814   2.024   0.272   4.730 -0.3793 -0.4486  0.4161
 7775TIP3   OH244815   5.535   2.070  15.716 -0.5919 -0.5755 -0.2415
 7775TIP3    H144816   5.528   2.052  15.622 -2.7979 -0.4819 -0.1319
 7775TIP3    H244817   5.448   2.098  15.742  0.1214 -0.0447  1.7473
 7776TIP3   OH244818   1.401   2.497   2.345 -0.0197  0.1663  0.3867
 7776TIP3    H144819   1.320   2.499   2.294 -0.0615 -0.2714  0.4250
 7776TIP3    H244820   1.416   2.587   2.372 -0.8241  0.1592  0.8831
 7777TIP3   OH244821   6.554   3.319   6.220 -0.0593  0.3919 -0.1989
 7777TIP3    H144822   6.561   3.235   6.265 -0.4598  0.2020 -0.4869
 7777TIP3    H244823   6.620   3.374   6.262 -0.1120  0.0777  0.3058
 7778TIP3   OH244824   2.708   5.151   1.671  0.3688 -0.2021  0.0469
 7778TIP3    H144825   2.788   5.130   1.719  0.0757  0.1086  0.6761
 7778TIP3    H244826   2.666   5.066   1.657 -0.3032 -0.1591  1.6884
 7779TIP3   OH244827   3.672   6.015   1.894  0.2576 -0.4398  0.0059
 7779TIP3    H144828   3.700   5.936   1.939  0.3367 -0.1659  0.4416
 7779TIP3    H244829   3.623   6.064   1.960 -1.0133 -0.7787 -0.6467
 7780TIP3   OH244830   2.490   1.835  13.274  0.3168  0.0905  0.1983
 7780TIP3    H144831   2.429   1.790  13.333 -1.3705  0.0372 -1.4916
 7780TIP3    H244832   2.576   1.812  13.307 -0.5474 -0.1648  2.4631
 7781TIP3   OH244833   5.298   4.225   2.472 -0.3425  0.1076 -0.4328
 7781TIP3    H144834   5.384   4.221   2.515 -0.2553  0.4059 -0.5722
 7781TIP3    H244835   5.241   4.266   2.537 -0.6352 -1.0373  0.0531
 7782TIP3   OH244836   4.143   6.184  10.574  0.1300 -0.2046  0.7917
 7782TIP3    H144837   4.223   6.232  10.557 -1.4859  2.1399 -0.8496
 7782TIP3    H244838   4.130   6.130  10.496  0.1773 -0.7202  1.1324
 7783TIP3   OH244839   6.120   0.895  13.953 -0.3435 -0.1421 -0.1488
 7783TIP3    H144840   6.157   0.817  13.993  1.7436  1.0196  0.3421
 7783TIP3    H244841   6.155   0.968  14.005 -0.5204  1.2225 -1.8331
 7784TIP3   OH244842   0.475   3.740   2.351 -0.1120 -0.0180  0.1814
 7784TIP3    H144843   0.549   3.747   2.292  0.0010 -1.2998  0.1313
 7784TIP3    H244844   0.486   3.655   2.394 -0.0173  0.9932  2.3024
 7785TIP3   OH244845   1.844   2.143   3.787 -0.5584  0.0947 -0.1343
 7785TIP3    H144846   1.893   2.219   3.756 -0.9840 -0.0108 -1.0840
 7785TIP3    H244847   1.787   2.178   3.856 -0.0696  0.4469  0.1000
 7786TIP3   OH244848   5.705   5.909  12.179  0.3411  0.2058  0.2418
 7786TIP3    H144849   5.615   5.935  12.199 -0.4972 -1.6769 -0.8153
 7786TIP3    H244850   5.741   5.880  12.262 -0.3764  0.0346  0.5006
 7787TIP3   OH244851   1.766   3.919   5.130  0.1042  0.5849 -0.5382
 7787TIP3    H144852   1.776   3.977   5.205 -0.1300  1.5952 -1.2625
 7787TIP3    H244853   1.685   3.871   5.146 -0.0677  0.9679 -0.2567
 7788TIP3   OH244854   6.254   6.777   1.426  0.2396  0.2131  0.1188
 7788TIP3    H144855   6.225   6.700   1.474  1.2596  0.9245  1.9913
 7788TIP3    H244856   6.343   6.794   1.459  0.5169  1.4523 -1.1607
 7789TIP3   OH244857   5.052   4.573   1.501  0.1853  0.2962  0.3427
 7789TIP3    H144858   5.129   4.546   1.552 -0.6151 -0.0956  1.3779
 7789TIP3    H244859   5.081   4.651   1.454  0.4944  1.7265  2.7219
 7790TIP3   OH244860   6.176   2.906  13.429  0.0402  0.9431  0.3067
 7790TIP3    H144861   6.135   2.861  13.355 -0.5233  1.5249  0.2667
 7790TIP3    H244862   6.187   2.996  13.400 -0.5507  1.2675  1.0763
 7791TIP3   OH244863   5.398   3.776  10.145 -0.0648 -0.3462 -0.1270
 7791TIP3    H144864   5.448   3.707  10.101 -1.2029 -2.3645  1.5776
 7791TIP3    H244865   5.416   3.763  10.238  0.9530  2.7386  0.2288
 7792TIP3   OH244866   0.571   6.034  15.323  0.4017 -0.3082  0.0588
 7792TIP3    H144867   0.559   6.008  15.415  1.3335  2.0651  0.9366
 7792TIP3    H244868   0.520   6.115  15.314  2.1434  0.7749 -0.8038
 7793TIP3   OH244869   4.916   5.992   4.129 -0.0519 -0.5819 -0.4921
 7793TIP3    H144870   4.891   6.037   4.209 -1.2708 -1.9132 -0.0782
 7793TIP3    H244871   4.869   6.040   4.060 -1.0149 -0.9357 -0.1076
 7794TIP3   OH244872   2.081   3.033   3.378  0.1481  0.0069  0.5608
 7794TIP3    H144873   2.116   2.945   3.361  0.8868  0.1397  1.3150
 7794TIP3    H244874   2.007   3.041   3.319  0.1603 -1.0762  0.3766
 7795TIP3   OH244875   5.551   5.392  12.748  0.5478 -0.6765  0.5174
 7795TIP3    H144876   5.593   5.398  12.834  0.7391  0.0220  0.3860
 7795TIP3    H244877   5.462   5.422  12.763  0.6004 -0.4891  0.4630
 7796TIP3   OH244878   3.250   4.493   3.218  0.1725  0.0488 -0.0839
 7796TIP3    H144879   3.283   4.530   3.300  0.7634 -0.3644 -0.1215
 7796TIP3    H244880   3.222   4.404   3.242  1.6874 -0.5987 -0.5915
 7797TIP3   OH244881   1.152   0.814  10.772  0.2923 -0.0833 -0.2370
 7797TIP3    H144882   1.158   0.737  10.715  0.4097  0.5169 -1.0570
 7797TIP3    H244883   1.059   0.833  10.779  0.2690 -0.2458 -0.1079
 7798TIP3   OH244884   5.165   5.749  12.473 -0.2683 -0.0779 -0.6064
 7798TIP3    H144885   5.239   5.777  12.527 -0.7975  1.8579 -0.8205
 7798TIP3    H244886   5.192   5.769  12.383 -0.1397 -1.5523 -0.9198
 7799TIP3   OH244887   5.027   6.011   1.428 -0.3238  0.3245 -0.5470
 7799TIP3    H144888   4.935   6.036   1.438 -0.3121  0.1543  0.0288
 7799TIP3    H244889   5.073   6.094   1.415 -0.3604  0.5812  0.7637
 7800TIP3   OH244890   3.078   6.494  15.510  0.4807  0.1491 -0.3139
 7800TIP3    H144891   3.075   6.399  15.520  0.9304  0.2071  0.4453
 7800TIP3    H244892   2.986   6.520  15.503  0.3676 -0.3723 -0.8972
 7801TIP3   OH244893   6.221   5.174  14.358 -0.4166  0.5570 -0.4894
 7801TIP3    H144894   6.221   5.177  14.262 -1.1786 -2.0545 -0.6448
 7801TIP3    H244895   6.313   5.162  14.381 -0.3393  0.2010 -0.9608
 7802TIP3   OH244896   1.975   5.318  13.344  0.0208  0.1763  0.1183
 7802TIP3    H144897   2.065   5.292  13.364 -1.0049 -2.3100  2.1209
 7802TIP3    H244898   1.973   5.329  13.249  1.8702 -2.3282 -0.3001
 7803TIP3   OH244899   4.448   1.071   3.875  0.4311  0.0952 -0.5323
 7803TIP3    H144900   4.492   0.989   3.895 -0.9507 -0.3263  1.0961
 7803TIP3    H244901   4.462   1.125   3.953  2.7093  2.1201 -2.1917
 7804TIP3   OH244902   5.586   4.320   3.048 -0.0841  0.6364 -0.0363
 7804TIP3    H144903   5.666   4.373   3.044 -0.5614  1.2995 -1.5523
 7804TIP3    H244904   5.598   4.255   2.979 -0.2352 -0.2034  0.7131
 7805TIP3   OH244905   0.032   2.606   1.595 -0.8429 -0.2509 -0.3094
 7805TIP3    H144906  -0.036   2.672   1.599 -0.5999 -0.0586  1.5017
 7805TIP3    H244907   0.113   2.654   1.615 -0.2451 -0.5940 -1.7798
 7806TIP3   OH244908   1.925   5.742  11.214  0.3140 -0.2432  0.6736
 7806TIP3    H144909   1.992   5.809  11.226  0.4517 -0.5056  1.3992
 7806TIP3    H244910   1.912   5.705  11.301 -1.7084  0.6968  0.8316
 7807TIP3   OH244911   5.124   3.700  11.599 -0.8486  0.1858  0.4844
 7807TIP3    H144912   5.109   3.777  11.544 -1.1279 -1.3184 -1.6598
 7807TIP3    H244913   5.109   3.626  11.541  1.0155 -1.5079  2.0243
 7808TIP3   OH244914   1.532   2.929   3.721  0.5842  0.2400 -0.2788
 7808TIP3    H144915   1.544   2.913   3.628  1.1569  0.3291 -0.2252
 7808TIP3    H244916   1.606   2.986   3.746 -1.8528  3.8845 -0.6573
 7809TIP3   OH244917   0.671   2.315   5.113 -0.0135 -0.1571  0.3720
 7809TIP3    H144918   0.756   2.270   5.116  0.4008  0.4086 -1.7114
 7809TIP3    H244919   0.613   2.252   5.071 -0.6330 -0.5012  1.7003
 7810TIP3   OH244920   5.147   3.544  14.270 -0.0916 -0.2769  0.0853
 7810TIP3    H144921   5.141   3.634  14.304 -0.6219 -0.6181  0.9353
 7810TIP3    H244922   5.062   3.530  14.228  0.1669 -0.2251 -0.4580
 7811TIP3   OH244923   5.494   0.131  15.334  0.4639  0.3730  0.6022
 7811TIP3    H144924   5.509   0.076  15.410 -0.3273  0.3215  0.7201
 7811TIP3    H244925   5.518   0.219  15.363  1.2333  0.1814  0.5671
 7812TIP3   OH244926   6.075   6.748  13.033 -0.2202  0.1531  0.5627
 7812TIP3    H144927   6.040   6.836  13.049  0.8204  0.7986 -0.5264
 7812TIP3    H244928   6.166   6.752  13.061 -0.3593 -0.8340  1.2307
 7813TIP3   OH244929   4.968   2.230  17.016 -0.9320 -0.0985 -0.5777
 7813TIP3    H144930   4.881   2.243  16.978  0.6419  1.2426 -4.1743
 7813TIP3    H244931   4.981   2.307  17.072 -1.2440  0.9527 -1.8792
 7814TIP3   OH244932   4.263   0.117  13.779 -0.0468  0.3476  0.4852
 7814TIP3    H144933   4.341   0.068  13.805  1.7352  2.5776 -0.2775
 7814TIP3    H244934   4.240   0.081  13.693  3.4981  2.9475 -1.8879
 7815TIP3   OH244935   5.909   4.583  15.370 -0.0312  0.2007 -0.5738
 7815TIP3    H144936   5.957   4.542  15.298  0.2227  0.2542 -0.4368
 7815TIP3    H244937   5.884   4.669  15.336 -1.2959 -0.3730 -1.1627
 7816TIP3   OH244938   1.118   1.356   2.818  0.1659 -0.3883  0.4425
 7816TIP3    H144939   1.092   1.307   2.740  0.5465 -0.4388  0.3481
 7816TIP3    H244940   1.204   1.321   2.841 -0.0384 -0.5255  1.0094
 7817TIP3   OH244941   0.377   3.343  13.393  0.5850 -0.2066 -0.0627
 7817TIP3    H144942   0.411   3.364  13.307  0.9191 -1.2614 -0.2120
 7817TIP3    H244943   0.300   3.288  13.376 -1.5567  2.5105  0.2632
 7818TIP3   OH244944   4.597   1.735  15.591  0.4470 -0.5764  0.4491
 7818TIP3    H144945   4.661   1.669  15.617  1.1666  0.2892  0.9454
 7818TIP3    H244946   4.577   1.782  15.672  0.6487  0.4003 -0.0597
 7819TIP3   OH244947   6.024   2.028  16.146 -0.5886  0.0633  1.0534
 7819TIP3    H144948   6.115   1.999  16.150 -0.7495 -1.1906 -1.7898
 7819TIP3    H244949   6.029   2.119  16.117 -0.2440 -0.0966  0.6039
 7820TIP3   OH244950   1.971   3.984   1.193  0.0666 -0.1961 -0.1431
 7820TIP3    H144951   1.879   3.973   1.216 -0.1821 -0.3615 -1.1759
 7820TIP3    H244952   2.010   4.028   1.269 -1.1805  1.2571 -0.3170
 7821TIP3   OH244953   3.136   3.452  10.893  0.2076 -0.2595 -0.7382
 7821TIP3    H144954   3.047   3.465  10.862  0.4555  1.0207 -0.9460
 7821TIP3    H244955   3.182   3.533  10.870  0.8894 -0.0304  1.2727
 7822TIP3   OH244956   0.101   4.958  12.870  0.3927 -0.0420 -0.0257
 7822TIP3    H144957   0.158   4.945  12.794  0.9668 -2.2252  0.7148
 7822TIP3    H244958   0.073   4.870  12.895 -0.0733  0.6358  2.0660
 7823TIP3   OH244959   1.070   3.338   4.902  0.1122  0.1817 -0.3080
 7823TIP3    H144960   0.994   3.338   4.844  0.3399  0.5576 -0.6167
 7823TIP3    H244961   1.104   3.427   4.896 -0.2215  0.4099  0.8908
 7824TIP3   OH244962   3.487   1.942  14.347  0.3127  0.4091  0.0629
 7824TIP3    H144963   3.396   1.953  14.320  0.1627 -1.2252 -0.2137
 7824TIP3    H244964   3.538   1.976  14.274 -0.0840 -0.0399 -0.4334
 7825TIP3   OH244965   0.498   1.175   2.615 -0.0883 -0.2220  0.2034
 7825TIP3    H144966   0.407   1.196   2.593  0.5013  0.0699 -2.3002
 7825TIP3    H244967   0.518   1.097   2.562  1.5967  0.7313 -0.6416
 7826TIP3   OH244968   3.376   5.196  11.220  0.1925  0.3679  0.5005
 7826TIP3    H144969   3.449   5.242  11.179  0.3804  0.5362  1.0300
 7826TIP3    H244970   3.324   5.165  11.146 -1.3535  3.6142  0.0335
 7827TIP3   OH244971   5.728   1.988   0.727  0.2650  0.1748  0.1414
 7827TIP3    H144972   5.817   1.956   0.713  0.5922  1.0018  0.2717
 7827TIP3    H244973   5.703   2.026   0.643  0.8004  1.7279  0.6465
 7828TIP3   OH244974   4.485   1.245   4.989  0.4528 -0.1581  0.4642
 7828TIP3    H144975   4.428   1.231   5.065  0.4776 -1.7313  0.2199
 7828TIP3    H244976   4.476   1.339   4.970  0.0971  0.1790  2.1219
 7829TIP3   OH244977   2.073   4.744  14.036 -0.2494 -0.3554  0.0361
 7829TIP3    H144978   2.044   4.827  13.998 -0.1293  0.2114  1.1351
 7829TIP3    H244979   2.136   4.709  13.974 -1.0036 -0.0899 -0.8942
 7830TIP3   OH244980   1.531   6.019   3.694  0.5873  0.1341  0.0355
 7830TIP3    H144981   1.582   5.949   3.737  0.9150  1.1943  1.4401
 7830TIP3    H244982   1.574   6.031   3.610  1.8735  0.1098  0.6670
 7831TIP3   OH244983   6.077   6.474   1.159  0.1913 -0.2889 -0.7360
 7831TIP3    H144984   6.019   6.532   1.208  1.2676  1.1619 -1.1109
 7831TIP3    H244985   6.073   6.506   1.069  2.3987  0.6212 -0.5805
 7832TIP3   OH244986   4.091   2.163  15.768  0.4311  0.4240  0.6174
 7832TIP3    H144987   4.098   2.242  15.713  0.4017  0.9803  1.4012
 7832TIP3    H244988   4.168   2.111  15.745 -0.1391  0.1163 -0.7504
 7833TIP3   OH244989   2.787   5.508  10.831  0.3785 -0.7315  0.1452
 7833TIP3    H144990   2.876   5.538  10.849  0.5561 -1.3809  0.3878
 7833TIP3    H244991   2.744   5.507  10.916 -0.3413  1.0338 -0.1617
 7834TIP3   OH244992   4.419   5.653  14.848  0.1474 -0.2528  0.4088
 7834TIP3    H144993   4.347   5.709  14.820 -2.7218 -4.0870 -0.8161
 7834TIP3    H244994   4.498   5.705  14.834 -1.9863  2.4080 -3.3572
 7835TIP3   OH244995   4.854   2.117   0.835  0.4630 -0.8445  0.5338
 7835TIP3    H144996   4.829   2.124   0.927 -1.7676  1.2532 -0.1322
 7835TIP3    H244997   4.829   2.028   0.809 -0.4226 -0.9047  1.5411
 7836TIP3   OH244998   4.207   6.411  14.641  0.4161 -0.1187 -0.4295
 7836TIP3    H144999   4.202   6.490  14.696 -0.8161  0.4341 -1.2978
 7836TIP3    H245000   4.247   6.442  14.559  0.9814 -0.6486 -0.3605
 7837TIP3   OH245001   2.847   4.764  13.913 -0.0797 -0.2421 -0.2137
 7837TIP3    H145002   2.851   4.671  13.891 -0.4800  0.0685 -1.7078
 7837TIP3    H245003   2.774   4.798  13.861  1.2447  1.2862 -1.1758
 7838TIP3   OH245004   1.120   4.925  16.515 -0.1065 -0.3278  0.1035
 7838TIP3    H145005   1.048   4.954  16.572  0.2107  1.0573 -0.1559
 7838TIP3    H245006   1.185   4.889  16.575 -0.6097 -0.7223  0.4228
 7839TIP3   OH245007   6.216   0.498   3.376 -0.7910  0.0115 -0.2420
 7839TIP3    H145008   6.172   0.429   3.425 -1.6728  0.6016 -0.1910
 7839TIP3    H245009   6.291   0.522   3.431 -0.7288 -0.5903 -0.0578
 7840TIP3   OH245010   0.714   0.190   3.220 -0.6129 -0.3188  0.0240
 7840TIP3    H145011   0.625   0.226   3.225  0.0407  1.1764  1.6210
 7840TIP3    H245012   0.733   0.159   3.309  0.8387  0.3321 -0.0355
 7841TIP3   OH245013   5.040   5.511   1.477  0.6640  0.4032 -0.2677
 7841TIP3    H145014   5.012   5.544   1.392 -0.1634 -1.0944 -0.6132
 7841TIP3    H245015   5.085   5.429   1.457  0.5562  0.0897  0.7231
 7842TIP3   OH245016   0.469   1.972   1.023 -0.2148  0.1977 -0.3912
 7842TIP3    H145017   0.393   1.919   1.048  0.6903 -0.5447  0.9198
 7842TIP3    H245018   0.506   1.926   0.947 -2.1772  1.6953 -2.4081
 7843TIP3   OH245019   2.554   4.537  15.496 -0.1174 -0.5155  0.3588
 7843TIP3    H145020   2.642   4.510  15.469 -0.3177 -0.0866 -0.7719
 7843TIP3    H245021   2.498   4.513  15.422 -0.9691 -0.8429  1.0960
 7844TIP3   OH245022   3.425   5.369   3.383 -0.3931 -0.0244 -0.1520
 7844TIP3    H145023   3.458   5.433   3.447 -0.1451 -0.6243  0.3267
 7844TIP3    H245024   3.476   5.386   3.304  1.7366 -1.4703  0.8128
 7845TIP3   OH245025   5.225   3.865  15.364 -0.1895  0.2163  0.5676
 7845TIP3    H145026   5.272   3.891  15.443  0.9673  1.6849 -0.5321
 7845TIP3    H245027   5.172   3.790  15.391 -0.5293  1.2147  2.9275
 7846TIP3   OH245028   6.057   2.278   2.687  0.0528  0.1578  0.3725
 7846TIP3    H145029   6.084   2.228   2.764  1.0928  1.4738  0.8907
 7846TIP3    H245030   6.013   2.214   2.631 -0.1622 -0.9545  1.7702
 7847TIP3   OH245031   6.462   0.846  14.514  0.3618 -0.0669 -0.0272
 7847TIP3    H145032   6.508   0.918  14.471  0.1346 -0.6543 -1.3245
 7847TIP3    H245033   6.532   0.790  14.547  0.6039 -0.4172 -1.0710
 7848TIP3   OH245034   4.121   3.319   1.024 -0.4082 -0.2426  0.0368
 7848TIP3    H145035   4.193   3.356   0.973  0.7417 -1.5313  0.6490
 7848TIP3    H245036   4.160   3.303   1.111 -1.4903 -0.7503  0.4427
 7849TIP3   OH245037   2.268   0.301  11.716  0.4980 -0.1879  0.4791
 7849TIP3    H145038   2.344   0.273  11.664 -0.0760  0.0375 -0.5084
 7849TIP3    H245039   2.298   0.381  11.759  0.9835 -0.3635  0.4782
 7850TIP3   OH245040   6.752   1.596  15.166  0.0983  0.6007 -0.9293
 7850TIP3    H145041   6.705   1.522  15.203  2.3449  0.0022  0.9496
 7850TIP3    H245042   6.709   1.673  15.203  0.7882  0.0540  1.1692
 7851TIP3   OH245043   6.485   6.368  13.170 -0.3112  0.4091  0.4933
 7851TIP3    H145044   6.473   6.428  13.097 -1.7863 -1.1621 -0.6654
 7851TIP3    H245045   6.396   6.345  13.196  0.2096 -0.4590  1.5740
 7852TIP3   OH245046   5.973   1.929  13.688  0.2290 -0.1854 -0.2900
 7852TIP3    H145047   5.957   2.023  13.700  1.0830 -0.0012 -0.5014
 7852TIP3    H245048   5.942   1.889  13.769  1.1265  0.4465  0.3789
 7853TIP3   OH245049   5.972   3.134  13.784 -0.6004  0.5259  0.5378
 7853TIP3    H145050   6.067   3.120  13.786 -0.3570  1.7605 -0.6536
 7853TIP3    H245051   5.960   3.218  13.829 -0.5530  2.7010 -3.1590
 7854TIP3   OH245052   6.792   5.389   2.384 -0.1833 -0.0240  0.5482
 7854TIP3    H145053   6.854   5.461   2.379 -0.3899  0.0934 -0.7403
 7854TIP3    H245054   6.732   5.404   2.311  0.6893 -2.2926 -0.7616
 7855TIP3   OH245055   2.456   5.083   4.237 -0.1538  0.2122  0.6645
 7855TIP3    H145056   2.361   5.074   4.229 -0.1038  1.1915 -2.1071
 7855TIP3    H245057   2.490   4.998   4.207 -0.1420  0.3885  0.1700
 7856TIP3   OH245058   0.948   1.931   0.603 -0.3339 -0.0157 -0.2040
 7856TIP3    H145059   1.002   1.887   0.669 -0.8383  0.1545  0.3392
 7856TIP3    H245060   0.867   1.954   0.651 -0.4582  0.6526 -0.7277
 7857TIP3   OH245061   5.919   1.427  15.438 -0.0259  0.1554 -0.2001
 7857TIP3    H145062   5.867   1.382  15.504 -2.2077  1.3098 -1.0369
 7857TIP3    H245063   6.007   1.432  15.477 -0.4045 -2.1265  1.1289
 7858TIP3   OH245064   6.518   6.119  14.897 -0.2768 -0.3133  0.2449
 7858TIP3    H145065   6.540   6.143  14.987  0.2043 -0.3249  0.1297
 7858TIP3    H245066   6.602   6.101  14.855 -0.6078 -2.3908  0.3691
 7859TIP3   OH245067   4.641   0.252  13.770  0.6048  0.5254  0.1139
 7859TIP3    H145068   4.670   0.291  13.852  3.2351  0.1336 -0.5559
 7859TIP3    H245069   4.659   0.158  13.780  0.0377  0.3260 -0.5707
 7860TIP3   OH245070   0.395   6.636   4.579 -0.7608 -0.1278  0.4476
 7860TIP3    H145071   0.459   6.683   4.526 -1.4435  1.1107  0.6779
 7860TIP3    H245072   0.448   6.582   4.638  0.0153 -0.8138 -0.8301
 7861TIP3   OH245073   6.356   1.377   1.040 -0.2716  0.4035  0.2809
 7861TIP3    H145074   6.264   1.397   1.021  0.2616  2.0606 -0.6970
 7861TIP3    H245075   6.405   1.449   1.002  1.4573 -0.4218  0.8448
 7862TIP3   OH245076   0.232   5.419   1.850 -0.3984 -0.1692  0.5327
 7862TIP3    H145077   0.226   5.410   1.945 -0.5544 -0.8728  0.4630
 7862TIP3    H245078   0.309   5.368   1.826  0.9268  1.7709  0.4965
 7863TIP3   OH245079   0.399   4.491  15.460  0.8550 -0.4022  0.0437
 7863TIP3    H145080   0.329   4.552  15.434  1.1399  0.1688  0.5851
 7863TIP3    H245081   0.477   4.525  15.417  1.3170  0.5070  1.4986
 7864TIP3   OH245082   3.597   2.608  11.617 -0.8416  0.0566 -0.6842
 7864TIP3    H145083   3.649   2.530  11.639 -1.6020 -0.0534  0.9164
 7864TIP3    H245084   3.569   2.593  11.527  1.6024 -0.0150 -1.4956
 7865TIP3   OH245085   4.037   2.922  16.292 -0.3472 -0.3990  0.3538
 7865TIP3    H145086   4.128   2.897  16.277  0.6255  1.4887  2.5327
 7865TIP3    H245087   4.006   2.860  16.358  0.3138  0.6965  1.7258
 7866TIP3   OH245088   1.480   4.073   1.443 -0.5872 -0.8662 -0.5887
 7866TIP3    H145089   1.511   4.160   1.416 -1.1160 -0.4982 -0.0390
 7866TIP3    H245090   1.432   4.040   1.367  0.1694 -0.9570 -1.0348
 7867TIP3   OH245091   1.982   2.906   0.242 -0.6008  0.5247  0.7432
 7867TIP3    H145092   1.902   2.911   0.190 -0.6519 -1.1924  0.6208
 7867TIP3    H245093   1.954   2.929   0.331 -1.5489 -1.3504  0.9832
 7868TIP3   OH245094   4.576   4.684  14.932 -0.1313 -0.1622 -0.3437
 7868TIP3    H145095   4.534   4.701  14.847  1.3810  3.4445 -0.5697
 7868TIP3    H245096   4.664   4.653  14.910  0.3683  1.0684 -0.1750
 7869TIP3   OH245097   3.286   2.429   1.254 -0.5375 -0.0669 -0.7302
 7869TIP3    H145098   3.237   2.348   1.239 -0.9389  0.0749 -0.2173
 7869TIP3    H245099   3.282   2.443   1.348  0.5080 -0.0500 -0.6739
 7870TIP3   OH245100   4.530   3.063  11.762  0.5947  0.4466  0.3195
 7870TIP3    H145101   4.522   3.058  11.857  1.8010  0.3001  0.4348
 7870TIP3    H245102   4.625   3.062  11.746  0.4116 -0.6685 -0.9388
 7871TIP3   OH245103   3.551   2.917   1.620 -0.2644 -0.0216 -0.1116
 7871TIP3    H145104   3.476   2.876   1.576 -1.2050  0.4322  0.9964
 7871TIP3    H245105   3.512   2.965   1.693  1.2020 -0.6977  1.1855
 7872TIP3   OH245106   0.438   4.081  16.705 -0.2150  0.0942 -0.1306
 7872TIP3    H145107   0.390   4.133  16.769 -0.1172 -0.6361  0.5466
 7872TIP3    H245108   0.371   4.041  16.650 -0.3439 -0.1289  0.1887
 7873TIP3   OH245109   3.135   5.302   4.525 -0.2728  0.1815 -0.2741
 7873TIP3    H145110   3.211   5.296   4.467  0.7757 -0.0465  1.0484
 7873TIP3    H245111   3.154   5.238   4.595 -2.0574 -0.4338 -0.3065
 7874TIP3   OH245112   1.144   4.520   5.126  0.4164 -0.2698  0.1185
 7874TIP3    H145113   1.079   4.480   5.068 -0.1511 -0.3841  0.8213
 7874TIP3    H245114   1.093   4.568   5.191  1.0441 -0.0551  0.4682
 7875TIP3   OH245115   5.917   5.592  10.508 -0.2108  0.3593 -0.4083
 7875TIP3    H145116   5.892   5.581  10.416  0.0119 -0.0431 -0.4241
 7875TIP3    H245117   5.905   5.685  10.525 -0.4024  0.4097 -0.8027
 7876TIP3   OH245118   5.391   4.988   4.693  0.4329  0.0455  0.6304
 7876TIP3    H145119   5.310   5.015   4.652 -0.4552 -3.4508 -0.2409
 7876TIP3    H245120   5.454   4.980   4.621  0.1338 -1.8457  0.5436
 7877TIP3   OH245121   3.940   3.633   2.582  0.2036  0.9433 -0.0350
 7877TIP3    H145122   3.979   3.639   2.669 -0.8943 -0.3323  0.5790
 7877TIP3    H245123   3.943   3.539   2.561 -2.5494  0.7668  0.0828
 7878TIP3   OH245124   4.543   6.740  15.817  0.1939  0.4584 -0.2936
 7878TIP3    H145125   4.575   6.830  15.823 -1.8871  1.1361  2.5117
 7878TIP3    H245126   4.568   6.701  15.901 -1.2588 -0.7246 -0.3880
 7879TIP3   OH245127   1.453   0.063   5.264  0.4158  0.1267 -0.1440
 7879TIP3    H145128   1.371   0.041   5.307 -0.8729  1.3161 -1.8788
 7879TIP3    H245129   1.513  -0.006   5.291 -0.8959 -0.3148  1.8227
 7880TIP3   OH245130   5.269   2.028  13.576  0.2362  0.1241 -0.1896
 7880TIP3    H145131   5.306   2.047  13.490  0.2424  0.7568 -0.0513
 7880TIP3    H245132   5.175   2.024  13.562  0.1792  1.0064 -0.0862
 7881TIP3   OH245133   2.631   6.418   3.836 -0.0830 -0.5460 -0.2856
 7881TIP3    H145134   2.715   6.372   3.829 -0.4077 -1.4849  1.5744
 7881TIP3    H245135   2.652   6.509   3.814  1.8453 -0.3633  1.9716
 7882TIP3   OH245136   1.064   2.389   5.654  0.2344 -0.2330  0.1117
 7882TIP3    H145137   1.156   2.402   5.678 -0.0281 -0.4965  1.3380
 7882TIP3    H245138   1.054   2.433   5.570  1.3066  0.4145  0.3117
 7883TIP3   OH245139   5.495   3.047   0.720 -0.1683 -0.2194 -0.1326
 7883TIP3    H145140   5.551   3.012   0.789  0.6782  1.4510  0.0860
 7883TIP3    H245141   5.537   3.019   0.638 -0.0658 -0.5557  0.0365
 7884TIP3   OH245142   1.544   3.379  12.640 -0.2847 -0.6404 -0.3311
 7884TIP3    H145143   1.548   3.285  12.656 -2.6184 -1.1235 -1.9914
 7884TIP3    H245144   1.499   3.414  12.717  1.5093 -0.6660  0.7813
 7885TIP3   OH245145   1.458   4.072   1.969 -0.0932  0.6366 -0.0890
 7885TIP3    H145146   1.512   4.140   2.011 -0.2119  0.5593  0.1899
 7885TIP3    H245147   1.436   4.011   2.040  1.1801 -0.4647 -0.5884
 7886TIP3   OH245148   0.188   4.654   0.191 -0.5319  0.0552 -0.0740
 7886TIP3    H145149   0.246   4.628   0.120 -1.0072  0.8880 -0.7926
 7886TIP3    H245150   0.192   4.582   0.253 -0.2865 -0.8000 -1.0570
 7887TIP3   OH245151   1.558   2.884   0.062 -0.7147 -0.4958  0.2830
 7887TIP3    H145152   1.517   2.940  -0.005 -0.6440 -0.5443  0.1996
 7887TIP3    H245153   1.628   2.938   0.099 -0.5131 -0.6017  0.0583
 7888TIP3   OH245154   0.888   4.816  15.276 -0.9269 -0.3470 -0.4393
 7888TIP3    H145155   0.875   4.756  15.202 -1.7063  1.1049 -1.5456
 7888TIP3    H245156   0.805   4.862  15.284 -0.1538  1.0418 -0.0568
 7889TIP3   OH245157   5.583   6.416   0.697 -0.2914  0.0025 -0.0772
 7889TIP3    H145158   5.496   6.452   0.679  0.3052  1.8181  0.4036
 7889TIP3    H245159   5.583   6.400   0.792 -0.5082 -1.1923 -0.2710
 7890TIP3   OH245160   4.332   2.126   3.309  0.3250  0.2664 -0.5209
 7890TIP3    H145161   4.362   2.050   3.260 -0.4505  0.1180 -0.7773
 7890TIP3    H245162   4.412   2.169   3.339  0.7843 -0.1671 -1.1171
 7891TIP3   OH245163   5.320   1.442   6.511 -0.0575  0.3745 -0.2785
 7891TIP3    H145164   5.362   1.388   6.445 -1.3806  1.3122 -1.9588
 7891TIP3    H245165   5.387   1.454   6.578  0.5557 -2.5828 -0.2221
 7892TIP3   OH245166   0.074   5.269  13.351 -0.4016  0.5456  0.1609
 7892TIP3    H145167   0.008   5.204  13.372  1.1390 -1.3729 -0.5872
 7892TIP3    H245168   0.055   5.294  13.260 -0.3633  0.3176  0.0896
 7893TIP3   OH245169   5.076   0.006  14.810  0.3312  0.3040 -1.0755
 7893TIP3    H145170   5.009  -0.045  14.855 -0.4099  0.5943 -1.8301
 7893TIP3    H245171   5.073   0.092  14.852  1.6413 -0.2469  0.2570
 7894TIP3   OH245172   5.273   2.199   1.341 -0.4201 -0.0888  0.1941
 7894TIP3    H145173   5.350   2.245   1.307 -0.5368 -0.8386 -1.1222
 7894TIP3    H245174   5.199   2.237   1.292 -0.8777  0.4317  1.2512
 7895TIP3   OH245175   2.355   6.530   3.257 -0.0379 -0.2137  0.6143
 7895TIP3    H145176   2.399   6.612   3.279  3.2375 -1.7592  0.4763
 7895TIP3    H245177   2.329   6.493   3.342  0.4314  0.0084  0.8591
 7896TIP3   OH245178   5.646   2.916  14.806  0.7240  0.3772  0.1947
 7896TIP3    H145179   5.708   2.989  14.802  3.4667 -1.8001 -1.0775
 7896TIP3    H245180   5.619   2.904  14.715  0.1257 -0.0556  0.4271
 7897TIP3   OH245181   5.297   1.633   1.836  0.0334  0.4137  0.1251
 7897TIP3    H145182   5.378   1.627   1.887 -0.1258  1.5421  0.5435
 7897TIP3    H245183   5.279   1.727   1.832 -0.6113  0.2528 -0.9940
 7898TIP3   OH245184   5.334   4.831   4.022 -0.2621  0.1534 -0.0737
 7898TIP3    H145185   5.343   4.814   4.116 -0.6204 -0.4700 -0.1468
 7898TIP3    H245186   5.422   4.820   3.987 -0.2467 -0.2937  0.0905
 7899TIP3   OH245187   3.184   1.709   3.893  0.7475  0.6708 -0.0621
 7899TIP3    H145188   3.167   1.797   3.859 -0.3876 -0.0244 -1.4138
 7899TIP3    H245189   3.108   1.688   3.946  0.3826  0.0179 -0.8231
 7900TIP3   OH245190   2.911   4.551   3.903  0.0537  0.1816  0.0069
 7900TIP3    H145191   2.897   4.459   3.927  0.0648  0.6870  2.1345
 7900TIP3    H245192   2.890   4.600   3.982  1.1320  1.9502 -0.7420
 7901TIP3   OH245193   3.772   5.965  15.265  0.3333  0.6584  0.2453
 7901TIP3    H145194   3.776   6.000  15.354 -1.4786  2.4709 -0.2904
 7901TIP3    H245195   3.680   5.974  15.241 -0.1446 -3.6580 -0.4072
 7902TIP3   OH245196   3.185   0.858  13.668 -0.1472 -0.3323  0.7382
 7902TIP3    H145197   3.181   0.766  13.696  1.4742 -1.2370 -1.6562
 7902TIP3    H245198   3.125   0.862  13.593  1.3127 -0.0123 -0.4522
 7903TIP3   OH245199   2.333   0.517   4.096 -0.0620  0.4376 -0.4752
 7903TIP3    H145200   2.396   0.468   4.150 -0.8724 -0.0476  0.0538
 7903TIP3    H245201   2.351   0.488   4.007 -1.8036 -2.4229 -0.0329
 7904TIP3   OH245202   1.852   2.899  14.087  0.3555 -0.2405  0.3587
 7904TIP3    H145203   1.870   2.958  14.013 -0.4591 -1.4749 -0.8609
 7904TIP3    H245204   1.761   2.916  14.108  0.4417 -0.2689  0.7499
 7905TIP3   OH245205   6.160   4.495   6.018  0.5143 -0.2725  0.3586
 7905TIP3    H145206   6.234   4.552   6.041  0.8199 -1.0844  1.4945
 7905TIP3    H245207   6.193   4.442   5.946  1.2736 -1.0114  1.2136
 7906TIP3   OH245208   4.712   6.746  16.485  0.0014 -0.3610  0.1897
 7906TIP3    H145209   4.763   6.783  16.557 -0.2805 -0.1020  0.2622
 7906TIP3    H245210   4.638   6.807  16.475 -0.3814 -0.8173  0.1961
 7907TIP3   OH245211   4.407   2.545   2.533  0.4042 -0.0974  0.5069
 7907TIP3    H145212   4.356   2.527   2.611 -2.6317 -2.0805 -1.7357
 7907TIP3    H245213   4.355   2.609   2.484  0.9982 -0.7079 -0.9842
 7908TIP3   OH245214   5.324   2.537   3.953 -0.2471  0.3048  0.0286
 7908TIP3    H145215   5.294   2.594   4.024 -0.6610  0.9318 -0.6402
 7908TIP3    H245216   5.409   2.504   3.983  0.8822  2.6977 -0.3011
 7909TIP3   OH245217   6.593   2.050   1.588 -0.2078  0.5977  0.1950
 7909TIP3    H145218   6.524   2.115   1.578 -0.2873  0.6607  1.1180
 7909TIP3    H245219   6.675   2.098   1.573 -0.3035  0.7531  0.1751
 7910TIP3   OH245220   2.557   0.433  13.865 -0.1961  0.0128 -0.1550
 7910TIP3    H145221   2.482   0.411  13.809 -1.0333  1.1155  0.4851
 7910TIP3    H245222   2.518   0.450  13.951  0.9650 -0.7461  0.5498
 7911TIP3   OH245223   3.460   4.597  11.876 -0.3070  0.0024  0.0599
 7911TIP3    H145224   3.517   4.619  11.950 -1.1425  1.5102  0.3016
 7911TIP3    H245225   3.379   4.567  11.917 -0.3298 -0.4017 -0.2758
 7912TIP3   OH245226   2.823   4.373  16.922  0.0810  0.5924 -0.0645
 7912TIP3    H145227   2.822   4.423  16.840  0.5603  1.6056  0.5329
 7912TIP3    H245228   2.900   4.317  16.915 -0.2088  0.2448 -0.5498
 7913TIP3   OH245229   0.283   1.884   6.158  0.3634 -0.3251  0.1097
 7913TIP3    H145230   0.324   1.958   6.203 -1.1473  1.1781 -0.8747
 7913TIP3    H245231   0.200   1.873   6.204 -0.1084 -0.3679 -0.7517
 7914TIP3   OH245232   0.437   0.705   4.370 -0.3685 -0.2231  0.8878
 7914TIP3    H145233   0.470   0.616   4.385  0.0946 -0.0471  0.9185
 7914TIP3    H245234   0.349   0.692   4.334  0.2186 -0.7181 -0.4167
 7915TIP3   OH245235   6.531   1.837   5.203  0.0947 -0.0961  0.1880
 7915TIP3    H145236   6.523   1.883   5.120 -2.2057  0.7329  0.7872
 7915TIP3    H245237   6.441   1.809   5.224  0.5576 -0.0467  2.4982
 7916TIP3   OH245238   5.812   3.672   3.699  0.4035  0.5026  0.4220
 7916TIP3    H145239   5.730   3.714   3.673  0.9598  0.9056 -0.7320
 7916TIP3    H245240   5.784   3.597   3.752 -0.7689  0.0547 -0.7674
 7917TIP3   OH245241   6.182   3.882   2.606 -0.5103  0.3551 -0.0095
 7917TIP3    H145242   6.261   3.932   2.628 -1.5164  1.7602  0.5936
 7917TIP3    H245243   6.188   3.867   2.512  0.9547 -0.4712  0.1783
 7918TIP3   OH245244   0.174   5.861   3.878  0.1320 -0.2837 -0.1111
 7918TIP3    H145245   0.088   5.821   3.888  0.7442 -1.9788 -1.0730
 7918TIP3    H245246   0.232   5.806   3.930  0.9623 -0.4975 -1.2074
 7919TIP3   OH245247   6.157   4.159  13.837 -0.3467  0.5460  0.0229
 7919TIP3    H145248   6.151   4.231  13.774 -1.2284 -0.2029 -0.7786
 7919TIP3    H245249   6.070   4.155  13.876 -0.2518  0.0174  0.1816
 7920TIP3   OH245250   0.071   2.002   0.158  0.0702 -0.1954 -0.3576
 7920TIP3    H145251  -0.016   2.041   0.170 -0.8612 -2.1447 -0.2539
 7920TIP3    H245252   0.059   1.941   0.085  0.6885 -2.1932  1.1152
 7921TIP3   OH245253   5.803   3.656   2.450 -0.1698 -0.7571 -0.2896
 7921TIP3    H145254   5.849   3.736   2.424 -0.4295 -0.9722 -1.4801
 7921TIP3    H245255   5.859   3.585   2.419 -0.6094 -1.0292 -0.4687
 7922TIP3   OH245256   1.563   4.391   0.858  0.3632  0.6294  0.0578
 7922TIP3    H145257   1.482   4.340   0.853  0.0940  0.9225  1.2631
 7922TIP3    H245258   1.541   4.468   0.909  1.6970  0.0870  1.5599
 7923TIP3   OH245259   6.694   4.728   0.730 -0.3268 -0.2383  0.0271
 7923TIP3    H145260   6.629   4.796   0.746  1.3528  2.1017 -2.2157
 7923TIP3    H245261   6.751   4.731   0.807 -1.0649 -0.1579  0.5880
 7924TIP3   OH245262   1.258   5.901   5.419 -0.7786  0.1617 -0.4179
 7924TIP3    H145263   1.249   5.874   5.511  0.8194 -0.1537 -0.3340
 7924TIP3    H245264   1.342   5.865   5.391 -0.4078  1.7445 -1.4874
 7925TIP3   OH245265   6.549   4.183  16.551  0.0212 -0.0971  0.0510
 7925TIP3    H145266   6.584   4.157  16.636  0.0725 -3.7193 -0.8902
 7925TIP3    H245267   6.624   4.178  16.492 -0.3340  0.7957 -0.4901
 7926TIP3   OH245268   5.755   4.451  16.216  0.8095  0.8631  0.0071
 7926TIP3    H145269   5.664   4.466  16.193  0.9470  0.5825 -0.7350
 7926TIP3    H245270   5.785   4.534  16.252 -0.8276 -0.0470  4.0734
 7927TIP3   OH245271   5.828   4.917   5.313  0.3811  0.2306  0.2767
 7927TIP3    H145272   5.780   4.842   5.347  0.0487  0.1833 -0.2819
 7927TIP3    H245273   5.918   4.887   5.306  0.3550  0.0738  0.6065
 7928TIP3   OH245274   3.281   6.222  11.308  0.6164  0.0254 -0.2578
 7928TIP3    H145275   3.238   6.138  11.325  2.8672 -1.0515  0.5589
 7928TIP3    H245276   3.313   6.215  11.218  0.7984 -0.0093 -0.1918
 7929TIP3   OH245277   6.238   2.941   4.832  0.2857  0.0227  0.0153
 7929TIP3    H145278   6.299   2.983   4.892 -0.5936  0.7792  0.3952
 7929TIP3    H245279   6.293   2.885   4.777  1.4752  1.5451 -0.4122
 7930TIP3   OH245280   5.375   4.408   5.126  0.3286  0.1261  0.2788
 7930TIP3    H145281   5.428   4.348   5.178  2.4958  0.1714 -1.7530
 7930TIP3    H245282   5.336   4.354   5.058 -0.4848  0.4772  0.4517
 7931TIP3   OH245283   3.205   0.390  13.049  0.0730 -0.1129  0.0958
 7931TIP3    H145284   3.190   0.485  13.049  1.7687  0.1883 -0.3789
 7931TIP3    H245285   3.152   0.358  12.976  0.1650  0.6085 -0.3084
 7932TIP3   OH245286   2.822   1.934   3.761  0.2967  0.0052 -0.2429
 7932TIP3    H145287   2.776   1.949   3.678 -0.4451  1.3777  0.3814
 7932TIP3    H245288   2.833   2.022   3.798  0.3112 -0.6217  1.2843
 7933TIP3   OH245289   5.529   3.847  17.017  0.6646 -0.5870 -0.2592
 7933TIP3    H145290   5.526   3.807  16.930  1.2316  0.8697 -0.9882
 7933TIP3    H245291   5.555   3.776  17.075 -0.9617 -1.8885 -1.0574
 7934TIP3   OH245292   6.771   3.407   0.487 -0.2318 -0.2045  0.1089
 7934TIP3    H145293   6.684   3.372   0.468  0.0989 -1.3087  0.5534
 7934TIP3    H245294   6.800   3.446   0.404 -1.3170  0.5830  0.0787
 7935TIP3   OH245295   2.972   3.907  14.783  0.2215 -0.2327 -0.0291
 7935TIP3    H145296   2.986   3.855  14.704  0.2242 -0.2268 -0.0324
 7935TIP3    H245297   2.884   3.943  14.774  1.5878  3.0094 -1.8986
 7936TIP3   OH245298   0.925   1.532  16.328  0.1662  0.2599 -0.1691
 7936TIP3    H145299   0.985   1.583  16.382 -0.2151 -0.9168  1.4260
 7936TIP3    H245300   0.950   1.554  16.238  2.8924 -0.0531  0.4094
 7937TIP3   OH245301   0.293   3.370  12.877 -0.1571 -0.0401 -0.1190
 7937TIP3    H145302   0.293   3.284  12.835  0.1372  0.0005 -0.2076
 7937TIP3    H245303   0.206   3.406  12.859  0.3013  0.4093 -1.6063
 7938TIP3   OH245304   3.817   0.893   2.653  0.0831  0.8949 -0.0345
 7938TIP3    H145305   3.897   0.877   2.603 -0.5714  1.9710 -1.4779
 7938TIP3    H245306   3.834   0.853   2.738  1.3446 -0.7504 -1.0019
 7939TIP3   OH245307   6.796   1.638   2.685  1.0588 -0.2145  0.1882
 7939TIP3    H145308   6.851   1.645   2.763 -1.5923  0.4623  2.1468
 7939TIP3    H245309   6.770   1.546   2.682  0.7719 -0.1413  0.4001
 7940TIP3   OH245310   2.480   5.005  12.746 -0.3962 -0.3446  0.2019
 7940TIP3    H145311   2.454   4.915  12.768 -1.0981 -0.3833 -0.7477
 7940TIP3    H245312   2.423   5.029  12.673 -0.0304  0.7832  0.2787
 7941TIP3   OH245313   1.317   2.250  15.326  0.2413  0.1279  0.0438
 7941TIP3    H145314   1.351   2.281  15.410 -0.3915 -0.6354  0.6004
 7941TIP3    H245315   1.394   2.220  15.279  0.8217  2.1111 -0.3531
 7942TIP3   OH245316   3.174   5.961  13.756 -0.0706  1.1475 -0.2738
 7942TIP3    H145317   3.079   5.968  13.755 -0.4389 -2.1055 -1.1097
 7942TIP3    H245318   3.203   6.016  13.683 -1.5016  0.7661 -1.1771
 7943TIP3   OH245319   2.107   5.581  15.128  0.0328  0.1089 -0.2973
 7943TIP3    H145320   2.195   5.544  15.135 -0.1462 -0.5001 -1.1913
 7943TIP3    H245321   2.098   5.634  15.207  1.7476  1.3765 -0.8872
 7944TIP3   OH245322   3.319   3.615   2.358 -0.0062  0.2645 -0.0817
 7944TIP3    H145323   3.260   3.546   2.387 -0.3993  0.3634 -0.6277
 7944TIP3    H245324   3.264   3.673   2.305  0.4437  0.6879 -0.0962
 7945TIP3   OH245325   4.778   1.457  11.883 -0.0917 -0.0784  0.0832
 7945TIP3    H145326   4.799   1.523  11.817  0.1860  0.3168  0.5645
 7945TIP3    H245327   4.701   1.412  11.848 -2.4279  2.7190  1.2944
 7946TIP3   OH245328   0.488   6.103  16.879 -0.0182  0.1371 -0.0048
 7946TIP3    H145329   0.434   6.100  16.958  0.0518  0.2955  0.0525
 7946TIP3    H245330   0.568   6.055  16.903 -0.2218 -0.2803 -0.1584
 7947TIP3   OH245331   5.665   4.059   1.368 -0.2728  1.2454 -0.0766
 7947TIP3    H145332   5.707   3.984   1.326 -1.5500 -0.0799  0.9376
 7947TIP3    H245333   5.649   4.120   1.295 -0.1794  0.0926 -1.1040
 7948TIP3   OH245334   6.087   6.301  12.425 -0.1907  0.4147  0.6302
 7948TIP3    H145335   6.110   6.390  12.399 -1.3764  0.0250 -2.1436
 7948TIP3    H245336   6.162   6.248  12.400 -1.2628  0.0653 -2.2628
 7949TIP3   OH245337   1.862   4.932   4.935 -0.0016 -0.6073  0.0804
 7949TIP3    H145338   1.939   4.911   4.987 -1.2865 -0.0884  2.3297
 7949TIP3    H245339   1.864   4.870   4.862  1.5598 -1.7829  1.0658
 7950TIP3   OH245340   2.897   2.170   5.467 -0.1548  0.4003 -0.1548
 7950TIP3    H145341   2.898   2.197   5.375  2.6693 -0.5421 -0.5185
 7950TIP3    H245342   2.938   2.242   5.514  2.9188 -1.0080 -0.4368
 7951TIP3   OH245343   0.530   2.285   4.354  0.0692  0.7113  0.5115
 7951TIP3    H145344   0.624   2.268   4.364  0.6129  2.9666 -0.1873
 7951TIP3    H245345   0.525   2.379   4.337 -2.0554  0.1530 -2.6520
 7952TIP3   OH245346   5.008   3.613   4.966 -0.1061 -0.7521 -0.4720
 7952TIP3    H145347   4.935   3.674   4.974  1.0887  0.6792 -0.0962
 7952TIP3    H245348   5.041   3.626   4.877 -0.6565 -1.8334 -0.8518
 7953TIP3   OH245349   2.105   3.243  11.903  0.1086  0.0353  0.1487
 7953TIP3    H145350   2.012   3.227  11.886  0.0977 -0.5343  0.7092
 7953TIP3    H245351   2.106   3.323  11.956  0.0058  0.5436 -0.5914
 7954TIP3   OH245352   4.943   2.179   2.373  0.3854 -0.3388 -0.5068
 7954TIP3    H145353   4.977   2.110   2.315 -1.1331 -0.3561 -1.4341
 7954TIP3    H245354   4.870   2.138   2.419  0.7168  0.0887  0.4222
 7955TIP3   OH245355   1.650   3.996   2.460  0.0845  0.2532  0.0665
 7955TIP3    H145356   1.652   3.941   2.381 -3.3080 -0.6187  0.4251
 7955TIP3    H245357   1.565   4.038   2.457  0.5421  1.5055  2.4700
 7956TIP3   OH245358   1.782   4.759   3.583 -0.1890  0.6216  0.2858
 7956TIP3    H145359   1.819   4.674   3.609  0.4507 -0.0888 -2.5565
 7956TIP3    H245360   1.856   4.806   3.544 -0.7551  2.1404  0.9908
 7957TIP3   OH245361   3.300   4.052  15.761  0.2875 -0.0963  0.2949
 7957TIP3    H145362   3.274   4.142  15.745  0.6220 -0.2666 -1.4160
 7957TIP3    H245363   3.295   4.042  15.856 -1.4792  1.1697  0.3798
 7958TIP3   OH245364   0.677   2.907   3.016  0.1451 -0.1729 -0.5663
 7958TIP3    H145365   0.738   2.885   2.946  0.0015 -0.3328 -0.6429
 7958TIP3    H245366   0.682   2.833   3.077  0.4716  0.0919 -0.2667
 7959TIP3   OH245367   5.519   6.217   0.356 -0.1757 -0.0577  0.4983
 7959TIP3    H145368   5.484   6.292   0.404 -1.1144 -0.8974  1.1684
 7959TIP3    H245369   5.580   6.255   0.292 -0.2990  1.2251  1.1208
 7960TIP3   OH245370   5.217   4.688  13.383  0.5965 -0.5031  0.5109
 7960TIP3    H145371   5.231   4.772  13.428  0.2702 -0.2162  0.0935
 7960TIP3    H245372   5.272   4.626  13.430  1.7840  0.1946  0.0757
 7961TIP3   OH245373   5.663   2.745  12.726 -0.5704  0.2005 -0.1158
 7961TIP3    H145374   5.735   2.805  12.709 -0.4250  0.0771  0.0528
 7961TIP3    H245375   5.691   2.662  12.687 -1.1279  0.4535 -1.0755
 7962TIP3   OH245376   5.819   4.487   0.298 -0.0421 -0.5147 -0.4803
 7962TIP3    H145377   5.911   4.503   0.318  0.1310 -2.2870  0.3307
 7962TIP3    H245378   5.793   4.559   0.241  1.1180  1.4296  1.3491
 7963TIP3   OH245379   4.092   0.249  15.492 -0.0363 -0.5146  0.5752
 7963TIP3    H145380   4.016   0.232  15.548 -0.9751  0.9786 -0.1649
 7963TIP3    H245381   4.148   0.307  15.543 -0.6022  0.3601  0.2290
 7964TIP3   OH245382   0.340   1.294   5.605  0.3872 -0.1275  0.7232
 7964TIP3    H145383   0.329   1.204   5.636 -0.8481 -0.4591 -0.5660
 7964TIP3    H245384   0.377   1.285   5.517 -1.8304  0.4705 -0.3527
 7965TIP3   OH245385   1.679   0.065   4.811  0.2268 -0.2970 -0.0070
 7965TIP3    H145386   1.769   0.091   4.827  0.3453  0.4149 -1.6289
 7965TIP3    H245387   1.646   0.037   4.897  1.7401  0.1562  0.7512
 7966TIP3   OH245388   0.265   4.271  12.641 -0.5724  0.2939  0.3659
 7966TIP3    H145389   0.326   4.204  12.609  1.0028  1.8411  0.0038
 7966TIP3    H245390   0.195   4.220  12.682  0.8516 -1.5821  0.6591
 7967TIP3   OH245391   2.796   6.235  15.928  0.7794  0.6666  0.0312
 7967TIP3    H145392   2.816   6.246  16.021 -0.0603 -0.7888  0.4074
 7967TIP3    H245393   2.708   6.272  15.919  0.0208 -1.0103  0.2655
 7968TIP3   OH245394   4.568   5.990  10.694 -0.3678 -0.0425  0.5142
 7968TIP3    H145395   4.573   6.084  10.679 -0.1757  0.2797  2.2978
 7968TIP3    H245396   4.478   5.976  10.724 -1.2336 -0.8923 -2.1977
 7969TIP3   OH245397   6.289   5.799  14.559  0.4580  0.6163  0.0082
 7969TIP3    H145398   6.232   5.870  14.589  0.0482 -0.0350  0.8502
 7969TIP3    H245399   6.320   5.758  14.640 -0.0771 -0.7419 -0.4351
 7970TIP3   OH245400   6.235   3.676  17.064 -0.1636 -0.0827 -0.8807
 7970TIP3    H145401   6.247   3.668  16.970 -0.3724 -2.2197 -0.7817
 7970TIP3    H245402   6.291   3.607  17.101  0.5997  1.2844  0.6310
 7971TIP3   OH245403   5.229   3.175  12.311 -0.8798 -0.4161  0.2897
 7971TIP3    H145404   5.232   3.102  12.372 -0.4221  0.1510  0.9637
 7971TIP3    H245405   5.195   3.138  12.230  0.3543 -1.6206  0.2853
 7972TIP3   OH245406   2.772   0.242   3.666 -0.3441 -0.3034  0.8279
 7972TIP3    H145407   2.747   0.312   3.725  0.8984  0.1088  0.8806
 7972TIP3    H245408   2.865   0.228   3.682 -0.2402 -0.9499 -0.2313
 7973TIP3   OH245409   1.410   5.482  11.805  0.0592 -0.1899  0.3222
 7973TIP3    H145410   1.379   5.423  11.736  3.0859 -0.8464 -0.6318
 7973TIP3    H245411   1.376   5.444  11.886 -0.3913 -1.6157 -0.4956
 7974TIP3   OH245412   1.138   0.314   1.979  0.0514  0.1362 -0.0725
 7974TIP3    H145413   1.133   0.230   1.934  1.4912 -0.6788  1.1844
 7974TIP3    H245414   1.228   0.344   1.966  0.3246  0.1859  1.6410
 7975TIP3   OH245415   4.221   5.937  16.120  0.2516  0.0018  0.2406
 7975TIP3    H145416   4.150   5.940  16.056 -1.0615 -0.6669  1.6144
 7975TIP3    H245417   4.268   6.020  16.107 -1.1383  0.7417 -0.2883
 7976TIP3   OH245418   5.885   5.339  17.029  0.3608  0.2903  0.0972
 7976TIP3    H145419   5.978   5.319  17.031  0.3737  0.3509  0.1010
 7976TIP3    H245420   5.842   5.254  17.042  0.4282  0.5373  2.2562
 7977TIP3   OH245421   2.330   1.056  15.523 -0.0466  0.1778  0.0931
 7977TIP3    H145422   2.345   1.014  15.438 -0.4661  0.0961  0.0552
 7977TIP3    H245423   2.387   1.133  15.522  0.0398  0.1117 -0.2155
 7978TIP3   OH245424   4.088   4.246  14.955  0.3281  0.0908  0.3239
 7978TIP3    H145425   4.167   4.193  14.959 -0.3744 -0.8914  2.9860
 7978TIP3    H245426   4.098   4.311  15.024 -1.2578 -0.2178  0.8970
 7979TIP3   OH245427   3.274   1.713   4.939  0.6432  0.3729 -0.0924
 7979TIP3    H145428   3.370   1.712   4.950  0.6278 -1.2155  0.0704
 7979TIP3    H245429   3.240   1.692   5.026  0.2325 -1.2988 -0.6128
 7980TIP3   OH245430   2.918   2.868   1.762 -0.3344 -0.2272  0.4880
 7980TIP3    H145431   2.842   2.827   1.803  0.7049 -0.6157  2.1477
 7980TIP3    H245432   2.947   2.934   1.825  1.2043 -0.6975  0.3302
 7981TIP3   OH245433   3.865   4.807   0.405  0.0378 -0.3105  0.4279
 7981TIP3    H145434   3.793   4.801   0.343  0.6112  0.2239 -0.3109
 7981TIP3    H245435   3.823   4.808   0.491 -0.6700 -3.5019  0.2286
 7982TIP3   OH245436   2.349   4.953   2.354  0.0175  0.7112 -0.9597
 7982TIP3    H145437   2.256   4.968   2.340 -0.9573 -3.0478  0.3541
 7982TIP3    H245438   2.386   5.041   2.366 -4.0528  2.3255  2.4557
 7983TIP3   OH245439   2.554   6.341  16.178 -0.9687 -0.7114 -0.2444
 7983TIP3    H145440   2.516   6.276  16.237 -1.2284  0.1309  0.5351
 7983TIP3    H245441   2.482   6.402  16.161 -0.0122  0.9022  1.2462
 7984TIP3   OH245442   5.226   1.629  15.720 -0.1107  0.2785 -0.3577
 7984TIP3    H145443   5.178   1.712  15.724 -0.1058  0.2706 -0.1495
 7984TIP3    H245444   5.183   1.574  15.785 -0.9085 -0.3003 -1.3432
 7985TIP3   OH245445   6.469   1.530   4.058  0.0711 -0.0096  0.4749
 7985TIP3    H145446   6.562   1.513   4.073 -0.0311 -0.3540  0.7176
 7985TIP3    H245447   6.467   1.591   3.984  0.5077  0.3197  0.7351
 7986TIP3   OH245448   4.169   3.793  12.003 -0.0488 -0.3323 -0.8418
 7986TIP3    H145449   4.236   3.851  12.037 -0.4161 -0.3832 -0.0064
 7986TIP3    H245450   4.102   3.851  11.967  0.9684 -0.2893 -2.7856
 7987TIP3   OH245451   0.082   0.216   2.851  0.0710  0.7138  0.0843
 7987TIP3    H145452   0.008   0.224   2.912  0.3221  0.7573  0.3836
 7987TIP3    H245453   0.047   0.248   2.768 -0.6495 -0.4851 -0.1093
 7988TIP3   OH245454   3.156   0.927   2.201  0.1163 -0.5627  0.4734
 7988TIP3    H145455   3.153   0.966   2.114 -0.5549  0.5552  0.9692
 7988TIP3    H245456   3.241   0.884   2.206  0.1185 -0.7368 -0.7595
 7989TIP3   OH245457   1.916   3.047   6.404  0.0524  0.3184  0.2954
 7989TIP3    H145458   1.838   3.085   6.445  1.0192  0.3385  2.2631
 7989TIP3    H245459   1.962   3.123   6.366 -0.4511  0.4176 -0.1287
 7990TIP3   OH245460   1.745   0.195   2.281 -0.3242 -0.0915  0.5333
 7990TIP3    H145461   1.753   0.206   2.376  0.8572 -0.4306  0.4863
 7990TIP3    H245462   1.736   0.100   2.269 -0.2632 -0.0665  0.2931
 7991TIP3   OH245463   3.800   4.976  12.286 -0.0269  0.7345  0.2720
 7991TIP3    H145464   3.880   5.009  12.326  0.6703  1.0544 -1.3282
 7991TIP3    H245465   3.735   5.045  12.301  0.3297  1.0277  0.4822
 7992TIP3   OH245466   2.532   4.405  16.892  0.5194  0.0714 -0.0055
 7992TIP3    H145467   2.497   4.371  16.975 -0.0503  0.0876 -0.2326
 7992TIP3    H245468   2.624   4.424  16.911  0.2468  0.6518  0.7999
 7993TIP3   OH245469   4.352   3.052   4.221 -0.3706  0.1671 -0.6314
 7993TIP3    H145470   4.440   3.090   4.225 -0.3217  0.3738 -2.6460
 7993TIP3    H245471   4.365   2.959   4.238  0.3032  0.1265 -1.3350
 7994TIP3   OH245472   3.819   3.878  13.526 -0.3768  0.5332  0.2168
 7994TIP3    H145473   3.801   3.797  13.477 -0.5612  2.1550 -2.6477
 7994TIP3    H245474   3.870   3.850  13.601 -1.1186 -2.3251 -0.2337
 7995TIP3   OH245475   0.642   2.567  16.723  0.0298  0.0560  0.2600
 7995TIP3    H145476   0.718   2.515  16.748 -0.2068 -1.2318 -1.5218
 7995TIP3    H245477   0.651   2.649  16.772  1.5494 -0.8124  1.4979
 7996TIP3   OH245478   4.214   4.042   3.363  0.5876 -0.0288 -0.0430
 7996TIP3    H145479   4.223   4.059   3.457  0.0115  0.3233 -0.0408
 7996TIP3    H245480   4.232   4.127   3.323 -0.2203  0.0896 -0.1754
 7997TIP3   OH245481   1.546   1.093   0.680  0.2555 -0.4136 -0.1741
 7997TIP3    H145482   1.476   1.139   0.725 -0.2600  0.1959 -1.5227
 7997TIP3    H245483   1.525   1.000   0.690  0.0763 -0.2844  0.6734
 7998TIP3   OH245484   6.796   2.025  12.920  0.1232  0.1236 -0.1322
 7998TIP3    H145485   6.792   2.119  12.902  0.8756  0.2525  0.3051
 7998TIP3    H245486   6.714   1.990  12.885 -1.5790  1.3675  2.3353
 7999TIP3   OH245487   4.107   6.509   1.525  0.3033  0.1635  0.4072
 7999TIP3    H145488   4.101   6.423   1.567  3.6221 -0.4960 -0.1560
 7999TIP3    H245489   4.131   6.490   1.434 -1.1552  1.6815 -0.3522
 8000TIP3   OH245490   6.594   5.434   5.693 -0.1705  0.5468  0.8165
 8000TIP3    H145491   6.563   5.518   5.660 -0.8004 -0.2057 -0.5893
 8000TIP3    H245492   6.688   5.446   5.705 -0.0019  1.0336 -0.7762
 8001TIP3   OH245493   3.524   5.016  11.683  0.0859 -0.6741  0.8514
 8001TIP3    H145494   3.548   5.091  11.629  1.5291 -0.3613  1.8787
 8001TIP3    H245495   3.431   5.002  11.664  0.1592  0.4212 -0.4794
 8002TIP3   OH245496   3.727   4.779   6.349 -0.2582 -0.6574 -0.5782
 8002TIP3    H145497   3.648   4.728   6.369 -1.2493  0.7356 -0.8557
 8002TIP3    H245498   3.796   4.713   6.342 -1.4454 -1.9432 -0.6375
 8003TIP3   OH245499   6.471   4.288  13.720  0.6712 -0.3425  0.2877
 8003TIP3    H145500   6.506   4.309  13.633  0.2561 -0.9660 -0.0339
 8003TIP3    H245501   6.485   4.194  13.729 -0.8465 -0.5950  0.1894
 8004TIP3   OH245502   5.447   6.660   3.396  0.3485  0.2394 -0.1488
 8004TIP3    H145503   5.394   6.633   3.470  0.9150 -1.3461 -0.2907
 8004TIP3    H245504   5.391   6.721   3.347  0.3431  2.2025  2.0978
 8005TIP3   OH245505   5.408   1.629  11.931 -0.4128  0.1307  0.2687
 8005TIP3    H145506   5.342   1.561  11.915  0.5694 -0.8649  0.3121
 8005TIP3    H245507   5.452   1.639  11.846  0.1787 -0.1041  0.5409
 8006TIP3   OH245508   5.278   2.049   4.185 -0.0663 -0.3764 -0.4580
 8006TIP3    H145509   5.191   2.037   4.148 -1.5529 -0.8421  2.8153
 8006TIP3    H245510   5.274   2.136   4.226  1.0525 -0.3511 -0.3859
 8007TIP3   OH245511   3.160   0.309   5.978 -0.4770  0.7300 -0.2758
 8007TIP3    H145512   3.129   0.251   6.048  0.6926 -1.3220 -1.3645
 8007TIP3    H245513   3.127   0.270   5.898  0.2588  1.6461 -1.0505
 8008TIP3   OH245514   4.344   3.358   2.756 -0.3622  0.4286  0.1471
 8008TIP3    H145515   4.417   3.335   2.815 -0.6351 -2.2716 -0.4621
 8008TIP3    H245516   4.377   3.339   2.668 -1.5969 -0.3219 -0.1756
 8009TIP3   OH245517   6.187   5.222   1.223 -0.1516  0.2865  0.1413
 8009TIP3    H145518   6.220   5.297   1.272 -1.1639  1.7617 -1.3285
 8009TIP3    H245519   6.140   5.170   1.288  0.2294  1.1362  1.1186
 8010TIP3   OH245520   3.247   5.271  12.442 -0.4298 -0.2523  0.0847
 8010TIP3    H145521   3.164   5.224  12.450 -1.1591  0.9074 -0.4427
 8010TIP3    H245522   3.263   5.307  12.529 -1.9963  1.9332 -0.4376
 8011TIP3   OH245523   1.920   1.711  14.672  0.4374 -0.2077  0.3495
 8011TIP3    H145524   1.954   1.682  14.756  1.2609  0.4384  0.2541
 8011TIP3    H245525   1.911   1.806  14.681  2.2093  0.1288 -0.8441
 8012TIP3   OH245526   3.494   0.662   4.821 -0.2661 -0.0691 -0.5620
 8012TIP3    H145527   3.475   0.679   4.729 -1.0308  2.1331 -0.0410
 8012TIP3    H245528   3.420   0.700   4.868  0.5709 -0.3424  1.0277
 8013TIP3   OH245529   5.068   4.067   0.883 -0.6140  0.6641  0.5887
 8013TIP3    H145530   5.024   4.003   0.826  0.6429 -0.3896  0.7467
 8013TIP3    H245531   5.157   4.073   0.848  0.1343  0.1376  2.2705
 8014TIP3   OH245532   4.970   4.884   0.912  0.3765 -0.3335 -0.4364
 8014TIP3    H145533   4.964   4.862   0.819 -0.3796 -1.3300 -0.1726
 8014TIP3    H245534   4.892   4.844   0.951  0.1893  0.8759  0.4800
 8015TIP3   OH245535   0.462   5.844   2.349 -0.1115  0.1980 -0.4411
 8015TIP3    H145536   0.480   5.772   2.410 -1.3263 -0.6245 -1.0094
 8015TIP3    H245537   0.497   5.814   2.266 -0.9133  0.0920 -0.7554
 8016TIP3   OH245538   2.487   6.203  15.878 -0.1441  0.1994 -0.3520
 8016TIP3    H145539   2.509   6.142  15.808 -1.9422 -1.5449  0.5046
 8016TIP3    H245540   2.454   6.281  15.833  0.3113 -0.2191 -1.4439
 8017TIP3   OH245541   1.971   4.257   3.953  0.5571  0.0246  0.4581
 8017TIP3    H145542   2.061   4.252   3.923  0.6023  0.0558  0.5879
 8017TIP3    H245543   1.976   4.296   4.040  0.2818  1.6425 -0.2070
 8018TIP3   OH245544   5.889   6.101  12.402  0.1098 -0.7317  0.0389
 8018TIP3    H145545   5.934   6.185  12.402  3.6147 -2.3772 -0.8668
 8018TIP3    H245546   5.898   6.068  12.491  0.2006 -0.8075  0.0024
 8019TIP3   OH245547   6.005   1.052   2.357  0.0957  0.4537  0.0569
 8019TIP3    H145548   6.068   1.020   2.421 -2.0503 -0.1991  2.0118
 8019TIP3    H245549   6.004   0.985   2.289  1.6414  0.5989 -0.1309
 8020TIP3   OH245550   6.153   3.404  14.759  0.1778 -0.1729  0.2564
 8020TIP3    H145551   6.095   3.447  14.696  1.9193 -0.2544 -1.5043
 8020TIP3    H245552   6.154   3.463  14.835  0.4558  1.5943 -1.0494
 8021TIP3   OH245553   4.806   3.954   6.304  0.3376 -0.0318  0.6345
 8021TIP3    H145554   4.832   3.891   6.372  0.9473  0.9286  1.3149
 8021TIP3    H245555   4.787   4.034   6.352 -0.7176  0.2330 -0.1969
 8022TIP3   OH245556   5.804   2.071   1.499  0.1142 -0.4011  0.2801
 8022TIP3    H145557   5.716   2.095   1.529  0.0565 -0.8542  0.4924
 8022TIP3    H245558   5.789   2.002   1.435  0.1632  1.4668 -1.8416
 8023TIP3   OH245559   1.489   2.133  15.812 -0.2106  0.0964  0.4953
 8023TIP3    H145560   1.526   2.157  15.727 -0.6962  1.6696  0.7015
 8023TIP3    H245561   1.526   2.047  15.831  0.8087  0.2280 -0.7731
 8024TIP3   OH245562   0.299   0.345   1.795  0.1288  0.5908  0.5946
 8024TIP3    H145563   0.219   0.369   1.841 -0.8385 -0.3912 -0.5056
 8024TIP3    H245564   0.314   0.416   1.734 -1.9881 -0.8057 -1.7311
 8025TIP3   OH245565   4.121   1.185   4.135  0.0028  0.2027 -0.2653
 8025TIP3    H145566   4.214   1.184   4.157  0.0180 -1.1195 -0.2744
 8025TIP3    H245567   4.110   1.264   4.082  0.6262  1.6385  1.6114
 8026TIP3   OH245568   5.140   1.591   2.532 -0.1642 -0.0808  0.4761
 8026TIP3    H145569   5.221   1.637   2.509 -0.5803  0.9985  1.0562
 8026TIP3    H245570   5.096   1.577   2.448  1.0124 -1.4831  0.0576
 8027TIP3   OH245571   4.486   2.371   1.327  0.4043 -0.8825 -0.4416
 8027TIP3    H145572   4.476   2.466   1.328  3.3295 -0.4679 -0.1607
 8027TIP3    H245573   4.573   2.356   1.365 -0.5241 -3.7729  0.8566
 8028TIP3   OH245574   0.357   3.272   0.835 -0.1648  0.1073 -0.5900
 8028TIP3    H145575   0.358   3.362   0.868  1.6762 -0.3552  0.7914
 8028TIP3    H245576   0.266   3.256   0.812 -0.7745  1.9007  0.3860
 8029TIP3   OH245577   1.831   4.481   0.833  0.1604 -0.0490 -0.2103
 8029TIP3    H145578   1.841   4.502   0.741  0.8584  1.4534  0.1785
 8029TIP3    H245579   1.738   4.460   0.843 -0.3168  1.5262 -0.9449
 8030TIP3   OH245580   5.894   2.086  17.041 -0.3925 -0.2540 -0.4090
 8030TIP3    H145581   5.910   2.179  17.058  0.9622 -0.2299 -1.6743
 8030TIP3    H245582   5.798   2.079  17.041 -0.5164  0.9843  0.4236
 8031TIP3   OH245583   3.326   2.802  17.041 -0.4522 -0.1030 -0.0172
 8031TIP3    H145584   3.249   2.818  17.095 -1.1833 -1.3344 -0.6304
 8031TIP3    H245585   3.306   2.720  16.995  1.8071 -1.2275  0.8602
 8032TIP3   OH245586   0.608   1.606  10.708  0.1804  0.3323 -0.8066
 8032TIP3    H145587   0.680   1.556  10.669 -0.5417  0.3751 -2.2707
 8032TIP3    H245588   0.535   1.544  10.712 -0.9504  1.3904 -3.3351
 8033TIP3   OH245589   1.678   2.455   0.976  0.1562 -0.0073  0.0727
 8033TIP3    H145590   1.711   2.540   1.004 -0.2357 -0.1276  0.9513
 8033TIP3    H245591   1.676   2.460   0.881  1.0040  0.6347  0.0736
 8034TIP3   OH245592   6.769   3.991  13.890  0.3247  0.4109  0.2396
 8034TIP3    H145593   6.786   4.086  13.890  1.2740  0.2508  0.3269
 8034TIP3    H245594   6.851   3.953  13.860 -0.8443 -0.2578 -2.3559
 8035TIP3   OH245595   2.126   3.146   3.629 -0.3950 -0.1567 -0.5271
 8035TIP3    H145596   2.213   3.186   3.635  0.3286 -1.8119  1.0092
 8035TIP3    H245597   2.127   3.097   3.547  0.8140 -1.5675  0.2782
 8036TIP3   OH245598   0.910   4.104  12.874  0.8199 -0.3129  0.1712
 8036TIP3    H145599   0.906   4.110  12.970 -0.6504 -1.0485  0.1827
 8036TIP3    H245600   0.920   4.194  12.845 -0.3592  0.1118  0.9786
 8037TIP3   OH245601   4.192   1.071   3.727  0.2718 -0.5007 -0.4874
 8037TIP3    H145602   4.113   1.063   3.781  0.7963  2.8679  1.0770
 8037TIP3    H245603   4.264   1.065   3.789  1.0449  0.4447 -1.2644
 8038TIP3   OH245604   1.556   4.697  15.638  0.2287 -0.8297  0.1728
 8038TIP3    H145605   1.646   4.728  15.649  0.1638 -0.0779 -1.3020
 8038TIP3    H245606   1.558   4.608  15.673  1.4508 -0.7045  0.4916
 8039TIP3   OH245607   5.396   3.228   3.288  0.7462 -0.7423 -0.0635
 8039TIP3    H145608   5.417   3.137   3.267 -0.4426 -1.2279  0.7514
 8039TIP3    H245609   5.373   3.227   3.381 -2.0074 -0.1468 -0.6484
 8040TIP3   OH245610   2.227   1.025  13.514 -0.5316 -0.2844 -0.1139
 8040TIP3    H145611   2.291   1.015  13.584  0.1445 -2.0704 -0.9314
 8040TIP3    H245612   2.274   1.072  13.445 -0.1460 -1.3610 -0.6084
 8041TIP3   OH245613   6.813   1.111   4.523 -0.7017 -0.7944  0.3543
 8041TIP3    H145614   6.740   1.166   4.553 -1.4004 -0.4011 -1.8635
 8041TIP3    H245615   6.891   1.157   4.551 -1.2310 -1.1944  2.7456
 8042TIP3   OH245616   5.786   1.188   1.704  0.1785  0.0848  0.5892
 8042TIP3    H145617   5.765   1.126   1.634 -0.8904 -0.4757  1.3749
 8042TIP3    H245618   5.875   1.216   1.685 -0.0674 -0.0847 -0.9723
 8043TIP3   OH245619   4.055   6.060   2.185 -0.2386  0.0111 -0.6527
 8043TIP3    H145620   3.972   6.039   2.144 -0.0792 -1.1910 -0.3969
 8043TIP3    H245621   4.051   6.155   2.201 -2.2173 -0.2437  0.7836
 8044TIP3   OH245622   5.273   5.497  14.923 -0.2833 -0.3307  0.6025
 8044TIP3    H145623   5.348   5.550  14.950 -0.4239  0.2522 -0.0947
 8044TIP3    H245624   5.197   5.550  14.947 -0.4900 -1.0828  1.6388
 8045TIP3   OH245625   1.854   4.847  10.285  1.1557 -0.1667  0.0371
 8045TIP3    H145626   1.903   4.766  10.286  1.2002 -0.1411  1.2009
 8045TIP3    H245627   1.861   4.879  10.195  3.0920 -0.2590  0.1271
 8046TIP3   OH245628   3.512   2.245   3.318  0.2127  0.0698  0.2796
 8046TIP3    H145629   3.556   2.266   3.236  0.3442 -0.4597  0.2126
 8046TIP3    H245630   3.520   2.150   3.326 -1.4606 -0.1364 -0.0662
 8047TIP3   OH245631   1.239   5.910   4.544 -0.7236 -0.0191  0.1396
 8047TIP3    H145632   1.232   5.816   4.525  0.2686 -0.4446  1.6825
 8047TIP3    H245633   1.171   5.926   4.610 -0.0739  0.0437  0.8147
 8048TIP3   OH245634   6.398   3.647   2.513  0.9628  0.2421 -0.1132
 8048TIP3    H145635   6.364   3.694   2.588  0.4611  0.5278 -0.5115
 8048TIP3    H245636   6.388   3.554   2.535 -1.1187  0.2906 -0.6503
 8049TIP3   OH245637   3.128   1.850  13.012 -0.1055 -0.3288 -0.2022
 8049TIP3    H145638   3.049   1.817  13.056  0.0202 -0.4012 -0.0266
 8049TIP3    H245639   3.189   1.869  13.084  1.0402 -2.8193 -0.4177
 8050TIP3   OH245640   6.693   4.143  12.327 -0.1198  0.3212 -0.6218
 8050TIP3    H145641   6.667   4.231  12.355  0.1438  0.4109 -0.6583
 8050TIP3    H245642   6.644   4.128  12.247 -1.6661 -0.3366  0.4011
 8051TIP3   OH245643   1.955   0.496   2.261 -0.6766 -0.4195  0.2711
 8051TIP3    H145644   1.976   0.589   2.258 -1.9669 -0.1278 -0.3606
 8051TIP3    H245645   1.867   0.492   2.297 -0.6675 -1.4024  0.2284
 8052TIP3   OH245646   6.292   5.573  16.493 -0.1457  0.2977 -0.4699
 8052TIP3    H145647   6.255   5.567  16.581 -1.8309  0.3727 -1.1405
 8052TIP3    H245648   6.374   5.523  16.498 -1.7084 -2.3879  0.3682
 8053TIP3   OH245649   4.353   2.136  15.451 -0.7602  0.3536  0.4588
 8053TIP3    H145650   4.391   2.069  15.394 -1.5063  0.0208  0.3418
 8053TIP3    H245651   4.381   2.219  15.413 -0.4128  0.1157  0.1938
 8054TIP3   OH245652   1.810   5.431  15.997  0.3292  0.1138 -0.5923
 8054TIP3    H145653   1.775   5.499  16.054 -0.1955 -0.7644  0.1606
 8054TIP3    H245654   1.773   5.350  16.031  2.4412 -0.7869 -0.2377
 8055TIP3   OH245655   6.839   2.615  16.042 -0.2659 -0.6579  0.1050
 8055TIP3    H145656   6.876   2.690  16.088 -0.7317 -0.2273 -0.2165
 8055TIP3    H245657   6.898   2.542  16.064  0.8701  0.0345 -0.5336
 8056TIP3   OH245658   6.515   3.500   2.774  0.1164  0.0765 -0.3571
 8056TIP3    H145659   6.547   3.498   2.684 -1.1879  0.2453 -0.8442
 8056TIP3    H245660   6.445   3.566   2.773  0.6338  0.6652  0.9685
 8057TIP3   OH245661   5.701   4.701   5.460 -0.4512  0.0360  0.0637
 8057TIP3    H145662   5.701   4.612   5.496 -1.2171  0.5055  1.2696
 8057TIP3    H245663   5.614   4.735   5.480  0.0133  1.2527  0.0803
 8058TIP3   OH245664   3.037   0.019  12.305  0.7103 -0.1355 -0.9681
 8058TIP3    H145665   3.101  -0.051  12.317  1.3502  0.7551  1.4002
 8058TIP3    H245666   2.970   0.001  12.371  1.0654  1.6316 -0.0748
 8059TIP3   OH245667   4.946   6.307   4.696 -0.5946  0.3059 -0.4390
 8059TIP3    H145668   4.893   6.228   4.699 -0.2089  0.0604  0.3190
 8059TIP3    H245669   4.975   6.314   4.605 -1.6706  0.2926 -0.8047
 8060TIP3   OH245670   0.755   6.672   0.013 -0.5628  0.0321 -1.0585
 8060TIP3    H145671   0.767   6.748   0.070 -1.2985 -0.8113  0.2781
 8060TIP3    H245672   0.672   6.687  -0.030 -1.3319 -0.5691  0.1625
 8061TIP3   OH245673   3.230   6.835   4.034  0.1543  0.2948  0.0892
 8061TIP3    H145674   3.235   6.869   4.124 -0.6927  1.3722 -0.2480
 8061TIP3    H245675   3.144   6.862   4.003  0.2041 -0.5778 -0.8572
 8062TIP3   OH245676   6.296   0.798   4.264 -0.5253  0.6860  0.3607
 8062TIP3    H145677   6.326   0.839   4.183  0.9083 -0.0788  0.4789
 8062TIP3    H245678   6.286   0.705   4.243  0.0314  0.4479  1.0986
 8063TIP3   OH245679   0.216   5.753   0.232  0.1638 -0.5984 -0.1947
 8063TIP3    H145680   0.129   5.713   0.227 -0.8596  1.4190  0.4338
 8063TIP3    H245681   0.246   5.734   0.321 -1.1655  1.5277  0.7918
 8064TIP3   OH245682   3.725   4.321   0.880 -0.2962  0.8809 -0.2316
 8064TIP3    H145683   3.765   4.257   0.940 -0.6008  2.3733  1.6728
 8064TIP3    H245684   3.653   4.272   0.839 -0.1803 -0.1822  0.7541
 8065TIP3   OH245685   4.189   6.611   5.934 -0.2215 -0.1153  0.2660
 8065TIP3    H145686   4.261   6.660   5.973 -1.1715  1.1328  0.5039
 8065TIP3    H245687   4.112   6.666   5.947 -1.1043 -1.0883 -0.6232
 8066TIP3   OH245688   3.649   6.085   3.171 -0.3533 -0.1682  0.4221
 8066TIP3    H145689   3.675   6.177   3.176 -1.4589  0.2291 -0.5357
 8066TIP3    H245690   3.723   6.041   3.130 -0.7927  0.7903 -1.5509
 8067TIP3   OH245691   4.921   4.121   4.632 -0.0543 -0.1029  0.1902
 8067TIP3    H145692   4.873   4.157   4.557  1.8301  1.0947 -0.5042
 8067TIP3    H245693   4.990   4.067   4.592  1.5704  1.3095  0.9899
 8068TIP3   OH245694   4.299   0.810   1.013  0.0674  0.1603  0.8820
 8068TIP3    H145695   4.392   0.789   1.020  0.0511 -0.4457 -0.4612
 8068TIP3    H245696   4.292   0.899   1.048  1.1245  0.1570  1.1238
 8069TIP3   OH245697   6.028   6.306   2.309 -0.4314  0.1011 -0.3059
 8069TIP3    H145698   5.980   6.356   2.375  1.6305  1.1532  0.4800
 8069TIP3    H245699   5.966   6.239   2.280 -2.1244  0.9788  1.0996
 8070TIP3   OH245700   2.083   3.180  16.283 -0.0168 -0.2068  0.1269
 8070TIP3    H145701   2.160   3.233  16.305  1.9384 -2.4057 -0.9582
 8070TIP3    H245702   2.061   3.205  16.193 -0.1823 -0.0443  0.2108
 8071TIP3   OH245703   1.863   1.205   2.637 -0.1000  0.3358 -0.0458
 8071TIP3    H145704   1.884   1.129   2.584 -1.6965 -0.7820  0.8513
 8071TIP3    H245705   1.857   1.172   2.726 -1.8878  1.2576  0.2335
 8072TIP3   OH245706   5.314   0.261   2.826 -0.4190  0.0088  0.6318
 8072TIP3    H145707   5.395   0.222   2.792  0.3379  1.1595  1.0510
 8072TIP3    H245708   5.280   0.314   2.754 -0.0931  0.5549  0.8734
 8073TIP3   OH245709   1.768   2.053   3.555 -0.2865  0.2814 -0.2077
 8073TIP3    H145710   1.769   2.091   3.643  0.8536  0.2836 -0.2148
 8073TIP3    H245711   1.809   2.119   3.500  1.9209 -0.9944 -0.1840
 8074TIP3   OH245712   4.126   3.923   0.053 -0.0116  0.2022  0.2492
 8074TIP3    H145713   4.150   3.871  -0.023  0.1851  1.8520 -0.8846
 8074TIP3    H245714   4.185   3.894   0.122 -1.4597 -2.6996  0.4449
 8075TIP3   OH245715   6.286   6.226  16.487 -0.2439 -0.2604  0.1486
 8075TIP3    H145716   6.229   6.200  16.559  1.0513 -1.0672  0.9407
 8075TIP3    H245717   6.327   6.307  16.518  0.6093 -0.8169  0.5230
 8076TIP3   OH245718   2.965   0.149   3.351  0.0574  0.4299  0.0389
 8076TIP3    H145719   3.028   0.221   3.350  1.9018 -0.9668  2.8627
 8076TIP3    H245720   2.993   0.092   3.280  1.5720  0.2224  0.7623
 8077TIP3   OH245721   4.490   0.729   3.139 -0.1362 -0.0440  0.6703
 8077TIP3    H145722   4.399   0.737   3.165 -0.4247 -0.7611 -0.0834
 8077TIP3    H245723   4.532   0.682   3.212 -0.0597  1.4417  1.6246
 8078TIP3   OH245724   4.610   3.757   0.682 -0.3461 -0.0174  0.1652
 8078TIP3    H145725   4.692   3.713   0.658  0.0578  1.0900 -0.5648
 8078TIP3    H245726   4.638   3.844   0.712 -1.0670 -0.4360  2.1844
 8079TIP3   OH245727   1.549   0.650  11.919  0.3553  0.4433 -0.1919
 8079TIP3    H145728   1.559   0.719  11.854 -2.2808  2.1100  1.0069
 8079TIP3    H245729   1.468   0.671  11.965  1.3747 -1.3711  2.7754
 8080TIP3   OH245730   6.337   1.908  11.031 -0.2639  0.4560 -0.1385
 8080TIP3    H145731   6.260   1.876  11.078  1.4319 -2.5318  0.9037
 8080TIP3    H245732   6.310   1.910  10.939 -1.6104 -0.4392  0.2052
 8081TIP3   OH245733   2.651   2.013   5.083 -0.3452  0.4336  0.7719
 8081TIP3    H145734   2.659   2.080   5.015 -0.2754  0.3425  0.6900
 8081TIP3    H245735   2.643   2.062   5.164  2.8625  0.5718  1.1046
 8082TIP3   OH245736   6.078   5.431   5.056  0.0737 -0.0024 -0.1576
 8082TIP3    H145737   6.029   5.359   5.095  1.4360 -0.9516 -0.1036
 8082TIP3    H245738   6.012   5.495   5.030 -0.9978 -0.1123  2.1044
 8083TIP3   OH245739   5.650   4.366  15.773 -0.0736  0.2463  1.1119
 8083TIP3    H145740   5.708   4.340  15.845  0.2674  0.1092  0.7900
 8083TIP3    H245741   5.708   4.374  15.697 -0.5954 -0.7450  0.5849
 8084TIP3   OH245742   5.948   4.004  13.934  0.2236 -0.2256  0.0720
 8084TIP3    H145743   5.999   3.940  13.984 -0.8499  0.4749  2.2191
 8084TIP3    H245744   5.918   4.067  14.000 -0.5974  1.2472 -1.6238
 8085TIP3   OH245745   6.308   1.311   6.242  0.4646  0.3995  0.8603
 8085TIP3    H145746   6.342   1.382   6.296 -0.8593  0.1620  2.0351
 8085TIP3    H245747   6.225   1.287   6.282 -0.9502  0.6896 -1.6880
 8086TIP3   OH245748   1.045   1.972   6.384  0.0278  0.3568  0.0969
 8086TIP3    H145749   1.012   1.882   6.385  0.5254  0.1679  1.0726
 8086TIP3    H245750   1.127   1.968   6.337 -1.2727  0.8327 -2.3623
 8087TIP3   OH245751   4.567   2.165   5.453 -0.0682 -0.3478  0.0173
 8087TIP3    H145752   4.581   2.094   5.391  2.2327  0.4131 -0.4630
 8087TIP3    H245753   4.589   2.127   5.538 -1.7526 -0.9850  0.1875
 8088TIP3   OH245754   4.550   0.455   6.317  0.0282 -0.6857 -0.0900
 8088TIP3    H145755   4.455   0.455   6.305 -0.1385  1.4458  0.8393
 8088TIP3    H245756   4.570   0.367   6.350 -2.0222 -0.3702  2.2943
 8089TIP3   OH245757   0.176   3.239   3.734 -0.3238  0.0039 -0.3917
 8089TIP3    H145758   0.257   3.201   3.768 -0.1451  0.2408 -0.5442
 8089TIP3    H245759   0.141   3.290   3.807  0.1744  0.6916 -0.6278
 8090TIP3   OH245760   5.257   0.536  13.856 -0.2663 -0.1691 -0.3539
 8090TIP3    H145761   5.227   0.575  13.773 -1.9022  0.0104  0.2684
 8090TIP3    H245762   5.352   0.530  13.847 -0.4474 -0.6803 -2.4649
 8091TIP3   OH245763   6.087   0.054   5.008 -0.7610 -0.0993  0.2488
 8091TIP3    H145764   6.159   0.111   5.035 -0.5671  0.0206 -0.4824
 8091TIP3    H245765   6.130  -0.027   4.981 -0.9031 -0.0672 -0.0835
 8092TIP3   OH245766   2.897   4.679  13.365 -0.1746  0.3348 -0.0559
 8092TIP3    H145767   2.834   4.612  13.337 -0.2699  0.5588 -0.3784
 8092TIP3    H245768   2.960   4.684  13.294  0.2951  0.0086  0.3318
 8093TIP3   OH245769   3.236   1.629  11.865  0.1500 -0.0522 -0.4651
 8093TIP3    H145770   3.299   1.580  11.814 -0.2638 -1.3751  0.2528
 8093TIP3    H245771   3.279   1.713  11.882  2.3670 -1.3915  1.1956
 8094TIP3   OH245772   2.647   4.198  11.318  0.0865 -0.3308  0.0400
 8094TIP3    H145773   2.663   4.202  11.412  0.6621  0.6062 -0.0794
 8094TIP3    H245774   2.629   4.106  11.300  0.3320 -0.5766  1.0071
 8095TIP3   OH245775   3.861   5.409  15.212  0.1763  0.1087 -0.0522
 8095TIP3    H145776   3.923   5.337  15.222 -0.7079 -0.5315  0.8954
 8095TIP3    H245777   3.914   5.488  15.228  0.7797 -0.4109  0.5647
 8096TIP3   OH245778   2.311   1.213  11.652  0.1947  0.2194  0.2828
 8096TIP3    H145779   2.318   1.121  11.678 -0.7142  0.2630  0.7045
 8096TIP3    H245780   2.402   1.244  11.651  0.4850 -0.5919  0.4411
 8097TIP3   OH245781   4.210   6.342  11.201 -0.2025  0.2199 -0.1871
 8097TIP3    H145782   4.170   6.416  11.247  1.0898  0.0560  1.2728
 8097TIP3    H245783   4.298   6.372  11.179  0.9381 -1.3144  1.8331
 8098TIP3   OH245784   3.128   1.645   4.728 -0.8248  0.2314  0.2572
 8098TIP3    H145785   3.166   1.695   4.801  0.6134  0.0236 -0.3019
 8098TIP3    H245786   3.049   1.693   4.704  0.0921  1.8201  0.2419
 8099TIP3   OH245787   3.670   6.366   6.452 -0.1063  0.5854 -0.3024
 8099TIP3    H145788   3.674   6.271   6.458 -0.3221  0.5729 -0.3513
 8099TIP3    H245789   3.611   6.383   6.379 -2.3458  0.7546  1.4107
 8100TIP3   OH245790   5.489   3.563   1.443  0.0542  0.1765  0.2336
 8100TIP3    H145791   5.550   3.567   1.516 -0.6051 -2.2569  0.9930
 8100TIP3    H245792   5.543   3.541   1.367  0.3614 -0.2072  0.5616
 8101TIP3   OH245793   3.277   4.002  16.849  0.0775  0.3300 -0.2265
 8101TIP3    H145794   3.261   3.934  16.784 -3.4911  0.2357  0.5498
 8101TIP3    H245795   3.244   3.966  16.931 -0.1304  2.2446  0.5990
 8102TIP3   OH245796   0.222   5.230  16.722 -0.5878 -0.1413  0.1618
 8102TIP3    H145797   0.146   5.209  16.668  0.7011 -0.7204 -1.5144
 8102TIP3    H245798   0.296   5.227  16.662  1.0799 -1.7367  2.1274
 8103TIP3   OH245799   1.270   5.335  15.451  0.0914  0.0157  0.2119
 8103TIP3    H145800   1.364   5.329  15.430  0.3415  2.3350  0.3968
 8103TIP3    H245801   1.239   5.410  15.401 -0.2881  3.0533  4.4748
 8104TIP3   OH245802   1.589   5.059   0.791  0.5588  0.0280  0.0169
 8104TIP3    H145803   1.567   5.029   0.703  1.6311 -2.1535  0.4163
 8104TIP3    H245804   1.538   5.002   0.849  0.6459  0.7603  0.8300
 8105TIP3   OH245805   4.893   5.862   3.366 -0.3292  1.0276  0.0082
 8105TIP3    H145806   4.816   5.805   3.357  0.8731 -0.7089  0.0963
 8105TIP3    H245807   4.876   5.912   3.445 -0.3487 -1.1035  1.4570
 8106TIP3   OH245808   3.573   0.670   5.735  0.1836 -0.8556  0.5969
 8106TIP3    H145809   3.563   0.583   5.697 -0.1281 -1.6197  2.3191
 8106TIP3    H245810   3.549   0.659   5.827 -2.2841  1.5505  0.3685
 8107TIP3   OH245811   2.129   4.833  10.442 -0.1217 -0.0958 -0.3108
 8107TIP3    H145812   2.172   4.748  10.448  0.3108  0.2035  1.1982
 8107TIP3    H245813   2.148   4.863  10.352  0.4219 -1.2110 -0.5857
 8108TIP3   OH245814   0.874   6.406  15.065  0.3154 -0.1446  0.0689
 8108TIP3    H145815   0.870   6.472  14.995 -3.3764 -2.5303 -2.2825
 8108TIP3    H245816   0.835   6.328  15.027 -2.7815 -1.4519  5.0012
 8109TIP3   OH245817   4.542   2.572   0.880 -0.4325  0.0431  0.4973
 8109TIP3    H145818   4.497   2.656   0.868  0.0681  0.2033 -0.2798
 8109TIP3    H245819   4.634   2.591   0.863 -0.1490 -0.4216  1.4519
 8110TIP3   OH245820   2.826   1.170  15.968  0.3664 -0.1855  0.2515
 8110TIP3    H145821   2.835   1.218  15.886 -0.1197  1.6530  1.2272
 8110TIP3    H245822   2.850   1.080  15.946  1.0167  0.4264 -1.7134
 8111TIP3   OH245823   5.700   0.186  16.130  0.2214 -0.4550  0.4841
 8111TIP3    H145824   5.720   0.093  16.141  1.4152 -0.3384 -0.4369
 8111TIP3    H245825   5.785   0.228  16.122 -0.2015  0.0752 -3.8201
 8112TIP3   OH245826   1.545   5.564   4.181  0.0584 -0.1464 -0.2779
 8112TIP3    H145827   1.634   5.575   4.149  0.0152  0.7699 -0.1207
 8112TIP3    H245828   1.532   5.636   4.243  0.0924 -1.7540  1.7466
 8113TIP3   OH245829   3.626   4.819  13.095  0.4513 -0.1090  0.2240
 8113TIP3    H145830   3.571   4.742  13.081  1.7919 -1.6786  2.7522
 8113TIP3    H245831   3.667   4.834  13.010 -0.6070 -1.5697 -0.5954
 8114TIP3   OH245832   1.242   4.660  11.168 -0.2461 -0.0317 -0.3355
 8114TIP3    H145833   1.310   4.685  11.229 -2.7386  0.1445  2.6041
 8114TIP3    H245834   1.284   4.664  11.082  4.0865 -2.3099  1.3640
 8115TIP3   OH245835   6.571   6.006   0.870  0.0295 -0.3567  0.6865
 8115TIP3    H145836   6.606   5.923   0.837 -1.0644 -0.8192  0.6600
 8115TIP3    H245837   6.648   6.062   0.880  0.5732 -0.7255 -1.1307
 8116TIP3   OH245838   5.734   4.141   0.511  0.4401 -0.3119 -0.2129
 8116TIP3    H145839   5.774   4.217   0.554 -1.5755  1.5102 -1.3847
 8116TIP3    H245840   5.741   4.071   0.576  2.0653  0.9289  1.0433
 8117TIP3   OH245841   0.114   6.712   1.586 -0.6286 -0.6373 -0.5181
 8117TIP3    H145842   0.128   6.719   1.681  0.4414 -0.3542 -0.6887
 8117TIP3    H245843   0.043   6.774   1.569  0.6536  1.0027 -0.2001
 8118TIP3   OH245844   2.850   1.328   0.772  0.2696 -0.4535  0.8834
 8118TIP3    H145845   2.819   1.344   0.683 -1.8148 -0.1898  1.6116
 8118TIP3    H245846   2.943   1.352   0.769 -0.4900  2.9174 -0.4249
 8119TIP3   OH245847   5.459   2.961   3.248 -0.3480 -0.2525 -0.1266
 8119TIP3    H145848   5.491   2.970   3.158  0.6006 -1.3473  0.0857
 8119TIP3    H245849   5.389   2.896   3.242  1.7225 -2.6645  0.3268
 8120TIP3   OH245850   0.477   1.232   2.153  0.0652 -0.7702  0.2484
 8120TIP3    H145851   0.565   1.266   2.167  0.5735 -2.2910  1.0713
 8120TIP3    H245852   0.428   1.259   2.231  0.6007 -2.2220  1.1372
 8121TIP3   OH245853   1.179   0.175  14.740  0.7751  0.1608 -0.1835
 8121TIP3    H145854   1.113   0.176  14.809  0.4693  0.4646 -0.4790
 8121TIP3    H245855   1.217   0.088  14.745  0.3092 -0.0386 -0.0540
 8122TIP3   OH245856   2.300   2.452  13.582 -0.1345  0.4155 -0.1321
 8122TIP3    H145857   2.328   2.420  13.497  0.7637  0.5147  0.1215
 8122TIP3    H245858   2.303   2.548  13.574  1.7776  0.4563  0.5675
 8123TIP3   OH245859   6.404   4.201  11.476 -0.0707  0.0994 -0.3085
 8123TIP3    H145860   6.489   4.217  11.518 -0.5359  0.7645  0.4041
 8123TIP3    H245861   6.420   4.218  11.383  0.6457 -0.0620 -0.2229
 8124TIP3   OH245862   3.253   1.860   1.912 -0.1527 -0.1201  0.8454
 8124TIP3    H145863   3.272   1.953   1.924  0.9485 -0.0674 -0.9528
 8124TIP3    H245864   3.161   1.857   1.887  0.3222  0.7691 -1.2781
 8125TIP3   OH245865   3.231   6.654   2.315  0.3896 -0.5434 -0.0711
 8125TIP3    H145866   3.244   6.589   2.383  0.9599  0.5055  0.8547
 8125TIP3    H245867   3.275   6.618   2.238  1.1842 -0.9984  0.5794
 8126TIP3   OH245868   6.356   6.544  10.596 -0.5918 -0.0722  0.5303
 8126TIP3    H145869   6.432   6.583  10.552 -1.4024 -0.2613 -1.0853
 8126TIP3    H245870   6.372   6.561  10.689  1.8539 -0.8728  0.3225
 8127TIP3   OH245871   4.566   3.512  14.568  0.2590  0.4771 -0.2074
 8127TIP3    H145872   4.580   3.479  14.657 -1.8153 -1.5691 -0.5222
 8127TIP3    H245873   4.630   3.582  14.558  3.1658 -1.6919  1.5736
 8128TIP3   OH245874   5.224   3.456   1.029  0.2701 -0.2272 -0.3406
 8128TIP3    H145875   5.311   3.484   1.002  0.3667 -0.8607 -0.7139
 8128TIP3    H245876   5.178   3.438   0.947 -1.1224  2.6430 -0.3118
 8129TIP3   OH245877   6.354   4.338   3.735  0.3477 -0.0498 -0.0230
 8129TIP3    H145878   6.293   4.280   3.781 -1.2370  0.2743 -1.6068
 8129TIP3    H245879   6.417   4.279   3.694 -0.1246 -0.5382 -0.0566
 8130TIP3   OH245880   5.473   4.073  10.738 -0.1682  0.2699 -0.7971
 8130TIP3    H145881   5.538   4.110  10.678  2.3337 -0.5339  1.2414
 8130TIP3    H245882   5.411   4.145  10.753  1.3739  1.7648 -1.2882
 8131TIP3   OH245883   2.568   5.141   3.886 -0.0465  0.1266 -0.2484
 8131TIP3    H145884   2.642   5.163   3.942 -0.8360  1.3560  0.3553
 8131TIP3    H245885   2.566   5.210   3.820 -0.0760 -0.4442 -0.8570
 8132TIP3   OH245886   2.610   4.288   1.224  0.2271 -0.5148  0.2303
 8132TIP3    H145887   2.528   4.289   1.176 -0.4097  2.9238  1.1517
 8132TIP3    H245888   2.675   4.319   1.161  0.2819 -0.5643  0.2625
 8133TIP3   OH245889   0.875   6.715  13.522 -0.0645  0.5268 -0.1940
 8133TIP3    H145890   0.822   6.713  13.442 -0.5435 -0.0198  0.1207
 8133TIP3    H245891   0.962   6.687  13.494  0.2611  2.1094 -0.8510
 8134TIP3   OH245892   6.344   2.847  14.963  0.0388 -0.0432 -0.3223
 8134TIP3    H145893   6.423   2.799  14.988  1.1490  1.3402 -0.9993
 8134TIP3    H245894   6.362   2.878  14.874 -0.4711  1.8603  0.1874
 8135TIP3   OH245895   1.403   3.879   4.864 -0.0909  0.2477 -0.2032
 8135TIP3    H145896   1.492   3.906   4.841  0.5392 -0.7375  1.0029
 8135TIP3    H245897   1.353   3.893   4.783  0.7324  2.5199 -0.3811
 8136TIP3   OH245898   0.077   6.089  16.600  0.0333  0.1047 -0.2696
 8136TIP3    H145899   0.167   6.108  16.574 -0.0950 -0.2329 -0.9764
 8136TIP3    H245900   0.041   6.173  16.630  0.7317  0.1469  0.4952
 8137TIP3   OH245901   1.540   4.392  13.268 -0.2436  0.5176  0.3271
 8137TIP3    H145902   1.472   4.326  13.282  0.6169 -0.0122  2.4582
 8137TIP3    H245903   1.517   4.433  13.185 -0.7557 -2.5421 -1.2049
 8138TIP3   OH245904   5.240   5.089   0.190  0.3593  0.5753 -0.1098
 8138TIP3    H145905   5.180   5.112   0.119  0.9320 -1.5480 -1.3816
 8138TIP3    H245906   5.239   5.164   0.248 -3.4832  0.6674 -0.0671
 8139TIP3   OH245907   4.317   6.539   3.505 -0.1948  0.7453 -0.6075
 8139TIP3    H145908   4.281   6.453   3.486  0.4142  0.5866 -1.1013
 8139TIP3    H245909   4.244   6.600   3.492 -0.8385  0.2374  0.5165
 8140TIP3   OH245910   0.678   3.836   2.136 -0.1804 -0.3133  0.5606
 8140TIP3    H145911   0.691   3.867   2.225  1.0541 -2.2230  1.1123
 8140TIP3    H245912   0.601   3.884   2.104  0.7285  2.1364  1.7808
 8141TIP3   OH245913   1.962   3.449   1.461  0.3362 -0.4432  0.6098
 8141TIP3    H145914   1.901   3.472   1.531 -1.5492 -1.4246 -0.6619
 8141TIP3    H245915   1.944   3.513   1.392  0.0658 -1.3311 -0.1504
 8142TIP3   OH245916   0.174   6.572   2.251  0.1770 -0.0028  0.0300
 8142TIP3    H145917   0.254   6.618   2.225  0.5426  0.6544  2.1634
 8142TIP3    H245918   0.184   6.484   2.214  1.0397  0.6011 -1.2365
 8143TIP3   OH245919   4.568   5.410   5.215 -0.0037 -0.1865 -0.0828
 8143TIP3    H145920   4.528   5.372   5.293 -1.5291 -0.8122 -1.1085
 8143TIP3    H245921   4.660   5.422   5.238 -0.0423 -1.9864  1.2299
 8144TIP3   OH245922   6.559   6.640  17.072  0.3373 -0.1885  0.1025
 8144TIP3    H145923   6.614   6.562  17.066 -0.3414 -0.8224  1.5113
 8144TIP3    H245924   6.589   6.696  17.000  2.5857 -0.6410  0.5916
 8145TIP3   OH245925   1.450   0.562   4.665  0.0721  0.6928  0.1462
 8145TIP3    H145926   1.392   0.565   4.740  0.0232  0.2285  0.1304
 8145TIP3    H245927   1.537   0.578   4.701  0.3925 -1.8129  0.6885
 8146TIP3   OH245928   4.580   6.078   1.952  0.1177  0.2032  0.4030
 8146TIP3    H145929   4.669   6.094   1.924  0.4246 -0.3260  1.0430
 8146TIP3    H245930   4.550   6.162   1.987  0.7702  0.0880  1.2582
 8147TIP3   OH245931   0.442   6.837  11.652 -0.6142 -0.1284 -0.3263
 8147TIP3    H145932   0.478   6.845  11.564  0.6014  0.9446  0.2479
 8147TIP3    H245933   0.408   6.924  11.673  0.9779  0.2167  1.0329
 8148TIP3   OH245934   2.590   1.810  11.999  0.3715 -0.1183  0.1838
 8148TIP3    H145935   2.511   1.855  11.969  1.5103  1.7289 -0.1967
 8148TIP3    H245936   2.587   1.816  12.094  0.5675  0.9325  0.1358
 8149TIP3   OH245937   0.433   3.316  11.239  0.3153  0.0233  0.4951
 8149TIP3    H145938   0.418   3.406  11.266 -1.1721  0.3649 -1.2832
 8149TIP3    H245939   0.492   3.323  11.164  0.6078 -0.5442  0.6578
 8150TIP3   OH245940   5.141   0.241  11.800  0.5697 -0.1871 -0.2124
 8150TIP3    H145941   5.215   0.292  11.833  1.0090  0.2204 -1.7538
 8150TIP3    H245942   5.180   0.158  11.771  0.3678 -0.1350 -0.6430
 8151TIP3   OH245943   3.340   1.005   0.062 -0.4642  0.0327  0.2181
 8151TIP3    H145944   3.392   1.074   0.021  1.9230 -1.4303  0.5652
 8151TIP3    H245945   3.321   0.944  -0.009 -0.1655 -0.3009  0.4213
 8152TIP3   OH245946   0.088   6.585  10.186 -0.5131  0.2937  0.1010
 8152TIP3    H145947   0.103   6.498  10.222 -0.0109  0.0125 -0.7462
 8152TIP3    H245948   0.161   6.598  10.125 -0.2153  1.5832  0.7098
 8153TIP3   OH245949   3.280   0.325   3.005  0.1575 -0.5254  0.4932
 8153TIP3    H145950   3.371   0.352   3.017  0.1693 -0.5206  0.3948
 8153TIP3    H245951   3.262   0.342   2.913  0.5885 -2.1217  0.0793
 8154TIP3   OH245952   4.792   2.897  13.046 -0.6142  0.2256 -0.4607
 8154TIP3    H145953   4.833   2.902  12.960  2.0904  1.1165  0.7915
 8154TIP3    H245954   4.834   2.966  13.097 -0.1311 -1.9661  2.3496
 8155TIP3   OH245955   3.799   4.553   2.012  0.4655  0.7314 -0.8950
 8155TIP3    H145956   3.764   4.642   2.018  1.6453  1.1336  0.6277
 8155TIP3    H245957   3.728   4.497   2.044  0.6294  1.4016  0.7628
 8156TIP3   OH245958   1.959   5.311   2.935  1.1093  0.4945 -0.3204
 8156TIP3    H145959   1.988   5.402   2.936  1.8873  0.2548 -0.7733
 8156TIP3    H245960   1.914   5.300   3.019  2.3028  0.8724  0.3867
 8157TIP3   OH245961   5.466   2.150   5.529 -0.1249 -0.0187 -0.5162
 8157TIP3    H145962   5.478   2.061   5.560  2.0173  1.0980  2.2981
 8157TIP3    H245963   5.485   2.205   5.605 -0.2916  2.8827 -2.4086
 8158TIP3   OH245964   3.083   1.956  10.625 -0.9422 -0.6496 -0.7563
 8158TIP3    H145965   3.011   1.955  10.562 -1.2911  0.1318 -0.3828
 8158TIP3    H245966   3.161   1.965  10.571 -1.1076 -1.5717 -1.1707
 8159TIP3   OH245967   6.009   3.348  13.283 -0.4372 -0.1096 -0.0774
 8159TIP3    H145968   6.025   3.356  13.189  0.9188 -0.8034  0.0672
 8159TIP3    H245969   5.914   3.347  13.291 -0.6019  1.4061 -1.3010
 8160TIP3   OH245970   6.308   6.159   4.017 -0.1180 -0.3769  0.2519
 8160TIP3    H145971   6.334   6.090   4.079 -0.8343  0.6433  1.7600
 8160TIP3    H245972   6.248   6.214   4.067 -0.5390  0.6462 -1.3113
 8161TIP3   OH245973   0.042   0.417   1.826 -0.3702 -0.2979 -0.2619
 8161TIP3    H145974   0.059   0.426   1.732  0.2153  1.1277 -0.0452
 8161TIP3    H245975   0.022   0.506   1.856 -0.8035 -0.7687  0.9197
 8162TIP3   OH245976   3.402   0.588  11.143 -0.3305 -0.1175  0.3592
 8162TIP3    H145977   3.496   0.608  11.138  0.4436 -2.3988  3.1861
 8162TIP3    H245978   3.376   0.577  11.052  2.0525  0.9104 -0.5479
 8163TIP3   OH245979   6.226   3.562   4.237 -0.1698  0.6284 -0.6448
 8163TIP3    H145980   6.221   3.499   4.164 -0.6959  1.2888 -1.1968
 8163TIP3    H245981   6.154   3.623   4.220 -1.1215  0.0634  1.1339
 8164TIP3   OH245982   5.051   0.681  13.361 -0.2960 -0.1344  0.0524
 8164TIP3    H145983   5.093   0.667  13.446 -1.7986 -0.1768  0.8303
 8164TIP3    H245984   5.108   0.638  13.298  0.0432 -1.5159  1.2459
 8165TIP3   OH245985   4.134   2.694   4.677  0.0694 -0.0776  0.3932
 8165TIP3    H145986   4.182   2.735   4.605 -0.8401  1.5267  0.6555
 8165TIP3    H245987   4.200   2.680   4.745  0.4495  0.8099  0.2227
 8166TIP3   OH245988   3.893   6.579   2.646 -0.1042 -0.1278  0.5950
 8166TIP3    H145989   3.937   6.625   2.718  0.2864 -0.5865  0.6650
 8166TIP3    H245990   3.902   6.637   2.571 -0.3765  0.2874  0.8837
 8167TIP3   OH245991   2.375   6.808   3.832 -0.1036 -0.2012 -0.0905
 8167TIP3    H145992   2.370   6.890   3.880 -0.5926  0.0237 -0.5047
 8167TIP3    H245993   2.421   6.830   3.751 -2.0257  0.1822 -1.1685
 8168TIP3   OH245994   2.827   6.583   0.296 -0.1917  0.0995 -0.4640
 8168TIP3    H145995   2.917   6.567   0.267  0.2104 -0.0511  0.8097
 8168TIP3    H245996   2.826   6.558   0.388 -1.3788  0.7302 -0.2771
 8169TIP3   OH245997   0.865   2.586   5.993 -0.4088 -0.0782 -0.0917
 8169TIP3    H145998   0.927   2.659   5.986  1.7278 -1.8037  0.0967
 8169TIP3    H245999   0.841   2.585   6.086 -0.1984  0.1813 -0.0312
 8170TIP3   OH246000   2.271   4.362   4.012  0.1171 -0.4094 -0.1480
 8170TIP3    H146001   2.298   4.299   3.944 -0.9664 -0.8207 -0.2120
 8170TIP3    H246002   2.242   4.308   4.085 -2.3824 -0.0704 -0.7945
 8171TIP3   OH246003   4.512   6.379   5.819 -0.2984 -0.1481  0.3551
 8171TIP3    H146004   4.419   6.358   5.810 -0.3365  0.4064 -0.7053
 8171TIP3    H246005   4.533   6.430   5.741  0.9601 -0.4785  0.4474
 8172TIP3   OH246006   4.679   5.381   6.155 -0.0957  0.1901 -0.2145
 8172TIP3    H146007   4.597   5.352   6.194 -0.1272  1.1864  0.4830
 8172TIP3    H246008   4.747   5.350   6.215 -0.0560  0.6339 -0.0344
 8173TIP3   OH246009   4.215   5.052  13.475 -0.1316  0.6099  0.1029
 8173TIP3    H146010   4.305   5.049  13.442 -0.4575  2.4500 -1.0943
 8173TIP3    H246011   4.167   4.994  13.417  0.2212 -0.2047  0.6064
 8174TIP3   OH246012   2.879   3.001  11.677  0.7946 -0.5006 -0.0511
 8174TIP3    H146013   2.787   2.991  11.701  0.7361  0.0074 -0.0491
 8174TIP3    H246014   2.912   3.068  11.737  0.1360  2.3108 -2.5821
 8175TIP3   OH246015   2.970   5.056   5.515  0.7790 -0.8278  0.6873
 8175TIP3    H146016   3.043   5.115   5.501  0.9243 -1.0015  0.7058
 8175TIP3    H246017   2.987   4.982   5.457  0.1654 -0.4699  0.0318
 8176TIP3   OH246018   5.308   3.071  16.882  0.1649  0.6887 -0.1292
 8176TIP3    H146019   5.275   2.984  16.907 -0.0943  0.4558 -1.2282
 8176TIP3    H246020   5.363   3.055  16.806 -0.1206  1.5282 -0.5194
 8177TIP3   OH246021   5.196   1.429  11.696  0.2639 -0.4170 -0.1896
 8177TIP3    H146022   5.175   1.387  11.780 -0.6197 -2.3934 -1.3355
 8177TIP3    H246023   5.164   1.518  11.705  2.0268  0.0920  2.2877
 8178TIP3   OH246024   3.267   5.734  14.746  0.3788 -0.6401  0.2538
 8178TIP3    H146025   3.288   5.827  14.749 -0.6112 -0.3714 -0.5626
 8178TIP3    H246026   3.339   5.694  14.697  0.9884 -0.3725  0.9164
 8179TIP3   OH246027   1.482   6.689   1.508 -0.3549  0.2548 -0.5121
 8179TIP3    H146028   1.416   6.736   1.457 -0.2708  0.0613 -0.8013
 8179TIP3    H246029   1.541   6.652   1.442  0.9587  1.7450 -0.2432
 8180TIP3   OH246030   0.013   0.932   4.337  0.4027 -0.0855  0.1374
 8180TIP3    H146031   0.093   0.905   4.381  0.2626 -0.0491  0.4162
 8180TIP3    H246032  -0.020   1.005   4.389 -0.9714 -1.4814  1.3171
 8181TIP3   OH246033   5.927   5.845  11.496 -0.1053 -0.2258 -0.3178
 8181TIP3    H146034   5.887   5.914  11.550 -0.2681 -1.2700  0.9618
 8181TIP3    H246035   6.012   5.830  11.537  0.5353  0.2005 -1.4676
 8182TIP3   OH246036   6.416   4.170  14.473  0.2144 -0.0795 -0.3041
 8182TIP3    H146037   6.434   4.129  14.388  1.1844 -0.3258  0.0054
 8182TIP3    H246038   6.443   4.104  14.537  1.6925  0.9802  0.2035
 8183TIP3   OH246039   2.565   4.828  16.009 -0.6491  0.2795 -0.1717
 8183TIP3    H146040   2.644   4.773  16.010 -0.6665  0.2558  0.2784
 8183TIP3    H246041   2.503   4.779  15.955  0.1327  1.0120 -1.7843
 8184TIP3   OH246042   2.915   1.305  10.232 -0.4405  0.0985 -0.1436
 8184TIP3    H146043   2.892   1.396  10.215  0.4646  0.3401 -0.1219
 8184TIP3    H246044   2.853   1.254  10.179 -0.7429  0.7315 -0.4063
 8185TIP3   OH246045   4.081   6.556  15.018 -0.0607 -0.5524  0.0339
 8185TIP3    H146046   4.155   6.564  14.958 -0.2918 -2.3895 -0.5811
 8185TIP3    H246047   4.057   6.646  15.040  0.9412  0.1369 -1.5222
 8186TIP3   OH246048   3.212   3.954  10.567 -0.2397 -0.1554 -0.4300
 8186TIP3    H146049   3.264   4.032  10.552 -0.1025 -0.1960 -0.1782
 8186TIP3    H246050   3.277   3.884  10.578 -0.1540  0.3095  3.0990
 8187TIP3   OH246051   0.362   1.716  12.095  0.6329  0.8922 -0.0934
 8187TIP3    H146052   0.325   1.764  12.169 -1.0859 -0.1723 -0.2154
 8187TIP3    H246053   0.388   1.631  12.132  1.7244  1.1216 -0.3012
 8188TIP3   OH246054   6.330   1.588   5.080 -0.1762 -0.3533  0.5353
 8188TIP3    H146055   6.276   1.511   5.101 -1.8932  1.0551  1.5712
 8188TIP3    H246056   6.323   1.596   4.985 -0.7545 -0.9467  0.5211
 8189TIP3   OH246057   1.235   3.951   1.623  0.4026  0.2909 -0.3940
 8189TIP3    H146058   1.160   4.000   1.590  0.2673  0.3820  0.0424
 8189TIP3    H246059   1.308   3.975   1.566  0.1561  0.3925 -0.6645
 8190TIP3   OH246060   3.478   0.221   0.874  0.0866 -0.0464 -0.1012
 8190TIP3    H146061   3.567   0.228   0.909 -0.0710  0.9959  0.1318
 8190TIP3    H246062   3.478   0.278   0.797 -0.9560  1.7474  1.1447
 8191TIP3   OH246063   2.403   2.021  11.604  0.0612  0.4476  0.2231
 8191TIP3    H146064   2.485   2.022  11.555 -0.4256 -1.0225 -0.6950
 8191TIP3    H246065   2.352   1.950  11.564 -0.7140 -0.2551  2.3235
 8192TIP3   OH246066   1.712   6.012   1.450 -0.1229  0.4642  0.2118
 8192TIP3    H146067   1.658   6.024   1.372  1.6635  3.2221 -0.7602
 8192TIP3    H246068   1.659   5.957   1.508 -2.3206 -0.0787 -2.1497
 8193TIP3   OH246069   0.714   4.263   0.574 -0.0285 -0.4977 -0.1949
 8193TIP3    H146070   0.782   4.237   0.637  0.7916 -1.1245 -1.3133
 8193TIP3    H246071   0.668   4.182   0.554  0.0659 -0.3998 -0.8112
 8194TIP3   OH246072   0.546   3.449   4.317 -0.2389 -0.1342  0.3094
 8194TIP3    H146073   0.584   3.535   4.337  0.1881 -0.0597 -0.7556
 8194TIP3    H246074   0.606   3.411   4.253 -0.8571 -0.8950  0.1719
 8195TIP3   OH246075   3.634   6.070   5.261  0.7422  0.1443  0.7263
 8195TIP3    H146076   3.610   6.160   5.239  1.0874  0.3621  1.2474
 8195TIP3    H246077   3.585   6.051   5.341  0.7820 -0.0884  0.6957
 8196TIP3   OH246078   0.002   1.781   5.178 -0.2824 -0.6167 -0.3091
 8196TIP3    H146079  -0.011   1.728   5.099  1.6312 -3.3472  1.0422
 8196TIP3    H246080   0.095   1.803   5.177 -0.6070  0.8777  0.3176
 8197TIP3   OH246081   4.018   3.481   3.419  0.1169 -0.9498  0.0291
 8197TIP3    H146082   3.993   3.390   3.435 -0.3028 -0.5975  1.5208
 8197TIP3    H246083   4.055   3.481   3.331 -0.4752 -2.4395 -0.2392
 8198TIP3   OH246084   1.401   5.352  13.593  0.3482  0.4643  0.4115
 8198TIP3    H146085   1.444   5.429  13.557  0.3174 -0.3983 -1.6117
 8198TIP3    H246086   1.472   5.289  13.608  0.1623  0.1703  0.0871
 8199TIP3   OH246087   4.083   2.133   4.122 -0.2405  0.7626  0.6347
 8199TIP3    H146088   4.015   2.072   4.149  0.6414 -1.2490 -1.3175
 8199TIP3    H246089   4.147   2.131   4.193 -0.2430 -0.6367  0.6243
 8200TIP3   OH246090   2.860   0.709   4.122 -0.0686  0.3353 -0.0562
 8200TIP3    H146091   2.951   0.738   4.112  0.2530 -0.4332  0.5328
 8200TIP3    H246092   2.824   0.764   4.191  0.3618 -0.2650  0.6522
 8201TIP3   OH246093   3.768   5.160   0.311 -0.5940  0.1607 -0.3241
 8201TIP3    H146094   3.692   5.130   0.360  0.3144  2.1447  2.5704
 8201TIP3    H246095   3.754   5.254   0.298  1.0182  0.4374 -0.3556
 8202TIP3   OH246096   2.973   3.590  16.520  0.4408 -0.0541  0.1205
 8202TIP3    H146097   3.066   3.571  16.510  0.5469  0.4375  0.1175
 8202TIP3    H246098   2.952   3.645  16.445  0.3893  0.6581  0.6468
 8203TIP3   OH246099   5.674   4.675   3.628 -0.2089  0.1730  0.2847
 8203TIP3    H146100   5.714   4.604   3.578  1.7759  1.5714 -0.2248
 8203TIP3    H246101   5.620   4.722   3.564  0.8983  0.8883 -0.1561
 8204TIP3   OH246102   6.005   0.633   1.164 -0.1247 -0.3437 -0.1961
 8204TIP3    H146103   6.050   0.711   1.195 -1.7281  0.8752 -0.8055
 8204TIP3    H246104   5.972   0.592   1.244 -0.3931  0.3220  0.0379
 8205TIP3   OH246105   1.720   4.964   3.338 -0.2009  0.2481  0.6702
 8205TIP3    H146106   1.802   4.919   3.360  1.2168  2.7613  0.9850
 8205TIP3    H246107   1.651   4.902   3.361  1.5806 -2.0546  0.2288
 8206TIP3   OH246108   2.166   3.169   5.676  0.3664  0.3366 -0.5036
 8206TIP3    H146109   2.241   3.124   5.638  0.9172  1.8471 -1.2983
 8206TIP3    H246110   2.193   3.189   5.766  0.6963  0.3648 -0.6092
 8207TIP3   OH246111   1.467   1.802  11.614 -1.2109 -0.0577  0.9436
 8207TIP3    H146112   1.543   1.751  11.586 -1.3419 -0.4087  1.2165
 8207TIP3    H246113   1.402   1.787  11.546 -1.0913  0.1110  0.7926
 8208TIP3   OH246114   6.758   3.129   5.991  0.0449  0.3496  0.1776
 8208TIP3    H146115   6.792   3.120   6.080 -0.0140  0.3966  0.2049
 8208TIP3    H246116   6.792   3.053   5.944 -0.0035  0.2746  0.2648
 8209TIP3   OH246117   4.964   3.537   6.338 -0.0778 -0.2344  0.5202
 8209TIP3    H146118   4.893   3.515   6.278 -1.6149  3.2985  0.8034
 8209TIP3    H246119   5.035   3.567   6.281 -1.1059  1.9799  0.3021
 8210TIP3   OH246120   2.622   2.703  12.305 -0.2408  0.4912  0.3015
 8210TIP3    H146121   2.541   2.708  12.356 -0.6989 -1.4852 -0.1472
 8210TIP3    H246122   2.690   2.689  12.370 -0.3440  1.3059  0.6059
 8211TIP3   OH246123   0.402   3.809  14.611 -0.3613 -0.0017  0.7327
 8211TIP3    H146124   0.420   3.719  14.584 -0.0093  1.0430 -3.1138
 8211TIP3    H246125   0.465   3.825  14.682  2.0858 -1.7162 -0.8775
 8212TIP3   OH246126   1.568   1.467  13.703 -0.4114 -0.0691 -0.1008
 8212TIP3    H146127   1.569   1.410  13.626  0.2624 -0.7155  0.3695
 8212TIP3    H246128   1.658   1.465  13.735 -0.8548 -0.4844  1.1849
 8213TIP3   OH246129   3.567   1.784   5.147 -0.2164  0.1857  0.6496
 8213TIP3    H146130   3.532   1.871   5.166  0.5578  0.4316  0.9929
 8213TIP3    H246131   3.565   1.777   5.052  1.3714  1.3047  0.4887
 8214TIP3   OH246132   0.277   6.256  14.418 -0.1750 -0.3357 -0.0925
 8214TIP3    H146133   0.207   6.262  14.483  0.9696 -1.4244  1.3227
 8214TIP3    H246134   0.308   6.165  14.425  1.4574  0.1572 -0.5595
 8215TIP3   OH246135   6.804   3.313   1.459 -0.0098 -0.6530 -0.8048
 8215TIP3    H146136   6.849   3.297   1.376  0.7940 -0.5459 -0.4059
 8215TIP3    H246137   6.768   3.401   1.450 -1.0783 -1.1497 -1.5312
 8216TIP3   OH246138   4.978   0.796   2.347 -0.9104  0.1099 -0.5999
 8216TIP3    H146139   4.883   0.808   2.356 -1.1036 -0.0830 -2.1485
 8216TIP3    H246140   5.004   0.861   2.282 -0.1271 -0.4155 -0.8242
 8217TIP3   OH246141   2.297   1.210   2.451  0.0752 -0.1597  0.2702
 8217TIP3    H146142   2.247   1.181   2.374 -0.5150  0.7181  0.3060
 8217TIP3    H246143   2.387   1.182   2.433 -0.3600 -1.4868  0.0575
 8218TIP3   OH246144   5.119   1.299   3.584  0.3698 -0.0762  0.2365
 8218TIP3    H146145   5.146   1.311   3.675  0.1553 -1.3752  0.4903
 8218TIP3    H246146   5.160   1.217   3.557 -0.0696 -0.0241 -0.6417
 8219TIP3   OH246147   5.628   3.232   1.829  0.1715 -0.0202 -0.0669
 8219TIP3    H146148   5.551   3.271   1.870  0.1296 -1.7957  1.7087
 8219TIP3    H246149   5.604   3.224   1.736 -0.6487  1.9948 -0.0722
 8220TIP3   OH246150   6.714   0.055  12.024  0.2856  0.0757  0.4772
 8220TIP3    H146151   6.757  -0.031  12.017 -0.4863 -0.3187  0.4656
 8220TIP3    H246152   6.632   0.045  11.976  1.1714  1.5134 -1.4387
 8221TIP3   OH246153   5.800   4.542  14.328 -0.0804 -0.4391 -0.0389
 8221TIP3    H146154   5.733   4.595  14.285  0.0686 -1.8025 -2.0818
 8221TIP3    H246155   5.847   4.501  14.256  1.3777 -1.4247  1.4268
 8222TIP3   OH246156   2.029   5.263   3.439  0.3306 -0.2404 -0.5409
 8222TIP3    H146157   2.082   5.246   3.517  1.6627 -0.9320 -1.5342
 8222TIP3    H246158   2.057   5.195   3.377 -1.2798 -0.2064 -1.3419
 8223TIP3   OH246159   0.943   1.128   3.814  0.2646  0.2612  0.4175
 8223TIP3    H146160   0.990   1.113   3.896  0.7055  0.8344  0.2776
 8223TIP3    H246161   0.998   1.191   3.766 -0.5642  0.8230  0.1820
 8224TIP3   OH246162   1.709   0.939  16.260  0.1468  0.0132  0.0185
 8224TIP3    H146163   1.626   0.969  16.224  0.0219 -0.9352 -0.5267
 8224TIP3    H246164   1.732   0.863  16.207  0.7331 -0.4936  0.9676
 8225TIP3   OH246165   0.853   5.205  15.324  0.4642 -0.1149  0.0277
 8225TIP3    H146166   0.814   5.138  15.268  1.8281 -0.0731 -1.0293
 8225TIP3    H246167   0.946   5.183  15.327  0.6794  0.8183  0.9857
 8226TIP3   OH246168   4.964   3.100  14.952 -0.6133  0.1278 -0.1075
 8226TIP3    H146169   4.913   3.146  14.886  0.0191  0.4059 -0.4124
 8226TIP3    H246170   4.936   3.009  14.945 -2.3062  0.5318  0.9020
 8227TIP3   OH246171   5.236   3.442  15.689 -0.1490 -0.7860  0.4808
 8227TIP3    H146172   5.301   3.470  15.753 -0.6853 -0.5326  0.9204
 8227TIP3    H246173   5.154   3.437  15.738 -1.0433  1.6283 -0.6218
 8228TIP3   OH246174   6.827   6.492   5.555 -0.5556 -0.0073  0.4602
 8228TIP3    H146175   6.852   6.489   5.647  1.2952  3.0091  0.1827
 8228TIP3    H246176   6.904   6.461   5.507 -0.9535 -0.1231 -0.1217
 8229TIP3   OH246177   3.272   0.487  10.892  0.2926  0.2698 -0.4527
 8229TIP3    H146178   3.357   0.447  10.875  0.8362  1.1088  0.2444
 8229TIP3    H246179   3.219   0.463  10.816  1.4510  0.6011 -1.3966
 8230TIP3   OH246180   1.872   0.522  13.187 -0.4541  0.6422  0.1799
 8230TIP3    H146181   1.881   0.493  13.277 -2.2693 -0.1724  0.1459
 8230TIP3    H246182   1.832   0.447  13.141  1.4045  0.6168 -1.5732
 8231TIP3   OH246183   3.352   2.484  15.654  0.3885  1.0923  0.3762
 8231TIP3    H146184   3.370   2.410  15.595  0.2642  0.1918  1.4336
 8231TIP3    H246185   3.282   2.533  15.610 -0.0820  0.1344  0.0239
 8232TIP3   OH246186   2.589   1.471  16.693 -0.0853  0.8701  0.2616
 8232TIP3    H146187   2.638   1.401  16.651 -0.9149 -0.9825  2.1726
 8232TIP3    H246188   2.651   1.545  16.698  1.8969 -0.7379  0.9049
 8233TIP3   OH246189   1.964   1.148   0.093 -0.1064 -0.5211  0.1793
 8233TIP3    H146190   1.924   1.226   0.056  1.6371  0.6741  0.7307
 8233TIP3    H246191   1.890   1.090   0.112 -1.2984  0.0956 -2.1494
 8234TIP3   OH246192   5.086   1.678   0.441  0.1937  0.4192  0.0062
 8234TIP3    H146193   5.047   1.592   0.457  1.2258  0.0659  0.7053
 8234TIP3    H246194   5.169   1.676   0.489  1.1480  1.1030 -1.5258
 8235TIP3   OH246195   4.024   5.036   0.288  0.1621 -0.3342 -0.0226
 8235TIP3    H146196   3.938   5.034   0.330  0.2786  0.1278  0.2558
 8235TIP3    H246197   4.006   5.036   0.194 -0.1401 -0.3635  0.0364
 8236TIP3   OH246198   1.738   1.248  12.888  0.7441 -0.0984 -0.3656
 8236TIP3    H146199   1.764   1.295  12.967 -0.7636 -1.7659  1.1860
 8236TIP3    H246200   1.720   1.317  12.824  0.3975  1.3511  1.2451
 8237TIP3   OH246201   1.952   4.141   2.673 -0.7767  0.4030  0.2014
 8237TIP3    H146202   1.984   4.227   2.644  0.1913 -0.0648 -0.1480
 8237TIP3    H246203   2.005   4.078   2.625 -1.1563 -0.3990  0.8118
 8238TIP3   OH246204   0.284   0.711  12.866  0.1690 -0.1152 -0.7010
 8238TIP3    H146205   0.318   0.748  12.948  1.1046  0.6545 -1.4101
 8238TIP3    H246206   0.279   0.617  12.883 -1.4531  0.1902  0.8594
 8239TIP3   OH246207   2.901   5.266   4.401 -0.0370 -0.1345  0.6364
 8239TIP3    H146208   2.983   5.267   4.451  0.6151  1.5659 -0.3798
 8239TIP3    H246209   2.897   5.177   4.365  0.3592 -0.8435  2.2177
 8240TIP3   OH246210   2.506   4.505   3.575  0.2211  0.3522 -0.7511
 8240TIP3    H146211   2.454   4.485   3.496  1.0973  0.3638 -1.3449
 8240TIP3    H246212   2.504   4.424   3.626  0.2482  0.1055 -1.1349
 8241TIP3   OH246213   4.013   6.772  16.433 -0.1159  0.2363  0.7158
 8241TIP3    H146214   4.079   6.842  16.432  0.4395 -0.2764  0.9669
 8241TIP3    H246215   3.938   6.810  16.479 -0.0387  0.8561  0.3431
 8242TIP3   OH246216   4.378   4.338   5.282 -0.2864  0.5687  0.2635
 8242TIP3    H146217   4.335   4.416   5.318  1.2949  2.4549 -1.6792
 8242TIP3    H246218   4.323   4.311   5.209  0.0152  0.8527 -0.0683
 8243TIP3   OH246219   3.605   4.818   0.992  0.8829  0.1256  0.0974
 8243TIP3    H146220   3.674   4.847   1.051 -0.1409 -0.0464  1.4375
 8243TIP3    H246221   3.555   4.898   0.973 -0.0869 -0.1875  1.2615
 8244TIP3   OH246222   4.076   6.120   5.529 -0.1687  0.6014  0.0918
 8244TIP3    H146223   4.071   6.092   5.438  0.3995  0.0800  0.2170
 8244TIP3    H246224   4.090   6.040   5.578  1.0324  1.0360  0.4946
 8245TIP3   OH246225   6.266   6.081  11.467 -0.2356 -0.3885  0.2618
 8245TIP3    H146226   6.176   6.103  11.443  0.2592  2.4855  0.6821
 8245TIP3    H246227   6.316   6.088  11.386  0.0420  0.8668  0.5223
 8246TIP3   OH246228   4.520   3.509  16.661 -0.0318  0.0332  0.6150
 8246TIP3    H146229   4.426   3.525  16.676 -0.0645 -0.9184  1.5013
 8246TIP3    H246230   4.562   3.534  16.743  0.5265  0.5552  0.1873
 8247TIP3   OH246231   1.638   3.079  12.654  0.0007  0.9457 -0.6751
 8247TIP3    H146232   1.580   3.007  12.631  0.3297 -0.4510  2.4254
 8247TIP3    H246233   1.713   3.069  12.596  0.1088 -1.3662 -0.2107
 8248TIP3   OH246234   0.148   2.773  15.210  0.3153  0.1285 -0.2200
 8248TIP3    H146235   0.190   2.802  15.129 -1.6391 -0.1399 -1.3784
 8248TIP3    H246236   0.220   2.740  15.264  1.8439  1.6991 -1.2169
 8249TIP3   OH246237   2.408   1.393   5.264 -0.3478 -0.1319  0.8040
 8249TIP3    H146238   2.464   1.471   5.275 -1.7291  0.6254  3.1438
 8249TIP3    H246239   2.428   1.338   5.339  0.5440 -2.1020 -0.7726
 8250TIP3   OH246240   4.966   3.913   4.417  0.0153  0.5344 -0.1981
 8250TIP3    H146241   4.917   3.891   4.338  0.0776  0.1611 -0.1312
 8250TIP3    H246242   5.009   3.832   4.443 -0.6667  0.4426  0.6896
 8251TIP3   OH246243   3.021   5.317  13.461 -0.1935 -0.2928  0.4637
 8251TIP3    H146244   3.005   5.307  13.555  1.8048 -0.6333  0.8059
 8251TIP3    H246245   3.058   5.234  13.433  0.1842  0.1475 -0.4029
 8252TIP3   OH246246   3.444   6.724  16.895  0.5480 -0.4930 -0.3150
 8252TIP3    H146247   3.498   6.769  16.960  0.9554  1.2036 -1.7818
 8252TIP3    H246248   3.355   6.726  16.933  0.6987  0.8410  0.0264
 8253TIP3   OH246249   6.574   1.509  14.962  0.2836  0.5239  0.2384
 8253TIP3    H146250   6.641   1.561  15.006 -0.5544  0.2435  1.9069
 8253TIP3    H246251   6.498   1.512  15.020  0.0350 -2.1546  0.1897
 8254TIP3   OH246252   1.058   2.258  12.922  0.1511  0.0080 -0.0075
 8254TIP3    H146253   1.020   2.315  12.989 -0.2232 -0.2801  0.0257
 8254TIP3    H246254   0.990   2.194  12.903  0.0042  0.4672 -1.1355
 8255TIP3   OH246255   3.431   5.154   2.541  0.3379 -0.2686  0.0470
 8255TIP3    H146256   3.526   5.158   2.527  0.2831 -0.0386 -0.2607
 8255TIP3    H246257   3.396   5.224   2.486 -0.2130 -1.7234 -1.5246
 8256TIP3   OH246258   0.545   1.273  15.915 -0.8362  0.2397 -0.4019
 8256TIP3    H146259   0.581   1.187  15.939  0.4013  1.1808  1.3668
 8256TIP3    H246260   0.471   1.253  15.859  0.6842 -1.9307 -1.8124
 8257TIP3   OH246261   6.688   6.562   4.265 -0.4872  0.5307 -0.2151
 8257TIP3    H146262   6.637   6.542   4.344 -1.3926  0.7254 -0.7387
 8257TIP3    H246263   6.694   6.478   4.219  0.9864  0.1628  0.5654
 8258TIP3   OH246264   3.109   6.024   2.499  0.4512 -0.2474  0.6507
 8258TIP3    H146265   3.164   6.034   2.577 -0.4262 -0.1374  1.2671
 8258TIP3    H246266   3.037   5.967   2.528 -0.9857  1.4382  0.5208
 8259TIP3   OH246267   4.149   6.357  12.968 -0.4825  0.2941  0.1383
 8259TIP3    H146268   4.108   6.359  12.881 -1.8473 -1.7049  0.6754
 8259TIP3    H246269   4.204   6.436  12.970 -0.6697  0.5800 -2.3978
 8260TIP3   OH246270   0.100   3.559  11.014 -0.7449 -0.3273  0.8313
 8260TIP3    H146271   0.102   3.463  11.010  0.8774 -0.2669 -0.8667
 8260TIP3    H246272   0.012   3.579  11.047 -0.2563 -2.4156  3.8672
 8261TIP3   OH246273   6.196   6.695  14.254 -0.7271 -0.0432  0.4121
 8261TIP3    H146274   6.155   6.778  14.231 -0.1510  0.0519 -0.3065
 8261TIP3    H246275   6.235   6.711  14.340  0.1278  0.7074 -0.1007
 8262TIP3   OH246276   2.075   5.556  14.608  0.6117  0.2915 -0.2974
 8262TIP3    H146277   2.124   5.473  14.604 -0.3306 -0.2442 -3.2135
 8262TIP3    H246278   2.006   5.540  14.672  1.0461 -0.8303 -0.0764
 8263TIP3   OH246279   6.634   5.561   0.435  0.8715  0.6147  0.2943
 8263TIP3    H146280   6.638   5.567   0.339 -0.4290  0.0905  0.1889
 8263TIP3    H246281   6.591   5.642   0.462 -2.4515 -0.9509  0.0809
 8264TIP3   OH246282   0.765   5.539  11.436 -0.1887 -0.0517 -0.1654
 8264TIP3    H146283   0.690   5.598  11.436 -0.2348 -0.1100  0.1653
 8264TIP3    H246284   0.795   5.538  11.527 -0.4438 -0.8632 -0.0845
 8265TIP3   OH246285   0.427   5.079   4.311  0.3774  0.5899 -0.0463
 8265TIP3    H146286   0.452   5.138   4.382 -0.7278 -0.7919  1.5584
 8265TIP3    H246287   0.452   5.126   4.231  1.2656  2.3779  1.2147
 8266TIP3   OH246288   0.514   0.291   0.898  0.1330 -0.6818  0.4465
 8266TIP3    H146289   0.441   0.278   0.837 -0.5739 -0.5852  1.2611
 8266TIP3    H246290   0.493   0.234   0.972 -0.6531  1.5749  2.0337
 8267TIP3   OH246291   4.198   6.487   2.711  0.3882  0.0708 -0.1105
 8267TIP3    H146292   4.117   6.536   2.699 -0.4581 -1.4742 -0.8890
 8267TIP3    H246293   4.259   6.551   2.750 -0.9167  1.4847 -0.3141
 8268TIP3   OH246294   1.091   5.648   5.907  1.0521  0.5213 -0.5977
 8268TIP3    H146295   1.048   5.568   5.877  0.1782 -0.8227  3.5908
 8268TIP3    H246296   1.179   5.619   5.932  1.0863  1.0671 -0.0683
 8269TIP3   OH246297   0.444   0.159   1.954 -0.1114  0.1611 -0.2549
 8269TIP3    H146298   0.399   0.223   1.899  1.0310  1.6596  0.4789
 8269TIP3    H246299   0.473   0.209   2.031  0.9479 -1.1991  0.2728
 8270TIP3   OH246300   0.743   4.185  13.451  0.6552  0.7273  0.3779
 8270TIP3    H146301   0.704   4.253  13.396  0.5191  0.8124  0.5783
 8270TIP3    H246302   0.831   4.173  13.417  0.1742 -0.0911 -0.6679
 8271TIP3   OH246303   2.363   6.537   3.884 -0.2718  0.5943  0.3487
 8271TIP3    H146304   2.310   6.487   3.822 -0.8653  0.3421  1.0298
 8271TIP3    H246305   2.369   6.624   3.847 -1.7952  0.8347  0.5771
 8272TIP3   OH246306   4.458   1.185  11.999 -0.0356  0.0645 -0.1076
 8272TIP3    H146307   4.521   1.207  11.930 -0.0762  0.3001 -0.0695
 8272TIP3    H246308   4.506   1.124  12.055 -0.1697 -0.5173 -0.6169
 8273TIP3   OH246309   0.826   5.450  15.189 -0.0518  0.5270  0.2755
 8273TIP3    H146310   0.831   5.366  15.235  0.2861 -0.8486 -2.0820
 8273TIP3    H246311   0.746   5.444  15.137  0.2643  1.4393 -0.3392
 8274TIP3   OH246312   5.279   4.070  13.684 -0.0234 -0.0139  0.2802
 8274TIP3    H146313   5.208   4.101  13.629  0.3365  1.3704  0.5620
 8274TIP3    H246314   5.341   4.029  13.623 -0.5379 -0.2482 -0.0913
 8275TIP3   OH246315   5.153   6.308  11.488  0.2417  0.4129 -0.0933
 8275TIP3    H146316   5.141   6.396  11.453 -1.6752  0.4226  0.4656
 8275TIP3    H246317   5.076   6.294  11.543  1.3978 -0.9439  1.2582
 8276TIP3   OH246318   6.523   2.006  12.817  0.0448 -0.0417  0.1040
 8276TIP3    H146319   6.443   2.058  12.813  0.6619  0.9989  0.6622
 8276TIP3    H246320   6.526   1.960  12.733 -0.3960  1.0515 -0.5403
 8277TIP3   OH246321   2.184   2.109   5.560  0.1477 -0.5867 -0.1734
 8277TIP3    H146322   2.241   2.132   5.487  0.6495  0.5270  0.5449
 8277TIP3    H246323   2.241   2.113   5.637 -0.3515 -1.8228  0.2766
 8278TIP3   OH246324   5.120   5.371  13.077 -0.2949 -0.4472  0.2866
 8278TIP3    H146325   5.181   5.350  13.006  1.7540  0.8577  1.5533
 8278TIP3    H246326   5.109   5.466  13.072  0.7875 -0.1603  2.3280
 8279TIP3   OH246327   4.928   1.299   3.359 -0.3596 -0.1636 -0.1012
 8279TIP3    H146328   4.915   1.380   3.310 -1.0063 -0.3419 -0.2330
 8279TIP3    H246329   4.989   1.323   3.429  1.8975 -0.2725 -1.8975
 8280TIP3   OH246330   6.763   6.202   0.908  0.6985 -0.4166  0.3563
 8280TIP3    H146331   6.779   6.229   0.999  0.5944 -0.9178  0.5304
 8280TIP3    H246332   6.851   6.189   0.871  0.7375 -0.5653  0.4987
 8281TIP3   OH246333   5.035   0.978  14.409  0.0542 -0.0620 -0.6615
 8281TIP3    H146334   4.973   0.982  14.482  0.4314 -1.2332 -0.2573
 8281TIP3    H246335   5.057   0.885  14.401  2.5504  0.3944 -0.1057
 8282TIP3   OH246336   6.350   4.698   3.588  0.3093  0.6458 -0.0784
 8282TIP3    H146337   6.282   4.744   3.539 -2.0480  0.7353  3.0152
 8282TIP3    H246338   6.331   4.605   3.573  0.6808  0.6733 -0.7196
 8283TIP3   OH246339   0.717   2.677   1.435  0.5795 -0.3037 -0.5109
 8283TIP3    H146340   0.726   2.724   1.352 -0.2336 -0.7786 -0.8904
 8283TIP3    H246341   0.770   2.726   1.497  0.9185  0.2636 -1.2359
 8284TIP3   OH246342   4.186   3.812   5.329 -0.1087 -0.3154  0.4611
 8284TIP3    H146343   4.136   3.734   5.351 -0.4329 -0.0152  0.7977
 8284TIP3    H246344   4.120   3.880   5.313  0.1627  0.9387  3.9270
 8285TIP3   OH246345   6.816   3.044  16.378  0.0330 -0.3334 -0.1223
 8285TIP3    H146346   6.750   3.042  16.308  0.8157  0.2881 -0.8982
 8285TIP3    H246347   6.865   3.125  16.362  1.2554 -0.9956  0.1791
 8286TIP3   OH246348   0.819   0.826  14.088  0.2081 -0.5131 -0.0032
 8286TIP3    H146349   0.859   0.778  14.161  1.1347  0.5435  0.2129
 8286TIP3    H246350   0.883   0.894  14.066 -0.6559  0.0372 -0.9184
 8287TIP3   OH246351   1.938   4.642  14.668  0.1740 -0.1587  0.1359
 8287TIP3    H146352   1.915   4.601  14.751 -0.1656 -0.7170 -0.2342
 8287TIP3    H246353   1.884   4.721  14.664  0.8775  0.3872  0.8754
 8288TIP3   OH246354   4.739   1.035   2.773 -0.1390  0.4870  0.1727
 8288TIP3    H146355   4.750   0.966   2.707  0.0878  0.0680  0.6385
 8288TIP3    H246356   4.655   1.016   2.813  0.4705 -0.2661  1.1410
 8289TIP3   OH246357   1.580   4.661   4.687 -0.0481  0.2921  0.5364
 8289TIP3    H146358   1.562   4.672   4.594  0.4743 -0.2710  0.3572
 8289TIP3    H246359   1.496   4.676   4.731 -0.6723 -1.0492 -0.1596
 8290TIP3   OH246360   0.951   5.777  14.803 -0.5007  0.4623 -0.4549
 8290TIP3    H146361   0.946   5.774  14.898 -0.6223  2.0609 -0.3895
 8290TIP3    H246362   1.038   5.813  14.784 -0.3272 -0.2064 -0.9579
 8291TIP3   OH246363   5.447   4.811   2.324 -0.1883 -0.2588  0.5264
 8291TIP3    H146364   5.388   4.737   2.307 -0.9084  0.0688  1.4574
 8291TIP3    H246365   5.533   4.772   2.337 -0.9041 -1.2150  3.0349
 8292TIP3   OH246366   3.439   2.686  11.815  0.0624 -0.0842 -0.0343
 8292TIP3    H146367   3.497   2.644  11.751  0.3753  0.1371  0.1018
 8292TIP3    H246368   3.410   2.766  11.771  1.4349  0.8300  0.6257
 8293TIP3   OH246369   0.118   6.024   4.126 -0.9657 -0.1954 -0.0244
 8293TIP3    H146370   0.139   6.117   4.116 -0.8946 -0.2001  0.0857
 8293TIP3    H246371   0.147   5.983   4.044  0.7941 -0.4554  0.7000
 8294TIP3   OH246372   5.700   1.699  15.916  0.2357 -0.5558  0.4605
 8294TIP3    H146373   5.736   1.717  16.003  2.2078  2.0285 -0.7650
 8294TIP3    H246374   5.608   1.681  15.932 -0.1253  2.5928  2.9270
 8295TIP3   OH246375   1.280   6.125   3.995 -0.6969 -0.3160  0.3173
 8295TIP3    H146376   1.236   6.186   4.054 -1.3273  0.0710 -0.5501
 8295TIP3    H246377   1.278   6.041   4.043 -1.5636 -0.1014  0.6766
 8296TIP3   OH246378   2.942   4.886   2.143 -0.0681 -0.3554  0.1517
 8296TIP3    H146379   2.896   4.930   2.071  1.0299 -0.7505 -0.8339
 8296TIP3    H246380   2.963   4.799   2.107  3.1887  0.4597 -0.2396
 8297TIP3   OH246381   0.619   5.882  15.558 -0.3899  0.1534 -0.1852
 8297TIP3    H146382   0.637   5.922  15.643  0.3524 -0.5775  0.0108
 8297TIP3    H246383   0.543   5.826  15.573  1.3955 -2.1696  0.7314
 8298TIP3   OH246384   2.158   5.255   5.577  0.1054  0.2604  0.1435
 8298TIP3    H146385   2.122   5.320   5.637  0.4927  0.1937  0.4529
 8298TIP3    H246386   2.175   5.303   5.497 -1.3177  0.1514 -0.2571
 8299TIP3   OH246387   0.001   3.332  14.917  0.3809 -0.0185 -0.5420
 8299TIP3    H146388  -0.073   3.272  14.928  0.9912 -0.5070  1.3870
 8299TIP3    H246389   0.078   3.276  14.926  0.9822  0.7695 -0.6972
 8300TIP3   OH246390   0.540   0.288  15.864  0.3372 -0.3628  1.1027
 8300TIP3    H146391   0.456   0.328  15.885 -0.3079 -0.3491 -1.1559
 8300TIP3    H246392   0.602   0.361  15.864  0.6359 -0.5434  3.8688
 8301TIP3   OH246393   1.626   2.115  15.472 -0.1018  0.0272 -0.1791
 8301TIP3    H146394   1.657   2.078  15.555 -2.2351 -0.0385  0.6277
 8301TIP3    H246395   1.547   2.066  15.451 -1.1228  1.8606 -0.8270
 8302TIP3   OH246396   4.114   4.074   3.023 -0.0501 -0.2206 -0.6620
 8302TIP3    H146397   4.055   4.150   3.025  0.2349 -0.0006  1.8114
 8302TIP3    H246398   4.197   4.108   2.991  0.3684  0.7957  1.3810
 8303TIP3   OH246399   0.884   3.353   0.406  0.7327 -0.1368  0.2587
 8303TIP3    H146400   0.938   3.410   0.461 -1.4066  0.2531  2.0958
 8303TIP3    H246401   0.884   3.396   0.321  2.4908  0.3439  0.4449
 8304TIP3   OH246402   6.548   6.016   5.239 -0.1914 -0.0199  0.3412
 8304TIP3    H146403   6.581   5.984   5.323 -1.4281 -0.4656  0.6846
 8304TIP3    H246404   6.554   5.941   5.180  0.2909  0.1747  0.1369
 8305TIP3   OH246405   5.956   2.766   0.686 -0.2894  0.2923  0.0249
 8305TIP3    H146406   6.023   2.832   0.670 -2.4868  2.3868 -0.9831
 8305TIP3    H246407   5.935   2.732   0.600 -1.0755  0.2188  0.2418
 8306TIP3   OH246408   4.190   2.514  15.956 -0.4245 -0.6938  0.3069
 8306TIP3    H146409   4.262   2.542  15.900 -0.0730 -0.8608  0.6669
 8306TIP3    H246410   4.112   2.519  15.900  0.0525 -1.8266 -0.5188
 8307TIP3   OH246411   2.347   1.511  11.935  0.2524 -0.2803 -0.4395
 8307TIP3    H146412   2.308   1.522  12.022  2.3013  0.5040  0.4265
 8307TIP3    H246413   2.391   1.594  11.918  0.7328 -0.7931 -1.8084
 8308TIP3   OH246414   5.761   4.660   5.100  0.0462  0.4377  0.6848
 8308TIP3    H146415   5.746   4.629   5.189 -1.5124 -2.4395 -0.4309
 8308TIP3    H246416   5.707   4.738   5.091  0.7585  1.1702  2.4028
 8309TIP3   OH246417   1.197   5.591  15.876  0.2071  0.1296  0.6673
 8309TIP3    H146418   1.166   5.526  15.813  1.1352 -0.4062  0.7476
 8309TIP3    H246419   1.123   5.651  15.886  0.4841  1.0533 -2.0048
 8310TIP3   OH246420   6.794   2.629   5.942 -0.5864 -0.1383 -0.4231
 8310TIP3    H146421   6.700   2.634   5.926 -1.1614  3.2018  2.6873
 8310TIP3    H246422   6.833   2.679   5.870 -1.6779  2.1741  0.4995
 8311TIP3   OH246423   6.633   1.119  15.218  0.1358 -0.3136 -0.4467
 8311TIP3    H146424   6.643   1.040  15.271 -1.3044 -0.5113 -0.4205
 8311TIP3    H246425   6.538   1.128  15.207  0.1295  2.4207  1.0501
 8312TIP3   OH246426   6.703   3.275  10.525 -0.3905 -0.4010 -0.1407
 8312TIP3    H146427   6.731   3.339  10.591 -1.4560 -0.3644  0.2846
 8312TIP3    H246428   6.753   3.196  10.547 -0.9088 -0.4641  0.8643
 8313TIP3   OH246429   0.940   1.659   5.671  0.3919  0.0495  0.2463
 8313TIP3    H146430   0.973   1.674   5.760  1.3761 -0.1548 -0.0709
 8313TIP3    H246431   1.016   1.676   5.615  0.6825 -2.8238 -0.3690
 8314TIP3   OH246432   5.635   0.121   4.925 -0.2676 -0.1650 -0.3464
 8314TIP3    H146433   5.557   0.141   4.977  0.2803  1.6921 -0.1386
 8314TIP3    H246434   5.708   0.128   4.987  0.3490  1.5980 -1.2043
 8315TIP3   OH246435   1.301   0.900  13.281  0.2149  0.1294 -0.5860
 8315TIP3    H146436   1.237   0.895  13.352  0.4718 -0.5673 -0.3953
 8315TIP3    H246437   1.258   0.858  13.206 -0.4874  1.8287 -1.2023
 8316TIP3   OH246438   2.791   2.541   2.045  0.2485  0.2096 -0.2614
 8316TIP3    H146439   2.855   2.551   1.975  1.1208 -0.6879  0.3742
 8316TIP3    H246440   2.836   2.572   2.124  0.1021 -0.9147  0.2863
 8317TIP3   OH246441   0.330   2.722   4.919 -0.0221 -0.2927 -0.0734
 8317TIP3    H146442   0.400   2.771   4.962  0.9163 -2.2808  0.8009
 8317TIP3    H246443   0.364   2.703   4.832  1.1343 -2.2757  0.7374
 8318TIP3   OH246444   4.206   0.716   4.536 -0.0106 -0.4749 -0.5274
 8318TIP3    H146445   4.221   0.715   4.442 -0.5851 -1.1943 -0.6143
 8318TIP3    H246446   4.152   0.794   4.551 -1.4858 -1.3797 -1.0454
 8319TIP3   OH246447   3.683   4.465  13.945 -0.0567 -0.3040 -0.4349
 8319TIP3    H146448   3.637   4.388  13.977  1.6056 -1.1591  0.0087
 8319TIP3    H246449   3.742   4.432  13.878  1.4532  0.3858  0.4996
 8320TIP3   OH246450   6.373   3.266  13.560  0.3204  0.5754 -0.1276
 8320TIP3    H146451   6.328   3.262  13.476 -0.3439 -1.1095  0.2726
 8320TIP3    H246452   6.437   3.196  13.557 -2.6749 -2.6521  2.3148
 8321TIP3   OH246453   2.589   3.260   4.021  0.3616 -0.6238 -0.9187
 8321TIP3    H146454   2.595   3.175   4.065  0.8563  0.0105  0.2681
 8321TIP3    H246455   2.680   3.286   4.006  0.2976  0.6787  0.6948
 8322TIP3   OH246456   6.323   6.163  16.210  0.3188  0.4449 -0.3139
 8322TIP3    H146457   6.330   6.161  16.305  4.0301  1.7479 -0.4047
 8322TIP3    H246458   6.252   6.224  16.192 -0.2786  0.3737  1.6145
 8323TIP3   OH246459   2.896   6.634   4.181  0.0981 -0.6959  0.0264
 8323TIP3    H146460   2.807   6.664   4.166  0.7136  1.5075  0.3824
 8323TIP3    H246461   2.933   6.622   4.094  0.8381  3.0836 -0.3600
 8324TIP3   OH246462   0.867   3.856   4.949  0.2020 -0.9319 -0.1113
 8324TIP3    H146463   0.958   3.870   4.974 -0.1622 -0.4331  0.9868
 8324TIP3    H246464   0.817   3.866   5.031 -0.9800  0.1996 -0.9306
 8325TIP3   OH246465   2.198   5.313   0.416  1.2223 -0.6882  0.3999
 8325TIP3    H146466   2.217   5.282   0.505 -0.8198  0.7269  1.4053
 8325TIP3    H246467   2.199   5.408   0.423 -2.2410 -0.4659 -0.1985
 8326TIP3   OH246468   1.868   1.968  14.561 -0.4458 -0.4357  0.0300
 8326TIP3    H146469   1.875   2.064  14.559 -0.1277 -0.4655 -0.3302
 8326TIP3    H246470   1.909   1.939  14.479  1.9176 -1.0227  1.3207
 8327TIP3   OH246471   1.326   5.938  15.111  0.4256  0.0982 -0.4104
 8327TIP3    H146472   1.409   5.982  15.129  0.5202 -0.8203  1.6240
 8327TIP3    H246473   1.273   6.005  15.067  1.2105  1.6648  0.9236
 8328TIP3   OH246474   2.956   0.797  11.929 -0.4529  0.3272 -0.2147
 8328TIP3    H146475   2.887   0.737  11.958  0.0044 -0.2677 -0.3422
 8328TIP3    H246476   3.025   0.740  11.895 -0.1052  0.9374 -0.5473
 8329TIP3   OH246477   0.447   1.652   3.000  0.2873  0.1389  0.3423
 8329TIP3    H146478   0.452   1.564   3.039 -2.0798 -0.1799  0.1119
 8329TIP3    H246479   0.357   1.658   2.968  0.6454  2.3620 -0.3908
 8330TIP3   OH246480   3.262   2.699  16.020 -0.1665 -0.0525  0.2885
 8330TIP3    H146481   3.190   2.698  15.958 -0.9548  0.3215  1.1605
 8330TIP3    H246482   3.234   2.641  16.091 -0.3143  1.2814  1.3693
 8331TIP3   OH246483   3.274   0.723   2.767 -0.5049 -0.5618 -0.0718
 8331TIP3    H146484   3.321   0.804   2.788 -0.9200 -0.4265  0.3481
 8331TIP3    H246485   3.207   0.751   2.705 -2.2387 -0.1055  1.9032
 8332TIP3   OH246486   2.060   4.607   5.287  0.2819 -0.3507 -0.3449
 8332TIP3    H146487   2.142   4.635   5.327 -1.5111  3.5785  1.0005
 8332TIP3    H246488   2.001   4.590   5.361 -1.0510  0.0392 -1.2782
 8333TIP3   OH246489   2.684   6.850  15.770  0.3479  0.1790 -0.0323
 8333TIP3    H146490   2.693   6.773  15.825  2.1632  0.0215 -0.4964
 8333TIP3    H246491   2.750   6.840  15.701 -1.1212  0.8929 -1.6427
 8334TIP3   OH246492   3.957   1.158  16.039  0.1906 -0.0282  0.1694
 8334TIP3    H146493   3.913   1.218  16.100 -0.4179  0.8901 -1.1364
 8334TIP3    H246494   3.885   1.120  15.988  0.7734  0.2088 -0.8473
 8335TIP3   OH246495   2.988   1.491  15.897  0.3698 -0.7167 -0.0343
 8335TIP3    H146496   2.981   1.507  15.992  1.8784 -0.0539 -0.0057
 8335TIP3    H246497   3.082   1.486  15.881  0.2349  1.0707 -1.7804
 8336TIP3   OH246498   6.834   4.537  16.535 -0.3668  0.4979 -0.1215
 8336TIP3    H146499   6.880   4.482  16.472 -0.6872 -0.9243  0.8381
 8336TIP3    H246500   6.742   4.513  16.526 -0.4888  0.7261  0.4674
 8337TIP3   OH246501   1.366   4.193   0.967  0.6455 -0.1820  0.0222
 8337TIP3    H146502   1.344   4.215   1.057  1.0202  1.0263 -0.1623
 8337TIP3    H246503   1.454   4.156   0.972  0.5096 -0.4927  0.1861
 8338TIP3   OH246504   5.081   6.500   3.975  0.2625 -0.0813  0.5903
 8338TIP3    H146505   5.155   6.539   3.929 -0.6705  1.0120 -0.0140
 8338TIP3    H246506   5.039   6.573   4.020  0.9681 -1.0593  3.0078
 8339TIP3   OH246507   6.408   0.748   1.218  0.2303 -0.1557 -0.3756
 8339TIP3    H146508   6.419   0.726   1.125  0.3169  0.2577 -0.4676
 8339TIP3    H246509   6.491   0.788   1.242  0.3438 -0.6023 -0.0162
 8340TIP3   OH246510   6.172   6.149  13.963 -0.1106 -0.4556 -0.0076
 8340TIP3    H146511   6.081   6.144  13.934 -0.0487  0.8559 -0.4845
 8340TIP3    H246512   6.174   6.096  14.043 -1.1623 -0.9348 -0.2727
 8341TIP3   OH246513   4.321   2.681  11.245  0.1169 -0.5165  0.0284
 8341TIP3    H146514   4.232   2.677  11.210 -0.5119  0.3093  1.4230
 8341TIP3    H246515   4.318   2.627  11.324  0.7651 -0.2456  0.2461
 8342TIP3   OH246516   5.134   5.346  16.300  0.1695  0.4876  0.4165
 8342TIP3    H146517   5.197   5.274  16.296  0.6771  0.9577 -0.5376
 8342TIP3    H246518   5.057   5.312  16.254  0.6406  0.7449 -0.6090
 8343TIP3   OH246519   0.342   6.182   4.193 -0.2861  0.6215 -0.3230
 8343TIP3    H146520   0.427   6.194   4.234 -0.4011 -0.9361  0.4351
 8343TIP3    H246521   0.309   6.271   4.181  0.7451  1.2014  0.8677
 8344TIP3   OH246522   0.963   6.642  16.713 -0.1896  0.4980 -0.6172
 8344TIP3    H146523   1.044   6.688  16.693  0.4808 -0.1691  0.4428
 8344TIP3    H246524   0.986   6.583  16.785 -1.4449 -0.2244 -0.7778
 8345TIP3   OH246525   2.315   1.770  17.074  0.4243 -0.1961  0.1223
 8345TIP3    H146526   2.309   1.765  16.978  1.4439 -1.6548  0.1013
 8345TIP3    H246527   2.341   1.682  17.101  0.7919  0.3663  1.7040
 8346TIP3   OH246528   6.104   0.301   2.719  0.2803  0.0348  0.0857
 8346TIP3    H146529   6.153   0.382   2.734  0.8319 -0.2527 -0.1645
 8346TIP3    H246530   6.156   0.233   2.761 -0.2767 -0.1676  0.4591
 8347TIP3   OH246531   3.490   5.934   0.840 -0.0592  0.3253 -0.0534
 8347TIP3    H146532   3.447   5.877   0.777  1.6265  0.7098 -1.6289
 8347TIP3    H246533   3.424   5.949   0.908 -1.1348 -2.0105 -0.5028
 8348TIP3   OH246534   1.446   3.235  15.500 -0.1035  0.2424 -0.1162
 8348TIP3    H146535   1.407   3.203  15.581 -3.4015  0.3724 -1.4931
 8348TIP3    H246536   1.472   3.325  15.520 -0.5505  0.1570  0.8901
 8349TIP3   OH246537   1.102   2.093   3.490  0.1986  0.8773  0.1963
 8349TIP3    H146538   1.072   2.122   3.576 -1.0350  2.1434 -0.6148
 8349TIP3    H246539   1.021   2.079   3.440  0.8843 -0.1162 -0.6780
 8350TIP3   OH246540   4.086   5.174   3.648  0.8315 -0.0147 -0.0231
 8350TIP3    H146541   4.028   5.176   3.571  0.8232 -1.2378 -0.0707
 8350TIP3    H246542   4.168   5.213   3.618  0.0095  1.9074  0.0923
 8351TIP3   OH246543   2.477   1.746  14.757  0.7018  0.6213 -0.0862
 8351TIP3    H146544   2.534   1.789  14.693  1.5594 -0.1328  0.1463
 8351TIP3    H246545   2.394   1.793  14.750  1.4101  1.8983 -0.2792
 8352TIP3   OH246546   5.602   5.173   3.822 -0.0222  0.7566 -0.0906
 8352TIP3    H146547   5.527   5.114   3.827  1.7213 -1.6853 -0.7400
 8352TIP3    H246548   5.618   5.183   3.728  1.9120 -0.8570  0.0032
 8353TIP3   OH246549   5.936   6.093  13.289 -0.3571  0.1039  0.2564
 8353TIP3    H146550   5.977   6.116  13.206 -1.1138  2.8001  0.5502
 8353TIP3    H246551   5.916   6.176  13.331 -2.4161 -1.1267  1.9728
 8354TIP3   OH246552   0.154   6.239  12.591  0.4970 -0.4875 -0.3576
 8354TIP3    H146553   0.118   6.176  12.528 -0.3323 -0.7864  0.3785
 8354TIP3    H246554   0.116   6.323  12.566  0.3029 -0.5778 -0.3744
 8355TIP3   OH246555   3.016   6.398   0.577 -0.6231  0.7585  0.6915
 8355TIP3    H146556   3.089   6.340   0.558 -1.4920 -0.0645 -0.2146
 8355TIP3    H246557   3.033   6.429   0.666  0.5846  0.2342  0.6635
 8356TIP3   OH246558   0.901   3.833  13.300 -0.2513  0.3719  0.3433
 8356TIP3    H146559   0.931   3.918  13.334  0.3692  0.3040 -0.0137
 8356TIP3    H246560   0.956   3.817  13.224 -0.3709 -0.3500  0.3996
 8357TIP3   OH246561   2.567   1.667   3.733  0.1357  0.0672  0.4080
 8357TIP3    H146562   2.633   1.672   3.802  1.6864 -0.0016 -1.0114
 8357TIP3    H246563   2.603   1.719   3.661 -1.3575  0.0067 -0.4365
 8358TIP3   OH246564   3.502   1.674  12.867 -0.0584  0.0686  0.2300
 8358TIP3    H146565   3.468   1.671  12.957 -1.5417  1.1883 -0.2527
 8358TIP3    H246566   3.451   1.609  12.820 -0.4570  0.6518 -0.1568
 8359TIP3   OH246567   3.386   0.140  12.903 -0.2786  0.9208 -0.4960
 8359TIP3    H146568   3.469   0.136  12.952  0.4755 -0.6846 -1.7798
 8359TIP3    H246569   3.325   0.090  12.957  0.4599 -0.5769 -0.9961
 8360TIP3   OH246570   3.119   3.104   4.579 -0.0352 -0.3446 -0.1541
 8360TIP3    H146571   3.034   3.147   4.570  0.7025  0.9953 -1.0133
 8360TIP3    H246572   3.139   3.071   4.492  0.5564 -0.2126 -0.0712
 8361TIP3   OH246573   3.817   5.485   0.246  0.2663  0.3250  0.7340
 8361TIP3    H146574   3.899   5.532   0.230  0.3409  0.6567  2.0089
 8361TIP3    H246575   3.779   5.528   0.322 -1.5179  0.6976 -0.3232
 8362TIP3   OH246576   6.618   6.850  11.075 -0.3118  0.1074 -0.0591
 8362TIP3    H146577   6.674   6.839  10.999 -1.0539  1.0238 -0.7565
 8362TIP3    H246578   6.617   6.764  11.117  0.6777 -0.2167 -0.6741
 8363TIP3   OH246579   6.176   1.251  11.022  0.3507 -0.2545  0.2159
 8363TIP3    H146580   6.114   1.240  11.094  1.3348  0.7756  1.2772
 8363TIP3    H246581   6.123   1.275  10.947 -0.7354 -1.5923  0.5050
 8364TIP3   OH246582   5.934   1.226  14.027 -0.4105  0.6520 -0.4501
 8364TIP3    H146583   5.863   1.210  14.089 -0.6659  0.0011 -0.9105
 8364TIP3    H246584   5.919   1.165  13.956  0.6064  0.5119 -0.5617
 8365TIP3   OH246585   1.869   4.652   3.252 -0.1976  0.4225 -0.3246
 8365TIP3    H146586   1.910   4.736   3.273  1.7215 -0.9016  1.6771
 8365TIP3    H246587   1.939   4.601   3.211 -0.8073 -0.7986  0.0933
 8366TIP3   OH246588   0.653   1.417  12.716 -0.5395  0.1662  0.1151
 8366TIP3    H146589   0.685   1.465  12.639 -2.5136  0.6997 -0.4141
 8366TIP3    H246590   0.718   1.347  12.728 -0.1959  0.0167 -2.0764
 8367TIP3   OH246591   2.364   4.989   3.677  0.5540  0.1239 -0.6650
 8367TIP3    H146592   2.291   4.926   3.682 -1.6664  2.5800  3.1472
 8367TIP3    H246593   2.419   4.968   3.752  0.4710  1.8451 -0.0772
 8368TIP3   OH246594   2.734   2.432  14.822 -0.0387  0.3770 -0.5683
 8368TIP3    H146595   2.681   2.506  14.852 -0.9529  0.0538 -1.3382
 8368TIP3    H246596   2.822   2.467  14.814 -0.0563  0.8597  1.0006
 8369TIP3   OH246597   2.418   5.987   2.074  0.2077  0.1459  0.1164
 8369TIP3    H146598   2.394   5.898   2.046  1.9160 -0.3144  0.0249
 8369TIP3    H246599   2.455   6.027   1.995 -0.7438  1.0420  0.0990
 8370TIP3   OH246600   5.231   4.258   4.949 -0.1634 -0.4887 -0.0622
 8370TIP3    H146601   5.146   4.257   4.905  0.2480 -1.6984 -0.8579
 8370TIP3    H246602   5.292   4.220   4.886  0.8603 -0.2412  0.7429
 8371TIP3   OH246603   6.819   1.867   0.863 -0.8455 -0.0973 -0.2790
 8371TIP3    H146604   6.730   1.902   0.872 -1.7948 -1.8904 -1.8992
 8371TIP3    H246605   6.823   1.796   0.927 -0.4698  0.1651 -0.0093
 8372TIP3   OH246606   5.666   3.626  14.833 -0.1159  0.0271  0.0473
 8372TIP3    H146607   5.576   3.618  14.867  0.2030 -0.1255  0.8748
 8372TIP3    H246608   5.660   3.693  14.765 -1.1994 -1.1905 -1.1346
 8373TIP3   OH246609   5.722   1.414  16.995 -0.7182  0.1918 -0.4437
 8373TIP3    H146610   5.791   1.461  16.949  0.6924 -2.0228 -0.7236
 8373TIP3    H246611   5.768   1.360  17.060 -2.1057 -1.6509 -0.8962
 8374TIP3   OH246612   5.617   5.020   4.527 -0.4887  0.5904  0.5144
 8374TIP3    H146613   5.576   5.017   4.440  0.9658 -0.7063 -0.1661
 8374TIP3    H246614   5.706   4.990   4.512 -0.1082  0.7008  2.4202
 8375TIP3   OH246615   0.304   3.870  11.269 -0.0812  0.2436  0.0783
 8375TIP3    H146616   0.280   3.941  11.209 -0.2903  0.6336  0.6127
 8375TIP3    H246617   0.397   3.882  11.285 -0.3996  1.2795  1.2896
 8376TIP3   OH246618   5.908   5.051   3.585  0.1817  0.1913 -0.3543
 8376TIP3    H146619   5.984   5.104   3.608 -1.2088  1.3041  2.0735
 8376TIP3    H246620   5.923   4.967   3.628  0.3164  0.1730 -0.4354
 8377TIP3   OH246621   0.353   5.505   2.202  0.5166 -0.0713  0.5677
 8377TIP3    H146622   0.281   5.564   2.180 -0.1563 -0.6479  1.1777
 8377TIP3    H246623   0.397   5.548   2.275  0.9165  0.3767  0.0682
 8378TIP3   OH246624   0.674   4.987  15.816 -0.1346 -0.0734 -0.0109
 8378TIP3    H146625   0.641   5.042  15.745 -0.2144  1.2094  0.9766
 8378TIP3    H246626   0.653   5.036  15.895 -1.7526 -2.3115  1.0600
 8379TIP3   OH246627   2.335   3.418   3.175  0.1378 -0.2557 -0.0515
 8379TIP3    H146628   2.426   3.394   3.160  0.0557 -0.1718 -0.7032
 8379TIP3    H246629   2.295   3.420   3.088  0.2224  2.5686 -0.1238
 8380TIP3   OH246630   5.978   3.928  11.866  0.6736 -0.2997 -0.0767
 8380TIP3    H146631   5.898   3.944  11.916 -0.0697 -0.2073 -1.2614
 8380TIP3    H246632   5.970   3.838  11.835  1.2000 -0.4030  0.0632
 8381TIP3   OH246633   5.778   5.335   0.190  0.0091 -0.5809 -0.0974
 8381TIP3    H146634   5.713   5.270   0.162  1.2101 -0.7555 -2.7753
 8381TIP3    H246635   5.826   5.357   0.110  0.3763  2.8212  0.9020
 8382TIP3   OH246636   1.094   3.639  14.610  0.1805  0.0611 -0.0107
 8382TIP3    H146637   1.183   3.604  14.603  0.3568 -0.1694  2.4499
 8382TIP3    H246638   1.106   3.728  14.643 -0.5059  0.1809 -0.0743
 8383TIP3   OH246639   2.017   4.807  13.243  0.5809  0.1048  0.2781
 8383TIP3    H146640   2.057   4.743  13.183 -1.1653  0.4391 -1.3267
 8383TIP3    H246641   2.091   4.845  13.291  1.9503 -0.8330 -1.0233
 8384TIP3   OH246642   1.326   6.091   5.911  0.2677 -0.4273  0.1972
 8384TIP3    H146643   1.355   6.162   5.968  0.1469 -0.1411 -0.0960
 8384TIP3    H246644   1.363   6.112   5.825 -1.2112  0.2075 -0.3110
 8385TIP3   OH246645   6.363   3.797  14.613 -0.1111  0.2110  0.0153
 8385TIP3    H146646   6.303   3.750  14.670  0.4440 -0.2556  0.2284
 8385TIP3    H246647   6.317   3.805  14.530 -0.3055 -0.4923  0.0566
 8386TIP3   OH246648   6.406   6.195   1.624 -0.4343  0.2902  0.9483
 8386TIP3    H146649   6.465   6.192   1.699 -0.6286 -0.8316  1.0736
 8386TIP3    H246650   6.391   6.288   1.608  1.4005  0.5970  0.8678
 8387TIP3   OH246651   0.170   5.353   0.397 -0.1959  0.2727 -0.1517
 8387TIP3    H146652   0.193   5.420   0.461  0.4662 -0.0700 -0.0198
 8387TIP3    H246653   0.197   5.391   0.313  0.2130  0.1581 -0.0735
 8388TIP3   OH246654   3.851   5.453   3.697 -0.0378 -0.2209 -0.4260
 8388TIP3    H146655   3.945   5.448   3.715  0.1270 -0.8876 -1.3999
 8388TIP3    H246656   3.810   5.439   3.782  0.7464  1.2261  0.2225
 8389TIP3   OH246657   3.914   3.452   5.230 -0.4513  0.0032  0.0888
 8389TIP3    H146658   3.996   3.441   5.278  0.7166 -1.9947 -2.1707
 8389TIP3    H246659   3.916   3.543   5.200  0.6518  0.1439  0.5417
 8390TIP3   OH246660   6.177   5.177  15.203 -0.0921 -0.8000 -0.3392
 8390TIP3    H146661   6.191   5.085  15.182 -2.2945 -1.1754 -0.4602
 8390TIP3    H246662   6.187   5.182  15.298 -1.2828 -1.4799 -0.1569
 8391TIP3   OH246663   1.862   6.311   2.622 -0.2422  0.7274 -0.1360
 8391TIP3    H146664   1.950   6.333   2.652  1.0632 -3.2061 -0.5329
 8391TIP3    H246665   1.875   6.276   2.534 -2.1288 -0.3803 -0.0222
 8392TIP3   OH246666   3.117   4.071   1.708  0.0274  0.4358 -0.4240
 8392TIP3    H146667   3.206   4.037   1.696  0.0248  0.4927 -0.6146
 8392TIP3    H246668   3.093   4.045   1.797  1.3024  2.7831  0.7264
 8393TIP3   OH246669   3.424   2.739  13.674  0.0981 -0.2237  0.1200
 8393TIP3    H146670   3.372   2.758  13.753  0.6557 -1.4983  0.8259
 8393TIP3    H246671   3.460   2.823  13.648 -0.0688  0.2143  1.2491
 8394TIP3   OH246672   5.102   4.635  14.871  0.1135 -0.0380  0.2318
 8394TIP3    H146673   5.189   4.594  14.873 -0.5246 -1.4390  0.9602
 8394TIP3    H246674   5.047   4.572  14.824 -0.4959  0.9007 -0.3516
 8395TIP3   OH246675   3.205   1.084   5.429  0.2139  0.0269 -0.3156
 8395TIP3    H146676   3.141   1.013   5.436  1.0750 -0.8734 -1.1356
 8395TIP3    H246677   3.153   1.164   5.429 -0.7554 -0.5612  1.1004
 8396TIP3   OH246678   1.504   1.373   0.367 -0.3121 -0.1920  0.2504
 8396TIP3    H146679   1.535   1.396   0.279 -0.4676 -1.0775 -0.0547
 8396TIP3    H246680   1.526   1.448   0.421 -0.4299  0.4717 -0.5991
 8397TIP3   OH246681   1.866   4.433   2.885  0.1202 -0.2920 -0.5849
 8397TIP3    H146682   1.887   4.526   2.896  1.0190 -0.3726 -1.4944
 8397TIP3    H246683   1.940   4.397   2.837 -0.5766 -1.3335 -0.9146
 8398TIP3   OH246684   3.621   6.398   0.169  0.5485  0.2482 -0.1529
 8398TIP3    H146685   3.578   6.474   0.208 -1.5209  0.0974 -1.9312
 8398TIP3    H246686   3.601   6.326   0.228 -2.0589  0.1225 -1.0586
 8399TIP3   OH246687   6.782   2.940   0.882 -0.4704 -0.2852 -0.3383
 8399TIP3    H146688   6.780   2.856   0.837  0.5872 -0.5752  0.1506
 8399TIP3    H246689   6.766   2.919   0.974 -0.4687  0.0807 -0.2516
 8400TIP3   OH246690   5.283   6.308   0.558  0.2789 -0.4498  0.1919
 8400TIP3    H146691   5.250   6.252   0.628  1.2763 -1.3721 -0.0461
 8400TIP3    H246692   5.301   6.392   0.600  2.6521 -1.5364  1.5030
 8401TIP3   OH246693   0.597   3.915   3.962  0.0768 -0.1937  0.2774
 8401TIP3    H146694   0.570   3.833   4.003 -0.4641 -0.4450 -0.5497
 8401TIP3    H246695   0.680   3.937   4.004 -1.3678  0.6502  2.9683
 8402TIP3   OH246696   6.206   2.385  14.060  0.1707 -0.0626 -0.6641
 8402TIP3    H146697   6.201   2.320  13.990 -0.2824  0.6464 -1.3083
 8402TIP3    H246698   6.287   2.433  14.042  0.5248 -0.4619 -0.1672
 8403TIP3   OH246699   3.197   3.390   0.297 -0.5416 -0.0954  0.0201
 8403TIP3    H146700   3.234   3.301   0.293  0.3652  0.2392  0.7241
 8403TIP3    H246701   3.102   3.376   0.297 -0.4153 -1.1031  0.8767
 8404TIP3   OH246702   2.403   3.997  14.287  0.4919 -0.2143  0.2525
 8404TIP3    H146703   2.368   3.920  14.331  2.2084 -1.2340 -0.0923
 8404TIP3    H246704   2.361   4.071  14.331 -1.3454 -1.3240  0.4531
 8405TIP3   OH246705   5.280   2.515  16.681 -0.5089 -0.3888 -0.3898
 8405TIP3    H146706   5.368   2.531  16.715 -0.5156 -0.7084 -0.2151
 8405TIP3    H246707   5.294   2.475  16.595 -0.4870 -0.1290 -0.5083
 8406TIP3   OH246708   6.611   2.616   1.361  0.5958 -0.1205 -0.0888
 8406TIP3    H146709   6.636   2.673   1.434  0.3025  0.0364 -0.1113
 8406TIP3    H246710   6.694   2.588   1.323  0.7598 -0.3683  0.4339
 8407TIP3   OH246711   3.507   4.897  13.598 -0.2662  0.2435 -0.5125
 8407TIP3    H146712   3.582   4.859  13.553  0.2844  1.9687 -1.1557
 8407TIP3    H246713   3.527   4.887  13.691  0.0987 -0.5447 -0.6719
 8408TIP3   OH246714   1.597   4.128  16.849  0.2550  0.4681  0.6796
 8408TIP3    H146715   1.504   4.147  16.863 -0.6747 -2.3266 -0.8106
 8408TIP3    H246716   1.601   4.032  16.848  3.0068  0.5125 -0.2474
 8409TIP3   OH246717   1.471   3.921  14.380  0.1460  0.4130 -0.1405
 8409TIP3    H146718   1.459   3.970  14.299  0.3279 -1.8061 -1.5912
 8409TIP3    H246719   1.395   3.944  14.434 -0.2123  1.5806 -1.1066
 8410TIP3   OH246720   3.294   6.266   4.092  0.4006 -0.3865  0.0745
 8410TIP3    H146721   3.291   6.176   4.058 -1.2814 -1.8061  3.4905
 8410TIP3    H246722   3.204   6.297   4.084  0.6396  0.3938  0.3687
 8411TIP3   OH246723   2.474   2.116  11.032 -0.1492 -0.0000 -0.1100
 8411TIP3    H146724   2.465   2.175  10.957  2.8672  1.5151  0.5555
 8411TIP3    H246725   2.569   2.107  11.044 -0.5232 -2.9052  1.5049
 8412TIP3   OH246726   4.791   5.850   0.180  0.1683  0.1137 -0.2553
 8412TIP3    H146727   4.863   5.872   0.239 -0.2343  0.5336  0.0875
 8412TIP3    H246728   4.732   5.796   0.233 -0.5937  1.1480 -0.0091
 8413TIP3   OH246729   0.258   2.955   5.808 -0.4203 -0.9987 -0.0870
 8413TIP3    H146730   0.168   2.977   5.782 -0.2047 -0.3223 -0.2818
 8413TIP3    H246731   0.251   2.936   5.902 -0.5370  0.5131  0.2451
 8414TIP3   OH246732   2.600   6.440  12.389 -0.3615 -0.4584 -0.1687
 8414TIP3    H146733   2.510   6.466  12.408 -0.1388  0.3120 -0.1077
 8414TIP3    H246734   2.599   6.345  12.390 -0.5986 -0.5048  2.5839
 8415TIP3   OH246735   4.643   6.065   3.342 -0.0389 -0.3266  0.3597
 8415TIP3    H146736   4.695   6.144   3.329 -1.1701  0.5411  0.8897
 8415TIP3    H246737   4.553   6.093   3.326 -0.4183 -1.6508  0.0168
 8416TIP3   OH246738   6.554   1.253  14.045  0.6738  0.4257 -0.3854
 8416TIP3    H146739   6.613   1.284  13.977  2.6149  0.4531  1.2233
 8416TIP3    H246740   6.497   1.327  14.063  0.3870  0.5386 -1.6772
 8417TIP3   OH246741   2.666   0.500   1.330 -0.3366 -0.0657 -0.7580
 8417TIP3    H146742   2.575   0.488   1.303 -0.3641 -0.2276 -0.5938
 8417TIP3    H246743   2.707   0.547   1.257 -0.5673  0.0661 -0.8039
 8418TIP3   OH246744   4.150   1.633   6.070 -0.0324  0.0920  0.1986
 8418TIP3    H146745   4.228   1.650   6.123  0.9355 -0.1436 -1.0809
 8418TIP3    H246746   4.132   1.716   6.026  0.6591 -0.3358 -0.9392
 8419TIP3   OH246747   0.139   4.686  11.840 -0.1792  0.2138 -0.3555
 8419TIP3    H146748   0.232   4.665  11.842 -0.6056 -1.7824  0.4204
 8419TIP3    H246749   0.123   4.715  11.750  1.2415  1.0293 -0.3862
 8420TIP3   OH246750   0.335   0.045   3.079  0.3142  0.1679 -0.0722
 8420TIP3    H146751   0.423   0.021   3.050  0.1785  0.9053 -1.1679
 8420TIP3    H246752   0.347   0.127   3.126  0.1307  0.6970 -0.9231
 8421TIP3   OH246753   3.603   1.021   1.882  0.4897 -0.1285 -0.1695
 8421TIP3    H146754   3.690   0.994   1.853  1.5927  1.0881  1.8001
 8421TIP3    H246755   3.612   1.113   1.905 -2.2002  1.0552 -3.0343
 8422TIP3   OH246756   1.904   4.016  17.077  0.6028 -0.5896 -0.1679
 8422TIP3    H146757   1.837   3.956  17.109  1.1338 -0.0426  2.1475
 8422TIP3    H246758   1.985   3.965  17.078  0.7480 -0.3545  0.0464
 8423TIP3   OH246759   2.613   0.201   5.061 -0.4074 -0.0966 -0.5476
 8423TIP3    H146760   2.653   0.273   5.011  1.4843 -1.1385 -0.6371
 8423TIP3    H246761   2.674   0.185   5.132 -2.5922  0.7229  1.6382
 8424TIP3   OH246762   5.259   2.668  11.971 -0.2262 -0.0437 -0.3775
 8424TIP3    H146763   5.343   2.624  11.957 -0.8768 -1.3261 -0.4768
 8424TIP3    H246764   5.226   2.686  11.883 -0.6647 -0.7920 -0.3757
 8425TIP3   OH246765   0.237   5.129  12.389 -0.7556 -0.5620  0.1022
 8425TIP3    H146766   0.266   5.040  12.409  2.2660  0.1980 -0.3644
 8425TIP3    H246767   0.242   5.176  12.473  2.0782  0.1500 -0.3335
 8426TIP3   OH246768   6.247   3.440   4.482  0.0686 -0.4482  0.0370
 8426TIP3    H146769   6.307   3.375   4.448  1.6563 -0.2116  2.1702
 8426TIP3    H246770   6.225   3.495   4.407  0.4786 -2.0535 -1.3146
 8427TIP3   OH246771   2.124   1.430  11.774  0.1278  0.2537 -0.6658
 8427TIP3    H146772   2.195   1.475  11.821  0.6087 -0.2666 -0.8824
 8427TIP3    H246773   2.168   1.359  11.727 -0.7360 -1.0097  0.3880
 8428TIP3   OH246774   4.871   0.552  16.525 -0.2830 -0.2197  0.1289
 8428TIP3    H146775   4.824   0.593  16.453 -1.7478 -1.1983  0.4749
 8428TIP3    H246776   4.963   0.557  16.500 -0.7291 -0.2426 -1.6578
 8429TIP3   OH246777   5.869   4.938  11.578 -0.5306  0.2775  0.3766
 8429TIP3    H146778   5.935   5.006  11.591 -0.1353 -0.3402  1.8245
 8429TIP3    H246779   5.845   4.945  11.486  1.8863  0.2323 -0.3345
 8430TIP3   OH246780   4.728   4.126  16.147  0.1562 -0.4422  0.5120
 8430TIP3    H146781   4.801   4.083  16.193  1.2975  1.6590  0.7818
 8430TIP3    H246782   4.765   4.209  16.116 -1.7551  0.0448 -0.5920
 8431TIP3   OH246783   2.286   1.491   4.559  0.1694  0.3750  0.6331
 8431TIP3    H146784   2.311   1.583   4.569  1.3146  0.1412 -0.0247
 8431TIP3    H246785   2.204   1.494   4.509  0.3909  1.0233  0.2983
 8432TIP3   OH246786   3.872   5.717   0.610 -0.6704  0.0342  0.1899
 8432TIP3    H146787   3.958   5.729   0.650 -0.1480  0.4650 -1.0217
 8432TIP3    H246788   3.830   5.649   0.663  0.0445  0.4841  1.3657
 8433TIP3   OH246789   4.626   0.304   5.680  0.7819 -0.6381 -0.1742
 8433TIP3    H146790   4.602   0.292   5.772 -0.2545 -1.3908 -0.5276
 8433TIP3    H246791   4.690   0.375   5.681  2.4004 -2.0257  1.3676
 8434TIP3   OH246792   1.134   0.155  12.607 -0.3523 -0.2434 -0.0388
 8434TIP3    H146793   1.099   0.143  12.695 -1.4463 -1.4037 -0.6076
 8434TIP3    H246794   1.229   0.154  12.619 -0.4184  2.1099  1.4236
 8435TIP3   OH246795   1.127   4.023   2.881 -0.0563  0.1729  0.2280
 8435TIP3    H146796   1.215   3.984   2.892  0.2633  0.9516  0.4554
 8435TIP3    H246797   1.144   4.114   2.857 -0.8079  0.4777  0.8125
 8436TIP3   OH246798   4.377   5.039  12.527  0.2420 -0.0598 -0.0232
 8436TIP3    H146799   4.316   5.013  12.458  1.0205 -0.5768 -0.5347
 8436TIP3    H246800   4.322   5.054  12.604 -0.3785 -2.0299 -0.0385
 8437TIP3   OH246801   2.501   4.157  14.919  0.1587 -0.3879 -0.3906
 8437TIP3    H146802   2.442   4.213  14.869  0.2767  0.5311  0.4685
 8437TIP3    H246803   2.569   4.132  14.857 -0.3889 -0.3390 -1.0291
 8438TIP3   OH246804   2.154   2.124  16.829  0.2067 -0.0570 -0.0942
 8438TIP3    H146805   2.200   2.161  16.905  1.1718 -1.1580 -0.1238
 8438TIP3    H246806   2.091   2.193  16.804  0.2943  0.5771  1.3086
 8439TIP3   OH246807   3.514   1.291  16.405 -0.3739 -0.2222 -0.2431
 8439TIP3    H146808   3.577   1.297  16.477 -0.6216  2.0378 -0.1564
 8439TIP3    H246809   3.561   1.321  16.328 -1.2978  1.5455 -0.1678
 8440TIP3   OH246810   0.257   0.447  12.898 -0.1452  0.5670  0.9114
 8440TIP3    H146811   0.176   0.395  12.898 -0.6621  1.3232  2.1033
 8440TIP3    H246812   0.314   0.401  12.959 -0.1245  0.7065  0.9956
 8441TIP3   OH246813   2.796   1.042   2.637  0.0627  0.7499 -0.3354
 8441TIP3    H146814   2.715   1.069   2.681 -0.2965 -0.6275 -0.1270
 8441TIP3    H246815   2.767   0.989   2.564  0.7444 -3.1253  1.9180
 8442TIP3   OH246816   1.192   6.360  11.501  0.8656  0.2908 -0.0366
 8442TIP3    H146817   1.216   6.389  11.590  1.2952 -0.6184  0.1545
 8442TIP3    H246818   1.162   6.270  11.513  0.0437  0.4712 -0.6960
 8443TIP3   OH246819   2.169   1.291  14.844 -0.4256 -0.1943  0.0959
 8443TIP3    H146820   2.076   1.304  14.864 -0.0755  0.0462  1.6620
 8443TIP3    H246821   2.205   1.380  14.840 -0.3488 -0.2617 -1.0401
 8444TIP3   OH246822   0.922   3.501   0.176  0.0581 -0.0744 -0.4160
 8444TIP3    H146823   0.978   3.500   0.098 -1.3016 -1.2206 -1.4530
 8444TIP3    H246824   0.943   3.583   0.220  2.1999 -0.2631 -0.9767
 8445TIP3   OH246825   1.491   4.938   1.003 -0.1659  0.4134 -0.2250
 8445TIP3    H146826   1.544   4.923   1.081  0.9414 -0.6517 -1.1383
 8445TIP3    H246827   1.402   4.950   1.035  0.5112  1.6008  1.3072
 8446TIP3   OH246828   3.450   1.661  11.547  0.3475 -0.4285 -0.1067
 8446TIP3    H146829   3.373   1.716  11.529  0.1847 -1.5690 -3.8487
 8446TIP3    H246830   3.416   1.588  11.598 -0.5114  0.3203  0.4303
 8447TIP3   OH246831   6.241   6.416  14.974  0.2961  0.0635  0.9608
 8447TIP3    H146832   6.304   6.437  15.043  2.5802  0.5827 -1.1409
 8447TIP3    H246833   6.218   6.501  14.937  0.6752 -0.3079 -0.1741
 8448TIP3   OH246834   4.810   1.072  13.243  0.5963 -0.3538 -0.5069
 8448TIP3    H146835   4.895   1.099  13.277 -0.4254  1.4103  0.7659
 8448TIP3    H246836   4.792   1.133  13.171 -0.2401  0.2464  0.1989
 8449TIP3   OH246837   1.005   4.053  12.566  0.1395  0.1404 -0.0710
 8449TIP3    H146838   0.982   4.010  12.648  0.7390 -0.6916 -0.3246
 8449TIP3    H246839   1.018   4.145  12.590 -0.1692  0.0007  0.6676
 8450TIP3   OH246840   5.835   1.457  13.477  0.3027  0.0551  0.1183
 8450TIP3    H146841   5.819   1.522  13.545  0.8940  1.8406 -1.3797
 8450TIP3    H246842   5.923   1.423  13.496  0.7107  0.9805 -0.0960
 8451TIP3   OH246843   5.548   5.032  12.713 -0.3279 -0.0133  0.0794
 8451TIP3    H146844   5.630   4.983  12.725  0.8175  1.9895  0.8634
 8451TIP3    H246845   5.555   5.070  12.626  1.1267  2.7367  1.2740
 8452TIP3   OH246846   5.516   1.912   2.705 -0.5126  0.0119 -0.3220
 8452TIP3    H146847   5.447   1.846   2.716 -1.4209  0.8996 -0.5608
 8452TIP3    H246848   5.472   1.996   2.719  0.5948  0.5877 -0.1563
 8453TIP3   OH246849   6.273   6.615   2.211 -0.3721 -0.0231 -0.0170
 8453TIP3    H146850   6.243   6.695   2.255 -1.2130 -0.4368  0.1821
 8453TIP3    H246851   6.193   6.575   2.176 -0.3146 -2.0352  1.9594
 8454TIP3   OH246852   2.482   6.726  12.296 -0.2207 -0.2067 -0.1361
 8454TIP3    H146853   2.427   6.770  12.232 -0.0344  0.4061  0.1262
 8454TIP3    H246854   2.423   6.662  12.338 -1.0289  1.1486  0.8715
 8455TIP3   OH246855   2.850   4.270  11.134 -0.1107 -0.0846  0.1561
 8455TIP3    H146856   2.778   4.285  11.195  0.1249 -0.6511  0.5853
 8455TIP3    H246857   2.860   4.175  11.133  0.3889 -0.0290 -0.1873
 8456TIP3   OH246858   2.298   2.343   3.143  0.5037  0.0580 -0.5717
 8456TIP3    H146859   2.337   2.277   3.087 -0.8047 -1.6627  0.4417
 8456TIP3    H246860   2.314   2.312   3.232 -2.4551 -0.4270 -0.0891
 8457TIP3   OH246861   4.730   4.883  13.965 -0.4676 -0.3485  0.1423
 8457TIP3    H146862   4.734   4.809  13.905  0.2853 -0.8845  0.8182
 8457TIP3    H246863   4.666   4.942  13.926 -1.0763 -1.3400 -0.4291
 8458TIP3   OH246864   0.273   1.468  12.924 -0.3187  0.4615 -0.6126
 8458TIP3    H146865   0.301   1.392  12.872  2.2740 -0.3490  1.7289
 8458TIP3    H246866   0.178   1.459  12.929 -0.3151 -1.3944 -2.1920
 8459TIP3   OH246867   2.278   0.374  14.870 -0.3491  0.1422 -0.3089
 8459TIP3    H146868   2.276   0.294  14.922  0.9073  1.3902  1.8103
 8459TIP3    H246869   2.196   0.419  14.892  0.5005  1.0101  1.3036
 8460TIP3   OH246870   4.749   4.396   1.143 -0.1155  0.2440 -0.0431
 8460TIP3    H146871   4.731   4.375   1.051 -2.2643  2.0218 -0.1172
 8460TIP3    H246872   4.663   4.394   1.185  0.8450 -0.6818  2.0011
 8461TIP3   OH246873   1.165   2.118  14.218  0.1903  0.6182 -0.2771
 8461TIP3    H146874   1.171   2.142  14.125  1.2239 -2.3060 -1.0860
 8461TIP3    H246875   1.092   2.056  14.222 -0.2428  1.1795  1.0049
 8462TIP3   OH246876   2.202   5.086  16.309  0.3800  0.2585 -0.1265
 8462TIP3    H146877   2.232   5.109  16.221  1.8839 -4.4521 -1.1201
 8462TIP3    H246878   2.282   5.067  16.358 -0.5001 -3.1127  0.2320
 8463TIP3   OH246879   0.720   6.243  11.779 -0.0777  0.3180  0.5086
 8463TIP3    H146880   0.769   6.167  11.809 -1.3925  0.1562  2.4041
 8463TIP3    H246881   0.679   6.214  11.697  1.6301 -0.0612 -0.2408
 8464TIP3   OH246882   5.813   0.833  15.180  0.2071  0.1707  0.3461
 8464TIP3    H146883   5.736   0.823  15.125 -0.6961  2.2613  1.1234
 8464TIP3    H246884   5.787   0.795  15.264  0.1311  0.5705  0.5055
 8465TIP3   OH246885   4.288   2.851  13.880 -0.0672  0.3129 -0.1416
 8465TIP3    H146886   4.311   2.797  13.805  2.0634  2.5377 -1.2522
 8465TIP3    H246887   4.246   2.928  13.842 -0.8119  0.5535  1.1338
 8466TIP3   OH246888   5.750   5.079   1.425 -0.4239 -0.1481  0.3846
 8466TIP3    H146889   5.738   5.121   1.510 -0.4629  2.6439 -0.8606
 8466TIP3    H246890   5.842   5.053   1.423 -0.1810  0.6310  0.9534
 8467TIP3   OH246891   4.812   1.985  13.456 -0.3611 -0.1411 -0.2605
 8467TIP3    H146892   4.731   2.036  13.450 -0.5548 -0.6005 -2.0730
 8467TIP3    H246893   4.794   1.920  13.524 -1.6471 -0.4353 -0.8438
 8468TIP3   OH246894   1.386   2.099   1.828 -0.4484  0.0669 -0.4234
 8468TIP3    H146895   1.436   2.131   1.753  0.9740 -0.2642  0.3432
 8468TIP3    H246896   1.350   2.178   1.868  1.7767  0.6670  0.5757
 8469TIP3   OH246897   1.152   0.156   4.263  0.1962 -0.0768 -0.1201
 8469TIP3    H146898   1.153   0.216   4.338 -1.0240  0.2510 -0.3370
 8469TIP3    H246899   1.064   0.164   4.227 -0.0401 -2.1026 -0.1023
 8470TIP3   OH246900   1.294   0.164  13.332 -0.0927 -0.1677 -0.0926
 8470TIP3    H146901   1.288   0.141  13.424 -1.3381  0.7487  0.0803
 8470TIP3    H246902   1.319   0.082  13.288  0.7461 -0.5544  1.0598
 8471TIP3   OH246903   2.755   3.259  14.068 -0.2363 -0.3284 -0.4165
 8471TIP3    H146904   2.791   3.172  14.085 -2.8288 -1.1540  1.5176
 8471TIP3    H246905   2.758   3.304  14.152  0.5539  1.3090 -1.2680
 8472TIP3   OH246906   4.748   6.309  14.777  0.1662  0.4698  0.1101
 8472TIP3    H146907   4.796   6.262  14.710 -0.3422  3.2416 -2.4593
 8472TIP3    H246908   4.709   6.241  14.832  3.5886 -1.8951 -0.1292
 8473TIP3   OH246909   3.681   2.211  13.319  0.2400 -0.2452 -0.0643
 8473TIP3    H146910   3.637   2.275  13.264  0.6687  0.2637  0.1748
 8473TIP3    H246911   3.612   2.175  13.375 -0.0726 -0.2875 -0.4666
 8474TIP3   OH246912   3.583   0.232   5.000 -0.4434  0.4602 -0.2148
 8474TIP3    H146913   3.614   0.318   5.029 -0.2514  1.1102 -2.1742
 8474TIP3    H246914   3.520   0.205   5.066  1.0152  1.1346  1.5468
 8475TIP3   OH246915   2.552   1.860   3.088  0.4879 -0.1807  0.2191
 8475TIP3    H146916   2.557   1.916   3.165  2.2151  0.3896 -0.2666
 8475TIP3    H246917   2.475   1.805   3.103 -0.2003  1.0827  1.5368
 8476TIP3   OH246918   2.634   6.632   4.427  0.1863  0.3258  0.3580
 8476TIP3    H146919   2.697   6.566   4.400  1.1491  1.9984 -1.8681
 8476TIP3    H246920   2.549   6.589   4.417  0.8368 -1.4470  1.8388
 8477TIP3   OH246921   0.587   3.379   1.262 -0.9066 -0.2247  0.5804
 8477TIP3    H146922   0.551   3.376   1.350 -0.0804  2.5882  1.1318
 8477TIP3    H246923   0.511   3.384   1.205 -1.4353 -0.6883  1.2294
 8478TIP3   OH246924   1.372   4.212   0.665  0.2669 -0.2178 -0.5211
 8478TIP3    H146925   1.451   4.162   0.687  0.5847  0.5232  0.0680
 8478TIP3    H246926   1.356   4.191   0.573  0.5491 -1.1820 -0.3678
 8479TIP3   OH246927   1.503   1.659  14.131  0.7580  0.5353  0.0856
 8479TIP3    H146928   1.439   1.589  14.149  2.3085 -1.1011 -0.4641
 8479TIP3    H246929   1.458   1.739  14.158 -0.5588 -0.7904  2.1641
 8480TIP3   OH246930   5.479   4.515  11.079  0.1760  0.8226  0.7186
 8480TIP3    H146931   5.483   4.572  11.156  0.9293  2.3480 -0.3775
 8480TIP3    H246932   5.548   4.549  11.021 -0.6474  0.0115 -0.8038
 8481TIP3   OH246933   4.766   0.401  13.174  0.0922  0.3798 -0.3367
 8481TIP3    H146934   4.710   0.468  13.134  0.1640  0.2205 -0.7131
 8481TIP3    H246935   4.774   0.427  13.266 -2.1827 -0.6302  0.2116
 8482TIP3   OH246936   1.968   5.858   5.675 -0.3457  0.1785 -0.5775
 8482TIP3    H146937   2.037   5.795   5.656 -0.4175 -1.2461  3.0528
 8482TIP3    H246938   1.895   5.831   5.620  0.3284 -1.6351 -0.6404
 8483TIP3   OH246939   4.874   4.535   4.947 -0.3834 -0.0856  0.2972
 8483TIP3    H146940   4.950   4.517   4.892  0.0323  1.5756  0.2684
 8483TIP3    H246941   4.805   4.479   4.911  0.2292  0.0145 -1.1038
 8484TIP3   OH246942   2.632   4.216   5.210 -0.4384  0.0612  0.1187
 8484TIP3    H146943   2.543   4.183   5.205 -0.4223  0.0066  0.1915
 8484TIP3    H246944   2.685   4.138   5.230 -0.7054  0.5457  3.0343
 8485TIP3   OH246945   2.942   6.626  14.468  0.0943 -0.1432 -0.2967
 8485TIP3    H146946   2.871   6.668  14.420  0.6096 -0.3015 -1.2114
 8485TIP3    H246947   2.995   6.698  14.500  0.7428 -0.0668 -1.5045
 8486TIP3   OH246948   4.027   6.234  11.974  0.3585  0.4584  0.1572
 8486TIP3    H146949   4.059   6.322  11.991 -0.4996  1.0404 -1.0537
 8486TIP3    H246950   4.105   6.179  11.976  0.9118  1.2381  0.8980
 8487TIP3   OH246951   1.383   1.201   3.265 -0.2797 -0.5699  0.7379
 8487TIP3    H146952   1.379   1.115   3.307  3.0104 -1.0320  0.3894
 8487TIP3    H246953   1.446   1.190   3.194  1.2841  2.3826  1.4998
 8488TIP3   OH246954   4.644   4.955  12.055 -0.3384 -0.0539 -0.0646
 8488TIP3    H146955   4.618   4.935  12.145  2.3372  1.1872  1.1051
 8488TIP3    H246956   4.698   4.881  12.029 -0.5595 -0.0929 -0.4132
 8489TIP3   OH246957   3.285   4.344   6.406 -0.1354  0.0008 -0.2335
 8489TIP3    H146958   3.265   4.424   6.453  0.4946  0.2345 -0.3606
 8489TIP3    H246959   3.381   4.340   6.404 -0.1594 -0.7259 -0.2688
 8490TIP3   OH246960   5.091   0.607   2.988 -0.0283  0.1268 -0.4898
 8490TIP3    H146961   5.063   0.520   3.015 -0.6876  0.8386  1.2852
 8490TIP3    H246962   5.073   0.663   3.064  3.8853  1.1428 -0.0897
 8491TIP3   OH246963   2.360   1.529  14.941  0.0340  0.2216  0.1361
 8491TIP3    H146964   2.442   1.545  14.986 -0.5984  0.4958  1.2278
 8491TIP3    H246965   2.374   1.563  14.852  0.7700  1.1757  0.6036
 8492TIP3   OH246966   5.559   3.118  13.663  0.2893  0.5155 -0.0215
 8492TIP3    H146967   5.608   3.162  13.734  0.9786  0.0513 -0.1968
 8492TIP3    H246968   5.627   3.088  13.603 -0.1340 -1.0809  0.2599
 8493TIP3   OH246969   5.534   1.023  14.830 -0.0014  0.4284  0.2544
 8493TIP3    H146970   5.575   1.099  14.788  1.7806 -0.5775  0.0532
 8493TIP3    H246971   5.464   1.060  14.883 -0.9294  1.9320 -1.8989
 8494TIP3   OH246972   0.503   2.588  15.911  0.3904  0.1197  0.1222
 8494TIP3    H146973   0.533   2.556  15.826  2.1422 -0.4787  0.9116
 8494TIP3    H246974   0.465   2.674  15.893  1.9900  0.6155 -1.0806
 8495TIP3   OH246975   1.707   3.130  14.800  0.3911  0.0873 -0.4105
 8495TIP3    H146976   1.701   3.082  14.883 -1.6328 -1.0069 -1.1010
 8495TIP3    H246977   1.780   3.089  14.754 -0.0898 -1.0802 -0.1833
 8496TIP3   OH246978   6.292   4.830  14.035  0.2229  0.2310 -0.4668
 8496TIP3    H146979   6.281   4.921  14.008  2.1762  0.5393 -0.3396
 8496TIP3    H246980   6.375   4.829  14.083 -0.8012 -1.2001  1.4362
 8497TIP3   OH246981   4.484   3.946   1.120  0.2213  0.8417 -0.3028
 8497TIP3    H146982   4.531   3.910   1.044  0.7944 -0.4192  0.6124
 8497TIP3    H246983   4.399   3.901   1.119  1.1472 -1.0777  1.1630
 8498TIP3   OH246984   6.134   1.578   5.803  0.5018 -0.6158 -0.2864
 8498TIP3    H146985   6.142   1.537   5.717 -0.6081 -0.5590 -0.4418
 8498TIP3    H246986   6.164   1.512   5.865 -1.8655 -1.9847 -0.4717
 8499TIP3   OH246987   0.319   4.602   2.244  0.3177  0.1856 -0.2205
 8499TIP3    H146988   0.270   4.601   2.162  1.4607  2.1195 -1.0122
 8499TIP3    H246989   0.294   4.684   2.286  1.8291  0.5763 -0.0198
 8500TIP3   OH246990   2.378   0.436  11.952 -0.4729  0.1217  0.5397
 8500TIP3    H146991   2.312   0.492  11.992  0.8823  2.2701 -0.0671
 8500TIP3    H246992   2.438   0.413  12.023  0.0644  1.1258  0.4226
 8501TIP3   OH246993   0.355   1.437   2.366 -0.1333  0.2169 -0.1241
 8501TIP3    H146994   0.298   1.510   2.340 -0.4155 -0.3889 -1.2399
 8501TIP3    H246995   0.437   1.479   2.391 -0.6388  1.0012  0.2702
 8502TIP3   OH246996   3.938   3.767  10.813 -0.5254 -0.1298 -0.4170
 8502TIP3    H146997   3.861   3.730  10.858  0.2127 -0.8241  0.3249
 8502TIP3    H246998   3.935   3.729  10.726 -1.4374  0.4567 -0.6647
 8503TIP3   OH246999   0.328   5.192   0.928  0.4667  0.2489 -0.5490
 8503TIP3    H147000   0.303   5.206   0.836  2.5551  0.6371 -1.1189
 8503TIP3    H247001   0.246   5.203   0.977 -0.3101  2.3234 -2.1405
 8504TIP3   OH247002   6.026   2.955   2.037  0.2168  0.6612  0.3052
 8504TIP3    H147003   6.077   2.977   2.115  2.2410  0.9746 -1.0122
 8504TIP3    H247004   6.049   3.024   1.974 -0.6641 -0.0788 -0.8701
 8505TIP3   OH247005   0.546   5.476   2.445 -0.0040  0.4994  0.6552
 8505TIP3    H147006   0.602   5.499   2.371  0.4619 -0.2902  0.7483
 8505TIP3    H247007   0.565   5.541   2.512  3.1536 -1.4935  1.8761
 8506TIP3   OH247008   2.918   5.970  15.516  0.3046  0.1842 -0.1702
 8506TIP3    H147009   2.894   5.986  15.607  0.8368  0.0715 -0.0084
 8506TIP3    H247010   2.996   5.915  15.520  1.6238  1.9221 -0.6487
 8507TIP3   OH247011   2.852   5.438  16.560 -0.1819  0.2756  0.3388
 8507TIP3    H147012   2.802   5.503  16.609 -0.0774  0.4719  0.1885
 8507TIP3    H247013   2.934   5.483  16.538 -0.1910  0.1601  0.0656
 8508TIP3   OH247014   6.280   5.558   5.379  0.2344  0.1851  0.2201
 8508TIP3    H147015   6.273   5.551   5.474 -0.8879 -0.4937  0.1104
 8508TIP3    H247016   6.266   5.468   5.347  0.3226  0.4493 -0.6028
 8509TIP3   OH247017   6.838   4.952  13.490 -0.3029 -0.1407 -0.1217
 8509TIP3    H147018   6.795   4.957  13.405  0.9987  0.1640 -0.7742
 8509TIP3    H247019   6.931   4.956  13.471  0.0467 -0.8711  1.2633
 8510TIP3   OH247020   0.398   3.549   0.898  0.6608 -0.1024  0.3467
 8510TIP3    H147021   0.338   3.600   0.952  0.3149  0.4106 -0.4957
 8510TIP3    H247022   0.485   3.579   0.924  0.4888  0.3186  0.4437
 8511TIP3   OH247023   5.483   5.679  14.525 -0.8452 -0.4407 -0.1791
 8511TIP3    H147024   5.472   5.674  14.430 -0.7565  1.8890 -0.3772
 8511TIP3    H247025   5.566   5.635  14.542 -0.1989  0.2619 -1.3742
 8512TIP3   OH247026   2.828   1.268  11.344 -0.5881  0.3520  0.6030
 8512TIP3    H147027   2.741   1.230  11.353 -1.1147  1.0305 -1.2633
 8512TIP3    H247028   2.857   1.242  11.256  1.4578 -0.5337  1.4601
 8513TIP3   OH247029   6.242   4.066   1.548 -0.6852  0.0200 -0.0551
 8513TIP3    H147030   6.152   4.093   1.529 -0.4662  1.4379  0.7151
 8513TIP3    H247031   6.291   4.149   1.549  0.6674 -0.7475 -0.6554
 8514TIP3   OH247032   0.964   2.014  15.175 -0.1432  0.5903  0.0135
 8514TIP3    H147033   0.937   2.039  15.087  0.0178  1.1253  0.1156
 8514TIP3    H247034   0.976   1.919  15.170  1.9799  0.8603 -1.1068
 8515TIP3   OH247035   4.359   2.054  13.605  0.0801 -0.4588 -0.2234
 8515TIP3    H147036   4.283   2.101  13.572 -0.3138 -1.5524 -0.9272
 8515TIP3    H247037   4.374   2.091  13.692 -0.1599  0.9987 -0.7745
 8516TIP3   OH247038   2.776   1.988  16.683 -0.4795  0.0279 -0.2172
 8516TIP3    H147039   2.859   1.944  16.667 -0.6319 -0.4269  0.2081
 8516TIP3    H247040   2.739   2.002  16.596 -0.5501 -0.9253 -0.3498
 8517TIP3   OH247041   4.024   4.984   4.424 -0.0118 -0.0238  0.3619
 8517TIP3    H147042   4.030   5.023   4.337  0.4081 -0.2844  0.2704
 8517TIP3    H247043   3.933   4.999   4.451  0.0858  0.8273  0.2486
 8518TIP3   OH247044   3.415   3.947   4.552  0.1217 -0.5721 -0.2498
 8518TIP3    H147045   3.450   3.896   4.625 -0.4255 -1.2702 -0.4719
 8518TIP3    H247046   3.330   3.978   4.583  0.3920  0.1012 -0.1657
 8519TIP3   OH247047   4.661   0.691   5.145 -0.1401  0.2170  0.2155
 8519TIP3    H147048   4.655   0.621   5.210 -0.2645 -0.2437 -0.2867
 8519TIP3    H247049   4.576   0.735   5.148  0.4090  1.2773  1.5436
 8520TIP3   OH247050   4.932   1.158   5.739  0.5572 -0.0371 -0.6045
 8520TIP3    H147051   4.853   1.160   5.793  1.3029 -1.2961  0.5925
 8520TIP3    H247052   4.926   1.237   5.685 -0.9590  0.4738  0.2521
 8521TIP3   OH247053   5.170   4.635   3.888  0.2252  0.1605 -0.7865
 8521TIP3    H147054   5.104   4.598   3.947  0.5053 -0.3804 -0.8090
 8521TIP3    H247055   5.236   4.671   3.947  1.3741 -1.8952 -0.7118
 8522TIP3   OH247056   3.678   3.333  11.268  0.0009  0.0126 -0.5059
 8522TIP3    H147057   3.676   3.261  11.330  1.7479 -0.0226 -0.4379
 8522TIP3    H247058   3.594   3.377  11.278 -0.2283 -0.7312  0.9936
 8523TIP3   OH247059   3.732   2.640  10.876 -0.2031  0.4513 -0.3241
 8523TIP3    H147060   3.667   2.692  10.922  0.2041  0.7551 -0.0779
 8523TIP3    H247061   3.757   2.693  10.801  0.8649  1.0335  0.4121
 8524TIP3   OH247062   6.623   6.342   5.915  0.0963  0.0528  1.1746
 8524TIP3    H147063   6.658   6.430   5.899  0.7811 -0.2891  0.7658
 8524TIP3    H247064   6.614   6.336   6.010  4.2367 -0.9875  1.6782
 8525TIP3   OH247065   2.488   5.405  14.262  0.0029 -0.1359 -0.4953
 8525TIP3    H147066   2.416   5.384  14.203  1.4830 -2.7593 -1.5442
 8525TIP3    H247067   2.548   5.330  14.254  1.7783  0.8942  1.9898
 8526TIP3   OH247068   2.365   5.267   2.320 -0.3865  0.5731  0.3849
 8526TIP3    H147069   2.307   5.323   2.268 -0.3205  0.0618 -0.2428
 8526TIP3    H247070   2.445   5.261   2.269 -1.4353 -2.5520 -1.0996
 8527TIP3   OH247071   3.525   6.659  11.875 -0.3921  0.9626  0.2449
 8527TIP3    H147072   3.549   6.573  11.911 -0.0224  1.1015  0.3370
 8527TIP3    H247073   3.573   6.664  11.792  0.7192  1.6599  0.9041
 8528TIP3   OH247074   1.069   0.288  14.530 -0.0153  0.5495  0.0536
 8528TIP3    H147075   0.988   0.241  14.510  0.6384 -0.7900  0.4562
 8528TIP3    H247076   1.119   0.228  14.584  1.6840  0.9454 -1.0062
 8529TIP3   OH247077   4.404   0.724  15.632  0.1373 -0.1633 -0.0956
 8529TIP3    H147078   4.442   0.785  15.695 -1.5823 -0.2109  1.0760
 8529TIP3    H247079   4.315   0.709  15.665 -0.7898 -0.3009 -2.4934
 8530TIP3   OH247080   5.414   1.325  13.671  0.2401 -0.6750 -0.2779
 8530TIP3    H147081   5.452   1.376  13.599  0.5160 -0.3043  0.1315
 8530TIP3    H247082   5.487   1.273  13.704  0.0004 -1.2097 -0.5763
 8531TIP3   OH247083   0.261   6.791  12.940 -0.4074 -0.0912  0.0571
 8531TIP3    H147084   0.325   6.730  12.976 -1.4671 -0.9391  0.5440
 8531TIP3    H247085   0.314   6.859  12.899  0.8981 -2.4631 -2.5787
 8532TIP3   OH247086   6.187   4.641  12.385 -0.1088  0.2194 -0.0365
 8532TIP3    H147087   6.222   4.603  12.305 -0.2658  0.8873 -0.4319
 8532TIP3    H247088   6.138   4.718  12.356 -0.7092  0.1050  0.6421
 8533TIP3   OH247089   4.545   4.497  17.025 -0.1096  0.2248 -0.4806
 8533TIP3    H147090   4.600   4.469  17.098  0.5134 -1.2866 -1.4789
 8533TIP3    H247091   4.606   4.513  16.953 -0.6815  2.0630 -0.5950
 8534TIP3   OH247092   3.721   6.734  16.621  0.0484  0.1843  0.0676
 8534TIP3    H147093   3.812   6.706  16.620  0.6044  1.7467 -2.3859
 8534TIP3    H247094   3.678   6.676  16.684  2.4999 -1.2475  0.5382
 8535TIP3   OH247095   1.742   0.473   1.653  0.5628  0.0229 -0.5739
 8535TIP3    H147096   1.775   0.390   1.617 -0.6610 -0.7017 -0.0776
 8535TIP3    H247097   1.701   0.449   1.736 -1.7367  0.7433 -1.4144
 8536TIP3   OH247098   2.723   5.780  16.183 -0.0960 -0.5574 -0.4877
 8536TIP3    H147099   2.732   5.772  16.088  0.0951 -0.7724 -0.4523
 8536TIP3    H247100   2.698   5.692  16.211  1.0319 -0.7956 -0.2008
 8537TIP3   OH247101   5.137   5.263  11.584 -0.0637 -0.5780 -0.0967
 8537TIP3    H147102   5.064   5.206  11.559  0.7766 -2.7292  1.9610
 8537TIP3    H247103   5.210   5.203  11.598  1.4695  1.2682  0.1859
 8538TIP3   OH247104   1.869   4.220  14.867 -0.1531 -0.3531 -0.2097
 8538TIP3    H147105   1.776   4.213  14.887 -0.1842 -0.7274 -0.4705
 8538TIP3    H247106   1.909   4.143  14.909 -0.2756 -1.3620 -1.8338
 8539TIP3   OH247107   3.807   6.460  10.333 -0.8805 -0.3889  0.1246
 8539TIP3    H147108   3.834   6.536  10.384 -1.0242 -0.6899  0.6543
 8539TIP3    H247109   3.887   6.408  10.324 -0.9556 -0.5668  0.4536
 8540TIP3   OH247110   5.872   5.262  11.115 -0.6683  0.1842 -0.4506
 8540TIP3    H147111   5.962   5.261  11.084 -0.8308 -1.4612 -0.9773
 8540TIP3    H247112   5.846   5.354  11.112  0.7735  0.5959 -0.9136
 8541TIP3   OH247113   4.964   0.504  14.134 -0.6285  0.1150 -0.0348
 8541TIP3    H147114   4.924   0.591  14.125  1.9353  1.4961  0.8518
 8541TIP3    H247115   4.955   0.483  14.227  1.0951  0.7357  0.3169
 8542TIP3   OH247116   1.835   1.127   4.064 -0.4369 -0.3150 -0.5329
 8542TIP3    H147117   1.878   1.212   4.077 -1.5840  0.1728  0.2645
 8542TIP3    H247118   1.886   1.066   4.118  0.2484 -0.1029 -0.9199
 8543TIP3   OH247119   3.620   6.658   4.853  0.2772  0.5742 -0.4699
 8543TIP3    H147120   3.677   6.581   4.857 -0.5978 -0.0572  0.0900
 8543TIP3    H247121   3.539   6.631   4.896 -0.4742  1.4386 -1.2842
 8544TIP3   OH247122   3.930   4.598  13.581  0.2343 -0.4642  0.3051
 8544TIP3    H147123   3.993   4.650  13.632  0.7714 -0.1304 -0.6737
 8544TIP3    H247124   3.984   4.546  13.522 -0.4005 -0.3795 -0.3587
 8545TIP3   OH247125   2.277   3.349  13.848  0.1438 -0.4262 -0.2019
 8545TIP3    H147126   2.222   3.275  13.871 -1.8751  0.5364 -1.5258
 8545TIP3    H247127   2.351   3.311  13.800  0.2646 -1.6974  0.9289
 8546TIP3   OH247128   4.683   0.991  14.247  0.1915  0.2999 -0.9948
 8546TIP3    H147129   4.597   1.028  14.226  0.3655 -0.0670 -2.4944
 8546TIP3    H247130   4.714   0.955  14.164  0.8214 -1.5684 -0.0126
 8547TIP3   OH247131   2.880   6.335   1.984  0.2835 -0.3885 -0.0176
 8547TIP3    H147132   2.846   6.248   2.003 -0.3034 -0.6235 -1.9779
 8547TIP3    H247133   2.847   6.390   2.056 -1.2161 -1.3346  0.0518
 8548TIP3   OH247134   4.240   1.535  10.819 -0.0835  0.5095 -0.3561
 8548TIP3    H147135   4.306   1.507  10.756  1.0800 -0.2468  1.1346
 8548TIP3    H247136   4.176   1.583  10.767  1.2923  0.6886 -1.9573
 8549TIP3   OH247137   0.306   1.289   0.131  0.2953  0.5859  0.5056
 8549TIP3    H147138   0.236   1.277   0.067  1.1544  2.5021 -0.8991
 8549TIP3    H247139   0.284   1.229   0.202 -0.9727 -1.2532 -1.3384
 8550TIP3   OH247140   6.532   2.337  16.773 -0.4037 -0.2599 -0.0304
 8550TIP3    H147141   6.478   2.357  16.697  0.8594  0.0087 -0.8826
 8550TIP3    H247142   6.605   2.398  16.767  0.6784 -1.4787  0.3781
 8551TIP3   OH247143   0.350   3.055  12.319 -0.8282  0.5037  0.5000
 8551TIP3    H147144   0.307   2.972  12.296 -1.8882  0.5806  2.0246
 8551TIP3    H247145   0.341   3.109  12.241  0.5358 -1.0434 -0.7967
 8552TIP3   OH247146   5.774   5.928  11.899 -0.0991 -0.2349 -0.3810
 8552TIP3    H147147   5.862   5.891  11.893 -0.3692 -0.7791 -1.2721
 8552TIP3    H247148   5.736   5.889  11.978 -0.1056 -1.3006 -0.8851
 8553TIP3   OH247149   5.569   4.105  14.719  0.2683 -0.5583  0.0039
 8553TIP3    H147150   5.584   4.144  14.805  0.6663  0.4436 -0.5033
 8553TIP3    H247151   5.654   4.112  14.675 -0.2519  0.1023 -0.9195
 8554TIP3   OH247152   2.681   0.502  12.408 -0.2923  0.4898  0.5827
 8554TIP3    H147153   2.605   0.551  12.379 -0.4738 -1.0489 -1.8408
 8554TIP3    H247154   2.754   0.563  12.401 -0.7854  0.9680 -0.5474
 8555TIP3   OH247155   3.603   3.056   0.177 -0.0479 -0.0697  0.0439
 8555TIP3    H147156   3.608   2.992   0.106  1.1191  1.1926 -1.0748
 8555TIP3    H247157   3.540   3.121   0.146  0.8634  0.7666 -0.1063
 8556TIP3   OH247158   4.124   2.400   5.520 -0.4046  0.3393  0.1580
 8556TIP3    H147159   4.050   2.437   5.570 -0.8325  0.3671 -0.4902
 8556TIP3    H247160   4.090   2.390   5.431  0.7417  1.4254 -0.4160
 8557TIP3   OH247161   4.195   0.719  11.188  0.2438  0.1701 -0.3481
 8557TIP3    H147162   4.163   0.629  11.189 -1.6553  0.8130 -0.0819
 8557TIP3    H247163   4.284   0.713  11.222  0.7877 -1.8102 -1.9621
 8558TIP3   OH247164   6.330   0.797   6.491  0.3356 -0.0420 -0.0869
 8558TIP3    H147165   6.373   0.771   6.573 -0.9344  1.6099  1.1795
 8558TIP3    H247166   6.270   0.867   6.517  0.2642  0.8850 -2.5371
 8559TIP3   OH247167   6.461   2.061   6.572 -0.4577  0.0500  0.0641
 8559TIP3    H147168   6.553   2.063   6.547 -0.2219 -0.1733  0.8781
 8559TIP3    H247169   6.458   2.108   6.655 -0.3840 -3.3120  2.1236
 8560TIP3   OH247170   6.147   0.970   3.263  0.2325  0.0264 -0.4252
 8560TIP3    H147171   6.167   0.978   3.356  0.5387  0.4915 -0.5301
 8560TIP3    H247172   6.089   1.044   3.244  1.3800  0.8241 -0.9298
 8561TIP3   OH247173   6.530   5.861  15.530  0.0388 -0.4371  0.3664
 8561TIP3    H147174   6.466   5.930  15.512  0.5724  0.1602  0.7286
 8561TIP3    H247175   6.481   5.795  15.577 -1.1154 -1.5100 -2.1478
 8562TIP3   OH247176   1.108   3.250   2.307 -0.5574  0.2396 -0.4377
 8562TIP3    H147177   1.175   3.260   2.374 -1.8230 -1.2298  1.1256
 8562TIP3    H247178   1.107   3.157   2.286 -0.7648  0.5419 -1.9145
 8563TIP3   OH247179   1.461   1.835   6.195 -0.1377  0.7009 -0.2926
 8563TIP3    H147180   1.443   1.766   6.260  0.3424  0.8674  0.0246
 8563TIP3    H247181   1.380   1.886   6.191 -0.4083  0.2745 -0.3386
 8564TIP3   OH247182   3.061   2.089   4.647 -0.1948 -0.0103  0.3124
 8564TIP3    H147183   2.999   2.160   4.661  2.1707  2.2621 -0.0114
 8564TIP3    H247184   3.132   2.106   4.709  1.3906 -0.8764 -1.1727
 8565TIP3   OH247185   3.622   0.477   1.955  0.2327 -0.4808  0.1699
 8565TIP3    H147186   3.568   0.402   1.978 -0.1852 -0.5856 -1.0478
 8565TIP3    H247187   3.570   0.524   1.890 -0.2671  1.8057  2.0902
 8566TIP3   OH247188   0.631   1.231  16.778 -0.2455 -0.1826  0.0523
 8566TIP3    H147189   0.714   1.182  16.777 -0.3519 -0.3551 -0.6181
 8566TIP3    H247190   0.566   1.167  16.808 -0.2103 -0.1701  0.1550
 8567TIP3   OH247191   6.760   3.669   0.681 -0.1163 -0.4104 -0.7214
 8567TIP3    H147192   6.681   3.619   0.701 -1.8176  2.4296  0.1826
 8567TIP3    H247193   6.730   3.758   0.666  3.0100  1.2349  1.4434
 8568TIP3   OH247194   2.790   2.540   0.113  0.6082 -0.3077  0.2855
 8568TIP3    H147195   2.719   2.604   0.108 -0.1780 -1.2554 -1.7970
 8568TIP3    H247196   2.859   2.585   0.161 -0.5774  1.4296  0.4694
 8569TIP3   OH247197   1.819   3.960  12.471  0.6088  0.0141  0.1472
 8569TIP3    H147198   1.725   3.976  12.465  0.7364  0.6167 -0.3986
 8569TIP3    H247199   1.853   3.985  12.385  1.2907 -0.0448  0.3914
 8570TIP3   OH247200   3.529   2.524  15.241 -0.0712  0.3245  0.2931
 8570TIP3    H147201   3.624   2.514  15.232 -0.1192 -0.0005  0.1211
 8570TIP3    H247202   3.492   2.453  15.188 -0.4155  0.6011  0.1566
 8571TIP3   OH247203   1.308   4.295   1.224  0.1160 -0.4189 -0.0287
 8571TIP3    H147204   1.307   4.269   1.316 -0.8782  2.0301  0.7476
 8571TIP3    H247205   1.216   4.317   1.205  0.5180  0.3432 -1.2036
 8572TIP3   OH247206   4.384   1.976  17.012  0.2129 -0.5466  0.2677
 8572TIP3    H147207   4.368   1.884  17.029  0.8011 -0.7267 -0.1156
 8572TIP3    H247208   4.403   2.014  17.098  0.4051 -0.8767  0.3700
 8573TIP3   OH247209   4.996   3.336   2.782 -0.5098  0.0813 -0.0750
 8573TIP3    H147210   4.961   3.277   2.715 -0.3950 -1.8704  1.4778
 8573TIP3    H247211   5.091   3.329   2.773 -0.4966  0.4590 -0.2360
 8574TIP3   OH247212   4.466   2.807   4.169  0.0150  0.0347  0.0304
 8574TIP3    H147213   4.417   2.829   4.089 -1.7980 -1.5416  0.6125
 8574TIP3    H247214   4.462   2.711   4.172  2.2881 -0.0831  0.7064
 8575TIP3   OH247215   1.432   5.438   3.026  0.4051 -0.0597  0.4478
 8575TIP3    H147216   1.489   5.502   2.984 -0.6478  0.0693 -0.8435
 8575TIP3    H247217   1.354   5.488   3.052  1.1761 -0.0303  3.0153
 8576TIP3   OH247218   1.511   0.863   1.322  0.4507  0.3958 -0.3136
 8576TIP3    H147219   1.571   0.815   1.378 -0.4104 -1.5297 -0.9353
 8576TIP3    H247220   1.565   0.893   1.249  0.6609 -1.6569 -1.0771
 8577TIP3   OH247221   5.355   3.488  16.046 -0.0670 -0.6340  0.5272
 8577TIP3    H147222   5.358   3.552  15.974 -0.7641 -0.6623  0.4747
 8577TIP3    H247223   5.447   3.466  16.061  0.2392  0.8325  0.9551
 8578TIP3   OH247224   4.883   3.069   3.845  0.0454 -0.1812  0.0487
 8578TIP3    H147225   4.888   3.083   3.750  0.4467 -1.4832 -0.1438
 8578TIP3    H247226   4.918   3.149   3.883 -0.1141  0.3532 -0.9027
 8579TIP3   OH247227   0.057   1.332  12.724 -0.3323 -0.4120 -0.6057
 8579TIP3    H147228   0.108   1.279  12.664 -0.1263 -0.1129 -0.6943
 8579TIP3    H247229   0.018   1.401  12.669  1.1996  0.8770 -0.1667
 8580TIP3   OH247230   4.597   6.647   3.997  0.2070 -0.4502 -0.2558
 8580TIP3    H147231   4.638   6.731   4.017 -0.4639 -0.1909  0.0456
 8580TIP3    H247232   4.526   6.668   3.936  0.7577 -0.9463 -1.0833
 8581TIP3   OH247233   2.464   5.301  16.459  0.3338  0.4667 -0.6127
 8581TIP3    H147234   2.429   5.352  16.386 -0.5064  1.3302  0.3497
 8581TIP3    H247235   2.558   5.319  16.458  0.0441  2.2239 -0.1990
 8582TIP3   OH247236   0.252   4.857  16.933  0.5101 -0.3142  0.6631
 8582TIP3    H147237   0.273   4.936  16.883  0.6177 -0.6402  0.1893
 8582TIP3    H247238   0.253   4.786  16.869  1.1693 -0.8219  1.2130
 8583TIP3   OH247239   2.513   2.380   6.129 -0.0318 -0.0883  0.5128
 8583TIP3    H147240   2.469   2.424   6.202 -1.6765 -1.5042  0.4188
 8583TIP3    H247241   2.571   2.317   6.170  0.0447  0.0406  0.6045
 8584TIP3   OH247242   0.286   4.322   6.520 -0.2349 -0.2628  0.0246
 8584TIP3    H147243   0.249   4.377   6.589  0.5506 -0.8169  0.8978
 8584TIP3    H247244   0.222   4.252   6.509 -0.9770  0.5049 -0.7186
 8585TIP3   OH247245   2.478   5.298   3.093  0.5228 -0.0572  0.4151
 8585TIP3    H147246   2.423   5.241   3.039  1.7512 -0.6612 -0.2321
 8585TIP3    H247247   2.442   5.289   3.181 -1.5214  0.9337 -0.2313
 8586TIP3   OH247248   1.153   1.157  13.191  0.5433 -0.3797 -0.1480
 8586TIP3    H147249   1.128   1.190  13.278 -2.1927 -0.3112 -0.8668
 8586TIP3    H247250   1.182   1.067  13.207 -1.1843 -0.8307  0.7373
 8587TIP3   OH247251   2.777   4.740  14.187  0.2306 -0.4257 -0.0712
 8587TIP3    H147252   2.730   4.821  14.163 -1.5133 -1.6272 -0.9294
 8587TIP3    H247253   2.836   4.724  14.113  0.8836  0.2603  0.2883
 8588TIP3   OH247254   0.053   4.135  13.075 -0.1571  0.3581 -0.0764
 8588TIP3    H147255  -0.032   4.179  13.089 -1.0984 -2.0350  2.6874
 8588TIP3    H247256   0.030   4.045  13.052  1.6213 -0.3280  0.6619
 8589TIP3   OH247257   5.446   2.940   1.447 -0.5933 -0.0350  0.0720
 8589TIP3    H147258   5.396   2.911   1.370  0.9710  0.2358 -1.0805
 8589TIP3    H247259   5.525   2.979   1.411  0.1745  0.1067  1.8341
 8590TIP3   OH247260   6.654   6.014  12.336 -0.4168 -0.5662  0.2738
 8590TIP3    H147261   6.674   5.942  12.277  2.4246  0.9744 -0.8327
 8590TIP3    H247262   6.613   6.080  12.280 -0.3063 -0.1905  0.6291
 8591TIP3   OH247263   2.152   1.733   3.437 -0.7195 -0.0934 -0.1993
 8591TIP3    H147264   2.080   1.791   3.413 -1.7159 -1.3470 -0.3540
 8591TIP3    H247265   2.141   1.719   3.532  0.7125  1.5186  0.2470
 8592TIP3   OH247266   2.289   3.231   2.905 -0.6121 -0.1511  0.2171
 8592TIP3    H147267   2.297   3.295   2.835  1.0917 -0.2226  0.3091
 8592TIP3    H247268   2.379   3.213   2.932 -1.1453 -1.3236  1.3371
 8593TIP3   OH247269   0.120   6.767   3.230 -0.4549  0.5549 -0.4543
 8593TIP3    H147270   0.056   6.828   3.194 -0.4305  0.9420  0.1400
 8593TIP3    H247271   0.200   6.784   3.181 -0.3515  1.2549 -0.0610
 8594TIP3   OH247272   1.078   2.352   3.962  0.1818  0.0111 -0.4862
 8594TIP3    H147273   1.114   2.415   4.024  0.2701  1.7204 -2.1861
 8594TIP3    H247274   0.993   2.388   3.937 -1.0840 -2.0302  0.5964
 8595TIP3   OH247275   6.684   2.162   2.126  0.4581  0.0578  0.2131
 8595TIP3    H147276   6.692   2.068   2.139  0.4745  0.0755  0.3316
 8595TIP3    H247277   6.633   2.171   2.045  0.2007 -0.0526  0.3628
 8596TIP3   OH247278   4.128   2.888   0.293  0.5672  0.1388 -0.5145
 8596TIP3    H147279   4.125   2.861   0.384  1.9146 -0.3128 -0.5834
 8596TIP3    H247280   4.036   2.895   0.267  0.1715 -0.9806  0.5051
 8597TIP3   OH247281   2.760   2.010   6.521  0.3758 -0.6654  0.1503
 8597TIP3    H147282   2.775   2.079   6.457 -0.5395 -0.7879 -0.2061
 8597TIP3    H247283   2.828   1.945   6.503 -0.0056 -0.7959 -0.8342
 8598TIP3   OH247284   1.904   3.015  15.585  0.3760 -0.3605 -0.3689
 8598TIP3    H147285   1.847   3.046  15.656  3.0210 -0.4251  1.9919
 8598TIP3    H247286   1.963   3.089  15.569  3.1701 -2.0048  1.3694
 8599TIP3   OH247287   3.805   4.998  15.271 -0.0840 -0.3524 -0.0434
 8599TIP3    H147288   3.769   5.048  15.198 -0.4331  0.0681  0.4144
 8599TIP3    H247289   3.729   4.957  15.312 -0.0183  0.2887  0.7393
 8600TIP3   OH247290   6.418   1.400  14.693  0.2214  0.3476 -0.2627
 8600TIP3    H147291   6.461   1.427  14.773  1.0921  0.1398 -0.6440
 8600TIP3    H247292   6.357   1.331  14.720 -1.0275  1.7013  0.5071
 8601TIP3   OH247293   1.280   2.719   2.120 -0.4260  0.0481 -0.4080
 8601TIP3    H147294   1.323   2.738   2.203 -0.7631  1.6874 -0.5735
 8601TIP3    H247295   1.192   2.691   2.144 -0.4751  0.3805 -0.1862
 8602TIP3   OH247296   1.333   5.703   3.079 -0.5756 -0.1410 -0.3176
 8602TIP3    H147297   1.294   5.704   3.166 -1.5553 -0.6177 -0.7310
 8602TIP3    H247298   1.411   5.759   3.086 -0.6815 -0.1217  0.8334
 8603TIP3   OH247299   3.520   1.420  13.179  0.0740 -0.0154 -0.0668
 8603TIP3    H147300   3.575   1.498  13.190  0.1806  0.0364 -0.9605
 8603TIP3    H247301   3.571   1.349  13.218 -0.1838  0.4042  1.1024
 8604TIP3   OH247302   3.499   0.142   4.438  0.8333  0.1980 -0.1092
 8604TIP3    H147303   3.498   0.047   4.435 -1.2790  0.2077 -0.7054
 8604TIP3    H247304   3.525   0.163   4.528  1.5413 -0.9091 -0.0417
 8605TIP3   OH247305   4.571   2.215   2.550 -0.6107 -0.1126 -0.0632
 8605TIP3    H147306   4.623   2.136   2.538  0.3422  0.6828 -1.3755
 8605TIP3    H247307   4.616   2.283   2.499 -1.4082  1.2875  1.0008
 8606TIP3   OH247308   2.292   1.625   2.016 -0.6681  0.3280  0.3277
 8606TIP3    H147309   2.283   1.542   2.064  0.0073  0.5954  0.9209
 8606TIP3    H247310   2.223   1.621   1.949 -0.7464 -0.6428  0.4511
 8607TIP3   OH247311   1.822   0.713  14.110  0.0387  0.4534 -0.1332
 8607TIP3    H147312   1.772   0.711  14.028 -1.9301 -2.1963  0.9775
 8607TIP3    H247313   1.768   0.764  14.170 -0.4148 -0.7208  0.5010
 8608TIP3   OH247314   0.488   4.063  14.002 -0.5650 -0.0966 -0.1226
 8608TIP3    H147315   0.472   3.969  13.989 -0.2809 -0.5078  2.1428
 8608TIP3    H247316   0.424   4.089  14.068 -0.9556  1.4365 -1.0748
 8609TIP3   OH247317   0.341   0.904   1.914 -0.0103  0.5333  0.3550
 8609TIP3    H147318   0.324   0.825   1.965  0.3983 -0.3284 -0.8200
 8609TIP3    H247319   0.309   0.884   1.826  0.8374  1.3741 -0.1632
 8610TIP3   OH247320   1.250   1.714   3.482 -0.2288  0.7744  0.6056
 8610TIP3    H147321   1.180   1.777   3.466 -1.0451 -0.0848  0.7353
 8610TIP3    H247322   1.286   1.696   3.395 -1.7581 -0.5647  0.2054
 8611TIP3   OH247323   3.901   0.795   4.222  0.0778  0.5707 -0.1375
 8611TIP3    H147324   3.963   0.725   4.204 -0.5720 -0.1107  0.2223
 8611TIP3    H247325   3.923   0.824   4.310 -0.8757 -0.5099  0.4839
 8612TIP3   OH247326   5.707   1.206  13.700 -0.3277  0.1424  0.0548
 8612TIP3    H147327   5.706   1.214  13.605 -0.5690  0.5635  0.0883
 8612TIP3    H247328   5.796   1.180  13.722 -0.6960 -1.7268 -0.4172
 8613TIP3   OH247329   6.275   4.011  15.990  0.0090 -0.4056 -0.7468
 8613TIP3    H147330   6.254   4.094  15.946  1.2660 -0.0762 -0.7713
 8613TIP3    H247331   6.294   4.036  16.080  0.0797 -0.7000 -0.6806
 8614TIP3   OH247332   3.636   0.866   5.385 -0.2390  0.5200  0.1344
 8614TIP3    H147333   3.571   0.937   5.386 -0.1413  0.6880  2.6377
 8614TIP3    H247334   3.592   0.794   5.340 -1.5726  1.1489  0.3597
 8615TIP3   OH247335   1.939   6.184  12.592  0.4180  0.8456  0.1439
 8615TIP3    H147336   1.972   6.270  12.564 -0.0926  1.4681  1.3794
 8615TIP3    H247337   1.861   6.204  12.644 -1.6877 -0.5393 -2.2683
 8616TIP3   OH247338   5.722   0.477   1.094  0.0493 -0.2780 -0.4708
 8616TIP3    H147339   5.799   0.519   1.055 -1.1284  0.3586 -2.2429
 8616TIP3    H247340   5.755   0.397   1.134  1.7918  0.5318 -0.2192
 8617TIP3   OH247341   4.791   1.269  12.100 -0.5445 -0.8091 -0.1372
 8617TIP3    H147342   4.769   1.331  12.031  0.8062 -1.4209 -1.1720
 8617TIP3    H247343   4.885   1.282  12.115 -1.1901  1.0463  3.4124
 8618TIP3   OH247344   5.758   3.901  16.323  0.7660  0.4332 -0.9475
 8618TIP3    H147345   5.685   3.947  16.365  0.2105 -0.2736 -1.1226
 8618TIP3    H247346   5.722   3.816  16.300  1.9362 -0.3133 -0.1199
 8619TIP3   OH247347   4.079   1.257  13.460  0.1208  0.0825  0.3582
 8619TIP3    H147348   4.160   1.303  13.482 -0.2613  0.0401  1.9452
 8619TIP3    H247349   4.067   1.195  13.531 -0.0441 -1.6295 -1.1112
 8620TIP3   OH247350   1.751   5.794   0.152  0.3320 -0.1169  0.1494
 8620TIP3    H147351   1.819   5.851   0.116 -0.8216  0.7920 -0.6883
 8620TIP3    H247352   1.780   5.705   0.133  2.8224  0.0292  2.6084
 8621TIP3   OH247353   4.309   1.085  14.519 -0.3945 -0.5416 -0.3386
 8621TIP3    H147354   4.353   1.036  14.449  2.4843  1.1539  0.0918
 8621TIP3    H247355   4.268   1.159  14.474  0.8366  0.1482 -0.3918
 8622TIP3   OH247356   0.428   2.039   5.765  0.1888 -0.3876  0.3939
 8622TIP3    H147357   0.393   1.964   5.813 -0.2358 -1.0245 -0.8782
 8622TIP3    H247358   0.396   2.116   5.813  0.6219 -1.0067  1.6986
 8623TIP3   OH247359   2.992   1.778  15.605 -0.3323 -0.4754 -0.2359
 8623TIP3    H147360   2.994   1.816  15.692 -3.1969 -0.2771 -0.1653
 8623TIP3    H247361   2.950   1.693  15.617 -1.0885 -0.2996 -1.4063
 8624TIP3   OH247362   0.331   2.685  13.637  0.1644 -0.2490  0.4446
 8624TIP3    H147363   0.284   2.603  13.656  0.3954 -0.3540  0.5630
 8624TIP3    H247364   0.397   2.691  13.706  2.6745 -1.8815 -1.6364
 8625TIP3   OH247365   1.495   4.027   4.327  0.2051 -0.6007  0.3106
 8625TIP3    H147366   1.477   4.117   4.300 -1.7993 -0.6909  1.2115
 8625TIP3    H247367   1.499   3.978   4.245 -0.2603  0.0516 -0.1125
 8626TIP3   OH247368   4.363   0.943  11.762  0.3957  0.3560  0.0114
 8626TIP3    H147369   4.314   1.015  11.801 -0.2231 -0.5414  0.9637
 8626TIP3    H247370   4.415   0.908  11.835 -1.6376 -2.0878  0.4305
 8627TIP3   OH247371   5.844   2.755  15.831 -0.8073 -0.2703  0.0423
 8627TIP3    H147372   5.853   2.850  15.837  0.8601 -0.4004 -0.0224
 8627TIP3    H247373   5.851   2.735  15.738 -0.6003 -0.5019  0.1057
 8628TIP3   OH247374   1.709   1.079   2.438  0.1291  0.5043 -0.2724
 8628TIP3    H147375   1.645   1.080   2.367  0.8016 -2.1362 -1.0063
 8628TIP3    H247376   1.750   1.165   2.434 -1.4066  1.2298 -1.5996
 8629TIP3   OH247377   4.241   3.700  11.493 -0.5624 -0.1521  0.3183
 8629TIP3    H147378   4.233   3.619  11.442  1.7367  0.1616 -0.6853
 8629TIP3    H247379   4.336   3.712  11.504 -0.9108  1.4194  2.0818
 8630TIP3   OH247380   6.293   6.183   1.126  0.0320 -0.3665  0.0491
 8630TIP3    H147381   6.357   6.123   1.166 -0.1123  0.4185  1.5448
 8630TIP3    H247382   6.330   6.203   1.040  2.3879  0.8872  1.2547
 8631TIP3   OH247383   4.427   2.473  15.585 -0.1031  0.1816  0.1737
 8631TIP3    H147384   4.396   2.468  15.495 -1.6903  0.5755  0.6534
 8631TIP3    H247385   4.508   2.523  15.581 -0.2100  0.2700 -1.0147
 8632TIP3   OH247386   6.346   4.618   5.742 -0.2517  0.3445 -0.9627
 8632TIP3    H147387   6.274   4.680   5.728 -1.5071 -0.8304  0.0749
 8632TIP3    H247388   6.358   4.617   5.837 -0.4178 -1.1936 -0.9468
 8633TIP3   OH247389   5.390   4.738   2.804 -0.2437  0.1974  0.4821
 8633TIP3    H147390   5.402   4.798   2.730 -0.6149  0.2748  0.4816
 8633TIP3    H247391   5.402   4.651   2.767 -0.3762  0.2387  0.3422
 8634TIP3   OH247392   3.676   2.165  12.412  0.0058 -0.4325  0.1024
 8634TIP3    H147393   3.700   2.132  12.499  0.5942  0.3521  0.2500
 8634TIP3    H247394   3.708   2.256  12.411  1.0156 -0.7590 -1.3247
 8635TIP3   OH247395   5.853   3.678  10.813 -0.8310  0.0170  0.5288
 8635TIP3    H147396   5.795   3.754  10.816  0.7449  1.2834  0.2623
 8635TIP3    H247397   5.931   3.704  10.863 -0.1087 -1.2923  0.1593
 8636TIP3   OH247398   5.536   3.005   3.646  0.4026 -0.0758 -0.5191
 8636TIP3    H147399   5.613   2.983   3.699  1.0464  0.3644 -1.2583
 8636TIP3    H247400   5.544   3.099   3.630 -0.5995  0.0865 -0.1321
 8637TIP3   OH247401   3.069   0.799  14.918 -0.4684  0.2296 -0.9491
 8637TIP3    H147402   2.978   0.805  14.948  0.0769  1.7897  0.5293
 8637TIP3    H247403   3.094   0.708  14.937 -1.4004  0.0694 -0.4187
 8638TIP3   OH247404   3.290   1.671   2.261  0.3765  0.6859  0.2556
 8638TIP3    H147405   3.255   1.582   2.275  2.4864 -0.1093  0.8348
 8638TIP3    H247406   3.217   1.719   2.223 -1.5161 -0.7290  1.8254
 8639TIP3   OH247407   5.398   4.004  13.127  0.1413  0.0166 -0.6895
 8639TIP3    H147408   5.490   3.995  13.150  0.0781 -2.1995 -1.0526
 8639TIP3    H247409   5.391   3.962  13.041 -1.0051  1.2480 -1.2346
 8640TIP3   OH247410   3.938   4.723   4.876 -0.4246  0.6368  0.1592
 8640TIP3    H147411   3.923   4.709   4.970 -2.5100 -0.4434 -0.2780
 8640TIP3    H247412   3.978   4.810   4.871 -0.2776  0.7192  2.0389
 8641TIP3   OH247413   0.997   4.713  11.669  0.2774  0.8491 -1.0311
 8641TIP3    H147414   1.065   4.666  11.718 -0.3859  1.1703  0.2526
 8641TIP3    H247415   1.043   4.753  11.595  1.0462 -0.9094 -1.5490
 8642TIP3   OH247416   5.366   0.808  11.404 -0.0678 -0.0239 -0.3233
 8642TIP3    H147417   5.404   0.800  11.491 -1.2036 -0.7367  0.1361
 8642TIP3    H247418   5.378   0.721  11.365 -1.1405 -0.2505 -0.1816
 8643TIP3   OH247419   1.709   3.370  15.157 -0.6025 -0.2535 -0.7290
 8643TIP3    H147420   1.615   3.357  15.168 -0.4164 -0.0013  2.1076
 8643TIP3    H247421   1.718   3.419  15.076 -2.7029 -2.1522 -2.2258
 8644TIP3   OH247422   5.776   6.419  12.740 -0.2806  0.1667  0.1498
 8644TIP3    H147423   5.785   6.328  12.769 -1.5551 -0.0600 -0.0868
 8644TIP3    H247424   5.737   6.465  12.815 -1.6995  0.0119 -0.4492
 8645TIP3   OH247425   4.264   1.852  13.875 -0.7001  0.0635 -0.0297
 8645TIP3    H147426   4.289   1.942  13.852 -1.8896  0.3574 -0.2452
 8645TIP3    H247427   4.169   1.850  13.862 -1.0056 -0.6351  1.9456
 8646TIP3   OH247428   2.686   0.052   2.885 -1.3186  0.4456 -0.3609
 8646TIP3    H147429   2.732   0.041   2.802 -1.1621 -0.0642 -0.2137
 8646TIP3    H247430   2.743   0.109   2.936 -1.0409  0.1484 -0.3310
 8647TIP3   OH247431   0.755   4.514  16.849  0.0359  0.1403  0.2247
 8647TIP3    H147432   0.667   4.530  16.814  0.4729  1.4828 -0.3492
 8647TIP3    H247433   0.798   4.460  16.782  0.4361  1.6013 -0.7664
 8648TIP3   OH247434   1.619   3.704   1.601  0.0808 -0.1556  0.3520
 8648TIP3    H147435   1.569   3.777   1.640 -0.7429 -2.4577  4.1279
 8648TIP3    H247436   1.626   3.727   1.508 -3.2429  2.9667  0.6395
 8649TIP3   OH247437   5.741   1.818   4.738  0.0143 -0.2823  0.3175
 8649TIP3    H147438   5.780   1.754   4.678 -1.1357 -1.2400  0.5616
 8649TIP3    H247439   5.650   1.791   4.747 -0.9375  2.2475 -0.7361
 8650TIP3   OH247440   5.543   2.481   4.360  0.4040  0.3047  0.0805
 8650TIP3    H147441   5.531   2.387   4.350  0.1963  0.4126 -0.8166
 8650TIP3    H247442   5.638   2.494   4.351  0.3255  0.2834 -0.9114
 8651TIP3   OH247443   3.964   0.282  14.385  0.2451  0.1091 -0.5146
 8651TIP3    H147444   4.009   0.245  14.461  0.4958 -1.5999 -1.4242
 8651TIP3    H247445   4.021   0.260  14.311 -0.2851  1.2072 -1.2763
 8652TIP3   OH247446   3.037   2.092   0.447 -0.3305 -0.2118 -0.3083
 8652TIP3    H147447   2.986   2.020   0.410 -0.7577 -1.6101  2.6855
 8652TIP3    H247448   2.972   2.149   0.488  0.2500 -0.4276  0.9739
 8653TIP3   OH247449   1.674   6.035   1.934  0.1926 -0.4604 -0.0483
 8653TIP3    H147450   1.606   6.088   1.976  0.1589  0.0508 -0.7450
 8653TIP3    H247451   1.744   6.031   1.999  0.6319  1.3138 -0.3711
 8654TIP3   OH247452   2.423   4.974   3.415 -0.2237 -0.6064 -0.1320
 8654TIP3    H147453   2.415   4.981   3.510 -0.4888 -0.7168 -0.1443
 8654TIP3    H247454   2.515   4.993   3.397 -0.4208  0.5202  0.0347
 8655TIP3   OH247455   4.585   6.727   5.311 -0.3284 -0.0052 -0.0573
 8655TIP3    H147456   4.604   6.796   5.375 -3.9053  1.7380 -0.5828
 8655TIP3    H247457   4.572   6.774   5.229 -0.5978 -1.6128 -0.9764
 8656TIP3   OH247458   6.600   2.896  12.178  0.4642 -0.2581 -0.1622
 8656TIP3    H147459   6.594   2.849  12.262 -0.9024  1.2876  0.6689
 8656TIP3    H247460   6.688   2.934  12.179  1.2609 -1.9928 -0.4473
 8657TIP3   OH247461   4.896   3.846   1.090  0.1533  0.4808  0.2857
 8657TIP3    H147462   4.892   3.781   1.161 -1.3381  2.4738  2.1627
 8657TIP3    H247463   4.987   3.876   1.090  0.1723  0.4843  1.4320
 8658TIP3   OH247464   4.844   1.899   2.890  0.9619 -0.0139 -0.2885
 8658TIP3    H147465   4.777   1.830   2.897  0.0392  0.8018 -0.7411
 8658TIP3    H247466   4.795   1.980   2.902  2.2769  0.5385  1.8811
 8659TIP3   OH247467   5.581   1.745  13.875  0.4630  0.6486  0.3678
 8659TIP3    H147468   5.656   1.774  13.927 -0.1980 -1.0149  2.3923
 8659TIP3    H247469   5.506   1.757  13.932 -0.5388  0.1887 -0.7958
 8660TIP3   OH247470   5.701   1.872   5.704 -0.2204 -0.1016 -0.5342
 8660TIP3    H147471   5.610   1.900   5.698  0.3587  2.3541  0.5956
 8660TIP3    H247472   5.740   1.932   5.768  2.1082 -1.2996 -0.7241
 8661TIP3   OH247473   5.436   3.342  12.308 -0.0880  0.2901 -0.0185
 8661TIP3    H147474   5.343   3.320  12.305 -0.0991 -0.1154  1.7323
 8661TIP3    H247475   5.480   3.263  12.276 -0.3442  0.4059 -0.6542
 8662TIP3   OH247476   2.244   1.567  10.887 -0.3295 -0.2431  0.3535
 8662TIP3    H147477   2.215   1.483  10.920  2.6611 -1.5945 -0.1602
 8662TIP3    H247478   2.238   1.559  10.792  0.1050  0.0865  0.2971
 8663TIP3   OH247479   0.691   0.322   6.186 -0.1634 -0.3665 -0.2060
 8663TIP3    H147480   0.641   0.254   6.141 -1.1347 -1.5976  2.5567
 8663TIP3    H247481   0.692   0.295   6.277  1.2754  2.2616  0.6544
 8664TIP3   OH247482   6.777   4.512   0.231 -0.4645  0.5868  0.3176
 8664TIP3    H147483   6.747   4.571   0.300  0.1100  1.8161 -0.4368
 8664TIP3    H247484   6.809   4.571   0.162  2.6259 -0.5617  0.5999
 8665TIP3   OH247485   2.244   4.151   3.056 -0.5252  0.0196  0.6293
 8665TIP3    H147486   2.267   4.119   2.969  0.2129  2.4995 -0.1829
 8665TIP3    H247487   2.160   4.110   3.076 -0.5996 -0.7716 -1.1426
 8666TIP3   OH247488   3.137   5.063   4.076  0.7498 -0.0101 -0.0374
 8666TIP3    H147489   3.093   5.033   3.997  0.7253  0.2663 -0.1317
 8666TIP3    H247490   3.077   5.042   4.147  0.4834  0.3266 -0.1610
 8667TIP3   OH247491   4.197   1.321   2.972  0.2024  0.5037  0.4220
 8667TIP3    H147492   4.249   1.290   2.898 -0.7041 -1.7106  0.6504
 8667TIP3    H247493   4.230   1.274   3.047 -1.1403  0.1365  0.8190
 8668TIP3   OH247494   2.568   5.551  12.548 -0.2863  0.5414  0.1137
 8668TIP3    H147495   2.555   5.625  12.488 -2.0502  0.3088  0.1305
 8668TIP3    H247496   2.605   5.591  12.627  0.1302  1.1712 -0.3896
 8669TIP3   OH247497   1.498   6.264  14.359 -0.1036 -0.5560  0.2684
 8669TIP3    H147498   1.533   6.181  14.393 -0.0440 -0.0721  1.4554
 8669TIP3    H247499   1.575   6.319  14.347 -0.2457 -0.2735  0.6397
 8670TIP3   OH247500   3.237   0.622   2.461 -0.2522 -0.2982  0.0925
 8670TIP3    H147501   3.217   0.575   2.380  0.8961 -0.7899  0.0655
 8670TIP3    H247502   3.180   0.698   2.460 -0.4689 -0.4616 -1.0359
 8671TIP3   OH247503   6.688   4.519  15.244  0.0275 -0.4922  0.7012
 8671TIP3    H147504   6.662   4.439  15.290 -0.6164 -1.1840 -0.8163
 8671TIP3    H247505   6.606   4.557  15.213  0.3160  0.8378  1.4570
 8672TIP3   OH247506   5.132   6.073   0.718  0.0323 -0.1439  0.1967
 8672TIP3    H147507   5.109   6.079   0.811 -1.8593 -0.7778 -0.1804
 8672TIP3    H247508   5.064   6.125   0.674  1.4671  0.9816 -0.7896
 8673TIP3   OH247509   0.565   0.563   1.905 -0.2673  0.3511 -0.0703
 8673TIP3    H147510   0.635   0.626   1.886 -0.0661  0.0641 -0.2741
 8673TIP3    H247511   0.610   0.481   1.921 -0.4599  0.4543  1.1255
 8674TIP3   OH247512   0.622   2.532   3.386 -0.0302  0.8357  0.9070
 8674TIP3    H147513   0.674   2.474   3.440  0.4659 -1.4478 -1.8008
 8674TIP3    H247514   0.667   2.616   3.390  0.3461  0.5830  3.3788
 8675TIP3   OH247515   3.750   6.793   2.784  0.0842  0.1987 -0.5501
 8675TIP3    H147516   3.811   6.842   2.728  0.4547  1.0225  0.5484
 8675TIP3    H247517   3.725   6.855   2.853  0.8026 -1.2299  1.0660
 8676TIP3   OH247518   5.225   0.285  12.254 -0.3690  0.0619 -0.2383
 8676TIP3    H147519   5.311   0.322  12.274 -0.5220  0.0957  0.3774
 8676TIP3    H247520   5.243   0.194  12.231 -0.1976 -0.0062  0.1619
 8677TIP3   OH247521   5.397   6.545  11.859 -0.3061 -0.4160  0.1433
 8677TIP3    H147522   5.477   6.596  11.844  0.5913 -2.1730 -1.4634
 8677TIP3    H247523   5.415   6.497  11.940 -0.6643  0.8463  0.9938
 8678TIP3   OH247524   3.639   0.858  13.426  0.1608  0.1002  0.1746
 8678TIP3    H147525   3.690   0.930  13.465  1.2833 -0.3150 -0.4784
 8678TIP3    H247526   3.551   0.870  13.461  1.0251 -0.0739  2.5839
 8679TIP3   OH247527   5.298   4.405   6.444  0.0683  0.5725  0.5632
 8679TIP3    H147528   5.224   4.388   6.503 -0.6589  2.9373  0.4651
 8679TIP3    H247529   5.368   4.437   6.501  0.4553 -0.1182  0.4781
 8680TIP3   OH247530   3.315   3.256  15.356  0.1912  0.0617 -0.1469
 8680TIP3    H147531   3.356   3.207  15.427  0.5326 -0.3215 -0.5971
 8680TIP3    H247532   3.250   3.196  15.320  0.4726  0.0034 -0.5709
 8681TIP3   OH247533   1.575   0.717  11.622  0.0618  0.5278  0.1467
 8681TIP3    H147534   1.592   0.705  11.529  2.1743  0.1937  0.5337
 8681TIP3    H247535   1.636   0.785  11.650  0.7047 -0.5781  1.6096
 8682TIP3   OH247536   3.133   1.489  13.880  0.7482 -0.2443 -0.4418
 8682TIP3    H147537   3.072   1.419  13.859  0.9369 -0.4465 -0.3174
 8682TIP3    H247538   3.123   1.503  13.974  1.7639 -1.1184 -0.1845
 8683TIP3   OH247539   0.016   4.554   4.957  0.8370 -0.0655 -0.3473
 8683TIP3    H147540   0.020   4.503   4.876 -0.2921  0.1066 -0.5298
 8683TIP3    H247541  -0.037   4.501   5.017 -2.1834  1.7190 -1.2295
 8684TIP3   OH247542   2.673   6.197   5.520  0.7824 -0.5887 -0.5461
 8684TIP3    H147543   2.765   6.180   5.539  0.2003 -2.4187  1.0232
 8684TIP3    H247544   2.655   6.283   5.558  1.2373 -1.3977  1.6398
 8685TIP3   OH247545   5.185   0.906   2.169 -0.3358  0.0650  0.0680
 8685TIP3    H147546   5.264   0.879   2.215 -0.3244  0.0122  0.0169
 8685TIP3    H247547   5.213   0.922   2.079 -0.0738  1.5234  0.3855
 8686TIP3   OH247548   1.378   1.182  14.303  0.3559  0.1503  0.3233
 8686TIP3    H147549   1.357   1.275  14.293  1.3308  0.3923  0.4613
 8686TIP3    H247550   1.458   1.170  14.251 -1.2308 -1.2163 -2.0223
 8687TIP3   OH247551   1.416   4.367   5.978 -0.4916 -0.2303 -0.4108
 8687TIP3    H147552   1.456   4.451   6.000 -0.9867  0.6763 -2.6189
 8687TIP3    H247553   1.485   4.302   5.996 -1.1457  0.0760  4.4977
 8688TIP3   OH247554   1.061   6.515  13.194  0.2099 -0.2324  0.0123
 8688TIP3    H147555   1.016   6.485  13.273 -1.6059 -2.0858 -1.6462
 8688TIP3    H247556   1.038   6.608  13.187 -0.0300 -0.1764  1.3480
 8689TIP3   OH247557   1.854   0.773   4.854  0.3853 -0.5581 -0.0345
 8689TIP3    H147558   1.764   0.783   4.885  0.3249  0.4505 -0.5004
 8689TIP3    H247559   1.908   0.792   4.931  0.2766  3.5550 -0.7850
 8690TIP3   OH247560   1.333   0.716  14.165 -0.4430  0.0581  0.1649
 8690TIP3    H147561   1.273   0.696  14.094  1.4282  3.0488 -2.5161
 8690TIP3    H247562   1.390   0.640  14.170 -1.2020 -0.6093 -0.8507
 8691TIP3   OH247563   2.432   4.913   3.994 -0.2183  0.5055 -0.1494
 8691TIP3    H147564   2.465   4.998   3.966  1.1575  0.9634  2.5756
 8691TIP3    H247565   2.506   4.853   3.981 -1.3015 -0.4583 -2.4443
 8692TIP3   OH247566   3.018   4.084   3.127 -0.2152 -0.4072 -0.2798
 8692TIP3    H147567   2.957   4.012   3.142  0.2754 -0.5417  1.2549
 8692TIP3    H247568   3.010   4.138   3.205  1.8637 -0.6030  0.1131
 8693TIP3   OH247569   5.342   5.332  10.248  0.2754  0.0595 -0.1399
 8693TIP3    H147570   5.258   5.340  10.293 -0.2598  0.9192 -1.2269
 8693TIP3    H247571   5.325   5.272  10.176  1.1760 -1.4632  0.8483
 8694TIP3   OH247572   6.046   4.648  14.623 -0.2766 -0.2540  0.5733
 8694TIP3    H147573   5.976   4.710  14.641 -0.2201 -0.3683  1.2094
 8694TIP3    H247574   6.103   4.694  14.561 -1.4346 -0.5448 -0.7515
 8695TIP3   OH247575   4.763   3.402   2.461 -0.2196 -0.5123 -0.0891
 8695TIP3    H147576   4.751   3.438   2.549 -1.2002  2.1062 -1.1810
 8695TIP3    H247577   4.677   3.369   2.437 -0.0200 -0.9720 -0.1735
 8696TIP3   OH247578   0.202   5.633  12.826  0.0108 -0.1406 -0.2274
 8696TIP3    H147579   0.249   5.644  12.909 -1.0044  3.1753  0.0467
 8696TIP3    H247580   0.116   5.598  12.852  0.5489 -1.5067 -0.2066
 8697TIP3   OH247581   0.523   2.314   5.512 -0.0874 -0.4786  0.0241
 8697TIP3    H147582   0.557   2.229   5.540 -1.0834 -0.5242  1.1386
 8697TIP3    H247583   0.593   2.376   5.534  0.8518 -1.0324 -1.2383
 8698TIP3   OH247584   1.818   2.938   2.869 -0.1339 -0.4173 -0.5488
 8698TIP3    H147585   1.816   2.843   2.871 -0.4128 -0.4022  1.3908
 8698TIP3    H247586   1.894   2.960   2.815 -0.1783 -1.7173 -1.1609
 8699TIP3   OH247587   4.539   2.000   4.196  0.4998 -0.4675  0.2105
 8699TIP3    H147588   4.610   2.013   4.259 -0.4915 -1.1454  1.5218
 8699TIP3    H247589   4.461   2.034   4.240  0.1983  1.7982 -1.8355
 8700TIP3   OH247590   4.387   5.603  13.010 -0.2449 -0.5314  0.3008
 8700TIP3    H147591   4.304   5.631  13.050 -0.2837 -1.3147  0.7886
 8700TIP3    H247592   4.364   5.527  12.957 -0.2522  0.7011 -1.5565
 8701TIP3   OH247593   1.296   3.156  15.722  0.5377  0.4399  0.1122
 8701TIP3    H147594   1.331   3.133  15.808  0.3364 -0.8568 -0.1336
 8701TIP3    H247595   1.237   3.230  15.739 -0.4084 -0.5455  1.2710
 8702TIP3   OH247596   0.249   1.573  17.085 -0.0804  0.0632  0.1051
 8702TIP3    H147597   0.308   1.516  17.035 -1.0271 -1.8230  1.0038
 8702TIP3    H247598   0.195   1.617  17.019 -0.1236 -1.0192 -0.6053
 8703TIP3   OH247599   2.844   0.024  14.480  0.6104  0.4794  0.0926
 8703TIP3    H147600   2.768  -0.008  14.529  1.6804  0.1275  1.5775
 8703TIP3    H247601   2.852   0.116  14.505 -0.3463  1.0312 -1.4502
 8704TIP3   OH247602   5.647   1.549   0.667  0.1580 -0.5668 -0.0632
 8704TIP3    H147603   5.601   1.548   0.583  0.5205 -1.6731 -0.2685
 8704TIP3    H247604   5.580   1.528   0.732  0.2381 -1.6216 -0.2998
 8705TIP3   OH247605   6.054   0.288   5.667  0.0918 -0.2272  0.0058
 8705TIP3    H147606   6.144   0.261   5.682  0.1475 -0.4880 -0.7763
 8705TIP3    H247607   6.051   0.315   5.575 -0.7381 -0.7060 -0.1235
 8706TIP3   OH247608   3.641   0.251   5.491  0.7756  0.1482  0.1704
 8706TIP3    H147609   3.705   0.181   5.489 -0.3035 -0.8593 -0.5192
 8706TIP3    H247610   3.557   0.206   5.497 -0.0944  1.2478 -2.3948
 8707TIP3   OH247611   5.036   2.026  14.134  0.4982  0.1465  0.6829
 8707TIP3    H147612   5.120   2.031  14.090 -0.1941 -0.8774 -0.8490
 8707TIP3    H247613   4.976   2.077  14.080 -0.1712 -0.3213  0.9576
 8708TIP3   OH247614   1.834   1.869  16.934 -0.0365  0.2315 -0.0639
 8708TIP3    H147615   1.810   1.781  16.905 -0.6017  0.0955  0.7777
 8708TIP3    H247616   1.929   1.873  16.925  0.1993 -1.0399  1.3799
 8709TIP3   OH247617   3.833   2.970  12.330 -0.1082 -0.4306  0.0429
 8709TIP3    H147618   3.927   2.966  12.313 -0.1125  1.8250 -0.8111
 8709TIP3    H247619   3.796   2.898  12.279  1.1199 -1.3022  0.3403
 8710TIP3   OH247620   5.488   2.104   6.072 -0.2692 -0.5451  0.3282
 8710TIP3    H147621   5.526   2.192   6.073 -1.6640  0.0967  2.3906
 8710TIP3    H247622   5.395   2.118   6.057 -0.9432 -1.4107  3.2361
 8711TIP3   OH247623   3.816   2.919  12.920 -0.4054 -0.4788 -0.2011
 8711TIP3    H147624   3.801   2.825  12.907  1.0211 -0.7540  0.0106
 8711TIP3    H247625   3.783   2.937  13.008  0.9821 -1.1928  0.4904
 8712TIP3   OH247626   4.492   5.590  16.786  0.1951 -0.2367 -0.0742
 8712TIP3    H147627   4.585   5.599  16.804  0.1279  0.8545 -0.2305
 8712TIP3    H247628   4.449   5.609  16.869  0.1401 -2.4641  0.4816
 8713TIP3   OH247629   5.770   2.043  15.170 -0.1984 -0.2334  0.0737
 8713TIP3    H147630   5.747   2.132  15.142 -0.5505 -0.0465  0.9430
 8713TIP3    H247631   5.800   2.053  15.260  2.7590 -0.5634 -0.7553
 8714TIP3   OH247632   1.416   5.220   5.962 -0.0608 -0.0884  0.0258
 8714TIP3    H147633   1.512   5.220   5.960 -0.0558  0.2487 -1.4850
 8714TIP3    H247634   1.390   5.194   5.873 -1.3386  2.0947 -0.3210
 8715TIP3   OH247635   0.220   4.831  14.661 -0.1048 -0.3363 -0.0869
 8715TIP3    H147636   0.202   4.757  14.603  1.5288 -0.4006 -0.5481
 8715TIP3    H247637   0.242   4.790  14.745  1.6147 -0.4580 -0.5582
 8716TIP3   OH247638   5.250   3.338   2.727 -0.0364  0.1838 -0.4202
 8716TIP3    H147639   5.248   3.273   2.657  2.1244  0.4696 -0.8027
 8716TIP3    H247640   5.336   3.328   2.767 -0.6826  1.0207  1.2637
 8717TIP3   OH247641   4.086   2.852   2.460  0.4877 -0.7438 -0.2715
 8717TIP3    H147642   4.179   2.840   2.443  0.7005  0.9133 -0.5123
 8717TIP3    H247643   4.079   2.862   2.555  0.3788 -2.0183 -0.1298
 8718TIP3   OH247644   2.926   5.805   5.462  0.0104  0.2071 -0.0840
 8718TIP3    H147645   2.960   5.758   5.538  1.7687  1.2605 -0.1682
 8718TIP3    H247646   2.831   5.807   5.476  0.1309 -1.0567  1.2128
 8719TIP3   OH247647   4.023   1.310   5.285 -0.2696  0.8706  0.5450
 8719TIP3    H147648   3.948   1.270   5.328 -0.9178  0.4447 -0.9468
 8719TIP3    H247649   4.091   1.243   5.288 -1.2589 -0.3346 -1.6857
 8720TIP3   OH247650   6.287   0.300   6.110 -0.2481  0.8657 -0.4964
 8720TIP3    H147651   6.300   0.232   6.043 -4.4479  1.2161 -1.9676
 8720TIP3    H247652   6.281   0.251   6.192  0.1898 -0.1109 -1.0231
 8721TIP3   OH247653   6.666   2.479   2.740 -0.8024  0.8604 -0.1037
 8721TIP3    H147654   6.579   2.500   2.774 -0.6147  1.0665  0.2522
 8721TIP3    H247655   6.703   2.418   2.804 -0.1426  1.8539  0.5052
 8722TIP3   OH247656   3.311   3.587   1.725 -0.3829 -0.7782 -0.0489
 8722TIP3    H147657   3.257   3.573   1.648  1.9608 -2.2512 -1.5389
 8722TIP3    H247658   3.395   3.616   1.691  0.8845 -1.9198  1.8952
 8723TIP3   OH247659   2.016   4.295  15.227  0.0384  1.0844  0.0500
 8723TIP3    H147660   1.980   4.218  15.182 -2.6310  2.3159 -0.1515
 8723TIP3    H247661   2.107   4.300  15.197  0.3988 -2.0974  0.2938
 8724TIP3   OH247662   3.433   3.175   6.891  0.0893  0.0072 -0.0592
 8724TIP3    H147663   3.406   3.255   6.935  1.2399 -0.3132  1.2929
 8724TIP3    H247664   3.359   3.116   6.900  0.0916  0.1441  0.9949
 8725TIP3   OH247665   6.670   3.141   3.468  0.3190  0.6309  0.2776
 8725TIP3    H147666   6.707   3.054   3.480  0.0284  0.4417 -0.1706
 8725TIP3    H247667   6.741   3.193   3.431  0.8720  0.9193  1.6790
 8726TIP3   OH247668   5.318   6.199  12.205 -0.0276 -0.6253 -0.2031
 8726TIP3    H147669   5.352   6.170  12.120  1.7134 -2.4229  1.0110
 8726TIP3    H247670   5.325   6.122  12.261 -0.0145  0.8220  1.8989
 8727TIP3   OH247671   6.088   2.232  12.502 -0.4561 -0.2769 -0.2341
 8727TIP3    H147672   6.137   2.156  12.471 -2.5565 -1.2616 -1.3130
 8727TIP3    H247673   6.115   2.303  12.444  2.2173  0.1565  1.3501
 8728TIP3   OH247674   2.664   5.866  13.239 -0.1599  0.1186  0.0101
 8728TIP3    H147675   2.695   5.892  13.152 -1.0951  0.0057 -0.3689
 8728TIP3    H247676   2.624   5.946  13.274 -0.7347 -0.1220 -0.0995
 8729TIP3   OH247677   1.598   1.812   1.152 -0.1334 -0.3722  0.1056
 8729TIP3    H147678   1.590   1.793   1.246 -0.5840 -2.0664 -0.2405
 8729TIP3    H247679   1.525   1.870   1.133  0.0574  0.1181  0.8397
 8730TIP3   OH247680   2.103   3.251  14.888  0.5467 -0.1949 -0.4672
 8730TIP3    H147681   2.069   3.340  14.879  0.8099  0.0300  0.5794
 8730TIP3    H247682   2.194   3.257  14.857  0.1709 -0.4203 -1.6739
 8731TIP3   OH247683   5.780   3.880  12.073  0.3663 -0.0408  0.2333
 8731TIP3    H147684   5.718   3.900  12.004 -0.7689 -1.5268  0.7587
 8731TIP3    H247685   5.781   3.958  12.129 -0.0918  0.4644 -0.4612
 8732TIP3   OH247686   5.899   0.921  16.451 -0.1871 -0.0643  0.1209
 8732TIP3    H147687   5.911   0.829  16.427  0.1135  0.1717 -0.6745
 8732TIP3    H247688   5.891   0.967  16.367  0.5632  0.7502  0.4735
 8733TIP3   OH247689   5.372   2.843   1.209 -0.8172 -0.0585 -0.3566
 8733TIP3    H147690   5.305   2.778   1.186 -0.0548 -0.5803 -1.1751
 8733TIP3    H247691   5.455   2.796   1.201 -0.0393  1.5395 -3.1859
 8734TIP3   OH247692   5.371   1.620   5.559 -0.5682  0.0088  0.0118
 8734TIP3    H147693   5.449   1.573   5.588 -1.1582 -0.7677  0.4058
 8734TIP3    H247694   5.336   1.566   5.488 -1.1324 -0.0415  0.3174
 8735TIP3   OH247695   1.604   6.234   2.675 -0.1146 -0.2366 -0.2333
 8735TIP3    H147696   1.588   6.181   2.597 -0.2132 -0.2197 -0.2243
 8735TIP3    H247697   1.692   6.270   2.662 -0.2600  0.0252 -0.4855
 8736TIP3   OH247698   0.298   0.526  10.408  0.4328  0.1836  0.4286
 8736TIP3    H147699   0.314   0.586  10.481 -1.1784  0.0187  0.9575
 8736TIP3    H247700   0.203   0.520  10.402  0.5219 -0.0228 -1.5342
 8737TIP3   OH247701   3.207   0.863  13.284 -0.3463  0.2761 -0.2161
 8737TIP3    H147702   3.290   0.911  13.283 -0.4273  0.5556  1.8209
 8737TIP3    H247703   3.142   0.929  13.309 -1.1579 -0.0199 -1.4587
 8738TIP3   OH247704   1.133   0.813   3.167 -0.1833  0.1075 -0.3343
 8738TIP3    H147705   1.050   0.831   3.211 -0.6206  1.9149 -1.7871
 8738TIP3    H247706   1.147   0.888   3.110  1.9853 -0.6185 -0.8541
 8739TIP3   OH247707   2.036   2.332   3.510  0.3171 -1.1231 -0.1594
 8739TIP3    H147708   2.068   2.394   3.445  1.7706 -0.2887  1.2668
 8739TIP3    H247709   2.066   2.368   3.594 -1.1898 -2.3305  0.9561
 8740TIP3   OH247710   3.118   1.082   1.055  0.1817  0.2318 -0.3555
 8740TIP3    H147711   3.181   1.067   1.125  2.0732 -0.2061 -2.0459
 8740TIP3    H247712   3.091   1.173   1.065  2.1856  0.8795 -0.3691
 8741TIP3   OH247713   1.992   1.540  10.385  0.1227 -0.2004  0.4606
 8741TIP3    H147714   1.999   1.634  10.375  0.8747 -0.0511  2.0618
 8741TIP3    H247715   1.911   1.516  10.339 -0.0867  1.2127  0.0715
 8742TIP3   OH247716   5.138   2.585   3.640  0.2991 -0.3585  0.1861
 8742TIP3    H147717   5.109   2.672   3.667 -0.8821 -0.3037 -1.1370
 8742TIP3    H247718   5.225   2.599   3.602 -0.8432  0.7285 -2.2762
 8743TIP3   OH247719   3.291   3.246   0.848 -0.4523  0.4051  0.0210
 8743TIP3    H147720   3.332   3.329   0.822 -0.2603  0.3925  0.2825
 8743TIP3    H247721   3.270   3.257   0.940 -1.3365  0.5277 -0.1851
 8744TIP3   OH247722   3.169   5.462  10.326 -0.3987  0.2797  0.2161
 8744TIP3    H147723   3.207   5.495  10.245 -0.7915 -0.0487 -0.1092
 8744TIP3    H247724   3.077   5.490  10.322 -0.1425  1.3377  1.1382
 8745TIP3   OH247725   1.839   1.868  14.908  0.7877  0.1837  0.0403
 8745TIP3    H147726   1.759   1.828  14.942  1.4467 -1.1880  0.0238
 8745TIP3    H247727   1.808   1.940  14.853 -0.3717  0.9083  1.5590
 8746TIP3   OH247728   4.155   6.225  14.035 -0.0060  0.2114  0.4845
 8746TIP3    H147729   4.125   6.141  14.070 -0.0787 -0.5186 -1.2527
 8746TIP3    H247730   4.228   6.249  14.092 -0.0547 -0.9664  1.0804
 8747TIP3   OH247731   5.283   5.879   2.903  0.4314 -0.1891  0.2414
 8747TIP3    H147732   5.346   5.881   2.831  0.8847 -0.0659  0.6345
 8747TIP3    H247733   5.283   5.969   2.937  1.5310 -0.6177  1.5000
 8748TIP3   OH247734   0.587   5.275  12.049  0.6513  0.0176  0.6727
 8748TIP3    H147735   0.582   5.235  12.137 -0.0077 -1.5024 -0.0122
 8748TIP3    H247736   0.565   5.203  11.990 -1.5652  1.6491 -0.6041
 8749TIP3   OH247737   5.484   5.669   3.482 -0.1169 -0.3202  0.0087
 8749TIP3    H147738   5.550   5.600   3.495  0.1578 -0.1523 -0.4643
 8749TIP3    H247739   5.515   5.742   3.535  0.0751 -0.2459 -0.2029
 8750TIP3   OH247740   1.864   2.676   3.248  0.1046 -0.4680  0.1296
 8750TIP3    H147741   1.828   2.588   3.260 -0.7664 -0.0846  0.4459
 8750TIP3    H247742   1.927   2.667   3.177 -1.2725 -0.9998 -1.0623
 8751TIP3   OH247743   5.853   0.679   4.085 -0.4137  0.3610 -0.4771
 8751TIP3    H147744   5.870   0.648   4.174  0.7579  2.0425 -0.0658
 8751TIP3    H247745   5.939   0.706   4.052 -1.3584  4.1535 -0.3331
 8752TIP3   OH247746   4.206   3.064  15.291 -0.0187 -0.0145  0.2803
 8752TIP3    H147747   4.198   3.057  15.196  0.1332  0.7634  0.2004
 8752TIP3    H247748   4.161   2.987  15.325 -1.7487  0.6639 -0.3564
 8753TIP3   OH247749   2.481   2.043  14.141 -0.4155 -0.0835  0.0405
 8753TIP3    H147750   2.521   2.109  14.084 -0.9471 -0.5606 -0.9129
 8753TIP3    H247751   2.554   2.006  14.191  0.1617 -0.1187 -0.8110
 8754TIP3   OH247752   6.783   1.250   6.479  0.2937 -0.4866  0.6135
 8754TIP3    H147753   6.767   1.244   6.573 -1.3407 -0.4536  0.3659
 8754TIP3    H247754   6.864   1.201   6.465  0.8881  0.0345  2.1102
 8755TIP3   OH247755   3.513   5.993   5.828 -0.3356 -0.4254  0.1639
 8755TIP3    H147756   3.591   6.038   5.861 -0.2677 -1.9180  2.2527
 8755TIP3    H247757   3.546   5.937   5.757  0.2425 -0.0555  0.1316
 8756TIP3   OH247758   1.506   1.124   2.647  0.2431  0.2543  0.2646
 8756TIP3    H147759   1.561   1.102   2.572  0.6513  0.1943  0.5776
 8756TIP3    H247760   1.467   1.208   2.624 -2.3358 -1.2991 -1.5069
 8757TIP3   OH247761   2.557   2.168   6.315 -0.0061  0.0707 -0.5099
 8757TIP3    H147762   2.465   2.196   6.310  0.0176  0.0894 -0.8286
 8757TIP3    H247763   2.553   2.072   6.314 -0.3044 -0.1511  3.5650
 8758TIP3   OH247764   6.367   5.444  12.266  0.2843 -0.6189 -0.1503
 8758TIP3    H147765   6.357   5.465  12.174  0.5579  1.6430  0.2942
 8758TIP3    H247766   6.278   5.438  12.300  0.1087  2.8955  0.2964
 8759TIP3   OH247767   2.612   5.317   2.162  0.0083  0.2922 -0.2575
 8759TIP3    H147768   2.693   5.305   2.112  0.7380  0.4184  0.8724
 8759TIP3    H247769   2.550   5.350   2.097 -0.0145 -2.4955 -1.8074
 8760TIP3   OH247770   4.159   1.117  13.033  0.2895 -0.0215  0.2844
 8760TIP3    H147771   4.156   1.060  12.956  1.0697 -1.6214  1.3951
 8760TIP3    H247772   4.228   1.081  13.088 -1.4358 -0.0746  2.6059
 8761TIP3   OH247773   1.228   5.322  14.904 -0.1363  0.5081 -0.3704
 8761TIP3    H147774   1.234   5.290  14.814  4.5953  2.3943 -0.9853
 8761TIP3    H247775   1.240   5.243  14.957 -0.5791 -0.3115 -1.4388
 8762TIP3   OH247776   6.350   0.793   3.184 -0.2196  0.1990 -0.1266
 8762TIP3    H147777   6.310   0.866   3.232 -0.1275  1.3877 -1.7574
 8762TIP3    H247778   6.444   0.811   3.188 -0.2282  0.4359 -0.9315
 8763TIP3   OH247779   4.267   1.322  16.615  0.6237 -0.4466 -0.1664
 8763TIP3    H147780   4.320   1.281  16.546 -1.6378 -2.1986 -1.0277
 8763TIP3    H247781   4.180   1.332  16.574 -0.5023 -0.5057  2.0852
 8764TIP3   OH247782   0.674   4.913   4.183  0.4632 -0.0143 -0.0939
 8764TIP3    H147783   0.735   4.840   4.175 -0.3570 -0.7569  0.2298
 8764TIP3    H247784   0.588   4.874   4.170 -0.0268  0.8156  0.5260
 8765TIP3   OH247785   1.064   3.929  15.346 -0.2351  0.0166  0.0425
 8765TIP3    H147786   1.147   3.925  15.393 -0.0022 -1.3658 -0.4593
 8765TIP3    H247787   1.056   3.844  15.303 -0.5338  1.1308 -2.2577
 8766TIP3   OH247788   6.781   2.751   3.031 -0.7693 -0.4188  0.6279
 8766TIP3    H147789   6.850   2.752   3.098 -0.4634 -2.5877  0.4294
 8766TIP3    H247790   6.739   2.836   3.038  1.6930  0.8533  0.9959
 8767TIP3   OH247791   4.006   1.781   1.019  0.1332  0.1250 -0.0278
 8767TIP3    H147792   3.949   1.796   0.943 -0.6738 -1.2740  0.2875
 8767TIP3    H247793   3.967   1.707   1.064  1.6343 -0.1998  0.7735
 8768TIP3   OH247794   4.506   4.643   0.800 -0.0505 -0.2315 -0.2965
 8768TIP3    H147795   4.429   4.587   0.817  0.0347 -0.6800 -1.3084
 8768TIP3    H247796   4.475   4.707   0.736 -0.1274  0.8571  0.8193
 8769TIP3   OH247797   4.174   1.672  13.235  0.4379 -0.6091  0.1010
 8769TIP3    H147798   4.234   1.654  13.307  0.7715  0.4685  0.1037
 8769TIP3    H247799   4.180   1.594  13.179 -1.0310 -2.2007  2.0097
 8770TIP3   OH247800   3.575   6.548   2.843 -0.3958  0.4489  0.4276
 8770TIP3    H147801   3.658   6.589   2.820 -0.0140 -0.6057 -0.1912
 8770TIP3    H247802   3.525   6.617   2.886  1.3669  0.7316  2.2172
 8771TIP3   OH247803   0.313   5.143  14.100  0.0989  0.1742 -0.0991
 8771TIP3    H147804   0.357   5.223  14.126 -0.9794  0.3700  1.3068
 8771TIP3    H247805   0.373   5.073  14.126 -0.1562  0.4513  1.3685
 8772TIP3   OH247806   6.603   0.374   2.226 -0.4342 -0.2424  0.6560
 8772TIP3    H147807   6.619   0.466   2.206 -0.5306 -0.3434  0.0920
 8772TIP3    H247808   6.530   0.349   2.169  0.3155 -0.9570 -0.0310
 8773TIP3   OH247809   1.147   0.881   5.911 -0.3783  0.3395  0.3888
 8773TIP3    H147810   1.081   0.893   5.979  0.3297  0.4087  1.0817
 8773TIP3    H247811   1.230   0.900   5.955 -0.0272  2.1801 -0.9305
 8774TIP3   OH247812   1.938   4.074  16.070  0.2309 -0.0594 -0.1667
 8774TIP3    H147813   2.025   4.113  16.054 -0.2717  0.6415 -1.2844
 8774TIP3    H247814   1.917   4.028  15.989 -1.2928  1.4637 -0.6929
 8775TIP3   OH247815   2.580   1.670   5.458 -0.3816  0.6401 -0.5731
 8775TIP3    H147816   2.594   1.759   5.424 -0.2521 -0.0258 -2.3877
 8775TIP3    H247817   2.497   1.676   5.505  0.3023  2.0174  0.5410
 8776TIP3   OH247818   4.860   1.488   4.964  0.7286  0.3144  0.1960
 8776TIP3    H147819   4.875   1.407   4.916  1.8290  1.3178 -1.2592
 8776TIP3    H247820   4.818   1.546   4.900 -1.1833  0.5431  1.5619
 8777TIP3   OH247821   4.192   3.394   5.817 -0.4435 -0.1999  0.6061
 8777TIP3    H147822   4.213   3.313   5.771  1.8431  0.6549 -0.0057
 8777TIP3    H247823   4.226   3.381   5.906  0.4653  0.2548  0.3424
 8778TIP3   OH247824   5.063   1.181  12.140  0.3508 -0.6512 -0.2690
 8778TIP3    H147825   5.074   1.173  12.234  1.5420 -0.8918 -0.4134
 8778TIP3    H247826   5.058   1.091  12.108  2.8686 -0.7054 -0.7199
 8779TIP3   OH247827   0.216   6.629  16.298 -0.3891  0.2261 -0.8839
 8779TIP3    H147828   0.288   6.568  16.315 -1.5842 -1.3357 -1.2529
 8779TIP3    H247829   0.145   6.600  16.356 -0.3147  2.6361  0.5702
 8780TIP3   OH247830   2.247   2.633   3.152 -0.0377  0.9197  0.1013
 8780TIP3    H147831   2.326   2.677   3.121 -0.4565  1.1924 -0.5897
 8780TIP3    H247832   2.270   2.540   3.151  0.3027  1.0032 -0.0106
 8781TIP3   OH247833   3.868   3.720   6.164  0.0885 -0.4216 -0.2470
 8781TIP3    H147834   3.789   3.680   6.200  0.4106 -0.0221  0.9468
 8781TIP3    H247835   3.940   3.674   6.207  0.4684  1.1900  0.9279
 8782TIP3   OH247836   5.458   2.026  11.490  0.1279  0.1179  0.2876
 8782TIP3    H147837   5.499   2.012  11.405 -0.3677  0.0357  0.0632
 8782TIP3    H247838   5.440   2.120  11.493  0.1223  0.1167  0.2928
 8783TIP3   OH247839   0.952   2.759  15.223 -0.4328  0.3036 -0.2824
 8783TIP3    H147840   0.943   2.725  15.134  1.2421 -0.0402 -0.3485
 8783TIP3    H247841   0.968   2.682  15.277  0.0265  0.6506  0.0825
 8784TIP3   OH247842   5.267   3.019   5.011 -0.0795 -0.2987 -0.5433
 8784TIP3    H147843   5.214   3.077   4.957  1.3534  0.8320 -0.8141
 8784TIP3    H247844   5.293   2.948   4.952 -1.7388 -1.2029 -0.2446
 8785TIP3   OH247845   0.308   4.923  14.929  0.5348  0.3944  0.1324
 8785TIP3    H147846   0.367   4.965  14.992  1.2200 -0.8520  0.3615
 8785TIP3    H247847   0.349   4.838  14.912 -0.8707 -0.2291 -0.2166
 8786TIP3   OH247848   1.852   4.263  15.745 -0.1733  0.2703 -0.1570
 8786TIP3    H147849   1.782   4.328  15.748  1.9114  2.6960 -0.2806
 8786TIP3    H247850   1.831   4.208  15.670 -3.6047 -1.2843  1.7249
 8787TIP3   OH247851   6.121   1.824   5.915  0.8374  0.1470 -0.3471
 8787TIP3    H147852   6.061   1.832   5.990  1.3126  0.1492  0.0349
 8787TIP3    H247853   6.110   1.733   5.886 -0.4480  0.5452 -1.2189
 8788TIP3   OH247854   0.089   4.424   4.287 -0.6526  0.1439  0.1352
 8788TIP3    H147855   0.043   4.395   4.366  0.2027  0.8759  0.9319
 8788TIP3    H247856   0.019   4.444   4.225 -1.4285  1.1578  1.2819
 8789TIP3   OH247857   1.507   5.445   3.834 -0.0098  0.1603 -0.1755
 8789TIP3    H147858   1.447   5.437   3.908  0.5241  0.5531  0.3054
 8789TIP3    H247859   1.461   5.502   3.772 -0.0097  0.7163  0.3267
 8790TIP3   OH247860   1.713   6.829  13.214  0.2359  0.6103 -0.5729
 8790TIP3    H147861   1.687   6.865  13.299 -0.3531  0.1180 -0.5382
 8790TIP3    H247862   1.737   6.739  13.232  0.7781  0.7002 -0.8188
 8791TIP3   OH247863   2.137   3.773  12.926 -0.3008  0.3413  0.1574
 8791TIP3    H147864   2.207   3.754  12.862  1.4634  0.0183  2.0857
 8791TIP3    H247865   2.167   3.851  12.972 -0.1391 -0.9715  2.4038
 8792TIP3   OH247866   5.250   1.835  11.450  0.5316 -0.2063  0.3356
 8792TIP3    H147867   5.324   1.811  11.394  0.8724 -2.2960  1.5755
 8792TIP3    H247868   5.178   1.781  11.418 -0.2388  1.1038 -0.2267
 8793TIP3   OH247869   1.596   5.235   3.588  0.4464  0.0792  0.2394
 8793TIP3    H147870   1.528   5.298   3.564  1.2125  0.7355 -0.3038
 8793TIP3    H247871   1.550   5.164   3.632 -0.6411  0.2969 -0.5111
 8794TIP3   OH247872   0.971   5.929  11.433  0.5149  0.1347 -0.3293
 8794TIP3    H147873   1.064   5.950  11.446  0.3998  0.8113 -0.5690
 8794TIP3    H247874   0.929   6.014  11.422  0.0441 -0.2234 -1.3839
 8795TIP3   OH247875   5.528   2.987  16.410  0.6089 -0.2678  0.1409
 8795TIP3    H147876   5.494   2.904  16.443  1.8002 -1.1229 -0.6639
 8795TIP3    H247877   5.486   2.998  16.325 -1.2613  1.1340  1.1897
 8796TIP3   OH247878   2.306   4.762   4.499  0.2948 -0.2717  0.7137
 8796TIP3    H147879   2.309   4.858   4.505  1.7032 -0.2029 -0.5568
 8796TIP3    H247880   2.239   4.736   4.562 -0.5346  1.5929  0.6621
 8797TIP3   OH247881   6.002   0.421   2.158  0.6498 -0.9146 -0.6000
 8797TIP3    H147882   5.915   0.433   2.120 -0.2618 -0.5287  1.4729
 8797TIP3    H247883   5.987   0.424   2.253  2.7571 -2.1020 -0.1852
 8798TIP3   OH247884   6.520   5.119  15.731  0.8623 -0.4591  0.2919
 8798TIP3    H147885   6.546   5.133  15.640  0.1466  0.1580  0.1786
 8798TIP3    H247886   6.448   5.056  15.725  0.2155  0.2594  0.3506
 8799TIP3   OH247887   6.178   4.077  14.698  0.3447 -0.1064 -0.0512
 8799TIP3    H147888   6.115   4.061  14.768  0.5319 -1.0034 -0.0689
 8799TIP3    H247889   6.136   4.043  14.619  0.4621  0.1616 -0.2303
 8800TIP3   OH247890   1.020   3.618  11.465 -0.0074  0.2053  0.1100
 8800TIP3    H147891   1.035   3.658  11.550  0.6430 -0.7150  0.4451
 8800TIP3    H247892   1.018   3.524  11.482  0.5552 -0.0149 -0.9391
 8801TIP3   OH247893   4.189   4.445  14.120 -0.3494  0.3297 -0.1109
 8801TIP3    H147894   4.109   4.480  14.159 -0.3357 -0.0673  0.2859
 8801TIP3    H247895   4.235   4.403  14.193 -1.0140 -1.7066 -0.7954
 8802TIP3   OH247896   3.502   6.144  14.393  0.4147 -0.0576  0.5755
 8802TIP3    H147897   3.520   6.231  14.358  2.3189 -0.5600  0.1769
 8802TIP3    H247898   3.407   6.137  14.393  0.2775  0.8968 -2.1833
 8803TIP3   OH247899   6.187   5.081   0.646 -0.1525 -0.3699 -0.2760
 8803TIP3    H147900   6.183   5.070   0.551 -0.7709 -1.4354 -0.1438
 8803TIP3    H247901   6.245   5.156   0.659 -1.1204  0.6609 -1.5368
 8804TIP3   OH247902   3.509   4.410  14.817 -0.5409  0.1688  0.0952
 8804TIP3    H147903   3.554   4.327  14.828 -0.1580  0.6457  2.8310
 8804TIP3    H247904   3.416   4.389  14.831 -0.6607 -0.0314 -0.8935
 8805TIP3   OH247905   5.428   5.935  12.177  0.3697  0.6701  0.2016
 8805TIP3    H147906   5.435   5.916  12.084  1.0895  0.8268  0.2221
 8805TIP3    H247907   5.389   5.856  12.215  0.2752  0.5248 -0.1960
 8806TIP3   OH247908   2.840   3.956  16.066 -0.5801  0.6115  0.2605
 8806TIP3    H147909   2.878   3.869  16.076 -0.2259  0.7250 -0.0933
 8806TIP3    H247910   2.770   3.944  16.002 -1.2462  0.3758  1.0145
 8807TIP3   OH247911   5.303   2.716  11.508  0.1483  0.6322  0.3512
 8807TIP3    H147912   5.241   2.653  11.545  1.1257 -0.9134 -0.4947
 8807TIP3    H247913   5.344   2.758  11.583 -0.6581  0.3692  0.9388
 8808TIP3   OH247914   1.251   4.939   1.556 -0.2476 -0.1173 -0.4220
 8808TIP3    H147915   1.240   4.921   1.649  1.2674  0.2277 -0.1493
 8808TIP3    H247916   1.310   4.869   1.525 -0.6669 -0.1786 -1.0992
 8809TIP3   OH247917   4.050   6.334  10.784  0.5776  0.0511 -0.3877
 8809TIP3    H147918   4.119   6.399  10.798  1.7507 -1.1009 -0.6812
 8809TIP3    H247919   4.081   6.281  10.711  0.4202 -1.8439  0.8421
 8810TIP3   OH247920   0.566   3.522   2.502  0.5004 -0.3673  0.3405
 8810TIP3    H147921   0.562   3.500   2.595 -0.3966  0.1119  0.4271
 8810TIP3    H247922   0.597   3.442   2.460 -0.0506 -0.9098  0.9400
 8811TIP3   OH247923   6.536   4.252   1.825  0.2764 -0.6180 -0.0894
 8811TIP3    H147924   6.510   4.235   1.915  1.3608  0.6425  0.4858
 8811TIP3    H247925   6.605   4.188   1.807 -0.9701 -1.8870 -0.5775
 8812TIP3   OH247926   0.046   4.664   2.528  0.1256  0.0117  0.4736
 8812TIP3    H147927   0.065   4.706   2.444  0.9172 -1.6181 -0.2029
 8812TIP3    H247928   0.072   4.730   2.593  3.3466 -0.0854 -0.4978
 8813TIP3   OH247929   2.108   2.379   4.847 -0.4550 -0.0350 -0.2975
 8813TIP3    H147930   2.097   2.321   4.921  0.5482  1.6002  1.2182
 8813TIP3    H247931   2.135   2.322   4.775 -1.0636 -1.6100  0.6735
 8814TIP3   OH247932   1.997   2.370  16.478 -0.4371  0.4720 -0.0842
 8814TIP3    H147933   2.031   2.359  16.567 -1.1146  2.3564  0.4536
 8814TIP3    H247934   1.974   2.281  16.450  1.9662 -0.4701  0.6957
 8815TIP3   OH247935   1.924   1.790  13.642  0.2456  0.4947 -0.2882
 8815TIP3    H147936   1.878   1.874  13.638  1.5157  1.2415  0.0274
 8815TIP3    H247937   2.006   1.805  13.594  0.2998 -0.7007 -0.6007
 8816TIP3   OH247938   5.052   1.008  12.477  0.0562  0.0863 -0.5124
 8816TIP3    H147939   5.015   0.921  12.459  0.0069 -0.3887  1.5375
 8816TIP3    H247940   5.064   1.009  12.572  2.2934  1.4404 -0.7268
 8817TIP3   OH247941   0.080   2.064  11.193 -0.4901 -0.7316  0.0903
 8817TIP3    H147942   0.154   2.093  11.140  0.4507  0.0621  1.7463
 8817TIP3    H247943   0.018   2.027  11.130  1.4756 -1.8338 -1.3175
 8818TIP3   OH247944   3.681   1.753  15.986 -0.5233 -0.4912  0.1557
 8818TIP3    H147945   3.590   1.728  16.003 -1.2996  1.4993 -0.7654
 8818TIP3    H247946   3.678   1.848  15.973  1.0951 -0.7290 -3.1929
 8819TIP3   OH247947   2.260   3.672   2.877 -0.0902 -0.3525  0.0489
 8819TIP3    H147948   2.214   3.673   2.793 -1.0672 -2.5662  0.4955
 8819TIP3    H247949   2.194   3.644   2.941  1.0407 -0.2898  1.2985
 8820TIP3   OH247950   3.939   4.647  15.393  0.3071  0.2707  0.7519
 8820TIP3    H147951   3.872   4.579  15.402 -3.3824  3.4419 -0.1586
 8820TIP3    H247952   3.963   4.645  15.300  0.4426  0.0104  0.7916
 8821TIP3   OH247953   5.465   5.767   0.739  0.1864  0.2292  0.0307
 8821TIP3    H147954   5.389   5.720   0.704 -0.8404  1.7280  0.1018
 8821TIP3    H247955   5.465   5.746   0.832 -0.9741  1.2324  0.2840
 8822TIP3   OH247956   6.118   1.358  15.083  0.6126 -0.0989 -0.2854
 8822TIP3    H147957   6.057   1.429  15.069 -2.4530 -2.8610 -2.5407
 8822TIP3    H247958   6.084   1.311  15.159 -0.9901 -2.3213 -2.2372
 8823TIP3   OH247959   0.553   4.699   2.426 -0.0438  0.5093  0.2875
 8823TIP3    H147960   0.532   4.721   2.516 -0.8923  1.0213 -0.0153
 8823TIP3    H247961   0.472   4.717   2.378  0.1803 -0.4090 -0.4669
 8824TIP3   OH247962   6.076   4.893  15.806 -0.4711  0.1122 -0.2925
 8824TIP3    H147963   6.125   4.899  15.725  0.2208  2.4195  0.2160
 8824TIP3    H247964   6.131   4.839  15.864  0.4702  0.8931 -0.4291
 8825TIP3   OH247965   2.341   2.751  11.124  0.3948  0.1811 -0.0872
 8825TIP3    H147966   2.290   2.704  11.190  1.5264  0.0861  0.7398
 8825TIP3    H247967   2.341   2.692  11.048  0.2422 -0.3159  0.2919
 8826TIP3   OH247968   1.639   1.473   3.615  0.1645 -0.1027 -0.1690
 8826TIP3    H147969   1.598   1.550   3.656  1.0319  0.7459 -0.8574
 8826TIP3    H247970   1.578   1.448   3.546 -0.1257 -0.0471  0.0623
 8827TIP3   OH247971   1.419   0.846   0.355 -0.2683  0.2849 -0.2866
 8827TIP3    H147972   1.409   0.850   0.260  0.3885 -0.0011 -0.3738
 8827TIP3    H247973   1.465   0.926   0.378  1.5671 -0.6523 -0.4975
 8828TIP3   OH247974   4.449   2.440  12.349 -0.1957 -0.5525  0.4134
 8828TIP3    H147975   4.430   2.512  12.290  0.7372  0.7873  1.6887
 8828TIP3    H247976   4.515   2.388  12.303 -1.2468 -0.9150 -0.7309
 8829TIP3   OH247977   2.755   6.068   2.005 -0.8912 -0.2226  0.0414
 8829TIP3    H147978   2.774   6.022   1.924 -2.7110 -0.5667 -0.2436
 8829TIP3    H247979   2.787   6.010   2.074  1.2772  0.3723 -0.3921
 8830TIP3   OH247980   3.977   0.515   2.942 -0.1841  0.2403  0.0443
 8830TIP3    H147981   3.950   0.563   3.020  1.1881 -1.6147  1.7671
 8830TIP3    H247982   3.901   0.461   2.920 -0.9231  1.4781 -0.5482
 8831TIP3   OH247983   1.968   3.922  11.100 -0.1310  0.1169  0.1058
 8831TIP3    H147984   2.007   4.007  11.079  0.7261 -0.7492 -2.1656
 8831TIP3    H247985   1.890   3.918  11.046  0.0148 -0.6723 -0.0503
 8832TIP3   OH247986   5.465   1.063  16.647  0.0019 -0.1374  0.0829
 8832TIP3    H147987   5.502   1.002  16.711 -2.7208 -1.4362  0.5738
 8832TIP3    H247988   5.390   1.102  16.692 -0.3331  1.0221 -1.4010
 8833TIP3   OH247989   2.155   3.859   2.293  0.6305 -0.2100 -0.2736
 8833TIP3    H147990   2.086   3.795   2.274 -1.1278  0.6544  2.6212
 8833TIP3    H247991   2.144   3.926   2.226 -0.8024 -0.5116 -0.3729
 8834TIP3   OH247992   4.898   5.431  12.242 -0.6680 -0.4632  0.7239
 8834TIP3    H147993   4.920   5.512  12.196 -0.3493  0.0124  1.7064
 8834TIP3    H247994   4.820   5.453  12.293 -1.2762 -1.1132  0.1101
 8835TIP3   OH247995   2.355   1.289  14.301  0.2868 -0.3176  0.2787
 8835TIP3    H147996   2.284   1.334  14.348 -0.9711 -0.6664 -1.2106
 8835TIP3    H247997   2.322   1.200  14.286  1.1666 -0.5809 -0.1538
 8836TIP3   OH247998   0.808   6.245   0.728  0.0258  0.1740  0.1983
 8836TIP3    H147999   0.870   6.176   0.703  2.1294  2.1322 -0.2695
 8836TIP3    H248000   0.768   6.213   0.809  3.5551 -0.1204  2.0209
 8837TIP3   OH248001   4.973   5.276  10.208  0.2881  0.4356 -0.5825
 8837TIP3    H148002   4.890   5.263  10.161  0.2498  0.0952 -0.4221
 8837TIP3    H248003   4.999   5.188  10.235  0.6003  0.5669 -0.4556
 8838TIP3   OH248004   3.021   4.989  14.006  0.1432 -0.8183  0.2233
 8838TIP3    H148005   2.991   4.899  14.015 -0.5801 -0.6048  0.0298
 8838TIP3    H248006   2.985   5.034  14.083 -2.4265  0.0504 -1.3489
 8839TIP3   OH248007   1.350   5.790  14.143  0.0316  0.2114 -0.1891
 8839TIP3    H148008   1.358   5.875  14.185  1.7266 -0.8168  1.7654
 8839TIP3    H248009   1.267   5.754  14.174 -0.7933  1.1992 -1.1962
 8840TIP3   OH248010   0.171   2.036  10.790  0.3094 -0.1536  0.7603
 8840TIP3    H148011   0.217   2.045  10.707  0.8481  0.4722  1.1194
 8840TIP3    H248012   0.092   2.088  10.780  0.5806  0.2654  0.7858
 8841TIP3   OH248013   5.300   2.157  12.634  0.0120  0.1480  0.4583
 8841TIP3    H148014   5.281   2.065  12.617  1.2402 -0.1341  0.5532
 8841TIP3    H248015   5.215   2.201  12.625 -0.5826 -0.9815  0.3927
 8842TIP3   OH248016   2.786   4.964  16.992  0.2321 -0.3252  0.3791
 8842TIP3    H148017   2.709   5.011  16.960  0.3246 -1.8870 -2.5493
 8842TIP3    H248018   2.849   5.033  17.013 -1.4414  0.9392  1.4988
 8843TIP3   OH248019   4.374   5.427  13.500  0.6745 -0.6522 -0.7489
 8843TIP3    H148020   4.298   5.370  13.517 -0.9919  1.5544 -0.3992
 8843TIP3    H248021   4.424   5.425  13.582  0.4503 -1.3000 -0.6143
 8844TIP3   OH248022   3.536   3.670   1.524 -0.4144  0.4721 -0.7664
 8844TIP3    H148023   3.567   3.581   1.541 -0.3622  0.3479 -1.5048
 8844TIP3    H248024   3.544   3.681   1.429  0.4175  1.5816 -0.5814
 8845TIP3   OH248025   3.938   0.640  15.008 -0.0472 -0.6904 -0.1069
 8845TIP3    H148026   3.895   0.725  15.004  0.2910 -0.3886  1.9022
 8845TIP3    H248027   3.884   0.584  14.952  0.9361  1.2650 -3.2840
 8846TIP3   OH248028   0.148   3.968   3.416 -0.0394  0.1722  0.0629
 8846TIP3    H148029   0.140   3.924   3.501  1.8315  1.9240  1.2559
 8846TIP3    H248030   0.242   3.980   3.404 -0.3741  2.3828 -0.9240
 8847TIP3   OH248031   1.301   0.088   2.334  0.1545 -0.4626  0.0305
 8847TIP3    H148032   1.210   0.061   2.347 -0.2208  0.4090 -0.6760
 8847TIP3    H248033   1.296   0.182   2.316  1.1908 -0.4144 -0.0931
 8848TIP3   OH248034   6.531   3.281   2.999 -0.1602  0.5274  0.2040
 8848TIP3    H148035   6.586   3.209   2.968  1.9193  2.1465 -0.1331
 8848TIP3    H248036   6.476   3.243   3.067  0.7252 -1.4044 -0.1062
 8849TIP3   OH248037   0.640   2.004   3.970  0.3430 -0.4273  0.0051
 8849TIP3    H148038   0.698   1.928   3.978 -0.7850 -1.3130 -0.0004
 8849TIP3    H248039   0.699   2.078   3.956  1.4340 -1.4117 -0.7955
 8850TIP3   OH248040   5.610   5.331   4.436 -0.4250  0.3636  0.1864
 8850TIP3    H148041   5.607   5.246   4.480 -0.5108 -1.3718 -2.8807
 8850TIP3    H248042   5.519   5.349   4.414 -0.3555  1.1026  0.4838
 8851TIP3   OH248043   5.570   1.178  12.473 -0.1765  0.2683  0.6303
 8851TIP3    H148044   5.547   1.271  12.482 -0.6048  0.7345 -3.3876
 8851TIP3    H248045   5.500   1.142  12.419  1.9805 -1.4010 -1.2023
 8852TIP3   OH248046   3.551   6.169   2.551  0.5981 -0.2629 -0.2296
 8852TIP3    H148047   3.546   6.083   2.594  0.8283 -0.8018 -1.2441
 8852TIP3    H248048   3.639   6.199   2.569  0.7842 -0.6101 -0.5393
 8853TIP3   OH248049   4.546   3.075   2.401  0.5676 -0.0411 -0.2259
 8853TIP3    H148050   4.510   2.993   2.367 -0.2954  0.8845 -1.6962
 8853TIP3    H248051   4.638   3.073   2.376  0.6813 -0.7741  0.2150
 8854TIP3   OH248052   6.703   6.160  14.335  0.2519 -0.1169  0.3547
 8854TIP3    H148053   6.740   6.223  14.274  0.1049 -0.5966 -0.2403
 8854TIP3    H248054   6.698   6.079  14.285 -2.2151  0.0695  0.1768
 8855TIP3   OH248055   0.970   1.379  14.827 -0.0264  0.0594 -0.0125
 8855TIP3    H148056   0.971   1.287  14.799 -0.7010 -0.0935  0.4546
 8855TIP3    H248057   0.990   1.376  14.920  2.0668  0.5647 -0.3958
 8856TIP3   OH248058   0.279   0.757   5.026 -0.3680  0.1690 -0.2196
 8856TIP3    H148059   0.304   0.731   4.937  0.9665  1.3984 -0.2395
 8856TIP3    H248060   0.200   0.810   5.014 -1.2469 -1.1337 -0.4648
 8857TIP3   OH248061   0.674   0.927  13.810  0.4639  0.4071 -0.0952
 8857TIP3    H148062   0.650   0.877  13.889 -0.1332  0.5773 -0.1675
 8857TIP3    H248063   0.630   1.011  13.821 -4.4305 -1.3322 -3.1449
 8858TIP3   OH248064   2.200   5.191  10.702  0.3351  0.4092  0.2208
 8858TIP3    H148065   2.272   5.179  10.640 -0.6704 -1.3359 -0.6642
 8858TIP3    H248066   2.164   5.277  10.680 -0.3153 -0.3723 -2.0174
 8859TIP3   OH248067   0.330   4.032  14.218 -0.5506 -0.0950  0.2054
 8859TIP3    H148068   0.401   4.020  14.281 -0.0746 -0.1114 -0.3289
 8859TIP3    H248069   0.269   3.961  14.237 -0.6313  0.1624  0.9411
 8860TIP3   OH248070   4.172   5.748  14.798 -0.2105  0.1795  1.0906
 8860TIP3    H148071   4.116   5.718  14.727  1.8070  1.7465 -1.3333
 8860TIP3    H248072   4.136   5.707  14.877 -2.4534 -1.7786 -0.8262
 8861TIP3   OH248073   4.015   2.078   0.438  0.1421 -0.1078 -1.1564
 8861TIP3    H148074   4.073   2.137   0.488 -1.5828  1.2104 -0.5888
 8861TIP3    H248075   4.060   1.994   0.438  1.3832  0.4990  0.5029
 8862TIP3   OH248076   6.430   3.737   4.409 -0.5516  0.7107  0.5273
 8862TIP3    H148077   6.344   3.695   4.407  0.0092 -0.4713  0.2785
 8862TIP3    H248078   6.438   3.781   4.324 -0.2473 -0.5966 -0.1446
 8863TIP3   OH248079   0.279   2.439  14.625  0.5209  0.5652  0.5198
 8863TIP3    H148080   0.339   2.365  14.636 -0.6583 -0.4231  0.4110
 8863TIP3    H248081   0.204   2.418  14.680 -0.6698  0.7545 -0.9619
 8864TIP3   OH248082   1.312   0.200   1.551  0.4956 -0.6016 -0.3039
 8864TIP3    H148083   1.408   0.190   1.552  0.5398 -0.2750 -0.8717
 8864TIP3    H248084   1.297   0.293   1.564  0.2603 -0.6316 -0.3556
 8865TIP3   OH248085   2.262   4.186  13.266 -0.2897  0.1348  0.0318
 8865TIP3    H148086   2.229   4.170  13.354  0.4284 -0.5393  0.1895
 8865TIP3    H248087   2.237   4.109  13.216  1.3814 -0.5968  0.2662
 8866TIP3   OH248088   1.732   5.619   1.670  0.0061  0.1159  0.6317
 8866TIP3    H148089   1.690   5.547   1.719 -1.8660  1.0740  0.5106
 8866TIP3    H248090   1.795   5.656   1.732  1.6634 -2.1284  0.4114
 8867TIP3   OH248091   4.500   0.242   0.375  0.6412 -0.0852  0.7553
 8867TIP3    H148092   4.524   0.325   0.415 -0.8284  0.6133  0.2508
 8867TIP3    H248093   4.473   0.187   0.448  2.9298 -0.6664  1.2617
 8868TIP3   OH248094   0.743   0.355   1.638 -0.0583  0.2592  0.1458
 8868TIP3    H148095   0.768   0.272   1.596 -2.7332  0.0542 -1.2541
 8868TIP3    H248096   0.737   0.334   1.731  0.3695 -0.8376 -0.0587
 8869TIP3   OH248097   3.631   4.691  12.102  0.5006 -0.4636 -0.0205
 8869TIP3    H148098   3.601   4.782  12.097  2.0054  0.1322  0.9986
 8869TIP3    H248099   3.681   4.677  12.022  0.5858 -0.2747  0.0011
 8870TIP3   OH248100   4.597   6.667  16.061  0.0372 -0.1679 -0.2541
 8870TIP3    H148101   4.672   6.659  16.119 -1.3479  0.6503  1.7440
 8870TIP3    H248102   4.550   6.584  16.070 -1.0387  0.5514  1.1190
 8871TIP3   OH248103   3.226   1.323  11.894 -0.3618 -0.4890 -0.5202
 8871TIP3    H148104   3.233   1.363  11.981  1.4082  1.2421 -1.3753
 8871TIP3    H248105   3.133   1.306  11.883 -0.8250  0.7238  1.1040
 8872TIP3   OH248106   1.740   1.522  11.300  0.3088 -0.4112 -0.2434
 8872TIP3    H148107   1.800   1.469  11.247 -0.6532 -2.4354  0.5673
 8872TIP3    H248108   1.782   1.529  11.385  0.9304  1.1264 -0.6474
 8873TIP3   OH248109   0.491   4.825  13.223  0.0937 -0.2836  0.0741
 8873TIP3    H148110   0.546   4.904  13.222  0.3151 -0.4209  0.7307
 8873TIP3    H248111   0.479   4.806  13.316 -1.3679 -0.0499 -0.0478
 8874TIP3   OH248112   0.256   2.348   5.483 -0.8177  0.4430 -0.1378
 8874TIP3    H148113   0.203   2.335   5.561  0.1063 -2.1620  0.1437
 8874TIP3    H248114   0.341   2.310   5.505 -0.7617 -1.1036 -2.6214
 8875TIP3   OH248115   4.416   3.593  12.667  0.3602  0.2689 -0.6842
 8875TIP3    H148116   4.438   3.639  12.748 -1.0988 -1.6326  0.8712
 8875TIP3    H248117   4.468   3.637  12.600  3.6748  0.2458  1.6572
 8876TIP3   OH248118   5.235   5.702  11.424 -0.0695  0.5983 -0.2027
 8876TIP3    H148119   5.235   5.658  11.509 -0.6995 -0.3668 -0.6878
 8876TIP3    H248120   5.167   5.657  11.373  0.1064  1.3419 -1.1283
 8877TIP3   OH248121   5.247   0.630   2.336 -0.0464  0.7128  0.5326
 8877TIP3    H148122   5.252   0.565   2.406  1.4516  1.4384  1.1468
 8877TIP3    H248123   5.156   0.659   2.338 -0.6267 -1.0009  0.5524
 8878TIP3   OH248124   1.987   2.590   5.921  0.5525 -0.5781 -0.1525
 8878TIP3    H148125   2.008   2.671   5.875  1.2670 -0.2826  0.6662
 8878TIP3    H248126   2.031   2.599   6.006 -0.9736 -0.9622  0.7159
 8879TIP3   OH248127   0.812   2.596  13.990 -0.9643  0.1995  0.2588
 8879TIP3    H148128   0.787   2.525  14.048 -2.2998  0.8401  0.5097
 8879TIP3    H248129   0.845   2.665  14.048  0.5336 -0.2647  0.0022
 8880TIP3   OH248130   5.504   6.639   3.041 -0.0329  0.4146 -0.6341
 8880TIP3    H148131   5.593   6.654   3.009 -0.1287  0.7142 -0.7610
 8880TIP3    H248132   5.448   6.673   2.972 -0.2468  0.2232 -0.5545
 8881TIP3   OH248133   1.892   0.235  13.449 -0.1018  0.6890 -0.1088
 8881TIP3    H148134   1.951   0.300  13.486 -0.6746  0.7937  0.6504
 8881TIP3    H248135   1.809   0.281  13.438 -0.3135  0.2833 -0.2394
 8882TIP3   OH248136   2.353   6.455  13.384 -0.2028  0.4545  0.0554
 8882TIP3    H148137   2.378   6.547  13.380  0.2244  0.4412  1.7919
 8882TIP3    H248138   2.350   6.434  13.477 -0.2452 -1.3134 -0.2992
 8883TIP3   OH248139   0.582   6.125   2.882 -0.1620  0.3577 -0.2830
 8883TIP3    H148140   0.662   6.087   2.919  1.2303  2.2110 -1.1860
 8883TIP3    H248141   0.529   6.149   2.959  0.3591 -0.4325  0.3441
 8884TIP3   OH248142   0.175   1.305   1.018  0.2940 -0.9308  0.2099
 8884TIP3    H148143   0.192   1.333   0.928  0.0571 -1.6660 -0.0746
 8884TIP3    H248144   0.246   1.345   1.069 -1.4223  2.3079  0.2896
 8885TIP3   OH248145   1.377   2.049  15.041 -0.0571 -0.7219  0.2361
 8885TIP3    H148146   1.461   2.093  15.049  1.3201 -3.2515  0.7809
 8885TIP3    H248147   1.325   2.105  14.983  2.7593 -0.1335 -1.9311
 8886TIP3   OH248148   3.197   4.549   2.584  0.5865  0.3093  0.1480
 8886TIP3    H148149   3.136   4.608   2.539  2.3572  1.6085 -0.6714
 8886TIP3    H248150   3.283   4.589   2.571  1.4106 -0.2753  3.1184
 8887TIP3   OH248151   2.635   6.049  11.886 -0.3256 -0.2367  0.3631
 8887TIP3    H148152   2.687   6.093  11.954 -1.2763  0.7537  0.4768
 8887TIP3    H248153   2.700   6.003  11.833  0.3435 -2.1989  2.7132
 8888TIP3   OH248154   0.450   1.283   1.311 -0.2978  0.2179 -0.0547
 8888TIP3    H148155   0.410   1.370   1.305 -1.0864 -0.0212  1.3911
 8888TIP3    H248156   0.398   1.230   1.250  0.5670  0.8524 -1.4050
 8889TIP3   OH248157   4.240   5.907  16.856 -0.0050 -0.0468  0.6343
 8889TIP3    H148158   4.232   5.882  16.948 -0.0758 -0.5306  0.5014
 8889TIP3    H248159   4.151   5.927  16.828  0.1697  1.3541  1.0015
 8890TIP3   OH248160   5.691   0.198  14.087 -0.0573 -0.0477  0.0220
 8890TIP3    H148161   5.658   0.193  13.998 -0.8400  0.4030  0.2793
 8890TIP3    H248162   5.747   0.276  14.088 -0.1803  0.0423 -0.0396
 8891TIP3   OH248163   5.559   4.671   3.865  0.3191 -0.2956  0.3682
 8891TIP3    H148164   5.600   4.594   3.905  0.6407 -0.3444 -0.0473
 8891TIP3    H248165   5.601   4.678   3.779  1.0876  0.9968  0.8350
 8892TIP3   OH248166   1.811   3.361  14.715  0.5837 -0.0340  0.3786
 8892TIP3    H148167   1.872   3.327  14.650 -1.3202 -1.1892 -0.8952
 8892TIP3    H248168   1.748   3.290  14.729 -1.2941  1.5749  0.5460
 8893TIP3   OH248169   1.642   6.246  11.941  0.1273  0.1833 -0.2299
 8893TIP3    H148170   1.590   6.259  11.861 -0.6459  1.2939  0.4347
 8893TIP3    H248171   1.729   6.277  11.917  0.0490 -0.0271 -0.8150
 8894TIP3   OH248172   2.709   4.043   1.792 -0.2405  0.7202  0.6139
 8894TIP3    H148173   2.705   3.986   1.869  1.9021  0.0805  0.3112
 8894TIP3    H248174   2.683   4.129   1.824 -0.5048  0.2284  1.7797
 8895TIP3   OH248175   5.017   4.982  15.099  0.1848 -0.2147  0.4813
 8895TIP3    H148176   5.032   5.074  15.121 -0.5116  0.1848 -0.5951
 8895TIP3    H248177   5.093   4.936  15.133  0.6599  0.8005  0.8263
 8896TIP3   OH248178   2.110   2.350   2.654  0.3588  1.0350 -0.2374
 8896TIP3    H148179   2.198   2.312   2.662  0.0053  0.1668 -0.3881
 8896TIP3    H248180   2.111   2.397   2.571  0.3935  0.2476 -0.6834
 8897TIP3   OH248181   2.163   5.252   2.038  0.2967 -0.1452 -0.0365
 8897TIP3    H148182   2.206   5.170   2.059 -3.0783 -1.9425  0.5959
 8897TIP3    H248183   2.157   5.298   2.122 -1.7482 -1.3982  0.5679
 8898TIP3   OH248184   5.976   3.767   1.569  0.1093 -0.3126  0.4871
 8898TIP3    H148185   6.008   3.760   1.658 -0.8806 -2.5229  0.7479
 8898TIP3    H248186   6.043   3.724   1.515  0.7180  1.0381  0.1413
 8899TIP3   OH248187   6.261   4.639  16.823 -0.4464  0.0847  0.0860
 8899TIP3    H148188   6.306   4.696  16.760  2.4531 -0.7748  1.2029
 8899TIP3    H248189   6.296   4.552  16.806 -0.1934 -0.3107  2.2810
 8900TIP3   OH248190   3.261   1.633  12.347  0.5466 -0.1392 -0.3016
 8900TIP3    H148191   3.288   1.657  12.259 -0.0104  0.3403 -0.3423
 8900TIP3    H248192   3.253   1.716  12.394  0.7616 -0.3838  0.1812
 8901TIP3   OH248193   1.184   1.098  11.735  0.6078  0.1242 -0.2560
 8901TIP3    H148194   1.118   1.048  11.688  0.4830 -1.1829  1.2017
 8901TIP3    H248195   1.136   1.167  11.781  0.3972 -0.1120 -0.1198
 8902TIP3   OH248196   6.122   4.576  15.065  0.2472  0.4232 -0.1326
 8902TIP3    H148197   6.129   4.556  14.972  1.8092  0.4217 -0.0440
 8902TIP3    H248198   6.091   4.667  15.067  0.5425  0.5449 -0.6672
 8903TIP3   OH248199   3.181   2.934   2.063 -0.5056  0.0372  0.2800
 8903TIP3    H148200   3.255   2.886   2.027 -0.6445  0.2681 -0.3190
 8903TIP3    H248201   3.217   3.017   2.093 -0.3910 -0.1545  0.6908
 8904TIP3   OH248202   4.218   5.398   4.998  0.5491 -0.5973 -0.4102
 8904TIP3    H148203   4.246   5.341   5.069 -2.2794  0.2047  1.5791
 8904TIP3    H248204   4.151   5.348   4.952 -2.7104  1.1156  1.9764
 8905TIP3   OH248205   1.562   2.221  13.476 -0.2117 -0.2459  0.2970
 8905TIP3    H148206   1.541   2.308  13.511  0.1025 -0.7872  1.9230
 8905TIP3    H248207   1.627   2.186  13.537  4.1853  0.5895 -3.3526
 8906TIP3   OH248208   3.942   1.766   1.635 -0.0886 -0.5061  0.4034
 8906TIP3    H148209   3.922   1.717   1.714  0.7231  0.8619  1.4929
 8906TIP3    H248210   4.007   1.831   1.662 -2.2421  2.2373 -0.6091
 8907TIP3   OH248211   0.313   6.780   2.554 -0.2764 -0.4212 -0.9071
 8907TIP3    H148212   0.257   6.852   2.525 -0.9742 -0.6832 -0.2508
 8907TIP3    H248213   0.288   6.766   2.645  0.5693 -0.8301 -0.7286
 8908TIP3   OH248214   0.471   4.386  13.467  0.3770  0.6061  0.8405
 8908TIP3    H148215   0.380   4.416  13.472  0.2133  0.0159  1.6479
 8908TIP3    H248216   0.470   4.302  13.512  1.0015 -0.1832 -0.5397
 8909TIP3   OH248217   5.887   6.671   4.511  0.1734 -0.2339  0.4301
 8909TIP3    H148218   5.972   6.710   4.486 -0.0025 -0.4436 -0.5633
 8909TIP3    H248219   5.889   6.669   4.606  0.8928  0.6492  0.4557
 8910TIP3   OH248220   6.533   3.699  14.200  0.0987  0.5057  0.1767
 8910TIP3    H148221   6.446   3.687  14.239  0.5288  0.1741  1.0688
 8910TIP3    H248222   6.591   3.711  14.275  0.8912  0.3172 -0.3942
 8911TIP3   OH248223   4.227   1.126   1.230 -0.2020 -0.4853 -0.2306
 8911TIP3    H148224   4.191   1.148   1.316 -0.6414  0.2149 -0.5787
 8911TIP3    H248225   4.310   1.083   1.248  0.9723  1.9280  0.5029
 8912TIP3   OH248226   2.055   5.842  14.940  0.1569 -0.2114 -0.4225
 8912TIP3    H148227   2.143   5.876  14.926  0.1496 -0.2592 -0.5897
 8912TIP3    H248228   2.067   5.769  15.000  0.2137 -0.1327 -0.3367
 8913TIP3   OH248229   2.469   3.612  14.330  0.1349 -0.4945  0.3722
 8913TIP3    H148230   2.451   3.623  14.237  2.0818  0.7492  0.0799
 8913TIP3    H248231   2.506   3.524  14.337  2.8929  0.4597 -0.6374
 8914TIP3   OH248232   2.363   0.295   2.027 -0.3515 -0.4593 -0.3433
 8914TIP3    H148233   2.308   0.323   1.953  1.2029  0.5336 -1.1786
 8914TIP3    H248234   2.437   0.356   2.026  0.2334 -1.0863  1.4078
 8915TIP3   OH248235   3.570   3.430  11.960  0.9498  0.3242  0.1884
 8915TIP3    H148236   3.618   3.460  12.037  2.0776 -0.9262  0.0093
 8915TIP3    H248237   3.591   3.494  11.892  1.8798  0.1277  0.2840
 8916TIP3   OH248238   2.012   6.395   1.306  0.1663  0.6654 -0.5315
 8916TIP3    H148239   2.019   6.363   1.216 -0.7262  1.9227 -1.0809
 8916TIP3    H248240   1.918   6.395   1.324  0.3634 -0.0019  0.5761
 8917TIP3   OH248241   6.312   3.714  11.473  0.6102  0.4525  0.2116
 8917TIP3    H148242   6.251   3.756  11.533 -0.4418  0.8500 -1.0948
 8917TIP3    H248243   6.323   3.777  11.402  0.3149 -0.7772 -0.9735
 8918TIP3   OH248244   3.102   4.151   6.343  0.3521 -0.2867 -0.3196
 8918TIP3    H148245   3.152   4.071   6.359 -0.6781 -0.6128  1.5917
 8918TIP3    H248246   3.162   4.222   6.366  0.3860 -0.6232  0.6797
 8919TIP3   OH248247   2.482   5.416   0.213 -0.3564 -0.1383 -0.1453
 8919TIP3    H148248   2.505   5.504   0.183 -0.1746 -0.6544 -1.6021
 8919TIP3    H248249   2.455   5.428   0.305 -0.5471  1.4541 -0.3812
 8920TIP3   OH248250   2.027   1.055   3.792 -0.4452  0.4554  0.3374
 8920TIP3    H148251   2.012   0.986   3.727  1.8592  1.2573 -1.1523
 8920TIP3    H248252   1.941   1.097   3.802 -0.9779  0.0693 -1.9437
 8921TIP3   OH248253   4.862   1.590  11.613 -0.0289  0.3495 -0.6251
 8921TIP3    H148254   4.857   1.498  11.586 -1.9077 -0.1995  1.2503
 8921TIP3    H248255   4.956   1.606  11.625  0.2811 -1.9136  0.6827
 8922TIP3   OH248256   3.478   5.505  15.919  0.1956 -0.5880 -0.3872
 8922TIP3    H148257   3.399   5.467  15.881  0.0515 -2.2444  1.4042
 8922TIP3    H248258   3.448   5.546  16.001  0.7353  1.4970 -1.1680
 8923TIP3   OH248259   3.763   1.322  15.887  0.2151 -0.3283  0.4971
 8923TIP3    H148260   3.763   1.236  15.846  0.8151 -1.0951  2.0438
 8923TIP3    H248261   3.764   1.304  15.981 -0.7973  1.3723  0.8676
 8924TIP3   OH248262   6.297   4.990   0.090 -0.1516 -0.1093  0.0772
 8924TIP3    H148263   6.346   5.024   0.016  0.9789 -0.8709  0.4442
 8924TIP3    H248264   6.348   5.016   0.167  0.5759 -2.2258  0.3948
 8925TIP3   OH248265   1.582   5.980  15.435 -0.0190  0.3330 -0.2490
 8925TIP3    H148266   1.603   6.031  15.513  2.7862  1.3529 -1.5404
 8925TIP3    H248267   1.589   5.889  15.463 -0.8035  0.6461  1.0650
 8926TIP3   OH248268   5.501   2.378  14.468  0.5330 -0.1032  0.4727
 8926TIP3    H148269   5.588   2.352  14.438  0.1640 -0.6997 -0.1243
 8926TIP3    H248270   5.486   2.462  14.424  0.5289 -0.3382  0.0131
 8927TIP3   OH248271   2.173   6.620  10.229  0.0816 -0.2551  0.3569
 8927TIP3    H148272   2.257   6.605  10.185  1.2699 -0.8734  2.6701
 8927TIP3    H248273   2.124   6.539  10.215  0.3845 -0.3867  0.0486
 8928TIP3   OH248274   5.836   0.448  14.100 -0.3839  0.3760 -0.2102
 8928TIP3    H148275   5.838   0.466  14.006  3.0196 -0.0481 -0.3261
 8928TIP3    H248276   5.868   0.528  14.141 -0.0396 -0.0780  0.4362
 8929TIP3   OH248277   3.589   6.618   4.076 -0.5318  0.2955  0.5631
 8929TIP3    H148278   3.618   6.693   4.024 -0.7454 -0.9437 -1.4269
 8929TIP3    H248279   3.511   6.650   4.122 -1.2295  1.0175 -1.0474
 8930TIP3   OH248280   5.086   2.814   2.730 -0.3489 -0.0168 -0.3825
 8930TIP3    H148281   5.121   2.742   2.782  1.0666  0.4847 -0.5684
 8930TIP3    H248282   5.115   2.893   2.776 -0.2112  0.4253 -1.1969
 8931TIP3   OH248283   6.411   3.041   1.669 -0.0017  0.4830 -0.5759
 8931TIP3    H148284   6.441   3.090   1.746 -1.6591  1.3399 -0.4254
 8931TIP3    H248285   6.482   3.051   1.605  0.4847  1.5543  0.1068
 8932TIP3   OH248286   1.558   1.651   3.034 -0.3566 -0.1218 -0.7844
 8932TIP3    H148287   1.482   1.602   3.003 -1.0658  0.7626 -0.5081
 8932TIP3    H248288   1.576   1.715   2.965 -2.9057  2.9015  1.0678
 8933TIP3   OH248289   2.882   1.830   5.720  0.2149 -0.0969 -0.2416
 8933TIP3    H148290   2.896   1.905   5.778 -2.7619 -0.1273  0.6500
 8933TIP3    H248291   2.924   1.856   5.638  0.3372  2.0086  0.4292
 8934TIP3   OH248292   5.907   2.448   4.658  0.2287  0.1683  0.0225
 8934TIP3    H148293   5.823   2.444   4.704  0.8770 -1.9003  1.1793
 8934TIP3    H248294   5.904   2.374   4.598  1.4896 -0.4114  0.6429
 8935TIP3   OH248295   1.248   5.110  11.778  0.1532  0.7827 -0.0211
 8935TIP3    H148296   1.316   5.045  11.792 -0.6340 -0.0614  0.0007
 8935TIP3    H248297   1.167   5.067  11.807 -0.3761  1.7998  0.0731
 8936TIP3   OH248298   5.057   2.146   5.033  1.0994  0.4167 -0.0686
 8936TIP3    H148299   5.069   2.137   5.128  1.2488  0.7250 -0.0582
 8936TIP3    H248300   5.137   2.111   4.995  0.3989 -1.1764 -0.1453
 8937TIP3   OH248301   2.146   3.057   4.128  0.1213 -0.3321 -0.7882
 8937TIP3    H148302   2.130   3.069   4.222 -1.2538  1.5950 -1.2012
 8937TIP3    H248303   2.139   3.145   4.092  2.5434 -0.7368 -2.4685
 8938TIP3   OH248304   1.297   6.724   0.685  0.2955  0.0576 -0.2642
 8938TIP3    H148305   1.245   6.779   0.744 -0.0836 -0.1751 -0.3735
 8938TIP3    H248306   1.244   6.645   0.673  0.8921 -0.3899 -0.0016
 8939TIP3   OH248307   5.403   5.790   4.529  0.1433 -0.3631  0.2315
 8939TIP3    H148308   5.408   5.886   4.520 -2.2386 -0.0132  1.6802
 8939TIP3    H248309   5.462   5.757   4.463 -0.3388  2.1138 -1.6004
 8940TIP3   OH248310   4.404   4.099   5.429  0.2459 -0.2671 -0.4283
 8940TIP3    H148311   4.441   4.188   5.425 -0.1589 -0.1354 -1.7370
 8940TIP3    H248312   4.406   4.068   5.338  2.2017 -2.3863  0.2358
 8941TIP3   OH248313   3.028   4.242  11.369  0.6912  0.6098  0.0646
 8941TIP3    H148314   3.068   4.325  11.396 -0.9648  1.0241  1.3929
 8941TIP3    H248315   2.977   4.265  11.291  1.8229  0.3735 -0.7803
 8942TIP3   OH248316   5.313   2.899  12.141  0.1936  0.4443  0.1127
 8942TIP3    H148317   5.311   2.826  12.079  1.7285  0.7654 -0.3491
 8942TIP3    H248318   5.405   2.909  12.164 -0.1770  1.2936  1.3155
 8943TIP3   OH248319   6.586   4.787   5.702  0.3552 -0.1209 -0.0873
 8943TIP3    H148320   6.502   4.747   5.679  0.2982  0.0332 -0.1457
 8943TIP3    H248321   6.605   4.754   5.790 -0.1901  0.5311  0.2824
 8944TIP3   OH248322   6.447   3.451  14.710 -0.1960  0.1807 -0.2240
 8944TIP3    H148323   6.484   3.378  14.760  0.3845 -0.1001 -1.0406
 8944TIP3    H248324   6.352   3.440  14.719 -0.1280 -0.9897 -0.7747
 8945TIP3   OH248325   2.835   6.733  13.980  0.1694 -0.6410  0.5276
 8945TIP3    H148326   2.838   6.638  13.976  0.9252 -0.6960  1.9552
 8945TIP3    H248327   2.908   6.762  13.924 -0.9412 -0.8260 -1.0851
 8946TIP3   OH248328   0.442   0.082  16.738 -0.0003  0.5278  0.5095
 8946TIP3    H148329   0.376   0.033  16.687 -0.1228  0.3048  0.8769
 8946TIP3    H248330   0.425   0.174  16.717  0.6027  0.4027 -0.6418
 8947TIP3   OH248331   2.014   3.307  15.156  0.2679 -0.3610 -0.1452
 8947TIP3    H148332   2.003   3.290  15.062  0.2628  0.1013 -0.2267
 8947TIP3    H248333   1.925   3.320  15.189  0.3490  0.5979 -0.2871
 8948TIP3   OH248334   5.271   4.302  11.073 -0.4911  0.0696 -0.4992
 8948TIP3    H148335   5.343   4.365  11.080  0.9280 -1.5674  1.0593
 8948TIP3    H248336   5.270   4.276  10.981 -0.9135  2.0835 -1.1044
 8949TIP3   OH248337   1.563   1.150   3.070  0.0777  0.6121  0.0723
 8949TIP3    H148338   1.648   1.189   3.094  0.2273 -0.7524  1.9568
 8949TIP3    H248339   1.586   1.064   3.034 -0.4500  0.7600 -0.6278
 8950TIP3   OH248340   1.469   0.359  15.530  0.2943 -0.0511 -0.3489
 8950TIP3    H148341   1.404   0.299  15.494 -0.5594  1.4795 -1.4666
 8950TIP3    H248342   1.418   0.420  15.584  1.3891 -1.4814  2.5246
 8951TIP3   OH248343   3.341   3.868  15.106  0.2945 -0.3974 -0.7664
 8951TIP3    H148344   3.402   3.939  15.085  0.3516  0.3275  1.5673
 8951TIP3    H248345   3.355   3.803  15.037  1.9611  0.8061 -1.6353
 8952TIP3   OH248346   0.190   4.006   2.952 -0.2311  0.6174  0.0572
 8952TIP3    H148347   0.118   3.959   2.909  0.3278  0.8761 -1.2200
 8952TIP3    H248348   0.151   4.046   3.029 -1.3990  0.5302 -0.4772
 8953TIP3   OH248349   2.291   0.505  12.961  0.1303  0.3877  0.2715
 8953TIP3    H148350   2.281   0.507  12.866 -0.0585  0.3117  0.2903
 8953TIP3    H248351   2.227   0.569  12.993  0.2905  0.5153  0.3394
 8954TIP3   OH248352   6.150   6.272  15.784 -0.5606  0.0891 -0.6769
 8954TIP3    H148353   6.184   6.203  15.841 -0.2160  0.3374 -0.5809
 8954TIP3    H248354   6.225   6.299  15.731 -0.2373  1.5865  0.4818
 8955TIP3   OH248355   3.919   6.428   5.333 -0.4224 -0.3923  0.2635
 8955TIP3    H148356   4.008   6.422   5.298 -0.2334  1.7490  0.2094
 8955TIP3    H248357   3.929   6.425   5.428 -0.2312  0.2523  0.2683
 8956TIP3   OH248358   0.848   1.563   3.528 -0.3877 -0.5448  0.5751
 8956TIP3    H148359   0.777   1.572   3.592 -1.3934 -0.8019 -0.4638
 8956TIP3    H248360   0.803   1.549   3.445  0.8528  0.8504 -0.3801
 8957TIP3   OH248361   2.468   3.799   5.784  0.5433  0.1351 -0.4459
 8957TIP3    H148362   2.436   3.800   5.694  1.0707 -2.3848 -0.7410
 8957TIP3    H248363   2.395   3.765   5.835  0.7903 -0.0294 -0.1982
 8958TIP3   OH248364   4.887   0.934   5.282 -0.2511  0.0515 -0.3079
 8958TIP3    H148365   4.943   0.997   5.328  0.6367 -0.5043 -0.5923
 8958TIP3    H248366   4.798   0.956   5.309  0.2411 -0.3229  1.7769
 8959TIP3   OH248367   4.252   2.640   5.408  0.0744 -0.9417  0.1364
 8959TIP3    H148368   4.204   2.557   5.403  0.6489 -1.3378  1.0119
 8959TIP3    H248369   4.312   2.628   5.481 -1.8586  1.2818  2.2723
 8960TIP3   OH248370   4.061   1.736   1.305  0.2366  0.2939  0.4899
 8960TIP3    H148371   4.113   1.657   1.318  0.7361  0.2660 -1.3774
 8960TIP3    H248372   4.100   1.779   1.228 -0.9548  1.5659  0.5435
 8961TIP3   OH248373   1.863   0.809   5.350  0.2429  0.4747 -0.1633
 8961TIP3    H148374   1.810   0.731   5.368  0.9749  0.1363  0.6317
 8961TIP3    H248375   1.885   0.802   5.257  0.5682 -0.4554 -0.0282
 8962TIP3   OH248376   4.186   4.628   2.134 -0.1983 -0.2036 -0.0905
 8962TIP3    H148377   4.127   4.575   2.187  0.9522 -0.3270  1.1061
 8962TIP3    H248378   4.161   4.718   2.154  0.4239 -0.2428  0.9134
 8963TIP3   OH248379   5.420   0.270  11.491 -0.0627  0.2033 -0.4444
 8963TIP3    H148380   5.355   0.227  11.547 -0.7458  0.5208 -0.9744
 8963TIP3    H248381   5.384   0.357  11.476  1.1518  0.8657  0.3434
 8964TIP3   OH248382   4.009   3.570   3.959  0.2943  0.7866 -0.1529
 8964TIP3    H148383   3.994   3.593   3.867 -0.6977  0.8429  0.0090
 8964TIP3    H248384   4.065   3.640   3.992 -1.3320  2.1416 -0.1023
 8965TIP3   OH248385   3.496   0.845  11.941  0.0352  0.3826  0.0712
 8965TIP3    H148386   3.455   0.889  12.016  0.6517  1.5180 -0.2307
 8965TIP3    H248387   3.453   0.760  11.936  0.4330  0.0244  2.1122
 8966TIP3   OH248388   6.710   3.670   3.359 -0.0937 -0.0098 -0.4881
 8966TIP3    H148389   6.761   3.682   3.278  0.6629  1.1975  0.1412
 8966TIP3    H248390   6.774   3.681   3.429 -1.0064  0.3218  0.3035
 8967TIP3   OH248391   2.946   0.019   3.902  0.5475 -0.0646 -0.2433
 8967TIP3    H148392   2.961   0.079   3.828 -1.3646 -1.5856 -1.9945
 8967TIP3    H248393   2.895   0.070   3.964 -0.1583  0.4597 -1.2299
 8968TIP3   OH248394   4.938   4.985  11.154  0.3879 -0.0785  0.0341
 8968TIP3    H148395   4.932   4.908  11.097 -0.7200  1.7147 -2.4432
 8968TIP3    H248396   5.021   5.026  11.129  0.0861  0.5030 -0.0286
 8969TIP3   OH248397   3.938   2.232  11.499 -0.2537 -0.3719 -0.3879
 8969TIP3    H148398   3.845   2.248  11.512  0.0272  0.4745  0.7324
 8969TIP3    H248399   3.947   2.213  11.406 -1.4475  0.2316 -0.6348
 8970TIP3   OH248400   0.876   0.814   0.187  0.0836  0.0352 -0.1730
 8970TIP3    H148401   0.948   0.833   0.247  0.2849  0.8638 -0.6690
 8970TIP3    H248402   0.917   0.811   0.101 -0.4895  0.5895 -0.4700
 8971TIP3   OH248403   5.403   5.789   0.235 -0.0172 -0.1333 -0.0315
 8971TIP3    H148404   5.399   5.792   0.140 -0.1775  1.2093 -0.0139
 8971TIP3    H248405   5.472   5.851   0.258 -1.4141  1.2007  0.7641
 8972TIP3   OH248406   1.711   0.921  12.116 -0.3623  0.2106  0.6139
 8972TIP3    H148407   1.806   0.935  12.107 -0.6457  1.3164 -1.1667
 8972TIP3    H248408   1.684   0.981  12.185  0.0326  0.9109  0.1654
 8973TIP3   OH248409   2.375   1.788  13.047  0.3945 -0.2488  0.0357
 8973TIP3    H148410   2.442   1.804  13.114 -0.2629  0.3458  0.5662
 8973TIP3    H248411   2.322   1.717  13.082  0.8683 -0.8728 -0.4870
 8974TIP3   OH248412   4.736   0.956  13.970  0.4964 -0.3825  0.0898
 8974TIP3    H148413   4.718   0.999  13.886  0.8474 -0.0771  0.1702
 8974TIP3    H248414   4.706   0.866  13.957 -0.4388 -0.0760 -0.0135
 8975TIP3   OH248415   2.907   4.187  16.607  0.1855  0.3209  0.3941
 8975TIP3    H148416   2.818   4.221  16.620  0.0756 -0.4309  1.8491
 8975TIP3    H248417   2.941   4.175  16.695  1.9517  1.0757 -0.1403
 8976TIP3   OH248418   5.983   2.929  11.943 -0.6406 -1.0018  0.1823
 8976TIP3    H148419   5.926   2.879  11.885 -2.0434  0.7833 -0.0543
 8976TIP3    H248420   6.057   2.955  11.887 -1.5357 -0.0615 -0.5978
 8977TIP3   OH248421   0.315   5.902  14.573 -0.0349  0.0595 -0.5647
 8977TIP3    H148422   0.267   5.963  14.629  2.4847  0.6338  1.1263
 8977TIP3    H248423   0.264   5.821  14.577 -2.5752  1.4821 -1.5343
 8978TIP3   OH248424   4.499   5.829  12.901  0.7368 -0.0498  0.1972
 8978TIP3    H148425   4.463   5.902  12.949 -0.3877 -0.0181 -0.6441
 8978TIP3    H248426   4.471   5.751  12.949  0.8038  0.0227  0.3533
 8979TIP3   OH248427   2.223   1.050  16.986 -0.2954  0.2420 -0.1416
 8979TIP3    H148428   2.133   1.050  16.955 -0.8013 -0.2258  1.2524
 8979TIP3    H248429   2.222   1.108  17.062  0.6509  0.4664 -0.2840
 8980TIP3   OH248430   1.935   0.511  11.508  0.2545 -0.0586 -0.4411
 8980TIP3    H148431   2.019   0.536  11.547 -0.3959 -2.3079  2.8551
 8980TIP3    H248432   1.887   0.593  11.500  0.7973  0.7672  2.9870
 8981TIP3   OH248433   5.235   1.650   2.196 -0.2062 -0.0328  0.0450
 8981TIP3    H148434   5.281   1.680   2.274 -0.8738  0.7018  0.1623
 8981TIP3    H248435   5.149   1.622   2.227 -1.5246  2.8034 -0.7410
 8982TIP3   OH248436   2.579   0.720  11.487  0.0381  0.0052  0.1954
 8982TIP3    H148437   2.665   0.688  11.458  0.3427 -1.7213  2.6973
 8982TIP3    H248438   2.520   0.695  11.416  1.4762  0.8501 -1.3881
 8983TIP3   OH248439   5.450   2.682   2.807 -0.9287  0.4488  0.4162
 8983TIP3    H148440   5.534   2.724   2.825 -0.4844 -0.7108  1.1505
 8983TIP3    H248441   5.433   2.701   2.715  1.5847 -1.7282 -0.5988
 8984TIP3   OH248442   5.294   6.621   1.178  0.3973  0.2996  0.0911
 8984TIP3    H148443   5.251   6.656   1.256 -0.2454  0.5267 -0.3518
 8984TIP3    H248444   5.369   6.571   1.212 -0.5289 -0.5857  0.9355
 8985TIP3   OH248445   2.419   0.939  12.498 -0.2903 -0.3724  0.1525
 8985TIP3    H148446   2.455   1.022  12.465 -2.1421 -0.0029 -1.0382
 8985TIP3    H248447   2.461   0.929  12.584  2.8350 -0.1460 -1.1941
 8986TIP3   OH248448   6.698   1.252   6.749  0.2974 -0.0423  0.5437
 8986TIP3    H148449   6.646   1.328   6.724  0.1102 -0.4937 -0.4959
 8986TIP3    H248450   6.762   1.287   6.812 -0.1069  0.8702  0.4695
 8987TIP3   OH248451   6.173   2.242   6.633  0.0252 -0.1513  0.3579
 8987TIP3    H148452   6.081   2.220   6.650  0.4757 -1.7035  1.0415
 8987TIP3    H248453   6.187   2.217   6.542  0.5000 -2.9388  1.0847
 8988TIP3   OH248454   5.427   3.606  12.014 -0.3591  0.1233  0.4393
 8988TIP3    H148455   5.358   3.580  11.952 -0.7630  1.2760  0.3813
 8988TIP3    H248456   5.388   3.677  12.064  0.6970  0.6015  0.5996
 8989TIP3   OH248457   4.658   3.095  14.407  0.6505  0.7351  0.8815
 8989TIP3    H148458   4.713   3.085  14.485 -0.0633  1.3785  1.4888
 8989TIP3    H248459   4.714   3.069  14.335  1.2160 -0.2457  1.6406
 8990TIP3   OH248460   5.964   0.503  13.628  0.0682 -0.3216 -0.6049
 8990TIP3    H148461   5.918   0.445  13.567  2.0176 -2.8231  0.1117
 8990TIP3    H248462   6.013   0.562  13.571  1.3048 -2.1552 -1.5794
 8991TIP3   OH248463   2.167   6.769  15.683  0.3347 -0.0442  0.0238
 8991TIP3    H148464   2.071   6.774  15.684  0.3033 -0.4696  1.4030
 8991TIP3    H248465   2.196   6.860  15.679 -0.1495  0.1897  1.3210
 8992TIP3   OH248466   0.429   5.373  14.046 -0.1333  0.2998 -0.0890
 8992TIP3    H148467   0.446   5.334  13.960 -2.0562 -0.2679 -0.2447
 8992TIP3    H248468   0.375   5.450  14.027 -0.6242  0.1361  0.6048
 8993TIP3   OH248469   2.728   3.997   5.588  0.1670 -0.0258 -0.0401
 8993TIP3    H148470   2.702   3.987   5.679 -2.9246  0.1826 -0.7733
 8993TIP3    H248471   2.653   4.040   5.546  1.7257  0.4643 -2.5611
 8994TIP3   OH248472   6.810   0.782  16.877 -0.1677 -0.5608 -0.1743
 8994TIP3    H148473   6.849   0.806  16.793  0.6065  0.4262  0.4511
 8994TIP3    H248474   6.718   0.804  16.868  0.0961  0.4842 -0.4337
 8995TIP3   OH248475   1.142   1.240   4.379 -0.2917  0.3081 -0.3513
 8995TIP3    H148476   1.115   1.149   4.368 -1.1336  0.6392 -1.2321
 8995TIP3    H248477   1.176   1.245   4.468  0.0256 -0.9249 -0.3831
 8996TIP3   OH248478   4.277   2.797   3.578 -0.2573 -0.1287  0.1185
 8996TIP3    H148479   4.207   2.852   3.613  0.8016  0.9620  0.5904
 8996TIP3    H248480   4.233   2.736   3.520 -1.7523 -0.3158  1.4056
 8997TIP3   OH248481   4.915   4.624   3.004 -0.4676  0.1817 -0.2052
 8997TIP3    H148482   4.916   4.537   3.043 -0.4194 -0.2864 -1.2241
 8997TIP3    H248483   5.007   4.652   3.005 -0.3076 -0.2855 -0.9530
 8998TIP3   OH248484   2.593   6.731  11.492  0.0684 -0.1271 -0.4191
 8998TIP3    H148485   2.660   6.741  11.559 -0.0740  0.3937 -0.3527
 8998TIP3    H248486   2.578   6.636  11.488  0.2079 -0.1786  0.1535
 8999TIP3   OH248487   0.426   5.518   4.807  0.0418 -0.4817  0.1421
 8999TIP3    H148488   0.502   5.459   4.813  0.5460  0.0319 -1.0286
 8999TIP3    H248489   0.456   5.599   4.848  0.6947  0.2610 -1.7385
 9000TIP3   OH248490   1.214   5.675  12.708 -0.7432  0.0485 -0.3743
 9000TIP3    H148491   1.235   5.765  12.684 -0.5454  0.0925 -0.0427
 9000TIP3    H248492   1.119   5.675  12.723 -0.8162  0.0954 -0.8143
 9001TIP3   OH248493   1.365   2.622   5.167  0.4984  0.0933  0.3203
 9001TIP3    H148494   1.329   2.661   5.247  1.9095  0.3683  0.8380
 9001TIP3    H248495   1.367   2.694   5.104 -1.3056 -0.2852 -0.2572
 9002TIP3   OH248496   0.150   4.513   0.858 -0.3910 -0.0204 -0.1051
 9002TIP3    H148497   0.060   4.542   0.844 -0.7986 -1.8961 -1.8635
 9002TIP3    H248498   0.188   4.508   0.770  0.3799 -2.2605  0.2668
 9003TIP3   OH248499   5.124   4.112  15.191 -0.2194 -0.1452  0.3796
 9003TIP3    H148500   5.171   4.073  15.117  0.3014  2.2857 -0.6667
 9003TIP3    H248501   5.050   4.053  15.205  1.1227 -2.1205 -0.2942
 9004TIP3   OH248502   2.342   4.594  14.978 -0.0681 -0.1255 -0.2431
 9004TIP3    H148503   2.320   4.557  15.063 -0.8393 -0.3802 -0.5498
 9004TIP3    H248504   2.358   4.517  14.922  1.7844  0.0287 -0.0075
 9005TIP3   OH248505   1.228   5.333  14.300 -0.7527  0.0706  0.0038
 9005TIP3    H148506   1.237   5.428  14.309 -1.1036  0.1333 -0.2580
 9005TIP3    H248507   1.142   5.321  14.260 -0.1167 -0.2730 -1.3401
 9006TIP3   OH248508   2.964   6.651  16.475 -0.2989 -0.4498  0.4719
 9006TIP3    H148509   2.914   6.679  16.399  0.9596  0.3191 -0.0984
 9006TIP3    H248510   2.947   6.557  16.482 -1.1966 -0.3427 -0.1584
 9007TIP3   OH248511   0.093   6.551   3.002  0.1207  1.0220 -0.6618
 9007TIP3    H148512   0.177   6.540   2.957  0.6148 -0.3517  0.5314
 9007TIP3    H248513   0.117   6.565   3.094 -0.9474  1.2685 -0.4114
 9008TIP3   OH248514   3.035   6.215  10.841  0.0340 -0.8574  0.0106
 9008TIP3    H148515   2.951   6.245  10.805  0.4508 -0.5004 -0.6937
 9008TIP3    H248516   3.081   6.178  10.765  0.8705 -0.2476  0.2125
 9009TIP3   OH248517   2.832   6.316  15.172 -0.0528  0.8369  0.5995
 9009TIP3    H148518   2.825   6.296  15.079 -0.5392 -0.9358  0.9671
 9009TIP3    H248519   2.768   6.384  15.188 -1.4519 -0.2874 -0.0234
 9010TIP3   OH248520   1.185   2.339   3.683 -0.4860 -0.2392  0.6361
 9010TIP3    H148521   1.274   2.316   3.654 -1.8473 -4.0922 -1.2500
 9010TIP3    H248522   1.187   2.327   3.778  1.2485  0.9280  0.7865
 9011TIP3   OH248523   6.661   4.229   0.267  0.2370 -0.3123 -0.6408
 9011TIP3    H148524   6.668   4.321   0.291  0.8082 -0.7108  0.9010
 9011TIP3    H248525   6.580   4.199   0.310  1.3548 -1.0812  1.0657
 9012TIP3   OH248526   3.678   6.629  12.195 -0.0901 -0.1405  0.0556
 9012TIP3    H148527   3.604   6.676  12.154  1.0882  1.6495 -0.1213
 9012TIP3    H248528   3.730   6.598  12.121  0.7092  0.9142  0.1498
 9013TIP3   OH248529   0.706   0.142  10.841 -0.1210 -0.3758 -0.2634
 9013TIP3    H148530   0.649   0.065  10.848  0.6549 -0.9841 -0.5501
 9013TIP3    H248531   0.785   0.119  10.889 -0.2299  0.5895  0.4030
 9014TIP3   OH248532   4.824   4.271   5.222  0.7927 -0.2479 -0.0505
 9014TIP3    H148533   4.831   4.344   5.284  0.0676  0.4671 -0.8000
 9014TIP3    H248534   4.824   4.193   5.278  2.3365  0.2628  0.7225
 9015TIP3   OH248535   4.515   2.463  16.073  0.0517  1.0680  0.2146
 9015TIP3    H148536   4.540   2.394  16.135  1.5309  1.8382  0.5205
 9015TIP3    H248537   4.431   2.434  16.037  0.3543 -0.5909  0.7716
 9016TIP3   OH248538   2.358   1.800  11.828  0.0414 -0.1704  0.1773
 9016TIP3    H148539   2.372   1.892  11.804  0.1748 -0.3213 -0.3313
 9016TIP3    H248540   2.268   1.797  11.858 -0.2134 -0.0226 -0.5436
 9017TIP3   OH248541   5.899   1.307   4.124  0.3769  0.1934  0.0803
 9017TIP3    H148542   5.963   1.272   4.062  0.6828  0.4671  0.2416
 9017TIP3    H248543   5.952   1.346   4.194  0.0452  1.5229 -0.3893
 9018TIP3   OH248544   2.738   0.189  11.782  0.2797  0.4584 -0.2686
 9018TIP3    H148545   2.750   0.284  11.787 -0.3539  0.4899  1.4992
 9018TIP3    H248546   2.777   0.155  11.863 -0.2046 -0.6970 -0.4925
 9019TIP3   OH248547   0.870   1.395   4.661  0.2704  0.4071  0.2820
 9019TIP3    H148548   0.785   1.396   4.706  0.0528  0.8066 -0.1322
 9019TIP3    H248549   0.883   1.304   4.636 -0.1919  0.4015  0.0564
 9020TIP3   OH248550   0.589   2.645  15.586 -0.1589 -0.2003 -0.1700
 9020TIP3    H148551   0.548   2.564  15.557 -1.4762 -0.1222  1.3582
 9020TIP3    H248552   0.516   2.700  15.615  0.8534  0.8779  0.4018
 9021TIP3   OH248553   4.538   4.483   4.643 -0.0883  0.2106 -0.3077
 9021TIP3    H148554   4.448   4.458   4.622 -0.2844  0.5598  0.0851
 9021TIP3    H248555   4.542   4.577   4.622 -0.0107  0.3432  0.2860
 9022TIP3   OH248556   2.549   5.921  10.527  0.0612  0.0954  0.2067
 9022TIP3    H148557   2.466   5.936  10.483 -0.7166  0.5527  1.7359
 9022TIP3    H248558   2.531   5.939  10.620  1.6803 -0.5019  0.6867
 9023TIP3   OH248559   6.677   1.676   3.634 -0.3417 -0.3498 -0.2464
 9023TIP3    H148560   6.596   1.663   3.683 -0.6537 -1.9823 -1.1449
 9023TIP3    H248561   6.653   1.735   3.563 -0.2051  0.8961  0.6925
 9024TIP3   OH248562   4.576   4.552  15.721 -0.0150 -0.4953 -0.3749
 9024TIP3    H148563   4.500   4.494  15.720 -1.1372  0.9228 -1.4859
 9024TIP3    H248564   4.541   4.637  15.747  1.8245 -0.5115  2.7166
 9025TIP3   OH248565   2.962   2.052  14.422  0.7773  0.1355  0.0088
 9025TIP3    H148566   2.913   1.982  14.378 -0.5053  1.2462 -0.4204
 9025TIP3    H248567   2.896   2.120  14.437  1.3866  0.1998  2.8253
 9026TIP3   OH248568   2.044   1.547  14.884  0.1067 -0.0202 -0.5037
 9026TIP3    H148569   2.004   1.600  14.953 -1.1092  0.1523 -1.2973
 9026TIP3    H248570   2.012   1.458  14.901 -0.0634 -0.0050 -0.7303
 9027TIP3   OH248571   5.972   5.797  13.246 -0.1414  0.5437 -0.0031
 9027TIP3    H148572   6.020   5.873  13.214 -1.7645  1.4249 -0.4065
 9027TIP3    H248573   6.021   5.769  13.324  1.7680  0.5889 -1.1352
 9028TIP3   OH248574   3.605   3.793  15.719 -0.1185  0.3079  0.5761
 9028TIP3    H148575   3.640   3.855  15.783 -2.2261  0.9860  1.1554
 9028TIP3    H248576   3.607   3.839  15.636  0.8351  0.1359  0.4970
 9029TIP3   OH248577   4.170   5.318   4.609 -0.1205  0.2694  0.2055
 9029TIP3    H148578   4.152   5.405   4.646 -0.5779  0.2946 -0.0672
 9029TIP3    H248579   4.124   5.318   4.526 -0.9058 -0.5763  0.6277
 9030TIP3   OH248580   6.640   3.677  16.295 -0.0356 -0.4147 -0.0079
 9030TIP3    H148581   6.668   3.767  16.278  0.1458 -0.2644  1.0015
 9030TIP3    H248582   6.617   3.677  16.388 -0.6065 -1.2685 -0.1433
 9031TIP3   OH248583   0.689   5.449  16.696 -0.8749 -0.0842  0.4168
 9031TIP3    H148584   0.621   5.410  16.642 -0.3291 -1.6383  0.7967
 9031TIP3    H248585   0.760   5.469  16.635 -0.7458 -0.6771  0.3702
 9032TIP3   OH248586   2.007   1.593   4.964 -0.0148 -0.0704 -0.1086
 9032TIP3    H148587   2.039   1.561   5.049  0.1761  1.5121  0.4577
 9032TIP3    H248588   1.912   1.594   4.973  0.0298  0.8571  0.4095
 9033TIP3   OH248589   3.341   6.391   2.166 -0.1275  0.2409  0.1458
 9033TIP3    H148590   3.253   6.386   2.204  0.2574 -0.4304  0.9618
 9033TIP3    H248591   3.400   6.371   2.239  0.5892 -2.2285 -1.0168
 9034TIP3   OH248592   5.948   6.029  12.144  0.4971 -0.3102 -0.1070
 9034TIP3    H148593   5.923   6.047  12.234 -0.2947  1.1005 -0.5633
 9034TIP3    H248594   5.893   5.956  12.117 -3.0182  2.3363 -0.8905
 9035TIP3   OH248595   6.736   4.370  15.534 -0.2902  0.6217 -0.1215
 9035TIP3    H148596   6.760   4.437  15.597  0.7160 -0.1047  0.3029
 9035TIP3    H248597   6.700   4.299  15.587 -0.4290  0.4286 -0.4694
 9036TIP3   OH248598   3.202   2.007  14.288 -0.3378 -1.0064  0.2860
 9036TIP3    H148599   3.152   2.051  14.220  1.4950  1.2528  0.2730
 9036TIP3    H248600   3.151   2.018  14.368  0.1656  1.5606  0.3452
 9037TIP3   OH248601   1.160   0.625  12.927  0.5908 -0.2891 -0.2916
 9037TIP3    H148602   1.079   0.585  12.896  0.0553  0.5738 -0.0539
 9037TIP3    H248603   1.194   0.563  12.992 -0.9184  0.2263  1.0545
 9038TIP3   OH248604   5.040   3.755   1.681 -0.3731  0.4756 -0.0606
 9038TIP3    H148605   4.986   3.677   1.670  0.3911 -0.4082  1.9218
 9038TIP3    H248606   5.074   3.774   1.593  0.7647 -2.4409 -0.3627
 9039TIP3   OH248607   5.224   2.886  15.796  0.2458 -0.4567  0.1860
 9039TIP3    H148608   5.236   2.977  15.771 -0.6167 -0.4720 -0.3311
 9039TIP3    H248609   5.304   2.842  15.767  0.4068  0.0250 -0.1055
 9040TIP3   OH248610   5.667   1.611   2.954 -0.0932  0.2889 -0.1272
 9040TIP3    H148611   5.664   1.568   2.869 -0.1321 -0.4649  0.2503
 9040TIP3    H248612   5.661   1.705   2.934  0.7427  0.1697 -0.9992
 9041TIP3   OH248613   6.500   5.286   4.840 -0.0598 -0.4531 -0.2937
 9041TIP3    H148614   6.532   5.284   4.750  1.4282 -0.0473  0.1916
 9041TIP3    H248615   6.512   5.197   4.872 -0.1546 -0.4890 -0.3580
 9042TIP3   OH248616   6.281   5.904   5.074 -0.3721  0.0260  0.0668
 9042TIP3    H148617   6.268   5.827   5.018  0.3761 -1.0436  1.3026
 9042TIP3    H248618   6.339   5.961   5.023  0.0638 -0.7855 -0.3713
 9043TIP3   OH248619   3.650   0.038  14.307 -0.6822  0.2006  0.0029
 9043TIP3    H148620   3.600  -0.007  14.374 -1.8085  0.5688 -0.5653
 9043TIP3    H248621   3.584   0.077  14.249  0.2512  0.2684 -1.0629
 9044TIP3   OH248622   6.600   1.396  13.027 -0.0329  0.2040 -0.7079
 9044TIP3    H148623   6.541   1.449  12.972  1.0472  1.1155 -1.0233
 9044TIP3    H248624   6.578   1.305  13.005 -1.1994  0.5277 -0.9407
 9045TIP3   OH248625   6.096   3.558  11.372  0.3514 -0.3127 -0.9618
 9045TIP3    H148626   6.060   3.499  11.439  0.1972  0.4284 -0.3767
 9045TIP3    H248627   6.165   3.606  11.417  0.2941  0.1456 -1.3553
 9046TIP3   OH248628   0.306   3.289   1.769  0.3223 -1.0078 -0.2041
 9046TIP3    H148629   0.282   3.374   1.804 -0.5681 -1.8904  1.4730
 9046TIP3    H248630   0.226   3.256   1.728  0.8442 -0.7795 -1.4410
 9047TIP3   OH248631   3.477   4.948  15.326  0.5345 -0.1109  0.4494
 9047TIP3    H148632   3.408   4.911  15.271 -0.1940 -1.2914  2.0513
 9047TIP3    H248633   3.436   4.957  15.412  1.6015  1.7270  0.8282
 9048TIP3   OH248634   6.686   3.960   3.878  0.4078 -0.8495  0.1258
 9048TIP3    H148635   6.722   3.879   3.915 -1.0082 -0.8432  1.6426
 9048TIP3    H248636   6.606   3.932   3.833 -0.3177 -0.2723  1.0180
 9049TIP3   OH248637   2.692   2.214   4.890  0.0976 -0.7914  0.2818
 9049TIP3    H148638   2.662   2.176   4.807 -0.5945 -1.3603  0.7776
 9049TIP3    H248639   2.677   2.308   4.881 -1.0600 -0.9776  0.1950
 9050TIP3   OH248640   5.352   2.404   5.105 -0.2849 -0.0353  0.4267
 9050TIP3    H148641   5.333   2.497   5.109 -0.6216 -0.0087 -1.1318
 9050TIP3    H248642   5.419   2.396   5.037  0.1052 -0.8757  0.8917
 9051TIP3   OH248643   1.121   1.895  16.359 -0.4333 -0.2300 -0.0171
 9051TIP3    H148644   1.095   1.972  16.309 -0.3952  0.2438  0.6880
 9051TIP3    H248645   1.051   1.882  16.422  0.5406  0.4796  1.2570
 9052TIP3   OH248646   1.228   1.676   4.179  0.0515 -0.2011 -0.2964
 9052TIP3    H148647   1.171   1.753   4.183 -0.0932 -0.2654 -0.9644
 9052TIP3    H248648   1.316   1.710   4.191  0.1244  0.2635 -1.9682
 9053TIP3   OH248649   0.370   5.212   2.238 -0.7149 -0.4814  0.3871
 9053TIP3    H148650   0.426   5.176   2.169  0.6617 -0.0318  1.2316
 9053TIP3    H248651   0.370   5.307   2.221 -0.4342 -0.3762  0.9326
 9054TIP3   OH248652   3.675   4.952  12.843 -0.1345 -0.2014 -0.0198
 9054TIP3    H148653   3.754   5.001  12.820  0.5774 -0.8934  0.8585
 9054TIP3    H248654   3.603   5.005  12.810  0.5239  1.9955  1.8034
 9055TIP3   OH248655   5.624   2.756   0.710 -0.3663  0.3310 -0.3317
 9055TIP3    H148656   5.628   2.695   0.784 -0.5131  1.3177  0.5083
 9055TIP3    H248657   5.701   2.812   0.721 -0.8248  0.9931 -0.4880
 9056TIP3   OH248658   4.434   2.124   6.476 -0.1156  0.4004 -0.4195
 9056TIP3    H148659   4.517   2.171   6.483 -0.8846  1.5331  3.0358
 9056TIP3    H248660   4.445   2.049   6.535 -2.1842  1.7994  1.9189
 9057TIP3   OH248661   6.105   1.993   4.466 -0.1622  0.5170 -0.5228
 9057TIP3    H148662   6.161   1.936   4.414  0.5507  1.0548 -0.3434
 9057TIP3    H248663   6.163   2.059   4.503 -1.1024  1.9367 -1.4628
 9058TIP3   OH248664   5.397   0.857  13.114  0.5507  0.3640 -0.9863
 9058TIP3    H148665   5.419   0.787  13.053  0.3507 -0.1580 -0.4701
 9058TIP3    H248666   5.302   0.857  13.117  0.5638 -0.1885 -0.0416
 9059TIP3   OH248667   6.435   5.940  16.895 -0.0456 -0.2917  0.2043
 9059TIP3    H148668   6.391   5.938  16.981 -0.1241  1.6273  0.2586
 9059TIP3    H248669   6.527   5.950  16.917 -0.0041 -0.3950  0.0716
 9060TIP3   OH248670   6.132   5.207   2.186  0.6261  0.6155 -0.1601
 9060TIP3    H148671   6.077   5.160   2.123  2.3784 -2.6823  0.5224
 9060TIP3    H248672   6.082   5.206   2.267  0.1505  1.0267 -0.4415
 9061TIP3   OH248673   2.988   5.154  11.485 -0.6177  0.7899  0.2635
 9061TIP3    H148674   2.986   5.247  11.508 -0.1119  0.9531 -0.3051
 9061TIP3    H248675   2.931   5.112  11.549  1.1834  1.1251  2.2032
 9062TIP3   OH248676   6.276   0.109   4.783 -0.1801 -0.9633 -0.8112
 9062TIP3    H148677   6.331   0.188   4.787  1.9151 -2.2508 -2.1010
 9062TIP3    H248678   6.219   0.116   4.859  2.0868  0.2771  0.9233
 9063TIP3   OH248679   3.943   4.008  16.868 -0.4452 -0.3637  0.3629
 9063TIP3    H148680   3.949   4.017  16.963 -0.4463  2.3012  0.1768
 9063TIP3    H248681   4.024   4.047  16.835 -1.0596  0.0186 -0.7528
 9064TIP3   OH248682   6.241   6.823   6.498  0.6230 -0.6200  0.3955
 9064TIP3    H148683   6.303   6.775   6.552 -1.1429 -1.2842  1.9451
 9064TIP3    H248684   6.290   6.899   6.467  2.6030 -1.8500  0.3498
 9065TIP3   OH248685   4.827   0.301   0.416 -0.0485 -0.2918 -0.3026
 9065TIP3    H148686   4.874   0.324   0.336  0.8616  0.3528  0.3932
 9065TIP3    H248687   4.765   0.373   0.427  1.1153  0.6134  0.5565
 9066TIP3   OH248688   1.539   6.574   0.980 -0.1595  0.2760 -0.1873
 9066TIP3    H148689   1.501   6.497   1.024 -0.0724  0.6955  0.6483
 9066TIP3    H248690   1.512   6.648   1.034  0.1225  0.7943 -0.7442
 9067TIP3   OH248691   2.119   5.225  11.404  0.3954  0.4845 -0.0419
 9067TIP3    H148692   2.032   5.246  11.370  0.2124  1.1356  0.7864
 9067TIP3    H248693   2.146   5.305  11.449  1.5260  0.3680 -0.4898
 9068TIP3   OH248694   2.970   3.933   2.250  0.3821  0.0247 -0.0812
 9068TIP3    H148695   2.997   3.921   2.341 -0.1532 -0.8776 -0.0336
 9068TIP3    H248696   2.877   3.955   2.256  0.3703  0.0692 -0.4094
 9069TIP3   OH248697   2.018   3.743  14.313  0.2464 -0.4099  0.2643
 9069TIP3    H148698   2.048   3.745  14.404 -0.6192 -0.6706  0.5675
 9069TIP3    H248699   2.019   3.834  14.285  1.3742 -0.4140  0.2342
 9070TIP3   OH248700   3.005   5.972   3.459 -0.2331  0.5877  0.1340
 9070TIP3    H148701   3.035   5.962   3.550  0.7849 -0.9464 -0.3303
 9070TIP3    H248702   2.956   5.892   3.441  1.7344 -0.3451 -1.4264
 9071TIP3   OH248703   6.380   6.354  11.277  0.0236 -0.3588 -0.3952
 9071TIP3    H148704   6.290   6.327  11.260 -0.7448  1.7226  0.0439
 9071TIP3    H248705   6.398   6.421  11.211  1.0972 -0.4458 -0.2119
 9072TIP3   OH248706   2.522   5.785  12.405 -0.7169  0.0194  0.4861
 9072TIP3    H148707   2.484   5.826  12.483  0.1250 -1.3743  1.7030
 9072TIP3    H248708   2.575   5.853  12.365 -0.4857  0.5511  1.6439
 9073TIP3   OH248709   3.593   4.888  14.663 -0.2097  0.1736  0.3864
 9073TIP3    H148710   3.566   4.929  14.580  0.5353  2.2723  1.1133
 9073TIP3    H248711   3.562   4.798  14.656 -2.4313  0.9696 -1.1076
 9074TIP3   OH248712   6.586   3.451  13.412 -0.7000 -0.2548  0.5151
 9074TIP3    H148713   6.523   3.379  13.407  0.0568 -0.9740  1.0561
 9074TIP3    H248714   6.573   3.487  13.500 -1.0045  0.2057  0.2824
 9075TIP3   OH248715   0.519   3.935   0.842 -0.9135  0.5104  0.6350
 9075TIP3    H148716   0.468   3.860   0.872 -0.2997 -0.7782 -1.3497
 9075TIP3    H248717   0.608   3.900   0.832 -0.4827  1.6816  0.2936
 9076TIP3   OH248718   1.352   5.776   2.116  0.8256 -0.1407  0.0433
 9076TIP3    H148719   1.305   5.693   2.107  0.3174  0.2679 -1.3478
 9076TIP3    H248720   1.303   5.837   2.061  0.2075  1.5341  2.3354
 9077TIP3   OH248721   4.492   3.539   5.720 -0.3532 -0.1575 -0.1817
 9077TIP3    H148722   4.400   3.511   5.721 -0.8607  1.3827  1.1618
 9077TIP3    H248723   4.510   3.559   5.629 -2.0464  1.5698 -0.1936
 9078TIP3   OH248724   5.594   3.968  11.358  0.4149  0.1042 -0.2021
 9078TIP3    H148725   5.568   4.059  11.371  1.0164  0.2000  0.3643
 9078TIP3    H248726   5.596   3.957  11.263  1.6533  1.0852 -0.3198
 9079TIP3   OH248727   0.586   2.987  14.783 -0.6366 -0.0262 -0.3281
 9079TIP3    H148728   0.562   2.896  14.770 -2.6721  0.4040  0.1874
 9079TIP3    H248729   0.568   3.004  14.875  0.4581  0.7111 -0.2275
 9080TIP3   OH248730   2.647   0.635  10.508  0.3159  0.0465 -0.1184
 9080TIP3    H148731   2.607   0.691  10.442 -0.3965 -1.3755 -0.9284
 9080TIP3    H248732   2.675   0.696  10.577  1.6341  1.6705 -1.9482
 9081TIP3   OH248733   6.451   0.436  13.522 -0.0597  0.4042 -0.0977
 9081TIP3    H148734   6.473   0.455  13.613  1.9406  0.3408 -0.5184
 9081TIP3    H248735   6.464   0.342  13.513 -1.1340  0.2575 -0.2462
 9082TIP3   OH248736   1.565   4.037  12.442 -0.4036  0.0152  0.5488
 9082TIP3    H148737   1.543   4.111  12.499 -1.7593 -0.1246  0.2475
 9082TIP3    H248738   1.544   4.068  12.354  3.4044  0.8964 -0.2036
 9083TIP3   OH248739   5.433   6.466   5.271 -0.6192  0.2319 -0.1299
 9083TIP3    H148740   5.357   6.494   5.220 -0.8232  0.4998  0.3170
 9083TIP3    H248741   5.458   6.382   5.232 -1.3826 -0.0480 -0.0440
 9084TIP3   OH248742   5.940   4.271  11.732  0.4434 -0.1336 -0.1785
 9084TIP3    H148743   5.885   4.275  11.810  3.3449 -0.5474  2.0089
 9084TIP3    H248744   5.953   4.177  11.717  1.1311 -0.0269 -0.2474
 9085TIP3   OH248745   0.665   5.629   6.437  0.1699 -0.3042  0.0120
 9085TIP3    H148746   0.732   5.694   6.459  0.5999 -0.3195 -1.1673
 9085TIP3    H248747   0.708   5.571   6.373 -0.3288 -1.5247  0.7453
 9086TIP3   OH248748   6.244   2.039   3.983  0.1199 -0.4683 -0.6570
 9086TIP3    H148749   6.157   2.074   4.002  0.0864  0.8447 -2.7988
 9086TIP3    H248750   6.229   1.947   3.961 -0.6394 -0.4138 -0.3993
 9087TIP3   OH248751   1.961   5.482   0.470 -0.5938  0.1929 -0.4523
 9087TIP3    H148752   1.962   5.507   0.378 -1.9249  0.1791 -0.4816
 9087TIP3    H248753   1.980   5.564   0.517 -0.7592  0.3770 -0.7036
 9088TIP3   OH248754   1.275   0.955   2.689  0.0141  0.4968 -0.0319
 9088TIP3    H148755   1.307   0.865   2.685 -1.3045 -0.0907  1.4740
 9088TIP3    H248756   1.346   1.007   2.654  0.7348 -1.1403 -1.1431
 9089TIP3   OH248757   2.119   2.188   3.981 -0.4624 -0.2526 -0.1885
 9089TIP3    H148758   2.144   2.241   4.057 -0.1759 -0.2556 -0.2799
 9089TIP3    H248759   2.080   2.251   3.920 -0.6372 -0.2404 -0.0678
 9090TIP3   OH248760   4.508   4.132  16.872 -0.8149  0.2699  0.5865
 9090TIP3    H148761   4.449   4.208  16.870 -0.4774  0.5467 -2.0818
 9090TIP3    H248762   4.513   4.103  16.781  2.1106 -0.5880  0.9229
 9091TIP3   OH248763   2.752   3.662  11.094  0.0508 -0.0469  0.2971
 9091TIP3    H148764   2.708   3.578  11.089  0.0359  0.0222 -2.6700
 9091TIP3    H248765   2.844   3.640  11.110 -0.1608 -0.5148  0.9222
 9092TIP3   OH248766   2.229   3.489   5.671  0.0750 -0.2927 -0.4217
 9092TIP3    H148767   2.197   3.416   5.617  0.3181 -0.5057 -0.2811
 9092TIP3    H248768   2.235   3.453   5.759  0.4915 -0.1949 -0.4068
 9093TIP3   OH248769   1.167   0.182  11.729 -0.1088 -0.1368 -0.7276
 9093TIP3    H148770   1.171   0.095  11.690 -0.4789  0.4137 -2.0940
 9093TIP3    H248771   1.214   0.238  11.666 -0.9221  0.8311 -0.5073
 9094TIP3   OH248772   4.698   2.243  16.877 -0.2253  0.2884  0.1626
 9094TIP3    H148773   4.620   2.203  16.917 -0.9760  2.4403  1.0026
 9094TIP3    H248774   4.691   2.336  16.899  1.4819  0.8973 -1.5917
 9095TIP3   OH248775   0.782   5.398  12.542 -0.2218  0.4533  0.3474
 9095TIP3    H148776   0.874   5.415  12.559 -0.1439  0.8393 -0.4291
 9095TIP3    H248777   0.736   5.471  12.583  0.0291  1.9420 -1.8570
 9096TIP3   OH248778   6.621   6.505  11.155  0.1911  0.1347 -0.5731
 9096TIP3    H148779   6.666   6.423  11.134 -2.0501 -1.7131  1.2916
 9096TIP3    H248780   6.626   6.556  11.074  2.2088 -1.5512 -1.6119
 9097TIP3   OH248781   0.222   2.363   1.548  0.4254 -0.1915  0.1340
 9097TIP3    H148782   0.167   2.442   1.546  0.9502  0.2040  0.7838
 9097TIP3    H248783   0.293   2.382   1.486  0.4919 -0.1915  0.2093
 9098TIP3   OH248784   2.836   6.095   2.953  0.4360 -0.1976 -0.3894
 9098TIP3    H148785   2.889   6.025   2.990  0.1307 -0.1290  0.1947
 9098TIP3    H248786   2.823   6.157   3.025  1.4141  0.8985 -1.1233
 9099TIP3   OH248787   1.952   2.417   0.749 -0.0319 -0.2590  0.2163
 9099TIP3    H148788   1.917   2.330   0.772  0.6398 -0.3475  0.9289
 9099TIP3    H248789   2.023   2.399   0.688 -1.0318 -0.0910 -1.0378
 9100TIP3   OH248790   0.127   1.696  11.420  0.1231 -0.7136  0.1122
 9100TIP3    H148791   0.085   1.709  11.505  1.1075 -3.4989  1.1536
 9100TIP3    H248792   0.208   1.748  11.425  0.3885 -1.1889  1.0863
 9101TIP3   OH248793   5.913   2.888   2.667  0.0259 -0.2033 -0.3967
 9101TIP3    H148794   5.913   2.982   2.685 -1.8938  0.0659 -1.6008
 9101TIP3    H248795   5.979   2.878   2.598  0.4209  0.2111 -0.0906
 9102TIP3   OH248796   2.928   5.421  14.954  0.4582 -0.8650 -0.3597
 9102TIP3    H148797   2.973   5.496  14.915 -1.0311 -0.4159 -1.3123
 9102TIP3    H248798   2.854   5.459  15.002 -1.1025 -1.7256 -1.9422
 9103TIP3   OH248799   1.392   5.701   1.099 -0.2048  0.3094 -0.1865
 9103TIP3    H148800   1.448   5.741   1.033 -0.6323  0.0887 -0.6908
 9103TIP3    H248801   1.399   5.607   1.083 -0.7604  0.2846 -0.2879
 9104TIP3   OH248802   5.070   3.044   0.407 -0.2448  0.1469 -0.3493
 9104TIP3    H148803   5.145   2.986   0.419 -1.0299 -0.9912 -0.7915
 9104TIP3    H248804   5.055   3.083   0.493 -0.9277 -1.8406  0.4943
 9105TIP3   OH248805   3.467   1.074   5.340 -0.4485  0.0562 -0.2257
 9105TIP3    H148806   3.391   1.060   5.397  0.1441  0.8789  0.8123
 9105TIP3    H248807   3.432   1.067   5.251 -1.6962  0.1829  0.2264
 9106TIP3   OH248808   3.543   5.151  15.152 -0.5427 -0.1841  0.1494
 9106TIP3    H148809   3.511   5.083  15.211 -0.8198 -1.5852 -1.5471
 9106TIP3    H248810   3.589   5.104  15.083  1.2124  1.4999  0.0740
 9107TIP3   OH248811   0.728   5.801   3.381  0.5749  0.2508 -0.3390
 9107TIP3    H148812   0.800   5.826   3.440 -0.1492  1.1461  0.2025
 9107TIP3    H248813   0.693   5.885   3.350  1.4510 -0.1995 -2.7251
 9108TIP3   OH248814   4.594   2.877   4.404 -0.2655  0.1152  0.1686
 9108TIP3    H148815   4.557   2.848   4.320  0.1916 -0.5168  0.1838
 9108TIP3    H248816   4.600   2.972   4.395 -1.0886  0.1499 -0.1622
 9109TIP3   OH248817   2.547   5.867   4.754  0.0403 -0.2335  0.0762
 9109TIP3    H148818   2.583   5.784   4.721  0.8679  0.9935 -2.3223
 9109TIP3    H248819   2.617   5.931   4.740 -1.5619  1.4130 -0.7456
 9110TIP3   OH248820   6.274   1.574   0.051  0.5049  0.3882  0.3647
 9110TIP3    H148821   6.346   1.520   0.018  1.2425  1.0230  0.8743
 9110TIP3    H248822   6.225   1.516   0.109 -0.2545 -0.4609 -1.0807
 9111TIP3   OH248823   0.662   5.259   0.874 -0.1604  0.0564 -0.0433
 9111TIP3    H148824   0.740   5.227   0.921  0.5799 -0.3230 -1.4723
 9111TIP3    H248825   0.599   5.187   0.881  0.6222 -0.7833 -1.1742
 9112TIP3   OH248826   5.425   0.871  12.154  0.3307 -0.4635 -0.6478
 9112TIP3    H148827   5.463   0.827  12.230 -0.0859  2.1988  1.2543
 9112TIP3    H248828   5.495   0.928  12.122  0.2479 -0.9941 -1.8036
 9113TIP3   OH248829   6.441   4.968   0.445  0.3195  0.7691  0.4628
 9113TIP3    H148830   6.514   4.990   0.502  1.9343 -2.4119 -0.1070
 9113TIP3    H248831   6.392   4.902   0.493 -0.3296  0.5997 -0.4028
 9114TIP3   OH248832   6.736   2.970   0.267 -0.6999  0.0713  0.1334
 9114TIP3    H148833   6.645   2.948   0.247  0.0729 -2.1041 -1.4031
 9114TIP3    H248834   6.750   2.940   0.356 -1.8872  2.0196  1.0539
 9115TIP3   OH248835   1.828   1.741  15.811 -0.1884  0.1738 -0.4829
 9115TIP3    H148836   1.910   1.716  15.768 -0.8594 -1.0428 -1.0962
 9115TIP3    H248837   1.832   1.700  15.897 -0.0459  0.3395 -0.4092
 9116TIP3   OH248838   5.657   3.491  12.086  0.0374 -0.3226  0.0731
 9116TIP3    H148839   5.566   3.519  12.075  0.7829  1.8550 -1.1524
 9116TIP3    H248840   5.665   3.415  12.027 -0.9345 -0.4556  0.0886
 9117TIP3   OH248841   2.887   2.233   0.656  0.0619 -0.4074  0.2828
 9117TIP3    H148842   2.872   2.306   0.716  2.4337  0.3927 -0.0084
 9117TIP3    H248843   2.905   2.158   0.713  0.1037 -0.1823  0.5684
 9118TIP3   OH248844   1.509   1.386   4.646 -0.7834 -0.6957  0.7020
 9118TIP3    H148845   1.520   1.467   4.597  0.6861 -1.0319  0.4308
 9118TIP3    H248846   1.541   1.317   4.588  0.3439 -1.1811  1.8341
 9119TIP3   OH248847   2.275   6.171   1.762  0.3689  0.1382  0.4129
 9119TIP3    H148848   2.248   6.247   1.814  1.6974  0.8103  0.1567
 9119TIP3    H248849   2.251   6.195   1.672  0.2447 -0.0043  0.4082
 9120TIP3   OH248850   0.312   2.748   4.400 -0.3850 -0.0842  0.0390
 9120TIP3    H148851   0.277   2.662   4.378  0.3164 -0.8064  1.5987
 9120TIP3    H248852   0.242   2.809   4.375 -1.3246 -1.1905 -0.1253
 9121TIP3   OH248853   4.831   0.275   1.265  0.3945 -0.1785 -0.1728
 9121TIP3    H148854   4.873   0.300   1.347 -1.2540 -0.0945  0.6949
 9121TIP3    H248855   4.762   0.214   1.291  0.9071 -1.4946 -1.6952
 9122TIP3   OH248856   2.910   1.482  12.919 -0.0295 -0.1028  0.0948
 9122TIP3    H148857   2.909   1.531  12.836 -1.7156 -2.5122 -1.4325
 9122TIP3    H248858   2.857   1.535  12.978  0.1569  1.0609 -0.7297
 9123TIP3   OH248859   0.977   4.333   1.836  0.3862 -0.0053 -0.6493
 9123TIP3    H148860   0.952   4.244   1.858 -0.4436  0.5552  0.8219
 9123TIP3    H248861   0.898   4.372   1.799  0.0651  0.7090  0.6927
 9124TIP3   OH248862   2.551   4.316   3.754 -0.0043 -0.1819  0.0972
 9124TIP3    H148863   2.623   4.353   3.805  1.6609 -1.5122 -1.1552
 9124TIP3    H248864   2.522   4.241   3.805  1.2696 -1.1661 -0.5691
 9125TIP3   OH248865   4.087   2.614   5.029  0.5682  0.1962  0.0890
 9125TIP3    H148866   4.164   2.653   4.989 -0.4741  0.5407 -1.6927
 9125TIP3    H248867   4.037   2.578   4.956 -0.3526 -1.1687  1.3212
 9126TIP3   OH248868   1.023   5.213   3.651  0.1314  0.7489  0.4959
 9126TIP3    H148869   1.019   5.232   3.557  1.7452  1.0416  0.4558
 9126TIP3    H248870   1.073   5.131   3.657 -0.2984  0.5183  1.0958
 9127TIP3   OH248871   0.468   5.102  13.482 -0.1514  0.5444  0.1044
 9127TIP3    H148872   0.440   5.173  13.424  0.1309  1.0152  0.5381
 9127TIP3    H248873   0.549   5.070  13.443 -0.8868 -0.3488 -0.7584
 9128TIP3   OH248874   0.830   3.962   0.269  0.1453 -0.1871 -0.0935
 9128TIP3    H148875   0.829   3.880   0.319  0.4902 -1.3263 -1.8659
 9128TIP3    H248876   0.923   3.981   0.257  0.0691 -0.0615 -0.4903
 9129TIP3   OH248877   5.271   2.104  16.606  0.1965 -0.5479  1.0791
 9129TIP3    H148878   5.333   2.073  16.540 -0.0688  0.4784  0.3272
 9129TIP3    H248879   5.291   2.198  16.615 -1.2573 -0.1940  0.8023
 9130TIP3   OH248880   5.877   1.699   2.285 -0.3183 -0.3001 -0.1329
 9130TIP3    H148881   5.926   1.762   2.232 -0.1232  0.8424  1.3162
 9130TIP3    H248882   5.787   1.733   2.285 -0.2449 -0.0831  0.5180
 9131TIP3   OH248883   4.953   1.392   5.565 -0.2793  0.0869  0.0797
 9131TIP3    H148884   5.009   1.450   5.616 -0.5838 -0.0352  0.5659
 9131TIP3    H248885   4.879   1.447   5.538 -0.4273  0.0029  0.3036
 9132TIP3   OH248886   6.509   1.915   3.672  0.0808 -0.7632 -0.0953
 9132TIP3    H148887   6.591   1.954   3.701  0.1802 -1.5453  0.7334
 9132TIP3    H248888   6.527   1.885   3.583  0.5298 -0.4818 -0.1060
 9133TIP3   OH248889   4.388   3.778   5.547 -0.5457 -0.5210  0.1914
 9133TIP3    H148890   4.374   3.825   5.465 -0.7709 -0.2284  0.3934
 9133TIP3    H248891   4.306   3.730   5.561 -1.3391  1.0657  1.2924
 9134TIP3   OH248892   0.348   0.272  14.086 -0.4107  0.0375  0.1386
 9134TIP3    H148893   0.276   0.321  14.046  0.7702  1.2587 -0.5529
 9134TIP3    H248894   0.373   0.208  14.019 -1.5174 -1.1495  0.7942
 9135TIP3   OH248895   5.966   4.194  14.891 -0.0857  0.2415  0.4064
 9135TIP3    H148896   6.020   4.254  14.839  1.7053 -1.1874  0.5131
 9135TIP3    H248897   5.991   4.212  14.981  1.6491 -1.6349  0.3713
 9136TIP3   OH248898   4.575   6.541   0.319  0.0092  0.4372 -0.0779
 9136TIP3    H148899   4.569   6.498   0.404  0.0034  0.4902 -0.0519
 9136TIP3    H248900   4.524   6.621   0.329 -0.8186 -0.0287 -0.4178
 9137TIP3   OH248901   2.444   5.840  16.879  0.2339  0.2571  0.3568
 9137TIP3    H148902   2.452   5.903  16.951 -1.1735  0.0212  0.7472
 9137TIP3    H248903   2.373   5.781  16.906  1.9002 -1.9069  0.2889
 9138TIP3   OH248904   1.534   5.254   2.347 -0.0588  0.0020  0.2433
 9138TIP3    H148905   1.580   5.180   2.307  2.0496 -0.3363  2.9737
 9138TIP3    H248906   1.513   5.224   2.435 -1.3856  1.8513  0.6083
 9139TIP3   OH248907   3.784   5.264   4.389  0.9419 -0.0507  0.1809
 9139TIP3    H148908   3.762   5.181   4.432 -0.0148  0.2987  0.3773
 9139TIP3    H248909   3.790   5.241   4.296  1.7604 -0.5490  0.3411
 9140TIP3   OH248910   0.250   0.047   5.063 -0.5049  0.6812 -0.0006
 9140TIP3    H148911   0.171   0.026   5.014 -2.0165  1.9338  1.7496
 9140TIP3    H248912   0.254   0.142   5.064  0.7840  0.6516  0.3630
 9141TIP3   OH248913   2.662   0.993   3.658  0.0350  0.6097 -0.6585
 9141TIP3    H148914   2.625   0.920   3.707 -0.7638  0.6083 -1.2295
 9141TIP3    H248915   2.608   0.998   3.578  0.6792  1.2200 -1.0710
 9142TIP3   OH248916   0.062   1.255   4.101  0.1000 -0.1729 -0.0295
 9142TIP3    H148917  -0.017   1.290   4.060  0.5116 -0.2582 -0.9203
 9142TIP3    H248918   0.085   1.179   4.048  0.8382 -0.0890  0.1561
 9143TIP3   OH248919   3.121   4.525   2.280 -0.1692 -0.1313 -0.3154
 9143TIP3    H148920   3.139   4.489   2.367 -0.8690  0.3661  0.0563
 9143TIP3    H248921   3.201   4.512   2.231  0.3503 -0.1369  0.5112
 9144TIP3   OH248922   2.333   2.019  12.130  0.3046  0.0176 -0.1155
 9144TIP3    H148923   2.363   2.029  12.039 -2.1123 -0.3175 -1.0060
 9144TIP3    H248924   2.373   2.092  12.177  1.5033  0.2661 -1.4608
 9145TIP3   OH248925   5.679   6.492  14.473  0.1157 -0.3085  0.3193
 9145TIP3    H148926   5.617   6.537  14.531 -1.2833  0.1267 -1.4105
 9145TIP3    H248927   5.681   6.547  14.394 -0.5080 -2.4705 -1.2927
 9146TIP3   OH248928   6.319   4.782   4.286  0.0197 -0.1593 -0.8503
 9146TIP3    H148929   6.267   4.767   4.366 -0.1361  2.2652 -0.4337
 9146TIP3    H248930   6.408   4.759   4.311 -0.0530  0.4225 -0.0069
 9147TIP3   OH248931   5.135   3.009  13.524  0.4315 -0.0051  0.0240
 9147TIP3    H148932   5.077   2.934  13.512  1.6836 -1.0385  0.1879
 9147TIP3    H248933   5.076   3.084  13.527 -1.0985 -1.1619  2.1640
 9148TIP3   OH248934   5.811   0.413  15.196 -0.3973 -0.0952  0.4071
 9148TIP3    H148935   5.719   0.397  15.178 -0.4241  1.1526 -0.7257
 9148TIP3    H248936   5.848   0.439  15.111  1.1122 -1.0653  0.7350
 9149TIP3   OH248937   2.737   6.592  12.686 -0.3849 -0.2494 -0.2314
 9149TIP3    H148938   2.816   6.545  12.714 -1.1396 -1.7198 -0.4516
 9149TIP3    H248939   2.702   6.630  12.767  0.5103  0.3546 -0.1236
 9150TIP3   OH248940   3.876   0.092  12.137  0.2108 -0.3881 -0.7519
 9150TIP3    H148941   3.812   0.162  12.144  0.3074 -0.3198 -0.5608
 9150TIP3    H248942   3.825   0.011  12.147  0.2920 -0.3104  0.3912
 9151TIP3   OH248943   3.884   6.633  13.656 -0.6110  0.1909  0.2919
 9151TIP3    H148944   3.942   6.627  13.579  0.0919  0.3350  0.8029
 9151TIP3    H248945   3.877   6.726  13.674 -0.1624  0.1224  0.8519
 9152TIP3   OH248946   0.073   5.889  12.080  0.2118 -0.1853  0.0564
 9152TIP3    H148947   0.091   5.930  11.996  1.7517  0.0483  0.4525
 9152TIP3    H248948  -0.022   5.891  12.089 -0.0782 -1.2670 -2.1660
 9153TIP3   OH248949   1.286   1.007   4.936  0.0482  0.2695  0.5274
 9153TIP3    H148950   1.207   1.035   4.984  0.4313  1.5675  0.4349
 9153TIP3    H248951   1.334   0.953   4.999 -0.3759  0.3958  0.9685
 9154TIP3   OH248952   5.502   4.573   6.216  0.2324 -0.5262  0.1487
 9154TIP3    H148953   5.593   4.551   6.237  0.7333  1.4796  0.2900
 9154TIP3    H248954   5.479   4.642   6.279 -1.6203 -1.4387  0.5355
 9155TIP3   OH248955   6.172   0.730  16.578  0.5935  0.3061  0.6585
 9155TIP3    H148956   6.125   0.700  16.500  2.5545 -0.1591 -0.4093
 9155TIP3    H248957   6.131   0.814  16.600 -1.0501 -0.3152  0.1228
 9156TIP3   OH248958   2.046   5.279  13.686  0.2446  0.0692 -0.1824
 9156TIP3    H148959   2.117   5.290  13.622  1.1983  0.3497  0.9071
 9156TIP3    H248960   2.018   5.369  13.706  0.6304  0.0232  0.5516
 9157TIP3   OH248961   2.295   4.172   5.395  0.1726  0.1539 -0.3033
 9157TIP3    H148962   2.334   4.210   5.316 -2.0343  0.3130 -1.3975
 9157TIP3    H248963   2.251   4.093   5.363  0.1633 -0.3800  0.9898
 9158TIP3   OH248964   1.083   0.273  12.839 -0.5510 -0.1670 -0.2066
 9158TIP3    H148965   1.088   0.275  12.934 -1.9676  0.3276 -0.1170
 9158TIP3    H248966   0.989   0.282  12.820 -0.2545  0.0847 -1.6457
 9159TIP3   OH248967   6.620   0.532  12.834  0.0445  0.2196 -0.2577
 9159TIP3    H148968   6.561   0.589  12.883 -0.5107 -0.0703 -0.5728
 9159TIP3    H248969   6.649   0.467  12.898 -2.0737 -1.2327 -0.6634
 9160TIP3   OH248970   6.692   4.947   3.255 -0.6323 -0.2415  0.3354
 9160TIP3    H148971   6.662   4.916   3.340 -0.3929  0.9618  0.8890
 9160TIP3    H248972   6.769   5.001   3.275  0.5319 -1.3808 -0.8239
 9161TIP3   OH248973   2.483   5.918   1.676 -0.0525  0.4082  0.0473
 9161TIP3    H148974   2.417   5.858   1.640  0.6719 -0.2739 -0.1758
 9161TIP3    H248975   2.499   5.884   1.764  1.4104 -0.6389 -0.5795
 9162TIP3   OH248976   1.810   4.406   6.582  1.0217 -1.4850  0.0829
 9162TIP3    H148977   1.838   4.351   6.655  0.6190  1.0588  2.3343
 9162TIP3    H248978   1.837   4.495   6.607 -3.1217  0.2355 -0.6196
 9163TIP3   OH248979   0.138   4.585  15.425  0.0081 -0.3753  0.1849
 9163TIP3    H148980   0.136   4.512  15.363  0.2639  0.5914 -0.9973
 9163TIP3    H248981   0.074   4.562  15.493 -0.1750 -1.5134 -0.3634
 9164TIP3   OH248982   3.368   5.701   3.656  0.1663  0.5874 -0.0629
 9164TIP3    H148983   3.338   5.755   3.583 -0.7761  0.3076  0.0967
 9164TIP3    H248984   3.436   5.645   3.618 -0.0156  0.7403 -0.6251
 9165TIP3   OH248985   3.898   0.898  14.052 -0.3144  0.2657  0.5793
 9165TIP3    H148986   3.847   0.978  14.036  0.1670  0.4426 -0.1503
 9165TIP3    H248987   3.842   0.827  14.020  0.3520  0.5594 -1.3959
 9166TIP3   OH248988   5.202   4.172   1.775  0.0513  0.0843 -0.0794
 9166TIP3    H148989   5.266   4.223   1.825  0.5968  1.4073 -1.9825
 9166TIP3    H248990   5.163   4.236   1.715 -1.5801 -1.1299 -0.3808
 9167TIP3   OH248991   4.421   5.540  12.494 -0.1070  0.3541 -0.2546
 9167TIP3    H148992   4.410   5.621  12.543  0.9834  1.2334 -1.4004
 9167TIP3    H248993   4.334   5.499  12.495 -0.3757  0.8990  1.3768
 9168TIP3   OH248994   3.372   0.773  15.317 -0.2274 -0.1418  0.1897
 9168TIP3    H148995   3.432   0.767  15.391 -0.3787  2.8364  0.6572
 9168TIP3    H248996   3.425   0.813  15.247 -0.9866  0.1386 -0.2325
 9169TIP3   OH248997   0.523   4.525   1.897  0.0427  0.0820  0.1440
 9169TIP3    H148998   0.517   4.503   1.804  1.0463  1.5143 -0.2827
 9169TIP3    H248999   0.559   4.446   1.937  0.5974 -0.1861 -0.8507
 9170TIP3   OH249000   0.943   3.114   1.891  0.4224  0.4196  0.1361
 9170TIP3    H149001   0.966   3.049   1.957 -0.3093 -0.3435 -0.3432
 9170TIP3    H249002   0.876   3.168   1.932  0.9783  0.8350  0.5089
 9171TIP3   OH249003   4.579   1.037   4.460 -0.3285 -0.1403  0.3047
 9171TIP3    H149004   4.648   1.023   4.525 -1.4423 -0.1657  1.5231
 9171TIP3    H249005   4.526   1.108   4.497 -0.9394 -0.0986 -0.6280
 9172TIP3   OH249006   4.534   3.417   2.087  0.2318 -0.7281 -0.1012
 9172TIP3    H149007   4.536   3.440   2.180 -1.3924  1.6470 -0.5583
 9172TIP3    H249008   4.441   3.415   2.065  0.5770 -1.4644 -1.6593
 9173TIP3   OH249009   1.941   0.616   1.867  0.4990 -0.3412 -0.3757
 9173TIP3    H149010   1.851   0.617   1.899  0.4514 -0.3892 -0.5051
 9173TIP3    H249011   1.956   0.704   1.834  0.8613 -0.0176  0.6284
 9174TIP3   OH249012   0.178   6.109  13.503 -0.5819  0.3006 -0.0187
 9174TIP3    H149013   0.224   6.116  13.419 -1.2552  1.3778 -0.3055
 9174TIP3    H249014   0.099   6.059  13.484 -0.5088  0.1469  0.0747
 9175TIP3   OH249015   0.726   6.231   0.049  0.6796  0.4919  0.3498
 9175TIP3    H149016   0.769   6.186   0.122 -0.5796  1.1271  1.5357
 9175TIP3    H249017   0.779   6.210  -0.027  2.0473 -0.1935  1.4509
 9176TIP3   OH249018   1.996   1.443   2.628  0.0315 -0.1369  0.1660
 9176TIP3    H149019   1.975   1.477   2.714 -1.3679  0.0420 -0.2201
 9176TIP3    H249020   1.943   1.363   2.620  0.4930 -0.4002 -0.3489
 9177TIP3   OH249021   2.966   3.779   4.996  0.5536 -0.4563  0.2709
 9177TIP3    H149022   3.013   3.862   4.991 -0.1987  0.0772  1.4719
 9177TIP3    H249023   2.979   3.749   5.086 -4.6050  1.7875  2.1784
 9178TIP3   OH249024   1.261   1.839  17.076  0.3397  0.0410 -0.0545
 9178TIP3    H149025   1.264   1.933  17.097 -0.0181  0.1071 -0.2978
 9178TIP3    H249026   1.174   1.825  17.040  0.6086 -0.2588 -0.6040
 9179TIP3   OH249027   2.220   0.041   5.721  0.1368  0.9970 -0.3071
 9179TIP3    H149028   2.243   0.011   5.809 -1.3866  0.1522 -0.1662
 9179TIP3    H249029   2.139   0.091   5.733 -0.2173  0.6685 -1.2572
 9180TIP3   OH249030   0.429   5.199  14.885 -0.2811  0.0786 -0.2310
 9180TIP3    H149031   0.446   5.161  14.971 -1.0874 -0.4119 -0.2743
 9180TIP3    H249032   0.360   5.264  14.901  2.3968  3.0717  0.1962
 9181TIP3   OH249033   0.670   1.796   2.065 -0.3596 -0.2594 -0.0718
 9181TIP3    H149034   0.611   1.756   2.129  0.7155  0.2435  1.2976
 9181TIP3    H249035   0.618   1.803   1.985 -1.8585 -0.6308  0.8284
 9182TIP3   OH249036   4.462   5.765   2.534 -0.6086  0.0254  0.5959
 9182TIP3    H149037   4.519   5.790   2.460  0.0184  1.8444  1.6194
 9182TIP3    H249038   4.522   5.731   2.600 -1.1786 -1.6526  0.2947
 9183TIP3   OH249039   2.551   2.395  12.977  0.5844 -0.0665 -0.2036
 9183TIP3    H149040   2.545   2.301  12.994  2.0733 -0.0568  0.5024
 9183TIP3    H249041   2.465   2.429  13.001 -0.0993 -1.2808 -0.8147
 9184TIP3   OH249042   3.802   3.431   2.285 -0.0011 -0.2283 -0.9574
 9184TIP3    H149043   3.789   3.515   2.328  0.9563 -0.9461  0.8473
 9184TIP3    H249044   3.733   3.427   2.219  0.7656  2.5536 -2.0762
 9185TIP3   OH249045   1.878   0.143  14.423  0.4732  0.0918  0.1011
 9185TIP3    H149046   1.831   0.118  14.503 -1.2194 -4.8461 -2.0767
 9185TIP3    H249047   1.811   0.174  14.364  0.9363 -0.6971 -0.8708
 9186TIP3   OH249048   1.963   2.614   0.942  0.0814  0.0143 -0.5219
 9186TIP3    H149049   1.960   2.576   0.855  0.6084  2.2938 -1.6228
 9186TIP3    H249050   2.056   2.625   0.961 -0.0259  2.1186 -0.9619
 9187TIP3   OH249051   4.436   2.627   5.631 -0.6885 -0.0572  0.1787
 9187TIP3    H149052   4.484   2.548   5.658  0.1160  1.2619  2.9128
 9187TIP3    H249053   4.370   2.638   5.699 -1.3075  1.2004 -0.6114
 9188TIP3   OH249054   3.241   5.085   4.656  0.2973 -0.7092 -0.6776
 9188TIP3    H149055   3.309   5.065   4.720  1.9675 -1.8769 -2.6868
 9188TIP3    H249056   3.261   5.028   4.582 -1.7304  0.3548 -2.1296
 9189TIP3   OH249057   4.019   3.999  11.164  0.6711  0.3201  0.5653
 9189TIP3    H149058   4.023   4.062  11.092  2.2153 -0.2330  0.1325
 9189TIP3    H249059   3.928   3.972  11.167  0.4925  0.6688 -0.9094
 9190TIP3   OH249060   5.862   3.277  11.537 -0.2152  0.2602  0.6428
 9190TIP3    H149061   5.908   3.225  11.472  1.6979  1.1250  1.2220
 9190TIP3    H249062   5.902   3.252  11.621  0.8109  2.6122  0.9406
 9191TIP3   OH249063   0.282   1.938   3.300 -0.6878 -0.2855  0.6784
 9191TIP3    H149064   0.315   1.872   3.239  1.2122  0.8234  0.4524
 9191TIP3    H249065   0.331   1.924   3.381  1.7757  2.4264 -0.1705
 9192TIP3   OH249066   6.038   4.642   6.537 -0.2507  0.8436  0.5114
 9192TIP3    H149067   6.077   4.707   6.478 -1.1566  1.4252  0.5317
 9192TIP3    H249068   6.092   4.647   6.616 -0.2825  1.5523  0.4989
 9193TIP3   OH249069   1.652   1.182  14.257  0.1508  0.4366  0.2376
 9193TIP3    H149070   1.715   1.162  14.326  0.8170  0.2215 -0.4234
 9193TIP3    H249071   1.676   1.125  14.184  1.1201  2.4504 -1.1417
 9194TIP3   OH249072   1.774   5.647  16.254 -0.2394 -0.0960 -0.1245
 9194TIP3    H149073   1.743   5.558  16.273 -1.0968  0.4564  1.2395
 9194TIP3    H249074   1.786   5.687  16.340  2.3502  0.4209 -0.6486
 9195TIP3   OH249075   6.576   2.355   3.597 -0.3222 -0.2857 -0.2187
 9195TIP3    H149076   6.503   2.317   3.647  0.4128  0.9907  1.9880
 9195TIP3    H249077   6.568   2.449   3.611  1.3053 -0.0683 -0.5581
 9196TIP3   OH249078   3.190   2.093  10.319 -0.0344 -0.1564 -0.0605
 9196TIP3    H149079   3.236   2.053  10.392  0.4871 -0.8904 -0.7707
 9196TIP3    H249080   3.149   2.019  10.274 -1.6480  0.4441  0.3676
 9197TIP3   OH249081   1.118   0.972   4.427 -0.0279  0.1347  0.0871
 9197TIP3    H149082   1.147   0.958   4.517  0.5624  1.1087  0.0611
 9197TIP3    H249083   1.079   0.889   4.401  2.8814 -1.3321  0.0604
 9198TIP3   OH249084   4.484   1.288  16.057  0.5554  0.0818 -0.8657
 9198TIP3    H149085   4.399   1.274  16.099 -0.1489  0.2996 -2.1507
 9198TIP3    H249086   4.543   1.310  16.129 -0.4336 -0.2312  0.0758
 9199TIP3   OH249087   4.830   2.890   5.083 -0.1867 -0.0915 -0.2118
 9199TIP3    H149088   4.862   2.974   5.051 -1.4110  0.2579 -0.5970
 9199TIP3    H249089   4.876   2.825   5.031  1.7987  0.2525  1.0297
 9200TIP3   OH249090   4.425   2.498   3.076 -0.2750 -0.0681  0.3173
 9200TIP3    H149091   4.386   2.582   3.100  0.4155  0.5393 -0.6499
 9200TIP3    H249092   4.507   2.520   3.032  0.9256 -1.3013  1.7834
 9201TIP3   OH249093   4.925   0.104   0.807 -0.3111 -0.3164  0.3155
 9201TIP3    H149094   4.977   0.101   0.727 -1.5445 -0.8236 -0.4973
 9201TIP3    H249095   4.989   0.094   0.878  1.2712  3.2225 -0.3544
 9202TIP3   OH249096   6.275   4.085  13.132  0.4496  0.2959  0.4037
 9202TIP3    H149097   6.345   4.045  13.081 -1.4174 -1.1556 -1.2112
 9202TIP3    H249098   6.314   4.163  13.171  2.6259  0.1777 -1.3731
 9203TIP3   OH249099   3.110   6.659  14.116 -0.3322  0.2048 -0.1673
 9203TIP3    H149100   3.200   6.644  14.143 -0.2794  1.1822  0.2337
 9203TIP3    H249101   3.090   6.747  14.148 -1.2638  0.1887 -0.6893
 9204TIP3   OH249102   3.657   4.318  14.243 -0.0440 -0.2384 -0.6017
 9204TIP3    H149103   3.738   4.298  14.289  0.1654  0.1562 -0.7927
 9204TIP3    H249104   3.638   4.241  14.190  0.7756  0.0744 -1.3737
 9205TIP3   OH249105   0.620   5.141  16.052  0.1881 -0.2505 -0.1824
 9205TIP3    H149106   0.603   5.087  16.129  1.0012 -1.6489 -0.9199
 9205TIP3    H249107   0.535   5.176  16.027 -0.1827 -0.3033  0.9580
 9206TIP3   OH249108   4.570   4.846  12.323  0.4954 -0.1052  0.2255
 9206TIP3    H149109   4.486   4.891  12.332  0.8142  0.8558 -1.1704
 9206TIP3    H249110   4.633   4.904  12.366  0.4003 -1.0223  1.6258
 9207TIP3   OH249111   3.691   2.042  15.979  0.0189 -0.4670  0.4927
 9207TIP3    H149112   3.764   2.029  15.920 -0.6025 -0.4381 -0.2911
 9207TIP3    H249113   3.663   2.132  15.963 -0.9462 -0.8611 -0.0815
 9208TIP3   OH249114   0.128   3.649   0.468 -0.4447  0.0469 -0.3938
 9208TIP3    H149115   0.057   3.652   0.532 -0.2390 -2.6841  0.0977
 9208TIP3    H249116   0.201   3.608   0.515  0.5184  0.2134 -1.6769
 9209TIP3   OH249117   1.703   6.065  16.575  0.1151 -0.5814 -0.3961
 9209TIP3    H149118   1.680   6.115  16.653 -0.6570 -0.4744 -0.6861
 9209TIP3    H249119   1.794   6.037  16.590 -0.1101 -0.7781  0.6453
 9210TIP3   OH249120   3.373   6.541   4.628 -0.1437  0.4579 -0.2755
 9210TIP3    H149121   3.298   6.486   4.646 -0.3131  0.7984  0.0673
 9210TIP3    H249122   3.356   6.622   4.676  0.1009  0.8076 -0.7701
 9211TIP3   OH249123   1.106   6.160  15.361  0.0021  0.5747  0.1789
 9211TIP3    H149124   1.138   6.129  15.446 -0.9681 -0.4861  0.1863
 9211TIP3    H249125   1.025   6.110  15.347  0.7868 -0.2135 -1.9541
 9212TIP3   OH249126   5.044   0.140   0.009 -0.2706 -0.1112 -0.2422
 9212TIP3    H149127   4.956   0.173  -0.013 -0.5511 -0.8921 -0.3090
 9212TIP3    H249128   5.099   0.169  -0.064 -1.2742 -3.0822 -2.3702
 9213TIP3   OH249129   2.690   2.011   4.591  0.3953 -0.3269  0.2560
 9213TIP3    H149130   2.729   1.952   4.526 -0.1880  1.1865 -1.5702
 9213TIP3    H249131   2.720   2.099   4.565 -2.9296  0.7566 -0.3778
 9214TIP3   OH249132   4.776   6.821  13.875 -0.4566  0.3804 -0.3094
 9214TIP3    H149133   4.856   6.795  13.829 -0.1119 -0.0088  0.4902
 9214TIP3    H249134   4.808   6.864  13.955 -0.9818 -2.0695  1.3325
 9215TIP3   OH249135   1.682   5.964   2.829  0.4801  0.1153  0.6537
 9215TIP3    H149136   1.759   5.969   2.773 -0.2378  0.1373 -0.3688
 9215TIP3    H249137   1.639   6.049   2.820  0.0336 -0.0920  0.7660
 9216TIP3   OH249138   1.458   2.841   1.539 -0.0189 -0.6544  0.1389
 9216TIP3    H149139   1.541   2.794   1.528  1.4175  1.3862  1.5826
 9216TIP3    H249140   1.478   2.931   1.514 -1.4155  0.1563  1.7743
 9217TIP3   OH249141   1.205   5.554   4.730 -0.1868 -0.4727 -0.8074
 9217TIP3    H149142   1.218   5.461   4.710 -0.0669 -0.3877 -1.1387
 9217TIP3    H249143   1.125   5.557   4.781  0.1750 -0.8297 -0.2043
 9218TIP3   OH249144   1.185   4.545   2.014 -0.3876  0.6137 -0.3376
 9218TIP3    H149145   1.194   4.475   2.078  0.8447  0.8748 -0.2028
 9218TIP3    H249146   1.092   4.545   1.992 -0.2566 -1.9534 -1.3330
 9219TIP3   OH249147   0.728   1.111   5.517  0.4453 -0.0493 -0.7031
 9219TIP3    H149148   0.746   1.205   5.519  1.9644 -0.3313 -0.1378
 9219TIP3    H249149   0.793   1.073   5.575 -0.3570 -1.4310 -0.6782
 9220TIP3   OH249150   5.168   0.316   2.413  0.2124  0.1704  0.1366
 9220TIP3    H149151   5.143   0.235   2.456 -1.6317 -0.0207 -1.1883
 9220TIP3    H249152   5.217   0.364   2.480 -0.1376 -1.2769  1.5015
 9221TIP3   OH249153   6.029   4.791  13.598  0.2469 -0.0798 -0.2592
 9221TIP3    H149154   5.958   4.773  13.536  1.1386 -0.7886 -1.1165
 9221TIP3    H249155   6.107   4.755  13.556  1.0378  0.2313  0.8872
 9222TIP3   OH249156   1.381   0.297  17.046 -0.0834  0.8064  0.3619
 9222TIP3    H149157   1.452   0.331  17.100  0.9773 -0.4082 -0.2290
 9222TIP3    H249158   1.342   0.227  17.098  0.5193  0.0753 -0.1420
 9223TIP3   OH249159   2.292   4.494   3.070 -0.2178  0.4311 -0.1006
 9223TIP3    H149160   2.275   4.479   2.976  0.9440  2.9715 -0.7760
 9223TIP3    H249161   2.222   4.444   3.114 -1.4360  0.0115 -2.3269
 9224TIP3   OH249162   1.134   2.473   2.822 -0.1974  0.1113  0.5358
 9224TIP3    H149163   1.074   2.399   2.827  2.4518 -2.1590  1.4189
 9224TIP3    H249164   1.185   2.457   2.742 -0.0702  1.4363  0.3239
 9225TIP3   OH249165   5.809   1.326   6.433  0.3943  0.2305 -0.1836
 9225TIP3    H149166   5.759   1.397   6.392 -0.2482  0.3205  0.7218
 9225TIP3    H249167   5.749   1.252   6.434  0.1809  0.3972  1.1068
 9226TIP3   OH249168   2.212   1.300   0.018  0.4429  0.0511  0.5117
 9226TIP3    H149169   2.233   1.344  -0.065  2.1838 -0.7527  0.4721
 9226TIP3    H249170   2.159   1.364   0.066  0.4191  1.0051 -0.7347
 9227TIP3   OH249171   3.331   1.722  14.944 -0.2550  0.3590 -0.8465
 9227TIP3    H149172   3.372   1.770  14.872  0.1778  1.4603  0.1098
 9227TIP3    H249173   3.366   1.633  14.936 -0.9817  0.1764 -2.5793
 9228TIP3   OH249174   3.241   3.627   5.424 -0.4012  0.4215  0.7202
 9228TIP3    H149175   3.283   3.691   5.368  0.4290 -0.9505 -0.2937
 9228TIP3    H249176   3.307   3.607   5.491 -1.9712  3.3265  3.4107
 9229TIP3   OH249177   3.314   6.545   0.375 -0.1556  0.0239  0.6155
 9229TIP3    H149178   3.305   6.574   0.466 -1.6094  1.6613 -0.0046
 9229TIP3    H249179   3.389   6.485   0.377 -1.4962 -1.7518  3.2679
 9230TIP3   OH249180   1.898   5.891   1.878  0.0944  0.0455  0.5700
 9230TIP3    H149181   1.830   5.954   1.855  0.3427  0.4948  1.0545
 9230TIP3    H249182   1.980   5.938   1.867  0.3500 -0.5723 -0.2512
 9231TIP3   OH249183   0.061   1.777  12.066  0.2054 -0.2362  0.0144
 9231TIP3    H149184   0.142   1.820  12.096 -0.1965 -0.3475  1.3274
 9231TIP3    H249185   0.088   1.723  11.992  1.1328  0.5389 -0.2391
 9232TIP3   OH249186   0.890   4.615   1.227 -0.6212 -0.2960 -0.3097
 9232TIP3    H149187   0.893   4.702   1.187 -0.3482  0.4649  1.3151
 9232TIP3    H249188   0.799   4.587   1.215 -0.7181  0.2048 -0.8328
 9233TIP3   OH249189   4.122   0.252  15.947 -0.0396 -0.0372 -0.4535
 9233TIP3    H149190   4.211   0.278  15.920 -0.4351 -0.4326 -2.3208
 9233TIP3    H249191   4.135   0.176  16.003  0.8749  1.0149  0.8168
 9234TIP3   OH249192   5.748   4.938   2.503  0.0478 -0.0414 -0.1997
 9234TIP3    H149193   5.730   5.009   2.565 -0.1781 -0.8381  0.6736
 9234TIP3    H249194   5.789   4.870   2.557  0.8685 -0.3157 -1.1492
 9235TIP3   OH249195   3.589   6.407  16.042 -0.6833 -0.1935 -0.4186
 9235TIP3    H149196   3.495   6.387  16.041 -0.5374 -1.1013  1.1939
 9235TIP3    H249197   3.598   6.476  16.108 -0.0596 -1.1153  0.4905
 9236TIP3   OH249198   5.375   1.825   6.053  0.3512 -0.3145  0.7578
 9236TIP3    H149199   5.385   1.888   5.982  2.2543 -0.3393  0.9621
 9236TIP3    H249200   5.447   1.764   6.041 -1.9619 -3.1141 -0.0104
 9237TIP3   OH249201   4.459   0.237   5.313  0.1416 -0.4484 -0.1068
 9237TIP3    H149202   4.510   0.318   5.304  1.3314 -1.0488  0.8482
 9237TIP3    H249203   4.407   0.232   5.233  1.6183  0.2167 -1.1696
 9238TIP3   OH249204   5.940   5.453   2.015  0.4962 -0.2447  0.3911
 9238TIP3    H149205   6.015   5.508   2.038 -0.7019  1.2520  0.9483
 9238TIP3    H249206   5.873   5.477   2.080  0.0806 -2.7755  0.9745
 9239TIP3   OH249207   3.074   4.200  16.839 -0.0404  0.4821 -0.0820
 9239TIP3    H149208   3.139   4.140  16.876 -1.8083  0.1541  2.7642
 9239TIP3    H249209   3.125   4.266  16.793  2.1626 -0.9972  0.1141
 9240TIP3   OH249210   1.610   3.542  12.388 -0.1552  0.0308 -0.2608
 9240TIP3    H149211   1.667   3.545  12.311 -0.6417 -1.1263 -0.6933
 9240TIP3    H249212   1.665   3.505  12.457 -0.9384 -3.3013 -1.2683
 9241TIP3   OH249213   0.759   5.928   0.037 -0.5186 -0.2393 -0.1973
 9241TIP3    H149214   0.683   5.896  -0.012 -0.6692  1.8389 -1.4633
 9241TIP3    H249215   0.732   5.924   0.129 -2.0075  0.0451 -0.6022
 9242TIP3   OH249216   0.864   1.713  14.374  0.4594 -0.0273 -0.1537
 9242TIP3    H149217   0.937   1.691  14.432 -0.4243  0.6802  1.2989
 9242TIP3    H249218   0.869   1.648  14.303  1.4412 -1.0873  0.8391
 9243TIP3   OH249219   1.805   3.309  12.175  0.0829 -0.4058 -0.0705
 9243TIP3    H149220   1.808   3.403  12.158 -1.8209 -0.1881  0.5661
 9243TIP3    H249221   1.791   3.270  12.089 -1.7874  0.1250 -0.0530
 9244TIP3   OH249222   1.138   0.253   3.382 -0.0419  0.1031  0.4988
 9244TIP3    H149223   1.081   0.264   3.306  0.3474  0.2292  0.2201
 9244TIP3    H249224   1.149   0.342   3.417  1.4108  0.3466 -0.5078
 9245TIP3   OH249225   6.845   1.957   3.261  0.1328 -0.4128  0.1766
 9245TIP3    H149226   6.939   1.946   3.275  0.6405  0.4246 -2.0620
 9245TIP3    H249227   6.836   1.965   3.166 -2.0742  0.6617  0.4031
 9246TIP3   OH249228   6.433   5.825   3.455 -0.2026 -0.2001  0.5328
 9246TIP3    H149229   6.437   5.739   3.495  1.5463  0.9539  3.1021
 9246TIP3    H249230   6.508   5.827   3.394  0.0693 -0.3451  0.8590
 9247TIP3   OH249231   4.517   6.407   4.101 -1.1096  0.1194 -0.4867
 9247TIP3    H149232   4.540   6.496   4.074  0.5752 -0.4422 -1.0548
 9247TIP3    H249233   4.422   6.410   4.114 -1.2557  1.7227 -1.5366
 9248TIP3   OH249234   2.843   1.077   1.384 -0.4881  0.3363  0.0173
 9248TIP3    H149235   2.857   1.124   1.302  0.5082 -1.2011 -0.7325
 9248TIP3    H249236   2.850   0.984   1.361 -1.4754 -0.1853  1.6107
 9249TIP3   OH249237   4.075   1.806  15.097 -0.1648  0.1589  0.1389
 9249TIP3    H149238   4.016   1.833  15.026 -0.0283 -0.1913 -0.1076
 9249TIP3    H249239   4.024   1.820  15.177 -0.0735  1.2455  0.0333
 9250TIP3   OH249240   1.490   1.892  10.690  0.0487 -0.0899 -0.0433
 9250TIP3    H149241   1.412   1.884  10.635  0.7154  0.7399 -1.1509
 9250TIP3    H249242   1.548   1.951  10.641  1.2316 -0.4155  0.9195
 9251TIP3   OH249243   2.287   3.652   4.527  0.2359 -0.0884 -0.3218
 9251TIP3    H149244   2.328   3.738   4.517 -0.8190  0.5983  1.0142
 9251TIP3    H249245   2.245   3.654   4.613 -2.1080 -0.9493 -1.3406
 9252TIP3   OH249246   2.141   3.477  13.634  0.0566 -0.0407  0.3410
 9252TIP3    H149247   2.063   3.423  13.622  1.4558 -2.1117 -0.0183
 9252TIP3    H249248   2.174   3.453  13.720  0.0211  1.2278  0.7219
 9253TIP3   OH249249   4.938   6.704   4.687  0.0044  0.1842  0.9019
 9253TIP3    H149250   5.018   6.720   4.737 -0.3243  1.3109  1.0964
 9253TIP3    H249251   4.966   6.713   4.595  0.0503  0.8444  0.9769
 9254TIP3   OH249252   0.926   2.501   0.743  0.2304 -0.7686  0.1935
 9254TIP3    H149253   0.925   2.517   0.837 -1.0842  0.0913  0.0569
 9254TIP3    H249254   0.833   2.498   0.718  0.5433  1.2635 -1.4388
 9255TIP3   OH249255   4.619   3.217   2.720  0.6017  0.4111 -0.4645
 9255TIP3    H149256   4.650   3.137   2.677 -0.9367  0.3990 -1.6314
 9255TIP3    H249257   4.662   3.216   2.805 -0.5679 -2.5205  0.2154
 9256TIP3   OH249258   2.764   2.701   0.409 -1.0560  0.5010 -0.3750
 9256TIP3    H149259   2.836   2.647   0.376  0.2642  0.8960  1.6680
 9256TIP3    H249260   2.786   2.790   0.381 -1.0644  0.5397 -0.2592
 9257TIP3   OH249261   3.933   3.770  16.343  0.1169 -0.5407  0.0917
 9257TIP3    H149262   4.016   3.816  16.331 -0.0841 -0.1845  0.0478
 9257TIP3    H249263   3.952   3.703  16.409  0.5180 -0.6774 -0.1597
 9258TIP3   OH249264   4.574   2.667  13.920 -0.2705 -0.1137 -0.1412
 9258TIP3    H149265   4.576   2.580  13.959 -0.1969 -0.3435 -0.6470
 9258TIP3    H249266   4.507   2.661  13.852  0.0539  0.0877 -0.4838
 9259TIP3   OH249267   5.988   1.895   6.603  0.2240 -0.2521  0.0815
 9259TIP3    H149268   6.024   1.828   6.661  3.0908 -0.2650 -1.4966
 9259TIP3    H249269   5.945   1.845   6.533  0.8402 -0.4252 -0.1850
 9260TIP3   OH249270   5.816   4.582  14.983 -0.0247  0.0471 -0.8134
 9260TIP3    H149271   5.787   4.612  15.070  0.5454  0.4938 -0.7731
 9260TIP3    H249272   5.881   4.515  15.002  0.0089  0.0582 -0.8931
 9261TIP3   OH249273   3.231   5.735   5.707  0.2247  0.1555  0.0376
 9261TIP3    H149274   3.279   5.666   5.753  0.5251  1.8679  2.4625
 9261TIP3    H249275   3.142   5.729   5.740 -0.1228  0.0149 -0.8849
 9262TIP3   OH249276   5.579   1.867  13.477  0.4425 -0.4359 -0.1311
 9262TIP3    H149277   5.567   1.907  13.563 -1.4870  1.7759 -1.2957
 9262TIP3    H249278   5.521   1.791  13.478  0.9194 -0.8047  0.7066
 9263TIP3   OH249279   2.690   4.890  12.345  0.1591  0.2445  0.1578
 9263TIP3    H149280   2.757   4.836  12.386  1.9182  1.0760 -1.4556
 9263TIP3    H249281   2.616   4.830  12.332  1.9624 -1.8384 -1.4183
 9264TIP3   OH249282   5.202   5.779   5.347  0.6458 -0.3819  0.3012
 9264TIP3    H149283   5.239   5.762   5.433  3.2781 -1.7569 -0.9832
 9264TIP3    H249284   5.266   5.835   5.303 -1.7643  2.3391 -0.0549
 9265TIP3   OH249285   5.417   3.547   3.788 -0.1092 -0.0185  0.0375
 9265TIP3    H149286   5.505   3.510   3.777  0.1045  1.0449 -2.8756
 9265TIP3    H249287   5.392   3.523   3.877  3.2619 -0.0611  1.1435
 9266TIP3   OH249288   0.824   6.119   3.042  0.1767  0.4009  0.2475
 9266TIP3    H149289   0.850   6.206   3.071 -0.6778  0.2196  1.6443
 9266TIP3    H249290   0.889   6.094   2.977  0.2316  2.2261 -0.4403
 9267TIP3   OH249291   1.539   0.257   2.704 -0.0940  0.1129 -0.3730
 9267TIP3    H149292   1.583   0.245   2.620 -0.1834  0.1480 -0.4249
 9267TIP3    H249293   1.601   0.306   2.757  0.1359 -0.2762 -0.2769
 9268TIP3   OH249294   0.811   1.012  16.813 -0.3030 -0.1533 -0.4596
 9268TIP3    H149295   0.756   0.957  16.757  0.6397 -0.0099 -1.5757
 9268TIP3    H249296   0.862   0.950  16.865  0.0021 -0.3406 -0.9677
 9269TIP3   OH249297   3.793   6.306  11.794  0.1027  0.1538 -0.1479
 9269TIP3    H149298   3.864   6.307  11.730 -2.1922  2.7151 -2.9613
 9269TIP3    H249299   3.826   6.358  11.867  1.6996 -0.1140 -0.6378
 9270TIP3   OH249300   1.320   0.673  16.806 -0.2428 -0.5920 -0.4137
 9270TIP3    H149301   1.249   0.638  16.753  0.5639 -1.7891 -0.7600
 9270TIP3    H249302   1.395   0.676  16.745  0.7690 -2.2232  0.6804
 9271TIP3   OH249303   5.092   1.258   1.269 -0.5796  0.5168  0.2635
 9271TIP3    H149304   5.065   1.260   1.361 -0.9276  1.1584  0.1515
 9271TIP3    H249305   5.079   1.347   1.238  0.7071  0.6029 -0.0840
 9272TIP3   OH249306   5.143   2.870  14.832 -0.3127 -0.4230 -0.4086
 9272TIP3    H149307   5.119   2.955  14.868 -1.0065 -0.4146 -0.8593
 9272TIP3    H249308   5.061   2.820  14.834  0.4832 -1.8217  1.8024
 9273TIP3   OH249309   5.452   5.629  12.404 -0.1696 -0.0494  0.0769
 9273TIP3    H149310   5.420   5.654  12.317 -0.2704 -1.7862 -0.4267
 9273TIP3    H249311   5.540   5.595  12.388  0.0198  0.1152  0.7437
 9274TIP3   OH249312   3.056   0.856  10.680 -0.5890 -0.1656 -0.4732
 9274TIP3    H149313   3.122   0.843  10.748 -1.0008  0.1684 -0.0075
 9274TIP3    H249314   2.993   0.784  10.694 -0.7857  0.0262 -0.3648
 9275TIP3   OH249315   4.233   5.062  12.756  0.0671 -0.2659 -0.4684
 9275TIP3    H149316   4.220   5.152  12.783  0.4179 -0.8984  2.1378
 9275TIP3    H249317   4.206   5.010  12.832 -0.7353 -2.4031 -2.1070
 9276TIP3   OH249318   3.146   3.951  14.553 -0.0143 -0.1035  0.3325
 9276TIP3    H149319   3.101   3.871  14.526  1.1100 -0.9732  0.9724
 9276TIP3    H249320   3.075   4.009  14.582 -0.9993 -0.1899 -1.7305
 9277TIP3   OH249321   5.490   5.010   2.138 -0.4464  0.1347  0.7745
 9277TIP3    H149322   5.469   4.945   2.205 -0.4448  0.4970  1.1280
 9277TIP3    H249323   5.579   5.039   2.159 -0.3768  0.1204  0.5107
 9278TIP3   OH249324   3.196   2.303  11.413  0.4265 -0.2384 -0.4015
 9278TIP3    H149325   3.125   2.332  11.356  1.7575 -0.6991 -2.4006
 9278TIP3    H249326   3.196   2.365  11.485 -0.3376  1.3647 -1.7087
 9279TIP3   OH249327   6.143   2.616   3.388 -0.0133 -0.6293  0.9859
 9279TIP3    H149328   6.168   2.534   3.345  0.7048  0.3577 -0.6097
 9279TIP3    H249329   6.111   2.671   3.316 -1.6262  0.0875  2.1946
 9280TIP3   OH249330   4.470   2.715  16.875  0.5522 -0.5895 -0.3356
 9280TIP3    H149331   4.466   2.637  16.820 -0.6575 -1.2346  0.6335
 9280TIP3    H249332   4.437   2.786  16.820 -1.5110 -1.3922 -0.2124
 9281TIP3   OH249333   0.729   6.188   5.282  0.0732  0.5232 -0.2207
 9281TIP3    H149334   0.649   6.219   5.238  0.8686  1.8237 -0.8189
 9281TIP3    H249335   0.768   6.267   5.319  1.0669 -0.0994  0.0897
 9282TIP3   OH249336   2.115   4.237   4.657  0.1262 -0.0857  0.1741
 9282TIP3    H149337   2.021   4.223   4.660  0.1469 -0.0591  2.3251
 9282TIP3    H249338   2.133   4.297   4.729  1.6574  0.8937 -0.9567
 9283TIP3   OH249339   1.056   4.475   4.874  0.1487  0.4118  0.3553
 9283TIP3    H149340   1.145   4.439   4.880 -0.0971 -0.5610 -1.1594
 9283TIP3    H249341   1.068   4.566   4.848  0.7815  1.4923  3.9209
 9284TIP3   OH249342   3.167   3.101   0.041  0.3628  0.3923 -0.3869
 9284TIP3    H149343   3.071   3.101   0.042  0.3165  1.8157  0.9442
 9284TIP3    H249344   3.191   3.063   0.125  0.9395  0.5570 -0.4750
 9285TIP3   OH249345   5.931   2.671   0.426  0.1798 -0.8398 -0.1588
 9285TIP3    H149346   5.991   2.633   0.363  1.9297 -0.7890  1.4088
 9285TIP3    H249347   5.864   2.715   0.373  1.4279 -1.0466 -1.9525
 9286TIP3   OH249348   5.133   4.175   5.208  0.2171  0.2645  0.6616
 9286TIP3    H149349   5.038   4.183   5.208  0.1646 -0.3242  0.2405
 9286TIP3    H249350   5.158   4.179   5.116  0.5561 -0.0600  0.7362
 9287TIP3   OH249351   1.559   3.581  16.771  0.2829 -0.4067  0.2535
 9287TIP3    H149352   1.567   3.662  16.820 -0.8683 -0.5572  0.7099
 9287TIP3    H249353   1.565   3.607  16.679  0.3748  0.1258  0.4095
 9288TIP3   OH249354   0.607   4.778   1.516 -0.3543  0.0357  0.2765
 9288TIP3    H149355   0.633   4.866   1.487  0.3905 -0.0647  0.6209
 9288TIP3    H249356   0.615   4.781   1.611 -2.0501  0.1316  0.4470
 9289TIP3   OH249357   0.086   3.363  11.950 -0.3125 -0.1890  0.3943
 9289TIP3    H149358   0.016   3.314  11.908  0.1764 -1.7431  1.2894
 9289TIP3    H249359   0.048   3.449  11.970 -1.6995 -0.7389  0.1633
 9290TIP3   OH249360   4.767   3.743  10.916  0.3544 -0.0371 -0.2904
 9290TIP3    H149361   4.706   3.689  10.867  1.5069 -0.5463 -1.2023
 9290TIP3    H249362   4.854   3.707  10.895  1.0459  1.2819  0.1835
 9291TIP3   OH249363   3.922   6.100  12.881 -0.0451 -0.1732  0.4364
 9291TIP3    H149364   3.983   6.140  12.943 -0.3648 -0.2702  0.8142
 9291TIP3    H249365   3.974   6.086  12.802  1.0421 -2.2324  1.4252
 9292TIP3   OH249366   1.310   5.847   0.268 -0.0371  0.3719  0.3214
 9292TIP3    H149367   1.272   5.899   0.197 -0.2575 -0.2362 -0.0168
 9292TIP3    H249368   1.382   5.800   0.227  0.2857  0.5603  0.6714
 9293TIP3   OH249369   0.564   1.319  13.129 -0.3085  0.2347 -0.0970
 9293TIP3    H149370   0.608   1.390  13.081  1.2631 -1.7514 -1.8104
 9293TIP3    H249371   0.614   1.312  13.211  0.8596 -0.1746 -0.8136
 9294TIP3   OH249372   4.302   1.512   0.990  0.4871 -0.0303  0.1427
 9294TIP3    H149373   4.229   1.474   1.039 -0.2414  0.4409 -0.5549
 9294TIP3    H249374   4.352   1.436   0.959 -0.1569 -0.3832 -0.0500
 9295TIP3   OH249375   3.723   4.478  12.239 -0.0010  0.4345  0.0853
 9295TIP3    H149376   3.793   4.464  12.176  2.5172  1.5303  2.4565
 9295TIP3    H249377   3.664   4.539  12.196  1.9384  1.6282 -1.0150
 9296TIP3   OH249378   4.879   6.835   2.531 -0.2650  0.0206 -0.4079
 9296TIP3    H149379   4.849   6.842   2.440  0.0525 -0.2093 -0.5291
 9296TIP3    H249380   4.880   6.741   2.549  0.6420  0.0149 -0.4862
 9297TIP3   OH249381   4.073   1.130  15.205 -0.0614 -0.4224  0.6445
 9297TIP3    H149382   4.088   1.143  15.111  2.5068  0.8042  1.1196
 9297TIP3    H249383   4.128   1.055  15.228  1.1529  0.6981  1.5259
 9298TIP3   OH249384   6.590   0.302  15.851 -0.2466 -0.1624  1.0314
 9298TIP3    H149385   6.530   0.243  15.806 -0.8786  1.9316 -1.0293
 9298TIP3    H249386   6.595   0.267  15.940 -3.7102 -1.0132  1.0208
 9299TIP3   OH249387   0.784   2.312  15.420 -0.0827  0.0376 -0.0828
 9299TIP3    H149388   0.803   2.396  15.462  0.4381 -0.6736  1.1610
 9299TIP3    H249389   0.871   2.274  15.403 -0.2557  0.4686 -2.2194
 9300TIP3   OH249390   4.275   2.561  12.663 -0.2196  0.7381  0.3064
 9300TIP3    H149391   4.273   2.613  12.744 -0.2402  0.3442  0.5640
 9300TIP3    H249392   4.366   2.563  12.636 -0.6002  3.0383 -1.1036
 9301TIP3   OH249393   4.212   0.820   3.534 -0.2180 -0.2587 -0.0080
 9301TIP3    H149394   4.177   0.900   3.574  1.7061  0.4922  0.2985
 9301TIP3    H249395   4.277   0.788   3.597  0.9262 -0.5780 -1.2927
 9302TIP3   OH249396   5.462   3.536  10.689  0.3648  0.4639 -0.0220
 9302TIP3    H149397   5.412   3.520  10.609  1.0658  2.4534 -0.9047
 9302TIP3    H249398   5.543   3.485  10.677 -0.6182 -1.3675  0.6514
 9303TIP3   OH249399   6.005   2.501   0.867 -0.0560 -0.2632  0.0166
 9303TIP3    H149400   5.982   2.584   0.826 -0.8521  0.3694  1.6274
 9303TIP3    H249401   5.988   2.435   0.800 -0.5852  0.7627 -0.8874
 9304TIP3   OH249402   5.933   0.389  14.384 -0.3046  0.0530  0.6219
 9304TIP3    H149403   5.951   0.468  14.333  1.0863 -1.2497 -1.0192
 9304TIP3    H249404   5.838   0.390  14.398 -0.2289  2.4931  1.5685
 9305TIP3   OH249405   0.250   0.614  10.693  0.2958 -0.0322  0.6703
 9305TIP3    H149406   0.176   0.584  10.640 -0.7230 -0.3699  2.2132
 9305TIP3    H249407   0.243   0.710  10.691  2.5893  0.2457 -2.9118
 9306TIP3   OH249408   3.055   2.539   3.565  0.5059  0.3003 -0.3735
 9306TIP3    H149409   3.127   2.590   3.527  0.5480  0.4502 -0.0927
 9306TIP3    H249410   3.011   2.501   3.489  0.8184  0.2923 -0.5540
 9307TIP3   OH249411   5.714   1.652  12.416  0.2833 -0.0388 -0.0181
 9307TIP3    H149412   5.793   1.705  12.409  0.2450  0.1789  1.0909
 9307TIP3    H249413   5.658   1.684  12.345  0.3335  1.2812  0.5157
 9308TIP3   OH249414   3.405   4.725   2.639 -0.0034 -0.5111  0.3397
 9308TIP3    H149415   3.358   4.771   2.708  0.4780  1.9405 -0.8388
 9308TIP3    H249416   3.497   4.748   2.652  0.1076 -0.0446 -1.0178
 9309TIP3   OH249417   0.829   1.267  17.062 -0.0009  0.1381  0.2323
 9309TIP3    H149418   0.832   1.179  17.100  2.4501 -0.3960 -0.9756
 9309TIP3    H249419   0.870   1.323  17.128  2.4285 -0.4476 -0.6680
 9310TIP3   OH249420   6.204   3.666   2.290  0.5508 -0.3362  0.0260
 9310TIP3    H149421   6.260   3.630   2.358  0.3200  0.6294  0.7499
 9310TIP3    H249422   6.209   3.761   2.303 -2.6246 -0.2080  1.2834
 9311TIP3   OH249423   2.634   1.520   0.794  0.0655 -0.1609  0.2689
 9311TIP3    H149424   2.663   1.603   0.757 -0.4522  0.1692  0.5855
 9311TIP3    H249425   2.714   1.473   0.815  0.3658 -0.1340 -0.7707
 9312TIP3   OH249426   2.411   3.681  12.777  0.6277 -0.5782  0.4359
 9312TIP3    H149427   2.455   3.657  12.858  0.0562 -1.5807  0.4707
 9312TIP3    H249428   2.446   3.621  12.712 -1.2998 -2.0378  0.6530
 9313TIP3   OH249429   3.104   3.954   4.341 -0.9407  0.5405  0.1240
 9313TIP3    H149430   3.076   3.938   4.431  0.4106  0.0448  0.4763
 9313TIP3    H249431   3.055   3.890   4.289  0.4653 -1.2558  0.8864
 9314TIP3   OH249432   0.286   2.834   1.691  0.0058  0.4091  0.1723
 9314TIP3    H149433   0.285   2.891   1.614 -2.7206  0.4757  0.1658
 9314TIP3    H249434   0.256   2.890   1.763 -0.3156 -0.3864  0.6724
 9315TIP3   OH249435   5.989   5.486   3.243 -0.3594  0.3764 -0.2960
 9315TIP3    H149436   6.058   5.442   3.293 -0.8890  0.2868  0.3701
 9315TIP3    H249437   6.033   5.558   3.199  0.2994 -0.1242 -0.4637
 9316TIP3   OH249438   0.475   5.121   1.654  0.7191 -0.1536 -0.1100
 9316TIP3    H149439   0.548   5.059   1.655  0.3539 -0.6368  2.0026
 9316TIP3    H249440   0.499   5.186   1.720 -0.3246  0.1962 -0.0628
 9317TIP3   OH249441   6.593   3.739  11.745 -0.3779 -0.4846  0.1073
 9317TIP3    H149442   6.612   3.716  11.654  1.7338  0.6922  0.1697
 9317TIP3    H249443   6.632   3.826  11.756 -2.3946  0.3058  1.6061
 9318TIP3   OH249444   3.303   1.792  16.342 -0.2274  0.0259 -0.2860
 9318TIP3    H149445   3.374   1.836  16.389  0.7590 -1.2004 -0.5640
 9318TIP3    H249446   3.285   1.850  16.268 -0.6045  1.1139  0.6346
 9319TIP3   OH249447   6.413   0.921   6.244  0.5892  0.0333 -0.0417
 9319TIP3    H149448   6.439   1.002   6.289 -1.2434  0.9182 -0.4828
 9319TIP3    H249449   6.396   0.859   6.315  0.4392  0.5456  0.3755
 9320TIP3   OH249450   4.612   5.569  16.053 -0.4454  0.5823 -0.2942
 9320TIP3    H149451   4.679   5.637  16.053 -1.3768  1.5136  0.2320
 9320TIP3    H249452   4.550   5.595  15.985 -0.7077  0.1451 -0.2311
 9321TIP3   OH249453   3.339   6.006  15.717  1.7899 -0.4432  0.1656
 9321TIP3    H149454   3.395   5.952  15.662  0.0022 -1.3888 -0.7895
 9321TIP3    H249455   3.308   6.076  15.659  0.5923 -0.9453  0.1645
 9322TIP3   OH249456   5.582   3.843  14.703  0.0119  0.3165 -0.4355
 9322TIP3    H149457   5.499   3.826  14.659  0.1939  1.1792 -1.1599
 9322TIP3    H249458   5.581   3.937  14.721  0.5236  0.2062  0.2073
 9323TIP3   OH249459   3.945   5.227   2.010 -0.0840 -0.2794 -0.2920
 9323TIP3    H149460   3.903   5.212   1.926  1.8139  0.5421 -1.4407
 9323TIP3    H249461   3.921   5.316   2.034 -0.7476 -0.5639  0.1503
 9324TIP3   OH249462   0.617   3.898   4.504 -0.4091 -0.3284  0.3053
 9324TIP3    H149463   0.674   3.898   4.581  0.3587  0.3367 -0.2397
 9324TIP3    H249464   0.605   3.991   4.483 -0.4752 -0.5004 -0.4675
 9325TIP3   OH249465   2.950   1.055   4.834  0.4017  0.6493  0.0596
 9325TIP3    H149466   2.966   1.072   4.927 -0.0741 -0.8008  0.4396
 9325TIP3    H249467   2.866   1.097   4.815  0.9819  1.8015  0.0195
 9326TIP3   OH249468   1.478   4.127  13.120 -0.0676  0.1625  0.2463
 9326TIP3    H149469   1.526   4.142  13.202 -1.2206 -1.5108  1.2830
 9326TIP3    H249470   1.508   4.042  13.089 -2.7571 -1.2994  1.3120
 9327TIP3   OH249471   3.633   3.129   3.954  0.1576  0.9562 -0.5164
 9327TIP3    H149472   3.612   3.131   4.048 -0.1281 -2.2114 -0.3900
 9327TIP3    H249473   3.551   3.154   3.911 -0.0179  1.4050  0.0659
 9328TIP3   OH249474   4.363   1.732  12.423 -0.0379 -0.4743  0.4608
 9328TIP3    H149475   4.424   1.694  12.359 -0.6705  0.5102 -0.7737
 9328TIP3    H249476   4.409   1.808  12.457  0.9377 -1.8474  2.4053
 9329TIP3   OH249477   4.292   3.801  15.341 -0.0771  0.1998 -0.6050
 9329TIP3    H149478   4.197   3.794  15.344 -0.0773  0.4129  1.3428
 9329TIP3    H249479   4.310   3.859  15.266 -1.4982  0.5696 -0.6853
 9330TIP3   OH249480   6.646   5.230  13.433 -0.2231  0.5864 -0.1909
 9330TIP3    H149481   6.603   5.308  13.469 -0.9914  0.5550 -0.9984
 9330TIP3    H249482   6.636   5.164  13.501 -1.5671  0.5508 -0.4022
 9331TIP3   OH249483   3.171   3.476  12.451 -0.4133  0.1387  0.4374
 9331TIP3    H149484   3.193   3.428  12.531  0.1405 -1.1222 -0.4472
 9331TIP3    H249485   3.134   3.410  12.392 -2.6770  1.4109  0.3199
 9332TIP3   OH249486   2.407   1.016  16.738  0.3388  0.5427 -0.0889
 9332TIP3    H149487   2.362   1.072  16.802  0.6008  0.7104 -0.0455
 9332TIP3    H249488   2.445   1.078  16.675 -0.4713  0.3508 -0.7868
 9333TIP3   OH249489   4.018   3.056   6.437 -0.0457  0.5772  0.1932
 9333TIP3    H149490   3.980   3.142   6.425  1.0969  0.9839 -0.7198
 9333TIP3    H249491   3.943   2.998   6.453 -0.9257  1.5332 -0.3504
 9334TIP3   OH249492   0.745   2.923   3.878  0.0331 -0.4439  0.0161
 9334TIP3    H149493   0.840   2.939   3.879  0.2157 -1.4605  0.6791
 9334TIP3    H249494   0.728   2.887   3.791  0.4279 -1.1276  0.2121
 9335TIP3   OH249495   4.329   6.785  12.874  0.2930 -0.3851  0.2358
 9335TIP3    H149496   4.291   6.836  12.946  1.4018 -0.1186  0.6564
 9335TIP3    H249497   4.323   6.694  12.903 -0.0323 -0.3465  0.2911
 9336TIP3   OH249498   2.836   3.989  11.159 -0.1013  0.1899 -0.5926
 9336TIP3    H149499   2.750   3.955  11.182 -0.5107  2.1321  0.9423
 9336TIP3    H249500   2.895   3.952  11.225 -0.5399  2.2591  1.0516
 9337TIP3   OH249501   0.373   3.183  15.877  0.4926  0.3737  0.3999
 9337TIP3    H149502   0.281   3.168  15.899  0.9766 -0.2985  2.0910
 9337TIP3    H249503   0.374   3.267  15.832 -0.7059  1.4211  2.2195
 9338TIP3   OH249504   1.116   1.599   6.316 -0.3982  0.6641  0.2194
 9338TIP3    H149505   1.027   1.633   6.310 -0.8004 -0.4203 -0.1897
 9338TIP3    H249506   1.105   1.509   6.346  0.5092  0.2790 -0.5784
 9339TIP3   OH249507   0.231   2.211  12.949  0.4522 -0.0522 -0.0232
 9339TIP3    H149508   0.230   2.119  12.923 -1.0636  0.2795 -1.2761
 9339TIP3    H249509   0.151   2.247  12.912  1.5202  2.0265 -0.4586
 9340TIP3   OH249510   3.456   3.675   4.122 -0.5433 -0.3291 -0.1458
 9340TIP3    H149511   3.502   3.754   4.149 -0.4518  0.0334 -1.3102
 9340TIP3    H249512   3.443   3.626   4.203  0.4589  0.3151  0.4229
 9341TIP3   OH249513   0.581   5.793   1.573  0.1995  0.1638 -0.0320
 9341TIP3    H149514   0.618   5.746   1.498  0.7901  1.2427 -0.4342
 9341TIP3    H249515   0.513   5.848   1.536 -0.4859 -0.3562  0.4395
 9342TIP3   OH249516   5.790   3.310  14.646 -0.1925  0.4284  0.3607
 9342TIP3    H149517   5.695   3.308  14.660 -0.1614  0.6491  0.5979
 9342TIP3    H249518   5.800   3.304  14.551 -0.5079  2.4597  0.1536
 9343TIP3   OH249519   3.178   4.513  13.547  0.0444 -0.4349  0.3153
 9343TIP3    H149520   3.201   4.594  13.501  1.1528 -0.3363  1.0023
 9343TIP3    H249521   3.260   4.484  13.586 -0.2815 -2.0648 -0.1641
 9344TIP3   OH249522   3.863   6.344   0.054 -0.0764 -0.2061 -0.0318
 9344TIP3    H149523   3.772   6.373   0.068 -0.0129 -0.1617  0.3060
 9344TIP3    H249524   3.908   6.421   0.019 -0.8553 -1.0475 -3.1600
 9345TIP3   OH249525   4.668   4.890   4.143 -0.5205  0.7637  0.2514
 9345TIP3    H149526   4.635   4.886   4.053 -2.4220  0.2121  0.9317
 9345TIP3    H249527   4.659   4.801   4.176 -0.5020  1.1125  1.2185
 9346TIP3   OH249528   1.813   2.503  12.068  0.6234 -0.2711 -0.2400
 9346TIP3    H149529   1.907   2.507  12.050  0.7959 -0.2415  0.6499
 9346TIP3    H249530   1.800   2.419  12.111  0.2894 -0.1418 -0.0837
 9347TIP3   OH249531   6.189   1.166   5.685 -0.8849  0.2709  0.7219
 9347TIP3    H149532   6.115   1.108   5.700  0.8922 -2.2385  0.3516
 9347TIP3    H249533   6.262   1.108   5.663  1.3632  2.5580  1.6023
 9348TIP3   OH249534   0.004   0.815  10.469  0.5321 -0.3682 -0.2862
 9348TIP3    H149535  -0.013   0.722  10.479  2.3953 -0.6031  1.5124
 9348TIP3    H249536   0.091   0.819  10.428 -0.2355  0.6131 -1.8893
 9349TIP3   OH249537   6.594   3.693   0.118  0.4697 -0.3710  0.0937
 9349TIP3    H149538   6.676   3.651   0.094  0.6233 -1.2997  2.0421
 9349TIP3    H249539   6.526   3.633   0.085  0.6496 -1.0708  0.9624
 9350TIP3   OH249540   5.530   3.830  13.741 -0.1200  0.3178  0.0503
 9350TIP3    H149541   5.470   3.766  13.702  0.6963  0.4718 -1.5364
 9350TIP3    H249542   5.617   3.797  13.721  0.3524  0.6629  1.3866
 9351TIP3   OH249543   5.552   3.691   3.552  0.2099  0.5966 -0.3570
 9351TIP3    H149544   5.510   3.610   3.523  0.2535  0.4336  0.0178
 9351TIP3    H249545   5.497   3.761   3.517  0.1172  0.4027 -0.6032
 9352TIP3   OH249546   2.226   3.451  14.666  0.0259  0.1566  0.1131
 9352TIP3    H149547   2.300   3.443  14.726 -0.3232 -0.1703  0.5068
 9352TIP3    H249548   2.265   3.443  14.579  1.1368  4.2424 -0.0178
 9353TIP3   OH249549   0.984   5.228  11.607  0.3435  0.0115  0.2886
 9353TIP3    H149550   0.896   5.261  11.628  0.6347  0.3231  1.0553
 9353TIP3    H249551   1.016   5.192  11.689  1.0433  0.1487  0.0807
 9354TIP3   OH249552   2.756   6.363  10.451 -0.4866 -0.3726 -1.0650
 9354TIP3    H149553   2.840   6.409  10.452 -1.0042  0.5911 -0.4184
 9354TIP3    H249554   2.755   6.317  10.367  1.3135 -1.6075 -0.4702
 9355TIP3   OH249555   1.128   6.230   0.214  0.2489  0.3720 -0.7358
 9355TIP3    H149556   1.142   6.319   0.182  1.4435  0.0571 -1.1435
 9355TIP3    H249557   1.160   6.173   0.144  0.8007 -0.3552  0.0770
 9356TIP3   OH249558   6.659   2.956  11.487  0.1467 -0.0798  0.1897
 9356TIP3    H149559   6.668   2.861  11.487  0.2075 -0.0968 -1.3348
 9356TIP3    H249560   6.564   2.971  11.492  0.1327 -0.2153  0.3300
 9357TIP3   OH249561   5.469   5.278  14.788 -0.4137 -0.3323  0.5420
 9357TIP3    H149562   5.410   5.233  14.848 -1.5233 -2.8487 -2.2053
 9357TIP3    H249563   5.415   5.300  14.712  1.1560  1.7578 -0.0856
 9358TIP3   OH249564   3.443   3.395  10.882  0.1585  0.3705  0.2186
 9358TIP3    H149565   3.451   3.380  10.976  1.6246  1.6702  0.3534
 9358TIP3    H249566   3.447   3.490  10.873 -1.4160  0.3634 -1.0720
 9359TIP3   OH249567   1.246   3.364  11.722  0.3598  0.4352  0.0838
 9359TIP3    H149568   1.310   3.328  11.661 -0.4074  1.1657 -1.1956
 9359TIP3    H249569   1.167   3.376  11.670 -0.1515  1.6211  1.0783
 9360TIP3   OH249570   5.139   6.737   4.118  0.3734  0.5104  0.6030
 9360TIP3    H149571   5.196   6.665   4.145  1.1404  1.2521  0.9960
 9360TIP3    H249572   5.109   6.777   4.200 -1.0754 -0.1175  0.4215
 9361TIP3   OH249573   4.362   6.309  10.337  0.0687 -0.2382 -0.4073
 9361TIP3    H149574   4.435   6.363  10.307  0.0379  1.3203  2.0155
 9361TIP3    H249575   4.358   6.326  10.431 -1.1167 -3.1430  0.1534
 9362TIP3   OH249576   0.342   1.140   5.901 -0.6056 -0.0036  0.2211
 9362TIP3    H149577   0.389   1.208   5.949  0.0915 -0.2745 -0.0580
 9362TIP3    H249578   0.411   1.093   5.853 -1.2065 -0.2028 -0.4557
 9363TIP3   OH249579   6.268   3.754  14.269 -0.1644 -0.0227  0.2001
 9363TIP3    H149580   6.262   3.670  14.223  1.6041 -0.3273  0.4557
 9363TIP3    H249581   6.196   3.752  14.331 -0.7950 -0.8905 -0.5248
 9364TIP3   OH249582   1.253   1.040  14.798 -0.3791  0.0238  0.6757
 9364TIP3    H149583   1.290   1.031  14.710 -0.1434 -0.9257  0.8616
 9364TIP3    H249584   1.302   0.977  14.851 -0.8300  0.2664  1.3884
 9365TIP3   OH249585   5.071   6.299   4.461  0.2588 -0.0979 -0.1773
 9365TIP3    H149586   5.056   6.283   4.368  0.6064  0.4551 -0.3353
 9365TIP3    H249587   5.162   6.274   4.476  0.0495 -0.6824  0.1324
 9366TIP3   OH249588   2.299   0.918   5.624 -0.0941  0.1065 -0.5206
 9366TIP3    H149589   2.362   0.925   5.553  0.2428 -0.6954 -0.3085
 9366TIP3    H249590   2.348   0.943   5.703 -0.1452 -0.1303 -0.4116
 9367TIP3   OH249591   3.055   5.068   5.209  0.1453 -0.3304 -0.6073
 9367TIP3    H149592   3.100   5.150   5.190 -0.4610 -0.3922 -2.5525
 9367TIP3    H249593   3.075   5.050   5.301  1.6057  1.1549 -0.5892
 9368TIP3   OH249594   1.150   2.958   2.347 -0.5547  0.4224 -0.2795
 9368TIP3    H149595   1.239   2.932   2.326 -1.0895 -0.9270 -0.9820
 9368TIP3    H249596   1.132   2.918   2.432 -1.1568 -1.0656 -1.0674
 9369TIP3   OH249597   3.129   0.520   0.914 -0.4427 -0.0892  0.4030
 9369TIP3    H149598   3.217   0.549   0.892 -0.0762 -0.9530  0.6710
 9369TIP3    H249599   3.139   0.474   0.997 -0.8130 -1.8265 -0.4747
 9370TIP3   OH249600   1.043   5.607  16.406 -0.1471 -0.6990 -0.3359
 9370TIP3    H149601   1.047   5.688  16.356 -0.6115 -0.7020 -0.3816
 9370TIP3    H249602   1.131   5.596  16.442  0.5420 -1.2780 -2.0819
 9371TIP3   OH249603   1.724   6.711  15.537  0.0120  0.5236 -0.5732
 9371TIP3    H149604   1.719   6.637  15.598  0.6758 -0.3156 -1.4956
 9371TIP3    H249605   1.683   6.678  15.457 -1.2994  1.7729 -0.4574
 9372TIP3   OH249606   0.554   0.313   1.415 -0.3985  0.8425  0.2259
 9372TIP3    H149607   0.616   0.349   1.479 -0.7753 -0.4194  1.3717
 9372TIP3    H249608   0.555   0.219   1.432 -2.4010  0.7500  0.0767
 9373TIP3   OH249609   2.444   6.740   2.543 -0.2866 -0.1142  0.1561
 9373TIP3    H149610   2.482   6.682   2.477 -0.3636 -1.3336  1.1424
 9373TIP3    H249611   2.413   6.681   2.611 -1.8629  1.0015  0.4561
 9374TIP3   OH249612   6.474   2.514  11.447  0.4354 -0.1135 -0.0131
 9374TIP3    H149613   6.393   2.484  11.487  0.5960  1.4515  1.6216
 9374TIP3    H249614   6.449   2.592  11.398  0.9341  0.3902  0.5148
 9375TIP3   OH249615   0.295   4.564  17.038  0.4105  0.2748  0.1464
 9375TIP3    H149616   0.292   4.475  17.002  0.5821  1.0681 -2.0158
 9375TIP3    H249617   0.210   4.602  17.015  0.7230  0.9767  0.1135
 9376TIP3   OH249618   1.177   2.626   3.974  0.1607 -0.9814  0.6619
 9376TIP3    H149619   1.107   2.686   3.948  1.1122  0.1932  0.7276
 9376TIP3    H249620   1.219   2.600   3.892  0.3332 -0.8186  0.6978
 9377TIP3   OH249621   0.791   4.169   3.937 -0.0128  0.1582 -0.1758
 9377TIP3    H149622   0.702   4.192   3.965 -0.3560  0.0872 -1.1939
 9377TIP3    H249623   0.821   4.245   3.887  0.5034  0.1763  0.1513
 9378TIP3   OH249624   3.359   3.911   5.496 -0.2306 -0.4793  0.3581
 9378TIP3    H149625   3.351   3.888   5.589  1.1132  0.5469  0.7488
 9378TIP3    H249626   3.332   4.003   5.492  0.9687 -0.1371 -0.0491
 9379TIP3   OH249627   4.141   4.652   2.629 -0.1057 -0.8337 -0.1070
 9379TIP3    H149628   4.117   4.717   2.564  2.1513 -0.0213 -0.2094
 9379TIP3    H249629   4.099   4.681   2.710 -2.4903 -1.5634 -1.0152
 9380TIP3   OH249630   6.504   5.237   2.916 -0.2424  0.4355  0.9587
 9380TIP3    H149631   6.558   5.315   2.905 -1.2650  0.9600 -0.7630
 9380TIP3    H249632   6.420   5.261   2.877 -1.0765 -1.0232  1.7826
 9381TIP3   OH249633   2.429   4.265  14.067  0.1112  0.0293  0.1514
 9381TIP3    H149634   2.371   4.293  14.137  0.8291  0.1118  0.7138
 9381TIP3    H249635   2.502   4.326  14.069  0.2040 -0.0469 -0.5813
 9382TIP3   OH249636   1.766   0.643   0.328  0.0504 -0.5418  0.2425
 9382TIP3    H149637   1.787   0.585   0.256 -2.3554 -0.5309 -0.5701
 9382TIP3    H249638   1.752   0.728   0.287 -1.3063 -0.5277  0.6840
 9383TIP3   OH249639   1.860   5.416  10.918  0.0799  0.0449 -0.1982
 9383TIP3    H149640   1.839   5.343  10.975  0.4696  0.0137 -0.0913
 9383TIP3    H249641   1.956   5.415  10.912  0.0488  0.0770 -0.8063
 9384TIP3   OH249642   0.163   3.668   3.215 -0.6998  0.0214  0.5681
 9384TIP3    H149643   0.225   3.684   3.144  0.5134  0.3217  1.6575
 9384TIP3    H249644   0.078   3.687   3.177  0.0070  1.1714 -0.5144
 9385TIP3   OH249645   0.620   3.268  11.651  0.0954  0.0986 -0.1682
 9385TIP3    H149646   0.546   3.217  11.619 -0.2231  0.4081  0.0656
 9385TIP3    H249647   0.654   3.218  11.725 -0.0459  0.0897 -0.1102
 9386TIP3   OH249648   2.824   2.229  11.525  0.0074 -0.3454  0.1498
 9386TIP3    H149649   2.751   2.290  11.518 -0.0311 -0.2178  1.3809
 9386TIP3    H249650   2.783   2.148  11.557  0.4862 -0.0151  1.7045
 9387TIP3   OH249651   6.456   4.281   2.745 -0.2947  0.2969  0.5705
 9387TIP3    H149652   6.457   4.322   2.831 -0.3131 -0.8295  1.1207
 9387TIP3    H249653   6.410   4.344   2.689 -1.7172  0.3195  1.7347
 9388TIP3   OH249654   6.757   5.799   6.785  0.0819  0.0680 -0.3512
 9388TIP3    H149655   6.721   5.787   6.697 -0.0529 -1.2487 -0.1344
 9388TIP3    H249656   6.816   5.725   6.797  0.0747  0.2175  0.6756
 9389TIP3   OH249657   5.148   4.449  11.298  0.2099  0.0963 -0.0057
 9389TIP3    H149658   5.167   4.393  11.223 -1.4308 -0.6798  0.1314
 9389TIP3    H249659   5.073   4.502  11.271  1.1131  1.5812  0.2317
 9390TIP3   OH249660   3.385   0.274  13.810  0.3344  0.0047  0.5584
 9390TIP3    H149661   3.302   0.299  13.769  0.0068 -0.5238  0.9011
 9390TIP3    H249662   3.363   0.205  13.871  1.0950 -0.4441  0.3456
 9391TIP3   OH249663   2.744   0.706   0.271  0.3679  0.1485 -0.6983
 9391TIP3    H149664   2.722   0.741   0.357  0.4201  2.6966 -1.6341
 9391TIP3    H249665   2.689   0.756   0.210  1.4028 -0.5490 -2.2638
 9392TIP3   OH249666   5.686   3.197   5.176 -0.2098  0.0410 -0.0286
 9392TIP3    H149667   5.687   3.218   5.083 -1.9310 -0.2882 -0.1526
 9392TIP3    H249668   5.593   3.196   5.200  0.2246  1.3121  1.9769
 9393TIP3   OH249669   3.047   6.115   0.175 -0.0057  0.4528 -0.3566
 9393TIP3    H149670   2.961   6.125   0.134 -0.5085  0.0277  0.5610
 9393TIP3    H249671   3.038   6.036   0.228  1.2169 -0.0659 -0.8946
 9394TIP3   OH249672   5.505   4.257   4.297  0.3234  0.2770 -0.5382
 9394TIP3    H149673   5.452   4.328   4.261 -0.9012 -0.1353  0.3859
 9394TIP3    H249674   5.558   4.299   4.365 -0.6873  0.2823  0.2848
 9395TIP3   OH249675   0.742   3.372   4.158  0.4573 -0.1683 -0.2033
 9395TIP3    H149676   0.788   3.365   4.075  0.6477 -2.4527  0.0177
 9395TIP3    H249677   0.720   3.281   4.181  2.2489  0.0506  3.2061
 9396TIP3   OH249678   0.503   0.297   2.183 -0.4909 -0.4250  0.2171
 9396TIP3    H149679   0.524   0.369   2.241  0.9409 -0.0502 -0.7277
 9396TIP3    H249680   0.466   0.230   2.241 -0.5643  0.5166  1.3020
 9397TIP3   OH249681   0.704   1.346  12.349 -0.1060 -0.0897 -0.3295
 9397TIP3    H149682   0.697   1.438  12.376  1.2496 -0.0239 -0.1701
 9397TIP3    H249683   0.659   1.343  12.265 -1.0504  0.4939  0.1283
 9398TIP3   OH249684   6.683   5.874   0.327  0.1191  0.1584 -0.2484
 9398TIP3    H149685   6.724   5.821   0.259 -0.4372  0.9948 -1.2663
 9398TIP3    H249686   6.756   5.913   0.374  0.5654 -1.7451  0.7787
 9399TIP3   OH249687   0.407   0.625   1.657  0.1003  0.0941  0.4459
 9399TIP3    H149688   0.450   0.633   1.742 -1.4475 -1.1969  1.4254
 9399TIP3    H249689   0.358   0.706   1.648  1.2802  0.7918  0.1634
 9400TIP3   OH249690   6.029   3.771  12.144 -0.3598 -0.1300 -0.2308
 9400TIP3    H149691   5.996   3.682  12.128 -0.1774 -0.0431 -1.1693
 9400TIP3    H249692   5.952   3.827  12.138 -0.1278  0.0606 -2.3229
 9401TIP3   OH249693   0.096   5.521  15.841  0.4420 -0.2373  0.5286
 9401TIP3    H149694   0.032   5.545  15.774  0.2409  2.3229  1.5418
 9401TIP3    H249695   0.158   5.464  15.795 -1.2860 -0.9512 -1.0516
 9402TIP3   OH249696   2.756   6.619   5.414  0.0461 -0.3238 -0.6603
 9402TIP3    H149697   2.734   6.540   5.465  0.4846 -0.5484 -0.8163
 9402TIP3    H249698   2.671   6.653   5.385 -0.2890  0.2670  0.8977
 9403TIP3   OH249699   1.334   4.633  13.924  0.5223  0.0314 -0.5058
 9403TIP3    H149700   1.271   4.652  13.993 -0.6303  1.3389 -1.8496
 9403TIP3    H249701   1.417   4.622  13.970 -0.6169 -1.5955  1.2911
 9404TIP3   OH249702   4.840   1.839  14.823 -0.2051  0.3040 -0.1464
 9404TIP3    H149703   4.889   1.810  14.746  2.7481 -1.9291  2.3476
 9404TIP3    H249704   4.764   1.781  14.826 -1.2793  1.4809 -2.1287
 9405TIP3   OH249705   0.532   5.552  14.410 -0.3107  0.1874  0.0695
 9405TIP3    H149706   0.492   5.637  14.428 -1.8605 -0.7872  1.5188
 9405TIP3    H249707   0.569   5.525  14.494  0.0760 -0.6380 -0.3498
 9406TIP3   OH249708   5.441   4.864  10.503 -0.1127  0.0038  0.4034
 9406TIP3    H149709   5.398   4.950  10.500  0.6734  0.4442  1.2078
 9406TIP3    H249710   5.532   4.884  10.525  0.3054 -0.9737 -0.3912
 9407TIP3   OH249711   5.134   4.224  15.477  0.1357 -0.1437 -0.3419
 9407TIP3    H149712   5.098   4.170  15.406  0.4835  1.0313 -1.4395
 9407TIP3    H249713   5.130   4.167  15.554 -1.0471 -1.1613 -1.1097
 9408TIP3   OH249714   3.722   5.492  14.380 -0.1426 -0.0814 -0.7985
 9408TIP3    H149715   3.714   5.576  14.426  0.5789  0.7351 -2.0981
 9408TIP3    H249716   3.758   5.515  14.294  0.8074 -1.8027 -0.9117
 9409TIP3   OH249717   6.613   2.723   4.549  0.0118  0.2157  0.1820
 9409TIP3    H149718   6.592   2.752   4.460 -2.6108 -1.3722  0.1555
 9409TIP3    H249719   6.677   2.652   4.537 -0.8342 -0.4549 -0.5531
 9410TIP3   OH249720   1.800   2.543  17.107 -0.0200 -0.7396 -0.1252
 9410TIP3    H149721   1.820   2.531  17.200  1.5128 -0.8921 -0.4535
 9410TIP3    H249722   1.818   2.636  17.090  1.9721 -1.1970 -0.7570
 9411TIP3   OH249723   0.961   6.195   4.912  0.1356  0.4266 -0.4688
 9411TIP3    H149724   0.937   6.115   4.959 -1.4019  1.5318  0.7333
 9411TIP3    H249725   0.943   6.265   4.974 -0.1617  1.8225 -2.0712
 9412TIP3   OH249726   1.591   2.633  15.563  0.2294  0.0583 -0.3726
 9412TIP3    H149727   1.649   2.709  15.573 -0.8564  1.2279 -2.3647
 9412TIP3    H249728   1.651   2.559  15.551  1.3167  0.9224 -0.4704
 9413TIP3   OH249729   4.803   4.122   3.230 -0.0862  0.4371  0.1813
 9413TIP3    H149730   4.713   4.153   3.240 -0.7665 -1.4637  0.3008
 9413TIP3    H249731   4.794   4.029   3.210  1.7793  0.6251 -1.9741
 9414TIP3   OH249732   5.135   5.887  16.531  0.5213 -0.4072 -0.3021
 9414TIP3    H149733   5.198   5.877  16.459  0.7368 -1.3552  0.0043
 9414TIP3    H249734   5.098   5.799  16.543  0.3820 -0.2297  0.6433
 9415TIP3   OH249735   3.761   2.103  15.196  0.9034  0.3891 -0.4583
 9415TIP3    H149736   3.806   2.120  15.114  2.0185 -1.2225 -0.2429
 9415TIP3    H249737   3.831   2.081  15.258  0.0821  1.4928  0.9108
 9416TIP3   OH249738   0.791   5.730   4.890 -0.0461 -0.5973  0.5313
 9416TIP3    H149739   0.699   5.732   4.915 -0.4835  0.7350 -1.0110
 9416TIP3    H249740   0.795   5.664   4.821 -0.5747  1.6301 -1.7609
 9417TIP3   OH249741   2.893   5.877   0.260 -0.3116 -0.2367  0.5963
 9417TIP3    H149742   2.893   5.786   0.232  1.0867 -0.1835  0.3075
 9417TIP3    H249743   2.924   5.874   0.351  0.0189 -0.0431  0.4933
 9418TIP3   OH249744   0.374   1.620  16.516  0.3941  0.1149 -0.1062
 9418TIP3    H149745   0.443   1.621  16.450 -1.6387  0.6031 -2.3945
 9418TIP3    H249746   0.417   1.646  16.597  2.6731  1.4589 -1.6356
 9419TIP3   OH249747   1.578   3.632   0.458  0.1739 -0.6287  0.6922
 9419TIP3    H149748   1.657   3.618   0.509  0.3021 -0.1924  0.6140
 9419TIP3    H249749   1.557   3.546   0.422 -0.3295 -1.1086  2.0715
 9420TIP3   OH249750   4.254   5.485  16.678  0.1978 -0.4752  0.8606
 9420TIP3    H149751   4.222   5.489  16.768 -0.1621  0.7658  0.6967
 9420TIP3    H249752   4.349   5.497  16.686  0.5724 -3.1014  1.2584
 9421TIP3   OH249753   3.804   2.782  13.980  0.6127  0.3835 -0.3535
 9421TIP3    H149754   3.804   2.695  13.940  1.2653  0.7241 -1.1017
 9421TIP3    H249755   3.894   2.796  14.008  0.3696  0.5547  0.3749
 9422TIP3   OH249756   1.064   2.445  11.889 -0.0714  0.1634 -0.0150
 9422TIP3    H149757   1.078   2.354  11.913 -1.3396  0.0461  0.3465
 9422TIP3    H249758   1.126   2.461  11.818 -0.9331 -1.4495 -1.1822
 9423TIP3   OH249759   3.937   2.677   2.889 -0.9823  0.0250  0.6754
 9423TIP3    H149760   3.876   2.656   2.960 -2.4358 -1.0344 -0.7905
 9423TIP3    H249761   3.935   2.600   2.832  1.6237  0.0455  0.4398
 9424TIP3   OH249762   4.020   0.257   5.181  0.3239  0.5527  0.2911
 9424TIP3    H149763   4.092   0.223   5.235 -0.7099 -2.0565  0.2003
 9424TIP3    H249764   3.983   0.328   5.233  1.9318  0.8771  1.0690
 9425TIP3   OH249765   5.911   4.442   6.325 -0.0199 -0.2806 -0.3511
 9425TIP3    H149766   5.940   4.516   6.379 -0.1187 -0.3847 -0.1566
 9425TIP3    H249767   5.883   4.482   6.243 -1.8371  0.0995  0.4160
 9426TIP3   OH249768   2.319   0.181  12.525 -0.1280 -0.3358  0.4329
 9426TIP3    H149769   2.395   0.237  12.539 -1.6458  2.1967 -0.6345
 9426TIP3    H249770   2.345   0.121  12.455  1.5515 -1.0400  1.6067
 9427TIP3   OH249771   3.796   2.607  12.029  0.3186 -0.1363  0.1307
 9427TIP3    H149772   3.717   2.581  12.076 -0.3378  1.8992  0.2707
 9427TIP3    H249773   3.859   2.628  12.098  0.4948 -0.3595  0.0395
 9428TIP3   OH249774   2.092   3.685  14.586  0.2716  0.5003 -0.2528
 9428TIP3    H149775   2.121   3.602  14.624 -0.3243 -0.1318 -1.1279
 9428TIP3    H249776   1.998   3.674  14.573  0.1497  1.3963 -0.1983
 9429TIP3   OH249777   4.100   2.947  12.262  0.3871 -0.0333  0.0610
 9429TIP3    H149778   4.116   3.000  12.340 -0.1779 -0.6298  0.5921
 9429TIP3    H249779   4.187   2.920  12.233  0.6278  0.5750  0.2131
 9430TIP3   OH249780   1.814   4.946  15.462 -0.2042 -0.8270 -0.1450
 9430TIP3    H149781   1.748   4.998  15.416  0.6218 -0.1558 -0.5942
 9430TIP3    H249782   1.862   5.010  15.515  1.0914 -1.0439 -1.0200
 9431TIP3   OH249783   6.166   0.482  13.017  0.2396  0.3444 -0.1464
 9431TIP3    H149784   6.258   0.480  13.043 -0.2784  0.9313  1.8761
 9431TIP3    H249785   6.162   0.547  12.948  1.3789  0.1206 -0.4418
 9432TIP3   OH249786   1.187   0.511   2.810 -0.2631 -0.1704 -0.0120
 9432TIP3    H149787   1.206   0.457   2.887 -1.4871 -2.7471 -1.3951
 9432TIP3    H249788   1.129   0.580   2.843  1.7763  0.7554  1.9149
 9433TIP3   OH249789   3.254   0.235  13.459  0.1830 -0.0963  0.0033
 9433TIP3    H149790   3.284   0.187  13.382  0.7481  0.4852 -0.1481
 9433TIP3    H249791   3.214   0.169  13.515  2.6499 -1.1316  0.7010
 9434TIP3   OH249792   1.036   3.171  16.988  0.0626  0.5407  0.2305
 9434TIP3    H149793   1.107   3.188  16.926 -1.1509  1.4749 -0.9748
 9434TIP3    H249794   1.076   3.182  17.074  1.5611  0.2403 -0.3950
 9435TIP3   OH249795   3.643   1.889   0.263  0.4416  0.7742  0.5527
 9435TIP3    H149796   3.657   1.796   0.247  2.7624  1.3206 -1.2296
 9435TIP3    H249797   3.564   1.910   0.213 -1.4876 -0.5803  2.8251
 9436TIP3   OH249798   1.721   4.265  14.359  0.2294  0.2954 -0.0673
 9436TIP3    H149799   1.664   4.245  14.433  0.0045 -1.6230 -0.6931
 9436TIP3    H249800   1.755   4.352  14.377 -2.8198  1.5189  0.4016
 9437TIP3   OH249801   2.768   6.751  15.340 -0.5288 -0.1090 -0.2235
 9437TIP3    H149802   2.770   6.656  15.326 -0.4656 -0.1289 -0.0737
 9437TIP3    H249803   2.684   6.768  15.381 -0.0687 -0.2401  0.7920
 9438TIP3   OH249804   2.575   2.471  16.732 -0.1162 -0.4760  0.4986
 9438TIP3    H149805   2.598   2.456  16.823  1.0613 -0.2336  0.2572
 9438TIP3    H249806   2.482   2.492  16.734 -0.1847 -0.8263  1.5986
 9439TIP3   OH249807   6.372   5.591  16.206  0.9005  0.0755  0.1332
 9439TIP3    H149808   6.300   5.633  16.159  0.3211 -1.3627 -0.3490
 9439TIP3    H249809   6.360   5.619  16.297  0.5473  0.9347 -0.1657
 9440TIP3   OH249810   2.192   4.557  15.268 -0.0760  0.4874 -0.4322
 9440TIP3    H149811   2.161   4.583  15.355 -0.0161 -0.7714 -0.0179
 9440TIP3    H249812   2.280   4.524  15.284 -0.9664 -2.1435 -0.5231
 9441TIP3   OH249813   3.967   4.260   5.696 -0.8418 -0.1392  0.2639
 9441TIP3    H149814   3.997   4.351   5.697 -0.6306 -0.1451 -1.5331
 9441TIP3    H249815   4.024   4.217   5.632 -0.6647 -1.6539  1.3847
 9442TIP3   OH249816   2.587   2.832  11.430  0.0420 -0.6714 -0.4680
 9442TIP3    H149817   2.528   2.758  11.418 -0.1761 -0.8558  1.3900
 9442TIP3    H249818   2.539   2.908  11.397 -1.2003 -0.8533  0.7998
 9443TIP3   OH249819   3.148   2.415   4.775 -0.0740 -0.3060 -0.1903
 9443TIP3    H149820   3.202   2.338   4.797 -0.5682 -0.5587  0.1507
 9443TIP3    H249821   3.165   2.477   4.845  3.6690  1.7203 -2.5291
 9444TIP3   OH249822   5.571   6.037  15.858 -0.1783 -0.0419  0.0897
 9444TIP3    H149823   5.613   6.122  15.869  0.2572 -0.0414 -1.3802
 9444TIP3    H249824   5.481   6.057  15.834  0.0937  0.0422 -0.9188
 9445TIP3   OH249825   0.922   3.560   0.615 -0.3334 -0.0595  0.4521
 9445TIP3    H149826   0.906   3.474   0.653 -0.2109 -1.2479 -1.9827
 9445TIP3    H249827   0.997   3.594   0.665 -0.5691 -1.2158  1.6592
 9446TIP3   OH249828   0.043   2.629  11.986  0.3319  0.4503  0.4533
 9446TIP3    H149829   0.054   2.567  12.058  0.0696  0.6129  0.6378
 9446TIP3    H249830   0.124   2.623  11.935 -0.7925 -2.2075 -1.2192
 9447TIP3   OH249831   0.184   1.062  11.498  0.0833 -0.0135  0.4921
 9447TIP3    H149832   0.172   1.004  11.574  1.1018  0.0147  0.6795
 9447TIP3    H249833   0.160   1.149  11.530 -1.2126 -0.2630  0.2779
 9448TIP3   OH249834   4.736   0.318  16.586  0.2786  0.3041  0.0443
 9448TIP3    H149835   4.788   0.258  16.532  0.6672 -1.7044  2.4421
 9448TIP3    H249836   4.767   0.405  16.561  1.2015 -0.5601 -2.1152
 9449TIP3   OH249837   6.181   6.040   0.426  0.2435  0.5113 -0.2258
 9449TIP3    H149838   6.196   6.080   0.511 -1.6259 -1.3228  1.0472
 9449TIP3    H249839   6.265   6.049   0.380  0.4647  4.2319  0.5611
 9450TIP3   OH249840   4.831   0.084   6.188  0.2048  0.1078  0.0463
 9450TIP3    H149841   4.815   0.124   6.103  0.2886 -1.8674 -0.9565
 9450TIP3    H249842   4.749   0.097   6.236  0.1839  1.3068 -0.2878
 9451TIP3   OH249843   0.908   0.210  16.553 -0.4855 -0.1226  0.2266
 9451TIP3    H149844   0.989   0.243  16.514 -1.5666  0.0611 -1.9976
 9451TIP3    H249845   0.846   0.283  16.547 -0.7629 -0.1203  2.2648
 9452TIP3   OH249846   2.662   6.239   6.242 -0.2104 -0.5758  1.1391
 9452TIP3    H149847   2.728   6.171   6.250  0.6166  0.1972  1.0873
 9452TIP3    H249848   2.622   6.245   6.329 -0.4654 -1.2855  1.0765
 9453TIP3   OH249849   2.789   1.411   2.870 -0.0242 -0.7886  0.2504
 9453TIP3    H149850   2.768   1.336   2.925 -0.1103  0.1057  1.4844
 9453TIP3    H249851   2.729   1.406   2.797 -0.5769 -1.4794  0.7444
 9454TIP3   OH249852   0.228   1.833  14.892  0.5867 -0.7476  0.2765
 9454TIP3    H149853   0.301   1.891  14.917  0.6359 -0.3776 -0.6894
 9454TIP3    H249854   0.151   1.873  14.932  0.7172 -0.3972  0.1786
 9455TIP3   OH249855   3.130   1.357   0.725  0.6921  0.0929  0.4606
 9455TIP3    H149856   3.170   1.427   0.674  1.1554 -0.1283  0.5219
 9455TIP3    H249857   3.202   1.316   0.773  0.4989 -0.7216  0.0788
 9456TIP3   OH249858   3.663   0.634   2.219  0.3454  0.9753 -0.6458
 9456TIP3    H149859   3.654   0.585   2.138  1.6927  0.8282 -0.7241
 9456TIP3    H249860   3.730   0.700   2.201  0.9994  0.6516  0.4672
 9457TIP3   OH249861   0.324   6.122   5.444  0.1466 -0.6676 -0.2274
 9457TIP3    H149862   0.380   6.095   5.371  1.3501 -1.3003  0.8844
 9457TIP3    H249863   0.277   6.042   5.468  1.8137 -1.2068  1.4285
 9458TIP3   OH249864   0.353   4.617   1.525  0.3364  0.3583 -0.3369
 9458TIP3    H149865   0.440   4.656   1.517  0.0793  1.4158  1.3938
 9458TIP3    H249866   0.307   4.643   1.445  1.5830 -0.2180 -1.2772
 9459TIP3   OH249867   0.986   1.105  14.758 -0.2632  0.5715 -0.0379
 9459TIP3    H149868   0.965   1.042  14.689  1.9050  0.3151 -0.5331
 9459TIP3    H249869   1.076   1.084  14.784 -1.2944 -0.0347  3.6447
 9460TIP3   OH249870   3.303   3.931  12.104 -0.0968  0.5968 -0.3521
 9460TIP3    H149871   3.225   3.985  12.115 -0.6525 -0.5694  2.0864
 9460TIP3    H249872   3.339   3.923  12.192  2.4028  0.5002 -1.2984
 9461TIP3   OH249873   0.541   3.708  16.306  0.0231 -0.0830 -0.3579
 9461TIP3    H149874   0.634   3.709  16.332  0.2153 -1.5798 -0.8972
 9461TIP3    H249875   0.538   3.763  16.228  0.4549  0.0117 -0.3139
 9462TIP3   OH249876   6.614   3.704  13.955  0.0048  0.7269  0.0715
 9462TIP3    H149877   6.661   3.783  13.927  0.5491  0.1679 -0.6059
 9462TIP3    H249878   6.583   3.726  14.043  1.0390  1.3197  0.3130
 9463TIP3   OH249879   2.828   6.022  10.564  0.0535  0.6545 -0.1023
 9463TIP3    H149880   2.911   6.069  10.576 -0.2673  1.3682 -0.6532
 9463TIP3    H249881   2.845   5.935  10.602  1.5291  0.2831 -1.4899
 9464TIP3   OH249882   5.293   3.048   5.596  0.1333 -0.0407 -0.2552
 9464TIP3    H149883   5.231   3.090   5.536  0.3616  1.3855  0.4655
 9464TIP3    H249884   5.257   2.960   5.610  0.4333 -0.6849 -2.9937
 9465TIP3   OH249885   6.359   6.029   2.318 -0.6163 -0.0056 -0.1623
 9465TIP3    H149886   6.281   6.040   2.372 -0.3976  0.4498  0.0732
 9465TIP3    H249887   6.356   5.938   2.289 -1.5790  0.1880 -0.7026
 9466TIP3   OH249888   2.609   1.775  16.875  0.5980  0.3175 -0.2326
 9466TIP3    H149889   2.544   1.713  16.906 -0.9760  1.2093 -1.5885
 9466TIP3    H249890   2.654   1.729  16.804 -2.1365  1.3507 -2.8512
 9467TIP3   OH249891   1.965   2.048   4.642 -0.0925  0.2450 -0.1662
 9467TIP3    H149892   1.886   2.073   4.594 -1.4427  1.1418  2.2976
 9467TIP3    H249893   1.936   1.978   4.700  0.6422  1.1602  1.3746
 9468TIP3   OH249894   4.489   4.162   0.265  0.1985 -0.0026  0.2399
 9468TIP3    H149895   4.503   4.077   0.307 -0.9461  0.7301  2.2649
 9468TIP3    H249896   4.426   4.143   0.195  0.1438 -0.8566  0.4994
 9469TIP3   OH249897   6.425   1.339  15.468  0.2104 -0.3022 -0.2922
 9469TIP3    H149898   6.414   1.244  15.469 -0.0015 -0.2804  0.8657
 9469TIP3    H249899   6.341   1.374  15.497  0.8980  0.1481  1.2929
 9470TIP3   OH249900   2.017   2.664   2.477  0.9841  0.4326  0.0247
 9470TIP3    H149901   2.087   2.600   2.465 -0.5544 -1.7999  1.9783
 9470TIP3    H249902   1.942   2.626   2.430  0.5090  1.7369 -0.3057
 9471TIP3   OH249903   2.184   5.201  15.560  0.3106  0.0642 -0.5927
 9471TIP3    H149904   2.247   5.133  15.584 -0.0417 -0.3747 -0.9035
 9471TIP3    H249905   2.218   5.237  15.477  1.2352  1.2126  0.2430
 9472TIP3   OH249906   1.037   6.671   4.557  0.0834 -0.5511  0.2084
 9472TIP3    H149907   1.105   6.709   4.612  0.2717 -0.7425  0.1108
 9472TIP3    H249908   1.052   6.709   4.471 -0.5018  0.1104  0.3903
 9473TIP3   OH249909   5.158   4.404   4.152 -0.7142 -0.5453 -0.0637
 9473TIP3    H149910   5.064   4.413   4.137 -0.6047  0.4494 -0.2159
 9473TIP3    H249911   5.167   4.383   4.245 -0.9829  1.6974  0.5113
 9474TIP3   OH249912   3.114   5.641   4.362  0.0596  0.4722 -0.0313
 9474TIP3    H149913   3.179   5.709   4.341  0.2586 -0.0521 -1.1855
 9474TIP3    H249914   3.153   5.594   4.436  0.1734  1.2594  0.4248
 9475TIP3   OH249915   1.299   3.861   2.494 -0.2573 -0.0327  0.8566
 9475TIP3    H149916   1.238   3.812   2.549 -1.5552  1.3971  0.7620
 9475TIP3    H249917   1.264   3.950   2.492 -0.3231 -0.0098 -2.3139
 9476TIP3   OH249918   5.776   5.912   3.991 -0.5520 -0.1337 -0.5400
 9476TIP3    H149919   5.767   5.827   3.950 -0.1170 -0.7314  0.5601
 9476TIP3    H249920   5.818   5.894   4.075 -1.2596  1.0647  0.0970
 9477TIP3   OH249921   0.946   5.701  11.295 -0.1478  0.2627 -0.5716
 9477TIP3    H149922   0.959   5.783  11.343 -0.6107  0.6427 -1.0837
 9477TIP3    H249923   0.892   5.647  11.353  1.8248 -0.5042  0.6602
 9478TIP3   OH249924   2.728   3.674   4.394  0.0886  0.6331 -0.3396
 9478TIP3    H149925   2.694   3.645   4.478 -0.0295  1.1904 -0.1959
 9478TIP3    H249926   2.674   3.749   4.370 -0.5718 -0.1423 -1.4148
 9479TIP3   OH249927   5.875   1.013   4.982 -0.4370 -0.0282 -0.3444
 9479TIP3    H149928   5.823   0.994   4.904  0.0182 -2.4659 -0.1528
 9479TIP3    H249929   5.876   0.930   5.030  1.1765  0.7769  1.1124
 9480TIP3   OH249930   0.373   0.135   4.404 -0.6359  0.0848 -0.3021
 9480TIP3    H149931   0.313   0.208   4.421  0.9705  1.0780  1.4751
 9480TIP3    H249932   0.375   0.086   4.486  0.0768 -0.6177 -0.7266
 9481TIP3   OH249933   1.106   4.843  10.865  0.1453 -0.1708 -0.6899
 9481TIP3    H149934   1.069   4.755  10.852  1.2442 -0.6494 -0.6820
 9481TIP3    H249935   1.055   4.899  10.807 -0.4586 -0.8428 -0.8258
 9482TIP3   OH249936   2.238   4.499   2.803 -0.5627 -0.1729  0.3108
 9482TIP3    H149937   2.182   4.452   2.741  1.1213 -1.3659 -0.3867
 9482TIP3    H249938   2.310   4.532   2.749  0.1101  0.1605  1.3840
 9483TIP3   OH249939   6.362   2.403  12.966 -0.3483 -0.3597 -0.3320
 9483TIP3    H149940   6.273   2.395  12.931 -0.8405  0.7488  0.5825
 9483TIP3    H249941   6.372   2.325  13.021  0.0602 -1.5851 -2.0478
 9484TIP3   OH249942   0.765   5.372  13.081 -0.0456 -0.0916  0.0437
 9484TIP3    H149943   0.832   5.392  13.146  1.5927 -0.2975 -1.4908
 9484TIP3    H249944   0.712   5.304  13.121  1.9128 -1.3955  0.5849
 9485TIP3   OH249945   2.632   2.594   4.113 -0.0451 -0.5333  0.5063
 9485TIP3    H149946   2.675   2.578   4.197  0.6469 -1.3504  0.0196
 9485TIP3    H249947   2.686   2.546   4.049 -0.2545  0.5000 -0.4741
 9486TIP3   OH249948   2.694   5.319   1.090  0.3597  0.5703 -0.8366
 9486TIP3    H149949   2.665   5.351   1.175 -0.2078 -2.9818  0.4777
 9486TIP3    H249950   2.789   5.334   1.090  0.6168 -0.7567  1.1411
 9487TIP3   OH249951   4.000   2.689   6.326 -0.2010  0.0705  0.3113
 9487TIP3    H149952   4.043   2.738   6.256  2.1774  0.2643  1.7933
 9487TIP3    H249953   4.014   2.597   6.303  0.2783  0.1290  0.3711
 9488TIP3   OH249954   2.879   6.081  14.047  0.3634  0.1231  0.3668
 9488TIP3    H149955   2.881   6.080  13.952 -0.8468 -1.2396  0.3213
 9488TIP3    H249956   2.881   5.989  14.073  2.2559  0.4846  1.7490
 9489TIP3   OH249957   5.662   5.247   1.624  0.1862 -0.5645  0.0018
 9489TIP3    H149958   5.728   5.246   1.694 -0.2596  1.3208  0.5177
 9489TIP3    H249959   5.579   5.229   1.669 -0.1879  1.2657  0.1222
 9490TIP3   OH249960   1.348   3.829  10.335 -0.4006  0.0220 -0.0430
 9490TIP3    H149961   1.395   3.899  10.289 -0.5965  1.6680  2.1061
 9490TIP3    H249962   1.343   3.859  10.426 -2.4431 -1.7888  0.5285
 9491TIP3   OH249963   1.590   1.880   4.916  0.0608  0.1478 -0.1398
 9491TIP3    H149964   1.531   1.881   4.841  0.1843 -0.0276 -0.2417
 9491TIP3    H249965   1.637   1.796   4.909 -1.5893 -0.9992  1.4575
 9492TIP3   OH249966   6.088   5.905  11.857 -0.4866 -0.2255  0.1320
 9492TIP3    H149967   6.154   5.889  11.925 -1.1917 -0.8660  0.6779
 9492TIP3    H249968   6.129   5.872  11.777 -0.7541 -2.1547  0.7401
 9493TIP3   OH249969   5.174   2.762  15.543  0.1707 -0.3317 -0.2843
 9493TIP3    H149970   5.122   2.685  15.565 -0.7740 -0.1178 -1.6481
 9493TIP3    H249971   5.199   2.799  15.628  0.8586 -2.2426  0.4062
 9494TIP3   OH249972   0.435   0.658  16.654  0.2520  0.5342 -0.2092
 9494TIP3    H149973   0.518   0.612  16.658  1.4770  2.6752  1.0106
 9494TIP3    H249974   0.393   0.625  16.574  1.5690 -1.6649 -0.0682
 9495TIP3   OH249975   2.565   4.510   5.140  0.4599 -0.2782  0.2696
 9495TIP3    H149976   2.639   4.559   5.105 -1.5763  1.8273 -1.4893
 9495TIP3    H249977   2.582   4.419   5.116  3.1837 -0.1501  1.3849
 9496TIP3   OH249978   5.872   0.535   1.402  0.1821  0.0708 -0.7731
 9496TIP3    H149979   5.948   0.485   1.433  1.2444  0.8836 -1.9702
 9496TIP3    H249980   5.862   0.606   1.466  0.7008  0.2057 -0.8362
 9497TIP3   OH249981   5.368   2.569   3.395 -0.0080  0.6977 -0.1888
 9497TIP3    H149982   5.371   2.646   3.451 -1.0420  0.3604  0.3519
 9497TIP3    H249983   5.446   2.519   3.418 -0.5110  0.4687  1.1088
 9498TIP3   OH249984   2.536   1.148   6.563 -0.4615 -0.2264 -0.1627
 9498TIP3    H149985   2.474   1.091   6.609  0.9631 -0.8523  1.0527
 9498TIP3    H249986   2.566   1.095   6.489  1.3698 -1.4479  1.3326
 9499TIP3   OH249987   5.031   2.916  16.435  0.5390  0.2262 -0.9923
 9499TIP3    H149988   5.052   2.990  16.378 -0.4706  0.1008 -1.5354
 9499TIP3    H249989   4.944   2.889  16.409  0.2125 -0.0949  0.3449
 9500TIP3   OH249990   4.279   5.498  16.338  0.4650  0.1103 -0.1852
 9500TIP3    H149991   4.202   5.538  16.378  2.2053  0.4043  3.2482
 9500TIP3    H249992   4.342   5.570  16.328  0.8936 -0.4060 -1.3521
 9501TIP3   OH249993   3.002   0.076   3.626  0.2103 -0.3667 -0.1478
 9501TIP3    H149994   3.095   0.098   3.630  0.1814 -0.0504 -0.9237
 9501TIP3    H249995   2.975   0.106   3.539 -1.5679  3.3518  1.4784
 9502TIP3   OH249996   3.828   0.171   4.462  0.6428 -0.3108 -0.0973
 9502TIP3    H149997   3.814   0.092   4.411  3.3987 -1.3567  0.5951
 9502TIP3    H249998   3.851   0.140   4.549  2.6854  1.1671 -0.0360
 9503TIP3   OH249999   4.840   0.624  15.867  0.2751  0.1802  0.0844
 9503TIP3    H150000   4.860   0.660  15.953 -1.6333 -0.3545  0.8026
 9503TIP3    H250001   4.784   0.689  15.826 -0.6687 -0.5748  0.1582
 9504TIP3   OH250002   5.208   2.816   0.453 -0.1635  0.1357 -0.1706
 9504TIP3    H150003   5.190   2.739   0.400 -2.1577 -1.0552  2.0286
 9504TIP3    H250004   5.248   2.782   0.533  0.8346  1.6124 -0.0019
 9505TIP3   OH250005   5.917   0.573  10.420 -0.1521  0.1336 -0.4240
 9505TIP3    H150006   5.900   0.652  10.472  1.0958 -1.4972  2.7533
 9505TIP3    H250007   6.013   0.567  10.415 -0.2272 -0.2775 -2.2166
 9506TIP3   OH250008   6.427   1.851  16.726  0.3375  0.0154  0.0262
 9506TIP3    H150009   6.458   1.939  16.707 -0.7321  0.6528  1.0625
 9506TIP3    H250010   6.359   1.863  16.793  0.2594 -1.6029  0.2976
 9507TIP3   OH250011   3.190   5.567   4.617 -0.2274 -0.4668 -0.2511
 9507TIP3    H150012   3.187   5.472   4.601  0.8151 -0.9931  2.2309
 9507TIP3    H250013   3.218   5.575   4.708 -0.7146  2.2523 -0.2601
 9508TIP3   OH250014   4.294   6.209  11.781  0.6787  0.2237 -0.5300
 9508TIP3    H150015   4.249   6.137  11.737  0.8624  0.7466 -1.6188
 9508TIP3    H250016   4.225   6.255  11.828  0.3574  0.0353 -0.8116
 9509TIP3   OH250017   3.340   1.045   5.665 -0.0901 -0.2645 -1.0560
 9509TIP3    H150018   3.298   1.026   5.581  0.8559 -0.4911 -1.4941
 9509TIP3    H250019   3.273   1.090   5.716 -0.4510  0.5062 -2.1855
 9510TIP3   OH250020   4.709   1.107   0.974 -0.5975  0.5748 -0.1508
 9510TIP3    H150021   4.707   1.019   0.938  0.4786  0.6763 -0.5102
 9510TIP3    H250022   4.735   1.095   1.066  0.2227  0.5441 -0.3748
 9511TIP3   OH250023   2.487   1.288  12.030 -0.2271  0.1027 -0.4432
 9511TIP3    H150024   2.469   1.276  12.123  1.7577 -0.3148 -0.0604
 9511TIP3    H250025   2.455   1.376  12.011 -0.0363  0.4777  0.8312
 9512TIP3   OH250026   5.335   2.301   5.889  0.2963  0.2810 -0.3670
 9512TIP3    H150027   5.302   2.354   5.816 -0.1764 -1.6719 -1.6696
 9512TIP3    H250028   5.420   2.269   5.859  0.0963 -0.5506 -0.0781
 9513TIP3   OH250029   4.745   2.355   1.366  0.1129  0.1646  0.3323
 9513TIP3    H150030   4.776   2.339   1.277  1.6744 -0.8600  1.0057
 9513TIP3    H250031   4.800   2.427   1.397  1.2887 -1.0532  1.2252
 9514TIP3   OH250032   0.441   4.253  15.370  0.3858 -0.3482  0.3807
 9514TIP3    H150033   0.427   4.346  15.386 -1.8471 -0.1961 -1.8522
 9514TIP3    H250034   0.386   4.209  15.436  0.8104 -0.0964  0.9139
 9515TIP3   OH250035   2.230   2.573  16.552  0.5397 -0.4003 -0.1755
 9515TIP3    H150036   2.162   2.632  16.520  1.4448  0.0190 -1.4043
 9515TIP3    H250037   2.190   2.486  16.545 -0.0382 -0.1196 -0.4480
 9516TIP3   OH250038   1.893   0.022  15.692  0.5156 -0.8471 -0.2732
 9516TIP3    H150039   1.842  -0.057  15.679  0.4868 -0.8593 -0.0879
 9516TIP3    H250040   1.849   0.068  15.764  1.0216 -1.0704  0.1786
 9517TIP3   OH250041   1.559   5.572  15.430 -0.6998  0.2110 -0.0733
 9517TIP3    H150042   1.472   5.605  15.452 -0.4042 -0.5768  2.7962
 9517TIP3    H250043   1.617   5.612  15.495  0.6559 -1.1434 -0.3878
 9518TIP3   OH250044   0.986   5.380  16.213  0.2742 -0.7081  0.0261
 9518TIP3    H150045   0.995   5.320  16.287  0.2834  0.4369  0.9729
 9518TIP3    H250046   0.996   5.467  16.251  0.0755 -0.0877 -1.2955
 9519TIP3   OH250047   1.012   1.916   2.641 -0.1517 -0.2406 -0.1230
 9519TIP3    H150048   1.076   1.945   2.576 -2.8131  1.3994 -2.1979
 9519TIP3    H250049   1.014   1.984   2.709  2.9495 -2.1735  2.0368
 9520TIP3   OH250050   2.574   2.565   1.667  0.3988  0.1333  0.0959
 9520TIP3    H150051   2.485   2.577   1.700  0.4325 -0.4681  0.4100
 9520TIP3    H250052   2.624   2.635   1.708  0.5857 -0.9929  1.8822
 9521TIP3   OH250053   4.191   5.716   2.434 -0.1324 -0.3223 -0.2226
 9521TIP3    H150054   4.190   5.707   2.339  0.0104 -2.0807 -0.0787
 9521TIP3    H250055   4.284   5.715   2.458 -0.1167  1.0736 -0.1089
 9522TIP3   OH250056   6.589   3.203   3.843  0.1557  0.2597  0.0753
 9522TIP3    H150057   6.575   3.128   3.785  0.8999  0.0523  0.1493
 9522TIP3    H250058   6.637   3.266   3.789  2.0122 -0.4582  0.8161
 9523TIP3   OH250059   0.258   3.360  13.860 -0.3254 -0.0485  0.3927
 9523TIP3    H150060   0.203   3.282  13.848  0.0161 -0.3986  1.0708
 9523TIP3    H250061   0.214   3.409  13.930 -0.0306 -0.0930  0.6079
 9524TIP3   OH250062   0.423   0.697  16.936 -0.1969 -0.2203  0.4133
 9524TIP3    H150063   0.417   0.706  16.841 -2.5437  0.6247  0.5684
 9524TIP3    H250064   0.423   0.603  16.952  1.1694 -0.3903 -0.4261
 9525TIP3   OH250065   1.313   6.745   1.051  0.0391  0.3447 -0.0812
 9525TIP3    H150066   1.294   6.661   1.010  0.6606  0.0095  0.3247
 9525TIP3    H250067   1.288   6.734   1.142  0.9329  0.3283  0.1634
 9526TIP3   OH250068   1.588   1.006  11.852  0.2407 -0.1740  0.6005
 9526TIP3    H150069   1.643   1.071  11.809  0.7428 -2.2385 -2.1723
 9526TIP3    H250070   1.645   0.965  11.917  0.4738  0.8492  1.0584
 9527TIP3   OH250071   2.794   5.658  11.451 -0.4213  0.2581 -0.2526
 9527TIP3    H150072   2.863   5.593  11.466  0.1600  0.4956 -1.7190
 9527TIP3    H250073   2.751   5.668  11.536  1.0350 -0.2564  0.5718
 9528TIP3   OH250074   0.966   0.666   2.841  0.3355  0.1344  0.2763
 9528TIP3    H150075   0.963   0.758   2.869 -1.0796  0.1016  0.3319
 9528TIP3    H250076   0.974   0.671   2.745  1.7413  0.2862  0.3904
 9529TIP3   OH250077   1.111   6.444   1.244 -0.3423 -0.4004 -0.2335
 9529TIP3    H150078   1.063   6.364   1.222  0.2867 -0.8894  0.1196
 9529TIP3    H250079   1.067   6.513   1.194 -0.2430 -1.1409 -1.3964
 9530TIP3   OH250080   6.511   3.222  11.440 -0.3508 -0.3592  0.4380
 9530TIP3    H150081   6.516   3.202  11.346  0.0419  1.5913  0.0052
 9530TIP3    H250082   6.564   3.301  11.451 -1.7248  0.4131  2.0068
 9531TIP3   OH250083   2.402   0.175  15.220 -0.0508  0.0149 -0.0206
 9531TIP3    H150084   2.423   0.094  15.268  2.3772  0.6955  0.2154
 9531TIP3    H250085   2.358   0.230  15.284  2.1364  0.4642  1.2102
 9532TIP3   OH250086   0.469   3.115   6.069 -0.2116  0.0726  0.5895
 9532TIP3    H150087   0.476   3.043   6.131  1.7778 -1.0272 -0.7982
 9532TIP3    H250088   0.471   3.194   6.124 -0.1102 -0.8876  2.0165
 9533TIP3   OH250089   1.995   5.743   6.079  0.5078  0.1590 -0.4897
 9533TIP3    H150090   1.992   5.688   6.001  1.7785 -0.1409 -0.3479
 9533TIP3    H250091   1.971   5.684   6.150  1.9282 -0.2703 -0.3296
 9534TIP3   OH250092   0.302   3.037  14.797 -0.6882  0.0713 -0.3083
 9534TIP3    H150093   0.315   2.966  14.735 -3.0784 -1.1618  0.4927
 9534TIP3    H250094   0.353   3.110  14.760 -0.0211 -1.3379 -2.3632
 9535TIP3   OH250095   0.166   1.029  15.743 -0.5724 -0.2929 -0.6604
 9535TIP3    H150096   0.184   0.938  15.719  0.7305 -0.0161 -0.8071
 9535TIP3    H250097   0.246   1.076  15.721 -2.1449  1.4487 -3.2993
 9536TIP3   OH250098   0.501   3.995  16.392  0.1015 -0.0222 -0.1683
 9536TIP3    H150099   0.479   4.042  16.312 -0.4540 -1.3221 -0.8102
 9536TIP3    H250100   0.423   4.002  16.446  0.1399  0.0723 -0.1254
 9537TIP3   OH250101   0.180   1.031  12.174  0.6053 -0.3926 -0.2760
 9537TIP3    H150102   0.236   1.028  12.252  0.5191 -0.0316 -0.2004
 9537TIP3    H250103   0.097   1.066  12.205  0.4200 -0.6751 -0.4431
 9538TIP3   OH250104   0.225   2.817   0.409  0.3600 -0.4609  0.1736
 9538TIP3    H150105   0.250   2.780   0.494 -0.1111 -0.9985  0.0847
 9538TIP3    H250106   0.216   2.741   0.352 -0.4728 -0.1927 -0.0596
 9539TIP3   OH250107   5.880   2.360  17.027 -0.6264 -0.2714  0.0268
 9539TIP3    H150108   5.807   2.406  17.069 -1.9013 -1.0143 -1.3048
 9539TIP3    H250109   5.958   2.400  17.066 -1.6167  3.1797 -1.1146
 9540TIP3   OH250110   0.899   6.508  16.971 -0.1063  0.2292  0.4920
 9540TIP3    H150111   0.838   6.570  17.011 -0.2999  1.0567 -0.9984
 9540TIP3    H250112   0.984   6.553  16.974  0.3015 -0.5845  1.8348
 9541TIP3   OH250113   6.501   3.856   1.222 -0.3728  0.1322 -0.4235
 9541TIP3    H150114   6.470   3.868   1.312  0.4435 -1.4195  0.0992
 9541TIP3    H250115   6.565   3.785   1.228  1.2821  1.4206 -1.9060
 9542TIP3   OH250116   0.260   5.774  15.333  0.4033  0.2731  0.3919
 9542TIP3    H150117   0.325   5.715  15.297 -0.0090  0.0398  0.0116
 9542TIP3    H250118   0.290   5.862  15.308  0.4809  0.1556  0.0714
 9543TIP3   OH250119   2.542   5.154  14.554 -0.2363 -0.1937 -0.3235
 9543TIP3    H150120   2.537   5.249  14.561  0.4629 -0.2192  0.6052
 9543TIP3    H250121   2.469   5.131  14.495 -1.9742  0.6937  1.3671
 9544TIP3   OH250122   1.969   0.481   5.077  0.0232  0.3426 -0.1912
 9544TIP3    H150123   2.003   0.555   5.028  2.1299 -0.2211  0.3253
 9544TIP3    H250124   2.033   0.466   5.146 -1.0130 -1.1529  0.5086
 9545TIP3   OH250125   6.498   4.147   3.581 -0.1903 -0.5631  0.0354
 9545TIP3    H150126   6.505   4.066   3.532  1.0329 -1.3457  1.4154
 9545TIP3    H250127   6.588   4.179   3.588 -0.5223  0.3213  0.4646
 9546TIP3   OH250128   0.474   3.752   2.909 -0.2287  0.2005 -0.5990
 9546TIP3    H150129   0.434   3.830   2.947  0.0883  0.4657 -0.8087
 9546TIP3    H250130   0.409   3.683   2.924  0.3068  0.0583  1.3625
 9547TIP3   OH250131   2.619   2.943   0.283  0.0411  0.2660  0.2388
 9547TIP3    H150132   2.662   2.963   0.366  0.4347 -1.1007  0.3869
 9547TIP3    H250133   2.540   2.895   0.307  0.6653 -1.0254 -0.1895
 9548TIP3   OH250134   1.536   6.346  13.719  0.3061  0.4147 -0.2860
 9548TIP3    H150135   1.527   6.422  13.776 -1.7833  1.2133 -1.5613
 9548TIP3    H250136   1.629   6.325  13.720  0.4202  0.7113  2.9472
 9549TIP3   OH250137   1.314   4.690  10.906 -0.1594  0.1288 -0.0913
 9549TIP3    H150138   1.359   4.690  10.822 -1.3394 -1.9419 -0.7723
 9549TIP3    H250139   1.256   4.767  10.902  0.7395  0.8026 -0.5863
 9550TIP3   OH250140   1.922   6.523   5.841 -0.6259  0.6153 -0.4932
 9550TIP3    H150141   1.890   6.513   5.931  0.1392  1.7940 -0.0702
 9550TIP3    H250142   1.845   6.507   5.786 -0.7522 -1.8517  0.2573
 9551TIP3   OH250143   5.212   6.124  14.518 -0.1663 -0.0148 -0.1053
 9551TIP3    H150144   5.235   6.059  14.451 -0.0359  1.0941 -1.1721
 9551TIP3    H250145   5.297   6.153  14.552 -0.2193 -0.2313  0.2216
 9552TIP3   OH250146   6.033   4.391   4.754  0.1965  0.1247  0.2163
 9552TIP3    H150147   5.993   4.441   4.825 -2.0312 -0.4466 -0.5415
 9552TIP3    H250148   6.057   4.307   4.794  1.0716  0.6248  0.7752
 9553TIP3   OH250149   5.237   5.599   0.673  0.5032  0.5362  0.0904
 9553TIP3    H150150   5.214   5.577   0.582  1.7624  2.1271 -0.6540
 9553TIP3    H250151   5.267   5.516   0.710 -0.0688 -0.1536 -0.9320
 9554TIP3   OH250152   3.970   3.201  15.385  0.5903 -0.1076 -0.2670
 9554TIP3    H150153   3.931   3.125  15.430 -0.9025 -0.1728 -1.5850
 9554TIP3    H250154   4.064   3.182  15.384  0.5873 -0.5328  1.9735
 9555TIP3   OH250155   6.382   5.604  15.374  0.3540 -0.0176 -0.1384
 9555TIP3    H150156   6.363   5.667  15.444  0.1140  0.8724 -0.9804
 9555TIP3    H250157   6.296   5.580  15.339  0.5165  0.3547 -0.8132
 9556TIP3   OH250158   5.995   1.622   0.483 -0.3752  0.3937  0.6873
 9556TIP3    H150159   6.019   1.581   0.566 -0.0114 -0.4104  0.2011
 9556TIP3    H250160   5.963   1.550   0.429 -0.3520  0.8576  0.0374
 9557TIP3   OH250161   0.187   6.005  11.856  0.4372  0.2765 -0.6791
 9557TIP3    H150162   0.176   6.098  11.872  3.9990  0.9443 -1.4579
 9557TIP3    H250163   0.249   5.999  11.784  1.8372 -2.6583  0.5842
 9558TIP3   OH250164   3.854   1.517   2.117  0.2011  0.1235  0.0667
 9558TIP3    H150165   3.870   1.436   2.166 -2.4733 -0.3533  0.3029
 9558TIP3    H250166   3.809   1.574   2.180  0.8828  1.3350 -0.5003
 9559TIP3   OH250167   2.453   6.401   6.110  0.2990 -0.1104 -0.3267
 9559TIP3    H150168   2.533   6.374   6.154  1.8157 -0.2657 -2.9869
 9559TIP3    H250169   2.392   6.330   6.125  1.1839 -0.7346  0.4207
 9560TIP3   OH250170   1.593   2.174   4.748  0.2046 -0.1138  0.5733
 9560TIP3    H150171   1.603   2.081   4.769 -1.4890 -0.5273 -0.2934
 9560TIP3    H250172   1.582   2.217   4.833 -0.8518 -0.9714  0.8937
 9561TIP3   OH250173   0.423   2.329   1.958 -0.7528 -0.1460 -0.6330
 9561TIP3    H150174   0.452   2.263   2.020 -0.8701  0.5648  0.1989
 9561TIP3    H250175   0.494   2.393   1.956 -0.2512 -0.7068 -2.0846
 9562TIP3   OH250176   0.485   1.675   2.190 -0.3559  0.1610 -0.2026
 9562TIP3    H150177   0.461   1.598   2.140 -0.3259  1.3826 -2.1851
 9562TIP3    H250178   0.506   1.641   2.277 -2.0684 -1.8270 -0.4834
 9563TIP3   OH250179   0.879   2.745   1.650  0.3632 -0.3536 -0.6431
 9563TIP3    H150180   0.974   2.732   1.658  0.0202 -1.7452  2.9280
 9563TIP3    H250181   0.868   2.840   1.646  1.8632 -0.1431 -0.3115
 9564TIP3   OH250182   6.609   2.522  14.453  0.3531  0.2891 -0.3463
 9564TIP3    H150183   6.658   2.463  14.396 -0.5905  0.5169 -1.4335
 9564TIP3    H250184   6.532   2.548  14.401  0.4247  1.9884  0.3184
 9565TIP3   OH250185   2.143   0.265   1.201  1.0714  0.0575 -0.1077
 9565TIP3    H150186   2.147   0.294   1.110  0.8572  0.5870  0.0473
 9565TIP3    H250187   2.144   0.169   1.196  1.7653  0.0816 -0.6329
 9566TIP3   OH250188   1.510   1.400  11.775 -0.1266 -0.0760 -0.3892
 9566TIP3    H150189   1.483   1.346  11.849  0.0491  0.1222 -0.1786
 9566TIP3    H250190   1.454   1.477  11.780 -1.0619 -0.6680 -1.2678
 9567TIP3   OH250191   5.552   0.430  15.066  0.1519 -0.1318 -0.0677
 9567TIP3    H150192   5.531   0.373  14.992 -1.0635  1.2447 -0.8380
 9567TIP3    H250193   5.471   0.436  15.116 -0.3133  2.2808 -0.9960
 9568TIP3   OH250194   3.501   6.180  12.986  0.3526  0.4502 -0.2497
 9568TIP3    H150195   3.583   6.151  12.946  1.7652  1.7469  1.4973
 9568TIP3    H250196   3.522   6.267  13.021 -1.8021  0.8335  0.1912
 9569TIP3   OH250197   6.462   4.286  15.086  0.2289  0.3556  0.2337
 9569TIP3    H150198   6.419   4.259  15.005  0.7316  1.1845 -0.3300
 9569TIP3    H250199   6.456   4.382  15.085  0.3409  0.3793  1.1239
 9570TIP3   OH250200   2.147   1.345   4.856 -0.3574 -0.3123  0.0580
 9570TIP3    H150201   2.079   1.314   4.916 -1.0388 -0.0439 -0.5506
 9570TIP3    H250202   2.123   1.437   4.839  0.0554 -0.2712 -0.3029
 9571TIP3   OH250203   6.140   6.715   3.702  0.4151  0.2137 -0.0169
 9571TIP3    H150204   6.160   6.622   3.714  1.5314  0.3710 -0.4613
 9571TIP3    H250205   6.121   6.724   3.608 -0.2202  0.3459  0.1209
 9572TIP3   OH250206   5.919   2.044  16.398  0.2165  0.6103  0.2799
 9572TIP3    H150207   6.008   2.058  16.430  0.6869 -0.2719 -0.5724
 9572TIP3    H250208   5.930   2.030  16.304 -0.7828  0.1171  0.2281
 9573TIP3   OH250209   2.392   2.088   4.535 -0.5604 -0.2605 -0.1804
 9573TIP3    H150210   2.391   2.002   4.492 -0.6641 -2.1140  3.2077
 9573TIP3    H250211   2.485   2.105   4.552 -0.6444 -0.4066  0.4339
 9574TIP3   OH250212   2.296   3.860   5.393  0.4087  0.2787  0.1315
 9574TIP3    H150213   2.294   3.824   5.481 -0.4413 -0.4410 -0.1667
 9574TIP3    H250214   2.207   3.889   5.376  0.5159  0.2404 -0.5524
 9575TIP3   OH250215   4.752   5.137   1.618  0.1662 -0.3915 -0.1270
 9575TIP3    H150216   4.778   5.227   1.596  2.1751 -1.0690 -0.7781
 9575TIP3    H250217   4.701   5.107   1.543 -0.0659  0.0217 -0.1364
 9576TIP3   OH250218   6.493   5.503  10.789 -0.0653 -0.2777 -0.8267
 9576TIP3    H150219   6.529   5.421  10.824  0.8631  0.2916 -0.4019
 9576TIP3    H250220   6.570   5.557  10.771 -0.6440  0.3251 -1.5683
 9577TIP3   OH250221   0.206   3.457  16.577 -0.2885  0.0917 -0.1394
 9577TIP3    H150222   0.142   3.502  16.522 -1.0465 -0.0818  0.5909
 9577TIP3    H250223   0.220   3.373  16.533 -2.0762 -0.7051  0.7294
 9578TIP3   OH250224   5.987   2.782  11.209  0.2677  0.0290 -0.6000
 9578TIP3    H150225   6.014   2.705  11.157  0.6894 -0.0583 -0.2589
 9578TIP3    H250226   5.957   2.745  11.292 -0.1106  0.1937 -0.6601
 9579TIP3   OH250227   1.776   6.508  16.519 -0.0143  0.3601 -0.0196
 9579TIP3    H150228   1.720   6.454  16.574 -0.5211  0.9245  0.0261
 9579TIP3    H250229   1.789   6.456  16.440 -0.5098  0.1739  0.0205
 9580TIP3   OH250230   3.292   3.152   2.217 -0.6271  0.1505  0.0698
 9580TIP3    H150231   3.338   3.218   2.267  0.0532  1.4351 -2.0926
 9580TIP3    H250232   3.265   3.086   2.281 -0.5929  2.0920  2.1797
 9581TIP3   OH250233   4.576   2.342   4.599 -0.0947 -0.2971  0.4987
 9581TIP3    H150234   4.539   2.254   4.592  0.2408 -0.3603 -0.7834
 9581TIP3    H250235   4.669   2.328   4.619  0.2547 -0.3035 -1.0076
 9582TIP3   OH250236   5.136   2.085  11.433 -0.3879  0.0763  0.2802
 9582TIP3    H150237   5.174   2.004  11.468  2.2327  0.9036 -0.4725
 9582TIP3    H250238   5.049   2.058  11.401  0.1314 -2.2744  0.6573
 9583TIP3   OH250239   3.709   4.202   3.887  0.0504 -0.4889  0.5497
 9583TIP3    H150240   3.733   4.258   3.960 -2.1728  1.4438 -0.0946
 9583TIP3    H250241   3.635   4.150   3.919 -0.6883  0.0966 -0.1530
 9584TIP3   OH250242   2.934   5.246   4.838  0.7236 -0.1303  0.4924
 9584TIP3    H150243   2.955   5.241   4.744  0.9633  0.6300  0.4964
 9584TIP3    H250244   2.859   5.188   4.849  0.2890  0.2614 -0.3027
 9585TIP3   OH250245   6.192   2.612   2.175  0.0029 -0.3050  0.2962
 9585TIP3    H150246   6.124   2.601   2.241  0.8824  1.4428  1.5783
 9585TIP3    H250247   6.274   2.603   2.224  0.6817  0.8497 -0.5901
 9586TIP3   OH250248   2.336   3.794  14.494  0.1082 -0.3051 -0.3434
 9586TIP3    H150249   2.384   3.714  14.471 -0.8879 -0.7429 -1.0111
 9586TIP3    H250250   2.249   3.762  14.520 -0.1582  0.5375 -0.1913
 9587TIP3   OH250251   5.103   6.604   2.258 -0.2336 -0.6133 -0.2394
 9587TIP3    H150252   5.033   6.668   2.262 -2.7861 -3.2133  0.4398
 9587TIP3    H250253   5.137   6.599   2.347  0.4054  0.1608 -0.4249
 9588TIP3   OH250254   4.366   5.655   3.536 -0.4876 -0.6155 -0.3590
 9588TIP3    H150255   4.395   5.711   3.608 -1.1358 -0.2203 -0.4042
 9588TIP3    H250256   4.447   5.633   3.490  0.0765 -1.7360  1.0820
 9589TIP3   OH250257   4.447   4.589   2.127 -0.3107 -0.6104 -0.2033
 9589TIP3    H150258   4.455   4.506   2.175 -0.5540 -0.3485  0.2966
 9589TIP3    H250259   4.359   4.620   2.148  0.9810  1.6349  2.6961
 9590TIP3   OH250260   0.117   2.234   0.316  0.0501  0.1918  0.2717
 9590TIP3    H150261   0.096   2.286   0.238 -2.4340  0.9016  1.3356
 9590TIP3    H250262   0.111   2.143   0.286  1.3747  0.4483 -0.8652
 9591TIP3   OH250263   6.051   1.244   2.628  0.0576  0.6103 -0.1914
 9591TIP3    H150264   5.973   1.188   2.623  1.2252 -1.0187 -1.3011
 9591TIP3    H250265   6.019   1.331   2.603 -1.3009 -0.1545 -1.3125
 9592TIP3   OH250266   3.544   4.468  15.791  0.0406  0.2212 -0.9327
 9592TIP3    H150267   3.554   4.404  15.721 -1.1584  0.9350 -1.7962
 9592TIP3    H250268   3.533   4.552  15.745 -0.1443  0.7970  0.1249
 9593TIP3   OH250269   3.948   1.079  13.627 -0.0717  0.5322 -0.2337
 9593TIP3    H150270   3.929   1.130  13.705  4.1051  0.0288  1.3546
 9593TIP3    H250271   3.971   0.992  13.659 -0.0252 -0.2454 -2.1980
 9594TIP3   OH250272   4.141   3.805  13.458 -0.6263 -0.0195 -0.5973
 9594TIP3    H150273   4.081   3.781  13.529 -0.3903  1.6241  0.2030
 9594TIP3    H250274   4.094   3.782  13.378 -1.5793 -0.3988  0.0514
 9595TIP3   OH250275   3.201   5.063  14.466  0.1753 -0.5994  0.1119
 9595TIP3    H150276   3.115   5.040  14.500 -0.0851  0.0517 -0.0884
 9595TIP3    H250277   3.183   5.108  14.383  0.7393 -1.0611 -0.2670
 9596TIP3   OH250278   5.172   4.724   3.379  0.1848  0.0976 -0.2879
 9596TIP3    H150279   5.228   4.646   3.390 -0.6177 -0.3296  1.0810
 9596TIP3    H250280   5.171   4.764   3.466 -0.4332  0.9444 -0.6724
 9597TIP3   OH250281   2.177   4.200  13.521  0.4143 -0.2254  0.2391
 9597TIP3    H150282   2.090   4.186  13.557  0.8776 -1.3086  1.0080
 9597TIP3    H250283   2.215   4.268  13.578  0.7845 -1.2220  1.2317
 9598TIP3   OH250284   1.699   4.304   2.564  0.5832  0.1779 -0.0873
 9598TIP3    H150285   1.791   4.322   2.583  1.3066 -1.7736 -1.4057
 9598TIP3    H250286   1.695   4.209   2.553 -1.1355  0.4154 -2.2264
 9599TIP3   OH250287   5.646   6.827  14.238  0.1840 -0.7946  0.4953
 9599TIP3    H150288   5.659   6.886  14.164  0.9608 -1.4635  0.0951
 9599TIP3    H250289   5.596   6.879  14.301  0.7957  0.2789  0.1203
 9600TIP3   OH250290   0.033   6.473  12.556  0.1696  0.3812 -0.0243
 9600TIP3    H150291   0.102   6.518  12.507 -0.0226  1.0195  0.2764
 9600TIP3    H250292  -0.043   6.532  12.549 -0.5812 -0.6378 -0.9684
 9601TIP3   OH250293   1.446   2.737  10.954  0.5313 -0.0446 -0.1403
 9601TIP3    H150294   1.363   2.710  10.993 -0.2299  1.6881 -0.4943
 9601TIP3    H250295   1.502   2.660  10.963 -0.9484 -1.0958  0.5334
 9602TIP3   OH250296   0.258   1.061   0.327  0.2479  0.3475  0.8543
 9602TIP3    H150297   0.262   0.982   0.273  1.3184 -0.4399  2.0157
 9602TIP3    H250298   0.166   1.085   0.329  0.1119  0.0346 -0.7898
 9603TIP3   OH250299   5.890   1.758  14.836 -0.0012 -0.0646 -0.2710
 9603TIP3    H150300   5.950   1.767  14.762 -0.0959 -1.4303 -0.5390
 9603TIP3    H250301   5.805   1.741  14.796 -0.1685 -0.2099  0.1378
 9604TIP3   OH250302   0.517   3.342  16.935 -0.7114 -0.5276  0.5782
 9604TIP3    H150303   0.431   3.351  16.977 -1.0691  0.0094 -0.2426
 9604TIP3    H250304   0.523   3.250  16.911 -1.7249 -0.2680 -0.7326
 9605TIP3   OH250305   0.862   0.426  13.196  0.2864  0.5388  0.3171
 9605TIP3    H150306   0.893   0.445  13.285  0.7794  0.8007  0.0957
 9605TIP3    H250307   0.941   0.400  13.149  0.6489  3.4465 -0.8844
 9606TIP3   OH250308   3.391   0.388  16.959 -0.5470  0.4660  0.9049
 9606TIP3    H150309   3.471   0.366  17.007 -1.0888 -1.6352  0.9343
 9606TIP3    H250310   3.417   0.459  16.900  1.3910 -0.3201  0.7535
 9607TIP3   OH250311   6.160   0.103   4.144  0.3636 -0.1121 -0.7882
 9607TIP3    H150312   6.161   0.021   4.094  0.0116 -0.3875 -0.3416
 9607TIP3    H250313   6.240   0.100   4.196 -0.0353 -0.5355 -0.1888
 9608TIP3   OH250314   4.398   2.382   1.054  0.4239  0.1109  0.1551
 9608TIP3    H150315   4.415   2.381   1.148  1.4852 -1.8691  0.0038
 9608TIP3    H250316   4.456   2.449   1.020  0.0089  0.8679  0.9054
 9609TIP3   OH250317   3.011   6.348  13.520  0.0078 -0.3643  1.0089
 9609TIP3    H150318   2.970   6.369  13.604 -2.0065 -1.5109  0.3669
 9609TIP3    H250319   2.963   6.399  13.455  0.9016 -0.2359  0.4280
 9610TIP3   OH250320   2.881   2.402  16.330 -0.2348  0.0541  0.0236
 9610TIP3    H150321   2.894   2.482  16.280  1.1054 -0.0263  0.2094
 9610TIP3    H250322   2.829   2.429  16.406 -0.2307  0.6345 -0.1788
 9611TIP3   OH250323   1.942   3.643   0.170 -0.1654  0.1596 -0.4881
 9611TIP3    H150324   1.983   3.726   0.195 -0.3529 -0.0671  0.6110
 9611TIP3    H250325   1.942   3.591   0.250 -0.1227 -0.8824 -1.1481
 9612TIP3   OH250326   2.206   0.907  16.571  0.1221  0.3431  0.5802
 9612TIP3    H150327   2.298   0.885  16.588  0.6026 -0.6624 -2.7226
 9612TIP3    H250328   2.205   1.003  16.568  0.5035  0.4846  2.9644
 9613TIP3   OH250329   0.422   0.802   2.249  0.4356 -0.0046  0.0510
 9613TIP3    H150330   0.512   0.779   2.270  0.6001  0.0633 -0.5406
 9613TIP3    H250331   0.370   0.765   2.320  0.7810 -1.4412 -0.4162
 9614TIP3   OH250332   0.122   3.894  11.502 -0.1673  0.2559  0.1310
 9614TIP3    H150333   0.185   3.886  11.573  0.6973 -0.1279 -0.6644
 9614TIP3    H250334   0.174   3.892  11.422 -1.1357  0.4847 -0.5323
 9615TIP3   OH250335   5.926   5.628  13.517 -0.2723 -0.6800 -0.5221
 9615TIP3    H150336   5.969   5.576  13.585  0.4605 -1.2747 -1.4023
 9615TIP3    H250337   5.942   5.719  13.543 -2.5647 -0.8050  1.6500
 9616TIP3   OH250338   1.310   2.520  13.372 -0.4707 -0.3477  0.1036
 9616TIP3    H150339   1.250   2.581  13.330  0.8629  0.9032 -0.0643
 9616TIP3    H250340   1.303   2.539  13.466  0.9060  1.0392 -0.0392
 9617TIP3   OH250341   6.509   1.777   1.565 -0.3247  0.0334 -0.2798
 9617TIP3    H150342   6.567   1.853   1.567  0.7296 -0.6716 -2.2016
 9617TIP3    H250343   6.567   1.701   1.565 -1.2956 -0.7388 -0.4969
 9618TIP3   OH250344   3.485   3.761  11.339  0.0642 -0.6337 -0.0514
 9618TIP3    H150345   3.535   3.836  11.373  0.5222  0.1486 -2.2641
 9618TIP3    H250346   3.394   3.780  11.363  0.2814  0.1842  0.1627
 9619TIP3   OH250347   4.876   4.533   0.712 -0.4856  0.2872 -0.1351
 9619TIP3    H150348   4.837   4.527   0.625 -2.3291 -2.1462  0.7702
 9619TIP3    H250349   4.890   4.627   0.726  0.4882  0.7002 -3.2697
 9620TIP3   OH250350   6.552   1.758  11.143  0.0268  0.4912  0.5280
 9620TIP3    H150351   6.483   1.795  11.088  1.8615  1.3883 -1.3567
 9620TIP3    H250352   6.524   1.668  11.160 -0.2870 -0.1763 -2.7710
 9621TIP3   OH250353   1.563   1.313   5.182  0.5467  0.2290  0.2095
 9621TIP3    H150354   1.569   1.258   5.260 -1.3061 -0.1863  0.1039
 9621TIP3    H250355   1.484   1.365   5.195 -1.1767 -1.5336 -2.3935
 9622TIP3   OH250356   3.083   4.983  16.711  0.3012 -0.4409  0.1546
 9622TIP3    H150357   3.051   5.068  16.681 -1.4576 -0.6019  1.3994
 9622TIP3    H250358   3.008   4.924  16.699  1.3309 -1.7173 -0.2303
 9623TIP3   OH250359   0.705   1.998   0.701  0.4649  0.3475 -0.8548
 9623TIP3    H150360   0.661   1.937   0.759  1.1674  0.4485 -0.1997
 9623TIP3    H250361   0.636   2.058   0.672  0.3630  1.2890  1.1641
 9624TIP3   OH250362   2.277   3.666   5.934 -0.3207  0.1162  0.3148
 9624TIP3    H150363   2.283   3.571   5.928  2.0276  0.1836  0.6569
 9624TIP3    H250364   2.196   3.688   5.889 -1.3984 -2.1091  1.0545
 9625TIP3   OH250365   0.311   5.028   4.731 -0.0788 -0.2075 -0.1171
 9625TIP3    H150366   0.301   4.933   4.726 -0.8904 -0.1484  0.1722
 9625TIP3    H250367   0.373   5.050   4.661 -2.0540 -0.6444 -2.1000
 9626TIP3   OH250368   4.366   3.356  11.972  0.0003 -0.0547 -0.4104
 9626TIP3    H150369   4.316   3.385  11.895  0.3220  0.0404 -0.5837
 9626TIP3    H250370   4.368   3.433  12.028 -0.8931 -0.3436  0.0476
 9627TIP3   OH250371   3.389   0.206   5.230  0.3908 -0.1524 -0.2379
 9627TIP3    H150372   3.300   0.194   5.196  0.1067  1.3756 -0.1123
 9627TIP3    H250373   3.401   0.301   5.231  1.8848 -0.3283  0.1322
 9628TIP3   OH250374   0.187   1.747   1.981  0.1725 -0.5157  0.2840
 9628TIP3    H150375   0.093   1.743   1.961  0.2803 -1.4837 -0.0850
 9628TIP3    H250376   0.226   1.790   1.905 -0.0235  0.3613  0.6652
 9629TIP3   OH250377   4.687   5.309  13.457  0.2428  0.2150  0.0614
 9629TIP3    H150378   4.617   5.368  13.430  0.2055  0.1465  0.0081
 9629TIP3    H250379   4.721   5.272  13.375  0.2956  0.1954  0.0918
 9630TIP3   OH250380   2.283   2.446  13.050 -0.2436  0.0259 -0.4015
 9630TIP3    H150381   2.279   2.410  13.138 -0.9686 -1.3794 -0.9816
 9630TIP3    H250382   2.204   2.499  13.042  0.4224  1.1401  0.1793
 9631TIP3   OH250383   5.819   3.119  13.518  0.1845 -0.5574  0.1686
 9631TIP3    H150384   5.876   3.193  13.537  0.2684 -0.8970  1.3745
 9631TIP3    H250385   5.858   3.046  13.567  0.6382 -1.6446 -1.7243
 9632TIP3   OH250386   3.850   2.910   2.623 -0.0560 -0.3909  0.0510
 9632TIP3    H150387   3.883   2.996   2.598 -1.4910  0.3346  0.5309
 9632TIP3    H250388   3.805   2.878   2.545 -1.6206  0.3886  0.6026
 9633TIP3   OH250389   3.100   4.670  13.145 -0.2300 -0.1322 -0.8065
 9633TIP3    H150390   3.104   4.674  13.049  2.8529 -0.4327 -0.8140
 9633TIP3    H250391   3.174   4.724  13.173 -0.0196 -1.4537  1.3420
 9634TIP3   OH250392   6.432   2.750  13.098 -0.1916 -0.6123  0.0161
 9634TIP3    H150393   6.337   2.754  13.083 -0.1529 -1.2836 -0.4232
 9634TIP3    H250394   6.471   2.766  13.012  0.1409  1.1100  0.4417
 9635TIP3   OH250395   0.782   4.649  13.338  0.2740  0.3426 -0.5278
 9635TIP3    H150396   0.799   4.684  13.426  1.0271  0.1081 -0.5712
 9635TIP3    H250397   0.861   4.669  13.289 -0.7996  2.0258 -1.6788
 9636TIP3   OH250398   6.178   4.372   3.080  0.2013 -0.1289  0.6160
 9636TIP3    H150399   6.146   4.283   3.068 -0.7525  0.3183 -0.4328
 9636TIP3    H250400   6.147   4.397   3.167  1.7073 -1.2785  1.5269
 9637TIP3   OH250401   2.710   5.375  10.606 -0.7733  0.2757 -0.2879
 9637TIP3    H150402   2.751   5.445  10.656 -1.8625  1.1026 -0.5041
 9637TIP3    H250403   2.650   5.333  10.667 -0.2582 -0.3628 -0.2113
 9638TIP3   OH250404   6.477   5.991   1.155  0.2809 -0.3702 -0.1705
 9638TIP3    H150405   6.522   6.012   1.073  0.7940  0.0058  0.1981
 9638TIP3    H250406   6.521   5.913   1.187 -0.0908 -0.6672 -0.3801
 9639TIP3   OH250407   1.567   1.966  13.256 -0.4312 -0.2561  0.6605
 9639TIP3    H150408   1.525   2.004  13.333  0.7239  3.1964 -0.2176
 9639TIP3    H250409   1.514   1.995  13.182  0.8633  0.2757 -0.1084
 9640TIP3   OH250410   1.693   3.003  13.359  0.3162  0.8262 -0.1237
 9640TIP3    H150411   1.686   2.919  13.314 -1.5302  0.8639  0.0189
 9640TIP3    H250412   1.730   2.981  13.444 -1.3746 -0.0820  0.4257
 9641TIP3   OH250413   0.011   2.184  15.162 -0.2714  0.5036  0.1430
 9641TIP3    H150414   0.030   2.153  15.251  1.1725  1.8488  0.3567
 9641TIP3    H250415  -0.072   2.230  15.170 -1.2754 -1.2524  0.2943
 9642TIP3   OH250416   3.801   4.184  15.141 -0.4543 -0.1959  0.8187
 9642TIP3    H150417   3.798   4.260  15.199  2.3349  1.1824 -0.6613
 9642TIP3    H250418   3.886   4.144  15.159 -1.0708 -1.8685  0.2105
 9643TIP3   OH250419   4.060   3.180  16.583 -0.2748  0.1471 -0.0201
 9643TIP3    H150420   4.013   3.256  16.617 -1.5076 -0.8928  0.6967
 9643TIP3    H250421   3.996   3.108  16.586  0.2752 -0.5442 -2.3807
 9644TIP3   OH250422   2.580   2.407   4.617 -0.3536  0.2488 -0.0996
 9644TIP3    H150423   2.614   2.455   4.692 -0.9029  2.6642 -1.2881
 9644TIP3    H250424   2.652   2.351   4.589  0.5681  0.8687  0.9637
 9645TIP3   OH250425   3.759   3.258  14.029  0.2401  0.7549  0.3262
 9645TIP3    H150426   3.707   3.203  13.971  1.1416  0.6755 -0.4440
 9645TIP3    H250427   3.844   3.214  14.035  0.9261  1.9395 -0.1766
 9646TIP3   OH250428   0.365   4.408   4.262 -0.1661  0.0701  0.6098
 9646TIP3    H150429   0.389   4.400   4.354 -0.4032  0.6394  0.7225
 9646TIP3    H250430   0.272   4.426   4.262  0.1620  1.9524  0.3538
 9647TIP3   OH250431   0.463   0.729  14.332  0.1684  0.4338  0.1532
 9647TIP3    H150432   0.504   0.815  14.323 -0.3595  0.8904  1.7715
 9647TIP3    H250433   0.390   0.731  14.270  1.8638  0.0121 -1.9507
 9648TIP3   OH250434   1.419   1.544  14.497  0.4081 -0.0120  0.4870
 9648TIP3    H150435   1.500   1.595  14.498 -0.1394  0.9997 -1.5153
 9648TIP3    H250436   1.416   1.505  14.410 -0.9582 -0.5579  0.7469
 9649TIP3   OH250437   2.597   3.570   4.622 -0.1085 -0.7625 -0.0945
 9649TIP3    H150438   2.502   3.569   4.609 -0.9826  1.2050  4.2896
 9649TIP3    H250439   2.619   3.662   4.636  2.4895 -1.1807 -0.8635
 9650TIP3   OH250440   4.333   2.230   5.227  0.3738 -0.3240 -0.4593
 9650TIP3    H150441   4.347   2.188   5.312 -1.0325 -0.5407 -0.3105
 9650TIP3    H250442   4.259   2.289   5.241  0.3402 -0.1063 -1.4433
 9651TIP3   OH250443   0.048   2.744  13.090  0.2236  0.5179 -0.4103
 9651TIP3    H150444   0.128   2.741  13.143 -0.0837 -0.2102  0.0336
 9651TIP3    H250445   0.012   2.655  13.096 -0.7103  0.8787 -0.4492
 9652TIP3   OH250446   2.293   1.755   4.896  0.1490 -0.2172  0.7618
 9652TIP3    H150447   2.263   1.670   4.928  2.3420 -0.9377  1.0899
 9652TIP3    H250448   2.324   1.801   4.975 -0.7685  0.7953  0.5523
 9653TIP3   OH250449   1.575   0.967   5.629  0.1416 -0.0743  0.3903
 9653TIP3    H150450   1.615   0.903   5.687  0.0292 -0.6130 -0.1127
 9653TIP3    H250451   1.505   1.008   5.681 -1.9729 -2.6355 -0.2110
 9654TIP3   OH250452   4.983   1.519  12.084  0.1725 -0.2149 -0.3736
 9654TIP3    H150453   5.017   1.597  12.039  1.4094 -0.2067  0.5227
 9654TIP3    H250454   4.892   1.513  12.055 -0.1632  1.9737  0.0588
 9655TIP3   OH250455   1.270   4.197   0.348 -0.0882  0.2619  0.2951
 9655TIP3    H150456   1.314   4.240   0.275 -0.4259  0.5637  0.2687
 9655TIP3    H250457   1.190   4.248   0.361 -0.2966 -0.1244  0.5181
 9656TIP3   OH250458   6.058   5.873   1.837 -0.0331  0.6365 -0.4319
 9656TIP3    H150459   5.994   5.926   1.790 -0.9802  0.0734  0.1775
 9656TIP3    H250460   6.140   5.888   1.791 -1.2089 -1.2713 -3.4403
 9657TIP3   OH250461   2.532   0.708   4.871  0.4467 -0.2694 -0.9312
 9657TIP3    H150462   2.598   0.761   4.915  0.4883 -0.5381 -0.6659
 9657TIP3    H250463   2.449   0.745   4.900  0.4636  0.5872 -1.8910
 9658TIP3   OH250464   5.190   3.488  11.059  0.0357 -0.5269  0.6538
 9658TIP3    H150465   5.204   3.469  11.152 -0.7873 -1.2030  0.6552
 9658TIP3    H250466   5.228   3.575  11.046  0.6978 -0.6784  1.4846
 9659TIP3   OH250467   5.817   1.858  13.958  0.6059  0.1949  0.3371
 9659TIP3    H150468   5.803   1.807  14.037  2.0962 -1.4352 -0.3810
 9659TIP3    H250469   5.872   1.931  13.986 -1.2565  1.2899  1.3093
 9660TIP3   OH250470   2.644   2.853  14.101  0.0121  0.6277 -0.2449
 9660TIP3    H150471   2.630   2.835  14.008 -0.8223 -0.1161  0.0100
 9660TIP3    H250472   2.726   2.902  14.104  0.2698  0.2898 -1.3347
 9661TIP3   OH250473   1.840   1.141   2.888 -0.0168 -0.4487 -0.3289
 9661TIP3    H150474   1.828   1.208   2.955  2.2013  0.0086 -0.3232
 9661TIP3    H250475   1.808   1.060   2.929  1.7569 -0.2819  1.5369
 9662TIP3   OH250476   3.512   3.127  10.488 -0.1554 -0.0206 -0.1187
 9662TIP3    H150477   3.540   3.043  10.451 -1.1278 -0.7581  0.7888
 9662TIP3    H250478   3.417   3.121  10.493 -0.2690  1.2413 -0.2456
 9663TIP3   OH250479   0.273   4.599  13.710  0.2969  0.1657 -0.2612
 9663TIP3    H150480   0.364   4.624  13.730 -0.3822  3.0610 -0.2976
 9663TIP3    H250481   0.272   4.588  13.615  0.5653  0.3870 -0.2915
 9664TIP3   OH250482   2.981   0.441  12.675 -0.6174  0.3409  0.1843
 9664TIP3    H150483   2.937   0.430  12.591  0.4462 -4.0015 -0.0737
 9664TIP3    H250484   2.919   0.406  12.739 -0.4562  1.2765  0.8593
 9665TIP3   OH250485   2.978   5.368  15.624  0.7705  0.3850 -0.3139
 9665TIP3    H150486   3.052   5.411  15.580 -1.5275  3.6950 -1.3760
 9665TIP3    H250487   2.930   5.324  15.554  0.5736  0.1144 -0.0126
 9666TIP3   OH250488   6.480   1.580  16.134 -0.3811 -0.2224 -0.3597
 9666TIP3    H150489   6.514   1.589  16.045  1.9781 -0.9644  0.3859
 9666TIP3    H250490   6.543   1.523  16.178 -1.4616  0.1448  1.8024
 9667TIP3   OH250491   0.392   6.818   5.275 -0.1189  0.1852  0.3206
 9667TIP3    H150492   0.304   6.799   5.308 -0.8441  3.8047  0.8870
 9667TIP3    H250493   0.379   6.857   5.189  0.5792  3.0155  1.3678
 9668TIP3   OH250494   3.257   1.500  15.979 -0.7165  0.5196  0.0225
 9668TIP3    H150495   3.267   1.514  16.074  0.5416  0.8084 -0.1373
 9668TIP3    H250496   3.329   1.548  15.940  1.2471 -2.8323 -0.8434
 9669TIP3   OH250497   0.945   1.662   5.959 -0.0137  0.5108  0.0838
 9669TIP3    H150498   0.993   1.734   5.998  2.1317 -1.8056  2.0222
 9669TIP3    H250499   0.859   1.665   6.000  0.1041  1.8054  0.2674
 9670TIP3   OH250500   2.809   4.685   5.260 -0.0211 -0.0180  0.0114
 9670TIP3    H150501   2.818   4.715   5.170  1.6373 -0.9809 -0.1816
 9670TIP3    H250502   2.750   4.748   5.301  1.9745  2.5518 -0.8019
 9671TIP3   OH250503   1.701   0.016   1.576  0.2956  0.1923 -0.3292
 9671TIP3    H150504   1.769  -0.052   1.577  0.1552 -0.0566  2.6085
 9671TIP3    H250505   1.619  -0.033   1.568  0.2967  0.1614 -0.1669
 9672TIP3   OH250506   5.421   1.078  13.279  0.8470 -0.1413 -0.3015
 9672TIP3    H150507   5.416   1.014  13.208  3.2461 -0.0123 -0.6834
 9672TIP3    H250508   5.386   1.033  13.355 -2.0471 -0.1988 -1.5373
 9673TIP3   OH250509   4.939   3.597   1.246 -0.3020  0.2902  0.0059
 9673TIP3    H150510   4.923   3.510   1.210 -2.7087  0.4898  0.4657
 9673TIP3    H250511   5.032   3.597   1.269 -0.5695 -2.6966  1.4465
 9674TIP3   OH250512   4.048   5.753  16.316 -0.7477 -0.5519  0.3057
 9674TIP3    H150513   4.031   5.702  16.395 -0.2366 -0.2661  0.6024
 9674TIP3    H250514   3.977   5.817  16.313 -1.1361 -0.9804  0.1759
 9675TIP3   OH250515   2.615   3.677   3.200 -0.3785  0.1582  0.6117
 9675TIP3    H150516   2.545   3.711   3.146  0.1482  0.2377 -0.0278
 9675TIP3    H250517   2.594   3.707   3.289  1.0066  3.7498 -0.1411
 9676TIP3   OH250518   4.908   5.784   5.336  0.0240  0.3152  0.0302
 9676TIP3    H150519   5.004   5.788   5.326  0.0879 -0.9492 -0.0613
 9676TIP3    H250520   4.888   5.690   5.333 -1.2928  0.5971 -0.5863
 9677TIP3   OH250521   5.422   4.334  12.351 -0.1538  0.4031  0.3986
 9677TIP3    H150522   5.356   4.267  12.332  0.0978  0.2600  0.0303
 9677TIP3    H250523   5.383   4.387  12.421 -1.6660  1.7295 -1.3249
 9678TIP3   OH250524   0.875   0.824   3.280  0.2116 -0.0708  0.1262
 9678TIP3    H150525   0.872   0.804   3.373  0.6163 -0.9283 -0.0331
 9678TIP3    H250526   0.794   0.873   3.264  1.4160  2.5180  1.4230
 9679TIP3   OH250527   0.619   3.321  12.739 -0.2401 -0.2608  0.0379
 9679TIP3    H150528   0.571   3.269  12.804  1.0604 -0.8041  0.6047
 9679TIP3    H250529   0.598   3.280  12.656 -0.3505 -0.8159  0.3317
 9680TIP3   OH250530   2.678   1.359  11.078  0.8386  0.3470 -0.0908
 9680TIP3    H150531   2.745   1.292  11.067 -2.2277 -2.8981 -0.7779
 9680TIP3    H250532   2.662   1.362  11.173 -0.8998 -2.1803 -0.1963
 9681TIP3   OH250533   0.143   2.410   0.031 -0.6534 -0.3470  0.3453
 9681TIP3    H150534   0.156   2.504   0.017  0.0910 -0.6424 -1.1345
 9681TIP3    H250535   0.051   2.395   0.008 -0.7835  0.0078  0.6129
 9682TIP3   OH250536   3.135   0.472   6.347  0.4467 -0.6856 -0.4075
 9682TIP3    H150537   3.224   0.437   6.346  0.2880 -1.1136 -1.8358
 9682TIP3    H250538   3.145   0.564   6.370  1.1850 -0.9012  0.1505
 9683TIP3   OH250539   5.772   3.018  16.973  0.1712 -0.4478  0.0635
 9683TIP3    H150540   5.750   3.107  16.944  0.5857 -0.3076  0.1694
 9683TIP3    H250541   5.756   3.020  17.068  1.7235  0.0057  0.3462
 9684TIP3   OH250542   2.207   1.481  14.447  0.6587  0.1948  0.2942
 9684TIP3    H150543   2.135   1.518  14.396 -0.6916 -1.4539  0.9213
 9684TIP3    H250544   2.207   1.532  14.528 -0.3266 -0.2827  0.6096
 9685TIP3   OH250545   2.512   5.484   2.603 -0.4629  0.1504 -0.1858
 9685TIP3    H150546   2.507   5.521   2.691 -1.6537  0.4197 -0.3565
 9685TIP3    H250547   2.421   5.472   2.576 -0.1943  1.9241 -2.1556
 9686TIP3   OH250548   3.604   2.854   5.361 -0.5780 -0.0832  0.1626
 9686TIP3    H150549   3.615   2.759   5.370 -3.6968 -0.5806 -0.3926
 9686TIP3    H250550   3.510   2.869   5.363 -0.1827  3.1350  0.9758
 9687TIP3   OH250551   3.702   3.435   4.289 -0.4559  1.0117  0.3407
 9687TIP3    H150552   3.760   3.381   4.341  0.2420  1.3252 -0.1017
 9687TIP3    H250553   3.712   3.402   4.200 -0.3875  1.5591  0.1435
 9688TIP3   OH250554   1.979   0.123  15.388 -0.3366 -0.4157 -0.3038
 9688TIP3    H150555   1.997   0.129  15.482 -1.9111  0.3534 -0.0218
 9688TIP3    H250556   1.887   0.099  15.383 -0.1605 -0.8808 -1.6664
 9689TIP3   OH250557   4.609   1.250  16.686  0.4641 -0.6987 -0.5290
 9689TIP3    H150558   4.683   1.300  16.652 -0.1681  0.4916 -0.2093
 9689TIP3    H250559   4.565   1.215  16.609  0.5997 -0.2759 -0.8009
 9690TIP3   OH250560   0.227   4.595  15.157  0.2981 -0.4771  0.4186
 9690TIP3    H150561   0.249   4.511  15.117 -2.6063 -1.1822  0.0696
 9690TIP3    H250562   0.141   4.617  15.121 -0.1347  1.4451  2.3843
 9691TIP3   OH250563   5.477   1.136   5.244  0.7500 -0.8124 -0.4362
 9691TIP3    H150564   5.535   1.209   5.267 -1.0434  0.7933 -0.7222
 9691TIP3    H250565   5.493   1.122   5.150 -1.5109  1.8952 -1.3954
 9692TIP3   OH250566   6.407   4.000   2.678 -0.1993 -0.0682 -0.3753
 9692TIP3    H150567   6.403   4.020   2.771 -0.4988  1.5909 -0.7046
 9692TIP3    H250568   6.491   4.036   2.649 -0.1412 -0.5030 -0.7628
 9693TIP3   OH250569   5.129   2.648  11.712  0.2735  0.3702 -0.0168
 9693TIP3    H150570   5.062   2.698  11.665  1.1889  1.3297 -0.3401
 9693TIP3    H250571   5.083   2.612  11.788 -0.2441  2.4923  0.7560
 9694TIP3   OH250572   2.089   0.720  11.788  0.5255 -0.4553 -0.3740
 9694TIP3    H150573   2.159   0.675  11.741  0.4336  1.6686 -2.7392
 9694TIP3    H250574   2.027   0.650  11.812  1.7031 -1.8974 -1.4125
 9695TIP3   OH250575   4.407   4.805  15.126  0.2922  0.3356 -0.2678
 9695TIP3    H150576   4.333   4.762  15.169  1.2272 -1.0899 -0.0028
 9695TIP3    H250577   4.450   4.735  15.076  1.1383  1.2518 -0.8587
 9696TIP3   OH250578   1.171   0.579   2.179  0.2043  0.2740 -0.3278
 9696TIP3    H150579   1.103   0.538   2.126  1.3787  0.4376 -2.0650
 9696TIP3    H250580   1.196   0.512   2.243 -1.3803  0.1294  0.1608
 9697TIP3   OH250581   3.750   6.552  12.852 -0.0157  0.0421 -0.4032
 9697TIP3    H150582   3.718   6.554  12.942  0.1821  0.8337 -0.3407
 9697TIP3    H250583   3.688   6.497  12.806  0.8049 -1.7659  0.5576
 9698TIP3   OH250584   5.768   5.720   4.615 -0.9836 -0.1005 -0.0395
 9698TIP3    H150585   5.788   5.630   4.590 -0.4729 -0.9483  3.0379
 9698TIP3    H250586   5.701   5.712   4.682  1.3635  1.4713  2.7059
 9699TIP3   OH250587   1.267   2.490  11.685  0.1186 -0.0606  0.4655
 9699TIP3    H150588   1.339   2.486  11.748  0.6211  0.4030 -0.0716
 9699TIP3    H250589   1.303   2.537  11.610  0.0141 -1.8372 -0.7847
 9700TIP3   OH250590   5.918   2.957   2.307  0.5381 -0.0954  0.1457
 9700TIP3    H150591   5.832   2.981   2.340  0.4619  0.4003 -0.3936
 9700TIP3    H250592   5.900   2.914   2.223  0.7345 -1.1772  0.6435
 9701TIP3   OH250593   6.779   5.597  10.753  0.2354 -0.0753 -0.4479
 9701TIP3    H150594   6.791   5.545  10.832 -2.0745 -1.3459 -0.8281
 9701TIP3    H250595   6.797   5.687  10.779  0.6724 -0.6208  1.2070
 9702TIP3   OH250596   6.571   1.074  14.908  0.0988  0.4189  0.6571
 9702TIP3    H150597   6.482   1.040  14.897  0.5674 -0.6967  0.0504
 9702TIP3    H250598   6.582   1.083  15.002 -0.6298  0.4904  0.7402
 9703TIP3   OH250599   0.826   3.749  14.704 -0.1941 -0.5278 -0.1133
 9703TIP3    H150600   0.820   3.762  14.609 -0.0365  0.2989 -0.0184
 9703TIP3    H250601   0.897   3.806  14.732 -1.6440  0.9151  0.8025
 9704TIP3   OH250602   0.614   5.521  11.935 -0.0142  0.6729 -0.1473
 9704TIP3    H150603   0.570   5.522  11.850  3.7928 -1.3665 -2.4097
 9704TIP3    H250604   0.610   5.429  11.962  0.9876  0.8395  0.5950
 9705TIP3   OH250605   2.115   3.473  12.868 -0.0171 -0.1333 -0.1596
 9705TIP3    H150606   2.044   3.505  12.812  1.8418  0.8112 -2.1223
 9705TIP3    H250607   2.132   3.546  12.928 -0.1312 -0.0447 -0.2327
 9706TIP3   OH250608   5.838   2.635  13.534  0.5567  0.1665  0.0440
 9706TIP3    H150609   5.858   2.549  13.497 -1.4786 -0.7504  0.9358
 9706TIP3    H250610   5.745   2.648  13.516  0.8612  2.3246 -0.2738
 9707TIP3   OH250611   0.523   4.939  11.371 -0.0933 -0.0764  0.1926
 9707TIP3    H150612   0.515   4.913  11.462  0.2483 -1.1349 -0.0650
 9707TIP3    H250613   0.589   5.009  11.372  1.3583 -1.4089  0.5476
 9708TIP3   OH250614   0.559   5.200  12.329 -0.4536 -0.0942 -0.1240
 9708TIP3    H150615   0.503   5.155  12.392  0.0937  0.1151  0.5233
 9708TIP3    H250616   0.648   5.169  12.349 -0.1737  0.6309 -0.2128
 9709TIP3   OH250617   2.952   3.242   5.539 -0.2102 -0.6743  0.2969
 9709TIP3    H150618   2.996   3.228   5.456 -0.5037  0.0073  0.0147
 9709TIP3    H250619   3.022   3.244   5.604  0.1333 -0.1395 -0.0774
 9710TIP3   OH250620   6.081   1.478   2.085  0.0952 -0.0177  0.0340
 9710TIP3    H150621   6.115   1.413   2.146 -1.3296 -0.6355  0.2226
 9710TIP3    H250622   5.996   1.443   2.059 -0.2449  1.2798 -0.6715
 9711TIP3   OH250623   0.883   5.712   5.324  0.3792 -0.4773 -0.0957
 9711TIP3    H150624   0.956   5.756   5.280  0.1451  1.0190  0.9592
 9711TIP3    H250625   0.904   5.618   5.316  2.2086 -0.1059 -0.1406
 9712TIP3   OH250626   2.140   4.780   5.566 -0.5677 -0.1914  0.5456
 9712TIP3    H150627   2.201   4.732   5.509 -0.0386  1.0193  0.0523
 9712TIP3    H250628   2.053   4.747   5.540 -0.5548  1.7069 -2.5019
 9713TIP3   OH250629   2.340   6.643   4.200 -0.3892 -0.1202 -0.1297
 9713TIP3    H150630   2.348   6.583   4.274 -0.0903 -1.8926 -1.5404
 9713TIP3    H250631   2.256   6.622   4.161 -0.8928  1.3302  0.1059
 9714TIP3   OH250632   6.553   1.210   0.927  0.1795  0.2924  0.3190
 9714TIP3    H150633   6.546   1.120   0.958 -2.5114 -0.4939 -2.0537
 9714TIP3    H250634   6.486   1.258   0.976  1.2334  0.9211  1.1860
 9715TIP3   OH250635   1.999   3.160   1.365  0.1289  0.5397  0.5146
 9715TIP3    H150636   2.005   3.233   1.426 -0.9031  0.0520  1.2260
 9715TIP3    H250637   1.908   3.132   1.369 -0.4041  1.4805 -2.4281
 9716TIP3   OH250638   5.131   4.062  15.717 -0.2172 -0.3071 -0.1625
 9716TIP3    H150639   5.107   3.985  15.767 -0.1682 -0.5983 -0.5833
 9716TIP3    H250640   5.220   4.045  15.687  0.2263  0.4155  0.7080
 9717TIP3   OH250641   5.362   5.884  15.294 -1.0290  0.3578 -0.0811
 9717TIP3    H150642   5.271   5.852  15.300 -0.7668 -1.0520 -2.4285
 9717TIP3    H250643   5.353   5.979  15.287 -2.2519  0.3195  0.5428
 9718TIP3   OH250644   4.193   3.058  15.598 -0.2168  0.1535 -0.1954
 9718TIP3    H150645   4.192   3.117  15.523 -0.3278 -0.7819 -0.9510
 9718TIP3    H250646   4.104   3.023  15.603 -0.6666  1.3878  1.3605
 9719TIP3   OH250647   6.267   6.622  11.784 -0.4026 -0.0773 -0.2087
 9719TIP3    H150648   6.318   6.687  11.834 -0.9959  0.6259 -0.4939
 9719TIP3    H250649   6.332   6.560  11.751 -0.0485 -0.9278  1.9432
 9720TIP3   OH250650   1.464   5.548  16.670  0.1756  0.2591 -0.0592
 9720TIP3    H150651   1.423   5.475  16.717  1.5082 -0.6702 -0.2736
 9720TIP3    H250652   1.461   5.621  16.731 -1.2384  0.0705  0.1404
 9721TIP3   OH250653   6.658   2.447   3.335  0.1959 -0.4566  0.0506
 9721TIP3    H150654   6.630   2.397   3.412 -1.0207 -0.6482 -0.5054
 9721TIP3    H250655   6.752   2.429   3.328  0.3747 -0.2494  1.6166
 9722TIP3   OH250656   1.765   3.922  14.320 -0.0734  0.1123  0.5045
 9722TIP3    H150657   1.693   3.937  14.381 -0.6496 -0.6102  0.0279
 9722TIP3    H250658   1.828   3.990  14.339 -0.9874  0.8957  0.7913
 9723TIP3   OH250659   3.436   2.275   3.577 -0.2089 -0.7765  0.0408
 9723TIP3    H150660   3.470   2.285   3.488 -0.2179 -2.6890 -0.2179
 9723TIP3    H250661   3.496   2.213   3.619 -1.5903 -1.8112  0.5607
 9724TIP3   OH250662   1.492   2.344   4.572 -0.3482  0.2150  0.4152
 9724TIP3    H150663   1.556   2.304   4.632 -0.1556  1.2417  0.9128
 9724TIP3    H250664   1.524   2.322   4.485 -0.6881 -1.3971  0.6656
 9725TIP3   OH250665   1.230   6.133  16.899 -0.2324  0.0092 -0.4004
 9725TIP3    H150666   1.298   6.199  16.911 -0.0204 -0.2987  0.1829
 9725TIP3    H250667   1.204   6.140  16.807 -0.8543  1.5007 -0.1284
 9726TIP3   OH250668   2.820   4.628  14.435  0.2952  0.3563  0.1805
 9726TIP3    H150669   2.734   4.632  14.477 -0.9058 -0.9507 -1.9899
 9726TIP3    H250670   2.812   4.682  14.357  1.1602 -0.4731 -0.5049
 9727TIP3   OH250671   1.451   2.288   5.434 -0.0924 -0.1727  0.4051
 9727TIP3    H150672   1.386   2.328   5.376  0.5311  0.8444  0.3931
 9727TIP3    H250673   1.535   2.306   5.393  0.1667 -2.4262 -0.1387
 9728TIP3   OH250674   4.116   4.411   1.796  0.1719  0.7689 -0.2815
 9728TIP3    H150675   4.122   4.396   1.701  2.7068  0.5947 -0.1555
 9728TIP3    H250676   4.106   4.506   1.804 -0.0563  0.7872 -0.7012
 9729TIP3   OH250677   1.623   5.953   5.755  0.5635 -0.4680 -0.3854
 9729TIP3    H150678   1.664   5.929   5.672  1.4523  2.5468 -0.9477
 9729TIP3    H250679   1.597   6.044   5.743 -0.8472 -0.4635  2.0907
 9730TIP3   OH250680   5.295   1.082   0.430 -0.0161  0.6397  0.3144
 9730TIP3    H150681   5.230   1.149   0.408 -0.6618  0.4932  1.6582
 9730TIP3    H250682   5.377   1.131   0.440 -0.1805  1.0198 -0.1587
 9731TIP3   OH250683   2.841   6.647  16.767 -0.1536 -0.2494 -0.0886
 9731TIP3    H150684   2.931   6.674  16.752 -0.7064  0.4395 -2.6734
 9731TIP3    H250685   2.795   6.669  16.686 -2.7179 -0.3371  1.2229
 9732TIP3   OH250686   3.652   5.645   1.065 -0.0799  0.5680 -0.6443
 9732TIP3    H150687   3.661   5.710   0.995  2.5510  1.2265  0.1713
 9732TIP3    H250688   3.592   5.686   1.127  0.2051  1.4877 -0.9485
 9733TIP3   OH250689   3.112   5.260   2.805 -0.3668 -0.3612 -0.0268
 9733TIP3    H150690   3.169   5.212   2.745 -0.8046 -1.4362  0.3966
 9733TIP3    H250691   3.092   5.197   2.875 -1.6800  0.1450  0.0768
 9734TIP3   OH250692   2.757   5.794  14.820 -0.4232 -0.6556 -0.2033
 9734TIP3    H150693   2.703   5.870  14.838  1.2179  1.1154 -2.3046
 9734TIP3    H250694   2.824   5.825  14.760  0.6649 -3.6473 -0.7181
 9735TIP3   OH250695   5.869   0.045   0.067 -0.2164 -0.3614  0.4578
 9735TIP3    H150696   5.844   0.132   0.096 -3.4608 -0.6365 -1.0415
 9735TIP3    H250697   5.858   0.047  -0.028  1.0555 -2.0201  0.2253
 9736TIP3   OH250698   5.618   6.295  15.904 -0.4349 -0.1989 -0.1671
 9736TIP3    H150699   5.649   6.367  15.850 -0.4211 -1.6829 -2.2633
 9736TIP3    H250700   5.556   6.336  15.965 -1.1358  1.4807 -1.8849
 9737TIP3   OH250701   1.049   3.438   2.952  0.5089  0.0239  0.0101
 9737TIP3    H150702   1.025   3.514   3.005 -1.5104 -0.3734 -0.2661
 9737TIP3    H250703   0.979   3.429   2.888  0.7112 -2.0408 -0.0023
 9738TIP3   OH250704   1.841   2.278   6.410  0.2859  0.1540  0.1899
 9738TIP3    H150705   1.765   2.252   6.359  0.8556  1.1242 -1.2159
 9738TIP3    H250706   1.903   2.312   6.345  1.7401 -0.1979  1.3431
 9739TIP3   OH250707   3.387   0.640  14.647  0.1942 -0.9609 -0.8745
 9739TIP3    H150708   3.322   0.703  14.615  0.0228 -0.6813  0.0054
 9739TIP3    H250709   3.358   0.619  14.736  0.6548 -1.7396 -0.9028
 9740TIP3   OH250710   4.962   5.107   0.470 -0.2718  0.5337 -0.6692
 9740TIP3    H150711   4.955   5.110   0.375 -0.7616  0.5250 -0.6360
 9740TIP3    H250712   4.877   5.074   0.499  0.3797 -0.9073 -0.3096
 9741TIP3   OH250713   4.033   2.499  15.302  0.1165 -0.1765  0.1080
 9741TIP3    H150714   4.121   2.510  15.336 -0.3294 -0.1621  1.3180
 9741TIP3    H250715   4.044   2.450  15.221  1.1923 -0.5795  0.4855
 9742TIP3   OH250716   1.014   2.745   1.151  0.0478  0.0483  0.6097
 9742TIP3    H150717   0.986   2.836   1.161  0.1352 -0.0303  1.5899
 9742TIP3    H250718   1.109   2.748   1.160  0.1436 -0.0277 -0.2574
 9743TIP3   OH250719   4.815   5.904  14.507 -0.0458  0.1848 -0.2814
 9743TIP3    H150720   4.832   5.923  14.414  0.8231 -1.1862 -0.4454
 9743TIP3    H250721   4.763   5.824  14.506 -0.8297  0.6702  0.4137
 9744TIP3   OH250722   3.695   3.162  11.490  0.2021 -0.5158  0.5020
 9744TIP3    H150723   3.686   3.075  11.528  1.5687 -0.6095  0.6754
 9744TIP3    H250724   3.789   3.182  11.498 -0.4267  2.0586  2.8274
 9745TIP3   OH250725   0.994   4.761   4.859  0.0872  0.5839  1.0269
 9745TIP3    H150726   0.900   4.745   4.857 -0.6394  4.0074  1.5139
 9745TIP3    H250727   1.018   4.778   4.768  0.2063 -0.0363  0.9379
 9746TIP3   OH250728   3.941   6.326   2.541 -0.5428 -0.1887 -0.6199
 9746TIP3    H150729   3.919   6.242   2.581  0.2416  0.1836  0.6438
 9746TIP3    H250730   3.910   6.391   2.604  1.6392  0.3839 -0.0748
 9747TIP3   OH250731   3.391   0.173  11.343  0.0802 -0.7346 -0.3743
 9747TIP3    H150732   3.399   0.078  11.347 -1.8956 -0.9237 -0.1321
 9747TIP3    H250733   3.418   0.195  11.254  0.4086 -1.5353 -0.4853
 9748TIP3   OH250734   2.200   4.356  16.018  0.3133 -0.5467 -0.2353
 9748TIP3    H150735   2.110   4.351  16.051  0.7287 -2.1299  0.7445
 9748TIP3    H250736   2.224   4.448  16.030 -1.1917 -0.0621 -0.6365
 9749TIP3   OH250737   4.805   2.051   5.073  0.0500 -0.5251  0.0779
 9749TIP3    H150738   4.894   2.084   5.083  0.3259 -1.4460  0.8408
 9749TIP3    H250739   4.783   2.070   4.982  0.9653 -0.1431 -0.0796
 9750TIP3   OH250740   4.086   4.745   4.493 -0.7081 -0.2925 -0.6299
 9750TIP3    H150741   4.152   4.767   4.559 -0.7542  0.0599 -0.6998
 9750TIP3    H250742   4.036   4.826   4.481 -0.1324 -0.0818 -1.7587
 9751TIP3   OH250743   4.485   1.025   2.895  0.0998  0.1101  0.1456
 9751TIP3    H150744   4.428   1.013   2.971 -0.6467  0.4819 -0.3445
 9751TIP3    H250745   4.436   1.083   2.838 -0.5824 -2.2628 -1.8571
 9752TIP3   OH250746   6.340   0.305  15.447 -0.1579 -0.2519 -0.7346
 9752TIP3    H150747   6.327   0.260  15.363 -0.3213  0.7146 -1.2345
 9752TIP3    H250748   6.432   0.291  15.467  0.2618  0.7889 -1.8390
 9753TIP3   OH250749   2.801   4.592   4.737  0.8353 -0.4257  0.0998
 9753TIP3    H150750   2.878   4.615   4.789  1.7541 -0.4712 -1.1977
 9753TIP3    H250751   2.817   4.632   4.651  0.0852 -1.6450 -0.6330
 9754TIP3   OH250752   3.405   3.549   4.855 -0.0340 -0.0765  0.2687
 9754TIP3    H150753   3.470   3.551   4.925 -0.6117  0.9054  0.7922
 9754TIP3    H250754   3.328   3.592   4.892 -0.5694 -0.1144 -0.7616
 9755TIP3   OH250755   0.880   3.099  15.341  0.4117  0.1993  0.3233
 9755TIP3    H150756   0.859   3.013  15.377  1.1665 -0.2620 -0.3217
 9755TIP3    H250757   0.808   3.156  15.371 -1.0950 -1.0328 -0.7749
 9756TIP3   OH250758   6.139   4.151  14.323 -0.1443  0.4580  0.3109
 9756TIP3    H150759   6.172   4.224  14.376  1.6516  0.7333 -1.0854
 9756TIP3    H250760   6.217   4.102  14.298 -1.1482 -0.8833 -0.3303
 9757TIP3   OH250761   1.114   3.785  11.681  0.6048 -0.1435  0.0162
 9757TIP3    H150762   1.118   3.782  11.776 -1.3690  0.4282  0.1464
 9757TIP3    H250763   1.054   3.856  11.661  0.8325 -0.3745 -1.6590
 9758TIP3   OH250764   5.374   6.018  12.758  0.0534 -0.5700 -0.0425
 9758TIP3    H150765   5.336   6.101  12.788  0.5321 -0.3272 -0.1066
 9758TIP3    H250766   5.434   5.992  12.829 -0.6068 -1.2186  0.2989
 9759TIP3   OH250767   0.839   6.028   0.936  0.0107 -0.6083 -0.5037
 9759TIP3    H150768   0.928   6.059   0.951 -0.2049 -0.3180  0.2677
 9759TIP3    H250769   0.848   5.933   0.926  0.3304 -0.6887  0.3906
 9760TIP3   OH250770   4.886   5.654   5.048  0.3371 -0.0740 -0.0635
 9760TIP3    H150771   4.963   5.709   5.034  3.0194 -3.5143 -0.1274
 9760TIP3    H250772   4.856   5.631   4.960 -0.3803  0.6935 -0.0333
 9761TIP3   OH250773   1.935   0.740  10.981 -0.2833  0.0795  0.3425
 9761TIP3    H150774   1.992   0.712  10.909 -1.5555 -3.0872  0.4064
 9761TIP3    H250775   1.897   0.822  10.951  2.3535  0.9883 -0.7693
 9762TIP3   OH250776   6.019   0.214  10.664 -0.0985  0.0542  0.2903
 9762TIP3    H150777   6.063   0.252  10.588 -1.2745  1.3477  0.2058
 9762TIP3    H250778   5.928   0.243  10.655 -0.5030 -0.7658  1.5663
 9763TIP3   OH250779   5.240   0.437  14.104 -0.1611  0.2325 -0.0029
 9763TIP3    H150780   5.145   0.446  14.108 -0.2598 -1.0841  2.7236
 9763TIP3    H250781   5.262   0.455  14.012 -3.1056 -0.1732 -0.8911
 9764TIP3   OH250782   0.921   6.638   5.922  0.1483  0.0735  0.0450
 9764TIP3    H150783   0.899   6.590   6.002 -1.0340 -0.3380 -0.4981
 9764TIP3    H250784   0.876   6.722   5.930 -0.6684 -0.2944 -0.5395
 9765TIP3   OH250785   2.084   3.673   3.336  0.2405  0.2541 -0.2628
 9765TIP3    H150786   2.090   3.678   3.241  2.5683  0.7760 -0.1591
 9765TIP3    H250787   2.119   3.587   3.358  0.1899  0.3368  0.1526
 9766TIP3   OH250788   4.658   1.469   0.477  0.0458 -0.1920  0.1007
 9766TIP3    H150789   4.589   1.532   0.497 -1.3947 -1.4483 -0.7620
 9766TIP3    H250790   4.636   1.391   0.527  0.5342 -0.7997 -0.6031
 9767TIP3   OH250791   2.276   1.229   4.159  0.1955 -0.3447  0.4713
 9767TIP3    H150792   2.313   1.165   4.098 -0.9229 -0.1356 -0.4668
 9767TIP3    H250793   2.206   1.271   4.109 -0.0857  0.5399  1.5847
 9768TIP3   OH250794   5.593   4.144   2.331 -0.1267  0.4705 -1.0229
 9768TIP3    H150795   5.637   4.154   2.416 -1.6814  1.6780 -0.2897
 9768TIP3    H250796   5.662   4.118   2.271  0.7524 -2.0521  0.8979
 9769TIP3   OH250797   1.550   2.492  13.587  0.3300 -0.1115  0.4667
 9769TIP3    H150798   1.562   2.447  13.671 -1.7125 -2.9923 -0.6267
 9769TIP3    H250799   1.475   2.549  13.601  0.1805 -0.3625  0.7148
 9770TIP3   OH250800   0.849   1.447   1.199 -0.6311  0.8220  0.1971
 9770TIP3    H150801   0.793   1.434   1.122 -1.9038 -2.8511  1.4978
 9770TIP3    H250802   0.938   1.450   1.163 -1.0374 -2.4364 -1.5018
 9771TIP3   OH250803   6.518   6.227  12.180 -0.0567  0.0844  0.1870
 9771TIP3    H150804   6.587   6.225  12.113  0.8580 -3.3797  1.0640
 9771TIP3    H250805   6.555   6.280  12.250  1.6898 -1.4883  0.5243
 9772TIP3   OH250806   3.132   4.428   0.021 -0.0676  0.0027 -0.9350
 9772TIP3    H150807   3.158   4.473  -0.060  1.3643  0.5205 -0.2306
 9772TIP3    H250808   3.098   4.498   0.077  0.0053 -0.1561 -0.6896
 9773TIP3   OH250809   4.063   1.555   3.102 -0.3510 -0.2956 -0.8256
 9773TIP3    H150810   4.147   1.577   3.142 -1.3644  1.5250  0.4580
 9773TIP3    H250811   4.083   1.483   3.043  1.5582 -2.1193  1.7739
 9774TIP3   OH250812   5.203   3.532  11.836 -0.3160 -0.0561 -0.1263
 9774TIP3    H150813   5.148   3.572  11.769 -0.4863 -1.0864 -0.6204
 9774TIP3    H250814   5.142   3.496  11.900 -0.1902 -0.1975 -0.0844
 9775TIP3   OH250815   2.685   3.368  15.941 -0.1073 -0.1000  0.2028
 9775TIP3    H150816   2.773   3.401  15.925 -0.4804  0.6116 -0.4407
 9775TIP3    H250817   2.670   3.303  15.872 -0.6656  0.9357 -0.6849
 9776TIP3   OH250818   1.593   0.380   3.597 -0.0419 -0.2816  0.0912
 9776TIP3    H150819   1.606   0.395   3.691  0.0053  0.8753 -0.0845
 9776TIP3    H250820   1.670   0.420   3.556 -0.0463 -0.8121 -0.4406
 9777TIP3   OH250821   4.439   4.839  12.925  0.3310  0.5904 -0.2312
 9777TIP3    H150822   4.426   4.770  12.861  0.4547 -0.1326  0.4994
 9777TIP3    H250823   4.527   4.872  12.907  1.0911 -0.8276  0.6585
 9778TIP3   OH250824   6.412   2.806   3.187  0.4620  0.0103 -0.2458
 9778TIP3    H150825   6.407   2.866   3.262 -1.2926  0.7734 -0.9326
 9778TIP3    H250826   6.321   2.787   3.165  0.9323 -3.1279  0.0614
 9779TIP3   OH250827   5.911   1.454   0.271  0.6382 -0.3227  0.0397
 9779TIP3    H150828   6.000   1.421   0.258  1.5148  0.7587  2.6169
 9779TIP3    H250829   5.896   1.513   0.197  1.5538 -1.4500 -1.0959
 9780TIP3   OH250830   3.956   4.510  14.698 -0.0141  0.3016 -0.1655
 9780TIP3    H150831   3.908   4.495  14.617 -2.1701  1.7581  0.7489
 9780TIP3    H250832   3.930   4.438  14.755  0.9107 -0.3059 -0.4978
 9781TIP3   OH250833   5.583   2.711   3.833 -0.5859 -0.0647  0.2174
 9781TIP3    H150834   5.509   2.662   3.869 -1.0919  0.9145  0.5538
 9781TIP3    H250835   5.546   2.795   3.807  0.1584 -0.0273 -0.8230
 9782TIP3   OH250836   0.120   0.997   5.777  0.1483 -0.1680  0.4236
 9782TIP3    H150837   0.191   1.050   5.813  1.4605 -0.8166 -1.0664
 9782TIP3    H250838   0.041   1.033   5.815  1.2883  0.4383  2.3407
 9783TIP3   OH250839   3.111   2.619   1.144 -0.9204  0.1604  0.7300
 9783TIP3    H150840   3.163   2.549   1.184 -0.7297 -0.0272  0.1636
 9783TIP3    H250841   3.176   2.686   1.121 -0.9680  0.0561  0.2949
 9784TIP3   OH250842   3.285   2.642  12.441  0.2581  0.0487 -0.2873
 9784TIP3    H150843   3.220   2.590  12.488  1.4247 -0.4810  0.8194
 9784TIP3    H250844   3.369   2.610  12.473  1.0889  0.6137 -1.7677
 9785TIP3   OH250845   6.470   4.403  11.789 -0.7121  0.2829  0.4222
 9785TIP3    H150846   6.487   4.432  11.699 -1.7492 -0.4912 -0.0467
 9785TIP3    H250847   6.379   4.375  11.788 -0.9345  0.8633  1.8997
 9786TIP3   OH250848   5.697   4.950   0.787  0.0948  0.5363  0.1335
 9786TIP3    H150849   5.786   4.918   0.798 -0.4523 -0.8630  0.7700
 9786TIP3    H250850   5.701   5.042   0.810  1.2377  0.3134  0.8850
 9787TIP3   OH250851   2.423   0.493  15.496 -0.6320 -0.1762 -0.1285
 9787TIP3    H150852   2.377   0.412  15.518  1.3333 -1.5072 -0.7059
 9787TIP3    H250853   2.513   0.479  15.524 -0.1820  1.7257 -0.4717
 9788TIP3   OH250854   1.748   0.659   6.179 -0.5916  0.3741 -0.0496
 9788TIP3    H150855   1.777   0.716   6.250 -0.5787 -0.1346  0.3589
 9788TIP3    H250856   1.688   0.713   6.128  0.9037  1.3813 -0.8010
 9789TIP3   OH250857   4.360   5.024   1.994 -0.5710  0.2336  0.8033
 9789TIP3    H150858   4.300   4.991   1.927  0.1148  1.3628 -0.4033
 9789TIP3    H250859   4.447   4.998   1.964 -0.2164  1.1718  0.9690
 9790TIP3   OH250860   4.232   0.001   3.042  0.2264 -0.1581  0.4485
 9790TIP3    H150861   4.139  -0.019   3.049  0.1275 -0.1516 -0.6923
 9790TIP3    H250862   4.272  -0.044   3.116 -0.5893 -0.7304  0.5555
 9791TIP3   OH250863   1.555   2.097   1.075 -0.1848  0.8604  0.6405
 9791TIP3    H150864   1.568   2.086   0.981 -0.1880  1.6938  0.5360
 9791TIP3    H250865   1.464   2.072   1.090  0.4181 -1.4665  0.8007
 9792TIP3   OH250866   6.781   3.573   2.211 -0.4820 -0.1924 -0.7651
 9792TIP3    H150867   6.735   3.634   2.269 -2.6627 -0.6332 -1.9391
 9792TIP3    H250868   6.785   3.492   2.261  0.4007  0.2392 -0.0910
 9793TIP3   OH250869   4.301   4.070  14.857  0.1078  0.7205  0.4801
 9793TIP3    H150870   4.270   3.990  14.815 -2.1118  2.0351 -0.5794
 9793TIP3    H250871   4.392   4.077  14.830  0.2875 -1.2941  0.3977
 9794TIP3   OH250872   1.337   3.674  16.539 -0.3897  0.0002  0.1694
 9794TIP3    H150873   1.307   3.712  16.621  1.3197 -0.0816  0.8896
 9794TIP3    H250874   1.260   3.631  16.502 -1.5496  1.3366  0.9656
 9795TIP3   OH250875   3.907   0.052  13.702  0.3498  0.5441  0.0447
 9795TIP3    H150876   4.002   0.063  13.692  0.5603 -0.8959  0.2644
 9795TIP3    H250877   3.870   0.133  13.665  1.6336  0.8846 -0.5707
 9796TIP3   OH250878   3.983   4.418   0.848  0.2010  0.3551  0.3189
 9796TIP3    H150879   4.028   4.343   0.888 -0.8327  0.6946  2.2222
 9796TIP3    H250880   3.891   4.392   0.844 -0.2854  1.7230  1.6400
 9797TIP3   OH250881   0.130   0.137   2.497  0.3553  0.1455  0.3443
 9797TIP3    H150882   0.065   0.201   2.468  0.1438 -0.6587 -1.0302
 9797TIP3    H250883   0.079   0.072   2.545  0.5599  0.9149  1.6717
 9798TIP3   OH250884   0.736   1.630   0.013  0.2158  0.1419  0.1844
 9798TIP3    H150885   0.645   1.655   0.002  0.1933 -0.5620 -1.4241
 9798TIP3    H250886   0.742   1.600   0.104 -1.1025  0.3431  0.3508
 9799TIP3   OH250887   1.990   3.600   4.026  0.1435  0.1180  0.4407
 9799TIP3    H150888   2.063   3.589   3.966  0.0161  1.4170  0.0087
 9799TIP3    H250889   1.949   3.682   3.998 -1.4930 -0.5894  0.6479
 9800TIP3   OH250890   4.842   2.618  12.722 -0.3167 -0.1403 -0.0855
 9800TIP3    H150891   4.816   2.582  12.637  0.0483  0.4036 -0.4358
 9800TIP3    H250892   4.798   2.562  12.786 -2.5764  0.8920 -0.6343
 9801TIP3   OH250893   4.953   4.194  14.749  0.0932 -0.2540  0.8118
 9801TIP3    H150894   4.976   4.107  14.782  1.4416 -1.0672 -1.9876
 9801TIP3    H250895   5.017   4.211  14.680 -1.8304  1.7643 -0.6049
 9802TIP3   OH250896   0.044   4.203   5.890 -0.4007  0.4996  0.4117
 9802TIP3    H150897   0.032   4.110   5.908  2.1632 -0.2874 -1.4733
 9802TIP3    H250898   0.052   4.209   5.795 -1.1621  2.7626  0.4282
 9803TIP3   OH250899   5.707   2.391  13.193  0.2951  0.4420  0.2505
 9803TIP3    H150900   5.672   2.373  13.280  1.3588 -2.3183  0.1872
 9803TIP3    H250901   5.799   2.367  13.198  0.4108  0.3249 -1.6218
 9804TIP3   OH250902   5.361   2.135   2.830 -0.5474  0.2716  0.2252
 9804TIP3    H150903   5.329   2.225   2.831  1.8154  1.1815  1.3910
 9804TIP3    H250904   5.438   2.136   2.887  0.0836 -2.2909 -0.4433
 9805TIP3   OH250905   5.421   6.398   4.516  0.4585  0.1434  0.4188
 9805TIP3    H150906   5.425   6.470   4.579  0.9160 -0.5002  1.1490
 9805TIP3    H250907   5.453   6.436   4.434 -0.4307  1.0704  0.4920
 9806TIP3   OH250908   1.957   2.672   0.519  0.0684  0.2054 -0.1736
 9806TIP3    H150909   1.970   2.765   0.500  0.3636  0.3267  0.5708
 9806TIP3    H250910   2.025   2.651   0.583 -0.3181 -0.4034  0.0482
 9807TIP3   OH250911   1.683   5.158  14.534 -0.1543  0.2272  0.0582
 9807TIP3    H150912   1.661   5.197  14.450  1.5370  0.1624 -0.4723
 9807TIP3    H250913   1.772   5.188  14.552  0.9112 -2.5758  0.0444
 9808TIP3   OH250914   1.915   5.232  16.733  0.0371  0.8902 -0.0990
 9808TIP3    H150915   1.942   5.143  16.711  2.1389  1.7156 -1.1460
 9808TIP3    H250916   1.820   5.230  16.727  0.1192 -0.8136 -2.0474
 9809TIP3   OH250917   3.999   1.429   2.502  0.4428  0.0724  0.0663
 9809TIP3    H150918   4.053   1.449   2.425  0.5300 -0.7035 -0.0902
 9809TIP3    H250919   3.939   1.361   2.472 -0.1239  0.3975  0.4495
 9810TIP3   OH250920   2.704   5.687   5.706  0.1706  0.0940 -0.0387
 9810TIP3    H150921   2.637   5.676   5.638 -1.0045  2.8515  0.5210
 9810TIP3    H250922   2.665   5.647   5.784  0.4413 -0.8423 -0.3723
 9811TIP3   OH250923   5.486   1.663   0.141  0.2412  0.0971  0.2015
 9811TIP3    H150924   5.463   1.634   0.229 -1.5782 -0.0417 -0.2838
 9811TIP3    H250925   5.582   1.660   0.139  0.2648 -3.1038  1.1151
 9812TIP3   OH250926   6.035   2.295  16.619  0.2784  0.1195  0.6751
 9812TIP3    H150927   6.062   2.220  16.566  0.9426 -0.0964  1.3149
 9812TIP3    H250928   6.043   2.265  16.709  0.8082  1.0469  0.9433
 9813TIP3   OH250929   3.737   2.166   6.435  0.0585 -0.7956 -0.6589
 9813TIP3    H150930   3.831   2.162   6.450 -0.0171 -1.2555 -0.2843
 9813TIP3    H250931   3.728   2.158   6.340  0.4890  1.2023 -0.9040
 9814TIP3   OH250932   6.310   5.018   5.108  0.5134 -0.1203 -0.0844
 9814TIP3    H150933   6.396   5.049   5.082 -0.3509  0.3824 -2.6151
 9814TIP3    H250934   6.267   5.096   5.143  0.3007  0.2139 -1.0619
 9815TIP3   OH250935   1.485   4.772   0.700 -0.1864 -0.2538 -0.3622
 9815TIP3    H150936   1.421   4.836   0.671 -1.0764 -0.9516  0.0152
 9815TIP3    H250937   1.443   4.687   0.686 -0.1578 -0.6671  1.7516
 9816TIP3   OH250938   2.105   5.042   2.220  0.3389  0.1876  0.6513
 9816TIP3    H150939   2.014   5.064   2.239  0.4498  0.2621  1.1042
 9816TIP3    H250940   2.099   4.961   2.170  0.0831 -0.9391  2.4004
 9817TIP3   OH250941   2.428   4.456  12.714  0.7682  0.5263  0.0366
 9817TIP3    H150942   2.375   4.436  12.637 -1.0199  2.4101  0.6764
 9817TIP3    H250943   2.517   4.434  12.689  0.1115  0.2472 -2.2400
 9818TIP3   OH250944   4.802   3.196   4.516  0.4579  0.1371  0.3142
 9818TIP3    H150945   4.839   3.210   4.603  0.8291 -2.6452  0.6752
 9818TIP3    H250946   4.708   3.194   4.530  0.4405  1.0696  0.3988
 9819TIP3   OH250947   2.500   6.048  17.062 -0.1848 -0.2892 -0.2217
 9819TIP3    H150948   2.458   6.128  17.096  0.5415 -0.5991  1.5179
 9819TIP3    H250949   2.562   6.023  17.131 -1.3010 -3.0786 -0.1152
 9820TIP3   OH250950   2.067   5.448  10.671  0.3737 -0.4005 -0.1818
 9820TIP3    H150951   1.986   5.451  10.620 -0.0685 -0.2330  0.5287
 9820TIP3    H250952   2.118   5.523  10.640 -0.1100 -0.0024 -0.0220
 9821TIP3   OH250953   6.853   0.535   0.541  0.0105 -0.1149  0.3145
 9821TIP3    H150954   6.763   0.537   0.574  0.2720  2.5475  1.0215
 9821TIP3    H250955   6.846   0.570   0.452  0.0571 -2.3815 -0.6639
 9822TIP3   OH250956   3.366   2.284   2.315 -0.0696  0.0682 -0.4120
 9822TIP3    H150957   3.371   2.288   2.220 -1.0531  0.9555 -0.4418
 9822TIP3    H250958   3.457   2.271   2.343  0.1193 -1.1161 -1.4856
 9823TIP3   OH250959   4.586   0.241  10.766  0.6446 -0.1705  0.1275
 9823TIP3    H150960   4.668   0.196  10.743 -0.1659 -1.1585 -0.9468
 9823TIP3    H250961   4.520   0.173  10.764 -0.0246  0.3280  2.4270
 9824TIP3   OH250962   4.312   6.736  11.230 -0.6742 -0.1104 -0.2355
 9824TIP3    H150963   4.265   6.670  11.281 -1.0519 -0.5532 -1.1473
 9824TIP3    H250964   4.382   6.687  11.187 -0.9974  0.0604 -0.9711
 9825TIP3   OH250965   5.862   0.747   2.644 -0.0756 -0.4538 -0.3739
 9825TIP3    H150966   5.853   0.719   2.553  0.2955 -1.0277 -0.2396
 9825TIP3    H250967   5.952   0.724   2.667 -0.2273 -0.4855  0.1970
 9826TIP3   OH250968   3.154   2.601  13.056 -0.4897 -0.5813  0.2769
 9826TIP3    H150969   3.207   2.677  13.033 -0.7777 -0.5622 -0.3367
 9826TIP3    H250970   3.067   2.637  13.074 -0.5920 -0.7491  0.1186
 9827TIP3   OH250971   5.672   2.723   1.208 -0.0335 -0.0477 -0.0969
 9827TIP3    H150972   5.705   2.813   1.203 -1.4219  0.5427  0.7966
 9827TIP3    H250973   5.687   2.687   1.120  0.9827  0.8783 -0.3273
 9828TIP3   OH250974   5.008   5.533  16.864 -0.2023 -0.3256  0.0125
 9828TIP3    H150975   5.011   5.615  16.815 -0.2359  0.1749  0.8178
 9828TIP3    H250976   4.967   5.470  16.805 -0.4154  0.3064 -0.5187
 9829TIP3   OH250977   6.086   4.292   6.150 -0.0572  0.5182 -0.1298
 9829TIP3    H150978   6.106   4.370   6.099 -0.9884  1.3985  0.8080
 9829TIP3    H250979   6.034   4.324   6.224 -2.0131 -1.2041 -0.6732
 9830TIP3   OH250980   2.436   5.298   3.371  0.3786 -0.3985 -0.0830
 9830TIP3    H150981   2.437   5.231   3.440 -0.4580 -0.4763 -0.1355
 9830TIP3    H250982   2.343   5.318   3.359  0.5778  0.2486 -0.5792
 9831TIP3   OH250983   5.183   5.999   4.034 -0.0573  0.0934 -0.2039
 9831TIP3    H150984   5.167   5.980   3.941  0.9009  0.0766 -0.3808
 9831TIP3    H250985   5.098   6.025   4.068 -0.7469 -1.3829 -0.7178
 9832TIP3   OH250986   0.881   5.130  16.132  0.2213  0.6840 -0.0723
 9832TIP3    H150987   0.914   5.219  16.135  0.9683  0.5449 -2.3761
 9832TIP3    H250988   0.801   5.135  16.080  0.3087  0.0167 -0.2908
 9833TIP3   OH250989   0.528   0.603   0.820 -0.3004  0.0516  0.3438
 9833TIP3    H150990   0.572   0.617   0.736  0.1872  1.5848  0.8168
 9833TIP3    H250991   0.553   0.514   0.845  0.4402 -0.0366 -0.6273
 9834TIP3   OH250992   0.523   3.878   5.028  0.3200  0.4813  0.0916
 9834TIP3    H150993   0.458   3.907   4.964 -1.4025  0.6325  1.8347
 9834TIP3    H250994   0.565   3.959   5.058  1.5496  0.3661 -1.2011
 9835TIP3   OH250995   2.273   6.363   1.102  0.2708  0.2531  0.2954
 9835TIP3    H150996   2.227   6.429   1.050  0.6149 -1.3790 -2.2554
 9835TIP3    H250997   2.219   6.353   1.181 -0.7843  2.2175 -0.1247
 9836TIP3   OH250998   1.918   4.145   1.703 -0.1422  0.0479  0.6047
 9836TIP3    H150999   1.880   4.114   1.621 -1.9395 -0.5995  1.6097
 9836TIP3    H251000   1.931   4.239   1.690  0.1222 -0.1445 -0.5985
 9837TIP3   OH251001   5.204   1.381   1.948  0.7564  0.0697  0.3113
 9837TIP3    H151002   5.256   1.446   1.902  2.6602 -0.7571  1.2101
 9837TIP3    H251003   5.250   1.298   1.935 -0.8682 -0.8761  0.3333
 9838TIP3   OH251004   5.954   2.512  14.985  0.4855 -0.5580 -0.1923
 9838TIP3    H151005   5.893   2.446  14.952  1.0605 -1.3377  0.2658
 9838TIP3    H251006   5.911   2.596  14.968 -0.9809 -1.1011  0.6905
 9839TIP3   OH251007   1.528   6.071   1.260  0.0353  0.7741 -0.0214
 9839TIP3    H151008   1.483   6.152   1.284  0.4512  2.1445 -3.3164
 9839TIP3    H251009   1.513   6.062   1.166  3.0498 -0.9829 -0.4678
 9840TIP3   OH251010   4.709   4.418  11.907  0.0224  0.1417  0.2370
 9840TIP3    H151011   4.711   4.462  11.991  0.5207 -1.2412  0.9829
 9840TIP3    H251012   4.780   4.459  11.856 -0.6547  1.3762  0.2524
 9841TIP3   OH251013   2.525   1.477  13.818 -0.0270 -0.5539 -0.2653
 9841TIP3    H151014   2.477   1.554  13.847 -0.1680 -0.4362 -0.7919
 9841TIP3    H251015   2.589   1.511  13.756  2.8266 -0.2754  2.5874
 9842TIP3   OH251016   5.961   1.491   2.992 -0.0939 -0.2343 -0.0065
 9842TIP3    H151017   6.003   1.521   2.911  0.9510  1.4643  1.0953
 9842TIP3    H251018   5.876   1.536   2.993  0.4577  0.8167  0.4718
 9843TIP3   OH251019   5.847   1.221   0.043  0.1087  0.4104  0.3037
 9843TIP3    H151020   5.842   1.201   0.137  0.8870  1.3504  0.5560
 9843TIP3    H251021   5.910   1.157   0.009 -0.2802 -0.0244  0.3863
 9844TIP3   OH251022   6.048   4.560   1.330 -0.3336 -0.1588  0.1306
 9844TIP3    H151023   6.065   4.654   1.322 -1.1393 -0.0223 -0.0817
 9844TIP3    H251024   5.954   4.554   1.347 -0.6770 -1.0114 -1.8576
 9845TIP3   OH251025   0.919   3.717  15.006 -0.1846 -0.1736 -0.1754
 9845TIP3    H151026   0.909   3.646  14.944  0.6969 -0.0790 -0.4342
 9845TIP3    H251027   0.850   3.703  15.071 -0.8028 -0.5405 -0.9102
 9846TIP3   OH251028   5.485   2.015  15.434  0.1914 -0.4512 -0.5083
 9846TIP3    H151029   5.400   1.991  15.397  0.0251  1.4267 -1.4830
 9846TIP3    H251030   5.548   1.959  15.389 -0.4123 -1.0744 -0.5937
 9847TIP3   OH251031   0.826   5.882  12.408 -0.6467  0.2731  0.3882
 9847TIP3    H151032   0.871   5.820  12.352  1.2041  0.5954  1.4206
 9847TIP3    H251033   0.747   5.836  12.437  0.3410 -1.3469  0.6023
 9848TIP3   OH251034   5.903   2.915   4.229  0.0312  0.0461 -0.6999
 9848TIP3    H151035   5.944   2.845   4.280 -0.8039 -1.0164 -1.4600
 9848TIP3    H251036   5.858   2.969   4.294  0.1763 -0.4685 -0.1684
 9849TIP3   OH251037   4.780   4.596  13.282  0.1276  0.9526  0.1043
 9849TIP3    H151038   4.803   4.508  13.251 -0.3370  0.4973  1.0253
 9849TIP3    H251039   4.718   4.628  13.217 -0.5951  0.1340  0.3680
 9850TIP3   OH251040   1.216   5.456  14.003  0.2073 -0.1454  0.7248
 9850TIP3    H151041   1.157   5.499  14.065  0.1472 -1.0339  1.2951
 9850TIP3    H251042   1.273   5.527  13.972  0.9196  0.1466  2.5937
 9851TIP3   OH251043   5.853   2.100   6.158  0.5073  0.3578  0.8354
 9851TIP3    H151044   5.815   2.013   6.144 -3.3056  2.0900 -1.0079
 9851TIP3    H251045   5.838   2.119   6.250 -2.2149  0.4415  0.4449
 9852TIP3   OH251046   1.283   4.066  16.905  0.0461 -0.6492  0.2658
 9852TIP3    H151047   1.320   4.002  16.966  0.7715 -0.4717  0.0250
 9852TIP3    H251048   1.195   4.035  16.887 -0.0732 -0.8572  1.1824
 9853TIP3   OH251049   6.504   6.603  13.506 -0.3046  0.3595  0.0458
 9853TIP3    H151050   6.413   6.626  13.523 -0.5064 -1.6700  2.2877
 9853TIP3    H251051   6.518   6.522  13.554  2.6315  0.4502 -0.4393
 9854TIP3   OH251052   4.432   5.205  14.818 -0.2749 -0.2631 -0.0168
 9854TIP3    H151053   4.340   5.221  14.798 -0.0842 -0.4893 -1.1371
 9854TIP3    H251054   4.480   5.266  14.763  0.2259  1.0812  1.8416
 9855TIP3   OH251055   3.598   1.615  13.480 -0.1743  0.3276 -0.2898
 9855TIP3    H151056   3.663   1.545  13.481  1.1433  1.5081  1.4495
 9855TIP3    H251057   3.552   1.608  13.564  0.3202  1.8138  0.1404
 9856TIP3   OH251058   2.156   5.314  12.344  0.3956 -0.2063 -0.6218
 9856TIP3    H151059   2.192   5.375  12.280 -1.1925  0.8212 -0.6133
 9856TIP3    H251060   2.174   5.355  12.429 -1.0532  0.5284 -0.6344
 9857TIP3   OH251061   4.888   0.709  12.699  0.0955  0.1427 -0.0347
 9857TIP3    H151062   4.903   0.723  12.606 -2.4721  0.6894 -0.4316
 9857TIP3    H251063   4.813   0.764  12.720 -1.6076 -2.5271  1.5283
 9858TIP3   OH251064   2.783   6.053  13.800  0.3608  0.4555  0.2274
 9858TIP3    H151065   2.804   5.975  13.749  1.7986 -0.2669  1.7929
 9858TIP3    H251066   2.690   6.044  13.819  0.7892 -1.8374  1.7549
 9859TIP3   OH251067   1.917   4.436   0.120  0.1175 -0.8753 -0.3535
 9859TIP3    H151068   1.948   4.469   0.204 -0.5172 -0.2995 -0.3382
 9859TIP3    H251069   1.959   4.493   0.055  2.1614 -2.5066 -0.5776
 9860TIP3   OH251070   5.424   1.560  15.193 -0.3592  0.2341 -0.1261
 9860TIP3    H151071   5.480   1.502  15.245 -1.7196 -1.6173 -0.6259
 9860TIP3    H251072   5.414   1.638  15.246  2.3353  0.5034  0.1661
 9861TIP3   OH251073   0.925   3.099   5.138  0.6668  0.1563 -0.5113
 9861TIP3    H151074   0.966   3.038   5.198  0.2228 -0.0741 -0.4354
 9861TIP3    H251075   0.928   3.056   5.053 -0.9033 -0.6077 -0.2135
 9862TIP3   OH251076   0.882   3.375  11.588 -0.0544 -0.1711 -0.1753
 9862TIP3    H151077   0.796   3.343  11.618 -1.3129  1.6414 -1.5868
 9862TIP3    H251078   0.936   3.297  11.583 -1.2966 -1.2495  1.7484
 9863TIP3   OH251079   5.657   1.342   5.243  1.0305 -0.3585 -0.3858
 9863TIP3    H151080   5.723   1.399   5.203 -0.1362  0.6400 -0.9746
 9863TIP3    H251081   5.686   1.332   5.334 -0.4003  4.0763  0.8253
 9864TIP3   OH251082   2.395   4.590   1.481  0.3838 -0.0728  0.6902
 9864TIP3    H151083   2.488   4.606   1.466 -0.0719  1.7394 -0.5910
 9864TIP3    H251084   2.374   4.516   1.425  0.7444  0.5204 -0.2481
 9865TIP3   OH251085   1.050   0.638  13.302  0.3019 -0.5507  0.0183
 9865TIP3    H151086   0.997   0.627  13.224 -1.4746 -0.7098  1.1917
 9865TIP3    H251087   1.043   0.731  13.324  0.8644 -0.4862 -0.0492
 9866TIP3   OH251088   1.907   5.169  15.586 -0.8656  0.1474 -0.4085
 9866TIP3    H151089   1.995   5.190  15.555 -0.9414 -1.7035 -2.0632
 9866TIP3    H251090   1.857   5.248  15.570  0.4563  1.2518  0.5958
 9867TIP3   OH251091   4.557   6.409   1.293 -0.3577 -0.1431 -0.5851
 9867TIP3    H151092   4.563   6.405   1.197 -0.0968  0.4330 -0.5935
 9867TIP3    H251093   4.543   6.318   1.320 -1.2596 -0.2112 -1.2283
 9868TIP3   OH251094   6.186   3.099   2.627  0.4404 -0.4025 -0.3001
 9868TIP3    H151095   6.200   3.082   2.720  2.1901  2.1589  0.0190
 9868TIP3    H251096   6.112   3.160   2.624  0.1566 -0.7543 -0.6313
 9869TIP3   OH251097   2.882   4.303   0.120  0.7352  0.1402  0.5476
 9869TIP3    H151098   2.831   4.367   0.071  0.1706 -1.5001 -1.1494
 9869TIP3    H251099   2.968   4.303   0.078  0.6122 -0.4540  0.2780
 9870TIP3   OH251100   6.855   4.237  17.046 -0.1451 -0.2925 -0.4468
 9870TIP3    H151101   6.806   4.155  17.042  0.8089 -0.8871 -0.2463
 9870TIP3    H251102   6.929   4.225  16.986 -0.1716  0.5468 -0.6660
 9871TIP3   OH251103   6.103   4.121   0.129 -0.8519 -0.5741  0.0634
 9871TIP3    H151104   6.150   4.171   0.062 -1.9182  0.3935  0.0141
 9871TIP3    H251105   6.144   4.034   0.127  0.9549  0.2346  0.0572
 9872TIP3   OH251106   1.001   2.052  13.302 -0.0161 -0.3737 -0.0535
 9872TIP3    H151107   0.984   2.018  13.390  0.0419 -2.7490 -0.8890
 9872TIP3    H251108   1.095   2.039  13.289  0.0141  0.1630 -0.4021
 9873TIP3   OH251109   3.096   2.192  11.642  0.0041  0.1017 -0.0787
 9873TIP3    H151110   3.167   2.202  11.579  0.9179  1.5797  1.1368
 9873TIP3    H251111   3.020   2.231  11.599  0.4033  0.3217 -0.5965
 9874TIP3   OH251112   4.906   6.149  15.335  0.5522 -0.1519 -0.1748
 9874TIP3    H151113   4.854   6.132  15.256  0.2312  0.6687 -0.1472
 9874TIP3    H251114   4.956   6.228  15.314  0.4832  0.0561  0.4425
 9875TIP3   OH251115   0.654   2.776  16.926  0.2405 -0.3525  0.2074
 9875TIP3    H151116   0.634   2.728  17.006  0.7420 -0.6620  0.1490
 9875TIP3    H251117   0.749   2.771  16.919  0.1263 -1.1712 -0.9338
 9876TIP3   OH251118   5.616   0.866  13.280  0.2141 -0.1602 -0.7400
 9876TIP3    H151119   5.539   0.902  13.235  1.2042  0.9422 -1.6139
 9876TIP3    H251120   5.616   0.773  13.258 -0.6848 -0.1100 -0.9930
 9877TIP3   OH251121   0.110   0.502   5.111  0.0647 -0.7388 -0.2033
 9877TIP3    H151122   0.117   0.491   5.206 -0.5663  1.8269  0.2315
 9877TIP3    H251123   0.155   0.585   5.094 -1.9623  0.1269 -1.7712
 9878TIP3   OH251124   5.380   3.794  16.178 -0.0382 -0.2041 -0.3483
 9878TIP3    H151125   5.449   3.860  16.180 -0.6800  0.4552  0.5383
 9878TIP3    H251126   5.300   3.843  16.160 -0.2689 -0.9919 -1.6487
 9879TIP3   OH251127   1.617   4.913   4.180  0.3094  0.5863 -0.1240
 9879TIP3    H151128   1.603   4.837   4.123  1.1387 -0.3248  0.8342
 9879TIP3    H251129   1.542   4.912   4.239  0.8683 -0.2161  0.6207
 9880TIP3   OH251130   2.947   2.332  11.294 -0.0788 -0.5689 -0.1313
 9880TIP3    H151131   2.907   2.282  11.365 -0.0401 -0.9776 -0.3923
 9880TIP3    H251132   2.935   2.277  11.216  1.6338 -1.0592 -0.0919
 9881TIP3   OH251133   1.052   2.252  14.448 -0.1519 -0.4677  0.2756
 9881TIP3    H151134   1.018   2.217  14.366 -0.2842 -0.7233  0.4387
 9881TIP3    H251135   1.039   2.181  14.512 -0.0524 -0.2714  0.5161
 9882TIP3   OH251136   0.620   5.748  12.546 -0.0189  0.3297  0.6044
 9882TIP3    H151137   0.657   5.677  12.600  1.6535  0.8400  0.1942
 9882TIP3    H251138   0.554   5.789  12.602  0.0589 -0.5911  1.4007
 9883TIP3   OH251139   6.611   5.471  16.017 -0.4914  0.0453  0.1200
 9883TIP3    H151140   6.541   5.420  15.978  0.5109 -0.4532 -1.1054
 9883TIP3    H251141   6.569   5.553  16.045 -1.7903 -0.7632  0.6290
 9884TIP3   OH251142   2.460   2.492  14.500  0.1967  0.1959 -0.8770
 9884TIP3    H151143   2.473   2.541  14.419  1.6357  0.0986 -0.7269
 9884TIP3    H251144   2.510   2.411  14.489  1.8062  0.8934  0.6981
 9885TIP3   OH251145   5.011   2.256  14.937  0.7101 -0.6940  0.0598
 9885TIP3    H151146   4.920   2.228  14.942  0.1063  1.2011  0.5494
 9885TIP3    H251147   5.058   2.195  14.994 -0.3199 -1.3924  0.1953
 9886TIP3   OH251148   3.651   6.041  14.182 -0.1978 -0.4769  0.2402
 9886TIP3    H151149   3.587   6.051  14.111 -1.7994 -0.0927  1.6896
 9886TIP3    H251150   3.601   6.050  14.262  2.0086  2.2717  1.5022
 9887TIP3   OH251151   4.166   4.775   5.952  0.1620  0.5177 -0.3543
 9887TIP3    H151152   4.185   4.701   5.895 -0.9098 -0.1120  0.0860
 9887TIP3    H251153   4.137   4.735   6.035 -0.7433  1.4107 -0.2193
 9888TIP3   OH251154   6.032   6.684   1.746 -0.4886  0.3703  0.0505
 9888TIP3    H151155   6.106   6.636   1.708 -1.2206  0.7539 -2.0077
 9888TIP3    H251156   5.966   6.684   1.677 -2.4245  0.0857  1.8179
 9889TIP3   OH251157   3.784   1.813  11.157 -0.2598 -0.4195 -0.4389
 9889TIP3    H151158   3.865   1.795  11.109  0.4782 -1.3131  1.0765
 9889TIP3    H251159   3.756   1.900  11.126  2.5144  0.9555  0.5951
 9890TIP3   OH251160   6.586   5.641   0.794 -0.6049 -0.4161 -0.5253
 9890TIP3    H151161   6.661   5.699   0.804 -2.0664  1.4066  0.7281
 9890TIP3    H251162   6.552   5.661   0.707 -1.2450  0.8687 -0.0052
 9891TIP3   OH251163   0.651   3.414  15.910 -0.3288 -0.3763  0.3719
 9891TIP3    H151164   0.704   3.391  15.834  0.2807 -0.9832  0.9680
 9891TIP3    H251165   0.561   3.397  15.882 -0.1607 -0.0277 -0.4066
 9892TIP3   OH251166   1.120   6.182   5.399 -0.1778  1.2058  0.0226
 9892TIP3    H151167   1.133   6.093   5.431 -0.3752  0.8887 -0.7338
 9892TIP3    H251168   1.056   6.172   5.328  1.1461  1.6833 -1.3037
 9893TIP3   OH251169   5.645   0.530  10.566  0.1411  0.1033  0.1675
 9893TIP3    H151170   5.608   0.594  10.505  0.0130 -0.2650 -0.1485
 9893TIP3    H251171   5.730   0.507  10.528  0.6798  0.9095  0.8668
 9894TIP3   OH251172   4.502   3.223   5.619 -0.0669  0.1758  0.1669
 9894TIP3    H151173   4.575   3.162   5.629 -0.2292 -0.2756 -1.1704
 9894TIP3    H251174   4.430   3.181   5.666 -0.7545 -1.7415 -2.4050
 9895TIP3   OH251175   0.864   3.039  15.694  0.2526 -0.5378  0.2102
 9895TIP3    H151176   0.852   3.132  15.714  1.4125 -0.4484  0.5571
 9895TIP3    H251177   0.785   3.015  15.647  1.3323  1.5196 -3.0118
 9896TIP3   OH251178   0.555   0.732   3.814  0.0175 -0.2308  0.3822
 9896TIP3    H151179   0.467   0.696   3.825 -0.3427  0.0121 -1.4809
 9896TIP3    H251180   0.579   0.763   3.902 -0.0471 -3.9471  1.9295
 9897TIP3   OH251181   3.413   3.461   2.849  0.7056 -0.4249 -0.0957
 9897TIP3    H151182   3.426   3.385   2.905  0.6015  0.1212  0.6835
 9897TIP3    H251183   3.319   3.466   2.836  0.7246 -0.5152 -0.2781
 9898TIP3   OH251184   0.038   5.539  13.412 -0.1999 -0.2172  0.3287
 9898TIP3    H151185   0.124   5.557  13.374  0.1357  1.1623  1.6494
 9898TIP3    H251186   0.028   5.444  13.404  1.3563 -0.3790 -0.0411
 9899TIP3   OH251187   0.794   3.293  15.007 -0.6398  0.0005  0.8727
 9899TIP3    H151188   0.814   3.289  14.913 -1.4884  1.2516  0.6133
 9899TIP3    H251189   0.871   3.336  15.045 -0.3970 -0.2899  0.7125
 9900TIP3   OH251190   5.266   0.573   1.664 -0.5957  0.4189  0.3794
 9900TIP3    H151191   5.309   0.492   1.638 -0.7508  0.7854 -1.1386
 9900TIP3    H251192   5.322   0.610   1.731 -0.5222 -0.9344  1.0889
 9901TIP3   OH251193   4.693   5.600  12.410 -0.6912 -0.3733  0.0936
 9901TIP3    H151194   4.661   5.617  12.499 -1.0364  0.0679 -0.1103
 9901TIP3    H251195   4.618   5.620  12.354  0.0600  1.0931 -0.4277
 9902TIP3   OH251196   1.608   1.940   4.032 -0.0007 -0.0583 -0.1411
 9902TIP3    H151197   1.590   1.942   3.938 -1.1990 -0.2329  0.0674
 9902TIP3    H251198   1.698   1.969   4.040  0.4631 -1.0659 -1.4313
 9903TIP3   OH251199   5.131   6.851  11.608  0.4238  0.0897 -0.0053
 9903TIP3    H151200   5.118   6.905  11.530  0.4078 -0.7150 -0.5740
 9903TIP3    H251201   5.045   6.814  11.627  0.3186  0.6917  0.7069
 9904TIP3   OH251202   6.472   2.564   1.028 -0.5173  0.1398 -0.2656
 9904TIP3    H151203   6.536   2.494   1.038 -0.4407  0.3766  1.0011
 9904TIP3    H251204   6.455   2.567   0.934 -0.7384 -1.7769 -0.3339
 9905TIP3   OH251205   4.286   4.682  11.155 -0.2464  0.0939  0.2164
 9905TIP3    H151206   4.233   4.605  11.134  0.7804 -0.3206 -1.0021
 9905TIP3    H251207   4.263   4.746  11.087  0.3796  0.1137  0.0166
 9906TIP3   OH251208   5.469   1.916   0.746 -0.3601  0.1661 -0.2034
 9906TIP3    H151209   5.460   1.836   0.694  0.2202 -0.7250  1.0210
 9906TIP3    H251210   5.563   1.936   0.742 -0.2809  0.0041  0.5871
 9907TIP3   OH251211   4.394   2.613   0.476  0.3347  0.8555 -0.1667
 9907TIP3    H151212   4.477   2.628   0.431 -0.1364 -0.0171 -1.3766
 9907TIP3    H251213   4.410   2.539   0.534  0.5596  1.1017  0.0927
 9908TIP3   OH251214   2.113   0.232   3.578 -0.0699 -0.4954 -0.4470
 9908TIP3    H151215   2.107   0.203   3.487 -0.4348 -0.4198 -0.4478
 9908TIP3    H251216   2.186   0.294   3.579 -0.5283  0.0532 -0.8335
 9909TIP3   OH251217   5.536   2.672   1.785 -0.3132 -0.6235 -0.2653
 9909TIP3    H151218   5.537   2.645   1.693  0.2761 -0.4317 -0.3203
 9909TIP3    H251219   5.496   2.759   1.784 -0.3848 -0.6573 -0.3308
 9910TIP3   OH251220   3.857   0.112  14.138  0.0286 -0.3000  0.1826
 9910TIP3    H151221   3.938   0.106  14.188 -0.5992  1.7032  1.5674
 9910TIP3    H251222   3.789   0.122  14.204 -1.0554  0.4721 -1.0072
 9911TIP3   OH251223   1.293   2.788   1.840 -0.1867  0.4259 -0.0288
 9911TIP3    H151224   1.302   2.754   1.929 -0.7051 -0.0006 -0.1366
 9911TIP3    H251225   1.286   2.710   1.786 -1.4380  0.7026 -0.2804
 9912TIP3   OH251226   4.637   0.469  16.113 -0.1104 -0.0933  0.6469
 9912TIP3    H151227   4.574   0.413  16.158  0.3173  0.4144  1.9370
 9912TIP3    H251228   4.602   0.479  16.025 -0.4057 -2.0462  0.5000
 9913TIP3   OH251229   2.555   0.222  11.258 -0.1179 -0.4287 -0.2931
 9913TIP3    H151230   2.568   0.145  11.204  0.6446  0.5888 -1.6066
 9913TIP3    H251231   2.521   0.288  11.198  0.8777  0.7741  0.4243
 9914TIP3   OH251232   0.176   1.589  12.434 -0.0627 -0.3751  0.2524
 9914TIP3    H151233   0.214   1.646  12.501  0.5540  0.2796 -0.6359
 9914TIP3    H251234   0.103   1.639  12.398  1.0460  0.2894 -1.1740
 9915TIP3   OH251235   3.227   1.822   5.741  0.7361  0.3214 -0.7306
 9915TIP3    H151236   3.203   1.883   5.810  1.0243 -0.6210  0.2209
 9915TIP3    H251237   3.307   1.780   5.772  1.2338  0.3410 -1.9308
 9916TIP3   OH251238   4.419   2.792   3.073 -0.3086  0.6721  0.3068
 9916TIP3    H151239   4.391   2.866   3.019 -0.5911 -1.2276 -2.3829
 9916TIP3    H251240   4.506   2.770   3.039 -0.4252 -0.5128  0.7218
 9917TIP3   OH251241   6.579   3.163   5.114  0.0820  0.4921 -0.1341
 9917TIP3    H151242   6.498   3.112   5.109 -0.0572  0.8330 -2.0987
 9917TIP3    H251243   6.551   3.254   5.108  0.4586  0.7472  1.6426
 9918TIP3   OH251244   3.321   5.311   3.045  0.2584 -0.1846  0.2604
 9918TIP3    H151245   3.304   5.338   2.954 -0.7697  1.7888  0.9607
 9918TIP3    H251246   3.413   5.334   3.060  0.5194 -0.8028 -0.3639
 9919TIP3   OH251247   4.168   4.097   1.734  0.1936 -0.1031 -0.4583
 9919TIP3    H151248   4.216   4.031   1.783  0.6725  1.3099  1.0659
 9919TIP3    H251249   4.220   4.177   1.744 -1.0465  0.8227 -1.1031
 9920TIP3   OH251250   3.045   1.289  16.213 -0.0361  0.1946 -0.0200
 9920TIP3    H151251   3.133   1.264  16.242 -0.0801 -0.1326 -0.1622
 9920TIP3    H251252   3.014   1.213  16.164  1.7838  2.1876 -4.9306
 9921TIP3   OH251253   6.256   1.171   4.209  0.2912  0.3367 -0.2164
 9921TIP3    H151254   6.218   1.213   4.132 -0.1050 -0.6693 -0.5985
 9921TIP3    H251255   6.294   1.090   4.175  0.9620  0.3458  0.5008
 9922TIP3   OH251256   6.350   3.730   6.679  0.0537 -0.8561  0.8222
 9922TIP3    H151257   6.442   3.744   6.701 -0.1839  0.8045  0.8879
 9922TIP3    H251258   6.350   3.655   6.619  1.5719 -0.2375  0.0052
 9923TIP3   OH251259   0.291   4.531  11.618 -0.2446  0.5754 -0.2317
 9923TIP3    H151260   0.275   4.619  11.582  1.0382  0.5041 -1.0563
 9923TIP3    H251261   0.288   4.473  11.542 -0.7836 -0.0636  0.2651
 9924TIP3   OH251262   1.201   5.248  13.732  0.3534  0.6060 -0.2916
 9924TIP3    H151263   1.243   5.285  13.809  0.2099 -0.6445  0.4086
 9924TIP3    H251264   1.236   5.299  13.659  1.0990  1.2787  0.5172
 9925TIP3   OH251265   4.102   5.808  12.132 -0.1398  0.3096  0.2944
 9925TIP3    H151266   4.079   5.849  12.216  0.1481  0.8356  0.1243
 9925TIP3    H251267   4.018   5.796  12.088 -0.1545  1.9489 -0.1990
 9926TIP3   OH251268   6.621   0.494   5.151  0.0774 -0.1927  0.0747
 9926TIP3    H151269   6.668   0.526   5.228 -0.6044  1.8710 -0.3035
 9926TIP3    H251270   6.659   0.542   5.078 -0.6862 -0.5924 -0.6093
 9927TIP3   OH251271   5.463   1.450   5.061  0.6221  0.2102  0.0624
 9927TIP3    H151272   5.387   1.396   5.085  0.5112 -1.5328 -3.5229
 9927TIP3    H251273   5.536   1.411   5.110  0.1965 -2.1611 -1.0154
 9928TIP3   OH251274   6.173   6.176   4.931  0.2842 -0.4406  0.1003
 9928TIP3    H151275   6.094   6.214   4.969  0.1770  0.4592 -0.9465
 9928TIP3    H251276   6.238   6.180   5.000 -0.2711 -0.1026  0.6114
 9929TIP3   OH251277   1.561   1.666   4.479  0.1530 -0.1987  0.4610
 9929TIP3    H151278   1.573   1.714   4.397 -0.6144  0.8632  0.9543
 9929TIP3    H251279   1.519   1.584   4.452  1.1866 -0.4960 -0.3491
 9930TIP3   OH251280   4.941   1.466   0.571 -0.4052  0.1759  0.4314
 9930TIP3    H151281   4.944   1.382   0.616 -0.5798  0.2881  0.6562
 9930TIP3    H251282   4.851   1.471   0.538 -0.1719 -0.0814 -0.2719
 9931TIP3   OH251283   4.684   5.720   1.008  0.2210  0.3595  0.0276
 9931TIP3    H151284   4.593   5.731   1.035  0.2404  2.7695 -0.6426
 9931TIP3    H251285   4.679   5.664   0.930 -0.5287 -0.5733  0.7225
 9932TIP3   OH251286   4.912   2.993   3.088 -0.4455 -0.4297 -0.0183
 9932TIP3    H151287   4.866   3.060   3.138 -1.4084 -1.5584  0.6925
 9932TIP3    H251288   5.002   3.024   3.081 -0.8561  0.8723  0.3564
 9933TIP3   OH251289   2.645   2.137   5.316 -0.2164  0.3635 -0.1719
 9933TIP3    H151290   2.603   2.223   5.308 -0.2590  0.3786  0.1849
 9933TIP3    H251291   2.727   2.155   5.361  1.4276  0.7040 -3.0372
 9934TIP3   OH251292   4.401   2.440  11.466  0.4144 -0.0504  0.3446
 9934TIP3    H151293   4.325   2.429  11.408  0.1689 -1.7000  0.9147
 9934TIP3    H251294   4.477   2.424  11.409  0.3940  1.9068 -0.2977
 9935TIP3   OH251295   3.074   3.007   3.879 -0.0571 -0.0108 -0.7015
 9935TIP3    H151296   3.089   2.920   3.915  1.6721  1.3627  2.3493
 9935TIP3    H251297   3.009   3.046   3.937  0.4177  1.2569 -0.9884
 9936TIP3   OH251298   1.733   1.986  15.687  0.0170 -0.1398 -0.2094
 9936TIP3    H151299   1.760   1.900  15.719  2.9597 -0.0292 -1.9887
 9936TIP3    H251300   1.796   2.046  15.726 -0.0167  0.7632 -1.4963
 9937TIP3   OH251301   4.416   5.102  11.952  0.6555  0.4899  0.3604
 9937TIP3    H151302   4.356   5.034  11.923  0.5012  1.0662 -0.7074
 9937TIP3    H251303   4.484   5.055  12.000  0.5845 -0.4193 -0.4169
 9938TIP3   OH251304   5.836   4.787  14.753  0.2855  0.0117 -0.1577
 9938TIP3    H151305   5.750   4.815  14.722  0.7517  2.1096  0.3120
 9938TIP3    H251306   5.820   4.751  14.840  0.0073  1.5931  0.4796
 9939TIP3   OH251307   4.797   4.969  12.482 -0.3018  1.0849  0.4433
 9939TIP3    H151308   4.829   5.005  12.565  1.1107  1.5534 -0.2600
 9939TIP3    H251309   4.805   5.041  12.419  0.1944  0.2882 -0.4477
 9940TIP3   OH251310   0.753   0.933  12.737  0.3324 -0.2642 -0.0839
 9940TIP3    H151311   0.844   0.907  12.725  0.5706  0.8095 -0.7282
 9940TIP3    H251312   0.758   1.015  12.786 -0.2878 -0.1836 -0.1481
 9941TIP3   OH251313   1.452   0.128   1.030 -0.0179  0.6613  0.1338
 9941TIP3    H151314   1.535   0.102   1.071 -0.3122 -0.5005  0.0400
 9941TIP3    H251315   1.394   0.053   1.045 -0.4013  0.5723 -1.6615
 9942TIP3   OH251316   0.007   4.691  12.900 -0.5715 -0.0932 -0.6205
 9942TIP3    H151317   0.060   4.648  12.832 -1.9511 -0.5460 -1.4476
 9942TIP3    H251318  -0.021   4.620  12.958  0.7370  0.3142  0.5577
 9943TIP3   OH251319   0.624   1.341   3.597  0.0648  0.0403  0.0754
 9943TIP3    H151320   0.648   1.266   3.542 -0.2084  0.7879 -1.1056
 9943TIP3    H251321   0.681   1.334   3.673  0.3859 -1.0871 -0.2454
 9944TIP3   OH251322   3.479   1.261   2.942 -0.0509 -0.1598 -0.2136
 9944TIP3    H151323   3.415   1.296   2.881  0.3463 -2.0622 -1.8320
 9944TIP3    H251324   3.564   1.275   2.899  0.3167 -0.6875  0.3242
 9945TIP3   OH251325   2.587   3.778   5.403  0.0982  0.3098  0.5376
 9945TIP3    H151326   2.533   3.782   5.325  0.6661 -0.6045  0.0843
 9945TIP3    H251327   2.644   3.855   5.397  0.5561 -0.0823 -0.2652
 9946TIP3   OH251328   5.796   1.850  13.239 -0.5626  0.2251 -0.3197
 9946TIP3    H151329   5.745   1.856  13.320 -0.2608 -0.7562 -0.0457
 9946TIP3    H251330   5.865   1.787  13.259 -1.5508 -1.4697 -1.8774
 9947TIP3   OH251331   4.615   3.771   1.635  0.2784 -0.1766  0.2362
 9947TIP3    H151332   4.680   3.781   1.566 -1.2130  0.3163 -1.1423
 9947TIP3    H251333   4.616   3.678   1.656 -0.4097 -0.6354 -1.6455
 9948TIP3   OH251334   6.280   2.125   0.924 -0.0184 -0.2947  0.5557
 9948TIP3    H151335   6.305   2.098   1.012 -1.6605 -1.1971  0.7894
 9948TIP3    H251336   6.187   2.146   0.931  0.3147  1.7810 -0.4997
 9949TIP3   OH251337   4.521   2.502   2.056 -0.0911  0.2762  0.5977
 9949TIP3    H151338   4.569   2.419   2.057 -0.4824  0.0336 -0.0276
 9949TIP3    H251339   4.532   2.538   2.144 -0.0426 -0.5112  0.9161
 9950TIP3   OH251340   1.048   1.627  16.100  0.3492 -0.7838  1.0936
 9950TIP3    H151341   1.123   1.683  16.120  0.2478 -0.6261  1.0287
 9950TIP3    H251342   1.080   1.568  16.032  0.0048  0.1928  0.0567
 9951TIP3   OH251343   4.342   1.005   5.899  0.3604  0.2774 -0.3168
 9951TIP3    H151344   4.410   1.002   5.966  1.5436  0.6028 -1.4610
 9951TIP3    H251345   4.298   1.088   5.914 -0.3495 -0.2950  0.9382
 9952TIP3   OH251346   3.229   0.447   0.080 -0.3261 -0.2203  1.0016
 9952TIP3    H151347   3.135   0.451   0.097 -0.6393  0.2570 -0.6656
 9952TIP3    H251348   3.256   0.539   0.073 -0.3293 -0.3387 -1.3383
 9953TIP3   OH251349   1.382   1.714   5.125 -0.2884 -0.1408 -0.4091
 9953TIP3    H151350   1.397   1.658   5.049  0.2260  1.3959 -1.4759
 9953TIP3    H251351   1.331   1.659   5.185  0.4382 -1.8330 -1.2801
 9954TIP3   OH251352   3.790   1.622   5.172 -0.1585 -0.0455 -0.3889
 9954TIP3    H151353   3.819   1.604   5.083  0.2960 -1.1121 -0.0367
 9954TIP3    H251354   3.705   1.665   5.161 -0.8593 -1.5709 -1.3212
 9955TIP3   OH251355   1.547   1.052  16.062  0.5110  0.3896 -0.1477
 9955TIP3    H151356   1.548   0.977  16.003 -0.3095 -1.1369  1.6593
 9955TIP3    H251357   1.636   1.088  16.057  1.3987 -1.6370  0.0537
 9956TIP3   OH251358   0.938   4.255   0.330 -0.3189 -0.0193  0.6218
 9956TIP3    H151359   0.863   4.235   0.274  0.2435  0.6206 -0.4033
 9956TIP3    H251360   0.961   4.171   0.370 -1.3572 -0.2875  0.6734
 9957TIP3   OH251361   4.431   2.870  12.537  0.4635  0.3401 -0.0742
 9957TIP3    H151362   4.451   2.842  12.626  0.5849 -0.8434 -0.4546
 9957TIP3    H251363   4.512   2.854  12.488 -0.4721 -1.8766 -1.0292
 9958TIP3   OH251364   1.398   0.324  14.429  0.7220  0.6636  0.2961
 9958TIP3    H151365   1.407   0.293  14.519  0.2339  2.4353  0.9916
 9958TIP3    H251366   1.369   0.247  14.380 -0.3374 -0.0040  1.9084
 9959TIP3   OH251367   2.751   1.787  13.370 -0.2553 -0.4441  0.2777
 9959TIP3    H151368   2.835   1.765  13.331 -1.0990 -1.0832 -1.2883
 9959TIP3    H251369   2.773   1.839  13.447  1.5777 -1.1922  0.3069
 9960TIP3   OH251370   2.285   4.100   5.736 -0.6592 -0.4341  1.3349
 9960TIP3    H151371   2.277   4.156   5.813  0.2824 -0.3028  1.3477
 9960TIP3    H251372   2.221   4.029   5.751 -0.6830 -0.2590  2.0930
 9961TIP3   OH251373   0.058   6.202   5.176 -0.0662 -0.2027 -0.0628
 9961TIP3    H151374   0.153   6.189   5.175  0.0370  0.2996  1.0219
 9961TIP3    H251375   0.046   6.291   5.144 -0.2890 -0.7442 -1.5246
 9962TIP3   OH251376   4.821   2.735  16.068 -0.1758  0.1014  0.2249
 9962TIP3    H151377   4.755   2.793  16.031 -1.8746 -2.6809 -1.4489
 9962TIP3    H251378   4.895   2.741  16.006  0.2215  1.3965  0.7880
 9963TIP3   OH251379   0.832   4.937   0.212  0.1529  0.0854 -0.0376
 9963TIP3    H151380   0.744   4.902   0.201  0.6811 -1.0451 -0.9649
 9963TIP3    H251381   0.860   4.958   0.123  0.9930 -0.0473  0.1849
 9964TIP3   OH251382   1.652   4.631  17.091 -0.2731 -0.1619 -0.0609
 9964TIP3    H151383   1.562   4.610  17.115  0.1059 -1.3222  0.4114
 9964TIP3    H251384   1.653   4.626  16.995 -0.7505  0.0643 -0.0821
 9965TIP3   OH251385   0.551   1.477   4.247 -0.3402 -0.2303 -0.1941
 9965TIP3    H151386   0.570   1.432   4.164 -1.1863 -1.0690  0.0455
 9965TIP3    H251387   0.462   1.450   4.269 -0.3445  0.4575  0.6963
 9966TIP3   OH251388   5.755   0.867   4.488 -0.3304  0.4019 -0.3686
 9966TIP3    H151389   5.767   0.943   4.431 -0.3355  0.1705 -0.6762
 9966TIP3    H251390   5.827   0.808   4.467  0.4610  0.9008  0.8204
 9967TIP3   OH251391   1.117   0.360   2.601  0.0096 -0.3134 -0.0236
 9967TIP3    H151392   1.021   0.362   2.601 -0.0122  1.7925 -0.9445
 9967TIP3    H251393   1.142   0.404   2.682  0.1734  0.1450 -0.3196
 9968TIP3   OH251394   6.234   5.596   4.904 -0.0091 -0.3222 -0.0231
 9968TIP3    H151395   6.319   5.596   4.948 -0.4206  2.2786  0.9312
 9968TIP3    H251396   6.179   5.538   4.957  0.5123 -0.0938  0.7722
 9969TIP3   OH251397   5.895   4.031   5.184  0.3945  0.2790  0.2288
 9969TIP3    H151398   5.819   3.976   5.204 -0.2200  0.9886 -0.1234
 9969TIP3    H251399   5.873   4.117   5.222  0.4857  0.8276 -0.9341
 9970TIP3   OH251400   4.695   5.383  16.235 -0.3022 -0.0126 -0.6740
 9970TIP3    H151401   4.758   5.328  16.190  2.1488  1.5871  0.5346
 9970TIP3    H251402   4.663   5.444  16.168 -1.5348 -1.5764 -1.5603
 9971TIP3   OH251403   0.270   6.623  11.930 -0.2920 -0.4763 -0.4991
 9971TIP3    H151404   0.345   6.634  11.989 -0.0820 -1.4827 -0.5646
 9971TIP3    H251405   0.307   6.628  11.842 -0.5755  0.8058 -0.5707
 9972TIP3   OH251406   1.469   2.042  11.779  0.3902  0.1006 -0.0766
 9972TIP3    H151407   1.526   2.090  11.719  2.9334 -1.6555  0.7612
 9972TIP3    H251408   1.475   1.951  11.750 -0.9944 -0.3059  0.8334
 9973TIP3   OH251409   5.909   1.232   3.265  0.2410 -0.7557  0.5572
 9973TIP3    H151410   5.864   1.224   3.181 -0.2321 -1.7863  0.8862
 9973TIP3    H251411   5.893   1.322   3.292 -0.7623 -0.7989  0.1685
 9974TIP3   OH251412   1.968   1.904  16.023  0.4897  0.1917 -0.1575
 9974TIP3    H151413   1.959   1.809  16.031  0.1494  0.2619  0.3019
 9974TIP3    H251414   1.878   1.937  16.022  0.6176  0.6173  1.0662
 9975TIP3   OH251415   1.213   5.087   3.386 -0.2300 -0.2750  0.2640
 9975TIP3    H151416   1.210   4.995   3.409  0.2912 -0.0125  1.4728
 9975TIP3    H251417   1.282   5.123   3.442 -0.1045  0.7562 -0.5190
 9976TIP3   OH251418   3.800   3.908  14.089  0.6424  1.1024 -0.1017
 9976TIP3    H151419   3.728   3.857  14.051 -0.7381  1.2432  2.1713
 9976TIP3    H251420   3.772   3.999  14.081 -0.0517  1.1028  1.8506
 9977TIP3   OH251421   0.397   5.576   3.182 -0.2526  0.2980 -0.0765
 9977TIP3    H151422   0.311   5.541   3.205  0.1698 -1.1926 -0.6209
 9977TIP3    H251423   0.379   5.637   3.110 -0.7457 -1.1045 -1.2034
 9978TIP3   OH251424   3.303   0.828  16.941 -0.3311 -0.1017  0.0625
 9978TIP3    H151425   3.227   0.770  16.934  0.4627 -1.1193 -0.6154
 9978TIP3    H251426   3.330   0.842  16.850  2.2863 -2.5850  0.2943
 9979TIP3   OH251427   3.298   4.439  12.050 -0.4477  0.3695 -0.3618
 9979TIP3    H151428   3.217   4.404  12.087  0.2438  1.1847  2.0953
 9979TIP3    H251429   3.346   4.361  12.020 -1.0523 -0.3530  0.4917
 9980TIP3   OH251430   5.128   4.122  12.982 -0.1241  0.0091 -0.3862
 9980TIP3    H151431   5.209   4.080  13.010 -1.0265  0.6377  3.9236
 9980TIP3    H251432   5.063   4.052  12.984  0.0369 -0.3108 -3.0035
 9981TIP3   OH251433   4.608   4.853  16.284  0.1625 -0.1257 -0.4153
 9981TIP3    H151434   4.681   4.804  16.247 -0.4557  0.2825 -2.2716
 9981TIP3    H251435   4.649   4.924  16.333  1.0183 -0.9657  0.1059
 9982TIP3   OH251436   4.194   3.717  13.897  0.1729  0.0940 -0.0290
 9982TIP3    H151437   4.232   3.630  13.907  0.1501  0.2770  2.0911
 9982TIP3    H251438   4.246   3.758  13.828 -1.3896 -2.3801 -2.9242
 9983TIP3   OH251439   0.996   2.016  17.030  0.4415 -0.3661 -0.6140
 9983TIP3    H151440   0.925   2.052  16.978  1.9591  0.2948 -2.3313
 9983TIP3    H251441   1.022   2.087  17.089  0.1881 -0.3435 -0.5327
 9984TIP3   OH251442   0.064   2.423  12.168 -0.1734 -0.5997  0.0832
 9984TIP3    H151443   0.002   2.406  12.098  0.6702  0.2761 -0.9137
 9984TIP3    H251444   0.077   2.338  12.210 -2.5512 -0.6834  0.7835
 9985TIP3   OH251445   0.244   0.605  13.917  0.1614  0.3745  0.5512
 9985TIP3    H151446   0.152   0.628  13.903  0.3913  1.7798  1.1971
 9985TIP3    H251447   0.294   0.672  13.872  0.8870 -0.3743  0.2088
 9986TIP3   OH251448   0.135   6.372  15.516  0.1320  0.4905  0.1183
 9986TIP3    H151449   0.145   6.345  15.608  0.1058 -0.5124 -0.1602
 9986TIP3    H251450   0.213   6.424  15.498  0.7067 -0.2649  0.3862
 9987TIP3   OH251451   2.214   6.137  16.613 -0.2079 -0.0284  0.4440
 9987TIP3    H151452   2.268   6.216  16.602 -0.0931  0.6205  4.2864
 9987TIP3    H251453   2.269   6.066  16.578  2.0329  0.9675  1.7050
 9988TIP3   OH251454   5.305   3.052   2.275  0.7156  0.1742  0.3191
 9988TIP3    H151455   5.356   3.132   2.263  1.8704 -0.5913  0.0638
 9988TIP3    H251456   5.360   2.982   2.241 -0.1724 -0.7764  0.7766
 9989TIP3   OH251457   0.566   0.023   4.013  0.3278  0.2023  0.3517
 9989TIP3    H151458   0.485   0.057   4.053 -0.0642 -0.4653  0.1388
 9989TIP3    H251459   0.548  -0.070   3.999  1.1991  0.0162  0.4439
 9990TIP3   OH251460   1.471   3.355  15.907  0.0693 -0.4833 -0.0813
 9990TIP3    H151461   1.401   3.372  15.845 -0.8588  0.9826  1.2916
 9990TIP3    H251462   1.434   3.292  15.969  0.0147  0.1125  0.5094
 9991TIP3   OH251463   6.589   6.609  10.914  0.4215  0.3256 -0.5491
 9991TIP3    H151464   6.649   6.672  10.874 -0.5396  0.7397 -1.4279
 9991TIP3    H251465   6.504   6.631  10.875 -0.2565 -0.3563  0.5118
 9992TIP3   OH251466   2.899   5.971  15.248  0.0713 -0.1311  0.2131
 9992TIP3    H151467   2.928   5.973  15.339 -0.2137  1.5243  0.3029
 9992TIP3    H251468   2.813   6.013  15.249 -0.1750 -0.5881 -0.7482
 9993TIP3   OH251469   5.038   1.881  15.492 -0.0242  0.0785  0.4151
 9993TIP3    H151470   5.027   1.846  15.404  0.4528 -0.0026  0.3889
 9993TIP3    H251471   4.984   1.960  15.493 -1.1230 -0.6472  0.4850
 9994TIP3   OH251472   4.571   3.561   1.132  0.1679  0.3190 -0.6293
 9994TIP3    H151473   4.653   3.513   1.127  0.3139  0.3779  0.9229
 9994TIP3    H251474   4.586   3.630   1.197 -1.1080  0.3129 -0.2859
 9995TIP3   OH251475   1.072   2.298  13.966 -0.4314  0.4750  0.4977
 9995TIP3    H151476   1.156   2.344  13.969 -1.4826  2.7350 -1.7138
 9995TIP3    H251477   1.022   2.335  14.039 -0.6670  1.6680 -0.2441
 9996TIP3   OH251478   0.401   5.774  13.618 -0.2424  0.1320 -0.2958
 9996TIP3    H151479   0.382   5.860  13.581  2.6326  0.6041 -0.9190
 9996TIP3    H251480   0.420   5.792  13.710  1.7483  0.4696 -0.7235
 9997TIP3   OH251481   0.561   1.907  12.318  0.3517  0.3616 -0.2597
 9997TIP3    H151482   0.639   1.918  12.263 -1.4079  0.5959 -2.8875
 9997TIP3    H251483   0.557   1.813  12.334  0.9220  0.2886 -0.4979
 9998TIP3   OH251484   0.473   6.412   2.030 -0.0024  0.3099  0.1395
 9998TIP3    H151485   0.549   6.435   1.976 -0.8396 -3.4714 -3.1086
 9998TIP3    H251486   0.407   6.478   2.008  1.0475  1.3489 -0.0078
 9999TIP3   OH251487   3.995   6.472  13.198  0.2472 -0.5346  0.3304
 9999TIP3    H151488   4.013   6.403  13.262  1.5367 -0.5944 -0.0631
 9999TIP3    H251489   3.998   6.426  13.113  0.6800 -0.0828  0.0970
10000TIP3   OH251490   5.739   3.256  16.718  0.0427  0.1700  0.0560
10000TIP3    H151491   5.822   3.288  16.684  1.2802 -1.9872  0.8397
10000TIP3    H251492   5.736   3.289  16.808 -0.1969  0.6511 -0.1258
10001TIP3   OH251493   3.050   6.487   0.892 -0.1040  0.1278  0.3571
10001TIP3    H151494   2.975   6.456   0.942  0.0985  1.2784  1.4282
10001TIP3    H251495   3.024   6.573   0.860  0.6143  0.3748  0.4201
10002TIP3   OH251496   2.068   0.311  15.909  0.1299 -0.2362 -0.6184
10002TIP3    H151497   2.145   0.363  15.933  0.4102 -1.3960  1.2638
10002TIP3    H251498   1.996   0.349  15.960  0.1293 -1.0218 -0.0121
10003TIP3   OH251499   4.668   5.728  12.675 -0.6996 -0.0504  0.5015
10003TIP3    H151500   4.757   5.761  12.659 -0.7820  0.3499  0.8634
10003TIP3    H251501   4.646   5.760  12.762 -1.2104 -0.1338  0.4032
10004TIP3   OH251502   6.268   6.844  13.213 -0.7945 -0.5920 -0.6970
10004TIP3    H151503   6.283   6.759  13.254  1.1354  0.4403  0.8827
10004TIP3    H251504   6.352   6.868  13.176 -1.3748  0.5403 -1.3328
10005TIP3   OH251505   3.270   2.120   1.946  0.2801  0.3137 -0.0789
10005TIP3    H151506   3.345   2.169   1.980  0.5642 -0.5561  0.5992
10005TIP3    H251507   3.195   2.157   1.991  0.4620  0.3076  0.2356
10006TIP3   OH251508   0.993   0.044  16.995  0.5816  0.3494  0.1381
10006TIP3    H151509   0.955   0.050  16.907  1.1738 -0.0259 -0.1498
10006TIP3    H251510   0.933   0.094  17.051  0.3675  0.8605 -0.5321
10007TIP3   OH251511   0.776   5.760  11.642 -0.0399 -0.2347  0.4869
10007TIP3    H151512   0.691   5.751  11.600 -0.1939  1.0715  0.4983
10007TIP3    H251513   0.819   5.832  11.596  0.5492 -0.0362  1.3110
10008TIP3   OH251514   1.567   4.461  15.788  0.0781 -0.5111 -0.1850
10008TIP3    H151515   1.481   4.496  15.807  0.9851  1.9230 -0.2838
10008TIP3    H251516   1.623   4.492  15.860  1.1092 -1.0663 -0.7188
10009TIP3   OH251517   2.207   2.294  11.492  0.0720  0.5704  0.5867
10009TIP3    H151518   2.273   2.229  11.467  0.7836  2.0128 -1.6097
10009TIP3    H251519   2.127   2.265  11.449  0.1797  0.6791  0.3085
10010TIP3   OH251520   4.001   5.933  16.738 -0.3576 -0.7797 -0.7269
10010TIP3    H151521   3.958   6.018  16.726 -0.9055 -1.0449 -0.6590
10010TIP3    H251522   3.934   5.869  16.715  0.3735 -1.1878 -1.8135
10011TIP3   OH251523   0.402   0.850   4.597  0.0592  0.0485  0.3967
10011TIP3    H151524   0.407   0.771   4.651 -0.9176 -0.3591 -0.0871
10011TIP3    H251525   0.393   0.816   4.508  1.1979  0.7103  0.0080
10012TIP3   OH251526   3.988   3.000   4.011 -0.4249 -0.0677 -0.0190
10012TIP3    H151527   4.012   3.085   4.047 -0.6852 -0.2027  0.4774
10012TIP3    H251528   4.039   2.993   3.930 -0.8162  0.7988 -0.3541
10013TIP3   OH251529   5.789   2.349  14.411  0.3699 -0.5686 -0.2398
10013TIP3    H151530   5.848   2.339  14.336  0.3806 -0.9691 -0.1793
10013TIP3    H251531   5.820   2.285  14.475  0.1159 -0.5016 -0.0496
10014TIP3   OH251532   1.820   1.580   0.291  0.2615 -0.5344 -0.3919
10014TIP3    H151533   1.736   1.613   0.323 -0.2966 -2.0303 -0.2077
10014TIP3    H251534   1.838   1.630   0.211 -0.8042 -0.1937 -0.4268
10015TIP3   OH251535   6.665   3.473   3.773 -0.1909 -0.1174  0.7439
10015TIP3    H151536   6.706   3.536   3.832  1.9771 -0.0235 -0.7761
10015TIP3    H251537   6.571   3.492   3.780  0.3080  2.6912  0.9762
10016TIP3   OH251538   1.231   1.400   0.544  0.2001 -0.2973  0.2861
10016TIP3    H151539   1.285   1.389   0.466 -0.6480 -3.3248 -0.0025
10016TIP3    H251540   1.149   1.436   0.511 -0.6792 -2.8626 -0.5648
10017TIP3   OH251541   4.117   1.022  13.948  0.0335  0.0710  0.2177
10017TIP3    H151542   4.044   1.003  14.006 -0.5172  1.3186 -0.0406
10017TIP3    H251543   4.139   1.113  13.967  1.7197 -0.3576  0.5001
10018TIP3   OH251544   1.259   4.574   3.321  0.3364  0.3562  0.1761
10018TIP3    H151545   1.182   4.540   3.274  0.2324  0.4382  0.2848
10018TIP3    H251546   1.334   4.536   3.275  0.2318  0.3089  0.0420
10019TIP3   OH251547   1.542   4.712   3.934 -0.0449  0.1739 -0.1971
10019TIP3    H151548   1.486   4.696   3.858 -0.7132  2.1466 -0.1767
10019TIP3    H251549   1.603   4.779   3.905  2.0016 -1.5210 -0.0307
10020TIP3   OH251550   2.459   3.720   0.846 -0.2919  0.4178 -0.3629
10020TIP3    H151551   2.438   3.809   0.874 -1.8527  0.3365 -1.1894
10020TIP3    H251552   2.555   3.715   0.853 -0.2074  2.0321  0.0356
10021TIP3   OH251553   0.588   5.117   4.023  0.0852 -0.0274  0.1723
10021TIP3    H151554   0.602   5.033   4.068  0.2082  0.2669  0.6890
10021TIP3    H251555   0.673   5.160   4.026  0.1524 -0.0893 -0.5402
10022TIP3   OH251556   1.214   4.464   0.415  0.1729 -0.0518 -0.3019
10022TIP3    H151557   1.174   4.465   0.328  2.6609  1.9323 -1.5767
10022TIP3    H251558   1.187   4.545   0.456  1.4713  0.5439 -0.5512
10023TIP3   OH251559   2.447   2.099  15.674  0.7768 -0.0545  0.1718
10023TIP3    H151560   2.463   2.147  15.593  0.4593  0.8150  0.6152
10023TIP3    H251561   2.485   2.153  15.742  1.0521 -0.7877  0.6190
10024TIP3   OH251562   4.020   3.875   5.570  0.3822 -0.2627 -0.3003
10024TIP3    H151563   4.081   3.803   5.553 -0.5628 -1.5672  1.5114
10024TIP3    H251564   4.075   3.944   5.606  1.3340  0.0780 -2.2335
10025TIP3   OH251565   4.859   5.333   3.592  0.3542 -0.1804  0.2446
10025TIP3    H151566   4.954   5.343   3.591  0.3639 -0.2209  0.6245
10025TIP3    H251567   4.836   5.336   3.685 -0.3440  2.9737  0.0754
10026TIP3   OH251568   4.877   3.453  16.960 -0.3313 -0.2683 -0.5034
10026TIP3    H151569   4.863   3.449  16.866 -1.7293 -0.1226 -0.3200
10026TIP3    H251570   4.799   3.412  16.998 -1.1623  2.1685  0.6331
10027TIP3   OH251571   3.156   1.209   2.987  0.1454  0.2835  0.4396
10027TIP3    H151572   3.108   1.263   2.925  0.9161 -1.2028 -1.5848
10027TIP3    H251573   3.089   1.169   3.042 -0.5278  2.0205  0.9361
10028TIP3   OH251574   3.189   4.997  15.939 -0.1506 -0.3095  0.0323
10028TIP3    H151575   3.119   5.020  15.878 -0.6768  1.6810  1.2883
10028TIP3    H251576   3.194   4.902  15.935 -1.7148 -0.3802 -1.3966
10029TIP3   OH251577   5.627   0.723  10.353 -0.1066  0.1342  0.0640
10029TIP3    H151578   5.570   0.800  10.360 -1.1532 -0.6002 -0.1616
10029TIP3    H251579   5.715   0.757  10.367 -0.5785  1.3332  0.2235
10030TIP3   OH251580   0.869   1.509  16.651 -0.0504  0.5368  0.6501
10030TIP3    H151581   0.851   1.504  16.745  0.0981 -0.6736  0.6319
10030TIP3    H251582   0.882   1.418  16.624 -0.1027  0.8639 -0.5489
10031TIP3   OH251583   5.626   2.576   5.995  0.4145  0.6800  0.1789
10031TIP3    H151584   5.679   2.567   5.916 -0.3234  0.6013 -0.3219
10031TIP3    H251585   5.582   2.660   5.984  0.7036  0.9113  0.7590
10032TIP3   OH251586   4.563   5.594   5.696 -0.1023 -0.2792  0.2313
10032TIP3    H151587   4.573   5.557   5.608 -1.4514 -1.8780  0.7076
10032TIP3    H251588   4.586   5.523   5.755  2.1207  1.1622  1.2522
10033TIP3   OH251589   2.157   4.937  11.557  0.4224 -0.0928  0.1580
10033TIP3    H151590   2.251   4.924  11.569  0.5604 -0.4474 -1.1893
10033TIP3    H251591   2.149   5.028  11.529  0.2830  0.1720  1.0431
10034TIP3   OH251592   6.121   2.420  14.775  0.6093 -0.4819 -0.1550
10034TIP3    H151593   6.073   2.458  14.849  1.5943 -0.5709  0.5461
10034TIP3    H251594   6.162   2.341  14.811  1.4453 -0.3021 -0.6829
10035TIP3   OH251595   2.859   3.096   4.035  0.1431 -0.2026 -0.4688
10035TIP3    H151596   2.848   3.001   4.045  1.9687 -0.3596  0.4821
10035TIP3    H251597   2.844   3.131   4.123 -0.4019  0.4009 -0.7930
10036TIP3   OH251598   5.576   0.538   5.689  0.0148  0.2599  0.2276
10036TIP3    H151599   5.562   0.622   5.732  0.0032  0.5796 -0.3847
10036TIP3    H251600   5.544   0.473   5.751  1.3742  0.5977  1.3352
10037TIP3   OH251601   4.977   2.981  15.689  0.8327 -0.0352  0.0720
10037TIP3    H151602   5.028   3.004  15.612 -0.2641  2.1316 -0.0646
10037TIP3    H251603   4.888   3.011  15.670  0.4655  0.2747  2.0281
10038TIP3   OH251604   0.496   6.734  14.280  0.5645 -1.2609  0.3325
10038TIP3    H151605   0.481   6.752  14.187 -0.7908 -1.0839  0.5766
10038TIP3    H251606   0.460   6.646  14.293  0.5244 -1.1819  0.7497
10039TIP3   OH251607   0.720   4.539   3.711  0.0105  0.3155  0.1297
10039TIP3    H151608   0.789   4.480   3.683 -0.9526 -1.5415  1.4326
10039TIP3    H251609   0.745   4.564   3.800  0.4658  2.0629 -0.4345
10040TIP3   OH251610   4.424   6.479  11.069 -0.1465  0.5854  0.3239
10040TIP3    H151611   4.471   6.459  11.150 -0.2463  1.2602  0.5522
10040TIP3    H251612   4.471   6.552  11.030  3.4244 -3.0647 -3.2150
10041TIP3   OH251613   1.433   0.540   3.257 -0.4862  0.9361 -0.2279
10041TIP3    H151614   1.409   0.530   3.349 -2.5246  0.8903 -0.7150
10041TIP3    H251615   1.476   0.457   3.235 -0.3536  0.7838  0.5701
10042TIP3   OH251616   4.430   6.734   0.752  0.0093 -0.4700 -0.4250
10042TIP3    H151617   4.358   6.706   0.696  0.2928  0.5047 -1.3296
10042TIP3    H251618   4.407   6.703   0.839 -1.0164 -1.0293 -0.8763
10043TIP3   OH251619   5.740   3.599  13.267 -0.3081 -0.1768  0.4679
10043TIP3    H151620   5.739   3.505  13.249  0.5673 -0.2601  0.7785
10043TIP3    H251621   5.822   3.631  13.228 -1.3581  0.7811 -1.0680
10044TIP3   OH251622   6.296   5.023  13.744  0.3589 -0.7290 -0.3569
10044TIP3    H151623   6.276   4.929  13.735  0.2300 -1.0056  2.0290
10044TIP3    H251624   6.218   5.067  13.712  0.9203 -1.3239 -2.7735
10045TIP3   OH251625   6.497   0.437   5.907 -0.6041  0.1019  0.3196
10045TIP3    H151626   6.575   0.400   5.866  0.2837  2.4545 -0.2430
10045TIP3    H251627   6.479   0.378   5.981  0.3350 -1.7522 -0.8524
10046TIP3   OH251628   3.164   3.858   4.060 -0.0961 -0.2060 -0.7006
10046TIP3    H151629   3.213   3.805   4.124  1.7343 -2.1727 -3.5152
10046TIP3    H251630   3.092   3.801   4.032  0.3499 -0.1993 -1.8829
10047TIP3   OH251631   2.777   4.102  14.857  0.6074 -0.4711  0.2382
10047TIP3    H151632   2.776   4.178  14.916 -0.4478  0.4116 -0.8668
10047TIP3    H251633   2.832   4.130  14.784 -1.4898  0.0985 -1.2004
10048TIP3   OH251634   6.786   0.414   2.681  0.6428 -0.0813  0.1672
10048TIP3    H151635   6.778   0.379   2.593  1.3203 -0.6447  0.3241
10048TIP3    H251636   6.786   0.509   2.669  3.2196 -0.1053 -0.7096
10049TIP3   OH251637   5.525   6.194  14.081 -0.3667  0.5383 -0.0854
10049TIP3    H151638   5.569   6.188  14.166 -1.9043  1.5544  0.8278
10049TIP3    H251639   5.474   6.114  14.075 -0.8727  0.8324  0.3089
10050TIP3   OH251640   3.882   3.778   0.027  0.0397  0.1029 -0.2120
10050TIP3    H151641   3.879   3.711   0.095  1.8788  0.7743  0.5869
10050TIP3    H251642   3.950   3.839   0.055  0.6094  0.6166 -2.4755
10051TIP3   OH251643   0.828   3.402   5.084 -0.3016  0.5073  0.1109
10051TIP3    H151644   0.892   3.332   5.080  1.4467  1.9116  1.8353
10051TIP3    H251645   0.796   3.401   5.174 -1.4942  0.9179 -0.2763
10052TIP3   OH251646   4.753   1.689   4.370  0.5496 -0.5276 -0.3949
10052TIP3    H151647   4.807   1.707   4.294  0.3491 -1.5602 -0.7965
10052TIP3    H251648   4.809   1.712   4.445  0.7489  0.4782 -0.8459
10053TIP3   OH251649   5.031   3.490  15.117 -0.0888 -0.0687  0.6332
10053TIP3    H151650   5.081   3.415  15.084  0.1943  0.2819  0.2539
10053TIP3    H251651   4.956   3.451  15.162  0.4094 -0.5977  1.0191
10054TIP3   OH251652   1.399   4.447  15.089  0.1494 -0.8231  0.0483
10054TIP3    H151653   1.383   4.406  15.175 -1.1884 -0.6060 -0.0736
10054TIP3    H251654   1.323   4.503  15.075  1.4551  0.9397 -0.2600
10055TIP3   OH251655   6.553   0.824   0.107 -0.2060  0.1452  0.2309
10055TIP3    H151656   6.559   0.847   0.015  1.3485  1.7057  0.6735
10055TIP3    H251657   6.619   0.878   0.150  0.6319 -2.1060  1.9800
10056TIP3   OH251658   6.647   0.104  15.513 -0.1726 -0.8951 -0.1250
10056TIP3    H151659   6.683   0.181  15.469 -0.8325  0.5240  1.6815
10056TIP3    H251660   6.715   0.037  15.504  1.6053  0.7408  0.5289
10057TIP3   OH251661   0.062   2.151  12.249 -0.1855 -0.5157  0.0134
10057TIP3    H151662  -0.007   2.139  12.314  0.3601  1.2990  0.9931
10057TIP3    H251663   0.014   2.161  12.166 -0.9816 -1.2352  0.3705
10058TIP3   OH251664   1.278   1.504  14.747 -0.5806 -0.0251  0.0580
10058TIP3    H151665   1.269   1.409  14.757 -1.0653 -0.0792 -0.8536
10058TIP3    H251666   1.341   1.515  14.676 -1.2008  0.3349 -0.4355
10059TIP3   OH251667   4.705   0.689  16.256 -0.5486  0.1833  0.0502
10059TIP3    H151668   4.650   0.700  16.334 -0.9122  1.1305 -0.3342
10059TIP3    H251669   4.670   0.611  16.213 -2.8914  1.8258 -1.2169
10060TIP3   OH251670   4.128   5.580  12.468 -0.4520  0.1587 -0.0432
10060TIP3    H151671   4.167   5.573  12.381 -0.9820  0.1762 -0.2825
10060TIP3    H251672   4.082   5.663  12.468 -1.1707 -0.2323 -0.0388
10061TIP3   OH251673   3.625   3.312   5.439  0.2276  0.2681  0.1401
10061TIP3    H151674   3.663   3.325   5.352 -0.9416 -0.0890 -0.4494
10061TIP3    H251675   3.696   3.274   5.490  1.5469  2.2217 -0.0804
10062TIP3   OH251676   3.842   3.495  15.330  0.0523 -0.0579  0.1466
10062TIP3    H151677   3.836   3.426  15.264 -0.2279 -1.2066  1.3396
10062TIP3    H251678   3.751   3.512  15.355 -0.3199  3.3223 -2.6114
10063TIP3   OH251679   0.453   2.958   6.760 -1.3703  0.2476 -0.2993
10063TIP3    H151680   0.378   2.918   6.717 -1.4268 -0.7962  0.7141
10063TIP3    H251681   0.526   2.898   6.742 -1.4938 -0.4657  1.3814
10064TIP3   OH251682   1.162   3.517  16.364  0.3254  0.6077 -0.5851
10064TIP3    H151683   1.090   3.567  16.326 -0.3562 -0.4314 -0.7179
10064TIP3    H251684   1.140   3.426  16.345  0.7333  0.1459  0.9945
10065TIP3   OH251685   3.550   0.752   1.380 -0.3135  0.1114  0.0404
10065TIP3    H151686   3.578   0.819   1.318  1.3231  0.6083  1.2610
10065TIP3    H251687   3.455   0.763   1.387 -0.5090  0.1976 -2.1395
10066TIP3   OH251688   4.093   1.009  16.852  0.5394  0.2733 -0.2618
10066TIP3    H151689   4.153   1.057  16.795  0.0836  1.5871  0.3215
10066TIP3    H251690   4.020   0.985  16.794 -0.7371  3.0666  0.0012
10067TIP3   OH251691   4.958   4.852  14.859  0.1496 -0.2623  0.3656
10067TIP3    H151692   4.989   4.920  14.919 -2.7889  0.9356  0.6915
10067TIP3    H251693   5.001   4.772  14.887  0.4498  0.6790  2.7463
10068TIP3   OH251694   3.662   5.927   3.492 -0.3433  0.0431 -0.1390
10068TIP3    H151695   3.636   5.855   3.435 -0.8004  1.2600 -1.5018
10068TIP3    H251696   3.725   5.977   3.441 -2.5095  2.5117 -0.5744
10069TIP3   OH251697   3.138   1.696   1.617 -0.8145 -0.1461  0.1730
10069TIP3    H151698   3.109   1.722   1.704 -1.9315 -0.7459 -0.0000
10069TIP3    H251699   3.154   1.602   1.624 -2.0678 -0.4393 -0.5416
10070TIP3   OH251700   2.409   6.142   1.084  0.6659 -0.0948 -0.1781
10070TIP3    H151701   2.342   6.210   1.094 -0.4067 -1.0568 -0.6262
10070TIP3    H251702   2.468   6.156   1.158 -0.9733 -0.2586  1.2331
10071TIP3   OH251703   0.681   0.022  15.611 -0.0717  0.4132 -0.7283
10071TIP3    H151704   0.732   0.092  15.570 -0.9681  1.2359 -0.4834
10071TIP3    H251705   0.729   0.002  15.692 -0.0502  1.0871 -0.5644
10072TIP3   OH251706   5.954   2.155  15.715 -0.0966 -0.6186 -0.1455
10072TIP3    H151707   5.904   2.200  15.783  1.9498  0.9025  0.4496
10072TIP3    H251708   6.014   2.098  15.763 -1.1667 -2.4349 -0.8478
10073TIP3   OH251709   5.296   1.107  12.345 -0.4849  0.6591 -0.4795
10073TIP3    H151710   5.305   1.022  12.303  0.2382 -0.4414  1.7464
10073TIP3    H251711   5.230   1.093  12.413  1.9085  0.8889  2.0709
10074TIP3   OH251712   2.666   4.606   1.402  0.0342  0.2634 -0.3448
10074TIP3    H151713   2.751   4.627   1.361  0.5759  0.9372  1.0654
10074TIP3    H251714   2.669   4.511   1.415  1.6292  0.5419  1.8448
10075TIP3   OH251715   1.367   6.079  10.725  0.1023 -0.2593 -0.3627
10075TIP3    H151716   1.462   6.071  10.720  0.1301  0.7720 -1.8216
10075TIP3    H251717   1.341   6.008  10.784  1.7160 -0.9017 -0.3699
10076TIP3   OH251718   4.698   2.368   5.315 -0.5368 -0.0183  0.0544
10076TIP3    H151719   4.669   2.300   5.375  1.7750 -0.7545  0.4313
10076TIP3    H251720   4.687   2.331   5.228  1.8189 -1.4360  0.2900
10077TIP3   OH251721   2.392   3.285  12.001  0.2091 -0.0742 -0.1347
10077TIP3    H151722   2.311   3.277  11.951  0.1779  0.5978 -0.2001
10077TIP3    H251723   2.402   3.379  12.016 -0.8665 -0.3195  2.9189
10078TIP3   OH251724   0.013   2.809  14.557 -0.5572  0.0591  0.1769
10078TIP3    H151725   0.056   2.773  14.480  1.6932 -1.5429  2.0211
10078TIP3    H251726  -0.080   2.787  14.545 -0.3146  0.0506 -2.1136
10079TIP3   OH251727   2.766   1.678  16.656 -0.5590  0.4034 -0.1359
10079TIP3    H151728   2.861   1.675  16.671 -0.5697  3.0480  1.1471
10079TIP3    H251729   2.756   1.663  16.563  1.0854 -0.3380 -0.2304
10080TIP3   OH251730   2.025   5.177   0.104  0.4059 -0.1376 -0.0400
10080TIP3    H151731   1.993   5.118   0.035  1.0546 -0.9247  0.3115
10080TIP3    H251732   2.020   5.264   0.065 -0.5447 -0.4278 -0.5837
10081TIP3   OH251733   6.678   5.035  12.950 -0.1788  0.0380 -0.0352
10081TIP3    H151734   6.633   4.954  12.924  0.2099 -0.2125  0.0716
10081TIP3    H251735   6.769   5.022  12.923 -0.1208  0.4562 -0.0485
10082TIP3   OH251736   2.542   0.862  14.300  0.5705  0.2020 -0.2454
10082TIP3    H151737   2.517   0.771  14.319  0.7385  0.5473  1.7972
10082TIP3    H251738   2.635   0.857  14.277  0.7022 -0.0896  0.3365
10083TIP3   OH251739   6.173   1.308  12.357 -0.1774 -0.2817 -0.6468
10083TIP3    H151740   6.140   1.340  12.440  1.3020 -0.1817 -0.0566
10083TIP3    H251741   6.222   1.228  12.379  1.3720  0.4709 -1.1686
10084TIP3   OH251742   1.990   0.921  10.659  0.0003 -0.1906  0.5890
10084TIP3    H151743   2.026   0.833  10.650  0.8125  0.2229 -0.4035
10084TIP3    H251744   1.906   0.908  10.704 -0.0271 -1.4884  0.2077
10085TIP3   OH251745   2.791   3.524  13.952 -0.3567 -0.1743  0.1599
10085TIP3    H151746   2.741   3.605  13.949 -1.5526 -0.8592  0.9276
10085TIP3    H251747   2.734   3.462  13.998  0.3782 -1.5515 -0.7172
10086TIP3   OH251748   4.574   5.333   2.866 -0.1961 -0.0448 -0.5333
10086TIP3    H151749   4.650   5.384   2.836  0.0292  0.7955  1.3596
10086TIP3    H251750   4.594   5.243   2.841  1.2797  0.2121 -0.3266
10087TIP3   OH251751   6.772   0.238   1.293  0.1534 -0.3825 -0.2460
10087TIP3    H151752   6.753   0.322   1.252 -1.2548 -0.5947 -0.1099
10087TIP3    H251753   6.697   0.222   1.350  2.0571 -0.0603  2.5265
10088TIP3   OH251754   3.141   2.366   5.245  0.5088 -0.4728  0.0036
10088TIP3    H151755   3.115   2.458   5.250  1.7273 -0.1891  2.6259
10088TIP3    H251756   3.058   2.317   5.246 -0.1456  0.5636  1.8157
10089TIP3   OH251757   5.031   1.311  11.896  0.1699  0.0722  0.0116
10089TIP3    H151758   5.064   1.292  11.984  0.2356 -2.5369 -0.4805
10089TIP3    H251759   4.948   1.356  11.911  0.8628  0.9664  1.3591
10090TIP3   OH251760   6.555   1.372  16.561  0.2123 -0.1401  0.7232
10090TIP3    H151761   6.574   1.427  16.637  1.5570 -0.9029  0.9803
10090TIP3    H251762   6.486   1.418  16.514  0.8469  1.4276  1.2632
10091TIP3   OH251763   1.925   2.538   4.983 -0.6008 -0.5953  0.0994
10091TIP3    H151764   1.951   2.532   5.075  1.3252  2.5312 -0.0818
10091TIP3    H251765   1.977   2.471   4.938  0.2319 -0.5577  0.9892
10092TIP3   OH251766   4.221   6.035  12.014 -0.6554 -0.2286  0.0348
10092TIP3    H151767   4.205   5.947  12.049 -2.0762 -0.4354 -1.0161
10092TIP3    H251768   4.312   6.034  11.987 -0.7965 -1.6126 -0.5045
10093TIP3   OH251769   3.640   0.588  14.510 -0.5629 -0.2753 -0.0521
10093TIP3    H151770   3.546   0.592  14.530 -0.8781  1.8156 -1.6455
10093TIP3    H251771   3.659   0.495  14.503 -2.7797 -0.7271 -0.7520
10094TIP3   OH251772   6.226   5.034   5.810  0.1592 -0.3549 -0.4602
10094TIP3    H151773   6.190   5.017   5.723  1.9457  0.7934 -1.4789
10094TIP3    H251774   6.288   5.106   5.797  1.1261 -0.7422  1.6164
10095TIP3   OH251775   1.662   2.467   5.761 -0.1312 -0.2490  0.2010
10095TIP3    H151776   1.573   2.480   5.791 -0.2222 -0.2045 -0.0864
10095TIP3    H251777   1.680   2.374   5.778 -0.4217 -0.3870 -0.2453
10096TIP3   OH251778   2.012   3.703   0.976 -0.6412 -0.1041 -0.5468
10096TIP3    H151779   2.005   3.693   0.882 -2.5248 -1.0130 -0.3581
10096TIP3    H251780   1.997   3.797   0.992 -0.1463  0.0780 -1.1507
10097TIP3   OH251781   1.787   3.319  12.523  0.0922 -0.3575 -0.0402
10097TIP3    H151782   1.728   3.316  12.599 -0.2465 -1.6156 -0.3404
10097TIP3    H251783   1.732   3.291  12.450  0.9538 -1.1383 -0.3953
10098TIP3   OH251784   5.451   3.061   6.446  0.9541 -0.6092 -0.0866
10098TIP3    H151785   5.455   2.977   6.492  1.0731  0.2225  1.4847
10098TIP3    H251786   5.380   3.050   6.382  0.1302 -1.5078  0.9481
10099TIP3   OH251787   5.957   3.770  15.177 -0.2759  0.0713 -0.0503
10099TIP3    H151788   6.004   3.852  15.190 -0.5789  0.3923 -0.9386
10099TIP3    H251789   5.968   3.723  15.260 -0.6067  1.2640  0.6909
10100TIP3   OH251790   2.200   5.579  12.216  0.0683 -0.3063 -0.1868
10100TIP3    H151791   2.294   5.593  12.204  0.2030 -0.6497  0.4031
10100TIP3    H251792   2.162   5.666  12.209  0.3630 -0.2361 -0.9800
10101TIP3   OH251793   3.891   1.987  15.789 -0.0165 -0.6480  0.1208
10101TIP3    H151794   3.961   1.928  15.816  0.6250  0.7552  1.6522
10101TIP3    H251795   3.936   2.060  15.748 -0.6569 -0.2169  0.1772
10102TIP3   OH251796   1.514   2.606   5.483  0.1493 -0.0185  0.3906
10102TIP3    H151797   1.440   2.641   5.435 -1.9188 -2.6984  1.3392
10102TIP3    H251798   1.474   2.553   5.553  2.9258 -1.7314  0.8389
10103TIP3   OH251799   2.642   1.193  16.935  0.7303  0.2086  0.2025
10103TIP3    H151800   2.722   1.207  16.884  0.8157  1.0117  0.5461
10103TIP3    H251801   2.663   1.224  17.022  0.4738 -0.8662  0.6644
10104TIP3   OH251802   3.230   2.199  16.986 -0.0235  0.3385 -0.2278
10104TIP3    H151803   3.230   2.117  17.035  0.9832  0.2604 -0.3222
10104TIP3    H251804   3.285   2.258  17.038 -0.8725  1.0162 -0.0788
10105TIP3   OH251805   2.273   5.789   2.698  0.3043  0.8054  0.2151
10105TIP3    H151806   2.354   5.802   2.648  2.3132 -2.6439  2.1816
10105TIP3    H251807   2.298   5.809   2.788 -0.1585 -2.5912  1.2391
10106TIP3   OH251808   3.347   0.821  12.785 -0.9563  0.4777  0.1080
10106TIP3    H151809   3.347   0.747  12.845  0.6577 -0.2191 -0.6615
10106TIP3    H251810   3.440   0.836  12.766 -1.3558  1.4182 -1.2960
10107TIP3   OH251811   4.571   3.085  10.770 -0.3446  0.4159  0.4559
10107TIP3    H151812   4.613   3.166  10.739  0.7704 -0.4002 -0.2370
10107TIP3    H251813   4.627   3.015  10.737 -2.3701 -0.7562 -0.7138
10108TIP3   OH251814   5.078   2.552   5.287  0.3637  0.1724  0.1228
10108TIP3    H151815   5.099   2.640   5.317 -0.3861 -0.7004  3.6810
10108TIP3    H251816   5.136   2.495   5.338 -0.7526 -1.4782 -0.3787
10109TIP3   OH251817   5.979   5.889   0.533  0.8150 -0.4427 -0.0244
10109TIP3    H151818   5.911   5.836   0.492 -2.1773  1.5863  1.9448
10109TIP3    H251819   5.992   5.963   0.474 -0.4076  0.3059  0.5995
10110TIP3   OH251820   3.255   6.184   1.347 -0.3169  0.3981  0.0068
10110TIP3    H151821   3.255   6.263   1.401 -1.4896  0.3417  0.1080
10110TIP3    H251822   3.192   6.201   1.278 -1.1277 -0.6996  0.4353
10111TIP3   OH251823   6.844   1.385  12.306 -0.0270 -0.1022  0.0372
10111TIP3    H151824   6.821   1.292  12.300  0.3931 -0.1801 -0.6028
10111TIP3    H251825   6.923   1.386  12.361  1.4149 -0.4322 -1.8842
10112TIP3   OH251826   1.839   5.754  10.901  0.0354  0.6247 -0.2913
10112TIP3    H151827   1.829   5.661  10.919 -3.3525  0.4982 -2.0686
10112TIP3    H251828   1.912   5.759  10.839  0.8812 -0.6767  0.5469
10113TIP3   OH251829   4.697   6.217  10.958 -0.0244 -0.1741  0.1201
10113TIP3    H151830   4.715   6.224  11.052 -0.1861 -0.1520  0.1502
10113TIP3    H251831   4.719   6.304  10.924  0.1456 -0.2172  0.1172
10114TIP3   OH251832   5.314   6.178  15.784  0.2980  0.0842 -0.7470
10114TIP3    H151833   5.316   6.215  15.695  2.2558  1.4992 -0.2052
10114TIP3    H251834   5.318   6.255  15.841  1.8097 -0.8561  0.4956
10115TIP3   OH251835   1.836   2.990   4.662  0.5541  0.1998 -0.6754
10115TIP3    H151836   1.866   2.933   4.733 -2.0065  1.0152  1.1911
10115TIP3    H251837   1.766   2.940   4.620  0.0646  0.9015 -0.7013
10116TIP3   OH251838   2.083   6.259  14.747  0.1193 -0.3635 -0.3800
10116TIP3    H151839   2.037   6.342  14.730  1.2977  0.5297  0.5923
10116TIP3    H251840   2.027   6.212  14.808  0.4374  0.6895  0.7539
10117TIP3   OH251841   2.107   1.425  15.470  0.0335  0.4281 -0.3956
10117TIP3    H151842   2.085   1.350  15.415  0.9868 -1.1103  1.1837
10117TIP3    H251843   2.039   1.490  15.451 -0.6129 -0.6831 -2.0935
10118TIP3   OH251844   0.330   0.335   2.518 -0.2048  0.0599  0.3796
10118TIP3    H151845   0.259   0.279   2.488 -1.0924  1.4147 -0.1539
10118TIP3    H251846   0.378   0.282   2.581  0.5958 -2.2651 -1.9711
10119TIP3   OH251847   0.472   6.586   2.414  0.6948 -0.4398  0.0416
10119TIP3    H151848   0.457   6.492   2.424  0.4335 -0.4229 -0.1796
10119TIP3    H251849   0.406   6.627   2.470  0.0156 -0.3695 -0.7740
10120TIP3   OH251850   0.389   3.452   5.007  0.3057 -0.2207 -0.3394
10120TIP3    H151851   0.294   3.463   5.008  0.4128  0.9130 -0.8881
10120TIP3    H251852   0.403   3.360   5.031 -0.8112  0.1590  2.0033
10121TIP3   OH251853   3.528   3.490   3.804 -0.2439  0.0229 -0.4335
10121TIP3    H151854   3.606   3.507   3.856 -0.3318  2.2183 -0.9335
10121TIP3    H251855   3.558   3.434   3.733  1.5666  2.9976 -2.1749
10122TIP3   OH251856   3.413   1.882  13.620  0.1872  0.0347  0.7566
10122TIP3    H151857   3.444   1.791  13.620  0.7316  0.2124  0.4480
10122TIP3    H251858   3.332   1.880  13.670 -0.5763 -0.8947 -0.4655
10123TIP3   OH251859   0.347   6.517  15.449  0.4686 -0.1384 -0.4568
10123TIP3    H151860   0.389   6.571  15.516 -0.8593  0.0044  0.2791
10123TIP3    H251861   0.299   6.579  15.394  1.7980 -0.2172 -1.7744
10124TIP3   OH251862   1.677   6.074   6.274  0.8639 -0.4574 -0.5055
10124TIP3    H151863   1.606   6.015   6.250 -0.3448 -0.0599  1.8458
10124TIP3    H251864   1.756   6.034   6.236 -0.0508 -3.0133  0.1332
10125TIP3   OH251865   3.883   6.623   1.046  0.6097 -0.1441  0.8720
10125TIP3    H151866   3.832   6.623   1.126  0.6533  2.2349  0.9641
10125TIP3    H251867   3.830   6.671   0.983  1.2085 -0.7186 -0.1021
10126TIP3   OH251868   0.157   6.226   3.932  0.3719  0.0198  0.3479
10126TIP3    H151869   0.161   6.154   3.869 -0.9660  1.5656 -1.6628
10126TIP3    H251870   0.169   6.305   3.879  2.2958  1.3170  2.5319
10127TIP3   OH251871   1.991   3.743   0.689  0.3218  0.5914  0.2123
10127TIP3    H151872   2.068   3.720   0.636 -0.0487  2.3764 -1.2199
10127TIP3    H251873   1.920   3.691   0.652  0.4845  0.2619  0.3616
10128TIP3   OH251874   6.075   1.432   5.531 -0.0889  0.1555 -0.4051
10128TIP3    H151875   6.167   1.418   5.509 -0.4685  0.2724 -2.1419
10128TIP3    H251876   6.054   1.362   5.593  1.9457  1.8628  2.4943
10129TIP3   OH251877   3.579   0.410   3.355 -0.4107 -0.5814  0.2697
10129TIP3    H151878   3.497   0.439   3.395  0.9710  1.6392  1.6851
10129TIP3    H251879   3.645   0.469   3.389  2.0629 -3.0902  0.2270
10130TIP3   OH251880   6.361   3.160  15.613  0.0461  0.4407  0.2762
10130TIP3    H151881   6.405   3.079  15.639 -1.5903 -0.4422  0.4620
10130TIP3    H251882   6.428   3.227  15.620  2.0054 -1.1349 -1.6507
10131TIP3   OH251883   2.108   6.271   4.029 -0.0956  0.1882  0.1551
10131TIP3    H151884   2.171   6.203   4.008  1.0531  1.5936 -1.2012
10131TIP3    H251885   2.035   6.256   3.968 -0.5580 -0.7249  0.9150
10132TIP3   OH251886   3.134   4.549  10.943 -0.3470 -0.2431  0.0785
10132TIP3    H151887   3.114   4.471  10.891  1.6856 -0.7699  0.0051
10132TIP3    H251888   3.095   4.621  10.893  0.2117 -0.9027 -1.3824
10133TIP3   OH251889   3.486   0.428   1.249  0.0030  0.5403 -0.1563
10133TIP3    H151890   3.534   0.352   1.217  1.6306  1.7692 -0.7580
10133TIP3    H251891   3.461   0.475   1.170 -1.0019  0.6394  0.2104
10134TIP3   OH251892   4.580   6.475  14.527  0.2697 -0.2130  0.4488
10134TIP3    H151893   4.666   6.477  14.485 -0.5983 -0.4797 -1.4146
10134TIP3    H251894   4.564   6.382  14.545 -0.2043 -0.3210 -0.4820
10135TIP3   OH251895   3.087   5.540  16.445  0.1521  0.1392 -0.2011
10135TIP3    H151896   3.180   5.516  16.447  0.8398  2.4065 -1.2437
10135TIP3    H251897   3.061   5.527  16.353 -0.8287 -1.2284  0.2315
10136TIP3   OH251898   0.423   2.550  14.166  0.3143 -0.1615 -0.5596
10136TIP3    H151899   0.351   2.487  14.160 -0.1461  0.4320 -1.5588
10136TIP3    H251900   0.385   2.627  14.207  0.9146 -0.5585  0.7978
10137TIP3   OH251901   3.614   6.332  16.802 -0.2853 -0.4008 -0.1665
10137TIP3    H151902   3.541   6.276  16.828 -1.1426  0.6294 -0.3279
10137TIP3    H251903   3.630   6.388  16.878  1.1653 -1.4069  0.3397
10138TIP3   OH251904   0.805   1.674  12.204 -0.3285 -0.0708 -0.0775
10138TIP3    H151905   0.769   1.681  12.292  0.0827 -0.1208  0.1012
10138TIP3    H251906   0.832   1.763  12.182 -1.2622  0.1096 -0.5229
10139TIP3   OH251907   4.792   3.147   1.811 -0.1892  0.2616 -0.3721
10139TIP3    H151908   4.855   3.192   1.755  1.6857 -1.2955  0.3587
10139TIP3    H251909   4.846   3.100   1.875 -2.1669  1.9476  2.8306
10140TIP3   OH251910   4.058   1.938   3.338 -0.0236 -0.1007  0.4850
10140TIP3    H151911   3.985   2.000   3.348 -1.9202 -1.7355 -2.1375
10140TIP3    H251912   4.134   1.994   3.323 -1.7061  1.7121 -2.1163
10141TIP3   OH251913   1.392   4.260  11.601  0.1996  0.7169 -0.1101
10141TIP3    H151914   1.408   4.339  11.550 -0.4215 -0.1739 -1.7673
10141TIP3    H251915   1.326   4.285  11.666  0.2796  1.6409 -0.3775
10142TIP3   OH251916   4.259   2.659  15.061  0.2208 -0.3965 -0.1363
10142TIP3    H151917   4.178   2.641  15.013  0.1248  0.7137 -0.4050
10142TIP3    H251918   4.305   2.723  15.008  1.2814 -0.9985  0.0330
10143TIP3   OH251919   3.775   5.639  11.528  0.3644  0.0293  0.5017
10143TIP3    H151920   3.767   5.732  11.509  0.1839 -0.5638 -3.0812
10143TIP3    H251921   3.849   5.610  11.474 -0.7629 -2.1867  0.0234
10144TIP3   OH251922   5.434   0.391   5.889  0.2831 -0.5964 -0.0751
10144TIP3    H151923   5.439   0.314   5.946  0.0945 -2.4995 -2.4611
10144TIP3    H251924   5.383   0.455   5.940 -0.0310 -2.2366  1.7971
10145TIP3   OH251925   2.755   2.348  12.398 -0.3091 -0.4859  0.0018
10145TIP3    H151926   2.848   2.362  12.380 -0.6885 -0.4879 -2.2747
10145TIP3    H251927   2.739   2.393  12.481  1.6747 -0.3709  0.3673
10146TIP3   OH251928   1.888   5.425   1.125 -0.6525 -0.0602 -0.3302
10146TIP3    H151929   1.902   5.407   1.218 -1.9216 -0.0864 -0.1220
10146TIP3    H251930   1.906   5.342   1.082 -0.6420 -0.2104 -0.0394
10147TIP3   OH251931   1.236   3.346   6.107 -0.0208  0.1952  0.6315
10147TIP3    H151932   1.239   3.357   6.012 -0.2758 -0.2292  0.5705
10147TIP3    H251933   1.176   3.272   6.121  0.7884 -0.3964  1.0672
10148TIP3   OH251934   2.235   0.411   1.748  1.1473  0.5833  0.4764
10148TIP3    H151935   2.151   0.444   1.780 -0.8535 -1.8483 -1.7931
10148TIP3    H251936   2.271   0.484   1.697 -1.6764  0.4966 -1.9502
10149TIP3   OH251937   6.109   3.153  15.143  0.5527  0.0097 -0.3564
10149TIP3    H151938   6.034   3.207  15.119 -0.3151 -0.4977  1.0928
10149TIP3    H251939   6.185   3.209  15.126 -0.3010  1.6936  0.9602
10150TIP3   OH251940   4.265   6.673  14.829 -0.3495  0.0540 -0.4992
10150TIP3    H151941   4.294   6.743  14.888  1.0135  0.3980 -1.5287
10150TIP3    H251942   4.340   6.613  14.825 -1.0469 -0.8297 -0.5944
10151TIP3   OH251943   0.266   6.226   1.816 -0.0684 -0.5944 -0.0624
10151TIP3    H151944   0.273   6.319   1.837  1.3139 -0.3221 -1.5381
10151TIP3    H251945   0.216   6.224   1.734  0.5858 -1.0809 -0.4561
10152TIP3   OH251946   4.501   2.749   3.328 -0.1391 -0.3819 -1.0472
10152TIP3    H151947   4.482   2.783   3.241 -2.9257  1.3789  0.0880
10152TIP3    H251948   4.425   2.694   3.349 -0.8295  1.2717  1.1664
10153TIP3   OH251949   2.811   3.430   3.894  0.4368 -0.4039  0.3278
10153TIP3    H151950   2.777   3.519   3.900 -1.0045 -0.9622  1.3026
10153TIP3    H251951   2.849   3.413   3.980  0.5658 -0.7639  0.2030
10154TIP3   OH251952   5.199   1.174  14.346  0.4019  0.2466  0.2646
10154TIP3    H151953   5.143   1.101  14.373  1.3107 -1.0562 -1.1604
10154TIP3    H251954   5.255   1.192  14.422 -0.5051  0.1449  0.9697
10155TIP3   OH251955   1.745   4.231   1.329 -0.1414 -0.0897 -0.1276
10155TIP3    H151956   1.771   4.242   1.237  0.1318 -0.9315 -0.1615
10155TIP3    H251957   1.703   4.313   1.352 -1.5625 -0.4063 -1.4448
10156TIP3   OH251958   6.074   0.708  15.173  0.3265 -0.1241  0.3597
10156TIP3    H151959   5.993   0.759  15.164  0.8706  0.6065 -0.6396
10156TIP3    H251960   6.134   0.768  15.217  1.2037  0.4317 -1.4749
10157TIP3   OH251961   6.831   0.753  12.359 -0.8541 -0.4354  0.4350
10157TIP3    H151962   6.763   0.815  12.330 -1.0145  0.5296  2.6712
10157TIP3    H251963   6.831   0.760  12.454  1.3460 -1.5686  0.5850
10158TIP3   OH251964   4.717   3.712  16.855  0.5281 -0.0328 -0.3155
10158TIP3    H151965   4.745   3.683  16.768 -0.7736 -2.8813  0.0769
10158TIP3    H251966   4.643   3.770  16.838  0.6823 -0.0612 -1.1389
10159TIP3   OH251967   0.377   5.448  11.282 -0.0770 -0.6557  0.0428
10159TIP3    H151968   0.405   5.364  11.319  1.2102 -0.2510  0.0372
10159TIP3    H251969   0.388   5.437  11.188 -0.0597 -0.5292  0.0306
10160TIP3   OH251970   6.127   6.846  16.951 -0.2168 -0.1554 -0.5998
10160TIP3    H151971   6.087   6.920  16.906  0.5370  0.1763 -0.7531
10160TIP3    H251972   6.155   6.882  17.036  0.0658 -0.2881 -0.6374
10161TIP3   OH251973   0.268   6.285   3.671  0.2725  0.4013 -0.3863
10161TIP3    H151974   0.245   6.275   3.579  0.7639 -1.4145 -0.3445
10161TIP3    H251975   0.324   6.210   3.691 -1.1180 -0.1664  1.8110
10162TIP3   OH251976   1.497   0.834  13.690 -0.6839  0.2949  0.2439
10162TIP3    H151977   1.571   0.873  13.643 -0.7666  0.4112  0.2086
10162TIP3    H251978   1.474   0.899  13.756 -0.7700  0.2702  0.2383
10163TIP3   OH251979   5.125   2.313   2.898  0.4372 -0.1724 -0.0036
10163TIP3    H151980   5.057   2.376   2.874  0.1679 -0.3037  0.3946
10163TIP3    H251981   5.207   2.361   2.890  0.1495  0.6980  1.6827
10164TIP3   OH251982   0.731   3.168  12.302  0.0836  0.4060 -0.1488
10164TIP3    H151983   0.675   3.241  12.277  0.3282  0.5093 -0.4035
10164TIP3    H251984   0.785   3.151  12.224  0.5131  0.4106  0.1456
10165TIP3   OH251985   6.372   0.948   4.048  0.7126 -0.4293  0.0944
10165TIP3    H151986   6.353   0.984   3.962  1.1084  0.2553  0.2812
10165TIP3    H251987   6.447   1.000   4.079 -0.1906  0.1768  1.3473
10166TIP3   OH251988   2.914   0.673  13.599 -0.4857  0.8244 -0.3177
10166TIP3    H151989   2.826   0.663  13.634 -0.6518  0.2952 -0.8720
10166TIP3    H251990   2.919   0.766  13.575 -0.4386  1.1477  0.8783
10167TIP3   OH251991   3.020   3.182  16.290  0.4666 -0.1091  0.0089
10167TIP3    H151992   3.095   3.134  16.325  0.7201  0.1243 -0.2056
10167TIP3    H251993   2.973   3.211  16.368 -0.6929 -2.2050  0.1554
10168TIP3   OH251994   5.253   1.457  12.314  0.5884  0.4440  0.0239
10168TIP3    H151995   5.310   1.387  12.281  0.5811 -0.0993  1.1266
10168TIP3    H251996   5.164   1.423  12.301  0.5108  1.1109 -1.2998
10169TIP3   OH251997   4.776   2.023   1.378 -0.6490 -0.2146 -0.2892
10169TIP3    H151998   4.804   1.932   1.371  2.6631  0.7079 -1.0697
10169TIP3    H251999   4.824   2.058   1.453 -2.8705  0.6500  0.8264
10170TIP3   OH252000   2.384   0.112   5.223  0.1741 -0.8318 -0.4429
10170TIP3    H152001   2.438   0.187   5.197 -2.4226  1.6121  0.6043
10170TIP3    H252002   2.392   0.110   5.319 -1.3588 -0.5221 -0.2886
10171TIP3   OH252003   6.367   5.942   1.921 -0.2442  0.1240 -0.2323
10171TIP3    H152004   6.418   6.022   1.908 -0.5972  0.4142  0.1379
10171TIP3    H252005   6.291   5.970   1.972 -1.5535 -0.0210 -2.0156
10172TIP3   OH252006   4.015   5.454   2.217 -0.1435 -0.1054 -0.4149
10172TIP3    H152007   4.104   5.461   2.253 -0.1029  1.3894 -0.7421
10172TIP3    H252008   3.969   5.395   2.277  1.0245 -0.7885 -0.1636
10173TIP3   OH252009   5.809   0.251  14.925 -0.3704 -0.4287 -0.4510
10173TIP3    H152010   5.875   0.319  14.912 -1.4005  0.6420 -0.1844
10173TIP3    H252011   5.785   0.224  14.837 -0.3899 -0.0245 -0.5715
10174TIP3   OH252012   5.026   6.589   0.543 -0.3418  0.2342 -0.2075
10174TIP3    H152013   5.034   6.584   0.638  1.0082  0.0831 -0.3090
10174TIP3    H252014   5.113   6.617   0.513 -1.3751  2.6022 -1.2433
10175TIP3   OH252015   4.488   1.212   1.995 -0.2276  0.0904  0.5851
10175TIP3    H152016   4.566   1.234   1.942 -0.6147 -0.6324 -0.3093
10175TIP3    H252017   4.522   1.160   2.068  0.5034  2.2408  1.8725
10176TIP3   OH252018   4.497   0.858   2.056 -0.8184 -0.2309  0.1340
10176TIP3    H152019   4.539   0.931   2.103  0.4727 -0.3235 -0.8170
10176TIP3    H252020   4.430   0.827   2.116 -0.3157  0.7057  1.2343
10177TIP3   OH252021   3.891   5.416  15.744  0.2556 -0.5458 -0.4480
10177TIP3    H152022   3.928   5.332  15.773  2.0740  0.3207 -0.1015
10177TIP3    H252023   3.840   5.394  15.666  1.2936 -1.8924 -0.7995
10178TIP3   OH252024   0.842   3.472  13.740 -0.4110 -0.3860  0.1299
10178TIP3    H152025   0.779   3.450  13.671 -0.0098 -1.5175  0.1056
10178TIP3    H252026   0.789   3.481  13.819 -0.7129 -0.4051 -0.0681
10179TIP3   OH252027   0.430   0.025   2.319  0.3936 -0.0580 -0.0074
10179TIP3    H152028   0.400  -0.029   2.392 -0.8486  1.8691  0.9935
10179TIP3    H252029   0.385  -0.010   2.242 -1.4900  0.3525  0.8514
10180TIP3   OH252030   4.696   4.604   2.482  0.0609 -0.1547 -0.3731
10180TIP3    H152031   4.781   4.599   2.526  0.4336  0.9453 -0.9204
10180TIP3    H252032   4.713   4.566   2.395  0.0527  0.2488 -0.5536
10181TIP3   OH252033   1.187   2.371   4.726  0.2161  0.4011  0.0835
10181TIP3    H152034   1.136   2.426   4.666 -0.0926  2.0300  1.7445
10181TIP3    H252035   1.240   2.433   4.776 -0.6965 -0.6755  2.5689
10182TIP3   OH252036   3.955   2.263  12.187  0.8675 -0.2765  0.4334
10182TIP3    H152037   4.022   2.326  12.159  0.3981 -0.2519 -0.6492
10182TIP3    H252038   3.913   2.305  12.263  0.9660  0.4401  0.0980
10183TIP3   OH252039   4.446   6.383  13.671  0.0737 -0.2821  0.3919
10183TIP3    H152040   4.524   6.415  13.716  1.5138 -2.6914 -0.2252
10183TIP3    H252041   4.375   6.438  13.704  1.7588  0.9088  2.2356
10184TIP3   OH252042   0.846   0.751  14.890 -0.2519  0.0927  0.4871
10184TIP3    H152043   0.857   0.662  14.855  3.5656  0.9981 -1.1851
10184TIP3    H252044   0.828   0.805  14.813  0.5828  1.1407  1.0011
10185TIP3   OH252045   0.909   5.648  12.851  0.0078  0.5044 -0.1534
10185TIP3    H152046   0.975   5.589  12.887 -1.8391 -1.3869  0.3485
10185TIP3    H252047   0.917   5.728  12.904  0.2018 -0.6359  1.6318
10186TIP3   OH252048   1.530   4.396  11.356 -0.1347  0.6453 -0.2542
10186TIP3    H152049   1.591   4.439  11.296  1.0787  0.4415  0.7834
10186TIP3    H252050   1.513   4.461  11.424 -0.9980  0.6566 -0.4678
10187TIP3   OH252051   1.875   5.641  11.675  0.7987  0.6279 -0.1574
10187TIP3    H152052   1.805   5.576  11.683  0.2597  0.8682 -2.3981
10187TIP3    H252053   1.899   5.660  11.766 -2.7043  1.2330  0.8141
10188TIP3   OH252054   4.427   2.940  15.704 -1.0027  0.0255  0.2212
10188TIP3    H152055   4.444   3.005  15.772  0.7532  1.1344 -1.1986
10188TIP3    H252056   4.353   2.976  15.655 -0.1942  0.8901 -0.4102
10189TIP3   OH252057   0.276   5.461  10.806  0.0015 -0.1623  0.1117
10189TIP3    H152058   0.198   5.469  10.752 -1.3630 -4.3363  1.0906
10189TIP3    H252059   0.348   5.458  10.744 -0.8764  1.0679 -1.0138
10190TIP3   OH252060   2.775   1.039   0.059  0.0226  0.0244  0.5701
10190TIP3    H152061   2.829   1.112   0.029  1.3074 -1.4091 -0.8395
10190TIP3    H252062   2.754   1.059   0.150 -0.0653  2.3482  0.0849
10191TIP3   OH252063   4.333   0.524  11.710 -0.0859 -0.3903 -0.1726
10191TIP3    H152064   4.399   0.547  11.775 -0.8431 -0.8862  0.8058
10191TIP3    H252065   4.261   0.487  11.761 -0.3983 -1.5033 -1.3661
10192TIP3   OH252066   0.842   0.620  16.932  1.0454 -0.4618 -0.7827
10192TIP3    H152067   0.930   0.652  16.911  0.7529  1.1529  0.2903
10192TIP3    H252068   0.831   0.641  17.025 -0.1606 -1.4282 -0.6889
10193TIP3   OH252069   0.577   3.202  16.517  0.2385  0.6754  0.1713
10193TIP3    H152070   0.571   3.282  16.465  0.9315  0.9945  0.5519
10193TIP3    H252071   0.557   3.131  16.456  1.7084  0.9817 -0.7195
10194TIP3   OH252072   4.770   3.382   1.096  0.0345  0.0576  0.3997
10194TIP3    H152073   4.786   3.344   1.010  1.0245 -0.9116  0.9804
10194TIP3    H252074   4.761   3.306   1.155  1.4064  0.6845  1.4785
10195TIP3   OH252075   2.121   4.351   4.913  0.1896 -0.0146 -0.3469
10195TIP3    H152076   2.170   4.421   4.870  1.5578 -0.7252 -0.0274
10195TIP3    H252077   2.037   4.390   4.937  1.1511  1.6847  0.3771
10196TIP3   OH252078   0.611   6.830   0.988 -0.6725 -0.0438 -0.3733
10196TIP3    H152079   0.606   6.809   1.081  3.1671 -1.1540 -0.2265
10196TIP3    H252080   0.657   6.914   0.985 -0.1455 -0.3507 -1.2592
10197TIP3   OH252081   4.911   3.959  12.968 -0.5209  0.4989  0.6958
10197TIP3    H152082   4.841   4.011  12.928 -0.7843 -1.0512 -0.9807
10197TIP3    H252083   4.916   3.880  12.915  0.1971 -1.0094  2.8607
10198TIP3   OH252084   1.968   5.621  17.085  0.2491 -0.0070 -0.0410
10198TIP3    H152085   2.061   5.639  17.066  0.3543 -0.0114  0.4738
10198TIP3    H252086   1.921   5.690  17.037  0.5714  0.6385  0.5586
10199TIP3   OH252087   3.294   6.032   3.003  0.1036  0.7210 -0.4560
10199TIP3    H152088   3.387   6.020   3.023 -0.2816  0.1022  1.1418
10199TIP3    H252089   3.264   6.097   3.066 -0.3611  1.6854 -1.6246
10200TIP3   OH252090   0.358   3.744  16.850  0.2478 -0.2366  0.5548
10200TIP3    H152091   0.417   3.820  16.848 -0.2507  0.1447 -0.2809
10200TIP3    H252092   0.275   3.778  16.883 -0.2007 -0.2340 -0.5211
10201TIP3   OH252093   5.127   6.620  13.092 -0.2000  0.5334  0.1808
10201TIP3    H152094   5.079   6.550  13.049  2.1017 -0.3628 -1.0739
10201TIP3    H252095   5.114   6.696  13.035 -2.7952  1.2848  1.6046
10202TIP3   OH252096   4.563   1.828  11.434 -0.0377  0.2130 -0.3827
10202TIP3    H152097   4.613   1.909  11.423  0.8120 -0.4340 -1.5744
10202TIP3    H252098   4.493   1.834  11.369 -0.7416  0.5258  0.3822
10203TIP3   OH252099   3.528   2.376  14.115 -0.3406 -0.1542  0.1098
10203TIP3    H152100   3.545   2.384  14.021  0.7835  0.3592  0.3441
10203TIP3    H252101   3.448   2.427  14.129 -0.3170  0.0622 -0.5076
10204TIP3   OH252102   4.204   0.129  11.268 -0.8875 -0.6341 -0.8477
10204TIP3    H152103   4.241   0.041  11.254 -1.2709 -0.8318 -0.6475
10204TIP3    H252104   4.110   0.114  11.270 -0.9304 -0.3009 -0.2184
10205TIP3   OH252105   4.514   4.777   3.427  0.1203 -0.5305 -0.2037
10205TIP3    H152106   4.543   4.852   3.479 -2.0758 -0.4247  1.0188
10205TIP3    H252107   4.543   4.796   3.338  2.1257  0.3336  0.5769
10206TIP3   OH252108   5.095   3.925  11.445 -0.4465  0.2013 -0.2574
10206TIP3    H152109   5.084   4.016  11.475  0.5924  0.4415 -0.5373
10206TIP3    H252110   5.155   3.932  11.370 -1.2905 -0.6111 -1.0237
10207TIP3   OH252111   3.937   3.779   0.827 -0.5795 -0.5159  0.4333
10207TIP3    H152112   3.967   3.716   0.893 -0.6468 -1.4557 -0.4180
10207TIP3    H252113   4.003   3.848   0.829  0.7454 -1.7073 -0.2022
10208TIP3   OH252114   0.262   1.541  13.273  0.5393 -0.2105 -0.2332
10208TIP3    H152115   0.299   1.463  13.231  2.4094  0.9012 -0.7842
10208TIP3    H252116   0.190   1.567  13.216 -0.4003 -1.7504  0.1942
10209TIP3   OH252117   3.188   5.261  10.757  0.0057  0.4929 -0.5130
10209TIP3    H152118   3.168   5.354  10.745  0.5308  0.6217 -0.4338
10209TIP3    H252119   3.147   5.218  10.683  2.3260  1.1445 -2.2945
10210TIP3   OH252120   6.118   6.727   2.518  0.3850  0.3935 -0.3411
10210TIP3    H152121   6.101   6.803   2.462 -1.8576 -0.1845 -0.5374
10210TIP3    H252122   6.186   6.757   2.579  1.0834  1.8414 -1.7571
10211TIP3   OH252123   3.242   2.048  12.037  0.3565  0.1949  0.1871
10211TIP3    H152124   3.304   2.106  11.993 -0.0768 -0.0368 -0.7493
10211TIP3    H252125   3.218   2.095  12.117  0.5813  0.9660 -0.1905
10212TIP3   OH252126   1.449   3.656  14.511 -0.3842  0.1407 -0.1280
10212TIP3    H152127   1.456   3.740  14.465 -0.3854  0.4684  0.4541
10212TIP3    H252128   1.483   3.591  14.450  0.2334  0.6547 -0.3324
10213TIP3   OH252129   3.497   1.751   2.069 -0.2349 -0.3304  0.4367
10213TIP3    H152130   3.527   1.788   2.151 -1.6139 -1.5983  1.5692
10213TIP3    H252131   3.407   1.782   2.060  0.8778  2.6577 -2.4122
10214TIP3   OH252132   5.952   1.839  15.392  0.3823  0.0357  0.1341
10214TIP3    H152133   5.942   1.791  15.474 -0.4230 -0.9744 -0.5372
10214TIP3    H252134   5.929   1.929  15.415  1.8520  0.1405  1.3890
10215TIP3   OH252135   6.741   0.785  14.620 -0.2361 -0.3346 -0.0025
10215TIP3    H152136   6.731   0.701  14.576  0.2880 -0.2712 -0.2494
10215TIP3    H252137   6.834   0.806  14.610 -0.3729  0.2884  0.0312
10216TIP3   OH252138   5.031   6.497   1.969  0.5603  0.0115  0.0094
10216TIP3    H152139   5.056   6.549   2.045  0.8201  0.3308 -0.2950
10216TIP3    H252140   5.030   6.559   1.896  0.5714 -0.3442 -0.2959
10217TIP3   OH252141   1.008   3.889   4.678 -0.6609 -0.2244  0.3665
10217TIP3    H152142   1.070   3.816   4.687 -0.3589 -0.3406 -1.9684
10217TIP3    H252143   0.922   3.849   4.693 -0.5831 -1.3575 -1.6824
10218TIP3   OH252144   1.260   5.799   1.466  0.4378  0.1400 -0.0664
10218TIP3    H152145   1.187   5.813   1.526  0.5475 -1.9554  0.6475
10218TIP3    H252146   1.230   5.837   1.383 -0.8220  0.6997  0.6166
10219TIP3   OH252147   2.820   6.404   1.059  0.5031  0.9051  0.1491
10219TIP3    H152148   2.726   6.423   1.066  0.8381  2.1211  2.0466
10219TIP3    H252149   2.835   6.334   1.123  0.7302 -0.1376 -0.9972
10220TIP3   OH252150   3.494   6.821  15.390  0.0042  0.3572 -0.1362
10220TIP3    H152151   3.499   6.883  15.317 -0.4117  2.3636  1.4299
10220TIP3    H252152   3.401   6.816  15.411 -0.0970 -1.6403 -0.8421
10221TIP3   OH252153   1.888   1.108  16.617  0.1464  0.1346  0.1614
10221TIP3    H152154   1.858   1.129  16.528 -0.0908  2.5099  0.7489
10221TIP3    H252155   1.984   1.117  16.613  0.0584  1.3680  0.3734
10222TIP3   OH252156   2.263   2.187   6.282 -0.4197  0.0701 -0.0420
10222TIP3    H152157   2.220   2.112   6.323 -0.0573  0.6401  1.4635
10222TIP3    H252158   2.216   2.263   6.318 -0.1893  0.5905 -0.8325
10223TIP3   OH252159   1.672   3.664  13.857  0.7149  0.0852  0.5022
10223TIP3    H152160   1.754   3.622  13.885  0.1145 -0.1437  2.0436
10223TIP3    H252161   1.691   3.757  13.863  0.9134  0.0354  0.6890
10224TIP3   OH252162   6.077   5.934  13.497 -0.1370  0.7905 -0.2585
10224TIP3    H152163   6.034   5.993  13.436  0.9377  2.1669  0.2516
10224TIP3    H252164   6.011   5.916  13.564 -0.1444  2.3703  0.1942
10225TIP3   OH252165   2.745   6.453   1.751  0.5347 -0.4365 -0.7314
10225TIP3    H152166   2.800   6.428   1.826  0.1091 -0.0951 -0.3042
10225TIP3    H252167   2.775   6.541   1.728 -2.2216  1.3699  1.8371
10226TIP3   OH252168   3.302   2.087   1.665 -0.0810  0.0970  0.3328
10226TIP3    H152169   3.318   2.181   1.674  1.1720  0.0637 -1.0134
10226TIP3    H252170   3.311   2.053   1.753 -0.1023  1.1900  0.7779
10227TIP3   OH252171   2.794   4.489  16.666  0.0645 -0.0881 -0.4808
10227TIP3    H152172   2.829   4.532  16.588 -0.9779 -0.8222 -1.4009
10227TIP3    H252173   2.720   4.437  16.633 -0.2304 -0.6367  0.9605
10228TIP3   OH252174   5.960   5.145  13.349  0.4624 -0.9654 -0.3865
10228TIP3    H152175   5.895   5.200  13.304  1.1687  0.3904  0.1830
10228TIP3    H252176   5.942   5.056  13.317 -0.4969 -0.3747 -1.6146
10229TIP3   OH252177   1.082   5.219   2.753 -0.1976 -0.6945  0.3902
10229TIP3    H152178   1.055   5.308   2.731 -1.5500 -1.0142  0.6742
10229TIP3    H252179   1.072   5.213   2.848  0.8755 -0.8493  0.5123
10230TIP3   OH252180   0.458   6.188  15.017  0.5747 -0.4601 -0.3101
10230TIP3    H152181   0.547   6.202  15.049  1.0939  0.9700 -2.1495
10230TIP3    H252182   0.471   6.155  14.928 -0.7087  0.4654 -0.8628
10231TIP3   OH252183   0.132   6.658   4.250  0.4527  0.2745 -0.4309
10231TIP3    H152184   0.157   6.614   4.331  1.5606  1.2174 -0.2250
10231TIP3    H252185   0.042   6.631   4.234  0.6032 -0.8442  0.4825
10232TIP3   OH252186   5.919   5.211   2.400  0.0661  0.3893 -0.0417
10232TIP3    H152187   5.981   5.150   2.439  0.8688  1.4819  0.4419
10232TIP3    H252188   5.950   5.298   2.427 -0.6578  1.0548 -1.2622
10233TIP3   OH252189   6.150   5.235  11.061  0.0449 -0.7809  0.4995
10233TIP3    H152190   6.170   5.260  11.151  1.3090 -0.2844  0.1034
10233TIP3    H252191   6.187   5.305  11.008  1.3298 -2.1732 -0.5207
10234TIP3   OH252192   0.846   1.596   0.777 -0.0123  0.5029 -0.6132
10234TIP3    H152193   0.849   1.501   0.761 -0.0794  0.4658 -0.4093
10234TIP3    H252194   0.778   1.628   0.717 -0.0226  0.4158 -0.6481
10235TIP3   OH252195   3.129   5.444   2.510 -0.6251  0.1236  0.2202
10235TIP3    H152196   3.200   5.454   2.574  1.1289 -1.5663 -1.3153
10235TIP3    H252197   3.090   5.359   2.532 -1.2226  0.3841  0.1615
10236TIP3   OH252198   6.702   2.225  12.651  0.3989 -0.3811 -0.6759
10236TIP3    H152199   6.713   2.162  12.580 -1.2689 -1.9435  0.3580
10236TIP3    H252200   6.608   2.245  12.651  0.4513 -0.0256  0.7285
10237TIP3   OH252201   4.420   4.805   5.420  0.6237  0.3734  0.4132
10237TIP3    H152202   4.487   4.871   5.403 -0.1891  1.3769  0.9959
10237TIP3    H252203   4.469   4.725   5.436  1.6046  0.5561 -1.3663
10238TIP3   OH252204   6.289   3.302   2.869 -0.1452 -0.4274  0.0558
10238TIP3    H152205   6.384   3.295   2.878 -0.2460 -1.2435  0.5711
10238TIP3    H252206   6.258   3.332   2.954 -0.4648 -1.4921  0.3368
10239TIP3   OH252207   5.930   3.474  15.255  0.1330 -0.0755  0.1551
10239TIP3    H152208   5.872   3.398  15.256 -0.6633  0.5239  0.9724
10239TIP3    H252209   5.903   3.524  15.178 -0.7750  0.4381  0.7902
10240TIP3   OH252210   5.493   3.973  14.968 -0.1450  0.1155 -0.2334
10240TIP3    H152211   5.538   4.053  14.993  0.1274 -0.5212  1.4577
10240TIP3    H252212   5.559   3.904  14.977 -1.4036 -0.8823  2.6416
10241TIP3   OH252213   5.501   0.877   5.104  0.2507  0.0872 -0.5349
10241TIP3    H152214   5.411   0.849   5.116  0.1783  0.4329 -0.2467
10241TIP3    H252215   5.497   0.936   5.028  0.1154  0.6451 -0.0972
10242TIP3   OH252216   2.942   5.437   2.934 -0.1145  0.2213 -0.7803
10242TIP3    H152217   3.006   5.387   2.885  1.1516  2.3056 -1.3764
10242TIP3    H252218   2.986   5.460   3.016  0.7663  3.2339 -1.9407
10243TIP3   OH252219   5.071   1.585   5.717 -0.0283  0.6823  0.5805
10243TIP3    H152220   5.134   1.641   5.672  2.1593  0.0411  2.6510
10243TIP3    H252221   5.026   1.645   5.777 -0.7237  0.9515 -0.1878
10244TIP3   OH252222   4.666   0.108   0.560 -0.0946  0.0404 -0.4539
10244TIP3    H152223   4.729   0.176   0.534 -0.1921  1.0036  1.5632
10244TIP3    H252224   4.706   0.026   0.533  0.3747  0.8294 -2.3125
10245TIP3   OH252225   5.217   0.392   5.650 -0.0460 -0.4195 -0.1420
10245TIP3    H152226   5.166   0.473   5.661  0.5501 -0.2711  1.9338
10245TIP3    H252227   5.283   0.395   5.720  1.7619 -1.4170 -1.7163
10246TIP3   OH252228   1.348   3.720   4.264 -0.3934 -0.0017 -0.9075
10246TIP3    H152229   1.334   3.750   4.354 -1.8286  1.5862 -1.6097
10246TIP3    H252230   1.300   3.637   4.259  0.8650 -0.8374  0.1392
10247TIP3   OH252231   3.961   6.372  15.942  0.8247 -0.4640  0.0410
10247TIP3    H152232   3.901   6.447  15.942  1.5290  0.1049  0.0663
10247TIP3    H252233   3.935   6.320  16.018  1.4660  0.6758  1.0789
10248TIP3   OH252234   2.905   1.805   3.135  0.2387 -0.3286 -0.0956
10248TIP3    H152235   2.838   1.872   3.122 -0.6163 -1.0228  0.5955
10248TIP3    H252236   2.867   1.726   3.097  0.2187 -0.9677  1.2032
10249TIP3   OH252237   5.462   4.716  13.554  0.0704  0.0142 -0.1964
10249TIP3    H152238   5.500   4.790  13.506 -1.1394  0.1654 -0.9584
10249TIP3    H252239   5.371   4.741  13.568  0.1777 -0.4116  1.4504
10250TIP3   OH252240   6.574   5.072   5.070 -0.1607 -0.4408 -0.1310
10250TIP3    H152241   6.625   5.000   5.107  1.1813  0.1388 -0.7703
10250TIP3    H252242   6.597   5.148   5.123  1.5013  0.3184 -1.8473
10251TIP3   OH252243   1.227   4.481  12.746 -0.1431  0.3336 -0.1745
10251TIP3    H152244   1.299   4.514  12.692 -1.9545  0.5621 -2.6441
10251TIP3    H252245   1.258   4.397  12.780  1.6757  0.9620 -0.2104
10252TIP3   OH252246   1.138   6.600   5.256  0.1805  0.3504  0.0227
10252TIP3    H152247   1.147   6.677   5.200 -0.4290  0.5696  0.2293
10252TIP3    H252248   1.225   6.590   5.296  1.1244 -0.6908 -2.0816
10253TIP3   OH252249   1.871   6.621   2.785  0.1901 -0.5245  0.5973
10253TIP3    H152250   1.787   6.603   2.827  0.3749  1.3753  1.9412
10253TIP3    H252251   1.893   6.540   2.739 -2.1704 -1.2074  0.5089
10254TIP3   OH252252   0.412   6.445  14.266 -0.2100  0.2877  0.0899
10254TIP3    H152253   0.374   6.434  14.179  0.7380 -0.4256 -0.2453
10254TIP3    H252254   0.339   6.433  14.326 -1.0113  1.4229 -0.6130
10255TIP3   OH252255   6.016   0.247  16.801 -0.0728  0.4119  0.2451
10255TIP3    H152256   5.949   0.227  16.866 -1.4794  1.2371 -0.9088
10255TIP3    H252257   6.005   0.340  16.782  1.2765  0.5238 -0.1354
10256TIP3   OH252258   6.472   5.539  11.584  0.1956  0.3796 -0.6314
10256TIP3    H152259   6.541   5.499  11.531  2.8144  1.6422  1.5569
10256TIP3    H252260   6.518   5.605  11.637 -2.9182  2.0552  0.2064
10257TIP3   OH252261   5.812   0.494   0.500  0.3767 -0.5730  0.1196
10257TIP3    H152262   5.730   0.456   0.468  1.8238 -1.4462 -2.9836
10257TIP3    H252263   5.863   0.418   0.530  0.4391 -0.1524  1.1012
10258TIP3   OH252264   3.627   1.128   1.310 -0.0581 -0.0045 -0.1307
10258TIP3    H152265   3.641   1.036   1.286 -1.2110 -0.3552  0.4981
10258TIP3    H252266   3.624   1.128   1.405 -0.0818  0.6845 -0.1289
10259TIP3   OH252267   5.381   3.257  12.610  0.1656  0.5663 -0.5681
10259TIP3    H152268   5.326   3.322  12.567  0.4479  0.4928 -1.0465
10259TIP3    H252269   5.457   3.249  12.554  0.9193  1.0437  0.3522
10260TIP3   OH252270   3.050   4.251   3.325  0.1442  0.3795  0.2014
10260TIP3    H152271   2.960   4.280   3.340 -0.6670 -2.0488  0.4552
10260TIP3    H252272   3.089   4.248   3.413  0.7062  1.9437  0.0460
10261TIP3   OH252273   1.575   3.438   2.701  0.1063  0.5390 -0.0556
10261TIP3    H152274   1.558   3.511   2.641 -1.2603 -0.6032 -1.1274
10261TIP3    H252275   1.493   3.426   2.747  0.0514 -0.8219 -0.4778
10262TIP3   OH252276   5.560   3.157  14.171  0.4765 -0.2507  0.7962
10262TIP3    H152277   5.478   3.146  14.123  2.1727  0.9579 -2.7280
10262TIP3    H252278   5.562   3.251  14.192  1.0161 -0.2495  0.7444
10263TIP3   OH252279   6.231   1.926  13.963 -0.0350 -0.5579 -0.1168
10263TIP3    H152280   6.183   1.968  13.892 -0.4435 -0.8092  0.0072
10263TIP3    H252281   6.205   1.834  13.958  1.9467 -1.1252 -1.3083
10264TIP3   OH252282   3.150   6.459   5.666 -0.2296 -0.3116 -0.6113
10264TIP3    H152283   3.069   6.429   5.708 -0.4003 -1.2339 -1.5630
10264TIP3    H252284   3.161   6.400   5.592  1.5940 -0.5144 -0.2098
10265TIP3   OH252285   0.405   2.334   6.270 -0.2646  0.3090  0.5767
10265TIP3    H152286   0.360   2.362   6.350  0.0203  0.9936  0.5100
10265TIP3    H252287   0.462   2.408   6.248  1.0363 -0.6076  0.7488
10266TIP3   OH252288   2.988   1.796   1.836 -0.0557 -0.0973  0.3520
10266TIP3    H152289   2.925   1.799   1.764 -1.4332  1.5145  1.5488
10266TIP3    H252290   2.935   1.773   1.913  0.8636  0.8863  1.3166
10267TIP3   OH252291   0.340   3.490   6.057 -0.1170 -0.8091 -0.7099
10267TIP3    H152292   0.426   3.449   6.059 -0.0760 -0.6994  0.3042
10267TIP3    H252293   0.279   3.419   6.077 -0.1694 -0.6902 -0.4361
10268TIP3   OH252294   1.845   1.531  12.938 -0.4465 -0.4074 -0.1559
10268TIP3    H152295   1.859   1.507  13.030 -2.6410  1.2364  0.7082
10268TIP3    H252296   1.913   1.595  12.919  0.1581 -0.9217  0.2454
10269TIP3   OH252297   6.744   6.855  16.177 -0.0670 -0.0934 -0.3954
10269TIP3    H152298   6.817   6.881  16.233 -1.4577  1.7462  0.6762
10269TIP3    H252299   6.676   6.826  16.238 -0.9144  0.0640 -1.2472
10270TIP3   OH252300   6.070   5.129  11.598 -0.3143  0.3022 -0.2249
10270TIP3    H152301   6.076   5.209  11.650 -0.8150  0.4807 -0.4432
10270TIP3    H252302   6.161   5.102  11.587  0.0985  2.2124 -2.2726
10271TIP3   OH252303   2.816   0.600   1.136 -0.0668  0.2377 -0.0288
10271TIP3    H152304   2.795   0.646   1.055  1.0361 -0.4926 -0.7519
10271TIP3    H252305   2.910   0.587   1.133 -0.2980 -1.8311  0.2527
10272TIP3   OH252306   6.729   6.749  11.362  0.3560  0.3157 -0.3535
10272TIP3    H152307   6.812   6.786  11.332  0.2380  2.1352  1.3569
10272TIP3    H252308   6.742   6.654  11.359  2.1410  0.5462 -1.0019
10273TIP3   OH252309   4.233   3.760   3.569 -0.6019  0.1010 -0.0587
10273TIP3    H152310   4.328   3.745   3.568 -0.4285  0.8914  1.4509
10273TIP3    H252311   4.224   3.850   3.599 -1.8536 -0.0295 -0.0176
10274TIP3   OH252312   0.693   4.704  15.733  0.5103 -0.1563  0.3654
10274TIP3    H152313   0.699   4.799  15.726  1.8425 -0.0152  2.5210
10274TIP3    H252314   0.605   4.688  15.768 -0.0131  0.1896 -0.7332
10275TIP3   OH252315   6.146   1.123   1.153 -0.4206  0.1158  0.3402
10275TIP3    H152316   6.052   1.140   1.144 -0.5478 -0.6745  0.1392
10275TIP3    H252317   6.179   1.124   1.063 -0.3605 -0.3199  0.3589
10276TIP3   OH252318   1.878   6.594   4.736 -0.5414  0.1049  0.5271
10276TIP3    H152319   1.953   6.563   4.685 -0.4466  0.4555  0.4488
10276TIP3    H252320   1.847   6.671   4.689  0.5353  1.4059  1.8451
10277TIP3   OH252321   5.269   5.976   6.138 -0.2367 -0.2330  0.2456
10277TIP3    H152322   5.181   5.946   6.113 -0.9331 -0.8628  3.1413
10277TIP3    H252323   5.257   6.069   6.158 -0.3166 -0.3786  0.8883
10278TIP3   OH252324   0.263   1.276  11.814 -0.0740 -0.4086 -0.1030
10278TIP3    H152325   0.183   1.242  11.774 -0.2438 -0.8577  0.6068
10278TIP3    H252326   0.238   1.298  11.904  0.6706 -0.8688  0.2280
10279TIP3   OH252327   4.539   6.189   4.758  0.4964  0.1766 -0.1983
10279TIP3    H152328   4.520   6.098   4.733  0.1066 -0.3200  1.7635
10279TIP3    H252329   4.531   6.238   4.676 -3.5767 -0.8737 -0.6525
10280TIP3   OH252330   5.765   4.557   1.376 -0.6567  0.0867  0.2668
10280TIP3    H152331   5.721   4.481   1.413 -1.6936  1.2127  1.4401
10280TIP3    H252332   5.723   4.568   1.290 -1.1233 -0.1504  0.4575
10281TIP3   OH252333   6.841   5.344  16.066  0.5270  0.1893 -0.1419
10281TIP3    H152334   6.888   5.415  16.021 -1.4463  0.1485 -2.4669
10281TIP3    H252335   6.749   5.368  16.060 -0.2128 -2.5076 -0.9636
10282TIP3   OH252336   3.784   4.856  16.866  0.5641  0.2244 -0.4070
10282TIP3    H152337   3.713   4.849  16.801  0.6238 -2.1354 -0.2822
10282TIP3    H252338   3.786   4.771  16.908  1.2381  1.3567  2.0124
10283TIP3   OH252339   1.020   4.192  11.566  0.2348  0.2886 -0.4294
10283TIP3    H152340   0.960   4.255  11.525 -1.5020 -0.9468  0.0907
10283TIP3    H252341   1.101   4.200  11.516  0.5873  3.8813  0.4620
10284TIP3   OH252342   4.451   1.806  13.615  0.1871 -0.5031 -0.1062
10284TIP3    H152343   4.419   1.760  13.537  0.9074  0.1243 -0.7942
10284TIP3    H252344   4.409   1.892  13.610  1.2443  0.0054 -0.5299
10285TIP3   OH252345   1.486   6.477  11.536 -0.7008 -0.0545  0.3852
10285TIP3    H152346   1.509   6.545  11.600  0.6930 -0.1290 -0.0003
10285TIP3    H252347   1.422   6.422  11.582 -0.3920  0.3994  1.3970
10286TIP3   OH252348   1.427   5.125  16.660 -0.3589 -0.3443  0.3452
10286TIP3    H152349   1.335   5.143  16.645 -0.0177  0.4380 -0.9213
10286TIP3    H252350   1.437   5.032  16.638 -0.5593 -0.0566 -1.0281
10287TIP3   OH252351   5.349   5.862  11.242  0.1783  0.1485 -0.1767
10287TIP3    H152352   5.391   5.793  11.192  1.4276 -0.0525  1.0958
10287TIP3    H252353   5.302   5.817  11.311 -0.0414  0.5124 -0.0846
10288TIP3   OH252354   3.926   6.431  15.216  0.2641 -0.0808  0.0036
10288TIP3    H152355   3.982   6.426  15.293 -1.4267  1.6286  1.4466
10288TIP3    H252356   3.973   6.490  15.156  0.8908 -0.2084  0.3638
10289TIP3   OH252357   0.136   3.116  13.915 -0.2857  0.0572 -0.1160
10289TIP3    H152358   0.197   3.047  13.888 -0.3616  0.3498 -1.0926
10289TIP3    H252359   0.157   3.133  14.007  1.9993  1.0260 -0.7292
10290TIP3   OH252360   3.816   5.278   3.488  0.1512  0.2533  0.1202
10290TIP3    H152361   3.845   5.305   3.575  0.8374 -0.8570  0.2512
10290TIP3    H252362   3.844   5.349   3.430 -0.4568  1.0833  0.8053
10291TIP3   OH252363   4.194   2.911  13.492  0.2435 -0.3182  0.2150
10291TIP3    H152364   4.158   2.859  13.565 -1.7875  0.7453  0.0629
10291TIP3    H252365   4.288   2.895  13.495  0.0555 -1.4283  2.1913
10292TIP3   OH252366   5.986   4.732   0.612  0.5461 -0.2820  0.3741
10292TIP3    H152367   5.904   4.723   0.564  1.3499 -0.7903 -0.9726
10292TIP3    H252368   5.964   4.785   0.688 -0.7538  0.7250 -0.6542
10293TIP3   OH252369   2.645   3.099   1.641  0.4841  0.1676 -0.4333
10293TIP3    H152370   2.550   3.110   1.636  0.6187  1.8386 -0.1017
10293TIP3    H252371   2.673   3.084   1.551 -0.3419 -3.5095 -0.2396
10294TIP3   OH252372   3.227   4.203   2.208 -0.6004 -0.5846  0.1252
10294TIP3    H152373   3.232   4.195   2.303 -0.5293 -0.6282  0.1180
10294TIP3    H252374   3.248   4.294   2.191  1.2974 -1.0061  0.0188
10295TIP3   OH252375   0.505   3.022  16.970  0.2652  0.0501  0.5247
10295TIP3    H152376   0.521   3.026  17.064  2.7380  1.0302  0.1295
10295TIP3    H252377   0.570   2.960  16.937  0.0688  0.4393 -0.6412
10296TIP3   OH252378   1.651   3.700  15.458  0.0451  0.3313  0.1861
10296TIP3    H152379   1.662   3.794  15.471  0.8411  0.4416 -1.0771
10296TIP3    H252380   1.738   3.668  15.435 -0.2416 -0.6925  0.4622
10297TIP3   OH252381   2.072   5.097  12.199  0.3711  1.2615 -0.2050
10297TIP3    H152382   2.131   5.022  12.207 -3.0291 -1.6898  0.0853
10297TIP3    H252383   2.111   5.165  12.254  2.3276 -1.2738  1.7839
10298TIP3   OH252384   2.897   6.687   3.510 -0.0093 -0.0635  0.4145
10298TIP3    H152385   2.822   6.739   3.480 -0.5431  0.5075  2.5342
10298TIP3    H252386   2.941   6.744   3.574  0.2749 -1.6472  1.6760
10299TIP3   OH252387   6.564   4.542   1.493  0.4554  0.4208  0.1522
10299TIP3    H152388   6.496   4.505   1.436  0.5184 -0.4598  0.6334
10299TIP3    H252389   6.646   4.524   1.448  0.5276 -0.5411  0.6496
10300TIP3   OH252390   1.753   2.410  14.076 -0.0472 -0.1977 -0.5212
10300TIP3    H152391   1.690   2.439  14.010  0.7098  0.2156 -1.0804
10300TIP3    H252392   1.838   2.437  14.041  0.4135 -0.4610  0.3731
10301TIP3   OH252393   0.297   4.094   5.103 -0.2543 -0.2496 -0.1691
10301TIP3    H152394   0.374   4.150   5.093  0.4706 -0.9842  1.0743
10301TIP3    H252395   0.246   4.136   5.173 -0.5811 -0.2167 -0.4216
10302TIP3   OH252396   4.815   4.730  13.741 -0.0437  0.4452 -0.0624
10302TIP3    H152397   4.757   4.699  13.672  2.0139 -0.2730 -1.5679
10302TIP3    H252398   4.840   4.819  13.714  0.3279  0.3759  0.0401
10303TIP3   OH252399   2.829   2.535  11.940 -0.2051 -0.2419 -0.1078
10303TIP3    H152400   2.892   2.467  11.917 -0.9764 -1.1414  0.3944
10303TIP3    H252401   2.747   2.508  11.899 -0.7715 -0.1526  0.9296
10304TIP3   OH252402   3.079   2.214   4.350  0.7546  0.0548 -0.2932
10304TIP3    H152403   3.007   2.228   4.412 -0.5825 -0.9095 -1.5542
10304TIP3    H252404   3.141   2.284   4.369  0.5296 -0.3275  2.2790
10305TIP3   OH252405   5.738   5.898   3.015  0.0355  0.5823  0.4322
10305TIP3    H152406   5.707   5.986   3.038  1.2375  1.0090  0.5028
10305TIP3    H252407   5.794   5.912   2.938  1.7404  0.1728  1.5501
10306TIP3   OH252408   6.185   0.209  12.118  0.0879  0.1317 -0.1743
10306TIP3    H152409   6.091   0.221  12.105 -0.2050 -1.6646 -0.0230
10306TIP3    H252410   6.192   0.149  12.192  1.4662  2.2618  1.5155
10307TIP3   OH252411   3.257   4.877  15.141  0.3498 -0.2305 -0.1324
10307TIP3    H152412   3.253   4.922  15.057 -2.1622  0.8475  0.4786
10307TIP3    H252413   3.206   4.797  15.128 -1.0356  0.5049  0.6524
10308TIP3   OH252414   6.669   5.909   5.952 -0.6305  0.2684  0.1995
10308TIP3    H152415   6.602   5.899   6.019 -0.2541 -0.8191  0.4370
10308TIP3    H252416   6.749   5.877   5.994 -0.1996  0.4679 -0.4572
10309TIP3   OH252417   2.023   5.008   6.329  0.1848  0.1516 -0.2316
10309TIP3    H152418   2.015   5.086   6.384 -1.8815  0.0724 -0.3314
10309TIP3    H252419   1.969   5.027   6.253 -2.1097 -2.0867  0.6924
10310TIP3   OH252420   1.231   2.944  12.400  0.0903 -0.1927  0.3662
10310TIP3    H152421   1.249   3.033  12.372 -1.2897  0.2656  0.8105
10310TIP3    H252422   1.176   2.908  12.330  0.2860 -0.5415  0.3928
10311TIP3   OH252423   3.233   2.363   0.316  0.0973 -0.4197  1.1519
10311TIP3    H152424   3.152   2.403   0.285  1.0588  0.8843  0.2311
10311TIP3    H252425   3.255   2.410   0.396  1.4369  1.2992 -0.1384
10312TIP3   OH252426   5.838   2.998   3.624  0.0473 -0.8429 -0.0199
10312TIP3    H152427   5.870   2.927   3.680 -1.7957 -0.7983  1.1951
10312TIP3    H252428   5.801   2.953   3.548  2.4764 -0.9097 -1.2528
10313TIP3   OH252429   3.768   4.213  15.793  0.6933  0.0813 -0.6783
10313TIP3    H152430   3.789   4.276  15.862  0.5540  0.2486 -0.7881
10313TIP3    H252431   3.762   4.129  15.838  0.0008  0.2820 -0.3820
10314TIP3   OH252432   1.120   5.527   1.702 -0.0085 -0.3698 -0.6003
10314TIP3    H152433   1.041   5.547   1.751  0.0985 -2.2738  0.4584
10314TIP3    H252434   1.183   5.593   1.729  0.4201 -2.0000  2.8901
10315TIP3   OH252435   5.889   2.090   2.902 -0.6492 -0.1022  0.5707
10315TIP3    H152436   5.839   2.134   2.833 -0.8009 -0.4151  0.4769
10315TIP3    H252437   5.919   2.161   2.959  0.0525  0.2189 -0.1844
10316TIP3   OH252438   6.701   2.262  16.426  0.3193  0.1937  0.5498
10316TIP3    H152439   6.743   2.176  16.432 -0.1802 -0.0686  0.3752
10316TIP3    H252440   6.698   2.281  16.332  0.6150  0.4987  0.6000
10317TIP3   OH252441   6.597   3.128  13.596  0.7422  0.0371 -0.2609
10317TIP3    H152442   6.583   3.132  13.690 -1.2491  0.5170 -0.5205
10317TIP3    H252443   6.691   3.116  13.585  0.7701 -2.2708  1.8287
10318TIP3   OH252444   2.889   4.294  14.141 -0.0768 -0.0928 -0.0361
10318TIP3    H152445   2.965   4.349  14.122  0.0310  0.0586  0.8082
10318TIP3    H252446   2.926   4.210  14.168 -0.2252 -0.2536 -0.3245
10319TIP3   OH252447   3.523   5.453   3.148 -0.0082  0.5907  0.6528
10319TIP3    H152448   3.506   5.533   3.099 -0.3988  0.3992  0.4699
10319TIP3    H252449   3.610   5.466   3.187  0.0558  0.9786  0.3818
10320TIP3   OH252450   1.441   5.372  16.422  0.0862 -0.4222 -0.3408
10320TIP3    H152451   1.389   5.448  16.449 -0.1789 -0.0290 -1.8590
10320TIP3    H252452   1.377   5.312  16.383  0.4382 -0.9763 -0.0694
10321TIP3   OH252453   1.424   1.362   2.580 -0.0089 -0.6229 -0.2703
10321TIP3    H152454   1.412   1.399   2.492  1.6369 -0.0624 -0.2806
10321TIP3    H252455   1.387   1.428   2.639 -1.8099 -1.3324 -0.5374
10322TIP3   OH252456   2.245   1.068  12.241  0.4110 -0.1084  0.0976
10322TIP3    H152457   2.208   1.090  12.156 -1.8639  1.3890  1.3785
10322TIP3    H252458   2.286   1.148  12.272  1.6285 -0.7665  0.2534
10323TIP3   OH252459   2.047   3.855   3.524 -0.5232 -0.2497  0.1870
10323TIP3    H152460   2.052   3.772   3.477 -1.8219 -0.3000  0.1069
10323TIP3    H252461   1.962   3.853   3.567 -1.3158  1.7320 -1.1389
10324TIP3   OH252462   0.128   0.548   1.595  0.6024 -0.2743  0.0617
10324TIP3    H152463   0.086   0.576   1.513  0.1482  1.7067  0.9019
10324TIP3    H252464   0.221   0.562   1.580  0.8745 -2.8527 -1.1348
10325TIP3   OH252465   2.426   4.244  10.913  0.2432  0.4114  0.0412
10325TIP3    H152466   2.419   4.182  10.985  0.7469  0.2463 -0.0499
10325TIP3    H252467   2.383   4.201  10.839  0.4855  0.2195  0.0105
10326TIP3   OH252468   3.960   4.192   1.032 -0.3418 -0.0454  0.0750
10326TIP3    H152469   4.005   4.175   1.114 -0.4347  2.2103  0.6487
10326TIP3    H252470   3.924   4.107   1.006  1.8890 -1.3372  0.9944
10327TIP3   OH252471   3.663   6.694  11.622  0.3692 -0.3563 -0.3322
10327TIP3    H152472   3.748   6.684  11.665 -0.2734 -1.6155  0.7390
10327TIP3    H252473   3.649   6.789  11.618  1.2014 -0.1692  0.7364
10328TIP3   OH252474   0.514   4.277   5.088 -0.5681  0.5346 -0.8638
10328TIP3    H152475   0.555   4.317   5.164 -2.6411  0.9015  0.1480
10328TIP3    H252476   0.542   4.331   5.014  1.8096 -0.0673 -0.4890
10329TIP3   OH252477   3.921   5.666   3.528  0.0027 -0.0065  0.1315
10329TIP3    H152478   3.900   5.621   3.609 -0.7539  0.2380  0.0799
10329TIP3    H252479   3.869   5.622   3.461  1.6195 -1.0816 -0.4789
10330TIP3   OH252480   4.579   2.123  13.481 -0.4077 -0.0231  0.2202
10330TIP3    H152481   4.501   2.088  13.524 -0.4960 -0.8995 -0.6109
10330TIP3    H252482   4.554   2.212  13.454 -0.1718  0.7451  2.3672
10331TIP3   OH252483   5.346   4.767   0.882 -0.3479 -0.0506  0.3166
10331TIP3    H152484   5.277   4.702   0.889 -1.3101  0.7837 -0.8992
10331TIP3    H252485   5.331   4.808   0.796 -0.0669  2.0424  1.2122
10332TIP3   OH252486   5.415   3.301   5.164 -0.2150  0.8082 -0.1022
10332TIP3    H152487   5.358   3.287   5.089 -0.5728  0.4489  0.2280
10332TIP3    H252488   5.357   3.335   5.232 -0.0560  0.3822  0.2556
10333TIP3   OH252489   6.638   2.284  11.413 -0.4126  0.1336  0.2813
10333TIP3    H152490   6.595   2.369  11.424 -0.3051 -0.0569  2.5624
10333TIP3    H252491   6.571   2.229  11.372 -1.1619  0.7873  0.5932
10334TIP3   OH252492   1.100   6.314   3.243  0.3060  0.4033  0.2287
10334TIP3    H152493   1.159   6.389   3.245 -0.6370  1.1698  0.5279
10334TIP3    H252494   1.016   6.351   3.215 -0.4742 -0.3167  1.5001
10335TIP3   OH252495   0.208   0.217   1.358  0.0977 -0.0833 -0.2706
10335TIP3    H152496   0.277   0.282   1.345  0.3486 -0.2359  0.2610
10335TIP3    H252497   0.131   0.254   1.315  0.2946  0.4638 -0.1615
10336TIP3   OH252498   1.435   2.287   3.565 -0.7425 -0.2890 -0.1572
10336TIP3    H152499   1.464   2.208   3.519  0.0700  0.5982 -1.2411
10336TIP3    H252500   1.515   2.340   3.573 -1.3961  0.6966 -0.0317
10337TIP3   OH252501   6.720   4.262   0.788  0.2579  0.9126 -0.5101
10337TIP3    H152502   6.742   4.325   0.720 -0.8889 -0.3374 -2.1189
10337TIP3    H252503   6.755   4.300   0.869  1.9913  2.2812 -1.8269
10338TIP3   OH252504   2.310   6.497   3.528  0.5518  0.0287  0.2298
10338TIP3    H152505   2.334   6.441   3.602  0.7456  0.6154  0.6168
10338TIP3    H252506   2.222   6.528   3.549 -0.1633 -1.2711 -0.6809
10339TIP3   OH252507   5.982   4.533  15.896  0.4528 -0.0457  0.6717
10339TIP3    H152508   6.021   4.533  15.808  0.4253 -1.8854  0.6339
10339TIP3    H252509   5.906   4.475  15.889  0.1869  0.1408  1.8129
10340TIP3   OH252510   2.662   0.539  14.309  0.1598 -0.4332 -0.0289
10340TIP3    H152511   2.727   0.595  14.351  0.6160 -1.5390  0.7813
10340TIP3    H252512   2.583   0.549  14.362 -0.2870  0.6826 -0.8440
10341TIP3   OH252513   5.036   1.819   3.762 -0.7035 -0.0681 -0.1274
10341TIP3    H152514   4.950   1.803   3.802  0.1658 -0.4554  1.7115
10341TIP3    H252515   5.021   1.807   3.669 -2.6365 -0.1783  0.1375
10342TIP3   OH252516   0.139   3.919  15.834 -0.2629  0.1843  0.2642
10342TIP3    H152517   0.176   3.877  15.911 -1.3170 -0.1970  0.5761
10342TIP3    H252518   0.068   3.974  15.868 -1.6944 -1.0855 -0.5345
10343TIP3   OH252519   5.094   2.921   5.845  0.0149  0.2631  0.1327
10343TIP3    H152520   5.113   3.010   5.873 -0.5492  0.5966 -0.4950
10343TIP3    H252521   5.109   2.867   5.922 -1.6177  1.1545  1.1398
10344TIP3   OH252522   2.476   6.652  16.056  0.0079  0.0783  0.1910
10344TIP3    H152523   2.435   6.630  15.973 -0.6728  1.0040  0.2617
10344TIP3    H252524   2.411   6.627  16.122  1.1378 -2.0831  0.5904
10345TIP3   OH252525   2.472   5.253   5.597  0.2825 -0.1912 -0.4464
10345TIP3    H152526   2.454   5.268   5.504  1.0198 -2.6161 -1.0326
10345TIP3    H252527   2.567   5.254   5.604  0.2277  0.4947  0.4115
10346TIP3   OH252528   5.523   3.327  16.375  0.2550 -0.0762 -0.4879
10346TIP3    H152529   5.442   3.376  16.364 -0.3727 -0.7457  0.9475
10346TIP3    H252530   5.497   3.247  16.420  1.7013 -0.3311 -0.0543
10347TIP3   OH252531   3.629   4.522  13.340 -0.4473 -0.4428 -0.7001
10347TIP3    H152532   3.549   4.495  13.297 -0.5556 -0.9011 -0.2230
10347TIP3    H252533   3.618   4.495  13.431 -0.1846  0.4105 -0.4018
10348TIP3   OH252534   4.681   1.300   0.255 -0.0952 -0.3672 -0.2942
10348TIP3    H152535   4.730   1.258   0.326  0.0331 -0.2391 -0.3060
10348TIP3    H252536   4.665   1.389   0.287 -0.9746 -0.6281  0.0266
10349TIP3   OH252537   4.797   2.786  16.359 -0.1077  0.2979 -0.1382
10349TIP3    H152538   4.792   2.697  16.392  0.0457  0.2629 -0.2073
10349TIP3    H252539   4.779   2.777  16.265  0.7130  0.2325 -0.3012
10350TIP3   OH252540   1.280   3.282   4.502 -0.0199 -0.2951  0.3016
10350TIP3    H152541   1.296   3.276   4.597 -0.4480 -0.8730  0.3450
10350TIP3    H252542   1.254   3.373   4.488 -0.3665 -0.3089  0.8085
10351TIP3   OH252543   6.589   2.678  14.961 -0.2050  0.9115  0.3198
10351TIP3    H152544   6.651   2.707  14.894  1.2333  0.6138  1.4605
10351TIP3    H252545   6.557   2.594  14.928  1.4181  0.1661  0.5074
10352TIP3   OH252546   1.477   2.768  13.699  0.0143  0.2226  0.4543
10352TIP3    H152547   1.422   2.822  13.755 -1.4621 -1.1027  0.3431
10352TIP3    H252548   1.451   2.792  13.610 -0.1308 -0.1513  0.3939
10353TIP3   OH252549   1.965   4.005   6.930 -0.2809  0.0823  0.0574
10353TIP3    H152550   1.875   3.974   6.917  0.1045 -1.2536  0.4333
10353TIP3    H252551   2.001   4.008   6.841 -1.0065  1.6917 -0.2164
10354TIP3   OH252552   5.661   0.401  14.386  0.0546 -0.1029 -0.0468
10354TIP3    H152553   5.644   0.352  14.305  0.3835 -0.3116  0.0092
10354TIP3    H252554   5.593   0.468  14.387  0.9436  0.8572 -1.2736
10355TIP3   OH252555   4.684   6.351  12.823 -0.5290 -0.0905 -0.1955
10355TIP3    H152556   4.715   6.283  12.764  1.6529  1.9159 -1.5512
10355TIP3    H252557   4.701   6.433  12.777  1.0497  1.6117  3.0103
10356TIP3   OH252558   1.286   0.864  15.541  0.1581  0.1796 -0.4853
10356TIP3    H152559   1.234   0.832  15.468 -1.2216  2.8317 -0.8128
10356TIP3    H252560   1.237   0.838  15.619 -0.0112 -0.0065 -0.6553
10357TIP3   OH252561   2.431   5.972  13.641  0.0282  0.1233 -0.3208
10357TIP3    H152562   2.398   5.882  13.641  1.1305 -0.3054  0.7295
10357TIP3    H252563   2.434   5.996  13.734  3.0614 -0.0590 -0.2630
10358TIP3   OH252564   6.073   0.707   0.555 -0.2128  0.2442 -0.0611
10358TIP3    H152565   6.073   0.643   0.625  0.1599 -1.5352 -1.6115
10358TIP3    H252566   6.161   0.744   0.555 -0.4690  0.8781  0.9215
10359TIP3   OH252567   6.028   1.595   6.340  0.2012 -0.1611 -0.9930
10359TIP3    H152568   5.997   1.673   6.386  3.0704 -0.4856  1.8773
10359TIP3    H252569   5.963   1.528   6.361  0.5067  0.1639  1.2494
10360TIP3   OH252570   0.249   1.084  15.379  0.2101 -0.6169 -0.1590
10360TIP3    H152571   0.330   1.076  15.329  0.7510 -1.0519  0.7756
10360TIP3    H252572   0.275   1.124  15.461 -0.8959  1.3913 -0.7292
10361TIP3   OH252573   3.168   0.757   0.175 -0.0910 -0.0790 -0.2734
10361TIP3    H152574   3.125   0.842   0.176 -0.7616 -0.3794  2.0970
10361TIP3    H252575   3.202   0.748   0.086 -2.6032  1.3399 -1.4738
10362TIP3   OH252576   5.022   6.035   1.819  0.4048 -0.8322 -0.4343
10362TIP3    H152577   5.033   5.976   1.894 -0.3150 -3.4492 -2.2361
10362TIP3    H252578   5.109   6.042   1.780  0.2665 -1.8593 -0.9658
10363TIP3   OH252579   2.772   6.243  15.486 -0.3037 -0.6387 -0.0278
10363TIP3    H152580   2.847   6.184  15.482  0.0508 -0.1754 -0.3449
10363TIP3    H252581   2.808   6.326  15.517 -0.9334 -0.7949  1.1750
10364TIP3   OH252582   6.380   2.668  16.999 -0.1075 -0.0637  0.1550
10364TIP3    H152583   6.381   2.675  16.904  0.4384 -0.6077  0.1127
10364TIP3    H252584   6.368   2.758  17.030 -3.2862 -0.1478 -0.4356
10365TIP3   OH252585   2.424   4.771  15.558 -0.0778  0.3249 -0.4213
10365TIP3    H152586   2.477   4.691  15.550  0.9356  0.9076  0.2305
10365TIP3    H252587   2.334   4.742  15.540  0.2014 -1.0479  0.2568
10366TIP3   OH252588   1.705   0.098  12.061 -0.5274  0.4697  0.1647
10366TIP3    H152589   1.691   0.033  12.129 -0.1228 -0.3145 -0.4896
10366TIP3    H252590   1.757   0.166  12.103 -1.8587  0.9191  1.1598
10367TIP3   OH252591   4.598   0.423   4.025  0.1066  0.3135  0.2660
10367TIP3    H152592   4.656   0.418   3.949  2.0341  0.4422  1.6480
10367TIP3    H252593   4.510   0.426   3.988  0.9836  0.5479 -1.9541
10368TIP3   OH252594   5.434   5.802  13.649  0.4537  0.7522 -0.0656
10368TIP3    H152595   5.406   5.827  13.737 -0.9945 -0.3145 -0.1898
10368TIP3    H252596   5.360   5.825  13.593  1.4802  1.7101 -1.0921
10369TIP3   OH252597   5.784   1.326   5.494 -0.3080 -0.2721  0.0271
10369TIP3    H152598   5.789   1.353   5.586  0.7438  0.0667 -0.1140
10369TIP3    H252599   5.758   1.234   5.498 -0.5903 -0.1737  0.6493
10370TIP3   OH252600   2.908   2.700   5.099  0.1167 -0.2410 -0.0290
10370TIP3    H152601   2.873   2.788   5.102  1.2089  0.2260 -0.2373
10370TIP3    H252602   2.980   2.705   5.035  2.5286 -0.3717  2.4790
10371TIP3   OH252603   1.068   2.794   4.177 -0.3151 -0.5873 -0.1558
10371TIP3    H152604   1.145   2.794   4.120 -1.6342 -0.2237 -1.9996
10371TIP3    H252605   1.104   2.810   4.265  1.4993  2.6060 -1.3009
10372TIP3   OH252606   1.633   3.352   5.485  0.1635 -0.0956 -0.1397
10372TIP3    H152607   1.719   3.326   5.515  0.2342  0.1104 -0.1637
10372TIP3    H252608   1.610   3.287   5.419  0.6890  0.3577 -0.7921
10373TIP3   OH252609   0.914   5.997   5.307  0.0585  0.1801  0.1535
10373TIP3    H152610   0.844   6.057   5.281 -0.5020  0.4230  2.0961
10373TIP3    H252611   0.876   5.910   5.295  0.4541  0.2009 -1.5125
10374TIP3   OH252612   3.990   0.251  10.928 -0.3106  0.4214 -0.2617
10374TIP3    H152613   4.034   0.331  10.954  0.2864 -0.2897  0.9909
10374TIP3    H252614   3.998   0.249  10.832  0.5080  1.3676 -0.2271
10375TIP3   OH252615   0.303   3.243  14.982  0.1252 -0.2450  0.3306
10375TIP3    H152616   0.285   3.162  14.934 -0.8701 -0.0315  0.3141
10375TIP3    H252617   0.347   3.214  15.062  0.1883 -0.7644  0.1120
10376TIP3   OH252618   0.867   0.083   1.880  0.0379 -0.8555  0.3281
10376TIP3    H152619   0.918   0.062   1.958  0.6373 -1.7705 -0.2851
10376TIP3    H252620   0.899   0.023   1.813  0.8434  1.0971 -1.1621
10377TIP3   OH252621   2.906   2.923   4.416 -0.0704  0.3453  0.1333
10377TIP3    H152622   2.937   2.873   4.492  1.1598  1.3047  0.2999
10377TIP3    H252623   2.982   2.930   4.359  0.0957  2.7326  0.5226
10378TIP3   OH252624   6.274   1.779  15.509 -0.3279  0.6289 -0.2104
10378TIP3    H152625   6.355   1.793  15.558 -0.2030  0.3537 -0.3342
10378TIP3    H252626   6.271   1.851  15.447 -0.4227  0.9084  0.1174
10379TIP3   OH252627   3.735   5.971  13.611 -0.6310 -0.0793  0.1610
10379TIP3    H152628   3.719   5.938  13.700  0.5698 -0.4976  0.2306
10379TIP3    H252629   3.665   6.036  13.598 -0.9343 -0.1292  1.3381
10380TIP3   OH252630   6.800   1.422   2.416 -0.5741 -0.5075  0.1109
10380TIP3    H152631   6.875   1.467   2.378 -1.1711  0.6194  0.2087
10380TIP3    H252632   6.827   1.400   2.505 -0.4169  0.0693  0.2107
10381TIP3   OH252633   1.015   2.918  12.938  0.1874  0.0979 -0.4784
10381TIP3    H152634   1.031   2.898  12.845  2.1478 -0.9024  0.0241
10381TIP3    H252635   1.094   2.964  12.966  0.8648 -2.0167  1.3406
10382TIP3   OH252636   4.132   3.207   4.272 -0.0467 -0.3783 -0.4539
10382TIP3    H152637   4.165   3.272   4.209  1.2822 -0.8469 -0.2638
10382TIP3    H252638   4.199   3.139   4.274  0.6772  0.3069  2.5302
10383TIP3   OH252639   1.488   3.230   4.115 -0.4496 -0.3320 -0.6473
10383TIP3    H152640   1.575   3.190   4.114  1.3485  3.1505  0.3170
10383TIP3    H252641   1.463   3.237   4.023  1.3486  0.5329 -1.1148
10384TIP3   OH252642   5.394   6.662   4.577 -0.1984 -0.6937  0.5113
10384TIP3    H152643   5.351   6.715   4.643  1.7587 -0.5826  1.7764
10384TIP3    H252644   5.359   6.695   4.494 -0.9153  0.8357  1.3662
10385TIP3   OH252645   6.521   1.794   4.849  0.0353 -0.2845  0.0896
10385TIP3    H152646   6.432   1.778   4.815  0.4002 -1.5154 -0.3247
10385TIP3    H252647   6.577   1.793   4.771  0.5127 -0.2725  0.4288
10386TIP3   OH252648   1.439   0.167  16.127 -0.3188 -0.5577  0.5192
10386TIP3    H152649   1.367   0.120  16.084 -0.5146  0.8086 -0.7134
10386TIP3    H252650   1.443   0.252  16.083  1.7009 -0.3742  0.9295
10387TIP3   OH252651   4.298   6.428   2.269 -0.1790  0.1072  0.7477
10387TIP3    H152652   4.317   6.398   2.358 -1.3579 -0.5861  0.7841
10387TIP3    H252653   4.313   6.523   2.273  0.0825  0.0407  1.6076
10388TIP3   OH252654   1.917   1.519  12.012 -0.2555 -0.4024  0.2937
10388TIP3    H152655   1.876   1.587  11.958 -0.8415  0.4935  1.8091
10388TIP3    H252656   2.005   1.510  11.977 -1.1932 -1.2319 -2.0245
10389TIP3   OH252657   0.692   4.027  12.490 -0.1344  0.0860 -0.5592
10389TIP3    H152658   0.724   4.116  12.476  0.0710 -0.3293 -3.5164
10389TIP3    H252659   0.713   4.007  12.581  0.6659  2.7076 -0.0928
10390TIP3   OH252660   4.408   0.003  12.388 -0.6440 -0.5493 -0.5347
10390TIP3    H152661   4.388  -0.026  12.477  1.1160  1.0024  0.4370
10390TIP3    H252662   4.324   0.034  12.354 -0.8679  1.9312  1.8679
10391TIP3   OH252663   1.981   4.412   1.630  0.1919 -0.2335  0.0525
10391TIP3    H152664   1.972   4.448   1.542  1.8359 -0.7787 -0.3872
10391TIP3    H252665   2.004   4.487   1.685  3.8414 -0.4646 -0.8986
10392TIP3   OH252666   2.189   6.026   2.271  0.7458 -0.1286  0.2476
10392TIP3    H152667   2.187   5.937   2.236  0.9064 -0.8310  1.9320
10392TIP3    H252668   2.275   6.060   2.245  0.6410 -0.4067 -0.4970
10393TIP3   OH252669   1.025   3.004  10.976 -0.0078 -0.1650 -1.0226
10393TIP3    H152670   1.013   3.010  10.882 -1.3707 -0.9302 -0.9227
10393TIP3    H252671   1.060   2.916  10.991  0.2193 -0.0424 -0.8185
10394TIP3   OH252672   5.313   3.262   4.799  0.4277 -0.2948 -0.8104
10394TIP3    H152673   5.266   3.188   4.762  1.2240 -0.1382 -2.1938
10394TIP3    H252674   5.368   3.294   4.728  0.6421  1.1782 -0.0257
10395TIP3   OH252675   1.794   6.243  13.942  0.3661  0.3862  0.7109
10395TIP3    H152676   1.810   6.300  14.017 -1.1354  0.9744  0.6191
10395TIP3    H252677   1.816   6.296  13.866  1.7918 -0.1778  0.7003
10396TIP3   OH252678   4.954   5.071  11.449  0.3161  0.1530 -0.3103
10396TIP3    H152679   4.934   5.041  11.360 -1.1595  1.8796 -0.6003
10396TIP3    H252680   4.878   5.122  11.476  0.8212 -0.1307  1.8864
10397TIP3   OH252681   4.675   4.421   0.859 -0.3040  0.3860 -0.3750
10397TIP3    H152682   4.754   4.437   0.807 -0.2276  0.5219 -0.2185
10397TIP3    H252683   4.626   4.504   0.855 -0.6804  0.1426 -0.8849
10398TIP3   OH252684   6.296   3.296  15.960  0.0865  0.1704 -0.4370
10398TIP3    H152685   6.279   3.268  16.050  1.8354 -1.1496 -0.4631
10398TIP3    H252686   6.227   3.252  15.909 -0.2245 -0.0108  0.1244
10399TIP3   OH252687   0.609   4.687   0.599 -0.2191  0.0359  0.2580
10399TIP3    H152688   0.618   4.781   0.613  0.1067 -0.0698  0.7796
10399TIP3    H252689   0.629   4.648   0.684 -2.7375 -0.3855  0.7643
10400TIP3   OH252690   2.935   1.956  12.276 -0.3431  0.9778 -0.1946
10400TIP3    H152691   2.850   1.998  12.284 -0.5092  0.7281 -0.6454
10400TIP3    H252692   2.931   1.882  12.336 -1.3515 -0.4999 -1.9793
10401TIP3   OH252693   3.541   1.745   4.876  0.2826 -0.1725 -0.1490
10401TIP3    H152694   3.512   1.713   4.791 -0.4313  1.7274 -0.6823
10401TIP3    H252695   3.636   1.737   4.874  0.2728 -0.0823 -1.1739
10402TIP3   OH252696   2.957   3.725   5.977  0.0640  0.6222  0.4265
10402TIP3    H152697   2.961   3.793   6.044 -0.8095  1.1814 -0.0624
10402TIP3    H252698   2.883   3.751   5.922  0.5895  0.0332 -0.5861
10403TIP3   OH252699   6.668   6.597  14.022  0.1292  0.0099 -0.0174
10403TIP3    H152700   6.575   6.599  14.044  0.1530 -0.9198  0.1937
10403TIP3    H252701   6.711   6.641  14.096 -0.0986  0.0078  0.1166
10404TIP3   OH252702   4.038   4.836  16.114  0.0691 -0.3528 -0.1261
10404TIP3    H152703   4.061   4.743  16.111  1.3208 -0.0347 -0.8251
10404TIP3    H252704   3.951   4.837  16.155  0.1968 -1.7919  0.2482
10405TIP3   OH252705   0.637   2.248  12.885 -0.1000 -0.6099 -0.3503
10405TIP3    H152706   0.670   2.253  12.975  1.5859  0.1991 -0.9733
10405TIP3    H252707   0.553   2.294  12.888 -0.0265 -0.5143  0.7945
10406TIP3   OH252708   2.017   5.603   1.862 -0.4377  0.3643 -0.0794
10406TIP3    H152709   1.965   5.557   1.928 -0.6362  1.3106  0.4551
10406TIP3    H252710   2.004   5.696   1.883  0.4314  0.6448 -0.7417
10407TIP3   OH252711   3.524   2.752  15.982 -0.4348 -0.0015  0.6745
10407TIP3    H152712   3.560   2.770  16.069 -0.9082  1.3267  0.6172
10407TIP3    H252713   3.431   2.733  15.998 -0.6409  0.7821  0.4049
10408TIP3   OH252714   6.419   3.223  10.460 -0.1753  0.0182  0.0035
10408TIP3    H152715   6.506   3.259  10.478  0.2519 -0.0909 -1.6919
10408TIP3    H252716   6.416   3.141  10.509  0.1368  0.6889  1.1773
10409TIP3   OH252717   0.533   0.790  16.006 -0.2657 -0.8979 -0.2244
10409TIP3    H152718   0.596   0.718  16.009 -0.0654 -0.7179 -0.0573
10409TIP3    H252719   0.584   0.866  15.978  0.0093 -0.3432  1.6251
10410TIP3   OH252720   2.305   1.362   0.378  0.4640  1.2065 -0.3403
10410TIP3    H152721   2.292   1.446   0.421 -0.8273  0.8810 -0.0637
10410TIP3    H252722   2.386   1.328   0.416 -0.9740  0.6007  2.4052
10411TIP3   OH252723   0.645   6.261  14.405  0.1312 -0.5936  0.0682
10411TIP3    H152724   0.725   6.314  14.408  1.3283 -2.3249  0.1179
10411TIP3    H252725   0.592   6.302  14.337  1.5513 -0.0484 -0.7611
10412TIP3   OH252726   6.235   1.040  13.171  0.2934  0.0998  0.1803
10412TIP3    H152727   6.258   1.066  13.261  1.5612 -0.8304  0.1534
10412TIP3    H252728   6.167   0.974  13.182 -0.7296  1.1611  0.3751
10413TIP3   OH252729   3.854   6.216   1.814 -0.1936  0.0743  0.4880
10413TIP3    H152730   3.773   6.166   1.810 -0.8204  0.8825  2.1508
10413TIP3    H252731   3.849   6.265   1.897  2.1281 -0.1065  0.8195
10414TIP3   OH252732   5.435   4.054  14.188  0.6593  0.0330 -0.0146
10414TIP3    H152733   5.357   4.109  14.199 -0.6979 -2.1024  2.0292
10414TIP3    H252734   5.441   4.040  14.094 -0.3432  1.7155 -0.3746
10415TIP3   OH252735   1.049   0.334  11.459  0.1351 -0.5850  0.1010
10415TIP3    H152736   1.027   0.403  11.396 -0.6425 -0.5622  0.3931
10415TIP3    H252737   1.119   0.284  11.416  1.7446  1.2197  0.4486
10416TIP3   OH252738   6.325   0.785  15.405  0.1713 -0.4133 -1.0068
10416TIP3    H152739   6.291   0.698  15.426  0.4664 -0.1509  0.6925
10416TIP3    H252740   6.413   0.787  15.443 -0.1204  0.8807 -0.3205
10417TIP3   OH252741   6.550   6.823  16.850 -0.5470 -0.1786  0.0200
10417TIP3    H152742   6.498   6.805  16.772  1.6042  0.7714 -1.7470
10417TIP3    H252743   6.539   6.917  16.865  0.3080 -0.0429 -0.1355
10418TIP3   OH252744   4.021   4.605   4.183  0.5224 -0.0416  0.2752
10418TIP3    H152745   4.005   4.535   4.245 -0.7810  0.6917  0.8028
10418TIP3    H252746   4.113   4.629   4.197  0.8627 -1.3464  0.3652
10419TIP3   OH252747   1.801   0.849   2.559 -0.2196 -0.2740  0.2273
10419TIP3    H152748   1.891   0.847   2.524  0.1207 -0.2939  1.0919
10419TIP3    H252749   1.770   0.937   2.539  0.3963  0.1059  0.9143
10420TIP3   OH252750   1.107   4.400   0.147  0.0465 -0.0814 -0.2281
10420TIP3    H152751   1.042   4.365   0.208 -0.0295 -1.8376 -1.2356
10420TIP3    H252752   1.058   4.417   0.067  0.4740  0.4667 -0.3763
10421TIP3   OH252753   5.655   4.537  13.639 -0.1045  0.4415  0.6196
10421TIP3    H152754   5.698   4.604  13.692  0.5040  0.6169 -0.0737
10421TIP3    H252755   5.585   4.585  13.593 -0.8856  0.2128  1.5321
10422TIP3   OH252756   3.746   1.168  14.879  0.3865 -0.2349  0.1924
10422TIP3    H152757   3.705   1.194  14.797  0.2969 -0.9911 -0.0066
10422TIP3    H252758   3.823   1.225  14.887 -1.0042  1.6369  0.8788
10423TIP3   OH252759   0.001   1.388  14.662  0.5960  0.0055 -0.0050
10423TIP3    H152760   0.072   1.328  14.640  0.9017  1.1674 -2.5400
10423TIP3    H252761   0.042   1.454  14.718  1.4146  0.3660 -1.0002
10424TIP3   OH252762   4.472   2.849  14.131 -0.2222 -0.2104 -0.8184
10424TIP3    H152763   4.473   2.783  14.061 -0.4002 -3.1312  1.6984
10424TIP3    H252764   4.387   2.838  14.173  0.3170  0.5995  0.5536
10425TIP3   OH252765   1.942   0.151   2.107  0.0472 -0.1231 -0.1604
10425TIP3    H152766   1.891   0.195   2.175 -0.4692 -0.9098 -0.0238
10425TIP3    H252767   1.983   0.223   2.058  1.0076  0.4458  1.3929
10426TIP3   OH252768   0.708   5.180  11.407 -0.0038  0.2786 -0.2788
10426TIP3    H152769   0.721   5.228  11.489 -0.1610 -1.4562  0.7997
10426TIP3    H252770   0.617   5.199  11.383  0.4947  2.0534 -0.9364
10427TIP3   OH252771   1.830   4.731  15.653  0.1190  0.1097 -0.2542
10427TIP3    H152772   1.890   4.670  15.695  1.5772  2.9772  2.1824
10427TIP3    H252773   1.875   4.759  15.574 -0.8450 -2.2656 -1.7508
10428TIP3   OH252774   6.106   2.509  14.512  0.2589 -0.2657  0.2779
10428TIP3    H152775   6.111   2.480  14.603  1.6670  1.9743  0.9895
10428TIP3    H252776   6.014   2.533  14.500  0.4273  1.3637  1.8172
10429TIP3   OH252777   2.606   2.890   6.212  0.0961  0.1082 -0.4662
10429TIP3    H152778   2.554   2.942   6.274 -0.7591 -0.6897 -0.4873
10429TIP3    H252779   2.696   2.920   6.225 -0.3418  1.3858 -0.2827
10430TIP3   OH252780   1.541   2.410  14.387  0.1173 -0.0856  0.1129
10430TIP3    H152781   1.474   2.432  14.322 -0.1787 -0.4546  0.2870
10430TIP3    H252782   1.557   2.317  14.375  1.4627  0.2198 -0.7147
10431TIP3   OH252783   3.357   5.066   3.891  0.4965  0.1702 -0.0120
10431TIP3    H152784   3.308   5.085   3.811  1.0203  1.5435 -0.0413
10431TIP3    H252785   3.306   5.108   3.961  0.5031 -0.2706  0.2646
10432TIP3   OH252786   6.117   3.552   2.003  0.5312 -0.0366  0.0261
10432TIP3    H152787   6.176   3.484   2.038  0.3648  0.3729  1.1578
10432TIP3    H252788   6.038   3.504   1.979  0.7527 -0.3759 -0.0377
10433TIP3   OH252789   1.633   6.181   4.918 -0.1763 -0.1559 -0.2707
10433TIP3    H152790   1.603   6.106   4.867  0.2771  0.9011 -2.1659
10433TIP3    H252791   1.555   6.211   4.965 -0.9931 -0.2075 -1.5608
10434TIP3   OH252792   5.235   5.479  12.456  0.0842  0.1895 -0.4536
10434TIP3    H152793   5.208   5.569  12.473 -0.4654  1.3801 -5.8059
10434TIP3    H252794   5.330   5.483  12.451  0.0200  0.7794 -1.5702
10435TIP3   OH252795   2.772   2.595   3.624 -0.0560  0.3091 -0.0232
10435TIP3    H152796   2.786   2.510   3.583  0.0718  0.5167 -0.4156
10435TIP3    H252797   2.835   2.598   3.697  1.7266  1.0608 -1.5050
10436TIP3   OH252798   6.275   6.538   0.880 -0.6779  0.3567 -0.6344
10436TIP3    H152799   6.182   6.540   0.858 -0.9746 -1.2584  0.2950
10436TIP3    H252800   6.294   6.446   0.897  0.9749  0.7221 -0.2845
10437TIP3   OH252801   6.675   2.151   0.796  0.0666 -0.6097  0.7831
10437TIP3    H152802   6.613   2.080   0.782 -0.2486 -0.0369 -1.0502
10437TIP3    H252803   6.761   2.108   0.799 -0.2700 -1.2385  1.6129
10438TIP3   OH252804   3.976   1.174   0.259  0.1292  0.5745 -0.2257
10438TIP3    H152805   4.040   1.104   0.278 -0.2861 -0.0449 -1.0545
10438TIP3    H252806   4.030   1.250   0.237  0.5868  0.2314 -0.3194
10439TIP3   OH252807   6.756   3.078   2.188  0.2836  0.6064 -0.3423
10439TIP3    H152808   6.692   3.148   2.201 -0.9737 -0.2380 -1.7329
10439TIP3    H252809   6.836   3.123   2.160  0.0650  1.5964  0.5378
10440TIP3   OH252810   3.561   0.153   2.885 -0.5310 -0.3056  0.3769
10440TIP3    H152811   3.584   0.238   2.922  0.9187 -0.7006  0.4663
10440TIP3    H252812   3.565   0.166   2.790 -0.8823 -0.1334  0.3854
10441TIP3   OH252813   4.622   3.109   4.226  0.2633  0.2865 -0.2756
10441TIP3    H152814   4.602   3.176   4.162 -2.5726 -0.6159 -0.4846
10441TIP3    H252815   4.687   3.053   4.184  2.0840  2.3483 -0.3889
10442TIP3   OH252816   5.285   0.096   3.040 -0.6408 -0.2777 -0.2993
10442TIP3    H152817   5.364   0.108   3.092 -0.0783 -1.8543 -0.7096
10442TIP3    H252818   5.299   0.151   2.963  0.7880 -1.6224 -1.0776
10443TIP3   OH252819   4.907   5.337   2.576  0.2637  0.1673  0.2049
10443TIP3    H152820   4.866   5.294   2.501 -0.3073  0.2451  0.4633
10443TIP3    H252821   4.846   5.408   2.598  0.2497 -0.0783  0.9658
10444TIP3   OH252822   3.125   5.033   3.294  0.5991 -0.0944  0.6043
10444TIP3    H152823   3.209   5.058   3.333  0.5501 -1.2700  1.5419
10444TIP3    H252824   3.099   4.955   3.343 -1.7372  1.0399  1.3043
10445TIP3   OH252825   1.146   4.816   1.978  0.5007 -0.3934  0.2094
10445TIP3    H152826   1.151   4.720   1.975 -0.2197 -0.4638  1.1122
10445TIP3    H252827   1.080   4.835   2.044  1.1280  0.7473  0.5277
10446TIP3   OH252828   6.780   5.431   1.740  0.1141  0.3684 -0.9001
10446TIP3    H152829   6.768   5.510   1.792 -0.0850  0.9121 -1.7403
10446TIP3    H252830   6.699   5.423   1.689 -0.1808 -0.7991 -0.2897
10447TIP3   OH252831   4.471   3.331  10.421 -0.1826 -0.7491  0.4392
10447TIP3    H152832   4.466   3.417  10.378 -2.0315 -1.1186 -0.1535
10447TIP3    H252833   4.564   3.310  10.421  0.5171  1.8692  1.8621
10448TIP3   OH252834   3.009   3.974  14.204  0.4029  0.2373  0.2022
10448TIP3    H152835   3.062   3.896  14.188 -0.4376  0.0868 -2.1723
10448TIP3    H252836   2.963   3.955  14.286  3.6860  0.2964  2.2933
10449TIP3   OH252837   1.375   6.682   0.089 -0.4512 -0.7318  0.1044
10449TIP3    H152838   1.435   6.754   0.105 -2.0582  0.7600 -0.3194
10449TIP3    H252839   1.365   6.679  -0.006 -2.4077  0.2881  0.2119
10450TIP3   OH252840   3.976   5.380  14.678 -0.0864 -0.3216 -0.6334
10450TIP3    H152841   3.903   5.369  14.738  0.6672  1.4703  0.7225
10450TIP3    H252842   3.947   5.339  14.597 -3.1746  1.5179 -0.6188
10451TIP3   OH252843   5.246   0.527   0.619 -0.1691  0.0611 -0.2212
10451TIP3    H152844   5.173   0.468   0.601 -0.9783  0.7592  0.6401
10451TIP3    H252845   5.223   0.570   0.701  1.2783  0.2195  0.1354
10452TIP3   OH252846   3.900   2.089   5.098 -0.0786  0.8855  0.2422
10452TIP3    H152847   3.895   2.184   5.101 -1.4418  0.8751 -0.8250
10452TIP3    H252848   3.953   2.070   5.021 -0.9730  0.7789 -0.3560
10453TIP3   OH252849   4.614   1.447  16.926  0.0334 -0.0024  0.3590
10453TIP3    H152850   4.533   1.458  16.977 -0.2541  1.9453 -0.4340
10453TIP3    H252851   4.591   1.386  16.857 -1.1620  1.4317 -0.5688
10454TIP3   OH252852   5.095   5.489   2.285  0.2510 -0.1544 -1.0589
10454TIP3    H152853   5.017   5.435   2.295 -1.1798  1.7774 -1.2762
10454TIP3    H252854   5.149   5.468   2.361 -1.5807  0.1976  0.4075
10455TIP3   OH252855   2.654   0.105  12.671  0.0179 -0.4052 -0.4167
10455TIP3    H152856   2.625   0.166  12.739  1.0194 -2.0179  1.5649
10455TIP3    H252857   2.573   0.062  12.641 -0.6589  1.5491 -1.6152
10456TIP3   OH252858   2.509   6.588   2.277 -0.1674  0.1581 -0.2256
10456TIP3    H152859   2.584   6.643   2.254 -0.1216  0.7323  1.1667
10456TIP3    H252860   2.543   6.499   2.277  0.3501  0.3552 -0.2769
10457TIP3   OH252861   1.790   0.730  16.885 -1.0673 -0.2585 -0.3894
10457TIP3    H152862   1.825   0.757  16.970 -0.1537  0.4555 -0.9770
10457TIP3    H252863   1.809   0.636  16.880 -0.2876 -0.1237 -0.1805
10458TIP3   OH252864   0.014   3.279  11.227 -0.1277 -0.1881 -0.0545
10458TIP3    H152865   0.043   3.192  11.255 -0.5843 -0.5335 -0.6363
10458TIP3    H252866   0.003   3.328  11.309 -1.4656 -1.1967  0.4001
10459TIP3   OH252867   0.961   4.617   1.896 -0.1988 -0.3434 -0.1786
10459TIP3    H152868   0.986   4.534   1.856  0.9850 -0.1692  0.1895
10459TIP3    H252869   0.937   4.672   1.821 -0.8282 -0.9443 -0.4348
10460TIP3   OH252870   1.250   1.294   4.614  0.2009  0.2773 -0.2859
10460TIP3    H152871   1.332   1.337   4.639 -0.9661  2.0765  0.6796
10460TIP3    H252872   1.243   1.219   4.673 -0.2016  1.7752  1.6900
10461TIP3   OH252873   3.641   3.112   0.586 -0.2493 -0.2893 -0.4111
10461TIP3    H152874   3.668   3.118   0.677 -0.0164  0.5921 -0.5322
10461TIP3    H252875   3.717   3.078   0.540 -0.2064 -0.2733 -0.3517
10462TIP3   OH252876   3.005   2.596  11.358 -0.4401 -0.3342 -0.1625
10462TIP3    H152877   2.965   2.513  11.332  0.4204 -1.3434  1.5509
10462TIP3    H252878   2.948   2.629  11.428 -0.6398  0.4059 -0.6642
10463TIP3   OH252879   5.166   1.289   3.877  0.0941  0.0550  0.4913
10463TIP3    H152880   5.125   1.250   3.954  0.7649  0.2155  0.9338
10463TIP3    H252881   5.228   1.352   3.912 -1.2230  1.8405 -0.2076
10464TIP3   OH252882   4.013   3.309   1.473 -0.2044  0.2194 -0.5959
10464TIP3    H152883   3.978   3.243   1.413 -1.1234  2.1409 -2.3233
10464TIP3    H252884   3.941   3.372   1.483 -0.5268 -0.5470  3.5570
10465TIP3   OH252885   0.816   5.936   2.164 -0.9159  0.2572 -0.3982
10465TIP3    H152886   0.788   5.962   2.252 -1.4348  1.1952 -0.8259
10465TIP3    H252887   0.885   5.998   2.140  0.2305 -0.8576 -0.1207
10466TIP3   OH252888   0.469   5.039  14.667 -0.2003 -0.2973  0.0812
10466TIP3    H152889   0.438   5.091  14.741 -0.0926  1.3860 -0.9908
10466TIP3    H252890   0.406   5.056  14.597  0.4517 -0.7552 -0.6337
10467TIP3   OH252891   6.493   6.464  15.308 -0.1006  0.0510 -0.3650
10467TIP3    H152892   6.489   6.557  15.329 -2.6940 -0.0565 -0.0592
10467TIP3    H252893   6.556   6.428  15.371  2.4801  1.7983 -1.7353
10468TIP3   OH252894   1.333   4.806   5.658 -0.5975 -0.0877 -0.1774
10468TIP3    H152895   1.305   4.745   5.590 -0.7320 -2.4754  1.8446
10468TIP3    H252896   1.428   4.816   5.644 -0.6710 -0.3154 -0.8722
10469TIP3   OH252897   6.062   0.054   6.123  0.2018 -0.7044 -0.5624
10469TIP3    H152898   6.031   0.050   6.032  0.9347  0.6766 -0.8982
10469TIP3    H252899   6.121  -0.021   6.132  0.6142 -0.4916 -1.4264
10470TIP3   OH252900   4.245   1.572  14.026  0.5774 -0.5047 -0.7947
10470TIP3    H152901   4.323   1.625  14.011  0.9873 -1.3843 -1.8663
10470TIP3    H252902   4.186   1.630  14.075  1.4049  0.5963 -1.0654
10471TIP3   OH252903   2.468   4.471  14.324  0.0730  0.2063 -0.3231
10471TIP3    H152904   2.529   4.476  14.250 -1.0428  0.4854 -1.2560
10471TIP3    H252905   2.432   4.559  14.331 -0.7630 -0.1301 -0.2667
10472TIP3   OH252906   5.271   3.526  11.329  0.3743  0.2442 -0.2584
10472TIP3    H152907   5.293   3.614  11.299  1.6158  0.9275  2.3847
10472TIP3    H252908   5.352   3.492  11.366 -0.3795 -1.5924 -0.1631
10473TIP3   OH252909   5.656   3.389  16.062 -0.1173  0.0018  0.4543
10473TIP3    H152910   5.709   3.333  16.119 -0.1150 -1.1628 -0.6314
10473TIP3    H252911   5.640   3.335  15.985 -2.2348  0.6279  0.4134
10474TIP3   OH252912   4.619   2.280  16.552 -0.2960  0.1812 -0.4250
10474TIP3    H152913   4.583   2.204  16.596 -0.3708  1.1989  1.3400
10474TIP3    H252914   4.676   2.321  16.616 -1.2477  2.3244 -0.8551
10475TIP3   OH252915   0.907   6.441  12.450  0.3850  0.5660  0.1145
10475TIP3    H152916   0.954   6.427  12.532 -0.3961  2.7410  1.0157
10475TIP3    H252917   0.816   6.422  12.471  0.3082  0.1549 -0.5454
10476TIP3   OH252918   1.146   0.055  16.104  0.4162 -0.3010 -0.6847
10476TIP3    H152919   1.176  -0.035  16.119 -0.2102 -0.3581  0.2699
10476TIP3    H252920   1.111   0.053  16.015  0.1004 -1.0900 -0.5555
10477TIP3   OH252921   3.278   4.500   4.650  0.0967  0.3575 -0.0051
10477TIP3    H152922   3.291   4.549   4.731 -0.2235  0.1930  0.1500
10477TIP3    H252923   3.275   4.408   4.677 -2.3623  0.4057  0.1570
10478TIP3   OH252924   2.607   4.075   1.483  0.3433  0.2611  0.3458
10478TIP3    H152925   2.625   3.989   1.443  0.4066  0.2717  0.3522
10478TIP3    H252926   2.616   4.060   1.577 -0.5116  0.0632  0.4047
10479TIP3   OH252927   4.218   3.208  10.347 -0.5713 -0.0307  0.2236
10479TIP3    H152928   4.282   3.278  10.335 -0.6695 -0.0087 -0.2191
10479TIP3    H252929   4.140   3.252  10.381 -1.1479  0.3418 -1.4724
10480TIP3   OH252930   3.607   5.932  12.411  0.3058 -0.0893  0.1197
10480TIP3    H152931   3.585   5.916  12.503 -1.5897  0.6039 -0.1649
10480TIP3    H252932   3.683   5.877  12.395  1.7455  1.0298  2.5406
10481TIP3   OH252933   1.589   4.518   5.316 -0.1549  0.4004 -0.0944
10481TIP3    H152934   1.543   4.543   5.236 -1.7788 -0.3476  0.5457
10481TIP3    H252935   1.591   4.422   5.315 -1.2317  0.3223  1.2574
10482TIP3   OH252936   4.846   2.109   4.615 -0.3061 -0.5768 -0.2548
10482TIP3    H152937   4.930   2.155   4.611 -0.1774 -0.7309  0.5240
10482TIP3    H252938   4.870   2.017   4.625 -0.5681 -0.7064 -0.7867
10483TIP3   OH252939   5.674   3.026   2.422 -0.2519  0.0652 -0.3912
10483TIP3    H152940   5.648   3.041   2.513  0.4260  0.5993 -0.2756
10483TIP3    H252941   5.678   3.114   2.384  0.6517 -0.0536 -0.5954
10484TIP3   OH252942   0.147   6.693  14.306 -0.2102 -0.0602 -0.9122
10484TIP3    H152943   0.062   6.735  14.294 -0.0673 -0.0673 -2.0630
10484TIP3    H252944   0.171   6.662  14.219  0.7711 -0.4511 -0.5177
10485TIP3   OH252945   5.315   2.845   3.911  0.1390 -0.3952 -0.1406
10485TIP3    H152946   5.309   2.756   3.876  1.8507 -0.3322 -0.7245
10485TIP3    H252947   5.237   2.855   3.965 -0.5055 -1.9584 -0.7042
10486TIP3   OH252948   0.406   1.649  14.746 -0.7797  0.3251  0.1233
10486TIP3    H152949   0.348   1.575  14.756  1.9049 -2.0543 -0.4903
10486TIP3    H252950   0.438   1.668  14.834  1.4229 -1.9421 -0.0609
10487TIP3   OH252951   2.650   2.061  12.207  0.4769  0.1668 -0.0332
10487TIP3    H152952   2.699   2.073  12.126  3.3139 -1.7001  1.2438
10487TIP3    H252953   2.672   2.137  12.261  2.4113 -0.8439  0.6748
10488TIP3   OH252954   3.702   0.097   1.885 -0.7355 -0.6802  0.3246
10488TIP3    H152955   3.654   0.014   1.882  0.6180 -1.4931 -0.1133
10488TIP3    H252956   3.715   0.114   1.978 -1.4910 -0.6721  0.4330
10489TIP3   OH252957   2.012   3.055  11.632 -0.2965  0.1967 -0.5759
10489TIP3    H152958   2.101   3.042  11.664 -0.9551  0.8479  1.7433
10489TIP3    H252959   1.974   2.967  11.628 -0.1919  0.0940  0.5061
10490TIP3   OH252960   3.392   5.627  15.674 -0.1065 -0.9815 -0.1761
10490TIP3    H152961   3.447   5.657  15.746 -1.6942 -1.0171  1.1117
10490TIP3    H252962   3.427   5.671  15.597  1.3522 -0.5711  0.6818
10491TIP3   OH252963   1.539   5.062  13.901 -0.1052 -0.5538 -0.7160
10491TIP3    H152964   1.529   5.151  13.936  0.4338 -1.1068  0.9344
10491TIP3    H252965   1.544   5.074  13.806 -1.3472  1.0482 -0.6276
10492TIP3   OH252966   2.371   1.917  12.547 -0.0311 -0.3652  0.3825
10492TIP3    H152967   2.375   2.011  12.531 -0.2874 -0.1928  1.2450
10492TIP3    H252968   2.447   1.899  12.602  0.4475 -0.8065 -0.4093
10493TIP3   OH252969   2.664   2.086  13.489 -0.2972  0.1075  0.1130
10493TIP3    H152970   2.643   2.167  13.537  2.5623 -1.3280  4.3697
10493TIP3    H252971   2.749   2.104  13.449 -0.3250 -0.3582 -0.1550
10494TIP3   OH252972   4.786   5.284  16.826 -0.4830 -0.6264 -0.0778
10494TIP3    H152973   4.788   5.364  16.773 -1.4050  1.3869  2.6570
10494TIP3    H252974   4.720   5.301  16.893  1.3346 -2.4577  2.3988
10495TIP3   OH252975   5.962   0.798  14.661 -0.4410 -0.1135  0.5019
10495TIP3    H152976   6.052   0.829  14.654 -0.5777  0.1946  0.0177
10495TIP3    H252977   5.940   0.808  14.753 -0.2003  0.4645  0.5054
10496TIP3   OH252978   5.366   1.801   2.926  0.5164 -0.3939 -0.1820
10496TIP3    H152979   5.270   1.802   2.923  0.5210 -1.3825 -1.5081
10496TIP3    H252980   5.387   1.840   3.011 -1.0809 -0.9937  0.5389
10497TIP3   OH252981   3.567   0.698   0.241 -0.4703 -0.0212 -0.0419
10497TIP3    H152982   3.647   0.645   0.240 -0.1507  0.3246 -3.1200
10497TIP3    H252983   3.515   0.665   0.167 -2.1647  1.2373  0.5289
10498TIP3   OH252984   5.438   6.165  16.214 -0.3473  0.0323  0.1756
10498TIP3    H152985   5.439   6.191  16.306  1.5391  0.4579  0.0800
10498TIP3    H252986   5.407   6.243  16.167 -0.3552  0.1488  0.3738
10499TIP3   OH252987   3.597   2.723  15.577 -0.1534 -0.2227 -0.1051
10499TIP3    H152988   3.600   2.641  15.626  0.3854  0.5295  1.1560
10499TIP3    H252989   3.567   2.788  15.640 -0.4715  0.5812 -1.0636
10500TIP3   OH252990   4.267   2.698  11.964  0.0692  0.1845  0.5426
10500TIP3    H152991   4.213   2.776  11.960 -1.1484 -0.3739  3.2357
10500TIP3    H252992   4.267   2.663  11.875 -2.0696  1.4878 -0.0367
10501TIP3   OH252993   5.233   6.115   2.106  0.2376  1.1578 -0.4642
10501TIP3    H152994   5.162   6.055   2.084  0.0134  1.7221 -1.3232
10501TIP3    H252995   5.190   6.190   2.147  0.6174  0.2609  1.7618
10502TIP3   OH252996   4.348   6.665   3.206  0.5229  0.5711  0.3038
10502TIP3    H152997   4.328   6.585   3.156  1.7082  0.3628  0.1415
10502TIP3    H252998   4.287   6.662   3.280 -1.6738  1.1763 -1.3807
10503TIP3   OH252999   4.410   1.979   5.911 -0.5216  0.4671  0.0829
10503TIP3    H153000   4.403   1.997   6.005  0.5745  1.2902  0.0262
10503TIP3    H253001   4.345   2.038   5.871 -3.0249 -1.8388  0.4548
10504TIP3   OH253002   6.662   0.730  13.512 -0.4107 -0.2858  1.0688
10504TIP3    H153003   6.605   0.725  13.589 -0.5196  3.5811  1.4319
10504TIP3    H253004   6.726   0.797  13.535 -0.9199  1.6165 -2.4549
10505TIP3   OH253005   5.685   3.881   4.019 -0.3828 -0.4304  0.0900
10505TIP3    H153006   5.636   3.873   3.937 -0.2870  0.1530 -0.0301
10505TIP3    H253007   5.633   3.833   4.083  0.7886 -3.1137 -0.8238
10506TIP3   OH253008   4.964   1.673  12.446 -0.3478 -0.4018 -0.1707
10506TIP3    H153009   4.899   1.603  12.435  1.8685 -2.3721 -1.9649
10506TIP3    H253010   5.033   1.633  12.498  0.5515  0.8055 -0.4003
10507TIP3   OH253011   1.863   1.443   3.944  0.0971  0.5767 -0.7119
10507TIP3    H153012   1.947   1.402   3.965  0.3376  0.7855 -1.2319
10507TIP3    H253013   1.842   1.411   3.856 -0.2891  0.6560 -0.6510
10508TIP3   OH253014   0.705   2.201  15.888 -0.2880 -0.0151 -0.4595
10508TIP3    H153015   0.745   2.280  15.852 -1.2736  0.9639  0.5167
10508TIP3    H253016   0.614   2.225  15.906 -0.8827 -1.6625 -1.0220
10509TIP3   OH253017   3.110   4.021   5.074  0.9992  0.7793 -0.4630
10509TIP3    H153018   3.097   4.114   5.054  0.8608  0.7799 -0.3673
10509TIP3    H253019   3.104   4.016   5.169 -0.5592  0.4264 -0.5656
10510TIP3   OH253020   1.271   4.679   1.240  0.1627 -0.0721  0.3201
10510TIP3    H153021   1.196   4.637   1.281  0.1930  0.3631  0.8398
10510TIP3    H253022   1.324   4.711   1.314 -0.0860  1.2717 -0.0534
10511TIP3   OH253023   1.925   2.535  15.520  0.7002  0.3541 -0.1346
10511TIP3    H153024   1.841   2.498  15.494  1.1107  0.3588 -1.5557
10511TIP3    H253025   1.903   2.604  15.582 -0.4359  1.0828 -1.2962
10512TIP3   OH253026   0.624   1.403  11.661  0.3314 -0.3054  0.3008
10512TIP3    H153027   0.587   1.461  11.727  1.2950 -0.5060  1.0467
10512TIP3    H253028   0.638   1.459  11.584 -0.0640  0.1105  0.5264
10513TIP3   OH253029   3.175   3.752   2.193  0.1289 -0.1728 -0.8607
10513TIP3    H153030   3.187   3.762   2.099  1.5372 -0.1757 -0.7033
10513TIP3    H253031   3.106   3.814   2.216 -0.0470  0.0085 -1.8408
10514TIP3   OH253032   6.733   0.524  12.611 -0.4393 -0.5947 -0.3115
10514TIP3    H153033   6.678   0.518  12.533 -0.4836 -1.0284 -0.2465
10514TIP3    H253034   6.671   0.521  12.684 -0.3511 -0.7685 -0.2455
10515TIP3   OH253035   1.081   5.155   0.527 -0.0685  0.0682  0.4470
10515TIP3    H153036   0.986   5.169   0.524 -0.3007 -1.4738  0.0731
10515TIP3    H253037   1.116   5.240   0.555 -1.6146  0.4152  1.4869
10516TIP3   OH253038   2.436   1.740  13.898 -0.1187 -0.3029  0.2349
10516TIP3    H153039   2.451   1.791  13.819 -0.5801 -0.2580  0.1711
10516TIP3    H253040   2.508   1.764  13.956  2.1018 -2.7065 -1.2879
10517TIP3   OH253041   4.166   5.274  11.431 -0.0790 -0.8044  0.2901
10517TIP3    H153042   4.072   5.256  11.436 -0.2794 -0.0866 -0.5302
10517TIP3    H253043   4.172   5.369  11.436  0.7017 -0.9067  1.4515
10518TIP3   OH253044   3.615   2.448   0.774  0.0159  0.5612 -0.4383
10518TIP3    H153045   3.701   2.421   0.741  0.6059 -1.9034  2.6213
10518TIP3    H253046   3.561   2.370   0.765 -0.1902  0.2154  2.6663
10519TIP3   OH253047   3.023   2.728  11.059 -0.0946 -0.0377  0.2906
10519TIP3    H153048   3.030   2.796  10.992 -0.6889 -0.4874 -0.2372
10519TIP3    H253049   3.073   2.763  11.133  0.5901  0.4584 -0.3842
10520TIP3   OH253050   6.315   3.719  12.471  0.3853  0.3507 -0.0361
10520TIP3    H153051   6.410   3.730  12.481  0.8577 -2.0267 -1.0221
10520TIP3    H253052   6.278   3.804  12.492  2.9044  1.9636 -1.6118
10521TIP3   OH253053   3.170   0.920   4.087  0.4431 -0.2641  0.4668
10521TIP3    H153054   3.209   0.843   4.046 -0.7286 -0.8385  0.3928
10521TIP3    H253055   3.097   0.944   4.030  1.6301  1.7853 -0.2859
10522TIP3   OH253056   4.016   3.225   5.065 -0.1870 -0.1732  0.4780
10522TIP3    H153057   4.022   3.262   4.977 -0.0420 -1.4422 -0.0670
10522TIP3    H253058   3.977   3.295   5.118 -1.8220  0.0379 -0.9325
10523TIP3   OH253059   1.065   6.044  13.424  0.0105  0.0796  0.4849
10523TIP3    H153060   1.157   6.063  13.405 -0.3037  1.2798  0.0590
10523TIP3    H253061   1.036   6.116  13.480 -0.8326  0.0697  0.0838
10524TIP3   OH253062   4.233   3.400  14.779 -0.2841  0.1456 -0.5035
10524TIP3    H153063   4.323   3.426  14.798 -0.4664 -0.6117  1.7773
10524TIP3    H253064   4.211   3.446  14.698  1.4218  2.0986  0.0522
10525TIP3   OH253065   4.033   4.026   5.184 -0.0680  0.0037 -0.0672
10525TIP3    H153066   3.946   4.065   5.175  0.3245  0.5356 -2.0816
10525TIP3    H253067   4.088   4.075   5.122  1.1983 -1.6206 -0.3004
10526TIP3   OH253068   0.863   2.814  16.723 -0.5415  0.0610 -0.1438
10526TIP3    H153069   0.950   2.829  16.762  0.6643 -0.3078 -2.5377
10526TIP3    H253070   0.838   2.900  16.687 -1.0909  0.1089  0.3349
10527TIP3   OH253071   3.303   3.110  16.059 -0.2313  0.2707  0.1614
10527TIP3    H153072   3.325   3.176  15.993 -0.0741  0.3970  0.3354
10527TIP3    H253073   3.289   3.161  16.139 -0.9722  0.1729  0.1022
10528TIP3   OH253074   4.314   2.363  10.910 -0.2005 -0.4944 -0.4715
10528TIP3    H153075   4.236   2.344  10.962 -0.5261 -0.6204 -1.0065
10528TIP3    H253076   4.308   2.456  10.889  1.4132  0.3396  2.1767
10529TIP3   OH253077   6.728   3.546  11.986 -0.1588 -0.6950 -0.0265
10529TIP3    H153078   6.701   3.598  11.910 -0.0786  0.9232  1.0153
10529TIP3    H253079   6.655   3.553  12.047  0.7292 -0.0508  0.9811
10530TIP3   OH253080   2.459   0.253   1.105  0.5499 -0.0389  0.3875
10530TIP3    H153081   2.539   0.296   1.074  1.2545 -1.2100  0.5401
10530TIP3    H253082   2.434   0.303   1.183  2.8551 -1.4445  2.1438
10531TIP3   OH253083   0.100   0.873   1.238  0.2103  0.2330  0.6110
10531TIP3    H153084   0.147   0.955   1.255 -0.0307  0.2489  1.2245
10531TIP3    H253085   0.097   0.867   1.143  1.9374 -0.0504  0.5440
10532TIP3   OH253086   2.901   4.940   0.250  0.6197 -0.1016  0.1109
10532TIP3    H153087   2.893   5.036   0.247  2.2849  0.0438 -0.7525
10532TIP3    H253088   2.917   4.915   0.159  0.0674 -1.2199  0.3142
10533TIP3   OH253089   5.587   0.090   2.977 -0.0249 -1.0022  0.5166
10533TIP3    H153090   5.560   0.051   3.060 -0.5501  0.2340  0.9370
10533TIP3    H253091   5.633   0.170   3.002 -0.0553 -0.6954 -0.3818
10534TIP3   OH253092   1.919   4.872  11.704 -0.6654  0.5082 -0.0409
10534TIP3    H153093   1.932   4.901  11.794 -1.9294  1.2299 -0.0726
10534TIP3    H253094   1.990   4.914  11.655  0.1122  0.0015  0.6167
10535TIP3   OH253095   2.408   1.095   3.320  0.1946 -0.0781 -0.6104
10535TIP3    H153096   2.422   1.017   3.265  2.5995  0.4352 -0.8339
10535TIP3    H253097   2.416   1.168   3.259  0.2185  0.4238 -0.0048
10536TIP3   OH253098   2.027   6.788   5.519 -0.4171 -0.0521 -0.2636
10536TIP3    H153099   1.972   6.816   5.592  1.4464  0.0304  1.1812
10536TIP3    H253100   1.976   6.719   5.476 -0.6324 -1.8459  2.5933
10537TIP3   OH253101   1.075   0.867  13.430 -0.1902 -0.1421  0.3914
10537TIP3    H153102   1.049   0.805  13.497 -2.9372  1.3969  0.9132
10537TIP3    H253103   1.077   0.952  13.475  2.0701  0.3824 -0.5879
10538TIP3   OH253104   3.224   4.786  10.403  0.1800  0.6458  0.3627
10538TIP3    H153105   3.136   4.763  10.432  0.6332 -0.6276  0.8055
10538TIP3    H253106   3.211   4.837  10.323 -0.9522  0.3391  0.3395
10539TIP3   OH253107   1.648   1.732   2.301 -0.3369  0.1161  0.1698
10539TIP3    H153108   1.641   1.819   2.341 -0.9095  0.7081 -1.1776
10539TIP3    H253109   1.559   1.711   2.274 -0.1612 -0.8085  0.2848
10540TIP3   OH253110   5.460   5.595   1.666  0.1207  0.5864 -0.1306
10540TIP3    H153111   5.370   5.623   1.647  0.3091  0.8544 -0.6475
10540TIP3    H253112   5.505   5.603   1.582  0.3341 -0.6879 -0.1501
10541TIP3   OH253113   4.594   1.791  12.848  0.6127 -0.0339 -0.1114
10541TIP3    H153114   4.540   1.776  12.925  0.1665 -1.2832 -0.6309
10541TIP3    H253115   4.673   1.833  12.881 -0.0826  0.5390  0.8513
10542TIP3   OH253116   1.278   1.055  12.594 -0.0018  0.7059  0.3936
10542TIP3    H153117   1.204   1.109  12.622  0.5561  0.8222  1.7134
10542TIP3    H253118   1.287   0.989  12.663 -1.8956 -2.3900 -2.0535
10543TIP3   OH253119   0.238   4.430  15.931 -0.0380 -1.2135 -0.2928
10543TIP3    H153120   0.168   4.475  15.883 -0.6037 -1.9772 -0.1915
10543TIP3    H253121   0.227   4.338  15.908  1.2487 -1.2945 -0.6724
10544TIP3   OH253122   0.746   3.939  12.052 -0.3644 -0.1476 -0.0259
10544TIP3    H153123   0.799   4.016  12.032 -1.6125  0.6053 -0.5247
10544TIP3    H253124   0.718   3.906  11.967 -0.3057 -0.8261  0.2120
10545TIP3   OH253125   6.373   1.566   2.683  0.3137 -0.2261  0.2979
10545TIP3    H153126   6.316   1.584   2.609  0.7806 -1.0802 -0.2947
10545TIP3    H253127   6.415   1.650   2.703  0.9949 -0.2070 -1.1132
10546TIP3   OH253128   0.672   4.182   2.506 -0.3548 -0.0386 -0.0100
10546TIP3    H153129   0.675   4.275   2.485  2.0822  0.1683  0.9039
10546TIP3    H253130   0.724   4.174   2.586  0.0877 -2.2669 -0.4505
10547TIP3   OH253131   5.907   4.999   4.487  0.0747 -0.2422 -0.1691
10547TIP3    H153132   5.961   5.067   4.528  0.8278 -0.4431 -0.8166
10547TIP3    H253133   5.957   4.970   4.411 -0.3218 -1.4052 -0.0115
10548TIP3   OH253134   0.149   2.144   3.557 -0.3977  0.1408 -0.1751
10548TIP3    H153135   0.130   2.171   3.467  0.5533  0.8753 -0.1685
10548TIP3    H253136   0.178   2.053   3.549 -0.9052  0.0048 -0.5324
10549TIP3   OH253137   3.124   5.327  17.019  0.2965  0.0148  0.4413
10549TIP3    H153138   3.171   5.305  16.938 -0.4625 -1.8332  0.4540
10549TIP3    H253139   3.184   5.386  17.066  2.3798 -1.7732  0.1852
10550TIP3   OH253140   2.321   3.358  10.638 -0.1027 -0.3394  1.0209
10550TIP3    H153141   2.347   3.307  10.562  2.5093  1.3738  0.6101
10550TIP3    H253142   2.380   3.328  10.708  1.1598  1.6511  0.8937
10551TIP3   OH253143   0.484   5.356   2.780 -0.4686  0.3709 -0.3806
10551TIP3    H153144   0.547   5.412   2.826 -0.6048  0.6442 -0.5248
10551TIP3    H253145   0.530   5.330   2.700 -0.5099  0.5134 -0.4518
10552TIP3   OH253146   3.800   4.195  16.242 -0.0785  0.4555 -0.1799
10552TIP3    H153147   3.818   4.147  16.323  1.4393 -1.2663 -1.4348
10552TIP3    H253148   3.753   4.273  16.270 -0.5630 -0.6043  2.2404
10553TIP3   OH253149   2.615   2.576   5.691 -0.0633 -0.2128  0.1775
10553TIP3    H153150   2.560   2.568   5.612 -0.2088 -1.1279  0.3567
10553TIP3    H253151   2.698   2.610   5.659  0.3017 -1.7171 -0.5865
10554TIP3   OH253152   0.475   6.004   5.256 -0.5275 -0.0050 -0.4637
10554TIP3    H153153   0.555   6.006   5.204 -1.5918  1.8114 -2.1604
10554TIP3    H253154   0.472   5.915   5.293  1.8171 -0.3638 -1.0137
10555TIP3   OH253155   1.552   1.439   1.968 -0.3685 -0.1240 -0.0626
10555TIP3    H153156   1.506   1.508   1.921 -1.3962  0.8006  2.1495
10555TIP3    H253157   1.635   1.478   1.995 -0.4355 -0.1433  0.1745
10556TIP3   OH253158   4.756   0.518   4.409  0.1716 -0.4176  0.7360
10556TIP3    H153159   4.821   0.525   4.339 -0.2176  0.0654  0.4149
10556TIP3    H253160   4.681   0.475   4.367 -0.8401  1.6452  0.2646
10557TIP3   OH253161   2.614   3.408   0.877 -0.6405 -0.2562 -0.5488
10557TIP3    H153162   2.635   3.316   0.860 -0.5108 -0.3253 -0.0241
10557TIP3    H253163   2.519   3.412   0.873 -0.6057 -0.2159 -1.5532
10558TIP3   OH253164   0.296   3.615  13.742 -0.6035  0.2826  0.5068
10558TIP3    H153165   0.391   3.617  13.736 -0.6863  1.1171 -0.9587
10558TIP3    H253166   0.275   3.528  13.776  0.5821 -0.8913 -1.6067
10559TIP3   OH253167   4.382   5.499   4.706 -0.1377 -0.3130 -0.5872
10559TIP3    H153168   4.366   5.415   4.662  0.7891 -1.1694  0.6189
10559TIP3    H253169   4.399   5.474   4.797 -3.0453  1.4419  0.5872
10560TIP3   OH253170   1.752   2.857  10.933  0.0799  0.1222  0.3372
10560TIP3    H153171   1.725   2.788  10.872  0.8532  1.2386 -1.3391
10560TIP3    H253172   1.686   2.925  10.924 -0.7311 -0.3724  2.0603
10561TIP3   OH253173   5.006   0.044   0.535  0.0416 -0.5926  0.1513
10561TIP3    H153174   4.939  -0.024   0.525  1.9723 -2.3275 -2.0543
10561TIP3    H253175   5.018   0.079   0.447  1.4854  0.2419  0.6462
10562TIP3   OH253176   2.618   6.336  12.666  0.2503 -0.1067 -0.0613
10562TIP3    H153177   2.550   6.371  12.724 -0.1847 -0.1431 -0.5403
10562TIP3    H253178   2.651   6.412  12.618  0.6116 -0.0758  0.2341
10563TIP3   OH253179   0.898   3.492  14.472  0.2156 -0.4440  0.3707
10563TIP3    H153180   0.948   3.557  14.521 -2.2251  0.9954  1.1798
10563TIP3    H253181   0.939   3.489  14.386  1.2365  1.1714  0.7621
10564TIP3   OH253182   1.993   1.612   6.120  0.5362 -0.3248 -0.1250
10564TIP3    H153183   1.936   1.577   6.189 -0.7527  0.0355 -0.9678
10564TIP3    H253184   2.060   1.661   6.166 -0.7359  0.5456  0.8538
10565TIP3   OH253185   1.564   0.404  12.593  0.4806  0.2587  0.0510
10565TIP3    H153186   1.658   0.394  12.609  0.4446 -1.8091 -0.7199
10565TIP3    H253187   1.558   0.473  12.527  1.7621 -1.4559 -2.0221
10566TIP3   OH253188   1.050   6.773   0.325 -0.2638  0.3433  0.0554
10566TIP3    H153189   1.140   6.763   0.357  0.1442  0.1901 -1.1011
10566TIP3    H253190   1.018   6.684   0.315 -0.8449  0.3972  1.2145
10567TIP3   OH253191   0.973   4.014  14.657  0.3048 -0.0277  0.0638
10567TIP3    H153192   0.974   4.038  14.564  3.9950  0.6366  0.1114
10567TIP3    H253193   1.023   4.084  14.699 -1.1604 -0.3989  2.5526
10568TIP3   OH253194   4.914   2.921  11.311 -0.3134  0.0147 -0.2241
10568TIP3    H153195   4.841   2.981  11.327  0.5530  1.1427 -0.4269
10568TIP3    H253196   4.899   2.849  11.371 -1.1311  0.6475  0.3487
10569TIP3   OH253197   1.654   1.366  15.963 -0.4231 -0.1518  0.5342
10569TIP3    H153198   1.710   1.348  16.039  0.2871 -1.8678 -0.3458
10569TIP3    H253199   1.706   1.336  15.888 -0.3178  3.1884 -0.8802
10570TIP3   OH253200   3.883   1.274   2.245 -0.2069 -0.3916  0.1580
10570TIP3    H153201   3.850   1.215   2.312 -0.4835  1.2417  1.5346
10570TIP3    H253202   3.953   1.225   2.202 -2.1700 -2.6957 -0.6299
10571TIP3   OH253203   5.927   1.032  16.078 -0.6083  0.4099 -0.1085
10571TIP3    H153204   6.000   1.089  16.054 -0.9342  0.4215 -1.1264
10571TIP3    H253205   5.963   0.943  16.070 -1.1858  0.3143 -2.5388
10572TIP3   OH253206   6.214   4.893  11.379  0.4039  0.4391  0.3451
10572TIP3    H153207   6.151   4.965  11.367  0.4970  0.2734 -1.3221
10572TIP3    H253208   6.274   4.901  11.305  0.2295 -1.5615 -0.0443
10573TIP3   OH253209   0.464   3.794  13.944  0.4947 -0.0480 -0.1503
10573TIP3    H153210   0.492   3.720  13.998 -0.0573 -0.8907 -1.0025
10573TIP3    H253211   0.495   3.773  13.856  0.4314  0.7928 -0.3810
10574TIP3   OH253212   1.620   2.566   4.313 -0.7060 -0.3678  0.1870
10574TIP3    H153213   1.709   2.530   4.310 -0.6020 -0.0888 -0.1069
10574TIP3    H253214   1.568   2.497   4.353 -0.0345  0.1256  2.0250
10575TIP3   OH253215   0.240   4.170  11.407  0.4594 -0.2147  0.3003
10575TIP3    H153216   0.227   4.261  11.381  1.2795 -0.1741  0.0167
10575TIP3    H253217   0.198   4.119  11.337 -0.1242 -0.0573  0.5311
10576TIP3   OH253218   4.767   2.309  16.067 -0.6721  0.2818 -0.2867
10576TIP3    H153219   4.714   2.297  15.988 -0.5326 -0.2130 -0.3075
10576TIP3    H253220   4.709   2.283  16.139 -0.9754  1.2243 -0.1712
10577TIP3   OH253221   1.493   6.738   1.911 -0.3255 -0.3556  0.2157
10577TIP3    H153222   1.581   6.761   1.941 -0.3460  1.9034 -1.2574
10577TIP3    H253223   1.434   6.782   1.972 -0.5058 -2.1067  1.3792
10578TIP3   OH253224   4.761   1.065   1.491 -0.1317 -0.4506  0.2621
10578TIP3    H153225   4.816   1.032   1.561  0.8722 -0.7196 -0.6263
10578TIP3    H253226   4.738   1.154   1.518  0.0403 -0.6349  1.0345
10579TIP3   OH253227   4.801   6.396   0.818  0.1575 -0.0788  0.5213
10579TIP3    H153228   4.732   6.383   0.883  0.6054  1.9994  1.4871
10579TIP3    H253229   4.756   6.437   0.744  0.1692  0.3225  0.7350
10580TIP3   OH253230   2.817   2.009  11.971 -0.0976 -0.8391 -0.1219
10580TIP3    H153231   2.909   1.983  11.968  0.0053 -0.4057 -1.6057
10580TIP3    H253232   2.770   1.928  11.988  0.6699 -0.6643  3.5519
10581TIP3   OH253233   4.562   6.795  13.155  0.1800 -0.2813  0.1655
10581TIP3    H153234   4.608   6.867  13.199  0.2748 -0.1948 -0.0774
10581TIP3    H253235   4.620   6.770  13.083  0.4236 -0.9762  0.5813
10582TIP3   OH253236   1.535   2.756  10.678 -1.0646 -0.1077 -0.2091
10582TIP3    H153237   1.558   2.846  10.658  1.3330 -0.5594  0.1310
10582TIP3    H253238   1.508   2.758  10.770  1.0539  0.0357  0.4832
10583TIP3   OH253239   1.482   1.124  13.335  0.4943 -0.9870 -0.0687
10583TIP3    H153240   1.519   1.144  13.249  0.4109 -1.6869 -0.2767
10583TIP3    H253241   1.401   1.077  13.316  0.1749 -0.6289  0.3907
10584TIP3   OH253242   0.697   3.161   3.684  0.1151  0.1178 -0.4649
10584TIP3    H153243   0.763   3.103   3.645 -0.3356 -0.2082 -0.7513
10584TIP3    H253244   0.644   3.191   3.610  0.6761  1.3420 -0.3981
10585TIP3   OH253245   1.110   5.678  11.558  0.2304  0.1886 -0.5918
10585TIP3    H153246   1.203   5.673  11.538  0.5025 -1.1967  0.8080
10585TIP3    H253247   1.072   5.602  11.514  0.0145 -0.0735  0.0389
10586TIP3   OH253248   0.228   3.771  15.572 -0.3186 -0.9066  0.1956
10586TIP3    H153249   0.215   3.841  15.636 -0.4547  0.3612 -1.1849
10586TIP3    H253250   0.320   3.779  15.546 -0.4992 -0.8188 -0.4344
10587TIP3   OH253251   5.769   6.470   1.439 -0.0886  0.0838  0.3338
10587TIP3    H153252   5.745   6.385   1.475 -2.2525  0.0504 -1.0159
10587TIP3    H253253   5.779   6.526   1.516  2.5405 -1.5809  1.3320
10588TIP3   OH253254   1.615   3.221   4.749  0.5301  0.3573  0.0594
10588TIP3    H153255   1.650   3.223   4.659  1.4597 -1.4024  0.3440
10588TIP3    H253256   1.670   3.157   4.794 -1.7030 -0.8913  1.1535
10589TIP3   OH253257   4.645   1.705  14.977  0.2500  0.3615  0.0003
10589TIP3    H153258   4.589   1.683  15.051  1.0493 -1.3471  0.1374
10589TIP3    H253259   4.727   1.658  14.993  0.4177 -0.1266 -1.9676
10590TIP3   OH253260   5.155   3.938  10.445  0.2420 -0.1834 -0.5735
10590TIP3    H153261   5.238   3.977  10.417 -0.6492  0.0556 -3.1698
10590TIP3    H253262   5.089   4.003  10.422 -0.6621  0.0455  2.3277
10591TIP3   OH253263   3.920   6.591   2.129 -0.2993 -0.4349  0.0372
10591TIP3    H153264   3.967   6.633   2.200  1.5240 -1.1223 -0.7116
10591TIP3    H253265   3.843   6.552   2.171 -1.2960  2.3447  0.9643
10592TIP3   OH253266   3.021   0.767   4.757 -0.2987 -0.5820  0.1549
10592TIP3    H153267   3.018   0.862   4.746 -0.1201 -0.3338  1.9910
10592TIP3    H253268   2.993   0.733   4.672  0.9049  1.0726 -0.9784
10593TIP3   OH253269   6.139   2.286   4.484 -0.5838 -0.3018 -0.3272
10593TIP3    H153270   6.170   2.279   4.393 -1.3135 -0.0965 -0.5946
10593TIP3    H253271   6.053   2.244   4.483 -0.0374 -1.5068  0.5667
10594TIP3   OH253272   3.016   0.730   1.618  0.2349 -0.6734 -0.1952
10594TIP3    H153273   3.007   0.772   1.533 -1.2999  0.4267  0.4655
10594TIP3    H253274   2.938   0.674   1.625  0.8985 -1.5852  0.0542
10595TIP3   OH253275   0.237   1.050   2.162 -0.1402 -0.0389 -0.5683
10595TIP3    H153276   0.196   0.982   2.107  0.2212  1.0159 -2.2013
10595TIP3    H253277   0.250   1.007   2.246  1.8120 -2.6767 -2.0449
10596TIP3   OH253278   6.840   0.650   1.363 -0.0196  0.1575 -0.6432
10596TIP3    H153279   6.880   0.726   1.321  1.0479  0.8508  1.4998
10596TIP3    H253280   6.754   0.681   1.391 -0.3672 -0.0343 -1.4709
10597TIP3   OH253281   5.656   1.214   2.686  0.0460 -0.4698 -0.0551
10597TIP3    H153282   5.610   1.203   2.602  0.4311 -1.8630 -0.1141
10597TIP3    H253283   5.721   1.144   2.687 -0.1793 -0.7020  1.5627
10598TIP3   OH253284   6.729   5.981   4.293  0.0872  0.6543  0.4589
10598TIP3    H153285   6.723   6.030   4.375 -0.2225 -0.4243  1.0998
10598TIP3    H253286   6.791   6.031   4.239 -0.6230  2.0167  0.8730
10599TIP3   OH253287   2.020   0.762   2.226 -0.1908  1.4237 -0.1661
10599TIP3    H153288   1.975   0.846   2.221 -0.8346  1.0333 -1.2891
10599TIP3    H253289   2.106   0.779   2.187 -0.7361  1.3127 -1.4695
10600TIP3   OH253290   3.279   0.096   3.393 -0.2912 -0.1510  0.1898
10600TIP3    H153291   3.283   0.074   3.486 -1.1027  0.9802  0.5154
10600TIP3    H253292   3.209   0.041   3.359 -1.7534  1.2443  0.8228
10601TIP3   OH253293   0.870   3.246   5.638  0.6278  0.0822  0.3024
10601TIP3    H153294   0.844   3.312   5.701  1.3955 -0.8170  1.6108
10601TIP3    H253295   0.873   3.164   5.688  0.2786 -0.8612 -1.1259
10602TIP3   OH253296   4.750   1.488  15.616  0.6803 -0.0826 -0.0376
10602TIP3    H153297   4.810   1.494  15.542  0.3767  0.4551 -0.2420
10602TIP3    H253298   4.668   1.457  15.578  0.9665 -1.3914  0.3281
10603TIP3   OH253299   1.520   6.083   0.680  0.2388  0.3998  0.1803
10603TIP3    H153300   1.608   6.054   0.655  0.8289  2.1428  0.0545
10603TIP3    H253301   1.461   6.028   0.629  1.3065  0.5503 -1.2855
10604TIP3   OH253302   3.536   6.421  11.660  0.8973 -0.1155  0.2054
10604TIP3    H153303   3.575   6.339  11.690  0.3261 -0.3566  0.2972
10604TIP3    H253304   3.611   6.477  11.639  1.2905 -0.8055 -0.2599
10605TIP3   OH253305   5.558   1.692   5.913  0.0277 -0.1741  0.3375
10605TIP3    H153306   5.618   1.762   5.891  0.9048 -0.6363  1.1772
10605TIP3    H253307   5.572   1.625   5.846  0.3103 -0.1959  0.4184
10606TIP3   OH253308   3.981   6.814  12.648 -0.6530  0.1889 -0.2719
10606TIP3    H153309   3.901   6.795  12.599 -0.7891  0.7500 -0.2742
10606TIP3    H253310   3.998   6.907  12.631  1.1218 -0.3701 -1.9123
10607TIP3   OH253311   6.471   6.520  16.053  0.8229 -0.5297 -0.1565
10607TIP3    H153312   6.415   6.517  15.975  2.2208 -0.3517 -1.2105
10607TIP3    H253313   6.543   6.579  16.028  0.4722  0.8428  1.8615
10608TIP3   OH253314   5.920   0.590  10.713 -0.1369  0.2977 -0.8878
10608TIP3    H153315   5.973   0.666  10.688  0.1374  0.3896 -0.0646
10608TIP3    H253316   5.977   0.514  10.695  0.2529  0.3904 -0.1048
10609TIP3   OH253317   1.557   1.006   4.666 -0.0922 -0.7059 -0.9757
10609TIP3    H153318   1.594   1.081   4.620 -1.1720 -1.0823 -2.5208
10609TIP3    H253319   1.498   0.965   4.603 -2.9151 -0.3204  1.2320
10610TIP3   OH253320   2.723   3.997   2.974 -0.0116  0.0497 -0.1501
10610TIP3    H153321   2.643   3.960   2.938 -1.3571  1.4671  1.2241
10610TIP3    H253322   2.752   3.934   3.039 -0.0562 -0.4397 -0.6047
10611TIP3   OH253323   5.115   6.426  15.674 -0.4012  0.4692  0.1891
10611TIP3    H153324   5.141   6.432  15.582  0.8404 -0.7088  0.4246
10611TIP3    H253325   5.128   6.514  15.709 -2.0067  1.2267 -1.0046
10612TIP3   OH253326   3.061   4.812  13.629 -0.4757 -0.3841 -0.4699
10612TIP3    H153327   3.128   4.776  13.687  1.0117  0.5843 -1.5138
10612TIP3    H253328   3.028   4.736  13.582  0.2716 -0.8291 -0.3068
10613TIP3   OH253329   5.327   3.650   4.980  0.3616 -0.1368 -0.3240
10613TIP3    H153330   5.290   3.604   5.055 -0.1369  0.3790 -0.2431
10613TIP3    H253331   5.394   3.707   5.018 -1.3383  1.7125  0.0414
10614TIP3   OH253332   2.764   4.561   2.976  0.1554  0.5567  0.3069
10614TIP3    H153333   2.750   4.501   3.050 -0.5105  1.2233  0.7334
10614TIP3    H253334   2.826   4.515   2.919  0.1012 -0.2864  0.9136
10615TIP3   OH253335   0.636   1.771   1.214 -0.7718 -0.4012  0.2460
10615TIP3    H153336   0.564   1.786   1.275 -0.3326 -0.2253  0.7234
10615TIP3    H253337   0.642   1.852   1.164 -1.8632 -0.9394 -0.8223
10616TIP3   OH253338   3.206   2.540   2.442  0.1532 -0.1942  0.0823
10616TIP3    H153339   3.166   2.488   2.512  0.5737 -1.2384 -0.4258
10616TIP3    H253340   3.268   2.480   2.401  0.2128  0.5305 -0.9181
10617TIP3   OH253341   1.917   2.144  14.971  0.4020  0.2444 -0.2273
10617TIP3    H153342   2.011   2.160  14.984  0.0459  0.7809  2.2323
10617TIP3    H253343   1.913   2.069  14.912  2.3486  0.6498 -0.9648
10618TIP3   OH253344   6.132   1.870   2.447 -0.5489  0.3722 -0.1348
10618TIP3    H153345   6.187   1.944   2.421 -0.2763 -0.0671 -0.8531
10618TIP3    H253346   6.194   1.799   2.463 -0.8099  0.2876  0.5233
10619TIP3   OH253347   3.629   6.800  12.788 -0.7422 -0.5815  0.1130
10619TIP3    H153348   3.663   6.856  12.857  1.4312  0.0535 -1.3530
10619TIP3    H253349   3.686   6.723  12.790 -0.2489 -0.2943 -1.2826
10620TIP3   OH253350   5.560   5.175  12.951  0.3463  0.2914 -0.3726
10620TIP3    H153351   5.473   5.213  12.939 -1.1153 -2.4143  0.7115
10620TIP3    H253352   5.583   5.140  12.866 -0.3536 -0.3004 -0.3323
10621TIP3   OH253353   0.767   3.422  12.535 -0.3575  0.2768  0.2595
10621TIP3    H153354   0.729   3.401  12.620 -1.8175  0.4645 -0.3141
10621TIP3    H253355   0.692   3.446  12.480  0.2732 -1.8515 -1.6884
10622TIP3   OH253356   3.913   6.158   5.171 -0.6683 -0.0887  0.0266
10622TIP3    H153357   3.875   6.081   5.213  0.1800  0.6300  2.2906
10622TIP3    H253358   3.854   6.230   5.194 -0.5969  0.2103 -0.6938
10623TIP3   OH253359   0.235   5.852   0.763 -0.1672  0.1612 -0.4590
10623TIP3    H153360   0.325   5.839   0.792  0.3249  0.5629 -1.7428
10623TIP3    H253361   0.234   5.940   0.726 -0.9150 -0.0966 -1.0723
10624TIP3   OH253362   2.294   0.959  11.739  0.2728  0.2720 -0.1539
10624TIP3    H153363   2.252   0.975  11.823  0.9233  1.2176  0.0023
10624TIP3    H253364   2.235   0.898  11.694  1.2319 -2.5374  2.0585
10625TIP3   OH253365   1.308   5.448   5.855 -0.0726 -0.6990 -0.6149
10625TIP3    H153366   1.388   5.481   5.815 -0.0117 -1.2364 -0.9457
10625TIP3    H253367   1.336   5.369   5.901 -0.3218 -0.6073 -0.3032
10626TIP3   OH253368   0.734   4.671  14.499 -0.0116  0.3602 -0.2078
10626TIP3    H153369   0.711   4.722  14.576 -0.3244  1.0558 -0.7508
10626TIP3    H253370   0.815   4.626  14.523  0.2426  1.0703  0.3001
10627TIP3   OH253371   3.135   4.606   3.698 -0.5035 -0.3195  0.1465
10627TIP3    H153372   3.206   4.662   3.729 -0.9232  1.4031 -1.7811
10627TIP3    H253373   3.084   4.587   3.777  0.9764  0.0072  1.2402
10628TIP3   OH253374   1.845   0.043  12.856 -0.3610  0.5425  0.1748
10628TIP3    H153375   1.914   0.009  12.913 -1.1518 -0.1324  0.7717
10628TIP3    H253376   1.766  -0.004  12.884 -0.8451  0.4454 -1.2680
10629TIP3   OH253377   4.740   2.207   5.955 -0.2529  0.2841 -0.4504
10629TIP3    H153378   4.723   2.268   6.027  0.7394 -0.8436  0.7960
10629TIP3    H253379   4.745   2.121   5.997  0.3693 -0.4066 -1.8663
10630TIP3   OH253380   5.263   5.876   3.715 -0.1215  0.5720 -0.2095
10630TIP3    H153381   5.172   5.897   3.734 -0.6453 -0.8905 -0.9809
10630TIP3    H253382   5.267   5.781   3.714  1.0732  0.5861 -1.6931
10631TIP3   OH253383   2.224   3.030   0.254  0.1047  0.0763  0.4817
10631TIP3    H153384   2.152   2.968   0.244  1.2611 -1.1560 -0.5388
10631TIP3    H253385   2.217   3.089   0.179  1.5154 -1.5308 -0.9887
10632TIP3   OH253386   1.606   6.150  12.192  0.1157 -0.0309  0.3581
10632TIP3    H153387   1.614   6.215  12.261  1.8757 -0.1015  0.2876
10632TIP3    H253388   1.638   6.195  12.113  0.5541 -0.7125  0.1352
10633TIP3   OH253389   3.729   3.613  10.907 -0.3479 -0.1843  0.2232
10633TIP3    H153390   3.641   3.632  10.876 -0.8260 -0.3685  1.4011
10633TIP3    H253391   3.724   3.625  11.002  0.8352 -0.4291  0.3367
10634TIP3   OH253392   6.277   3.725   0.329 -0.1692 -0.3081  0.3826
10634TIP3    H153393   6.224   3.748   0.405 -0.8538 -0.7789  0.0624
10634TIP3    H253394   6.348   3.671   0.365  0.5190  0.9146  0.9091
10635TIP3   OH253395   4.854   3.131  11.046 -0.5295 -0.3731 -0.0930
10635TIP3    H153396   4.881   3.072  10.975  0.7123  0.0183  0.0378
10635TIP3    H253397   4.929   3.189  11.059  0.0982 -1.6866  2.8817
10636TIP3   OH253398   3.683   1.026   3.808 -0.9349 -0.1022  0.2266
10636TIP3    H153399   3.726   1.111   3.816  0.0031 -0.2402 -2.2217
10636TIP3    H253400   3.591   1.046   3.796 -0.6419  0.6480 -0.9367
10637TIP3   OH253401   2.707   5.715  10.450  0.2480  0.5900  0.3077
10637TIP3    H153402   2.659   5.776  10.505 -1.1858 -2.1141  2.2858
10637TIP3    H253403   2.641   5.655  10.417  1.9031 -2.1187  1.5323
10638TIP3   OH253404   3.373   3.717  13.846 -0.5222  0.1702 -0.4252
10638TIP3    H153405   3.304   3.770  13.805 -0.2439  0.1331 -0.9584
10638TIP3    H253406   3.349   3.627  13.824 -1.1507  0.0385  0.7214
10639TIP3   OH253407   6.564   1.995   5.469 -0.2752  0.0517 -0.3418
10639TIP3    H153408   6.494   2.004   5.405 -0.6603  0.8696  0.1715
10639TIP3    H253409   6.607   2.080   5.470 -1.6000  0.7876  1.9419
10640TIP3   OH253410   6.420   0.343   4.780  0.1466  0.2036 -0.5468
10640TIP3    H153411   6.461   0.403   4.717  1.6504  0.9963  1.1010
10640TIP3    H253412   6.341   0.389   4.808 -0.5014 -0.1272 -1.7752
10641TIP3   OH253413   1.113   2.967   0.390  0.6831 -0.3196 -0.3079
10641TIP3    H153414   1.054   3.030   0.431 -2.7714 -5.2589  3.4671
10641TIP3    H253415   1.075   2.951   0.304 -1.7354 -1.0143  0.8000
10642TIP3   OH253416   4.913   0.001   2.266 -0.0914  0.2345 -0.1004
10642TIP3    H153417   4.979   0.038   2.208  0.3039  2.4116  1.6232
10642TIP3    H253418   4.861  -0.057   2.210  0.5119  1.8906 -2.5029
10643TIP3   OH253419   5.516   6.735  13.202 -0.1750 -0.3342 -0.1180
10643TIP3    H153420   5.552   6.694  13.281 -0.6190 -0.4228  0.0420
10643TIP3    H253421   5.451   6.672  13.170  0.7393 -0.7863 -1.1555
10644TIP3   OH253422   0.576   1.111   1.807 -0.3452  0.7742  0.4855
10644TIP3    H153423   0.646   1.048   1.789 -1.1358 -0.8456  2.7011
10644TIP3    H253424   0.548   1.141   1.720  0.0688 -1.9423 -0.6753
10645TIP3   OH253425   0.232   4.807  15.833 -0.1307 -1.0121 -0.6089
10645TIP3    H153426   0.282   4.824  15.913  0.9008 -0.9784 -1.2569
10645TIP3    H253427   0.255   4.717  15.809 -0.0526 -0.8523 -1.1434
10646TIP3   OH253428   6.332   3.489   1.711  0.3315 -0.1733  0.0898
10646TIP3    H153429   6.337   3.585   1.708  1.2900 -0.2233 -0.4726
10646TIP3    H253430   6.379   3.466   1.791  2.4377 -0.2697 -1.1098
10647TIP3   OH253431   5.935   5.119  15.860  0.4587 -0.2384  0.2776
10647TIP3    H153432   5.933   5.134  15.955  0.3586 -0.0364  0.2444
10647TIP3    H253433   6.005   5.055  15.847  1.1102  0.4470  0.3869
10648TIP3   OH253434   6.207   3.681   1.455  0.7738 -0.5823  0.4225
10648TIP3    H153435   6.226   3.672   1.362  0.4318 -0.1009  0.3068
10648TIP3    H253436   6.280   3.734   1.489  2.3877 -2.9666  0.9648
10649TIP3   OH253437   3.549   3.814   2.934  0.5143 -0.2687 -0.2868
10649TIP3    H153438   3.491   3.876   2.890  1.2034  0.1263 -0.6664
10649TIP3    H253439   3.568   3.854   3.019 -0.7336 -0.9825  0.3544
10650TIP3   OH253440   0.353   4.129   1.373 -0.0755 -0.0208 -0.0704
10650TIP3    H153441   0.398   4.120   1.457  1.5613  0.5157 -0.8579
10650TIP3    H253442   0.289   4.057   1.372  1.9113 -1.8994  0.3848
10651TIP3   OH253443   4.811   1.625   1.731  0.6638 -0.0988  0.0948
10651TIP3    H153444   4.873   1.679   1.781  0.0720 -0.6771  1.4942
10651TIP3    H253445   4.734   1.681   1.721  0.8501  0.0833 -0.3451
10652TIP3   OH253446   2.119   0.336   0.894 -0.0676 -0.2715  0.1895
10652TIP3    H153447   2.197   0.320   0.840 -1.0167 -0.3838 -1.1784
10652TIP3    H253448   2.057   0.379   0.835 -1.4735 -1.2055  0.9223
10653TIP3   OH253449   6.181   2.094  11.483  0.0101 -0.3896  0.6581
10653TIP3    H153450   6.231   2.098  11.564 -0.6973 -0.0893  1.0844
10653TIP3    H253451   6.109   2.034  11.501 -0.0140 -0.5162  0.1739
10654TIP3   OH253452   3.785   6.260   2.152 -0.0661 -0.2685 -0.1909
10654TIP3    H153453   3.775   6.182   2.207  1.5884  0.6996  1.6192
10654TIP3    H253454   3.785   6.333   2.215 -1.0245  1.1669 -1.7791
10655TIP3   OH253455   2.052   5.749   0.533  0.5717 -0.3192 -0.3653
10655TIP3    H153456   2.083   5.760   0.443 -0.5665  1.9591 -0.5499
10655TIP3    H253457   2.090   5.822   0.581 -0.2001 -0.5239  0.5965
10656TIP3   OH253458   4.511   4.385  16.626 -0.1476  0.3434  0.1904
10656TIP3    H153459   4.430   4.425  16.657  0.3058  1.9661 -0.5943
10656TIP3    H253460   4.499   4.378  16.531 -0.0082 -0.9495  0.2560
10657TIP3   OH253461   5.061   2.122   0.171  0.1930  0.1704  0.3677
10657TIP3    H153462   5.051   2.027   0.173  1.3017 -0.0696 -1.9194
10657TIP3    H253463   5.024   2.149   0.087 -2.3272  2.1576  1.9331
10658TIP3   OH253464   5.280   5.873   2.338 -0.1691 -0.3389  0.4190
10658TIP3    H153465   5.261   5.900   2.248 -1.2575  2.6528  1.4093
10658TIP3    H253466   5.196   5.882   2.384  0.6757 -0.3444  2.0359
10659TIP3   OH253467   5.272   0.049  11.068  0.1197 -0.1252 -0.6927
10659TIP3    H153468   5.240   0.139  11.073 -1.0852 -0.5746  0.4608
10659TIP3    H253469   5.364   0.057  11.043 -0.1003  1.3907 -1.1242
10660TIP3   OH253470   3.728   0.416   4.369 -0.2820 -0.2037 -0.0939
10660TIP3    H153471   3.761   0.354   4.434 -1.4424 -1.8160 -0.9950
10660TIP3    H253472   3.799   0.480   4.360  0.9573 -1.3797  0.8711
10661TIP3   OH253473   2.223   3.893  14.731 -0.1533 -0.3515  0.1781
10661TIP3    H153474   2.205   3.856  14.818  0.9870  0.9963  1.0357
10661TIP3    H253475   2.164   3.846  14.673 -0.1235 -2.1326  1.4863
10662TIP3   OH253476   3.932   5.598  14.956  0.0893  0.2632  0.9296
10662TIP3    H153477   3.927   5.692  14.973 -0.3498  0.2761  0.7511
10662TIP3    H253478   3.843   5.575  14.927  0.1480 -0.2383  1.1474
10663TIP3   OH253479   2.815   1.800  14.421  0.0418 -0.0335  0.0296
10663TIP3    H153480   2.882   1.803  14.489 -1.6164  0.4379  1.7432
10663TIP3    H253481   2.732   1.813  14.468 -1.0427  2.6935 -2.3179
10664TIP3   OH253482   2.574   5.487  13.238 -0.4755  0.1764 -0.1896
10664TIP3    H153483   2.638   5.519  13.174 -2.4502 -0.0784 -2.4440
10664TIP3    H253484   2.603   5.398  13.258  1.9598  1.3115  1.8755
10665TIP3   OH253485   5.582   3.319   0.179 -0.3020 -0.3011 -0.0318
10665TIP3    H153486   5.560   3.247   0.121 -2.2697 -0.5988  0.9998
10665TIP3    H253487   5.675   3.305   0.201 -0.8838 -3.1874  1.0150
10666TIP3   OH253488   1.892   0.691   5.883 -0.6757 -0.3575  0.0827
10666TIP3    H153489   1.959   0.757   5.870 -1.0119  0.0261  0.2427
10666TIP3    H253490   1.922   0.640   5.958  0.3133 -1.3480 -0.9526
10667TIP3   OH253491   1.377   3.092   4.335 -0.8866 -0.4880 -0.2664
10667TIP3    H153492   1.384   3.120   4.427  0.6119  1.6853 -0.9679
10667TIP3    H253493   1.390   3.172   4.285 -1.9639 -1.5792 -2.4220
10668TIP3   OH253494   3.939   4.514   2.794  0.1432  0.0533  0.3389
10668TIP3    H153495   3.917   4.478   2.880  1.3089 -0.5698  0.4088
10668TIP3    H253496   3.953   4.607   2.810  0.6285 -0.1084  0.8929
10669TIP3   OH253497   5.507   2.316   3.185 -0.1974  0.3431 -0.0227
10669TIP3    H153498   5.454   2.371   3.127 -1.6578 -0.6528  0.3060
10669TIP3    H253499   5.528   2.373   3.259  1.7914  1.6703 -1.4981
10670TIP3   OH253500   3.696   0.738  15.423  0.1902  0.2279 -0.0837
10670TIP3    H153501   3.764   0.701  15.479  0.3361 -1.2283 -1.1590
10670TIP3    H253502   3.727   0.827  15.404  1.8970 -0.4520 -0.6622
10671TIP3   OH253503   2.422   1.592   1.687 -0.4738  0.1328  0.2906
10671TIP3    H153504   2.335   1.570   1.718 -0.8214  0.7354 -0.2353
10671TIP3    H253505   2.480   1.572   1.761 -1.4889  3.2825  2.1520
10672TIP3   OH253506   2.704   5.424  13.645 -0.1042 -0.1217 -0.4055
10672TIP3    H153507   2.655   5.357  13.597  0.4986  0.6101 -2.1359
10672TIP3    H253508   2.785   5.381  13.671 -1.8930 -1.6565  3.3708
10673TIP3   OH253509   6.165   5.863  11.607  0.2177 -0.5427  0.4975
10673TIP3    H153510   6.207   5.944  11.577 -0.1596  0.3571  2.2472
10673TIP3    H253511   6.220   5.793  11.572 -0.8156  0.2648 -3.2306
10674TIP3   OH253512   5.976   0.812   2.214 -0.7815  0.6756 -0.9185
10674TIP3    H153513   5.920   0.799   2.137 -1.4212 -0.0115 -0.3617
10674TIP3    H253514   6.065   0.809   2.179 -0.9489 -1.9935 -1.3776
10675TIP3   OH253515   4.838   4.296  15.597  0.3460 -0.0041  0.0875
10675TIP3    H153516   4.837   4.261  15.508 -2.1973 -1.0001  0.4345
10675TIP3    H253517   4.785   4.234  15.648  2.6554 -0.0987  2.5843
10676TIP3   OH253518   1.327   3.681   1.907  0.2617  0.0213  0.3443
10676TIP3    H153519   1.268   3.609   1.884  1.1929 -1.5832  2.5810
10676TIP3    H253520   1.273   3.760   1.897 -1.4025 -1.1274 -0.3064
10677TIP3   OH253521   5.778   3.613   2.724  0.2703  0.0503  0.1715
10677TIP3    H153522   5.873   3.618   2.736  0.3406 -0.6904 -0.0610
10677TIP3    H253523   5.765   3.634   2.632  0.2252 -0.0414  0.1569
10678TIP3   OH253524   6.074   1.446  12.597 -0.8574 -0.2076  0.3348
10678TIP3    H153525   5.983   1.417  12.601 -0.7619 -0.4470  0.8314
10678TIP3    H253526   6.069   1.533  12.557 -1.3708  0.0764  1.0046
10679TIP3   OH253527   2.283   5.360  12.590  0.1493 -0.1846 -0.0178
10679TIP3    H153528   2.300   5.337  12.682  0.2984 -2.1881 -0.4979
10679TIP3    H253529   2.368   5.389  12.557 -0.1122  1.5006  0.6978
10680TIP3   OH253530   5.342   5.399  15.792  0.0981 -0.1281 -0.4641
10680TIP3    H153531   5.308   5.473  15.742  1.6886  2.8954  2.5026
10680TIP3    H253532   5.431   5.426  15.817 -1.1201 -0.2450  5.5092
10681TIP3   OH253533   4.971   1.727  15.931 -0.6915  0.2383  0.4901
10681TIP3    H153534   5.008   1.799  15.879  0.0810 -0.3174  0.2377
10681TIP3    H253535   4.989   1.751  16.021  1.0605 -0.3652  0.3605
10682TIP3   OH253536   2.258   5.896  10.365  0.0601 -0.9270  0.4112
10682TIP3    H153537   2.296   5.843  10.295  0.5587  0.0575 -0.0864
10682TIP3    H253538   2.194   5.952  10.321  1.6332  0.9606  0.4043
10683TIP3   OH253539   3.174   2.186  12.568  0.0371 -0.1425  0.2531
10683TIP3    H153540   3.165   2.131  12.646  2.4851  0.5549  1.1399
10683TIP3    H253541   3.235   2.255  12.595  0.9440  0.1342 -2.2866
10684TIP3   OH253542   1.651   1.804   0.891  0.7502 -0.0995  0.0456
10684TIP3    H153543   1.632   1.715   0.864 -2.7888  0.6606 -0.4894
10684TIP3    H253544   1.645   1.802   0.987 -2.1479 -0.0185 -0.0606
10685TIP3   OH253545   4.774   0.675   2.801  0.0233 -0.6411 -0.2548
10685TIP3    H153546   4.845   0.651   2.742  0.3719  0.0695 -0.1403
10685TIP3    H253547   4.790   0.768   2.821 -0.1205 -0.8551  0.9107
10686TIP3   OH253548   5.252   4.897  13.817  0.2650 -0.0698 -0.3397
10686TIP3    H153549   5.169   4.880  13.862  0.0320  0.2095 -0.6564
10686TIP3    H253550   5.272   4.988  13.836  1.2115 -0.5138  0.8636
10687TIP3   OH253551   3.185   2.751  14.999  0.7823 -0.1801  0.1814
10687TIP3    H153552   3.233   2.827  15.030  1.0937 -0.3927  0.2213
10687TIP3    H253553   3.222   2.733  14.912  0.8745 -0.4284  0.2708
10688TIP3   OH253554   3.413   4.659   1.172 -0.4102 -0.2230 -0.2611
10688TIP3    H153555   3.403   4.723   1.101  2.7610  0.6578 -0.0439
10688TIP3    H253556   3.471   4.592   1.136 -1.4175 -1.5533  0.4805
10689TIP3   OH253557   3.488   5.539   2.002  0.1425 -0.2362  0.6825
10689TIP3    H153558   3.513   5.452   1.970 -0.3155 -0.2219  0.2833
10689TIP3    H253559   3.455   5.523   2.091  0.0224 -0.4788  0.5951
10690TIP3   OH253560   1.648   2.086  14.286 -0.0481  0.4366 -0.4937
10690TIP3    H153561   1.615   2.049  14.367 -1.1331 -1.3219 -1.6690
10690TIP3    H253562   1.721   2.142  14.312  0.5835 -1.2381  1.5449
10691TIP3   OH253563   1.064   2.756   3.122  0.3209 -0.6712 -0.1810
10691TIP3    H153564   1.074   2.667   3.157  1.9786  0.4128  2.4580
10691TIP3    H253565   1.123   2.809   3.176 -0.7926  2.0892 -1.4993
10692TIP3   OH253566   4.973   5.623  14.548 -0.1670 -0.2707  0.2564
10692TIP3    H153567   4.968   5.536  14.588  1.0575  1.0538  3.6269
10692TIP3    H253568   5.062   5.653  14.564 -0.4678  1.5548 -1.0665
10693TIP3   OH253569   2.599   5.220  11.081 -0.2320  0.3846 -0.3123
10693TIP3    H153570   2.631   5.178  11.161 -1.0257 -1.5131 -0.9294
10693TIP3    H253571   2.504   5.222  11.090 -0.3396  0.0487 -1.2311
10694TIP3   OH253572   4.063   1.785   2.975  0.0790  0.0515  0.1233
10694TIP3    H153573   4.155   1.779   2.948  0.2223 -0.4057  0.6839
10694TIP3    H253574   4.045   1.700   3.016 -0.5527  0.1943  0.1448
10695TIP3   OH253575   3.069   1.650   1.090 -0.6572 -0.6215  0.1401
10695TIP3    H153576   3.133   1.656   1.019 -0.4841  1.9953  0.4133
10695TIP3    H253577   3.031   1.738   1.095 -4.0909 -1.9672  0.2170
10696TIP3   OH253578   1.422   0.620  11.410  0.1469  0.2393  0.0749
10696TIP3    H153579   1.340   0.573  11.425 -0.0845 -0.0299 -1.7149
10696TIP3    H253580   1.456   0.582  11.329  2.2291  0.1285  0.9441
10697TIP3   OH253581   3.749   2.683   3.301 -0.5522  0.4934 -0.3879
10697TIP3    H153582   3.726   2.603   3.254 -0.2524  0.0136  0.2630
10697TIP3    H253583   3.682   2.690   3.370  0.4023 -0.1611  0.6504
10698TIP3   OH253584   1.314   4.069  15.510 -0.7577 -0.0136  0.3339
10698TIP3    H153585   1.332   3.976  15.520  0.5720 -0.0953 -2.1366
10698TIP3    H253586   1.371   4.112  15.574 -0.5389 -0.8094  0.6894
10699TIP3   OH253587   0.452   6.456  13.841 -0.3815 -0.8910 -0.1299
10699TIP3    H153588   0.539   6.432  13.810 -0.2123 -0.0905 -0.2832
10699TIP3    H253589   0.403   6.374  13.841  0.4201 -1.3722  0.1138
10700TIP3   OH253590   1.193   1.696   2.599 -0.5528 -0.1973 -0.4359
10700TIP3    H153591   1.126   1.633   2.574 -0.7525 -0.7378  1.3045
10700TIP3    H253592   1.143   1.772   2.630 -0.3199  0.4400 -1.5766
10701TIP3   OH253593   2.644   5.269  11.800  0.1067  0.2803  0.5524
10701TIP3    H153594   2.683   5.340  11.849 -0.1081 -0.3582  1.6810
10701TIP3    H253595   2.594   5.312  11.730  0.2712  1.2082  0.9975
10702TIP3   OH253596   0.201   6.284  14.972  0.8691 -0.1359 -0.3736
10702TIP3    H153597   0.202   6.326  15.058  0.9351 -2.7951  1.0328
10702TIP3    H253598   0.281   6.232  14.969  1.6184  1.0028 -2.7103
10703TIP3   OH253599   0.502   2.735  11.236  0.4207  0.0426 -0.1922
10703TIP3    H153600   0.416   2.747  11.195  0.4350  1.0721  0.0462
10703TIP3    H253601   0.550   2.680  11.175 -0.8588 -1.7376  0.3262
10704TIP3   OH253602   2.268   0.032  13.739 -0.0847  0.0175 -0.2152
10704TIP3    H153603   2.360   0.041  13.711  0.3945  0.1289  1.3309
10704TIP3    H253604   2.270   0.044  13.834 -2.1979  3.6378 -0.4737
10705TIP3   OH253605   6.396   1.424  10.437  0.1217 -0.2638  0.5943
10705TIP3    H153606   6.308   1.390  10.420 -0.5632  0.3612  2.5899
10705TIP3    H253607   6.382   1.517  10.456  1.5134  0.3683 -1.1803
10706TIP3   OH253608   2.898   5.030  16.062 -0.3493  0.4545  0.1114
10706TIP3    H153609   2.911   5.087  15.987 -0.9888  0.0822 -0.2866
10706TIP3    H253610   2.817   5.061  16.102 -1.8413 -1.4206 -1.2894
10707TIP3   OH253611   0.900   2.425  16.770 -0.1612  0.5738 -0.5297
10707TIP3    H153612   0.881   2.340  16.809 -1.4408  0.9798 -0.1958
10707TIP3    H253613   0.951   2.471  16.836  1.2959 -0.2248 -1.0659
10708TIP3   OH253614   2.746   6.582   0.047  0.1348 -0.2220  0.1589
10708TIP3    H153615   2.812   6.537  -0.005  0.4266  0.4034 -0.0191
10708TIP3    H253616   2.772   6.567   0.137  1.3703  1.2316  0.0840
10709TIP3   OH253617   1.955   1.363   0.378 -0.1305  0.0990  0.0644
10709TIP3    H153618   2.028   1.368   0.316 -2.0878  0.0401 -2.4174
10709TIP3    H253619   1.890   1.425   0.344 -2.2608 -1.6797  0.6524
10710TIP3   OH253620   5.179   1.494   6.275 -0.6117  0.6477  0.4127
10710TIP3    H153621   5.227   1.491   6.358 -0.1932  0.1676  0.1575
10710TIP3    H253622   5.111   1.428   6.285  1.4416 -1.8336 -0.8240
10711TIP3   OH253623   1.752   4.790   0.704 -0.4658 -0.2358 -0.1095
10711TIP3    H153624   1.657   4.782   0.710 -0.6383  0.0865 -1.8944
10711TIP3    H253625   1.768   4.883   0.693  0.0907 -0.2683  0.3620
10712TIP3   OH253626   0.287   5.274   3.418 -0.0029 -0.0041  0.0185
10712TIP3    H153627   0.195   5.248   3.428 -1.0847  2.8037 -1.3663
10712TIP3    H253628   0.306   5.324   3.498  0.3387 -0.5781  0.3012
10713TIP3   OH253629   1.556   2.213  15.189  0.0259  0.0415 -0.9701
10713TIP3    H153630   1.609   2.142  15.227 -0.1607  0.9565  1.1760
10713TIP3    H253631   1.619   2.269  15.145  0.3493 -0.7688 -1.5552
10714TIP3   OH253632   6.006   4.982  11.892  0.2058  0.2182 -0.5280
10714TIP3    H153633   5.929   5.015  11.846  1.5392  3.1585 -0.9505
10714TIP3    H253634   6.030   4.902  11.845 -1.1340  0.6277 -2.0142
10715TIP3   OH253635   4.288   6.309  15.555 -0.2456  0.3526 -0.3517
10715TIP3    H153636   4.318   6.235  15.501 -3.0549 -1.0722 -0.1419
10715TIP3    H253637   4.355   6.376  15.543  0.7267 -0.9698 -3.3090
10716TIP3   OH253638   6.022   0.981   4.075 -0.3881  0.2698 -0.3592
10716TIP3    H153639   6.066   1.057   4.038  0.0893  0.4545  0.5589
10716TIP3    H253640   6.062   0.906   4.029  0.6367  0.4581  0.1931
10717TIP3   OH253641   2.833   2.180  14.729  0.0890 -0.2314 -0.0192
10717TIP3    H153642   2.797   2.248  14.785  0.2495 -1.4770  1.6896
10717TIP3    H253643   2.787   2.190  14.646 -1.4876  0.5628  0.9008
10718TIP3   OH253644   0.313   5.935  11.174 -0.1063  0.6310  0.0063
10718TIP3    H153645   0.363   5.990  11.114  0.0611  1.3748  0.8021
10718TIP3    H253646   0.334   5.845  11.149 -1.5605  0.8780 -2.3240
10719TIP3   OH253647   6.534   1.817  13.028  0.3251 -0.2363 -0.4414
10719TIP3    H153648   6.470   1.774  13.086  0.4702  0.9810  0.6887
10719TIP3    H253649   6.482   1.848  12.954 -0.1752 -0.3604 -0.1494
10720TIP3   OH253650   0.272   6.095   0.560  0.1828  0.2008 -0.2901
10720TIP3    H153651   0.256   6.105   0.467  2.6200  0.7448 -0.7238
10720TIP3    H253652   0.330   6.168   0.583  1.0985 -0.9312  1.2231
10721TIP3   OH253653   3.045   5.089   3.042 -0.0451  0.3487 -0.0777
10721TIP3    H153654   3.136   5.072   3.066  0.0722  0.1044 -0.6881
10721TIP3    H253655   2.995   5.071   3.122  0.2748 -1.0560 -0.1730
10722TIP3   OH253656   5.084   5.171   2.698  0.1577 -0.3749 -0.4908
10722TIP3    H153657   5.135   5.245   2.731 -0.8243  0.3759 -0.5966
10722TIP3    H253658   4.999   5.209   2.674  0.1831 -1.2484 -2.0777
10723TIP3   OH253659   2.613   3.351  15.482 -0.6196  0.1460  0.5989
10723TIP3    H153660   2.614   3.440  15.447 -2.1067 -0.1035 -0.1807
10723TIP3    H253661   2.693   3.310  15.449 -0.0066  1.1321  0.8318
10724TIP3   OH253662   0.841   0.372  13.768 -0.2269 -0.3396 -0.1632
10724TIP3    H153663   0.914   0.321  13.804 -1.5804 -2.5949 -0.4401
10724TIP3    H253664   0.827   0.442  13.831 -1.4130 -3.1586  3.0222
10725TIP3   OH253665   2.590   6.311  13.347  0.2318 -0.0308  0.1052
10725TIP3    H153666   2.508   6.345  13.383 -0.1623 -0.2996 -0.5209
10725TIP3    H253667   2.569   6.221  13.322  0.5077  0.1318 -0.7415
10726TIP3   OH253668   6.691   6.360   4.562  0.0730  0.3982  0.9593
10726TIP3    H153669   6.597   6.374   4.560 -1.1470 -5.4691 -0.7372
10726TIP3    H253670   6.711   6.345   4.654 -1.0373 -0.0178  1.1484
10727TIP3   OH253671   6.230   1.925   0.728 -0.0363 -0.0151 -0.5910
10727TIP3    H153672   6.237   2.006   0.779 -1.4025  0.8319 -1.6423
10727TIP3    H253673   6.311   1.920   0.679  0.5500  0.0958  0.3504
10728TIP3   OH253674   4.275   1.264   3.521 -0.2475 -0.2848 -0.4776
10728TIP3    H153675   4.350   1.246   3.578 -0.4215  2.8350  0.9551
10728TIP3    H253676   4.199   1.238   3.573 -0.3126  0.6951 -0.0589
10729TIP3   OH253677   4.213   3.614  16.714 -0.2687 -0.0342 -1.3676
10729TIP3    H153678   4.164   3.539  16.746 -0.8398  0.5496 -0.8305
10729TIP3    H253679   4.173   3.689  16.758  0.5424  0.5451 -1.5903
10730TIP3   OH253680   6.369   1.460   1.746 -0.7874  0.4814 -0.5508
10730TIP3    H153681   6.308   1.461   1.672 -1.0949  0.3423 -0.3022
10730TIP3    H253682   6.312   1.454   1.823 -0.4846  0.9242 -0.2868
10731TIP3   OH253683   5.105   4.187   6.465 -0.1187 -0.2519 -0.2738
10731TIP3    H153684   5.025   4.150   6.502 -0.2867 -1.3757 -1.6649
10731TIP3    H253685   5.176   4.145   6.514 -0.3235  1.2461  1.4271
10732TIP3   OH253686   1.027   0.557  11.288 -0.1889  0.3901  0.2254
10732TIP3    H153687   1.031   0.482  11.228  0.9681  1.0491 -0.5540
10732TIP3    H253688   0.964   0.617  11.246 -2.1363 -0.6536  1.5071
10733TIP3   OH253689   5.883   5.585   0.257 -0.2230  0.4359  0.4226
10733TIP3    H153690   5.804   5.534   0.243  0.1637 -0.2638  0.7264
10733TIP3    H253691   5.867   5.668   0.212 -0.1774 -0.5836 -1.5860
10734TIP3   OH253692   6.247   3.553  13.709 -0.1428  0.1582 -0.1261
10734TIP3    H153693   6.177   3.616  13.725 -0.3160 -0.0812  0.0613
10734TIP3    H253694   6.234   3.525  13.618  0.6647  1.2959 -0.6207
10735TIP3   OH253695   2.051   4.614  10.914 -0.2627 -0.3100 -0.1225
10735TIP3    H153696   2.039   4.585  11.004  2.3082  0.9354  0.7257
10735TIP3    H253697   2.025   4.706  10.914 -2.3472 -0.8317 -1.2603
10736TIP3   OH253698   1.748   3.898  16.596 -0.1923 -0.2103  0.7574
10736TIP3    H153699   1.681   3.853  16.545 -2.3570  3.2787  0.1321
10736TIP3    H253700   1.779   3.833  16.658 -1.0252 -3.2371 -1.7207
10737TIP3   OH253701   5.182   5.259   4.245 -0.0506 -0.2596  0.1771
10737TIP3    H153702   5.167   5.178   4.196  0.6452 -1.1776  1.4168
10737TIP3    H253703   5.188   5.231   4.336  1.3816  1.0351  0.5195
10738TIP3   OH253704   6.751   0.599  16.129  0.3367 -0.1281  0.7378
10738TIP3    H153705   6.837   0.627  16.161  0.3068 -1.4701  2.1166
10738TIP3    H253706   6.730   0.522  16.182 -0.9583 -0.8524 -0.7511
10739TIP3   OH253707   4.981   2.712   3.287  0.1672  0.1483 -0.1603
10739TIP3    H153708   4.918   2.778   3.315  1.6201  1.2920  0.5787
10739TIP3    H253709   4.973   2.641   3.350 -1.3693 -0.3986 -0.9240
10740TIP3   OH253710   0.826   2.683   2.265  0.1496 -0.1181  0.0417
10740TIP3    H153711   0.826   2.629   2.186  0.2183 -0.1456  0.0609
10740TIP3    H253712   0.868   2.765   2.238  0.4315 -0.2344  0.1232
10741TIP3   OH253713   3.794   0.036  10.774  0.3390  0.4295 -0.0515
10741TIP3    H153714   3.847   0.113  10.752  0.4226  0.4749  0.3185
10741TIP3    H253715   3.717   0.072  10.817 -0.0379  0.3706 -0.6686
10742TIP3   OH253716   3.457   5.973  14.920 -0.0447 -0.4982  0.2834
10742TIP3    H153717   3.541   5.927  14.917  0.3095  0.1858 -1.2526
10742TIP3    H253718   3.430   5.980  14.828 -0.1502  2.1654  0.4145
10743TIP3   OH253719   6.143   3.499  12.373 -0.1053  0.4329  0.7733
10743TIP3    H153720   6.179   3.485  12.285  1.4148  0.4844  1.3618
10743TIP3    H253721   6.202   3.562  12.413 -1.3011  1.0984  1.5437
10744TIP3   OH253722   1.033   4.463   3.148 -0.3524 -0.2302 -0.4625
10744TIP3    H153723   0.966   4.408   3.106 -0.4347 -0.1416 -0.4472
10744TIP3    H253724   0.991   4.494   3.229 -0.9323  1.2485 -1.2929
10745TIP3   OH253725   1.065   3.667  13.014 -0.0783  0.3160 -0.4644
10745TIP3    H153726   0.976   3.702  13.013 -0.4047 -0.4659  0.4558
10745TIP3    H253727   1.074   3.623  13.098  1.4276  0.9847 -0.2339
10746TIP3   OH253728   0.202   4.703   6.066  0.0396 -0.5417  0.2706
10746TIP3    H153729   0.210   4.644   6.141 -0.5235 -1.2715 -0.2223
10746TIP3    H253730   0.166   4.783   6.102  0.2723 -0.6991  0.8669
10747TIP3   OH253731   0.222   2.273  11.927  0.5142  0.1395 -0.6415
10747TIP3    H153732   0.277   2.344  11.960  2.5838 -0.6610 -2.1231
10747TIP3    H253733   0.212   2.292  11.833  1.2564 -1.5441 -1.1107
10748TIP3   OH253734   6.375   1.125   3.389 -0.2730  0.2082  0.0304
10748TIP3    H153735   6.408   1.070   3.319 -1.0390 -0.2097 -0.0144
10748TIP3    H253736   6.313   1.184   3.345 -2.1523 -1.2570  0.5934
10749TIP3   OH253737   4.531   4.296  11.235 -0.1526 -0.0264  0.3725
10749TIP3    H153738   4.624   4.317  11.249 -0.1427  0.3188 -0.1979
10749TIP3    H253739   4.487   4.327  11.314 -0.0291  1.4450 -0.1028
10750TIP3   OH253740   2.508   6.197  10.435 -0.3837  0.3612 -0.4450
10750TIP3    H153741   2.465   6.225  10.355 -1.9679 -2.3365 -0.6490
10750TIP3    H253742   2.442   6.208  10.503 -0.9769 -2.3686 -0.4879
10751TIP3   OH253743   5.293   1.354   2.318 -0.0218  0.1660  0.1780
10751TIP3    H153744   5.308   1.396   2.233  1.1409  1.0044  0.7652
10751TIP3    H253745   5.379   1.351   2.358 -0.7319  0.8587  1.8166
10752TIP3   OH253746   1.010   5.807  15.774  0.8872 -0.5082  0.2947
10752TIP3    H153747   0.998   5.882  15.716 -1.6329 -0.0666  1.2568
10752TIP3    H253748   0.964   5.736  15.730  0.7486 -0.7110  0.7683
10753TIP3   OH253749   6.033   1.725  13.288 -0.1184  0.1341  0.1589
10753TIP3    H153750   6.016   1.716  13.381 -1.7537 -0.8022 -0.1845
10753TIP3    H253751   6.099   1.658  13.269 -0.8363 -0.6718  0.4198
10754TIP3   OH253752   6.453   2.805  16.681 -0.2277 -0.3125  0.5922
10754TIP3    H153753   6.438   2.822  16.588 -0.2349  0.4327  0.7228
10754TIP3    H253754   6.430   2.713  16.693  2.9211 -1.4172 -0.8163
10755TIP3   OH253755   0.002   2.613   3.719 -0.5016 -0.3534  0.1722
10755TIP3    H153756   0.035   2.529   3.752 -0.5185  0.2220  1.7020
10755TIP3    H253757  -0.087   2.593   3.689 -0.3389 -0.9716  0.0792
10756TIP3   OH253758   6.506   1.129   6.366 -0.1784 -0.1377  0.7032
10756TIP3    H153759   6.595   1.133   6.401  0.7240 -1.6045 -1.2733
10756TIP3    H253760   6.477   1.221   6.365  2.3937  0.7795 -1.1465
10757TIP3   OH253761   5.099   6.642  16.301 -0.2220 -0.0376 -0.1525
10757TIP3    H153762   5.190   6.651  16.273 -0.5932  0.3345 -1.3160
10757TIP3    H253763   5.092   6.699  16.378  0.5293 -0.0783 -0.0479
10758TIP3   OH253764   5.485   6.066  11.573  0.2301 -0.3914  0.1025
10758TIP3    H153765   5.471   6.157  11.598  1.8968 -0.0695 -0.0301
10758TIP3    H253766   5.463   6.062  11.480  0.5652 -0.0213  0.0069
10759TIP3   OH253767   4.978   1.701   2.730 -0.3291  0.3421  0.2269
10759TIP3    H153768   5.059   1.676   2.685 -0.1746  1.5690 -0.2188
10759TIP3    H253769   4.939   1.618   2.757  1.6407 -0.2447  1.4738
10760TIP3   OH253770   3.281   3.803  15.656 -0.4405 -0.2825  0.2597
10760TIP3    H153771   3.284   3.892  15.690 -2.2847 -0.1375  0.1313
10760TIP3    H253772   3.341   3.805  15.581 -0.1359  0.7224  0.5078
10761TIP3   OH253773   0.904   3.155   0.840  0.1748  0.1070 -0.0820
10761TIP3    H153774   0.809   3.162   0.851  0.4361  0.8997  1.9893
10761TIP3    H253775   0.921   3.061   0.834 -0.5208 -0.2179  2.2204
10762TIP3   OH253776   1.838   5.798   2.119 -0.6540  0.5480  0.3000
10762TIP3    H153777   1.743   5.808   2.125 -0.7598 -0.2476  0.0372
10762TIP3    H253778   1.858   5.817   2.027 -0.5842  0.4952  0.3049
10763TIP3   OH253779   4.605   6.757  12.754  0.1496  0.1634 -0.2822
10763TIP3    H153780   4.643   6.757  12.666 -0.5861  1.5090 -0.6185
10763TIP3    H253781   4.514   6.730  12.741 -0.0290  0.6083  0.0383
10764TIP3   OH253782   4.299   3.337   6.055 -0.3229 -0.1978 -0.1956
10764TIP3    H153783   4.282   3.266   6.116  1.2947 -0.2570  0.2189
10764TIP3    H253784   4.393   3.354   6.062 -0.0784 -0.2035 -2.6666
10765TIP3   OH253785   3.630   2.029   1.683  0.0738 -0.3927 -0.4783
10765TIP3    H153786   3.598   1.947   1.721  0.4760 -1.1290 -1.6723
10765TIP3    H253787   3.601   2.027   1.592  1.4214  0.0365 -0.9532
10766TIP3   OH253788   2.030   0.772   2.785 -0.1180 -0.4219 -0.3628
10766TIP3    H153789   1.961   0.820   2.738  0.4475 -0.8409 -1.6710
10766TIP3    H253790   1.983   0.725   2.854 -1.1257 -0.5568 -1.1075
10767TIP3   OH253791   2.266   6.368  16.237 -0.5585  0.3442  0.3854
10767TIP3    H153792   2.199   6.436  16.230 -0.7840  0.0673 -0.1802
10767TIP3    H253793   2.246   6.307  16.167  2.0311  1.8173 -1.8438
10768TIP3   OH253794   1.315   1.275   4.939 -0.7936  0.4437  0.1199
10768TIP3    H153795   1.328   1.182   4.924 -0.9148 -0.0040  2.4041
10768TIP3    H253796   1.221   1.288   4.925 -0.9037  0.0571  0.4672
10769TIP3   OH253797   5.579   3.264  11.955 -0.0766  0.2969 -0.2833
10769TIP3    H153798   5.491   3.230  11.935 -0.4313  1.3754 -0.6125
10769TIP3    H253799   5.633   3.186  11.966 -1.0610 -0.3831 -0.1518
10770TIP3   OH253800   4.269   5.261  17.067 -0.0923  0.5200  0.7428
10770TIP3    H153801   4.230   5.331  17.015  1.2542  0.7645  0.0199
10770TIP3    H253802   4.204   5.190  17.064 -0.0242  0.4957 -1.3635
10771TIP3   OH253803   6.557   5.159  14.124 -0.3586 -0.1398 -0.0543
10771TIP3    H153804   6.645   5.125  14.107  0.2780  0.2053  2.2332
10771TIP3    H253805   6.572   5.241  14.172 -1.9065 -0.6300  1.3545
10772TIP3   OH253806   3.884   6.564   3.921 -1.0923 -0.4328  0.2103
10772TIP3    H153807   3.825   6.630   3.885 -1.2517 -1.8081 -2.2908
10772TIP3    H253808   3.832   6.519   3.988 -1.6947  0.5643  0.4315
10773TIP3   OH253809   5.512   3.364   4.604 -0.3932 -0.1010  0.2282
10773TIP3    H153810   5.468   3.295   4.554 -0.8391  0.6283 -0.3957
10773TIP3    H253811   5.584   3.392   4.547  0.0108 -0.2894  0.6370
10774TIP3   OH253812   0.225   6.515  16.622  0.2003  0.3457 -0.3326
10774TIP3    H153813   0.283   6.440  16.609 -1.3193 -1.0099  0.3362
10774TIP3    H253814   0.254   6.554  16.704 -0.4588 -0.9591  0.5461
10775TIP3   OH253815   2.034   4.604   5.020  0.0995  0.4507  0.2211
10775TIP3    H153816   2.015   4.612   5.114  1.5780 -0.6653  0.6512
10775TIP3    H253817   2.128   4.620   5.014  0.1177 -0.0503 -1.0061
10776TIP3   OH253818   5.912   5.924   2.798 -0.0852  0.5867 -0.7657
10776TIP3    H153819   5.986   5.980   2.823 -0.7003  1.6412 -1.2365
10776TIP3    H253820   5.929   5.902   2.707 -1.2086  2.3028 -1.4367
10777TIP3   OH253821   3.662   5.891  16.907 -0.0052  0.0874 -0.2454
10777TIP3    H153822   3.755   5.911  16.907 -0.0035  0.2142  1.5345
10777TIP3    H253823   3.619   5.976  16.906 -0.1056  0.0333 -0.7642
10778TIP3   OH253824   3.688   4.425   0.566  0.1519  0.3696 -0.1292
10778TIP3    H153825   3.757   4.399   0.505  0.5570  0.7289  0.1680
10778TIP3    H253826   3.735   4.450   0.645 -0.4460 -1.2715  0.7756
10779TIP3   OH253827   3.208   1.146  14.303  0.1249  0.1472  0.4934
10779TIP3    H153828   3.135   1.128  14.362 -0.0078 -1.1619 -0.0366
10779TIP3    H253829   3.260   1.214  14.348 -1.0089  0.5707  1.1998
10780TIP3   OH253830   2.105   2.590  12.086  0.2474  0.0735  0.1791
10780TIP3    H153831   2.153   2.670  12.064 -0.1737  0.6172  1.1746
10780TIP3    H253832   2.138   2.564  12.171  0.2990 -0.7621 -0.0866
10781TIP3   OH253833   5.686   0.190   6.105 -0.0235 -0.2575 -0.5973
10781TIP3    H153834   5.599   0.194   6.067 -0.6128  2.5714  0.7739
10781TIP3    H253835   5.746   0.209   6.033 -0.6349 -0.8216 -1.2614
10782TIP3   OH253836   0.899   6.044  15.650  0.2352  0.4103  0.4212
10782TIP3    H153837   0.839   6.000  15.710  0.5312  1.6524  1.6977
10782TIP3    H253838   0.889   6.137  15.670 -1.8069  1.2525 -3.4914
10783TIP3   OH253839   1.918   5.621   5.838  0.0364 -0.1243 -0.1518
10783TIP3    H153840   1.968   5.541   5.819 -0.6013 -0.8752  1.1182
10783TIP3    H253841   1.972   5.692   5.804  0.5995 -1.0997 -1.3707
10784TIP3   OH253842   0.615   2.727  10.984 -0.1300 -0.1602 -0.0624
10784TIP3    H153843   0.638   2.750  10.894  1.7319 -0.5170  0.2921
10784TIP3    H253844   0.574   2.640  10.976 -1.4690  0.4969 -0.7096
10785TIP3   OH253845   1.004   3.923   2.628  0.2934  0.1163 -0.6862
10785TIP3    H153846   0.914   3.954   2.631 -0.1120 -1.0720  0.2473
10785TIP3    H253847   1.026   3.904   2.719  1.1815 -0.4311 -1.0030
10786TIP3   OH253848   5.281   0.969   1.516  0.0529  0.4137 -0.1150
10786TIP3    H153849   5.322   0.889   1.483  0.4899  0.1997  0.9166
10786TIP3    H253850   5.203   0.939   1.562  0.9754  0.4097  1.5252
10787TIP3   OH253851   4.168   0.724   1.242  0.2562  0.1175  0.0526
10787TIP3    H153852   4.143   0.632   1.241  0.4689  0.0616 -0.1692
10787TIP3    H253853   4.213   0.738   1.159  1.7192  0.0028  0.7785
10788TIP3   OH253854   6.535   3.147   0.511  0.1011 -0.3792 -0.3142
10788TIP3    H153855   6.577   3.158   0.596  0.6302  0.0963 -0.6273
10788TIP3    H253856   6.486   3.065   0.518 -0.4006 -0.0061  0.6616
10789TIP3   OH253857   6.539   3.102   1.946  0.0885 -0.3263  0.6785
10789TIP3    H153858   6.467   3.050   1.982 -0.1925 -0.1672  0.3471
10789TIP3    H253859   6.596   3.118   2.022 -0.6421  0.2435  1.1202
10790TIP3   OH253860   1.106   5.857   2.663  0.5413  0.3032  0.0206
10790TIP3    H153861   1.163   5.867   2.587 -1.3047  0.1976 -1.4596
10790TIP3    H253862   1.050   5.935   2.661  0.4419  0.2836  1.2666
10791TIP3   OH253863   2.402   1.872   2.624 -0.1856  0.2238 -0.3682
10791TIP3    H153864   2.367   1.835   2.705 -0.6650  1.7841  0.1763
10791TIP3    H253865   2.359   1.822   2.555  0.9989 -1.8228  0.2941
10792TIP3   OH253866   6.224   5.530   2.251  0.1610  0.1790  0.1265
10792TIP3    H153867   6.274   5.607   2.276 -0.2366  0.9758 -1.3915
10792TIP3    H253868   6.205   5.485   2.333  1.1757  1.2093  0.9514
10793TIP3   OH253869   5.957   0.270  16.043  0.3215  0.4649  0.2424
10793TIP3    H153870   5.990   0.180  16.051  1.1287  0.5990 -1.2380
10793TIP3    H253871   5.990   0.314  16.121  1.5082 -0.0766  0.0716
10794TIP3   OH253872   6.334   4.920   1.360  0.3883  0.2716 -0.1012
10794TIP3    H153873   6.321   4.999   1.411 -3.0160  0.9364 -1.7077
10794TIP3    H253874   6.374   4.949   1.279  0.0471  0.2183 -0.2927
10795TIP3   OH253875   2.956   3.975  10.538 -0.4267 -0.0053  0.2804
10795TIP3    H153876   3.048   3.951  10.530 -0.5296 -0.0082 -1.3847
10795TIP3    H253877   2.957   4.064  10.573  0.1896 -0.2068  0.7823
10796TIP3   OH253878   1.366   3.092  13.319  0.5100 -0.5182 -0.0940
10796TIP3    H153879   1.409   3.177  13.321  0.9887 -0.7390 -0.7508
10796TIP3    H253880   1.324   3.088  13.233 -1.4326 -0.0287  0.7701
10797TIP3   OH253881   0.950   1.839  14.919 -0.1427 -0.3917  0.0540
10797TIP3    H153882   0.992   1.833  14.833 -1.8341  1.2830 -0.9719
10797TIP3    H253883   0.991   1.770  14.971  2.1554 -0.3571 -1.5615
10798TIP3   OH253884   5.798   3.548   5.072  0.2204  0.0235  0.5056
10798TIP3    H153885   5.754   3.466   5.051 -0.4668  0.9467 -1.9765
10798TIP3    H253886   5.878   3.547   5.020 -0.4185  1.4192 -0.6036
10799TIP3   OH253887   2.765   6.763  16.263  0.0458  0.1045 -0.0310
10799TIP3    H153888   2.727   6.767  16.351  1.3905  1.8358  0.5343
10799TIP3    H253889   2.714   6.824  16.211 -1.4008 -1.6678 -0.7834
10800TIP3   OH253890   1.997   0.918  12.140  0.3853  0.2043 -0.1872
10800TIP3    H153891   1.986   0.973  12.217  1.3411 -0.0192  0.1228
10800TIP3    H253892   1.976   0.830  12.169  1.2186  0.0452 -0.0468
10801TIP3   OH253893   5.542   4.932  13.404 -0.2885 -0.1061 -0.2783
10801TIP3    H153894   5.468   4.993  13.397  0.4843  0.9825  0.6973
10801TIP3    H253895   5.579   4.930  13.315 -0.2571  0.9695 -0.3091
10802TIP3   OH253896   4.164   1.779  14.798 -0.0679 -0.2592 -0.0026
10802TIP3    H153897   4.188   1.872  14.794 -0.2056 -0.2524 -0.8253
10802TIP3    H253898   4.071   1.778  14.776 -0.2026 -0.5433  0.5594
10803TIP3   OH253899   3.673   4.010  16.978  0.3718  0.1914  0.1037
10803TIP3    H153900   3.710   4.077  17.036  1.3161 -0.5102  0.3314
10803TIP3    H253901   3.745   3.986  16.920  0.4369 -1.5091  0.8336
10804TIP3   OH253902   4.304   4.298   3.786 -0.1318 -0.0722  0.0860
10804TIP3    H153903   4.291   4.360   3.714  0.9656 -0.4323 -0.4466
10804TIP3    H253904   4.377   4.336   3.836 -0.7558  0.0753  0.9151
10805TIP3   OH253905   6.819   0.519  12.157 -0.4228  0.2090 -0.6470
10805TIP3    H153906   6.889   0.498  12.095  0.0781 -1.1649  0.3373
10805TIP3    H253907   6.862   0.565  12.228 -0.6932  0.2192 -0.4874
10806TIP3   OH253908   5.800   0.158   0.876  0.0288 -0.1080  0.5148
10806TIP3    H153909   5.709   0.189   0.876  0.1723  0.3475 -0.5610
10806TIP3    H253910   5.837   0.194   0.957 -0.5367  0.3620  0.5727
10807TIP3   OH253911   2.153   5.810   4.384  0.4190 -0.0786  0.3666
10807TIP3    H153912   2.159   5.892   4.335  0.5831  0.2575  0.9260
10807TIP3    H253913   2.223   5.756   4.349 -1.5189 -1.1765 -2.0943
10808TIP3   OH253914   5.639   6.558   4.686  0.2162  0.0387  0.2199
10808TIP3    H153915   5.623   6.620   4.615  0.4189  0.2740  0.3773
10808TIP3    H253916   5.687   6.486   4.645  1.7990  0.9147  0.4176
10809TIP3   OH253917   3.391   0.904   0.314 -0.3402  0.2312 -0.3997
10809TIP3    H153918   3.336   0.889   0.237 -0.7785 -0.4347  0.0392
10809TIP3    H253919   3.469   0.851   0.298  0.5521  1.7688 -1.3821
10810TIP3   OH253920   0.035   0.535  11.176 -0.1904  0.3889  0.3686
10810TIP3    H153921  -0.026   0.477  11.130  1.0530 -0.4670 -0.2448
10810TIP3    H253922  -0.001   0.623  11.162 -0.7264 -0.0020 -0.8578
10811TIP3   OH253923   5.160   5.824  12.800 -0.1699  0.3786  0.2410
10811TIP3    H153924   5.203   5.908  12.815 -1.0399  0.6100  1.6079
10811TIP3    H253925   5.222   5.773  12.748 -0.0876  2.2727 -1.6608
10812TIP3   OH253926   3.253   6.400  13.392 -0.2201  0.1745 -0.1271
10812TIP3    H153927   3.339   6.380  13.428 -0.2606 -0.8123 -0.5471
10812TIP3    H253928   3.191   6.373  13.459 -0.2415 -0.1674 -0.2851
10813TIP3   OH253929   5.984   3.597   5.839 -0.5794  0.0463  0.2477
10813TIP3    H153930   6.014   3.607   5.929  0.3705  1.0345 -0.1709
10813TIP3    H253931   6.029   3.518   5.807  1.7335  1.5295 -0.3891
10814TIP3   OH253932   4.893   2.578  12.273  0.3658 -0.2362  0.0002
10814TIP3    H153933   4.986   2.572  12.249  0.4902 -0.4316  0.5007
10814TIP3    H253934   4.888   2.655  12.330  0.5242 -1.0925  1.2308
10815TIP3   OH253935   4.228   0.855  13.557  0.1229 -0.0795 -0.2368
10815TIP3    H153936   4.173   0.886  13.484 -0.0311 -1.9667 -0.9977
10815TIP3    H253937   4.180   0.880  13.636 -1.9510 -1.7172 -0.8819
10816TIP3   OH253938   6.750   2.833   1.492  0.2170 -0.2248 -0.6494
10816TIP3    H153939   6.840   2.821   1.462  0.0406  0.6014 -1.5285
10816TIP3    H253940   6.736   2.927   1.490 -1.0727 -0.4167 -1.7068
10817TIP3   OH253941   3.408   1.694   5.967 -0.5646 -0.1446 -0.1141
10817TIP3    H153942   3.464   1.619   5.985 -0.2250  0.5578  2.1468
10817TIP3    H253943   3.371   1.717   6.053 -0.7929  2.1386 -0.7521
10818TIP3   OH253944   4.440   3.093  16.978  0.1208 -0.0086 -0.1693
10818TIP3    H153945   4.442   3.107  17.073 -3.0290  0.0878 -0.0246
10818TIP3    H253946   4.429   3.180  16.941  0.7172 -0.1083 -0.5925
10819TIP3   OH253947   4.534   2.969   1.296  0.2505  0.0640 -0.6524
10819TIP3    H153948   4.440   2.988   1.293  0.3980  0.8023 -0.6662
10819TIP3    H253949   4.576   3.051   1.273  0.9138 -0.0818 -0.0054
10820TIP3   OH253950   2.599   0.840   0.068  0.1384  0.5296 -0.2406
10820TIP3    H153951   2.554   0.903   0.125 -1.8936  0.6287 -1.8303
10820TIP3    H253952   2.659   0.893   0.016 -0.8778  1.0517 -0.9138
10821TIP3   OH253953   2.892   6.808  15.588  0.2262  0.5081  0.3141
10821TIP3    H153954   2.983   6.779  15.594 -0.0344 -0.3981  0.0307
10821TIP3    H253955   2.858   6.763  15.511 -1.1314 -1.0994  1.7481
10822TIP3   OH253956   3.291   2.547  13.541  0.0960  0.5169 -0.4289
10822TIP3    H153957   3.266   2.595  13.462 -0.4026  1.1570  0.1025
10822TIP3    H253958   3.337   2.611  13.594 -0.1572  0.2776  0.0844
10823TIP3   OH253959   0.616   3.043   0.437 -0.2319  0.0464  0.3160
10823TIP3    H153960   0.576   3.056   0.523 -1.4136 -1.7090  0.0977
10823TIP3    H253961   0.613   3.129   0.395 -2.5971  0.2988  0.8511
10824TIP3   OH253962   4.795   1.715   2.289 -0.2744  0.2787 -0.3499
10824TIP3    H153963   4.795   1.737   2.196 -1.1275  1.2204 -0.1514
10824TIP3    H253964   4.779   1.799   2.333  0.7878 -0.0436  0.6831
10825TIP3   OH253965   3.710   6.687   3.771 -0.5580 -0.2919 -1.1447
10825TIP3    H153966   3.624   6.729   3.769 -0.7668 -0.7262 -1.6586
10825TIP3    H253967   3.762   6.736   3.709  0.2994  1.4450  0.8202
10826TIP3   OH253968   2.007   0.399  11.178 -0.0749 -0.3062 -0.5049
10826TIP3    H153969   1.976   0.479  11.220 -3.0988 -0.7331 -1.6293
10826TIP3    H253970   1.999   0.332  11.246  1.2073  0.0810  0.0518
10827TIP3   OH253971   0.883   1.901   2.245 -0.2853 -0.0192 -0.4256
10827TIP3    H153972   0.823   1.903   2.171 -0.4842  0.4655 -0.2566
10827TIP3    H253973   0.935   1.981   2.235  0.8049 -0.7643 -0.9537
10828TIP3   OH253974   6.278   4.767   0.586  0.3970 -0.6093 -0.4588
10828TIP3    H153975   6.206   4.829   0.604 -1.3348 -2.9643  1.4594
10828TIP3    H253976   6.236   4.697   0.536  1.3536 -1.9940  0.6268
10829TIP3   OH253977   3.231   1.684   5.335 -0.2234 -0.3622 -0.6755
10829TIP3    H153978   3.269   1.598   5.318  2.2586  0.0879  1.7590
10829TIP3    H253979   3.177   1.671   5.412 -1.0134  0.0035 -1.1603
10830TIP3   OH253980   1.322   2.803  12.042 -0.2548  0.6647  0.1664
10830TIP3    H153981   1.252   2.823  12.104 -0.1942  1.8727 -0.1232
10830TIP3    H253982   1.284   2.821  11.956 -0.5613 -1.6519 -0.2423
10831TIP3   OH253983   4.799   6.317  11.282  0.0775 -0.1824 -0.0818
10831TIP3    H153984   4.753   6.382  11.335  0.8803  0.6167 -0.3512
10831TIP3    H253985   4.854   6.368  11.223  0.1034 -1.0891 -0.8686
10832TIP3   OH253986   2.207   3.758   5.646  0.4750  0.1596 -0.1003
10832TIP3    H153987   2.112   3.765   5.636  0.0905  0.7140  2.9538
10832TIP3    H253988   2.222   3.668   5.675  0.9920 -0.1116 -1.1498
10833TIP3   OH253989   3.612   6.534  13.108 -0.4690  0.0232  0.3285
10833TIP3    H153990   3.587   6.624  13.128 -0.4718  0.2459 -0.5975
10833TIP3    H253991   3.536   6.481  13.133 -1.1383  0.4790 -0.6533
10834TIP3   OH253992   0.592   5.959   0.593 -0.1436 -0.2212  0.0637
10834TIP3    H153993   0.547   5.978   0.511 -0.0090 -0.3582 -0.0440
10834TIP3    H253994   0.678   6.000   0.584  0.6673 -1.9808 -0.7295
10835TIP3   OH253995   5.852   2.040   1.786  0.2354  0.0285 -0.1080
10835TIP3    H153996   5.855   2.122   1.835  0.1719  0.3074 -0.5568
10835TIP3    H253997   5.944   2.019   1.768  0.2637 -0.1370  0.2306
10836TIP3   OH253998   5.669   2.159  13.055 -0.5863 -0.1799  0.1306
10836TIP3    H153999   5.662   2.228  13.121 -2.2158 -0.4955  0.3450
10836TIP3    H254000   5.761   2.135  13.054 -0.3061  0.7633  1.3315
10837TIP3   OH254001   0.730   0.866   1.499 -0.1102 -0.0076 -0.2962
10837TIP3    H154002   0.716   0.788   1.554 -1.4975 -0.1187 -0.7639
10837TIP3    H254003   0.786   0.922   1.552 -1.7962  0.1086  1.5105
10838TIP3   OH254004   6.233   3.889   0.116  0.4049 -0.1391  0.4843
10838TIP3    H154005   6.275   3.843   0.189  1.8240 -1.8642 -1.3174
10838TIP3    H254006   6.208   3.820   0.055  0.2169  1.3062 -1.1484
10839TIP3   OH254007   6.734   6.120   2.580  0.1685  0.1812 -0.0542
10839TIP3    H154008   6.680   6.198   2.563 -0.6770 -0.7607 -2.0036
10839TIP3    H254009   6.695   6.080   2.657  0.6159  1.6427  0.9847
10840TIP3   OH254010   4.547   5.050   5.121 -0.2426  0.0081 -0.4764
10840TIP3    H154011   4.622   5.016   5.072 -0.2483  1.0773 -1.2434
10840TIP3    H254012   4.574   5.046   5.212  1.0225  1.0074 -0.7886
10841TIP3   OH254013   6.182   0.689  14.458  0.2002 -0.0912  0.6142
10841TIP3    H154014   6.142   0.773  14.478  0.2504  0.2674 -0.7129
10841TIP3    H254015   6.276   0.703  14.473  0.4045  0.5888 -1.1245
10842TIP3   OH254016   2.941   4.140  14.613  0.2570  0.6345 -0.0387
10842TIP3    H154017   2.893   4.097  14.543 -1.5774 -0.3613  1.7184
10842TIP3    H254018   2.937   4.233  14.593 -2.2423  0.5590 -0.1061
10843TIP3   OH254019   2.514   3.443   2.209 -0.1609  0.4689 -0.5612
10843TIP3    H154020   2.474   3.371   2.258  0.7009 -0.8520 -1.7253
10843TIP3    H254021   2.447   3.468   2.145 -0.2868  0.4106 -0.4535
10844TIP3   OH254022   4.898   0.984   3.499  0.0238  0.3228 -0.5350
10844TIP3    H154023   4.916   1.072   3.468  0.5850  0.5004  0.2542
10844TIP3    H254024   4.982   0.939   3.496 -0.2131 -0.1157 -0.7193
10845TIP3   OH254025   4.726   0.557   2.258  0.0297  0.0884  0.1262
10845TIP3    H154026   4.797   0.509   2.300 -0.6705  0.3716  1.7167
10845TIP3    H254027   4.717   0.637   2.309  0.3879  1.4019 -1.7723
10846TIP3   OH254028   5.813   1.309  12.582  0.0607  0.2596 -0.1267
10846TIP3    H154029   5.733   1.333  12.535 -0.7013 -1.3089  0.2849
10846TIP3    H254030   5.842   1.228  12.541  1.6829  1.0193 -0.5177
10847TIP3   OH254031   4.350   3.115  12.792 -0.2420 -0.4391 -0.5611
10847TIP3    H154032   4.263   3.091  12.822  0.3754 -0.3576  1.4267
10847TIP3    H254033   4.381   3.178  12.857  1.7103 -1.2658 -0.6366
10848TIP3   OH254034   1.277   0.492   0.575  0.3689 -0.6377 -0.1128
10848TIP3    H154035   1.301   0.400   0.591  0.9670 -0.6808 -1.1730
10848TIP3    H254036   1.226   0.489   0.494  0.5154 -0.0176 -0.2283
10849TIP3   OH254037   3.687   6.382   2.644  0.6133  0.4755  0.3084
10849TIP3    H154038   3.707   6.389   2.737  2.1513  0.0019  0.0424
10849TIP3    H254039   3.728   6.460   2.605  2.0023 -0.5038 -0.2560
10850TIP3   OH254040   0.018   3.360   2.048  0.4467  0.1104  0.0486
10850TIP3    H154041  -0.021   3.350   1.961 -0.4884  0.1737  0.4461
10850TIP3    H254042  -0.034   3.429   2.090  3.5155  3.2892 -0.8285
10851TIP3   OH254043   4.722   5.295   0.892  0.1142 -0.3962 -0.7577
10851TIP3    H154044   4.669   5.341   0.827  1.2790  1.4552 -0.4770
10851TIP3    H254045   4.812   5.302   0.858  0.8285  1.0679  1.2237
10852TIP3   OH254046   2.357   5.294  13.167  0.1629 -0.2974  0.6378
10852TIP3    H154047   2.383   5.386  13.174 -1.3364  0.1816  0.4311
10852TIP3    H254048   2.421   5.255  13.107  0.1774  0.8892 -0.1490
10853TIP3   OH254049   6.753   4.670   6.226  0.0390 -0.3899  0.6123
10853TIP3    H154050   6.801   4.600   6.269  1.0005 -0.5446 -0.6665
10853TIP3    H254051   6.812   4.745   6.228 -0.5382  0.0663  0.9667
10854TIP3   OH254052   0.663   6.750   3.703 -0.0365  0.4006 -0.1588
10854TIP3    H154053   0.750   6.716   3.723  1.1250  1.1222 -3.4506
10854TIP3    H254054   0.603   6.689   3.747  2.0741 -1.5064  0.2482
10855TIP3   OH254055   4.316   2.199   2.993  0.3402 -0.1904  0.0011
10855TIP3    H154056   4.339   2.251   3.070 -0.4859  1.4915 -0.8445
10855TIP3    H254057   4.358   2.243   2.920 -0.0847 -0.9300 -0.7100
10856TIP3   OH254058   1.286   0.810  12.747 -0.2445 -0.1593 -0.2115
10856TIP3    H154059   1.259   0.738  12.805 -0.6972 -0.5837 -0.9273
10856TIP3    H254060   1.381   0.806  12.748 -0.2624 -0.9498 -0.4404
10857TIP3   OH254061   6.664   1.714  16.700 -0.0100 -0.3271  0.1651
10857TIP3    H154062   6.599   1.782  16.718  0.7918  0.6516 -0.5261
10857TIP3    H254063   6.748   1.758  16.711  0.5201 -1.0115 -0.9904
10858TIP3   OH254064   3.658   3.727  13.773 -0.0066 -0.0518  0.5701
10858TIP3    H154065   3.589   3.751  13.835  0.5755  0.3337  1.0817
10858TIP3    H254066   3.629   3.763  13.689  0.3841  1.6759  1.1294
10859TIP3   OH254067   2.181   4.354  16.756 -0.0143 -0.6411 -0.2345
10859TIP3    H154068   2.161   4.326  16.845  2.4094 -1.6812  0.0751
10859TIP3    H254069   2.211   4.274  16.712  1.3652  0.3290 -1.1471
10860TIP3   OH254070   4.198   1.494   1.377 -0.6341 -0.6268 -0.0395
10860TIP3    H154071   4.188   1.419   1.435  0.3545 -1.3432 -0.7519
10860TIP3    H254072   4.192   1.457   1.289 -1.1232  0.2841 -0.3988
10861TIP3   OH254073   6.126   4.902   3.048  0.6230  0.2596 -0.6538
10861TIP3    H154074   6.209   4.859   3.026 -0.2731 -0.8126 -2.1622
10861TIP3    H254075   6.118   4.891   3.143  2.5418  1.0819 -0.3315
10862TIP3   OH254076   6.327   0.537  16.248  0.2968 -0.4604 -0.2421
10862TIP3    H154077   6.408   0.587  16.232  0.4026 -0.6887 -0.4395
10862TIP3    H254078   6.319   0.534  16.343 -0.3648  0.9683 -0.2245
10863TIP3   OH254079   5.649   2.890   2.802 -0.9621  0.0445 -0.6784
10863TIP3    H154080   5.617   2.963   2.749  0.5235  1.6957  0.5936
10863TIP3    H254081   5.737   2.873   2.768 -0.2874  0.6313  0.6945
10864TIP3   OH254082   2.340   3.468  16.131  0.4439  0.3242 -0.1511
10864TIP3    H154083   2.367   3.458  16.222 -1.4701 -0.6026  0.3786
10864TIP3    H254084   2.414   3.512  16.089  1.5316  0.4563  1.7477
10865TIP3   OH254085   5.488   4.731   4.806  0.7753  0.0887  0.2799
10865TIP3    H154086   5.497   4.777   4.722  0.2052  1.0620  0.7357
10865TIP3    H254087   5.551   4.774   4.864  0.6035 -0.0514  0.5738
10866TIP3   OH254088   0.589   3.390   3.582 -0.5781  0.6668  0.0649
10866TIP3    H154089   0.538   3.443   3.521 -2.0438 -0.1723  0.5114
10866TIP3    H254090   0.552   3.411   3.668 -0.1893  0.0178  0.3973
10867TIP3   OH254091   0.639   4.553  13.877  0.0330 -0.0617  0.0817
10867TIP3    H154092   0.544   4.550  13.888  0.1828 -0.7345  1.4534
10867TIP3    H254093   0.665   4.461  13.867  0.4569  0.1853 -1.2191
10868TIP3   OH254094   4.742   4.178   5.765 -0.0675  0.2035 -0.1031
10868TIP3    H154095   4.752   4.186   5.860  0.4853  0.0172 -0.1445
10868TIP3    H254096   4.798   4.104   5.741 -3.2347 -2.4738 -0.0531
10869TIP3   OH254097   5.888   2.742   3.831 -0.0257  0.4396 -0.1379
10869TIP3    H154098   5.887   2.708   3.742  0.7942  1.4560 -0.5505
10869TIP3    H254099   5.797   2.763   3.850 -0.4827 -1.4431 -0.0566
10870TIP3   OH254100   4.961   4.655  12.420 -0.2252 -0.1496  0.4430
10870TIP3    H154101   4.896   4.719  12.448 -0.9414 -0.4850 -0.4018
10870TIP3    H254102   5.000   4.693  12.341  0.0888 -0.2749  0.5356
10871TIP3   OH254103   0.229   5.190   0.671  0.2681 -0.4826 -0.6568
10871TIP3    H154104   0.149   5.241   0.687  0.2334 -0.3945 -1.1150
10871TIP3    H254105   0.205   5.101   0.698  0.0764 -0.4185 -0.6087
10872TIP3   OH254106   1.331   3.319   3.836  0.0407  0.2477 -0.4313
10872TIP3    H154107   1.240   3.301   3.857  0.5749 -1.3181  0.7371
10872TIP3    H254108   1.342   3.285   3.747 -0.0613 -1.4310  0.1591
10873TIP3   OH254109   0.127   3.353   5.664 -0.0914  0.0540 -0.3840
10873TIP3    H154110   0.050   3.376   5.715  0.4629  0.3134  0.3656
10873TIP3    H254111   0.189   3.318   5.728  1.2051  1.8192 -0.5614
10874TIP3   OH254112   2.942   4.109  15.810  0.2430  0.4433  0.0250
10874TIP3    H154113   2.906   4.075  15.892  1.2273 -0.1973  0.2066
10874TIP3    H254114   2.932   4.204  15.818 -2.5294  0.2956 -0.4845
10875TIP3   OH254115   2.821   0.906  14.586 -0.0978  0.1906 -0.6553
10875TIP3    H154116   2.801   0.852  14.662 -1.0085  0.8895 -0.3790
10875TIP3    H254117   2.785   0.992  14.607  0.6108  0.6940 -1.4255
10876TIP3   OH254118   6.476   6.393   0.624  0.2884 -0.0494 -0.0325
10876TIP3    H154119   6.426   6.440   0.558  0.6289 -1.5075 -1.3806
10876TIP3    H254120   6.410   6.349   0.678 -0.1820  3.4613  2.5938
10877TIP3   OH254121   4.339   0.225  12.678  0.4494  0.1135  0.1204
10877TIP3    H154122   4.311   0.136  12.658 -2.0597  0.6330  0.8630
10877TIP3    H254123   4.400   0.216  12.750  1.4635 -1.0733 -0.8403
10878TIP3   OH254124   0.385   6.745  13.703  0.7407  0.2526 -0.4554
10878TIP3    H154125   0.363   6.833  13.671  2.3833  0.7481 -0.3110
10878TIP3    H254126   0.344   6.686  13.640  0.6345  1.1417 -1.2478
10879TIP3   OH254127   2.925   4.742  12.494  0.0126  0.0584  0.7624
10879TIP3    H154128   2.993   4.802  12.462  0.0609 -0.3336  0.1153
10879TIP3    H254129   2.950   4.724  12.584  1.9506 -1.6738 -0.0441
10880TIP3   OH254130   0.053   0.935  16.645 -0.0895 -0.1433 -0.0747
10880TIP3    H154131   0.115   0.887  16.590  0.4718  0.6372 -0.1421
10880TIP3    H254132  -0.004   0.982  16.584  0.4601  0.6310 -0.0122
10881TIP3   OH254133   6.847   0.548   6.100 -0.2503  0.1932 -0.4769
10881TIP3    H154134   6.762   0.512   6.076 -0.5697  1.1330 -0.8138
10881TIP3    H254135   6.906   0.473   6.098 -0.7784 -0.2213 -1.7317
10882TIP3   OH254136   3.903   4.490  11.621 -0.3877  0.2091 -0.2543
10882TIP3    H154137   3.848   4.567  11.612 -0.4709  0.4528  1.9501
10882TIP3    H254138   3.847   4.425  11.663  0.0582 -0.6558 -0.9615
10883TIP3   OH254139   1.764   4.812  13.503  0.2198 -0.3881  0.0901
10883TIP3    H154140   1.839   4.871  13.497 -0.2186  0.0355 -4.2991
10883TIP3    H254141   1.797   4.735  13.549  3.0346  0.2904 -0.6446
10884TIP3   OH254142   2.418   3.195  10.421  0.5701 -0.4401 -0.4005
10884TIP3    H154143   2.500   3.206  10.373  1.8310  1.5679  1.9672
10884TIP3    H254144   2.439   3.131  10.489 -0.1611 -0.6657 -0.3750
10885TIP3   OH254145   5.719   1.912  11.280  0.4167  1.0334 -0.9285
10885TIP3    H154146   5.771   1.898  11.200 -1.5470 -1.4708 -1.8879
10885TIP3    H254147   5.758   1.852  11.344 -0.6796 -0.2296 -1.3995
10886TIP3   OH254148   1.060   3.208   2.668  0.5240 -0.0012  0.2334
10886TIP3    H154149   1.004   3.274   2.709 -0.1438 -0.7592  0.5605
10886TIP3    H254150   1.098   3.253   2.592  2.1279  1.5993  1.8519
10887TIP3   OH254151   4.215   0.609   0.862  0.1867 -0.2810  0.3872
10887TIP3    H154152   4.296   0.559   0.877 -0.5920 -0.8899  3.0983
10887TIP3    H254153   4.232   0.694   0.901 -0.0922 -0.0123 -0.0696
10888TIP3   OH254154   5.608   0.418  15.742  0.8016  0.0822 -0.1755
10888TIP3    H154155   5.693   0.374  15.741  1.4394  1.2597  0.1732
10888TIP3    H254156   5.545   0.349  15.723  1.6621 -1.1742  1.3052
10889TIP3   OH254157   1.177   6.385  16.665 -0.4110 -0.4028 -0.4636
10889TIP3    H154158   1.251   6.408  16.722 -0.9864  1.2934 -0.3223
10889TIP3    H254159   1.217   6.336  16.593  0.4885 -1.6190  0.8131
10890TIP3   OH254160   2.624   4.648   3.388 -0.0908  0.1885 -0.1668
10890TIP3    H154161   2.587   4.644   3.477  1.2689  0.4322  0.4274
10890TIP3    H254162   2.648   4.558   3.368  1.0080  0.3585  0.3389
10891TIP3   OH254163   5.532   2.890   2.211  0.0032 -0.2757  0.0046
10891TIP3    H154164   5.580   2.925   2.286  0.4736 -1.0363  0.0714
10891TIP3    H254165   5.559   2.798   2.206 -1.5369 -0.7653  0.1167
10892TIP3   OH254166   2.203   1.549   4.287 -0.6060  0.3032  0.4672
10892TIP3    H154167   2.126   1.494   4.291  0.8188 -1.8031  0.3157
10892TIP3    H254168   2.194   1.598   4.205 -2.7620  1.7582  1.4719
10893TIP3   OH254169   3.516   2.374  13.164 -0.6290 -0.1875 -0.0656
10893TIP3    H154170   3.445   2.312  13.182 -0.5343  0.0303  1.1606
10893TIP3    H254171   3.558   2.340  13.085 -0.0044 -2.2095  1.0863
10894TIP3   OH254172   1.617   0.614   5.592 -0.6049  0.1324  0.0053
10894TIP3    H154173   1.644   0.678   5.658 -3.1329  2.9590 -1.4615
10894TIP3    H254174   1.697   0.599   5.540 -0.0909  2.9340 -0.1772
10895TIP3   OH254175   1.812   1.253  13.601 -0.1598 -0.2469 -0.2724
10895TIP3    H154176   1.815   1.348  13.587  1.1244 -0.3340 -0.6881
10895TIP3    H254177   1.873   1.237  13.672 -0.4583 -0.7511 -0.1308
10896TIP3   OH254178   5.300   0.728   5.263  0.0876  0.5601 -0.3680
10896TIP3    H154179   5.273   0.645   5.225  0.4421  0.4394 -0.3610
10896TIP3    H254180   5.369   0.705   5.325  0.1325  0.8491 -0.3078
10897TIP3   OH254181   3.396   4.620   6.203  0.1359  0.4071  0.2118
10897TIP3    H154182   3.332   4.674   6.249  0.7114  1.1605  0.1374
10897TIP3    H254183   3.462   4.600   6.269 -0.3849 -0.7565  0.4136
10898TIP3   OH254184   6.729   2.535  16.901 -0.2490  0.2199 -0.1727
10898TIP3    H154185   6.714   2.597  16.973  0.8548  1.5427 -1.0261
10898TIP3    H254186   6.733   2.590  16.823  0.9508 -0.9041 -0.9444
10899TIP3   OH254187   0.443   6.263  11.340  0.2407  0.2876 -0.1049
10899TIP3    H154188   0.349   6.278  11.331  0.1249 -0.1474  0.3220
10899TIP3    H254189   0.465   6.202  11.270 -0.4285 -2.1457  1.6549
10900TIP3   OH254190   2.801   4.984  12.701  0.3584 -0.2141  0.3402
10900TIP3    H154191   2.706   4.996  12.711  0.2094 -1.3275  0.3705
10900TIP3    H254192   2.816   4.996  12.607  0.1815 -0.1133  0.3227
10901TIP3   OH254193   4.428   3.263  13.320  0.2930 -0.5548 -0.6016
10901TIP3    H154194   4.427   3.327  13.249  2.3182 -2.1997 -2.2596
10901TIP3    H254195   4.345   3.216  13.311 -1.6186  2.2342  1.1754
10902TIP3   OH254196   2.146   4.125   0.930 -0.4800 -0.5125 -0.2219
10902TIP3    H154197   2.097   4.116   0.849  1.3061  0.3091 -1.4444
10902TIP3    H254198   2.081   4.111   0.999 -2.1448 -0.7045 -1.7635
10903TIP3   OH254199   3.812   3.935   4.790 -0.7384  0.0698 -0.5547
10903TIP3    H154200   3.879   3.997   4.762 -0.1331 -0.4908 -0.3674
10903TIP3    H254201   3.735   3.989   4.808  0.2828  0.9845  1.3090
10904TIP3   OH254202   3.730   2.014  13.111  0.0090  0.1556  0.2961
10904TIP3    H154203   3.825   2.029  13.117 -0.3159  2.0591  2.1423
10904TIP3    H254204   3.706   1.982  13.198 -1.3010  1.7166  0.5638
10905TIP3   OH254205   0.440   0.319   3.867  0.3234 -0.0055 -0.4705
10905TIP3    H154206   0.465   0.379   3.937  1.1818 -0.3929 -0.4374
10905TIP3    H254207   0.494   0.241   3.881  0.5208 -0.0889 -1.5657
10906TIP3   OH254208   0.151   6.028   5.866 -0.3837 -0.2320  0.5980
10906TIP3    H154209   0.203   6.059   5.940 -2.1287  1.1399  1.3086
10906TIP3    H254210   0.084   6.095   5.853 -2.0750 -1.9734 -0.1808
10907TIP3   OH254211   3.245   5.217  15.543 -0.0778  0.2846 -0.1128
10907TIP3    H154212   3.247   5.189  15.452 -0.8673  0.4206 -0.1838
10907TIP3    H254213   3.258   5.311  15.541  2.4021  0.0210  0.1140
10908TIP3   OH254214   6.206   0.559  13.394 -0.0885  0.3730 -0.0377
10908TIP3    H154215   6.271   0.529  13.330 -0.8297 -1.0709 -0.1559
10908TIP3    H254216   6.253   0.557  13.478 -0.1752 -1.4895  0.0073
10909TIP3   OH254217   1.260   1.586   1.550  0.0851  0.1793 -0.0443
10909TIP3    H154218   1.180   1.555   1.592 -0.1697  0.4396 -0.3376
10909TIP3    H254219   1.238   1.673   1.517  0.8905  0.8176  1.0354
10910TIP3   OH254220   3.692   3.408  12.993  0.1113 -0.1017  0.3964
10910TIP3    H154221   3.746   3.471  13.041 -0.2728  0.3788  0.2067
10910TIP3    H254222   3.735   3.324  13.006  1.7554  0.4790 -0.9800
10911TIP3   OH254223   5.929   2.364  12.044  0.4227  0.2418  0.0762
10911TIP3    H154224   5.910   2.458  12.049 -0.7804  0.0243 -0.0861
10911TIP3    H254225   5.844   2.323  12.027  0.9536 -0.8695 -0.0038
10912TIP3   OH254226   2.589   5.747   4.058 -0.1340 -0.1499  0.1809
10912TIP3    H154227   2.576   5.653   4.059  2.1236 -0.5115  0.1979
10912TIP3    H254228   2.575   5.775   4.148  0.5506 -0.6978  0.4647
10913TIP3   OH254229   6.550   0.767   0.661 -0.1274  0.4976  0.3849
10913TIP3    H154230   6.549   0.769   0.565 -1.0212 -1.7090  0.2918
10913TIP3    H254231   6.518   0.853   0.687 -0.6510  0.8547 -1.3194
10914TIP3   OH254232   6.588   0.509   3.082 -0.6090  0.1171 -0.2063
10914TIP3    H154233   6.588   0.478   3.173 -0.2566  0.8961  0.0670
10914TIP3    H254234   6.507   0.560   3.075 -0.8439 -0.2883 -0.4543
10915TIP3   OH254235   5.835   0.050  13.358  0.2164 -0.0134 -0.7929
10915TIP3    H154236   5.927   0.071  13.344  0.5401 -1.0661 -0.3507
10915TIP3    H254237   5.811   0.099  13.436  0.6148 -0.3017 -0.4852
10916TIP3   OH254238   4.304   4.813   5.060  0.0704 -0.4638  0.1397
10916TIP3    H154239   4.372   4.750   5.034  1.0320  0.8075 -0.5960
10916TIP3    H254240   4.353   4.892   5.083 -1.0688 -0.1491  1.6125
10917TIP3   OH254241   0.105   4.342  14.826 -0.0394  0.5505 -0.2032
10917TIP3    H154242   0.079   4.277  14.761  1.0900  1.3381 -1.5042
10917TIP3    H254243   0.156   4.292  14.890  0.1230  0.0147 -0.7389
10918TIP3   OH254244   0.980   6.817  12.894  0.1281 -0.2899  0.0646
10918TIP3    H154245   1.018   6.802  12.981 -0.0599  0.0355  0.2038
10918TIP3    H254246   0.895   6.857  12.911  0.6691  1.0790 -0.2889
10919TIP3   OH254247   4.844   4.413  15.165 -0.3333 -0.8400 -0.8288
10919TIP3    H154248   4.937   4.426  15.146 -0.3138 -0.3227 -0.4202
10919TIP3    H254249   4.831   4.456  15.250 -0.6115 -2.2624 -0.1189
10920TIP3   OH254250   3.631   3.112  12.194 -0.4452 -0.8444 -0.1219
10920TIP3    H154251   3.706   3.088  12.249 -0.6470 -0.7432  0.2052
10920TIP3    H254252   3.670   3.150  12.115 -0.1431 -1.3078 -0.1981
10921TIP3   OH254253   1.030   0.311   1.030 -0.1187  0.8879 -0.3271
10921TIP3    H154254   1.073   0.346   0.952  0.8334 -0.3622 -0.4075
10921TIP3    H254255   1.103   0.277   1.084 -0.9804 -1.9012 -0.7609
10922TIP3   OH254256   4.556   0.207   0.106 -0.1817 -0.2670 -0.1356
10922TIP3    H154257   4.470   0.169   0.086 -0.2338 -1.4362  1.9817
10922TIP3    H254258   4.546   0.241   0.195  1.8340 -1.4941  0.6322
10923TIP3   OH254259   5.686   4.195  14.965 -0.6859 -0.0873 -0.3358
10923TIP3    H154260   5.777   4.220  14.944 -1.1423  1.3838 -0.6874
10923TIP3    H254261   5.653   4.268  15.018 -2.3827  0.5486 -2.1708
10924TIP3   OH254262   0.530   2.886  16.089 -0.5527  0.8719 -0.1529
10924TIP3    H154263   0.595   2.817  16.106 -0.7454  0.2546 -1.7066
10924TIP3    H254264   0.449   2.852  16.126 -0.5936  0.3491 -0.7044
10925TIP3   OH254265   6.640   6.335  10.818 -0.0724 -0.1374  0.5702
10925TIP3    H154266   6.622   6.422  10.852  2.2991  0.7700 -0.3192
10925TIP3    H254267   6.655   6.281  10.896 -3.8984 -0.4721  1.2707
10926TIP3   OH254268   3.456   0.598  12.250 -0.6971  1.0967  0.7440
10926TIP3    H154269   3.548   0.583  12.268  0.1713 -0.6402 -3.8076
10926TIP3    H254270   3.411   0.521  12.287  0.3276 -0.2108 -0.6309
10927TIP3   OH254271   6.425   2.115   0.204  0.3500 -0.4176  0.1380
10927TIP3    H154272   6.516   2.141   0.193  0.1231 -0.1279 -1.3129
10927TIP3    H254273   6.397   2.086   0.117 -1.3549  0.9260  0.1720
10928TIP3   OH254274   2.260   2.274   1.103  0.4476  0.4420 -0.0570
10928TIP3    H154275   2.182   2.231   1.068  0.9324 -0.2710 -0.2958
10928TIP3    H254276   2.248   2.273   1.198 -0.8622  2.3571 -0.1525
10929TIP3   OH254277   0.558   4.990  16.592 -0.5019  0.7032 -0.3624
10929TIP3    H154278   0.550   5.073  16.545 -0.7816  0.3627 -0.9239
10929TIP3    H254279   0.534   4.923  16.528 -3.6167  0.3657  0.9673
10930TIP3   OH254280   6.541   6.662  14.732 -0.0935  0.2988  0.3478
10930TIP3    H154281   6.559   6.571  14.708  0.9526  0.3516  0.8863
10930TIP3    H254282   6.452   6.677  14.701  0.0089 -0.6571 -0.4738
10931TIP3   OH254283   5.777   3.950  11.616  0.4764  0.6258  0.3507
10931TIP3    H154284   5.736   3.938  11.530  1.0401 -2.5589  0.3967
10931TIP3    H254285   5.862   3.990  11.598  1.1629 -1.2370 -0.7874
10932TIP3   OH254286   3.410   2.897   4.123  0.3484 -0.3060 -0.0535
10932TIP3    H154287   3.493   2.941   4.105 -0.3767  1.1774  0.0673
10932TIP3    H254288   3.380   2.866   4.037 -0.9593  2.8556 -0.8626
10933TIP3   OH254289   2.602   1.056   6.029 -0.7541 -0.1373 -0.0934
10933TIP3    H154290   2.590   0.961   6.017 -0.3007 -0.0444 -1.4135
10933TIP3    H254291   2.689   1.064   6.069 -1.3511 -0.3262  1.3208
10934TIP3   OH254292   6.284   4.238  16.572 -0.2911  0.6894  0.2283
10934TIP3    H154293   6.258   4.320  16.529 -0.2214  0.9535  0.6863
10934TIP3    H254294   6.374   4.224  16.542 -0.7651  0.0354 -0.9603
10935TIP3   OH254295   2.183   3.921   4.561 -0.3367 -0.1955  0.1275
10935TIP3    H154296   2.135   3.899   4.481 -0.7325 -1.1974  0.6224
10935TIP3    H254297   2.116   3.926   4.629 -0.2990  2.7235  0.0748
10936TIP3   OH254298   0.464   6.363  11.940 -0.0061 -0.0166 -0.1430
10936TIP3    H154299   0.480   6.366  12.034  0.1075  1.9968 -0.1843
10936TIP3    H254300   0.529   6.301  11.906  2.1219  1.6073  0.7294
10937TIP3   OH254301   3.439   3.370   4.448  0.2967 -0.4381  0.2006
10937TIP3    H154302   3.446   3.334   4.537  2.2148  2.1811  1.2290
10937TIP3    H254303   3.520   3.420   4.436 -0.3528  0.0843 -2.6842
10938TIP3   OH254304   0.723   5.027  10.372 -0.2168 -0.7087 -0.6023
10938TIP3    H154305   0.699   5.075  10.293  1.1928 -1.4787 -1.5445
10938TIP3    H254306   0.759   5.093  10.430 -0.5763 -0.2511 -0.8955
10939TIP3   OH254307   1.637   6.107   3.466 -0.0612  0.0887  0.0756
10939TIP3    H154308   1.608   6.083   3.378 -0.0971 -1.0827  0.3910
10939TIP3    H254309   1.627   6.202   3.469 -0.8495  0.0590 -0.9013
10940TIP3   OH254310   1.270   1.999   5.464 -0.2178 -0.5130  0.0477
10940TIP3    H154311   1.254   2.035   5.552 -1.0308  1.6222 -0.9066
10940TIP3    H254312   1.202   2.038   5.410  0.6013 -1.3694 -1.6730
10941TIP3   OH254313   0.959   4.090  12.007 -0.5747 -0.1250 -0.1139
10941TIP3    H154314   0.961   4.185  12.020 -1.3951  0.0916 -1.3283
10941TIP3    H254315   1.004   4.054  12.083  0.1358  1.2588  0.1541
10942TIP3   OH254316   0.622   0.497   2.996 -0.3946  0.0294 -0.1333
10942TIP3    H154317   0.714   0.493   3.022  0.0874  0.2880 -1.7071
10942TIP3    H254318   0.619   0.564   2.928 -1.9298  0.7079  0.5468
10943TIP3   OH254319   3.356   3.588   1.053  0.2871 -0.3355 -0.1936
10943TIP3    H154320   3.396   3.507   1.085  0.8490 -0.3213 -0.8313
10943TIP3    H254321   3.263   3.567   1.046  0.2636 -0.5685  0.7105
10944TIP3   OH254322   6.215   5.596   1.166  0.0219 -0.4409 -0.2556
10944TIP3    H154323   6.268   5.632   1.094 -1.8620  0.4918 -1.2616
10944TIP3    H254324   6.270   5.529   1.206  1.7384  0.1285 -1.5564
10945TIP3   OH254325   5.007   4.537   1.181 -0.3560 -0.2721 -0.1847
10945TIP3    H154326   4.920   4.502   1.160 -1.7890  1.6461  1.9374
10945TIP3    H254327   4.988   4.618   1.229  2.6244 -0.0972  0.8718
10946TIP3   OH254328   0.329   4.613  13.165  0.0801  0.2902  0.0417
10946TIP3    H154329   0.411   4.661  13.179  0.2808  0.0675 -0.3524
10946TIP3    H254330   0.319   4.610  13.070 -0.6283  0.7184  0.0974
10947TIP3   OH254331   0.750   6.787  14.154  0.2751 -0.0629  0.1281
10947TIP3    H154332   0.750   6.754  14.244  1.5761 -2.1023 -0.5460
10947TIP3    H254333   0.695   6.725  14.106  1.0501 -0.0631 -0.7935
10948TIP3   OH254334   2.473   2.146  12.430  0.1285 -0.0838 -0.5005
10948TIP3    H154335   2.469   2.163  12.336  2.0464  1.4730 -0.3691
10948TIP3    H254336   2.468   2.233  12.470 -1.2515 -0.7611  0.8989
10949TIP3   OH254337   2.561   5.701  14.097  0.2976  0.3259  0.3675
10949TIP3    H154338   2.608   5.673  14.175  1.4445 -0.0734 -0.4429
10949TIP3    H254339   2.569   5.627  14.036 -0.4955  0.6665 -0.1729
10950TIP3   OH254340   0.005   3.231  12.492  0.3958 -0.2417 -0.2332
10950TIP3    H154341  -0.052   3.227  12.416 -2.2795  0.0570  1.6067
10950TIP3    H254342   0.036   3.141  12.505  1.4066 -0.1834 -1.9490
10951TIP3   OH254343   6.419   6.159   4.303  0.3228  0.3603 -0.1423
10951TIP3    H154344   6.344   6.190   4.354 -0.7716  0.0048 -1.4610
10951TIP3    H254345   6.456   6.239   4.265  1.5906  0.7165  1.6903
10952TIP3   OH254346   3.909   4.313  14.359 -0.0989 -0.4253  0.3749
10952TIP3    H154347   3.866   4.338  14.441  0.7739  1.1261  0.3836
10952TIP3    H254348   3.927   4.395  14.315 -0.5383 -1.2344 -1.4023
10953TIP3   OH254349   1.104   0.090   1.392  0.1855 -0.7026  0.4648
10953TIP3    H154350   1.123   0.112   1.300  0.2427  0.2201  0.6880
10953TIP3    H254351   1.181   0.121   1.440 -0.3713 -0.0774  0.9680
10954TIP3   OH254352   1.794   1.264   3.141  0.0479  0.1524  0.0207
10954TIP3    H154353   1.774   1.355   3.164  0.2435  0.3093 -0.4092
10954TIP3    H254354   1.881   1.249   3.175 -0.4809 -0.2889  1.2226
10955TIP3   OH254355   2.405   2.726  11.759 -0.1108 -0.6964 -0.4330
10955TIP3    H154356   2.341   2.796  11.744 -0.9669 -0.9634  1.6856
10955TIP3    H254357   2.415   2.685  11.673 -2.2065 -0.1585 -1.0062
10956TIP3   OH254358   3.859   2.225  16.772  0.0219  0.0988  0.2380
10956TIP3    H154359   3.882   2.202  16.862 -1.5351  0.2396  0.7030
10956TIP3    H254360   3.922   2.293  16.748 -1.8930  2.9866  2.6808
10957TIP3   OH254361   4.401   5.338  13.791 -0.1731  0.0356  0.3587
10957TIP3    H154362   4.320   5.318  13.837 -0.7155 -0.2727 -0.7187
10957TIP3    H254363   4.422   5.259  13.741  0.6793  0.1862  0.4509
10958TIP3   OH254364   2.262   4.108   2.789 -1.1735  0.4303  0.2286
10958TIP3    H154365   2.197   4.091   2.721  0.5080  2.1587 -1.9375
10958TIP3    H254366   2.300   4.192   2.766  2.5929 -0.9610  0.7649
10959TIP3   OH254367   0.592   5.650   5.922  0.4486 -0.4646  0.5068
10959TIP3    H154368   0.597   5.586   5.993 -1.8469 -0.4678  0.7578
10959TIP3    H254369   0.614   5.733   5.963  0.7262 -0.6910  0.8247
10960TIP3   OH254370   1.837   5.697   3.330  0.0080  0.3506  0.3857
10960TIP3    H154371   1.759   5.642   3.335  0.1991  0.1268  1.0682
10960TIP3    H254372   1.812   5.770   3.274 -0.2757 -0.3887 -0.4879
10961TIP3   OH254373   3.591   5.223  16.893 -0.4590 -0.3101  0.4226
10961TIP3    H154374   3.657   5.174  16.844 -1.2662 -2.3312  1.2042
10961TIP3    H254375   3.641   5.276  16.955  0.4558 -1.2615  0.5276
10962TIP3   OH254376   6.046   4.971  16.708 -0.0794  0.0518  0.4231
10962TIP3    H154377   5.980   4.927  16.654  1.8587 -0.5801 -1.5282
10962TIP3    H254378   6.035   5.064  16.688 -0.9459  0.0634  0.8514
10963TIP3   OH254379   1.523   1.742   4.215 -0.0339 -0.3534 -0.1882
10963TIP3    H154380   1.553   1.831   4.199  0.3430  0.1903  2.8890
10963TIP3    H254381   1.544   1.694   4.135 -0.4621  2.3318 -2.0206
10964TIP3   OH254382   4.894   5.837  11.748 -0.2810  0.2090 -0.3664
10964TIP3    H154383   4.953   5.903  11.786 -0.3991 -0.6635  1.4433
10964TIP3    H254384   4.926   5.825  11.659  0.6327  1.6646 -0.2738
10965TIP3   OH254385   1.923   3.763  11.314 -0.0557  0.1540 -0.2674
10965TIP3    H154386   1.965   3.807  11.241 -0.1808 -1.3499 -1.2809
10965TIP3    H254387   1.957   3.674  11.312 -1.3515 -0.3828  0.4709
10966TIP3   OH254388   5.475   0.801   1.097 -0.5365 -0.2368 -0.0404
10966TIP3    H154389   5.397   0.854   1.114  0.0990  1.1596 -1.2551
10966TIP3    H254390   5.466   0.726   1.156 -0.3637  2.2876  3.5515
10967TIP3   OH254391   6.027   5.893  14.440  0.0156 -0.1698  0.0812
10967TIP3    H154392   6.093   5.824  14.435  1.2068  0.8511  1.2673
10967TIP3    H254393   6.051   5.945  14.516 -2.2375  0.1758  0.6487
10968TIP3   OH254394   2.039   1.815  15.562  0.0666 -0.0695  0.1848
10968TIP3    H154395   1.957   1.861  15.541  0.0591 -0.7833 -1.5715
10968TIP3    H254396   2.023   1.725  15.534  1.9770  0.1094 -1.7609
10969TIP3   OH254397   1.129   2.479  15.616  0.3054  0.4329  0.1273
10969TIP3    H154398   1.151   2.437  15.700 -1.0952 -0.9047 -0.1211
10969TIP3    H254399   1.191   2.551  15.608  0.1754  0.9091  2.5613
10970TIP3   OH254400   3.358   5.519  17.076  0.3274  0.8582 -0.1881
10970TIP3    H154401   3.336   5.457  17.147  0.6786  1.0832  0.1189
10970TIP3    H254402   3.448   5.545  17.094  0.3713  1.0274 -0.6441
10971TIP3   OH254403   5.376   4.268  16.796 -0.1890  0.4726  0.0586
10971TIP3    H154404   5.343   4.358  16.789 -1.4481  0.2003  1.8076
10971TIP3    H254405   5.359   4.230  16.710  0.4697  1.9246 -0.7549
10972TIP3   OH254406   5.070   1.133   2.288 -0.0540 -0.0967  0.0903
10972TIP3    H154407   5.110   1.056   2.247  0.5393  0.1548  0.1834
10972TIP3    H254408   5.144   1.191   2.308 -0.5963  1.2999 -1.6325
10973TIP3   OH254409   2.520   4.480  16.065  0.1585 -0.1887  0.1330
10973TIP3    H154410   2.593   4.541  16.082 -0.2205  0.5252 -0.6777
10973TIP3    H254411   2.485   4.510  15.981 -1.6140  0.0122  0.9199
10974TIP3   OH254412   1.881   4.314   3.706 -0.0126 -0.2046 -0.4514
10974TIP3    H154413   1.909   4.281   3.791  0.0232  2.0481  0.4873
10974TIP3    H254414   1.962   4.327   3.657  0.0173 -0.7955 -0.5670
10975TIP3   OH254415   5.739   6.285   5.526 -0.2685 -0.4256 -0.5438
10975TIP3    H154416   5.653   6.272   5.567 -0.5058  0.8850 -0.5812
10975TIP3    H254417   5.728   6.363   5.471  0.8728 -0.4064 -0.7723
10976TIP3   OH254418   5.963   2.054   4.054 -0.4161 -0.2076 -0.2107
10976TIP3    H154419   5.915   2.039   4.135 -0.2552 -1.0107 -0.2485
10976TIP3    H254420   5.936   2.141   4.024  0.0725  0.4049  1.0724
10977TIP3   OH254421   5.204   0.224   1.908  0.0323  0.0049  0.2222
10977TIP3    H154422   5.215   0.206   1.815 -1.1750  2.5575 -0.5079
10977TIP3    H254423   5.282   0.274   1.933  1.7990 -3.0868  1.4205
10978TIP3   OH254424   2.532   0.162   0.339 -0.6231 -0.0194 -0.2157
10978TIP3    H154425   2.527   0.067   0.333 -0.7922 -0.0083 -0.2871
10978TIP3    H254426   2.586   0.188   0.264 -0.4757 -0.0674 -0.1257
10979TIP3   OH254427   2.700   0.509   5.215 -0.2180  0.4862 -0.2215
10979TIP3    H154428   2.737   0.509   5.127  1.4109  1.1837  0.4221
10979TIP3    H254429   2.774   0.490   5.272 -0.9763  1.3656  1.1016
10980TIP3   OH254430   4.770   5.098  13.648 -0.1501 -0.0890 -0.4062
10980TIP3    H154431   4.745   5.160  13.580  1.1023  0.8922  0.0016
10980TIP3    H254432   4.861   5.076  13.628 -0.3813 -1.3361 -0.1812
10981TIP3   OH254433   2.317   3.767  17.038  0.2029  1.0590 -0.1927
10981TIP3    H154434   2.309   3.856  17.071  1.9456  0.7646  1.1972
10981TIP3    H254435   2.321   3.713  17.117 -0.5001 -0.2416 -1.0091
10982TIP3   OH254436   6.504   6.813  11.887 -0.6603  0.0871 -0.5551
10982TIP3    H154437   6.540   6.786  11.802 -0.8963  0.0014 -0.6294
10982TIP3    H254438   6.482   6.731  11.931 -0.4306  0.1276 -0.3627
10983TIP3   OH254439   1.897   5.108  16.044 -0.1293  0.6152 -0.1933
10983TIP3    H154440   1.928   5.023  16.074 -2.6597 -1.4027 -2.8164
10983TIP3    H254441   1.921   5.111  15.951 -3.2170  1.0595 -1.0753
10984TIP3   OH254442   3.871   3.307  15.143  0.3304  0.0113  0.5038
10984TIP3    H154443   3.957   3.294  15.104  0.0721 -0.7069  0.1623
10984TIP3    H254444   3.873   3.254  15.223 -0.2057 -0.9947 -0.1279
10985TIP3   OH254445   0.620   5.771  10.454 -0.2118 -0.0706 -0.1549
10985TIP3    H154446   0.643   5.679  10.468  1.0489  0.0724 -1.1143
10985TIP3    H254447   0.668   5.795  10.375 -2.9009  0.5595 -1.7258
10986TIP3   OH254448   6.539   2.053   4.995  0.0628  0.4941 -0.2024
10986TIP3    H154449   6.545   1.984   4.929 -0.5264  1.6462 -1.5110
10986TIP3    H254450   6.450   2.089   4.986  0.0238  0.7991  1.1063
10987TIP3   OH254451   4.561   2.604   5.005  0.3111  0.2649  0.2482
10987TIP3    H154452   4.603   2.593   4.920 -0.7349  0.9131 -0.3792
10987TIP3    H254453   4.558   2.517   5.043  1.0087  0.0092 -0.2796
10988TIP3   OH254454   3.809   0.748  12.078 -0.5640 -0.3261  0.3660
10988TIP3    H154455   3.779   0.836  12.056  0.8855  0.5137  1.6230
10988TIP3    H254456   3.903   0.749  12.060 -0.5148 -1.6007  0.4731
10989TIP3   OH254457   2.056   6.384   0.163  0.5309  0.2135  0.4037
10989TIP3    H154458   2.031   6.294   0.186 -0.4658  0.6814  1.2348
10989TIP3    H254459   2.062   6.383   0.068  0.2072 -0.6640  0.3783
10990TIP3   OH254460   6.343   5.700  14.797 -0.8184  0.5944 -0.2324
10990TIP3    H154461   6.279   5.752  14.845 -0.2923  0.2004  0.9221
10990TIP3    H254462   6.319   5.609  14.816 -1.4333  0.3845 -1.8374
10991TIP3   OH254463   4.016   4.414  15.629 -0.2839  0.8629  0.1518
10991TIP3    H154464   4.051   4.382  15.712  0.4450  0.3599 -0.3300
10991TIP3    H254465   4.059   4.498  15.615  1.1279  0.0517 -0.6463
10992TIP3   OH254466   3.728   6.590   5.604  0.5395  0.3256 -0.4924
10992TIP3    H154467   3.718   6.607   5.510 -1.4933 -1.8085 -0.7580
10992TIP3    H254468   3.643   6.612   5.642  0.9757  0.0913  0.6665
10993TIP3   OH254469   1.993   5.194   6.542 -0.1729 -0.2362  0.5174
10993TIP3    H154470   2.039   5.267   6.584 -1.1432  0.2361  0.7740
10993TIP3    H254471   1.911   5.232   6.511 -0.2301 -0.9812 -0.2832
10994TIP3   OH254472   1.005   6.296  12.221  0.2802 -0.1736 -0.1198
10994TIP3    H154473   0.930   6.240  12.198 -0.4111  0.1377  1.3285
10994TIP3    H254474   0.981   6.335  12.304  1.0427  1.8056 -0.7880
10995TIP3   OH254475   5.362   0.033   3.938 -0.0667  0.7823  0.5814
10995TIP3    H154476   5.299  -0.001   4.001  0.9675  0.7614  1.6306
10995TIP3    H254477   5.441   0.051   3.989  1.0219  0.1620 -0.7979
10996TIP3   OH254478   5.068   6.347  12.203  0.4898 -0.1148 -0.1328
10996TIP3    H154479   5.157   6.327  12.174  0.5602 -1.6841  1.0516
10996TIP3    H254480   5.069   6.329  12.297 -1.3369 -1.1596 -0.2620
10997TIP3   OH254481   3.403   0.940  13.534 -0.8013  0.2197 -0.2294
10997TIP3    H154482   3.439   0.998  13.601  1.5330 -3.5865  2.2016
10997TIP3    H254483   3.324   0.903  13.574 -1.0927  0.1436 -0.8595
10998TIP3   OH254484   1.196   6.762  16.623  0.0417 -0.5854 -0.9954
10998TIP3    H154485   1.171   6.815  16.547  1.9858  1.3078 -0.4219
10998TIP3    H254486   1.267   6.707  16.591  2.4102  1.7821 -0.1763
10999TIP3   OH254487   3.232   4.729  16.198  0.2312 -0.5154 -0.5498
10999TIP3    H154488   3.252   4.655  16.141  1.8751  0.2295 -1.0044
10999TIP3    H254489   3.136   4.729  16.206  0.2138 -2.8657 -0.2615
11000TIP3   OH254490   1.444   2.970   2.842 -0.2481 -0.1771 -0.2573
11000TIP3    H154491   1.429   2.876   2.853 -1.8321  0.2379  1.8113
11000TIP3    H254492   1.357   3.009   2.841  0.3675  1.4996  2.0416
11001TIP3   OH254493   3.843   3.783   2.190 -0.3001 -0.2738  0.1630
11001TIP3    H154494   3.883   3.763   2.275 -1.0250 -1.0359  0.3265
11001TIP3    H254495   3.751   3.798   2.209 -0.7218 -1.6864 -0.6537
11002TIP3   OH254496   4.549   0.325  12.075  0.1058 -0.0006 -0.0615
11002TIP3    H154497   4.480   0.293  12.133 -0.6506  0.1154 -0.8668
11002TIP3    H254498   4.613   0.365  12.133 -0.3153 -0.4642  0.7362
11003TIP3   OH254499   5.711   0.341   0.136 -0.5002  0.1754 -0.5284
11003TIP3    H154500   5.668   0.419   0.172 -1.7072  0.5411 -2.5851
11003TIP3    H254501   5.785   0.375   0.086 -0.0788 -0.1629 -0.1552
11004TIP3   OH254502   3.076   0.113   3.105 -0.4044  0.1817  0.3266
11004TIP3    H154503   3.138   0.161   3.051  1.8930 -0.6849  2.0114
11004TIP3    H254504   3.082   0.023   3.074 -0.5925  0.0351  0.7098
11005TIP3   OH254505   5.660   0.119  15.128 -0.0084  0.0002  0.0419
11005TIP3    H154506   5.708   0.201  15.118  1.3710 -0.5126  1.8297
11005TIP3    H254507   5.596   0.137  15.197 -0.9661  0.0804 -0.8584
11006TIP3   OH254508   0.594   6.471   5.689  0.9246 -0.5130 -0.6534
11006TIP3    H154509   0.684   6.495   5.712  0.8098  0.5848 -1.2517
11006TIP3    H254510   0.601   6.434   5.601  1.0315 -2.2800  0.0768
11007TIP3   OH254511   6.589   3.834  12.345  0.0742  0.3686  0.8803
11007TIP3    H154512   6.632   3.919  12.334  0.6216 -0.0733 -0.7190
11007TIP3    H254513   6.513   3.838  12.287  0.7307 -0.6116 -0.0855
11008TIP3   OH254514   6.041   1.156   0.244 -0.2177 -0.4429  0.3493
11008TIP3    H154515   6.050   1.063   0.223 -0.0296 -0.4825  0.6088
11008TIP3    H254516   5.982   1.158   0.319 -1.4085 -0.2604 -0.5701
11009TIP3   OH254517   1.099   4.603  14.118 -0.0191  0.5185 -0.4381
11009TIP3    H154518   1.108   4.690  14.155  0.1287  0.1028  0.5231
11009TIP3    H254519   1.040   4.615  14.043  0.5090  1.5436 -0.7138
11010TIP3   OH254520   6.382   0.822   1.566 -0.4254 -0.6029 -0.3386
11010TIP3    H154521   6.339   0.737   1.579 -0.6257 -0.5036 -0.3418
11010TIP3    H254522   6.340   0.858   1.488  0.5940 -1.0840 -1.1235
11011TIP3   OH254523   4.715   4.544  12.156  0.5630  0.0901 -0.5215
11011TIP3    H154524   4.709   4.552  12.252  0.0544  0.7968 -0.6017
11011TIP3    H254525   4.767   4.619  12.129 -1.1765  1.1994 -0.9772
11012TIP3   OH254526   4.658   2.242   3.192  0.4972  0.4439 -0.2665
11012TIP3    H154527   4.741   2.281   3.221 -0.0853 -0.4386  3.0149
11012TIP3    H254528   4.590   2.296   3.234 -0.4913 -0.4603 -0.6660
11013TIP3   OH254529   1.251   6.792   4.396  0.0239 -0.4556 -0.0018
11013TIP3    H154530   1.300   6.842   4.461 -1.0968 -0.8091  1.1545
11013TIP3    H254531   1.220   6.857   4.333  0.0059  0.0754  0.5456
11014TIP3   OH254532   6.725   3.828   0.332  0.2666  0.4297 -0.1379
11014TIP3    H154533   6.783   3.757   0.304  0.5061  1.0217 -1.1929
11014TIP3    H254534   6.640   3.805   0.295  0.6270  1.3132 -1.6006
11015TIP3   OH254535   6.629   1.890  12.574 -0.5774  0.2430  0.0148
11015TIP3    H154536   6.566   1.818  12.572 -0.3017  0.0116 -0.4763
11015TIP3    H254537   6.697   1.860  12.635 -0.1001 -0.2274 -0.7324
11016TIP3   OH254538   0.448   0.321  12.431 -0.0371  0.2792  0.5847
11016TIP3    H154539   0.352   0.324  12.430 -0.0473  0.4014  1.5228
11016TIP3    H254540   0.469   0.228  12.416 -0.2792  0.3511 -0.2506
11017TIP3   OH254541   0.089   5.822  11.394  0.0443  0.2606 -0.1529
11017TIP3    H154542   0.146   5.767  11.448  1.6258  0.8008 -1.1706
11017TIP3    H254543   0.089   5.779  11.309 -1.5117  0.0117 -0.0398
11018TIP3   OH254544   2.931   2.220  15.574  0.0465 -0.0805 -0.0573
11018TIP3    H154545   2.856   2.204  15.632 -1.0852  2.3815 -0.7167
11018TIP3    H254546   2.993   2.269  15.628  1.2826 -2.0780  0.4742
11019TIP3   OH254547   2.738   5.779   3.059  0.0559 -0.0281  0.3067
11019TIP3    H154548   2.686   5.815   3.131  0.6284 -1.7484  1.6451
11019TIP3    H254549   2.819   5.829   3.060  0.1661 -0.2058  1.0615
11020TIP3   OH254550   1.803   6.740   2.485  0.5087 -0.1037 -0.4748
11020TIP3    H154551   1.775   6.790   2.561 -0.6492 -0.8966 -0.3592
11020TIP3    H254552   1.897   6.727   2.498  0.2894 -0.4269  0.9425
11021TIP3   OH254553   1.793   2.434  14.839  0.0246  0.0196 -0.1470
11021TIP3    H154554   1.781   2.426  14.933 -0.6241 -1.5547 -0.3217
11021TIP3    H254555   1.705   2.420  14.803 -0.3372  3.4940 -0.9097
11022TIP3   OH254556   2.433   2.582  11.989 -0.2438  0.3066  0.3997
11022TIP3    H154557   2.524   2.585  12.018 -1.1038  0.6777  3.3381
11022TIP3    H254558   2.431   2.638  11.911  1.8330  1.1887  0.9220
11023TIP3   OH254559   6.162   0.963   5.390 -0.4209  0.1101 -0.9263
11023TIP3    H154560   6.107   1.038   5.413 -0.5328  0.1878 -1.4263
11023TIP3    H254561   6.193   0.929   5.474 -1.4231 -0.0813 -0.6254
11024TIP3   OH254562   3.955   3.371   2.669  0.0567  0.7008  0.1314
11024TIP3    H154563   4.000   3.287   2.674  0.1044  0.7419  0.3896
11024TIP3    H254564   4.017   3.433   2.708 -0.4876  0.6543  1.0899
11025TIP3   OH254565   3.587   3.592   5.375 -0.2381  0.4091  0.7806
11025TIP3    H154566   3.565   3.523   5.438 -1.4401  1.3541  1.4351
11025TIP3    H254567   3.669   3.629   5.408  0.3775 -0.6413  0.4646
11026TIP3   OH254568   2.260   1.379  13.294 -0.0836  0.5993 -0.1275
11026TIP3    H154569   2.206   1.382  13.373 -0.6824  1.5480 -0.5474
11026TIP3    H254570   2.275   1.286  13.278 -1.4983  0.3255  0.0672
11027TIP3   OH254571   0.646   1.635   0.591 -0.0381 -0.3159 -0.4251
11027TIP3    H154572   0.555   1.666   0.598 -0.2052 -1.1929  2.5068
11027TIP3    H254573   0.689   1.701   0.536 -1.8473  1.6159  0.3210
11028TIP3   OH254574   5.246   6.213   5.409  0.5520  0.5352  0.3483
11028TIP3    H154575   5.211   6.208   5.320  0.2325  0.2478  0.4889
11028TIP3    H254576   5.197   6.284   5.451  0.4925  0.4717  0.3869
11029TIP3   OH254577   3.392   1.559   0.999 -0.2565 -0.3469 -0.1227
11029TIP3    H154578   3.368   1.577   1.089 -1.0626  2.1359 -0.7485
11029TIP3    H254579   3.437   1.475   1.002  2.3151  0.9199  3.0145
11030TIP3   OH254580   6.588   1.482   3.241 -0.5248  0.6015  0.2582
11030TIP3    H154581   6.538   1.447   3.315  0.5233 -0.9781  0.2538
11030TIP3    H254582   6.528   1.474   3.166  0.0501 -2.3996  0.0103
11031TIP3   OH254583   5.520   0.818   2.103 -0.4577  0.2233 -0.1597
11031TIP3    H154584   5.589   0.875   2.069 -1.0273  0.5225 -0.8573
11031TIP3    H254585   5.507   0.847   2.193  0.2846  0.1966 -0.0368
11032TIP3   OH254586   0.936   1.352  13.387 -0.4148 -0.6377 -0.1347
11032TIP3    H154587   0.948   1.441  13.356  0.4861 -0.4416  0.7488
11032TIP3    H254588   0.841   1.340  13.389 -0.6207 -1.2383 -4.4616
11033TIP3   OH254589   2.077   1.068  14.686  0.4477 -0.2811 -0.4970
11033TIP3    H154590   2.065   1.132  14.616 -0.5431  1.4310  1.1557
11033TIP3    H254591   2.131   1.112  14.750 -0.1459 -1.1482  0.6401
11034TIP3   OH254592   5.338   4.171   4.675  0.3296  0.0436  0.7018
11034TIP3    H154593   5.292   4.138   4.598  0.3360  2.1849 -0.2610
11034TIP3    H254594   5.406   4.105   4.692 -0.9882 -1.5079  0.1770
11035TIP3   OH254595   1.702   6.492   1.825 -0.3956  0.4559  0.2605
11035TIP3    H154596   1.704   6.459   1.915  1.7587 -0.4700 -0.0536
11035TIP3    H254597   1.648   6.571   1.830 -1.3606 -0.2465  2.0972
11036TIP3   OH254598   6.438   1.943  12.210  0.5279  0.7199  0.0571
11036TIP3    H154599   6.516   1.889  12.196  0.5966  0.6271  0.7672
11036TIP3    H254600   6.471   2.032  12.219  0.6785  0.5374  1.5056
11037TIP3   OH254601   4.821   1.358  15.363  0.1983  0.2920  0.1578
11037TIP3    H154602   4.856   1.280  15.407  1.0387 -0.0270 -1.0121
11037TIP3    H254603   4.814   1.332  15.271  0.9032  1.7135 -0.3286
11038TIP3   OH254604   5.345   0.254  13.594 -0.9246  0.2337 -0.0901
11038TIP3    H154605   5.388   0.231  13.676 -0.2806 -1.1635 -0.7959
11038TIP3    H254606   5.397   0.325  13.558  0.0194 -0.5319 -0.2734
11039TIP3   OH254607   5.930   0.132  13.845 -0.5645 -0.1871 -0.2770
11039TIP3    H154608   5.852   0.181  13.873 -1.3278 -1.5702  0.1528
11039TIP3    H254609   5.896   0.045  13.824  1.1013 -1.3771  1.6333
11040TIP3   OH254610   5.310   3.036   2.659 -0.3277 -0.0712 -0.0622
11040TIP3    H154611   5.242   3.078   2.605 -0.3171  0.1960  0.1300
11040TIP3    H254612   5.333   2.956   2.611 -0.8986 -0.2518 -0.0485
11041TIP3   OH254613   4.704   0.798  16.991  1.1526  0.0095 -0.1491
11041TIP3    H154614   4.753   0.726  16.951  0.3941 -0.1971 -0.7246
11041TIP3    H254615   4.669   0.848  16.918  1.3593  0.7634  0.2517
11042TIP3   OH254616   1.277   3.541   3.303 -0.3788 -0.0738  0.0179
11042TIP3    H154617   1.264   3.448   3.289 -1.3068  0.4879 -3.7958
11042TIP3    H254618   1.188   3.576   3.314 -0.1300  0.5213  0.1658
11043TIP3   OH254619   5.502   6.034  16.634  0.3210  0.3935 -0.5072
11043TIP3    H154620   5.577   6.074  16.677 -0.4230  0.5964  0.6386
11043TIP3    H254621   5.434   6.030  16.702 -0.1644 -1.3081 -1.0304
11044TIP3   OH254622   1.126   1.111   3.440 -0.5775 -0.2978 -0.4561
11044TIP3    H154623   1.104   1.199   3.470 -1.1807 -0.9247  1.0580
11044TIP3    H254624   1.092   1.106   3.351 -1.2525  0.7489 -0.2695
11045TIP3   OH254625   3.347   5.145  13.581  0.3850  0.5758 -0.3452
11045TIP3    H154626   3.394   5.063  13.567  2.1111  1.0699  1.9348
11045TIP3    H254627   3.288   5.126  13.655 -0.4927  0.9459 -0.9292
11046TIP3   OH254628   1.366   3.679   6.460 -0.2337 -0.4063 -0.0451
11046TIP3    H154629   1.340   3.588   6.476 -0.8713 -0.0111  1.3466
11046TIP3    H254630   1.335   3.727   6.537  1.6955  0.7035  0.0948
11047TIP3   OH254631   0.871   2.170   4.019  0.1401  0.0187 -0.1343
11047TIP3    H154632   0.955   2.198   4.053 -0.2799  0.7182  0.3272
11047TIP3    H254633   0.821   2.250   4.007 -0.9800 -0.4894  0.9619
11048TIP3   OH254634   5.473   0.348  16.081  0.6443  0.1436 -0.1663
11048TIP3    H154635   5.532   0.272  16.077  1.0319  0.3038  1.5595
11048TIP3    H254636   5.525   0.420  16.046  1.0661  0.0368  0.2182
11049TIP3   OH254637   2.604   5.360  12.884 -0.2173 -0.3592 -0.0793
11049TIP3    H154638   2.558   5.276  12.883 -1.8404  0.4938 -0.0355
11049TIP3    H254639   2.548   5.418  12.833 -0.1577  1.2051  1.5525
11050TIP3   OH254640   2.777   1.213  15.020 -0.1503  0.3458  0.2319
11050TIP3    H154641   2.787   1.303  14.988 -1.2801 -0.3786 -2.4147
11050TIP3    H254642   2.682   1.201  15.028 -0.0025 -0.5707  0.6820
11051TIP3   OH254643   4.352   6.032   0.626  0.3464 -0.1783 -0.1797
11051TIP3    H154644   4.440   6.008   0.656  0.2991  0.5734  0.6269
11051TIP3    H254645   4.307   6.059   0.706 -1.0485 -1.7572 -0.3608
11052TIP3   OH254646   6.602   0.693   4.087  0.5148  0.5537 -0.5303
11052TIP3    H154647   6.627   0.783   4.104 -0.1670  0.5929  0.3303
11052TIP3    H254648   6.527   0.700   4.028 -0.1166  0.5926  0.2643
11053TIP3   OH254649   6.667   6.080   1.553  0.3797 -0.0978  0.1701
11053TIP3    H154650   6.600   6.140   1.521  0.1114  0.5712  1.8901
11053TIP3    H254651   6.734   6.137   1.590  0.5692 -0.8188  0.9670
11054TIP3   OH254652   2.852   5.273   2.015 -0.4023 -0.0898  0.3112
11054TIP3    H154653   2.903   5.333   2.070 -1.5081 -1.5507  3.1070
11054TIP3    H254654   2.917   5.209   1.984  0.3781  1.2042 -0.8551
11055TIP3   OH254655   2.091   0.499  15.009  0.4670  0.2757  0.3678
11055TIP3    H154656   2.134   0.560  15.070 -0.1000  0.5136  0.5439
11055TIP3    H254657   2.038   0.443  15.065 -0.5471  0.8966  0.0594
11056TIP3   OH254658   2.107   5.597   2.916 -0.0240  0.5365 -0.6718
11056TIP3    H154659   2.132   5.637   2.999 -1.5547 -0.3152  0.2406
11056TIP3    H254660   2.030   5.646   2.888  0.2600  0.5731 -1.4156
11057TIP3   OH254661   2.171   4.797  14.733  0.2775  0.7322 -0.0686
11057TIP3    H154662   2.153   4.704  14.750  1.3211  0.6029  0.3696
11057TIP3    H254663   2.147   4.809  14.641  0.3830 -0.0319 -0.2038
11058TIP3   OH254664   3.543   1.508  12.314 -0.7385  0.2006 -0.0767
11058TIP3    H154665   3.629   1.523  12.276 -1.1980 -0.8979 -1.6693
11058TIP3    H254666   3.482   1.544  12.250 -1.4971 -0.0918  0.4631
11059TIP3   OH254667   6.276   3.433  16.385 -0.1188  0.0239  0.6293
11059TIP3    H154668   6.309   3.504  16.329  2.0618 -0.7952  0.8167
11059TIP3    H254669   6.279   3.355  16.329  1.5263 -0.6931  1.6669
11060TIP3   OH254670   1.028   3.765  16.306 -0.4436  0.6189  0.5762
11060TIP3    H154671   1.077   3.845  16.290  3.2883 -1.2669  1.3752
11060TIP3    H254672   1.025   3.757  16.401 -0.8154 -0.1550  0.5103
11061TIP3   OH254673   3.710   5.691   0.388  0.1136  0.2172 -0.2282
11061TIP3    H154674   3.765   5.707   0.464  0.2116  0.6172 -0.3806
11061TIP3    H254675   3.623   5.723   0.412 -0.0210 -0.2854 -0.0384
11062TIP3   OH254676   6.771   0.519   5.391 -0.3861  0.1578  0.0918
11062TIP3    H154677   6.741   0.429   5.393 -0.5743  0.2217  0.2857
11062TIP3    H254678   6.845   0.521   5.451 -0.2002  0.0682 -0.1379
11063TIP3   OH254679   4.678   3.441  16.427  0.8847 -0.3382 -0.6372
11063TIP3    H154680   4.724   3.359  16.442  1.9077  0.1154 -1.1592
11063TIP3    H254681   4.629   3.457  16.508  0.0616 -1.8276 -0.8184
11064TIP3   OH254682   5.610   1.085   5.508 -0.2260 -0.0314 -0.7538
11064TIP3    H154683   5.677   1.028   5.469 -0.3285 -0.7970  0.1541
11064TIP3    H254684   5.535   1.076   5.450  0.0438 -0.1541 -1.0900
11065TIP3   OH254685   4.548   1.633   0.734 -0.0008 -0.4690  0.6031
11065TIP3    H154686   4.513   1.556   0.779  0.4938 -1.2111 -0.2338
11065TIP3    H254687   4.550   1.701   0.801 -2.1554 -0.6383  0.9171
11066TIP3   OH254688   5.316   3.771  11.222  0.0077 -0.0822 -0.1617
11066TIP3    H154689   5.289   3.859  11.197 -0.3069 -0.5289 -1.4808
11066TIP3    H254690   5.385   3.748  11.160 -0.9459 -1.3245 -0.8115
11067TIP3   OH254691   5.530   4.270  13.803  0.2898 -1.0459 -0.3311
11067TIP3    H154692   5.547   4.274  13.709  2.0601 -1.9201 -0.0936
11067TIP3    H254693   5.476   4.192  13.814 -2.4304  0.6011 -0.8609
11068TIP3   OH254694   5.756   0.343  16.506 -0.0197  0.2248 -0.4805
11068TIP3    H154695   5.692   0.364  16.574 -0.2771  1.2790 -1.0218
11068TIP3    H254696   5.754   0.419  16.447  2.7030  0.9348  0.2035
11069TIP3   OH254697   0.005   3.036  11.291 -0.0987  0.2526  0.1474
11069TIP3    H154698  -0.063   3.037  11.359 -1.4238  2.4282 -1.0996
11069TIP3    H254699  -0.023   2.967  11.231 -0.9998  0.8655 -0.1471
11070TIP3   OH254700   4.118   6.442   0.964 -0.4134  0.4167 -0.2072
11070TIP3    H154701   4.034   6.451   1.010 -0.6042 -2.1139  0.0915
11070TIP3    H254702   4.094   6.415   0.876  0.0828 -0.4900 -0.0691
11071TIP3   OH254703   6.624   6.281   5.258  0.2361 -0.3190  0.5043
11071TIP3    H154704   6.693   6.235   5.306  0.5527  1.4215  1.8381
11071TIP3    H254705   6.575   6.212   5.214  1.9542 -1.7219  0.6877
11072TIP3   OH254706   5.036   4.591   2.726 -0.2860  0.1466  0.0072
11072TIP3    H154707   5.099   4.647   2.772  1.2852 -1.9099  0.5371
11072TIP3    H254708   4.951   4.630   2.743  0.6834  1.9535  0.9127
11073TIP3   OH254709   0.144   1.623   5.799  0.1022 -0.2618 -0.0161
11073TIP3    H154710   0.094   1.552   5.760 -0.6251  0.1250  0.1855
11073TIP3    H254711   0.234   1.591   5.801  0.0353 -0.5970 -1.2783
11074TIP3   OH254712   1.811   3.522  12.820 -0.3924  0.0442  0.3171
11074TIP3    H154713   1.810   3.578  12.897 -1.9641  2.7419 -1.4825
11074TIP3    H254714   1.762   3.444  12.847 -0.8168  0.8672  2.0884
11075TIP3   OH254715   2.595   2.554  13.610  0.4092 -0.1309  0.5376
11075TIP3    H154716   2.562   2.536  13.698 -2.1354 -3.1311 -0.8861
11075TIP3    H254717   2.626   2.470  13.578 -1.5450  0.1724 -2.4905
11076TIP3   OH254718   1.961   0.327  12.028 -0.1979  0.0962  0.1344
11076TIP3    H154719   1.890   0.314  12.092 -0.2820 -0.7752 -0.1148
11076TIP3    H254720   2.041   0.319  12.079 -0.2245 -2.2672 -0.0962
11077TIP3   OH254721   2.303   1.845   5.304  0.1083 -0.5789 -0.4471
11077TIP3    H154722   2.364   1.829   5.232 -0.0061 -3.1773 -0.0877
11077TIP3    H254723   2.354   1.894   5.368  1.2343 -1.0648 -0.9402
11078TIP3   OH254724   0.537   1.176  17.104  0.0491  0.3592 -0.3726
11078TIP3    H154725   0.485   1.251  17.133  0.2804 -0.9207  3.9701
11078TIP3    H254726   0.613   1.215  17.061  0.2321  2.7146  1.8664
11079TIP3   OH254727   1.715   2.805  11.239 -0.0013  0.1801  0.3707
11079TIP3    H154728   1.687   2.883  11.287  0.2737 -0.9753  2.5265
11079TIP3    H254729   1.769   2.839  11.167 -2.0159  2.0937 -0.3415
11080TIP3   OH254730   0.283   3.256  12.499 -0.3449 -0.5288  0.0235
11080TIP3    H154731   0.319   3.189  12.441  2.1741  0.8497 -0.1765
11080TIP3    H254732   0.193   3.267  12.470  0.1294 -1.5574 -2.0725
11081TIP3   OH254733   4.609   5.471   4.930  0.5594 -0.2230 -0.3480
11081TIP3    H154734   4.569   5.478   5.016 -1.2270 -0.8467 -1.0934
11081TIP3    H254735   4.682   5.410   4.942  0.1787 -0.4873  0.6652
11082TIP3   OH254736   2.279   1.604  16.252 -0.1996  0.0267  0.6330
11082TIP3    H154737   2.300   1.615  16.160 -0.3247  0.1087  0.6121
11082TIP3    H254738   2.208   1.667  16.267  0.0954  0.3060  0.8815
11083TIP3   OH254739   2.321   6.572  11.990 -1.0178  0.1003  0.1650
11083TIP3    H154740   2.305   6.489  12.034  2.4223 -0.3889  0.7197
11083TIP3    H254741   2.367   6.626  12.054  0.6496  0.8081 -1.5248
11084TIP3   OH254742   1.145   1.643  14.480  0.1579  0.2113 -0.2209
11084TIP3    H154743   1.092   1.578  14.526  0.1053  1.0840  0.9994
11084TIP3    H254744   1.232   1.603  14.473  0.1914  0.0875  0.7404
11085TIP3   OH254745   6.680   6.829  12.882 -0.2355 -0.1476  0.1284
11085TIP3    H154746   6.726   6.895  12.830 -2.3622  1.0492 -0.3511
11085TIP3    H254747   6.670   6.754  12.823  0.3940 -0.1133 -0.0226
11086TIP3   OH254748   2.965   5.281   1.086  0.6488 -0.4172 -0.1772
11086TIP3    H154749   2.982   5.321   1.171 -3.3890  0.9675  0.2022
11086TIP3    H254750   2.987   5.189   1.098  3.2050  0.2664  1.2511
11087TIP3   OH254751   6.713   4.202  15.195 -0.8138  0.5553 -0.2468
11087TIP3    H154752   6.745   4.117  15.165 -2.0324  0.7848 -2.3988
11087TIP3    H254753   6.619   4.201  15.176 -1.2966  1.5703  1.7515
11088TIP3   OH254754   2.411   2.734   4.681 -0.0063 -0.6246  0.5917
11088TIP3    H154755   2.370   2.717   4.596  0.7082 -1.3515  0.3789
11088TIP3    H254756   2.504   2.744   4.661  0.0238  0.2925  1.1536
11089TIP3   OH254757   5.358   2.753   2.019 -0.0593 -0.1632 -0.1900
11089TIP3    H154758   5.440   2.749   1.970  0.3256 -0.2564  0.4540
11089TIP3    H254759   5.352   2.844   2.049 -0.5459  0.0241 -0.8170
11090TIP3   OH254760   2.688   5.087  12.164 -0.5144  0.6701 -0.0759
11090TIP3    H154761   2.699   5.011  12.220 -0.0156 -0.1089 -1.1865
11090TIP3    H254762   2.593   5.098  12.155 -0.6133  1.1238  1.2942
11091TIP3   OH254763   2.114   0.867   3.966  0.0543 -0.1623  1.0443
11091TIP3    H154764   2.082   0.930   3.902  1.9320  0.8965  1.0537
11091TIP3    H254765   2.057   0.791   3.956  0.6668 -0.3406 -2.4054
11092TIP3   OH254766   1.874   6.439  14.766  0.4129  0.0314  0.2318
11092TIP3    H154767   1.862   6.499  14.839  0.1636 -0.4064  0.5613
11092TIP3    H254768   1.797   6.452  14.711  0.7188  0.5316 -0.0774
11093TIP3   OH254769   5.374   2.755   3.592  0.0788 -0.5196  0.8725
11093TIP3    H154770   5.425   2.831   3.621 -0.4469  0.5419 -0.8144
11093TIP3    H254771   5.397   2.685   3.653  1.3142  0.7321  1.8967
11094TIP3   OH254772   3.507   4.234  16.835 -0.0657  0.0052  0.3983
11094TIP3    H154773   3.589   4.223  16.786 -0.2428  0.0417  0.0856
11094TIP3    H254774   3.487   4.146  16.868 -0.1597 -0.1109  0.0476
11095TIP3   OH254775   0.236   3.899  12.609 -0.1382 -0.2819 -0.1911
11095TIP3    H154776   0.167   3.910  12.543 -0.4337 -0.3773  0.1045
11095TIP3    H254777   0.315   3.929  12.564 -0.0760 -1.7209 -1.0899
11096TIP3   OH254778   6.513   1.564  10.913 -0.0257  0.3290  0.0360
11096TIP3    H154779   6.424   1.530  10.903 -0.5351  1.6466 -0.0210
11096TIP3    H254780   6.558   1.497  10.964 -1.1806 -0.1386  0.4794
11097TIP3   OH254781   3.902   3.081   2.913  0.0983 -0.4261  0.2168
11097TIP3    H154782   3.993   3.102   2.895 -0.2994  1.4890  0.2553
11097TIP3    H254783   3.864   3.162   2.946 -2.3677 -0.2673 -2.5747
11098TIP3   OH254784   5.024   1.201  12.994  0.0722  0.2096 -0.0353
11098TIP3    H154785   5.083   1.274  13.009  0.9466 -0.8325  2.0437
11098TIP3    H254786   4.939   1.242  12.975  0.7168  1.7413  0.2375
11099TIP3   OH254787   3.068   0.123  11.349  0.3135 -0.1597  0.3290
11099TIP3    H154788   3.132   0.139  11.418  0.3130 -1.9566  0.7929
11099TIP3    H254789   3.016   0.050  11.381  0.1210 -0.8533 -1.4440
11100TIP3   OH254790   5.120   4.905   3.774 -0.3449  0.2634  0.0207
11100TIP3    H154791   5.027   4.882   3.772 -0.1634 -0.4704 -0.7282
11100TIP3    H254792   5.161   4.834   3.824  0.0302 -0.3439 -1.1109
11101TIP3   OH254793   4.107   4.893   2.161  0.6018  0.3787 -0.3283
11101TIP3    H154794   4.017   4.862   2.148 -0.3541  2.6165  0.4111
11101TIP3    H254795   4.135   4.921   2.074  0.2532  0.4566 -0.4186
11102TIP3   OH254796   1.074   5.532   2.405  0.3254  0.2378  0.0486
11102TIP3    H154797   1.164   5.558   2.427  0.7363  0.8118 -2.0210
11102TIP3    H254798   1.035   5.505   2.488  2.9217 -1.6164  0.8015
11103TIP3   OH254799   3.020   1.254   0.019 -0.7709  0.3249 -0.1174
11103TIP3    H154800   2.975   1.337   0.002 -0.2869  0.2635 -1.9068
11103TIP3    H254801   3.032   1.215  -0.068 -0.1961 -1.2106  0.6107
11104TIP3   OH254802   3.794   6.410  10.805 -0.4681 -0.0586 -0.0862
11104TIP3    H154803   3.887   6.397  10.819 -0.0911 -0.1115 -2.3027
11104TIP3    H254804   3.756   6.407  10.893  1.7610  1.4195  1.0200
11105TIP3   OH254805   1.253   2.969   1.061  0.6695 -0.4587  0.0069
11105TIP3    H154806   1.294   2.893   1.103  1.3356 -0.8685 -1.3119
11105TIP3    H254807   1.264   3.040   1.124  2.3597 -0.8610  0.2189
11106TIP3   OH254808   3.190   1.275   6.202  0.3668  0.3226  0.5711
11106TIP3    H154809   3.260   1.265   6.267  2.1786  0.4098 -1.2606
11106TIP3    H254810   3.157   1.186   6.188 -0.9768  0.4574  2.5021
11107TIP3   OH254811   4.204   2.908  15.898 -0.1595 -0.0720  0.0799
11107TIP3    H154812   4.133   2.852  15.930 -0.1359  0.0298  0.3174
11107TIP3    H254813   4.253   2.854  15.837 -0.3627 -0.1873  0.0215
11108TIP3   OH254814   1.436   4.769  13.715  0.4418 -0.1285  0.2580
11108TIP3    H154815   1.519   4.804  13.745 -1.3344  2.7990  2.1416
11108TIP3    H254816   1.394   4.734  13.793 -1.2040  0.8787 -0.1356
11109TIP3   OH254817   1.350   2.660  12.570 -0.1514 -0.5367 -0.9633
11109TIP3    H154818   1.346   2.565  12.582 -0.9364 -0.3396  0.5848
11109TIP3    H254819   1.314   2.675  12.483 -2.2988 -1.5148 -0.3156
11110TIP3   OH254820   6.087   0.321  14.153 -0.3191  0.2257  0.0862
11110TIP3    H154821   6.004   0.368  14.159 -0.4040 -0.0433  1.2245
11110TIP3    H254822   6.111   0.303  14.244 -0.4523 -2.1953 -0.3061
11111TIP3   OH254823   0.522   2.762   5.352 -0.0877  0.6939  0.4026
11111TIP3    H154824   0.588   2.828   5.373  0.9426 -0.5310  1.2215
11111TIP3    H254825   0.571   2.691   5.310 -1.1822  0.4906 -0.5780
11112TIP3   OH254826   3.976   1.342  16.767  0.0302 -1.1091  0.0261
11112TIP3    H154827   3.954   1.435  16.762 -0.3295 -1.1741  0.3652
11112TIP3    H254828   4.065   1.339  16.800  1.2782 -0.7677 -2.9831
11113TIP3   OH254829   5.220   1.588  16.754 -0.0467 -0.7431 -0.0711
11113TIP3    H154830   5.193   1.635  16.833  1.5030 -2.7309  1.7223
11113TIP3    H254831   5.284   1.646  16.713  0.8940 -0.6625  1.4265
11114TIP3   OH254832   3.515   0.386  14.808  0.0716  0.1718  0.4296
11114TIP3    H154833   3.573   0.453  14.774  0.0135 -0.3350 -0.7198
11114TIP3    H254834   3.453   0.433  14.863  0.8666  0.8609  0.7522
11115TIP3   OH254835   6.159   4.915   2.287 -0.1815 -0.0046 -0.3137
11115TIP3    H154836   6.167   4.984   2.353  0.9297 -1.0052  0.6473
11115TIP3    H254837   6.193   4.955   2.207 -0.4612  0.8640 -0.0187
11116TIP3   OH254838   3.387   6.699  12.674  0.3065  0.2445 -0.2089
11116TIP3    H154839   3.425   6.673  12.590 -0.1022 -0.9595 -0.0369
11116TIP3    H254840   3.462   6.728  12.726  0.7452 -0.3709 -0.4926
11117TIP3   OH254841   1.611   6.623   2.900 -0.0320  0.7321  0.0742
11117TIP3    H154842   1.573   6.696   2.852  1.2251 -0.0647 -2.2995
11117TIP3    H254843   1.557   6.547   2.875  1.7159 -0.0197 -1.6509
11118TIP3   OH254844   1.305   0.192   0.628 -0.0113  0.7855  0.0677
11118TIP3    H154845   1.218   0.181   0.665 -0.4544  1.5016 -0.7250
11118TIP3    H254846   1.360   0.130   0.676 -0.6870  1.2331  1.4664
11119TIP3   OH254847   2.519   3.463   4.195 -0.2037 -0.3408  0.1773
11119TIP3    H154848   2.606   3.480   4.230  0.8125 -2.0480 -1.3162
11119TIP3    H254849   2.529   3.381   4.146 -2.4915 -0.2111 -0.6123
11120TIP3   OH254850   2.568   1.431  14.403 -0.5358  0.2992  0.4081
11120TIP3    H154851   2.483   1.413  14.364 -1.2336  2.5164  0.7480
11120TIP3    H254852   2.550   1.447  14.496  0.4158 -0.1897  0.6995
11121TIP3   OH254853   0.915   2.270   3.094 -0.1148  0.2039 -0.1209
11121TIP3    H154854   0.867   2.350   3.112 -0.1323 -0.0460  1.0274
11121TIP3    H254855   1.001   2.300   3.062 -0.5713  0.6531 -0.9604
11122TIP3   OH254856   1.893   0.467  16.114  0.6703  0.1443 -0.2306
11122TIP3    H154857   1.810   0.512  16.128  1.0164  0.6775  0.1454
11122TIP3    H254858   1.878   0.379  16.148  0.5370  0.5117  0.6944
11123TIP3   OH254859   5.722   2.187  15.883 -0.1397  0.1532 -0.0182
11123TIP3    H154860   5.674   2.134  15.820  0.3645 -0.7626  0.3412
11123TIP3    H254861   5.670   2.181  15.964  0.0826 -0.0780  0.1114
11124TIP3   OH254862   0.488   2.130   0.250  0.0648  0.2143 -0.1299
11124TIP3    H154863   0.485   2.035   0.257 -0.3427  0.3405  1.9838
11124TIP3    H254864   0.397   2.157   0.241  0.1527  0.4461 -0.3615
11125TIP3   OH254865   5.613   3.528  12.467  0.2098  0.3375  0.0199
11125TIP3    H154866   5.615   3.607  12.413  0.7354 -0.1814 -0.7415
11125TIP3    H254867   5.560   3.467  12.416 -0.2462  0.2210  0.6369
11126TIP3   OH254868   1.801   3.521  13.632 -0.4820 -0.0726  0.2459
11126TIP3    H154869   1.783   3.431  13.607  2.6050 -0.5540 -0.5713
11126TIP3    H254870   1.814   3.518  13.727 -2.7332  0.0243  0.6116
11127TIP3   OH254871   2.424   4.735  11.912  0.4061  0.3497  0.2652
11127TIP3    H154872   2.472   4.673  11.856 -0.2543 -0.6644  0.7940
11127TIP3    H254873   2.473   4.817  11.903  0.4145  0.1901 -1.6781
11128TIP3   OH254874   2.081   3.487   3.576  0.4128 -0.5135  0.6659
11128TIP3    H154875   2.172   3.509   3.558  0.0680  1.0462  0.7552
11128TIP3    H254876   2.036   3.495   3.492  0.1339 -0.1412  0.8478
11129TIP3   OH254877   3.476   1.274  14.733  0.2726 -0.2998 -0.1830
11129TIP3    H154878   3.396   1.224  14.751 -0.5210  0.8466 -0.3910
11129TIP3    H254879   3.482   1.336  14.805  1.0987 -0.5154 -0.0635
11130TIP3   OH254880   1.831   1.807   1.725  0.1691 -0.4795  0.1174
11130TIP3    H154881   1.923   1.809   1.697  0.4664 -2.6354  0.7514
11130TIP3    H254882   1.822   1.724   1.771 -1.7735  0.3365  1.3169
11131TIP3   OH254883   1.377   2.223  14.809  0.3097  0.0457 -0.8560
11131TIP3    H154884   1.359   2.190  14.721  0.4631 -1.8739 -0.2218
11131TIP3    H254885   1.473   2.222  14.815  0.3126  0.5107 -0.7678
11132TIP3   OH254886   6.168   2.871  12.831 -0.2022  0.0596  0.2933
11132TIP3    H154887   6.191   2.787  12.869 -1.8139 -0.6054 -0.1183
11132TIP3    H254888   6.178   2.934  12.902 -0.0592 -0.6483  0.9055
11133TIP3   OH254889   6.067   5.253   4.228  0.6638  0.1252 -0.0210
11133TIP3    H154890   5.997   5.303   4.270  1.2580  0.2179  0.8847
11133TIP3    H254891   6.031   5.165   4.218  0.2419  0.2964 -0.0301
11134TIP3   OH254892   1.550   6.075  16.048  0.2342  0.6346 -0.3160
11134TIP3    H154893   1.641   6.047  16.042  0.1102 -0.1095  1.0198
11134TIP3    H254894   1.540   6.106  16.138 -0.8626  0.6058 -0.4114
11135TIP3   OH254895   1.326   2.653  15.567 -0.2710 -0.4141 -0.4354
11135TIP3    H154896   1.417   2.631  15.587 -0.7027 -1.0832  0.9043
11135TIP3    H254897   1.332   2.731  15.511  1.1868 -2.0388 -2.7002
11136TIP3   OH254898   5.934   2.280  16.081 -0.2117 -0.2527  0.1632
11136TIP3    H154899   5.881   2.360  16.081  1.6621  1.0808  1.8925
11136TIP3    H254900   5.878   2.215  16.038 -2.4119  1.5681  0.0570
11137TIP3   OH254901   3.326   4.639  10.697  0.3695 -0.6900  0.0275
11137TIP3    H154902   3.232   4.647  10.710  0.1031 -1.6288 -1.1167
11137TIP3    H254903   3.350   4.557  10.741  0.5054 -0.8263 -0.2920
11138TIP3   OH254904   1.604   3.307   3.555 -0.0317 -0.3039 -0.2861
11138TIP3    H154905   1.510   3.304   3.573 -0.7002  1.9727 -2.8375
11138TIP3    H254906   1.612   3.286   3.462  2.0386 -0.7322 -0.0656
11139TIP3   OH254907   4.703   2.721   3.483  0.6390 -0.9913  0.6512
11139TIP3    H154908   4.665   2.660   3.547 -1.2798  0.2622  0.8020
11139TIP3    H254909   4.629   2.745   3.426  1.5091  0.5713  0.1282
11140TIP3   OH254910   1.681   1.154   1.635  0.1323 -0.1494 -0.3878
11140TIP3    H154911   1.682   1.195   1.721 -1.5060  0.5518 -0.6627
11140TIP3    H254912   1.634   1.071   1.648  2.5834 -1.5964 -0.0317
11141TIP3   OH254913   0.628   5.938  12.221 -0.3129 -0.2484 -0.2267
11141TIP3    H154914   0.574   5.877  12.171 -0.3023 -0.5680  0.1443
11141TIP3    H254915   0.697   5.884  12.259  0.7014  0.2744 -1.2922
11142TIP3   OH254916   3.977   6.854   4.238  0.0091  0.0246  0.4742
11142TIP3    H154917   3.950   6.907   4.163 -0.8167  3.3177  2.8486
11142TIP3    H254918   4.059   6.894   4.268 -0.2692 -0.4381  1.9761
11143TIP3   OH254919   5.451   0.270   0.674 -0.4028 -0.1876 -0.4999
11143TIP3    H154920   5.361   0.251   0.701 -0.7006  1.1043 -0.5275
11143TIP3    H254921   5.495   0.299   0.754 -0.6960  1.5296 -0.9172
11144TIP3   OH254922   2.806   6.571   0.591  0.1060 -0.0055 -0.1801
11144TIP3    H154923   2.856   6.489   0.590 -0.0611 -0.2277  2.6219
11144TIP3    H254924   2.873   6.639   0.594  0.2398  0.0035 -2.1744
11145TIP3   OH254925   2.217   1.610  13.764 -0.3071  0.1490  0.2632
11145TIP3    H154926   2.280   1.670  13.805 -0.0889 -0.3958  0.7405
11145TIP3    H254927   2.134   1.628  13.809 -0.8164  1.7231 -1.1905
11146TIP3   OH254928   2.910   0.484  15.788  0.1526 -0.1488 -0.2538
11146TIP3    H154929   2.840   0.540  15.754 -1.6795 -1.0827  1.7586
11146TIP3    H254930   2.879   0.395  15.772  0.9903 -0.5870  0.4822
11147TIP3   OH254931   4.209   1.676   2.608  0.0282 -0.2021 -0.0886
11147TIP3    H154932   4.140   1.614   2.582 -0.3922  0.3495 -0.3099
11147TIP3    H254933   4.268   1.678   2.533 -0.3161  0.1642 -0.3539
11148TIP3   OH254934   0.916   3.420  12.116  0.6233  0.1032  0.2000
11148TIP3    H154935   0.935   3.383  12.202 -1.2432 -0.8489  0.2479
11148TIP3    H254936   0.859   3.495  12.134  1.9128  1.2047 -0.1102
11149TIP3   OH254937   4.173   1.709   5.522 -0.3372  0.4694  0.4498
11149TIP3    H154938   4.131   1.752   5.596 -0.4068 -0.3825  0.9133
11149TIP3    H254939   4.206   1.627   5.557  0.4082  0.4520 -0.2618
11150TIP3   OH254940   1.186   3.050   1.752 -0.3322  0.3581 -0.1143
11150TIP3    H154941   1.223   2.970   1.790 -0.3062 -0.0722 -1.0341
11150TIP3    H254942   1.130   3.085   1.822 -0.6814 -0.6859  0.1568
11151TIP3   OH254943   5.462   1.865   3.210 -0.2470 -0.4059  0.1310
11151TIP3    H154944   5.547   1.854   3.167  0.1778 -1.4350  1.1670
11151TIP3    H254945   5.459   1.795   3.275 -2.3656 -1.0898 -0.6202
11152TIP3   OH254946   6.151   5.639   1.984  0.3381  0.4540  0.3481
11152TIP3    H154947   6.103   5.692   1.920 -0.0112 -0.9188 -0.5663
11152TIP3    H254948   6.151   5.692   2.064 -1.9981  0.8664  0.1344
11153TIP3   OH254949   6.705   2.434  15.480  0.5379 -0.4069  0.0907
11153TIP3    H154950   6.719   2.498  15.550  1.0618 -1.4960  1.0332
11153TIP3    H254951   6.613   2.444  15.457  0.1124 -0.5899  1.5710
11154TIP3   OH254952   3.641   2.836   0.551  0.6805 -0.9996  0.0568
11154TIP3    H154953   3.603   2.918   0.582  1.2549 -0.8864  0.4837
11154TIP3    H254954   3.642   2.844   0.455  1.5301 -0.1324  0.1226
11155TIP3   OH254955   6.059   0.683   3.270 -0.3150 -0.0532  0.2841
11155TIP3    H154956   6.117   0.625   3.320 -0.9802  0.1695  1.3501
11155TIP3    H254957   6.118   0.748   3.230  0.4072 -1.2726 -0.7059
11156TIP3   OH254958   1.344   6.562   5.431 -0.3082  0.4156  0.2096
11156TIP3    H154959   1.420   6.617   5.413  0.1929  0.2520  1.6333
11156TIP3    H254960   1.346   6.550   5.527 -2.6751  1.2169  0.4070
11157TIP3   OH254961   2.498   6.053  13.899 -0.1712 -0.0006 -0.3420
11157TIP3    H154962   2.477   5.989  13.967 -0.8329 -0.1943 -0.7235
11157TIP3    H254963   2.500   6.137  13.945 -0.8822 -0.0948 -0.1309
11158TIP3   OH254964   1.075   3.525   4.149  0.0557  0.0899 -0.3054
11158TIP3    H154965   1.161   3.491   4.173 -0.3223 -0.3224  0.5030
11158TIP3    H254966   1.015   3.485   4.211 -0.5556  1.4132 -0.0015
11159TIP3   OH254967   2.599   4.413  16.479 -0.5245 -0.0390  0.4676
11159TIP3    H154968   2.534   4.481  16.460 -0.0605  1.3624  3.3054
11159TIP3    H254969   2.674   4.434  16.423 -1.2805  0.3178 -0.4281
11160TIP3   OH254970   2.878   3.983  15.538  0.1812  0.0922 -0.2887
11160TIP3    H154971   2.889   4.008  15.630 -1.9061  1.3485 -0.3101
11160TIP3    H254972   2.859   3.889  15.542 -2.4193  0.5715  0.8917
11161TIP3   OH254973   2.253   6.580   2.102  0.8445  0.0428  0.4183
11161TIP3    H154974   2.181   6.636   2.131  0.8323  0.0578  0.3595
11161TIP3    H254975   2.313   6.577   2.176  0.0236 -1.2540  1.0730
11162TIP3   OH254976   5.496   1.351   1.189 -0.1309  0.4496 -0.6008
11162TIP3    H154977   5.587   1.339   1.213  0.0132  0.2513 -1.2330
11162TIP3    H254978   5.449   1.284   1.239  0.0151  0.8085  0.0270
11163TIP3   OH254979   2.663   0.522  16.414 -0.1484 -0.5684  0.4863
11163TIP3    H154980   2.716   0.451  16.449 -0.0926 -0.4014  0.7445
11163TIP3    H254981   2.605   0.547  16.486  0.4910  0.2883  0.7195
11164TIP3   OH254982   6.516   3.076  14.441 -0.2757  0.4243 -0.2044
11164TIP3    H154983   6.449   3.093  14.373 -0.8976 -1.8612 -0.2345
11164TIP3    H254984   6.562   2.998  14.410  0.7170  0.4706  1.0971
11165TIP3   OH254985   3.363   4.040  14.391  0.0067  1.0633 -0.1825
11165TIP3    H154986   3.412   4.026  14.472  0.0723  0.8914 -0.2512
11165TIP3    H254987   3.274   4.015  14.413  0.7683 -3.6132 -1.3806
11166TIP3   OH254988   0.677   2.001  15.205  0.0539 -0.5986 -0.7731
11166TIP3    H154989   0.766   2.024  15.229 -0.5840  1.6385 -0.3573
11166TIP3    H254990   0.642   1.956  15.282  0.8268 -1.6074 -0.9902
11167TIP3   OH254991   1.652   0.303  14.344  0.3502 -0.5236 -0.0089
11167TIP3    H154992   1.680   0.352  14.422  0.8618  0.6115 -0.8879
11167TIP3    H254993   1.563   0.334  14.328  0.5945 -0.0370 -0.4368
11168TIP3   OH254994   4.135   4.381  12.696 -0.0911 -0.4344  0.5321
11168TIP3    H154995   4.050   4.371  12.740 -0.0625 -1.5041  0.3735
11168TIP3    H254996   4.113   4.392  12.604 -0.0850  0.1153  0.5941
11169TIP3   OH254997   6.555   2.544   5.933 -0.0633  0.0238  0.0693
11169TIP3    H154998   6.477   2.537   5.878 -0.0228 -0.6841  0.0839
11169TIP3    H254999   6.522   2.549   6.022 -0.1158  0.7435  0.0161
11170TIP3   OH255000   1.097   4.360  13.446 -0.5710  0.0682 -0.3479
11170TIP3    H155001   1.176   4.307  13.431  0.7329  1.8970 -0.3221
11170TIP3    H255002   1.105   4.432  13.383 -0.6733  1.9000  1.6281
11171TIP3   OH255003   2.020   6.451  12.537  0.3237  0.1552 -0.3393
11171TIP3    H155004   1.966   6.517  12.580  0.7072  2.2741 -2.8727
11171TIP3    H255005   2.096   6.441  12.595 -0.2142  1.1853  0.5735
11172TIP3   OH255006   5.180   4.411   2.981  0.4416 -0.9233 -0.5177
11172TIP3    H155007   5.176   4.411   2.885 -0.6495 -1.5511 -0.4861
11172TIP3    H255008   5.235   4.486   3.002 -0.3615  0.0042 -1.6013
11173TIP3   OH255009   2.302   4.965   1.681 -0.3257 -0.1377  0.1151
11173TIP3    H155010   2.307   4.955   1.586  0.3219  0.0174  0.1270
11173TIP3    H255011   2.357   5.041   1.700 -0.1978 -0.3588  0.6429
11174TIP3   OH255012   5.609   2.844   5.046  0.9026  0.4263 -0.5518
11174TIP3    H155013   5.526   2.822   5.090  1.2342  0.6548  0.2096
11174TIP3    H255014   5.664   2.766   5.059  1.5023  1.0234  0.7191
11175TIP3   OH255015   5.357   3.666  14.677  0.1039 -0.0658  0.8662
11175TIP3    H155016   5.365   3.614  14.597 -1.6422  1.4386 -0.3773
11175TIP3    H255017   5.343   3.601  14.746  1.8538 -1.4149  0.0559
11176TIP3   OH255018   6.694   6.052   5.689 -0.2241  0.6482  0.0468
11176TIP3    H155019   6.696   5.996   5.611  2.3693  0.0686  0.4313
11176TIP3    H255020   6.676   5.993   5.762 -2.6162  1.1871 -0.0198
11177TIP3   OH255021   5.688   4.259   0.242  0.4264  0.1449 -0.0199
11177TIP3    H155022   5.722   4.210   0.317  2.8400 -0.0902 -1.1872
11177TIP3    H255023   5.752   4.328   0.227 -1.2889  1.7335 -0.3877
11178TIP3   OH255024   1.214   1.564   5.251  0.3855 -0.0284 -0.4970
11178TIP3    H155025   1.243   1.477   5.276  0.1982  0.5409  2.0617
11178TIP3    H255026   1.129   1.550   5.209  1.2195 -1.1763 -1.8715
11179TIP3   OH255027   3.369   6.607   0.078  0.3999  0.0594 -0.1571
11179TIP3    H155028   3.339   6.588   0.167 -1.7368 -1.2801 -1.0766
11179TIP3    H255029   3.296   6.654   0.038  1.3402  0.6569 -1.2094
11180TIP3   OH255030   1.802   3.155  11.935 -0.1258 -1.0997  0.2863
11180TIP3    H155031   1.715   3.136  11.899 -0.4802 -1.2604  1.2014
11180TIP3    H255032   1.835   3.070  11.964 -0.7756 -0.7287  2.3250
11181TIP3   OH255033   5.969   2.105   2.497 -0.3569 -0.1764 -0.3343
11181TIP3    H155034   5.991   2.032   2.438  0.4588  0.5362 -0.9318
11181TIP3    H255035   5.877   2.092   2.517 -0.5051 -0.7535 -1.3254
11182TIP3   OH255036   0.162   0.605  16.276  0.2131 -0.1045  0.5201
11182TIP3    H155037   0.257   0.620  16.281  0.5273 -1.7080  0.0284
11182TIP3    H255038   0.154   0.512  16.255 -1.4160  0.5639 -2.2168
11183TIP3   OH255039   2.239   1.164  10.538  0.2788 -0.1920 -0.8867
11183TIP3    H155040   2.300   1.090  10.533 -0.0919 -0.7203  1.3982
11183TIP3    H255041   2.156   1.129  10.506  0.1955 -0.6716 -0.1571
11184TIP3   OH255042   1.791   2.579   2.365 -0.3350  0.4374  0.3314
11184TIP3    H155043   1.787   2.572   2.270  0.7457  1.4510  0.1879
11184TIP3    H255044   1.724   2.644   2.387 -0.3698  0.4335  0.2350
11185TIP3   OH255045   4.289   2.453   6.075 -0.1437  0.1711  0.4033
11185TIP3    H155046   4.220   2.391   6.053  0.3440  0.2568 -1.5694
11185TIP3    H255047   4.300   2.445   6.170 -2.8700  0.2144  0.7893
11186TIP3   OH255048   1.903   2.443   3.792  0.7495  0.1197  0.0758
11186TIP3    H155049   1.996   2.430   3.809  0.8677 -0.7709 -1.0978
11186TIP3    H255050   1.876   2.509   3.855  2.0376 -0.0461  0.8380
11187TIP3   OH255051   5.531   3.489  11.384 -0.6041  0.0933 -0.2612
11187TIP3    H155052   5.591   3.564  11.390  1.6238 -1.5343 -0.8158
11187TIP3    H255053   5.526   3.456  11.473 -0.8532  0.3451 -0.1795
11188TIP3   OH255054   0.299   1.911   4.402 -0.2843  0.1887  0.5778
11188TIP3    H155055   0.369   1.945   4.346 -1.0756  0.9495  0.0298
11188TIP3    H255056   0.323   1.939   4.490  0.2169  0.2581  0.4221
11189TIP3   OH255057   4.045   5.109   4.182  0.3852  0.2651 -0.1294
11189TIP3    H155058   4.097   5.108   4.102  0.1750 -1.9484 -0.3186
11189TIP3    H255059   3.955   5.104   4.152  0.3320 -1.3001  0.2096
11190TIP3   OH255060   2.861   1.929  10.462  0.2774 -0.4637 -0.2390
11190TIP3    H155061   2.917   1.872  10.409  0.2754  0.6064 -1.4288
11190TIP3    H255062   2.775   1.924  10.420  0.3278  0.5672 -0.4791
11191TIP3   OH255063   0.610   4.971   4.893 -0.2478  0.2880 -0.5803
11191TIP3    H155064   0.600   4.884   4.854  0.2514  0.6548 -1.5566
11191TIP3    H255065   0.572   4.962   4.981  1.0060 -1.2824 -0.1497
11192TIP3   OH255066   2.750   4.721   1.121 -0.3367 -0.5331 -0.1040
11192TIP3    H155067   2.789   4.638   1.149  0.5410 -0.1237 -0.0765
11192TIP3    H255068   2.741   4.772   1.202  1.8582  0.5096 -0.4463
11193TIP3   OH255069   4.518   3.356  13.608 -0.2553 -0.2480 -0.7052
11193TIP3    H155070   4.502   3.317  13.523 -0.8723  1.8054 -1.5813
11193TIP3    H255071   4.597   3.409  13.596  0.1025 -0.5510  0.2207
11194TIP3   OH255072   3.451   2.832   3.852  0.1803 -0.0623 -0.2705
11194TIP3    H155073   3.392   2.866   3.785  0.4234 -0.3016 -0.6096
11194TIP3    H255074   3.537   2.869   3.830  0.2758 -0.2005 -0.1357
11195TIP3   OH255075   6.794   4.559   1.975  0.2724  0.0165 -0.4676
11195TIP3    H155076   6.789   4.490   2.042  1.0323 -0.1744 -0.5907
11195TIP3    H255077   6.725   4.537   1.913 -0.3816  0.1382  0.1915
11196TIP3   OH255078   2.113   2.657   6.181 -0.0541 -0.2125  0.1538
11196TIP3    H155079   2.103   2.747   6.214 -1.0882  0.9157 -2.8266
11196TIP3    H255080   2.203   2.633   6.204 -0.0266  1.2154  1.7939
11197TIP3   OH255081   2.307   1.767   3.191  0.6242  0.4892  0.2684
11197TIP3    H155082   2.231   1.775   3.132  1.6738  0.5770 -1.1293
11197TIP3    H255083   2.269   1.758   3.278 -1.0062 -0.1531 -0.4690
11198TIP3   OH255084   5.511   6.348   2.086  0.4829  0.7931 -0.0109
11198TIP3    H155085   5.589   6.370   2.136  0.4806  1.2046 -0.1794
11198TIP3    H255086   5.446   6.324   2.153  1.4523 -1.9815  0.0214
11199TIP3   OH255087   5.412   5.469  13.465 -0.3759 -0.5449  0.6257
11199TIP3    H155088   5.383   5.455  13.555 -1.2568  0.4034  0.5038
11199TIP3    H255089   5.487   5.527  13.473 -1.7747  1.3650  0.6703
11200TIP3   OH255090   6.610   3.065   4.832  0.0538  0.4306  0.6185
11200TIP3    H155091   6.673   3.125   4.793 -2.4662  2.7182 -0.2331
11200TIP3    H255092   6.605   3.091   4.924  2.0497 -1.4147  1.3339
11201TIP3   OH255093   6.190   4.631   1.962  0.3004 -0.4344 -0.4105
11201TIP3    H155094   6.182   4.610   1.869 -0.7846 -0.4224 -0.3319
11201TIP3    H255095   6.197   4.546   2.005 -1.2798 -0.5567 -0.3385
11202TIP3   OH255096   4.572   5.140  12.692 -0.0211  0.3245 -0.3097
11202TIP3    H155097   4.532   5.104  12.613  0.1640  0.3583 -0.4206
11202TIP3    H255098   4.643   5.196  12.659  1.1262 -0.9410 -0.0717
11203TIP3   OH255099   2.705   6.598  15.924  0.0127 -0.2134 -0.0450
11203TIP3    H155100   2.779   6.591  15.985 -0.1550  0.3695  0.2275
11203TIP3    H255101   2.629   6.612  15.980 -0.2942 -0.7090 -0.3332
11204TIP3   OH255102   1.842   5.502  15.736  0.4259 -0.3590  0.1361
11204TIP3    H155103   1.915   5.469  15.684  0.5147  0.6959 -0.4414
11204TIP3    H255104   1.850   5.458  15.821  0.7910 -1.4441 -0.4525
11205TIP3   OH255105   6.144   5.663  12.581  0.0443 -0.5806  0.1776
11205TIP3    H155106   6.117   5.614  12.503  2.0014 -1.3892 -0.0620
11205TIP3    H255107   6.184   5.743  12.547 -2.4847  0.9580  0.5487
11206TIP3   OH255108   1.414   6.393  12.684 -0.0731 -0.0105  0.5942
11206TIP3    H155109   1.486   6.425  12.737  2.0062 -0.6715 -1.6510
11206TIP3    H255110   1.399   6.462  12.619 -2.1985  0.5526  1.5907
11207TIP3   OH255111   1.120   3.023   1.504  0.7161 -0.0309  0.3894
11207TIP3    H155112   1.126   3.014   1.599  0.7862  1.4907  0.5526
11207TIP3    H255113   1.138   3.116   1.487 -1.7639  0.2903 -0.8910
11208TIP3   OH255114   2.077   0.314   4.888 -0.5000 -0.2888 -0.3638
11208TIP3    H155115   2.031   0.379   4.942  0.5237  0.6858 -0.5985
11208TIP3    H255116   2.170   0.337   4.900 -0.1492 -1.4360 -0.8286
11209TIP3   OH255117   1.762   1.411  13.898  0.5883  0.8229 -0.6165
11209TIP3    H155118   1.743   1.419  13.991  1.4036  1.3013 -0.4830
11209TIP3    H255119   1.847   1.454  13.887  2.5625 -2.7490 -0.8831
11210TIP3   OH255120   4.961   4.861  12.782  0.6867 -0.3724 -0.1804
11210TIP3    H155121   5.025   4.840  12.849 -0.6223  0.8428  1.5544
11210TIP3    H255122   4.999   4.828  12.701  2.3752 -1.8247  1.1222
11211TIP3   OH255123   6.157   6.016  12.729 -0.2259 -0.1772 -0.8047
11211TIP3    H155124   6.232   6.002  12.787 -0.2436  0.3922 -0.6344
11211TIP3    H255125   6.188   5.990  12.642  0.3216  0.4768 -0.8132
11212TIP3   OH255126   5.393   2.884   1.718  0.2615  0.0489  0.2644
11212TIP3    H155127   5.329   2.933   1.770 -0.9052  0.0706 -1.0968
11212TIP3    H255128   5.415   2.944   1.646  0.1354 -0.7768 -0.4771
11213TIP3   OH255129   1.687   2.517  16.601  0.8860  0.0743 -0.2634
11213TIP3    H155130   1.652   2.460  16.532  0.0873  0.3728 -0.1230
11213TIP3    H255131   1.708   2.457  16.673  0.9376 -0.1447 -0.4605
11214TIP3   OH255132   0.396   6.705  15.850  0.0388  0.0318  0.2089
11214TIP3    H155133   0.312   6.705  15.896  1.1135 -2.1135  2.3772
11214TIP3    H255134   0.456   6.747  15.911  1.3028 -2.0103  0.4754
11215TIP3   OH255135   4.763   1.441   6.228  0.0532 -0.0347 -0.0290
11215TIP3    H155136   4.752   1.468   6.319 -2.7430 -2.8023  0.6348
11215TIP3    H255137   4.837   1.379   6.231  0.0296 -0.0467  0.3289
11216TIP3   OH255138   3.520   4.635  14.668 -0.0327 -0.5608  0.0270
11216TIP3    H155139   3.466   4.606  14.594  0.9435 -1.0901 -0.5076
11216TIP3    H255140   3.529   4.557  14.723 -0.0163 -0.4112  0.2352
11217TIP3   OH255141   5.324   3.009  13.736 -0.0343 -0.2769 -0.4067
11217TIP3    H155142   5.405   3.054  13.711 -0.2404 -0.4554 -1.3954
11217TIP3    H255143   5.267   3.016  13.660 -1.1769  0.3315  0.4759
11218TIP3   OH255144   0.971   3.734  11.234  0.0466 -0.3542 -0.4038
11218TIP3    H155145   1.026   3.811  11.219  1.3858 -1.4207 -1.2000
11218TIP3    H255146   0.992   3.707  11.324 -1.1061  0.7120  0.2043
11219TIP3   OH255147   5.526   4.375  14.232  0.0133  0.4810  0.3507
11219TIP3    H155148   5.560   4.407  14.149 -0.2319  0.8997  0.4064
11219TIP3    H255149   5.589   4.308  14.261  1.1578  1.7054  0.7895
11220TIP3   OH255150   2.250   2.132  16.182  0.5363  0.1999  0.0227
11220TIP3    H155151   2.221   2.053  16.228 -0.4989 -0.2432 -1.3265
11220TIP3    H255152   2.328   2.104  16.134  0.4028  0.0989 -0.1375
11221TIP3   OH255153   4.448   1.817   6.258  0.0867  0.9975  0.1037
11221TIP3    H155154   4.380   1.859   6.205 -0.7783  0.2551  0.5959
11221TIP3    H255155   4.417   1.728   6.272  0.8338  0.8433  0.9120
11222TIP3   OH255156   2.732   3.060   4.286 -0.7036 -0.7059  0.2972
11222TIP3    H155157   2.770   2.998   4.348 -1.9738 -0.8898  0.9279
11222TIP3    H255158   2.649   3.020   4.259 -1.2916  0.4599  0.3016
11223TIP3   OH255159   5.572   0.697  14.043 -0.5932 -0.1453 -0.0600
11223TIP3    H155160   5.552   0.783  14.006 -1.0697 -0.9024 -1.6485
11223TIP3    H255161   5.556   0.636  13.971 -0.3590 -1.5783  1.0669
11224TIP3   OH255162   6.416   0.056  16.228  0.8637  0.5742 -0.0644
11224TIP3    H155163   6.460  -0.009  16.283  0.0422 -1.2998 -1.5195
11224TIP3    H255164   6.327   0.060  16.262  0.1323 -1.1684 -1.6614
11225TIP3   OH255165   4.532   0.658  16.454  0.0476 -0.3083 -0.6729
11225TIP3    H155166   4.467   0.587  16.455  0.4940 -0.7453  0.7938
11225TIP3    H255167   4.484   0.735  16.485  0.3888 -0.8463  1.3503
11226TIP3   OH255168   0.664   0.516  15.794 -0.1388  0.7677 -0.1675
11226TIP3    H155169   0.743   0.478  15.757  0.7057  0.4614  1.8478
11226TIP3    H255170   0.687   0.539  15.884 -2.8401 -1.0292  1.1192
11227TIP3   OH255171   3.058   5.573  13.511  0.2084  0.1691  0.4600
11227TIP3    H155172   3.034   5.481  13.495  0.7076  0.1893 -0.4382
11227TIP3    H255173   2.977   5.621  13.496  0.7906  0.2880 -3.0256
11228TIP3   OH255174   0.404   2.551   6.492 -0.1208  0.5727  0.2965
11228TIP3    H155175   0.445   2.585   6.413  0.9053 -0.0518  0.5543
11228TIP3    H255176   0.426   2.615   6.560 -0.2573  0.6451  0.2748
11229TIP3   OH255177   5.401   2.801  12.657  0.1886 -0.5949 -0.2771
11229TIP3    H155178   5.495   2.790  12.674  0.7713 -0.1663 -2.7607
11229TIP3    H255179   5.359   2.729  12.703  1.3230  0.9948  3.5814
11230TIP3   OH255180   3.952   3.724   5.165  0.3902  0.4100 -0.4108
11230TIP3    H155181   4.027   3.765   5.122 -0.7066  0.5430 -2.2875
11230TIP3    H255182   3.878   3.783   5.147 -0.2097  0.3006  1.4200
11231TIP3   OH255183   4.228   0.583   2.885 -0.3084 -0.1358  0.4043
11231TIP3    H155184   4.279   0.544   2.956 -0.2309 -0.1955  0.3166
11231TIP3    H255185   4.141   0.542   2.892 -0.7016  0.8208  1.2741
11232TIP3   OH255186   2.415   6.313   3.716 -0.2164 -0.4378 -0.0641
11232TIP3    H155187   2.478   6.265   3.662 -0.1773 -0.9807  0.4682
11232TIP3    H255188   2.470   6.363   3.777 -0.2818 -0.2392 -0.1651
11233TIP3   OH255189   1.813   3.453   0.916 -0.2472  0.3755  0.2553
11233TIP3    H155190   1.751   3.516   0.953 -2.5310 -1.9592  0.6688
11233TIP3    H255191   1.760   3.377   0.894  2.5759 -2.0808  1.3156
11234TIP3   OH255192   1.994   4.602  12.848  0.5077 -0.8173  0.0296
11234TIP3    H155193   1.934   4.576  12.778 -0.6428  0.9722  0.2790
11234TIP3    H255194   1.958   4.561  12.927 -0.9462  0.8815  0.3197
11235TIP3   OH255195   0.078   1.360   0.360 -0.8603  0.1228  0.1501
11235TIP3    H155196   0.081   1.416   0.282  1.6236  0.4451  0.3995
11235TIP3    H255197   0.046   1.418   0.429  1.1006  1.1648  0.2705
11236TIP3   OH255198   2.366   3.187  11.415  0.4000 -0.0289  0.3042
11236TIP3    H155199   2.435   3.213  11.353  0.5028  0.5284  0.6430
11236TIP3    H255200   2.312   3.125  11.366  0.0977  0.9024 -0.5776
11237TIP3   OH255201   3.223   5.512   3.247 -0.2092  0.1122  0.1877
11237TIP3    H155202   3.141   5.508   3.297 -0.9987  0.4145 -1.0410
11237TIP3    H255203   3.242   5.421   3.225  0.8413 -0.1686  2.0914
11238TIP3   OH255204   0.140   3.009   1.846 -0.8063  0.6621  0.2360
11238TIP3    H155205   0.134   3.094   1.802  0.5990  0.2667 -0.7770
11238TIP3    H255206   0.065   2.959   1.813  1.1106 -0.2279 -3.1640
11239TIP3   OH255207   6.209   2.072   5.972  0.3176 -0.2477  0.1758
11239TIP3    H155208   6.242   2.120   5.896 -1.4602 -0.2785 -0.6744
11239TIP3    H255209   6.186   1.986   5.937 -0.4110 -0.3024  0.7603
11240TIP3   OH255210   5.922   6.366   0.416  0.2431 -0.1597 -0.6490
11240TIP3    H155211   5.873   6.315   0.481  1.0602 -0.5922 -0.3572
11240TIP3    H255212   5.943   6.303   0.347  0.3391  0.0346 -0.7968
11241TIP3   OH255213   1.220   0.993   5.598  0.1093  0.0477 -0.6563
11241TIP3    H155214   1.280   1.040   5.656  1.3441 -0.6461 -1.3172
11241TIP3    H255215   1.164   1.062   5.561  0.4078  0.7018  0.0851
11242TIP3   OH255216   4.576   3.839  11.343  0.0476  0.1247  0.1224
11242TIP3    H155217   4.668   3.812  11.336 -0.6211 -1.9475 -2.0414
11242TIP3    H255218   4.561   3.892  11.265  0.0032  2.8329  1.8319
11243TIP3   OH255219   4.634   1.354   0.904  0.6241  0.1234 -0.1120
11243TIP3    H155220   4.583   1.333   0.825  0.8646 -1.3488  0.1074
11243TIP3    H255221   4.668   1.270   0.934  0.3425  0.6240  1.7135
11244TIP3   OH255222   5.770   5.234  11.931 -0.5949  0.0863  0.1789
11244TIP3    H155223   5.773   5.308  11.870  0.5950 -0.0707  0.0292
11244TIP3    H255224   5.768   5.157  11.874  0.2902 -0.0527  0.3130
11245TIP3   OH255225   4.954   0.465   6.384 -0.3714  0.3707  0.0528
11245TIP3    H155226   5.048   0.455   6.368 -0.1933  1.2237  0.5525
11245TIP3    H255227   4.919   0.377   6.367  0.4519  0.1232 -0.4957
11246TIP3   OH255228   5.343   2.648  14.432 -0.0873  0.0892 -0.5856
11246TIP3    H155229   5.256   2.688  14.423 -0.8491 -1.5663 -0.9537
11246TIP3    H255230   5.383   2.657  14.346 -0.0578  0.4547 -0.5369
11247TIP3   OH255231   5.491   0.604   5.434  0.6456 -0.1477 -0.4929
11247TIP3    H155232   5.510   0.622   5.526 -0.9423  0.1331 -0.2024
11247TIP3    H255233   5.530   0.517   5.418  1.9701  0.3153  0.0843
11248TIP3   OH255234   4.866   0.046   1.956 -0.0550  0.7668  0.0300
11248TIP3    H155235   4.801   0.079   2.018  0.0120 -0.3057  0.7114
11248TIP3    H255236   4.919   0.122   1.934 -0.3215  1.2528  0.9977
11249TIP3   OH255237   6.798   2.000  16.484 -0.3829  0.7307 -0.6233
11249TIP3    H155238   6.814   1.922  16.431 -1.2257  0.2422 -0.1749
11249TIP3    H255239   6.874   2.006  16.542 -0.8118 -0.3741  0.0738
11250TIP3   OH255240   1.980   1.973  12.045 -0.2999 -0.2605 -0.0638
11250TIP3    H155241   1.920   2.003  11.977 -1.1684  0.7147  1.0934
11250TIP3    H255242   2.015   2.054  12.083  1.5558 -0.7947 -0.4973
11251TIP3   OH255243   3.609   0.002  17.086  0.3457 -0.5572  0.0052
11251TIP3    H155244   3.664  -0.057  17.138  1.3025 -1.2692 -1.7632
11251TIP3    H255245   3.671   0.058  17.039 -0.5187  0.3989 -0.0258
11252TIP3   OH255246   2.090   1.511   0.139 -0.0323  0.1211 -1.1003
11252TIP3    H155247   2.157   1.539   0.201  1.1429 -0.2218 -2.1675
11252TIP3    H255248   2.043   1.591   0.116 -0.5625  0.2345  0.2809
11253TIP3   OH255249   6.587   1.930  14.192 -0.1417  0.0624  0.0969
11253TIP3    H155250   6.669   1.899  14.152 -0.4990 -1.4736  0.5070
11253TIP3    H255251   6.615   1.972  14.273  0.2986  0.1191 -0.0799
11254TIP3   OH255252   0.070   3.379   3.190 -0.1587  0.4505 -0.0193
11254TIP3    H155253  -0.006   3.383   3.249  0.9452  0.7450  1.4480
11254TIP3    H255254   0.125   3.451   3.218  1.6172 -0.9766  0.3131
11255TIP3   OH255255   0.209   1.982   1.229 -0.0684 -0.2090  0.1397
11255TIP3    H155256   0.273   1.923   1.269 -1.4214 -1.9779 -0.2292
11255TIP3    H255257   0.124   1.945   1.252 -0.9745  1.6477 -0.0702
11256TIP3   OH255258   6.132   6.079   2.450 -0.1432  0.1790 -0.1322
11256TIP3    H155259   6.155   6.101   2.540  4.4192  0.7250 -1.1560
11256TIP3    H255260   6.102   6.161   2.411  1.2600  0.8154  0.0795
11257TIP3   OH255261   0.793   0.928   2.139  0.0235 -0.0198 -0.6184
11257TIP3    H155262   0.816   1.004   2.193  1.0691 -1.2137  0.6808
11257TIP3    H255263   0.857   0.928   2.068 -0.7948  1.0401 -1.3795
11258TIP3   OH255264   4.251   1.832  11.671 -0.0731  1.2270  0.7678
11258TIP3    H155265   4.285   1.779  11.599  1.9338  1.2301  1.6597
11258TIP3    H255266   4.265   1.922  11.644  1.1445  1.2233  1.3522
11259TIP3   OH255267   0.583   6.772  14.921 -0.5010 -0.0767  0.5974
11259TIP3    H155268   0.615   6.703  14.980 -1.7773 -1.1027  0.1564
11259TIP3    H255269   0.517   6.728  14.867 -0.4585  1.2116 -0.5573
11260TIP3   OH255270   3.448   5.865  12.970  0.4405 -0.1554 -0.3070
11260TIP3    H155271   3.460   5.957  12.947  1.5683 -0.5498 -1.4659
11260TIP3    H255272   3.434   5.864  13.064 -1.5764  1.3510 -0.5230
11261TIP3   OH255273   1.465   1.480  16.531 -0.7384  0.7219 -0.4971
11261TIP3    H155274   1.439   1.389  16.528  1.5828 -0.0451  0.1574
11261TIP3    H255275   1.387   1.529  16.506 -1.5313 -1.5008 -2.7732
11262TIP3   OH255276   4.710   6.050  11.924  0.1606  0.7022 -0.1676
11262TIP3    H155277   4.789   6.034  11.872  0.5335 -0.0197  0.6011
11262TIP3    H255278   4.722   6.138  11.958  0.4321  0.7571 -0.3991
11263TIP3   OH255279   4.292   4.293   3.281 -0.2438  0.3016  0.2385
11263TIP3    H155280   4.338   4.376   3.291  0.2865  0.0889 -0.3657
11263TIP3    H255281   4.278   4.284   3.186  1.2792 -1.1092  0.0985
11264TIP3   OH255282   5.816   1.553  16.296 -0.3038 -0.5476  0.2523
11264TIP3    H155283   5.905   1.585  16.310 -0.5330  1.6469 -2.4003
11264TIP3    H255284   5.813   1.470  16.343  3.5662 -1.3571 -0.5382
11265TIP3   OH255285   1.141   1.042   0.147  0.2763 -0.7997 -0.4147
11265TIP3    H155286   1.102   1.125   0.121 -0.6413 -0.9568  0.3835
11265TIP3    H255287   1.229   1.065   0.178  0.3178 -0.2447 -0.9355
11266TIP3   OH255288   3.299   1.926   0.361  0.2609 -0.4115  0.6705
11266TIP3    H155289   3.209   1.957   0.371 -0.0867 -0.1670 -2.3341
11266TIP3    H255290   3.289   1.831   0.347  0.2787 -0.2168 -0.8952
11267TIP3   OH255291   3.484   1.919   3.720  0.6239 -0.0138  0.2959
11267TIP3    H155292   3.419   1.892   3.655  0.2456  0.2207  0.5738
11267TIP3    H255293   3.489   1.846   3.781  1.3032 -0.4178 -0.2406
11268TIP3   OH255294   2.433   1.382   0.640  0.2586  0.0767  0.2037
11268TIP3    H155295   2.492   1.409   0.711 -0.5395  0.5354  0.7127
11268TIP3    H255296   2.414   1.464   0.594 -1.7104  0.3333  1.3880
11269TIP3   OH255297   4.800   2.938  12.091 -0.2293  0.1208  0.1332
11269TIP3    H155298   4.882   2.959  12.134 -0.9961 -0.5183  2.0220
11269TIP3    H255299   4.782   2.848  12.118 -0.3778 -0.6183 -2.2163
11270TIP3   OH255300   3.952   0.593  11.780  0.2066 -0.1429  0.0304
11270TIP3    H155301   3.894   0.563  11.850  0.2606 -0.2158  0.0442
11270TIP3    H255302   4.014   0.522  11.768  0.0127 -0.2611 -0.3019
11271TIP3   OH255303   3.492   2.808  14.005  0.4318 -0.0490  0.4329
11271TIP3    H155304   3.423   2.805  13.939 -0.1641  1.4850  0.9406
11271TIP3    H255305   3.557   2.868  13.969  0.5802  0.0190  0.8079
11272TIP3   OH255306   5.078   2.619  14.495 -0.1731 -0.0354 -0.0934
11272TIP3    H155307   5.105   2.529  14.514  0.5753 -0.2932 -2.1590
11272TIP3    H255308   5.044   2.651  14.578  3.1019 -0.9241  1.7737
11273TIP3   OH255309   4.195   0.977   0.262  0.0548  0.0208 -0.2505
11273TIP3    H155310   4.160   0.948   0.177  0.4745  0.1187 -0.4561
11273TIP3    H255311   4.202   0.897   0.313 -0.3194 -0.0228 -0.2624
11274TIP3   OH255312   0.017   1.460  13.039  0.0918  0.1130  0.2563
11274TIP3    H155313  -0.075   1.440  13.022 -0.4393  1.8702  0.8978
11274TIP3    H255314   0.026   1.553  13.020  1.6122  0.0968  0.7425
11275TIP3   OH255315   0.237   4.627   5.110 -0.6989 -0.1543  0.3958
11275TIP3    H155316   0.165   4.595   5.056 -0.0683  0.0517 -0.5916
11275TIP3    H255317   0.316   4.595   5.067 -0.1617  0.3861  0.9510
11276TIP3   OH255318   6.447   5.292  13.245  0.5167  0.0281  0.4160
11276TIP3    H155319   6.365   5.268  13.287  0.4973 -1.1986 -0.2796
11276TIP3    H255320   6.515   5.264  13.306  0.4461  1.1705  1.0561
11277TIP3   OH255321   3.907   2.603   2.503 -0.7203 -0.3100 -0.3201
11277TIP3    H155322   3.978   2.539   2.506 -0.9432 -0.6086 -1.1716
11277TIP3    H255323   3.949   2.684   2.473  0.5596  1.3881  4.8859
11278TIP3   OH255324   4.472   3.308  12.976 -0.1507 -0.1087  0.0338
11278TIP3    H155325   4.530   3.244  13.017  1.1807  0.5729 -0.7249
11278TIP3    H255326   4.521   3.341  12.901 -2.3729 -1.0732 -1.9869
11279TIP3   OH255327   1.446   6.516   4.690  0.2096 -0.4369  0.3194
11279TIP3    H155328   1.497   6.501   4.769 -1.6076 -2.1115  1.2734
11279TIP3    H255329   1.485   6.594   4.650  1.2043  0.4466  2.8225
11280TIP3   OH255330   5.767   2.940  16.223  0.2523 -0.6609  0.1762
11280TIP3    H155331   5.816   2.956  16.304 -1.4562  0.2138  1.0805
11280TIP3    H255332   5.685   2.900  16.252  0.0174 -1.2519 -1.2219
11281TIP3   OH255333   6.302   4.127   0.675 -0.1331  0.9240 -0.1096
11281TIP3    H155334   6.370   4.075   0.632  0.9680  0.4203  2.0976
11281TIP3    H255335   6.237   4.062   0.702 -0.0320  1.0255  0.3792
11282TIP3   OH255336   2.113   6.722   3.924  0.4401 -0.7045 -0.1867
11282TIP3    H155337   2.207   6.738   3.924  0.2198  0.7440 -1.1139
11282TIP3    H255338   2.083   6.753   3.839 -1.0663  0.0367  0.5665
11283TIP3   OH255339   5.745   0.606  14.946  0.1416 -0.6199  0.0925
11283TIP3    H155340   5.687   0.533  14.965  1.0248 -1.2363  0.4953
11283TIP3    H255341   5.692   0.684  14.963 -1.2854 -1.1213 -1.7758
11284TIP3   OH255342   5.118   5.099  10.386  0.0587  0.1688  0.1092
11284TIP3    H155343   5.187   5.033  10.374 -1.6216 -2.1281  2.0552
11284TIP3    H255344   5.132   5.134  10.473 -0.8636  0.0853  0.3078
11285TIP3   OH255345   2.408   2.724  10.704 -0.2980  0.4709  0.5416
11285TIP3    H155346   2.500   2.726  10.731 -0.3108  0.8612  0.5700
11285TIP3    H255347   2.411   2.709  10.610 -0.2776 -1.7282  0.8480
11286TIP3   OH255348   3.220   0.735  10.883 -0.0618  0.9050  0.1469
11286TIP3    H155349   3.306   0.773  10.902 -0.0201 -0.3020  2.6979
11286TIP3    H255350   3.239   0.646  10.856 -0.4979  0.6512  0.6739
11287TIP3   OH255351   2.747   1.605  10.992 -0.7029 -0.4399  0.0047
11287TIP3    H155352   2.721   1.516  11.016 -0.2146 -0.6146 -0.0992
11287TIP3    H255353   2.799   1.635  11.066 -1.0037 -0.1783  0.1117
11288TIP3   OH255354   6.148   5.202  12.259  0.0113 -0.4438 -0.4606
11288TIP3    H155355   6.228   5.154  12.236 -0.2460 -0.5077 -1.2566
11288TIP3    H255356   6.077   5.145  12.232 -0.3490 -0.8992  1.2887
11289TIP3   OH255357   3.175   5.544   5.432  0.0343 -0.0297  0.2685
11289TIP3    H155358   3.234   5.540   5.507  0.1900  1.0260  0.2190
11289TIP3    H255359   3.168   5.637   5.412 -0.9433 -0.2084 -0.2885
11290TIP3   OH255360   4.067   2.343   6.372  0.2355  0.2574 -0.4373
11290TIP3    H155361   4.163   2.340   6.371  0.2197 -0.2610 -0.5590
11290TIP3    H255362   4.042   2.290   6.448  0.0714  1.3497  0.2952
11291TIP3   OH255363   3.737   5.511   0.782 -0.1126 -0.2312 -0.8333
11291TIP3    H155364   3.747   5.418   0.764  0.2810 -0.2693 -0.4468
11291TIP3    H255365   3.644   5.524   0.796 -0.5652 -0.0712 -3.5489
11292TIP3   OH255366   5.927   2.651   3.572 -0.3492 -0.3230 -0.4892
11292TIP3    H155367   5.923   2.555   3.579  0.4041 -0.3124  0.2596
11292TIP3    H255368   6.004   2.667   3.517 -0.9185 -0.1535 -1.2592
11293TIP3   OH255369   0.605   0.963   5.781 -1.2717 -0.4189  0.0858
11293TIP3    H155370   0.535   0.898   5.791  0.7099 -2.8438 -0.6447
11293TIP3    H255371   0.678   0.926   5.831  0.3662  0.5964 -1.4568
11294TIP3   OH255372   5.668   1.861   1.326  0.5344 -0.2573 -0.1512
11294TIP3    H155373   5.691   1.865   1.233  1.1870 -1.3784 -0.0672
11294TIP3    H255374   5.625   1.776   1.335 -0.0028  0.0761  0.4821
11295TIP3   OH255375   4.301   1.981   4.753  0.9423  0.0110 -0.7868
11295TIP3    H155376   4.279   1.929   4.677  1.0118  0.7137 -1.2999
11295TIP3    H255377   4.353   1.923   4.809 -1.3738 -1.4270  0.0381
11296TIP3   OH255378   1.778   2.071  16.663 -0.3411  0.0626 -0.1187
11296TIP3    H155379   1.691   2.067  16.624  0.3019 -0.3091 -1.5685
11296TIP3    H255380   1.762   2.093  16.755 -1.9274  0.5415 -0.4809
11297TIP3   OH255381   5.167   1.361  14.989  0.1159  0.4778 -0.2822
11297TIP3    H155382   5.124   1.278  15.008  1.0706  0.2460  1.0239
11297TIP3    H255383   5.103   1.410  14.938 -2.0530  0.5010  2.2765
11298TIP3   OH255384   1.669   5.189  11.450 -0.2718 -0.0591 -0.6310
11298TIP3    H155385   1.632   5.130  11.516  2.3648 -2.6170 -1.1989
11298TIP3    H255386   1.724   5.250  11.500 -0.6224 -0.0643 -0.2408
11299TIP3   OH255387   3.245   5.006   4.403 -0.0414 -0.1683 -0.2054
11299TIP3    H155388   3.180   4.985   4.336  0.7160  0.6858 -1.2511
11299TIP3    H255389   3.309   5.061   4.358  0.5844  0.3027  1.1908
11300TIP3   OH255390   0.904   0.504   4.326  0.8043 -0.1017 -0.5956
11300TIP3    H155391   0.871   0.493   4.237  0.8129 -0.8675 -0.5140
11300TIP3    H255392   0.891   0.596   4.346 -1.7108 -0.4379 -0.3976
11301TIP3   OH255393   4.115   1.050   6.255 -0.1539 -0.7958 -0.1618
11301TIP3    H155394   4.164   0.968   6.244 -0.1266 -0.9789  1.1637
11301TIP3    H255395   4.044   1.044   6.191 -0.7369 -2.3134  0.5717
11302TIP3   OH255396   3.857   1.384   6.097  0.3207 -0.1267  1.1158
11302TIP3    H155397   3.783   1.326   6.082  0.0112  0.4939  0.0763
11302TIP3    H255398   3.880   1.371   6.189  0.2377 -1.8318  0.9280
11303TIP3   OH255399   0.630   0.186  13.800 -0.3722 -0.5728  0.1721
11303TIP3    H155400   0.673   0.271  13.793 -1.5950  0.0535 -0.0505
11303TIP3    H255401   0.695   0.129  13.840  0.2679  0.6177  0.8660
11304TIP3   OH255402   6.090   4.868   5.265  0.2121 -0.3497  0.3318
11304TIP3    H155403   6.126   4.779   5.257  1.5497  0.2211 -0.3200
11304TIP3    H255404   6.157   4.924   5.226 -0.5517  0.9657  0.8629
11305TIP3   OH255405   1.594   5.258   4.180  0.2584 -0.2173 -0.2658
11305TIP3    H155406   1.611   5.214   4.263 -2.2195 -0.8112  0.0294
11305TIP3    H255407   1.591   5.351   4.202  1.1409 -0.2459 -0.0073
11306TIP3   OH255408   5.336   3.619  15.235  0.3174  0.7463  0.1940
11306TIP3    H155409   5.320   3.712  15.252 -0.5972  0.7073 -0.4242
11306TIP3    H255410   5.267   3.573  15.282  0.8669  0.3609  0.6398
11307TIP3   OH255411   2.173   3.841  15.012  0.1651  0.4322  0.7115
11307TIP3    H155412   2.254   3.882  15.042  0.4273  0.3513  0.1248
11307TIP3    H255413   2.153   3.775  15.078  0.5261  0.5166  0.9030
11308TIP3   OH255414   3.664   4.365   3.648 -0.0068  0.2844 -0.0383
11308TIP3    H155415   3.587   4.313   3.623 -1.3440  0.7768  2.6803
11308TIP3    H255416   3.708   4.313   3.715 -0.4135  1.8200  1.5046
11309TIP3   OH255417   1.531   6.722   4.538  0.1929  0.0032  0.3462
11309TIP3    H155418   1.501   6.704   4.449  0.7649  1.3926 -0.1511
11309TIP3    H255419   1.585   6.801   4.530 -0.2261  0.5027  2.0122
11310TIP3   OH255420   5.489   0.215  14.889  0.4832  0.2999 -0.6333
11310TIP3    H155421   5.458   0.140  14.838  0.1354 -0.3020  0.4453
11310TIP3    H255422   5.571   0.185  14.929  1.8080  1.4150 -2.3376
11311TIP3   OH255423   1.536   5.539   2.299  0.1047 -0.1849 -0.2305
11311TIP3    H155424   1.558   5.448   2.283  1.1581 -0.0347  0.3224
11311TIP3    H255425   1.492   5.539   2.384 -1.1160 -0.3368 -0.8368
11312TIP3   OH255426   4.730   4.513  16.195  0.3282 -0.1088 -0.0706
11312TIP3    H155427   4.774   4.589  16.234 -0.1978  0.1362  0.0525
11312TIP3    H255428   4.731   4.530  16.101 -1.5778  1.0524  0.0667
11313TIP3   OH255429   5.459   3.111   0.005  0.0578  0.7675  0.1263
11313TIP3    H155430   5.456   3.021   0.037 -0.8595  1.5328  2.3961
11313TIP3    H255431   5.392   3.114  -0.064 -0.4220 -0.1187  0.5382
11314TIP3   OH255432   1.122   3.230  15.337  0.4722 -0.4696 -0.2533
11314TIP3    H155433   1.176   3.151  15.335 -0.1252 -0.8813 -1.2542
11314TIP3    H255434   1.032   3.197  15.344 -0.1045 -0.1379 -3.9831
11315TIP3   OH255435   5.290   4.858  15.203  0.3287  0.0777  0.5682
11315TIP3    H155436   5.259   4.887  15.289  4.5011 -0.1462  2.3711
11315TIP3    H255437   5.290   4.762  15.209  1.4085  0.0781  0.6634
11316TIP3   OH255438   5.166   5.995  11.102  0.0836 -0.2473  0.5058
11316TIP3    H155439   5.248   5.967  11.142 -0.8813  0.5730  3.3093
11316TIP3    H255440   5.174   6.090  11.094  0.4095 -0.4195 -1.8069
11317TIP3   OH255441   6.460   5.202  12.920 -0.4514 -0.2289 -0.0845
11317TIP3    H155442   6.527   5.139  12.947  1.6049  1.2005 -1.6365
11317TIP3    H255443   6.420   5.231  13.003  1.9884  0.0972  1.0605
11318TIP3   OH255444   6.114   1.950  15.840 -0.3451  0.3220 -0.0161
11318TIP3    H155445   6.163   2.026  15.872 -0.9532  1.0030 -0.6810
11318TIP3    H255446   6.180   1.881  15.831  0.5300  1.2788 -1.0850
11319TIP3   OH255447   0.209   0.183   3.455 -0.5242  0.2411  0.6307
11319TIP3    H155448   0.258   0.168   3.374 -1.7498 -0.4004 -0.0169
11319TIP3    H255449   0.241   0.116   3.515 -0.6695 -0.2280  0.1863
11320TIP3   OH255450   0.869   3.777  16.092  0.1174  0.8659  0.0501
11320TIP3    H155451   0.805   3.705  16.086 -1.4829  2.1205  1.3055
11320TIP3    H255452   0.921   3.756  16.169 -0.1513  0.9168  0.2436
11321TIP3   OH255453   3.352   4.561  15.448  0.2011 -0.7145  0.2091
11321TIP3    H155454   3.364   4.579  15.355  1.4898 -0.9315  0.3159
11321TIP3    H255455   3.337   4.466  15.452  0.9577 -0.8368  0.2806
11322TIP3   OH255456   3.881   4.321   0.407  0.2682 -0.3235 -0.0506
11322TIP3    H155457   3.969   4.345   0.439 -0.3675  0.7502  1.0043
11322TIP3    H255458   3.864   4.236   0.446  0.3166  0.0761  0.8741
11323TIP3   OH255459   4.382   0.173  11.084 -0.0564 -0.3972  0.6588
11323TIP3    H155460   4.315   0.149  11.149  1.1321  0.8241  2.4053
11323TIP3    H255461   4.332   0.199  11.007 -1.5385 -1.0921  1.3418
11324TIP3   OH255462   3.174   5.646   2.323  0.1771  0.2853 -0.1288
11324TIP3    H155463   3.235   5.708   2.364  0.7646  0.2613 -0.9364
11324TIP3    H255464   3.147   5.588   2.395  0.4362  0.8262  0.4165
11325TIP3   OH255465   4.148   5.493  15.589 -0.0147  0.1253 -0.2593
11325TIP3    H155466   4.142   5.437  15.667  1.6284  2.6745  1.8693
11325TIP3    H255467   4.188   5.437  15.523 -0.0040 -1.6882  1.1967
11326TIP3   OH255468   1.206   5.655   4.476  0.0793 -0.5022  0.2414
11326TIP3    H155469   1.253   5.589   4.425 -0.1467 -0.3060 -0.2236
11326TIP3    H255470   1.196   5.615   4.563  1.0112 -0.5816  0.3161
11327TIP3   OH255471   3.825   3.684   4.527  0.2397  0.2770  0.0499
11327TIP3    H155472   3.819   3.727   4.442  0.6254 -1.0190 -0.6687
11327TIP3    H255473   3.734   3.669   4.553  0.0819  1.9415  0.5716
11328TIP3   OH255474   1.997   3.099  11.374 -0.2253  0.5238  0.5088
11328TIP3    H155475   2.037   3.013  11.362 -2.9312 -0.8648  0.6383
11328TIP3    H255476   1.993   3.111  11.469  0.6837  1.1176  0.4901
11329TIP3   OH255477   5.128   1.870   6.519  0.1779  0.4605 -0.0723
11329TIP3    H155478   5.072   1.837   6.448  1.2138  0.6597 -1.0110
11329TIP3    H255479   5.085   1.951   6.547  0.7313  1.4002 -1.7924
11330TIP3   OH255480   3.062   5.259  16.643  0.3979  0.1478  0.4111
11330TIP3    H155481   3.097   5.241  16.556  0.4838 -2.9668  0.9958
11330TIP3    H255482   2.985   5.314  16.626  1.5940  1.3807 -1.4022
11331TIP3   OH255483   6.244   4.263  15.604 -0.3035 -0.4018  0.4926
11331TIP3    H155484   6.268   4.178  15.568 -0.5180 -0.2059 -0.1302
11331TIP3    H255485   6.323   4.292  15.651 -0.2663 -0.9862  0.8049
11332TIP3   OH255486   2.001   2.780  11.078  0.4242 -0.1781  0.7208
11332TIP3    H155487   2.051   2.847  11.031  0.9105  0.9482  2.7397
11332TIP3    H255488   1.910   2.800  11.058  0.6201  0.1074  0.0697
11333TIP3   OH255489   4.454   0.546  15.911 -0.7080 -0.0425 -0.8965
11333TIP3    H155490   4.507   0.626  15.910 -0.4700 -0.2008 -1.0844
11333TIP3    H255491   4.364   0.576  15.908 -0.6125  0.2115 -1.2150
11334TIP3   OH255492   2.008   4.640  15.092  0.5943  0.0468  0.5827
11334TIP3    H155493   2.074   4.600  15.149 -0.1773 -1.5184  0.4262
11334TIP3    H255494   1.989   4.572  15.027 -0.1772  0.9824 -0.1923
11335TIP3   OH255495   3.771   3.011  14.571  0.5837 -0.6660 -0.4963
11335TIP3    H155496   3.860   3.045  14.582  0.2404  0.0152  0.3037
11335TIP3    H255497   3.724   3.081  14.527 -0.4864  0.5559  2.3925
11336TIP3   OH255498   1.974   1.228  13.385  0.1343 -0.3436  0.4429
11336TIP3    H155499   1.920   1.223  13.464 -0.0355  0.8028  0.4220
11336TIP3    H255500   2.043   1.292  13.407  0.3387 -0.3404 -0.1847
11337TIP3   OH255501   1.562   0.262   1.569  0.4202 -0.5317  0.1575
11337TIP3    H155502   1.613   0.189   1.534  0.9070 -1.1165  1.9801
11337TIP3    H255503   1.607   0.340   1.537  0.9295 -1.0357 -0.3849
11338TIP3   OH255504   6.367   3.387   5.579 -0.2610  0.1566  0.0087
11338TIP3    H155505   6.431   3.439   5.628  0.2000  1.3799 -1.8054
11338TIP3    H255506   6.391   3.296   5.598 -0.3410  0.5664  2.2893
11339TIP3   OH255507   3.309   2.978   2.436  0.2062 -0.0561  0.1625
11339TIP3    H155508   3.339   3.021   2.516 -2.1513  0.1371  1.0343
11339TIP3    H255509   3.216   2.962   2.451 -0.0956 -0.9053 -2.1749
11340TIP3   OH255510   1.701   3.489  10.446 -0.0982 -0.2483  0.6703
11340TIP3    H155511   1.782   3.469  10.494  0.8653 -0.3890 -0.9220
11340TIP3    H255512   1.700   3.425  10.375 -0.8139  0.7456 -0.2296
11341TIP3   OH255513   2.871   5.596  15.973  0.5029 -0.1361  0.1513
11341TIP3    H155514   2.923   5.607  15.894  2.3246 -0.4827  1.2349
11341TIP3    H255515   2.835   5.508  15.966  0.6661 -0.1689 -0.2984
11342TIP3   OH255516   3.502   2.772   1.311  0.0383 -0.3534 -0.0028
11342TIP3    H155517   3.579   2.725   1.278  1.0562  1.3631 -0.2305
11342TIP3    H255518   3.501   2.854   1.262  0.2593  1.3054  2.5447
11343TIP3   OH255519   4.641   0.444   1.540  0.2724 -0.2439 -0.0624
11343TIP3    H155520   4.709   0.424   1.604  0.7064 -0.1053 -0.4814
11343TIP3    H255521   4.635   0.365   1.486  1.3646  0.3911 -1.1571
11344TIP3   OH255522   2.889   6.395   3.370  0.0710 -0.0734 -0.5022
11344TIP3    H155523   2.881   6.452   3.447  1.6427 -0.7887  0.2262
11344TIP3    H255524   2.907   6.455   3.297  2.8945  0.3751  0.4492
11345TIP3   OH255525   5.170   3.386   5.000 -0.5530 -0.5706  0.8386
11345TIP3    H155526   5.135   3.467   4.963  2.2766  0.8423  1.0367
11345TIP3    H255527   5.229   3.352   4.932  0.4632 -0.9107  1.8653
11346TIP3   OH255528   5.884   3.915   2.397  0.2361  0.0477 -0.0650
11346TIP3    H155529   5.979   3.913   2.383  0.4124  0.0476  1.0558
11346TIP3    H255530   5.852   3.981   2.336  1.0992  0.7912  0.2671
11347TIP3   OH255531   0.092   0.177   4.653 -0.0315  0.0315 -0.3053
11347TIP3    H155532   0.095   0.200   4.560  2.5826  1.2220 -0.0254
11347TIP3    H255533   0.114   0.259   4.698  1.0292 -1.0529  1.2332
11348TIP3   OH255534   0.832   1.762  13.630 -1.0367 -0.4667 -0.1303
11348TIP3    H155535   0.834   1.856  13.615  0.2585 -0.4336  0.0809
11348TIP3    H255536   0.793   1.726  13.550  0.4233  0.1152 -1.1539
11349TIP3   OH255537   6.172   0.398   6.370  0.3242 -0.4935  0.4613
11349TIP3    H155538   6.113   0.323   6.361  1.2472 -1.1042 -0.6125
11349TIP3    H255539   6.113   0.473   6.377 -0.5930 -1.0627 -0.7951
11350TIP3   OH255540   0.637   0.868   5.065 -0.3047 -0.0006  0.0676
11350TIP3    H155541   0.681   0.914   5.136 -0.7188  0.5451 -0.0131
11350TIP3    H255542   0.681   0.899   4.986 -1.3812  1.2450 -0.0852
11351TIP3   OH255543   1.729   5.522   0.274  0.1351 -0.1688  0.8502
11351TIP3    H155544   1.638   5.499   0.287  0.0858  0.6212  1.9811
11351TIP3    H255545   1.764   5.539   0.361  1.6422 -1.4161  0.5432
11352TIP3   OH255546   2.994   4.426  14.440  0.5188  0.3003 -0.1719
11352TIP3    H155547   3.003   4.417  14.345  0.1699  1.7079 -0.3567
11352TIP3    H255548   2.937   4.502  14.452  0.1984 -0.1210  1.1664
11353TIP3   OH255549   4.718   0.108  12.252 -0.1721  0.3156 -0.0290
11353TIP3    H155550   4.790   0.161  12.285  0.1125 -0.7964  1.2381
11353TIP3    H255551   4.646   0.170  12.240  1.3655  1.7225 -2.7672
11354TIP3   OH255552   4.263   4.854   1.491 -0.2974  0.1831  0.2517
11354TIP3    H155553   4.169   4.840   1.504 -0.0943 -0.0667  1.6188
11354TIP3    H255554   4.305   4.791   1.551  0.7578 -0.3170 -0.9625
11355TIP3   OH255555   6.395   6.831   5.439  0.0955  0.4743  0.0684
11355TIP3    H155556   6.407   6.806   5.348 -0.6670 -0.2506  0.1497
11355TIP3    H255557   6.480   6.815   5.481  0.3203  0.3895 -0.4206
11356TIP3   OH255558   4.717   2.896   1.547  0.2814 -0.7841 -0.1990
11356TIP3    H155559   4.662   2.846   1.486 -1.9952 -0.0739  1.1498
11356TIP3    H255560   4.701   2.987   1.524  1.6292 -0.5690 -0.3376
11357TIP3   OH255561   0.016   0.845  16.372  0.0263  0.3069  0.3545
11357TIP3    H155562   0.066   0.900  16.312  0.6095 -0.3384  0.2396
11357TIP3    H255563   0.057   0.759  16.366 -0.7056 -0.0787  0.7353
11358TIP3   OH255564   3.498   4.086  15.351 -0.1565 -0.1837 -0.0352
11358TIP3    H155565   3.428   4.020  15.351 -0.7423  0.3810  1.6042
11358TIP3    H255566   3.574   4.040  15.387 -0.3418 -0.1942  0.3507
11359TIP3   OH255567   2.478   5.551  13.877  0.2721  0.5234 -0.0154
11359TIP3    H155568   2.389   5.571  13.849  0.4486 -0.3285 -1.3000
11359TIP3    H255569   2.534   5.604  13.820  0.6037  0.5874  0.3644
11360TIP3   OH255570   5.897   5.652   2.856 -0.1680  0.5080 -0.1030
11360TIP3    H155571   5.813   5.609   2.844 -0.2059  0.8247 -1.0486
11360TIP3    H255572   5.876   5.745   2.857  0.1712  0.5868 -0.3128
11361TIP3   OH255573   3.651   6.148   4.154  0.1010  0.0157 -0.2131
11361TIP3    H155574   3.733   6.147   4.203 -0.4105 -0.7744  0.6381
11361TIP3    H255575   3.583   6.159   4.220 -0.6157 -1.2150 -0.7190
11362TIP3   OH255576   2.666   2.752   4.513 -0.4102  0.4944  0.1346
11362TIP3    H155577   2.731   2.818   4.487 -0.3163  0.4136  0.1607
11362TIP3    H255578   2.673   2.685   4.445 -0.8258  0.7265 -0.1389
11363TIP3   OH255579   6.756   4.268  16.391 -0.6459 -0.0865 -0.4055
11363TIP3    H155580   6.832   4.279  16.334 -0.9621  2.7066 -0.4228
11363TIP3    H255581   6.793   4.251  16.478  0.0999  1.8945 -0.2835
11364TIP3   OH255582   1.963   5.880  16.333 -0.5016  0.1686 -0.1441
11364TIP3    H155583   1.975   5.816  16.263 -2.9622 -1.3751  0.7411
11364TIP3    H255584   1.918   5.953  16.291 -2.8607 -1.1603 -0.0763
11365TIP3   OH255585   4.980   6.445  12.899 -0.6455 -0.1599 -0.6290
11365TIP3    H155586   4.918   6.517  12.910 -1.5025 -0.6651 -1.8925
11365TIP3    H255587   5.025   6.465  12.818  2.5036  1.3391  1.3125
11366TIP3   OH255588   2.543   2.840  12.574 -0.1814  0.1584  0.1649
11366TIP3    H155589   2.498   2.922  12.592 -0.7633  0.0365 -0.6612
11366TIP3    H255590   2.483   2.792  12.516  1.0657  0.0569 -1.0861
11367TIP3   OH255591   0.732   4.285  12.496  0.3657  0.5550  0.3409
11367TIP3    H155592   0.785   4.346  12.547  0.2555 -0.3473  1.6127
11367TIP3    H255593   0.711   4.331  12.416  2.7655  1.0922 -0.0530
11368TIP3   OH255594   6.596   0.860  12.153 -0.3049 -0.9457  0.4099
11368TIP3    H155595   6.593   0.833  12.061  1.0696 -0.3590  0.1651
11368TIP3    H255596   6.534   0.933  12.158 -0.6039 -1.1656  0.0248
11369TIP3   OH255597   0.869   1.422  12.960 -0.3023  0.0018 -0.0023
11369TIP3    H155598   0.816   1.471  13.023  0.8369 -1.7775  2.5415
11369TIP3    H255599   0.917   1.489  12.911 -1.6431  1.4869  0.6604
11370TIP3   OH255600   0.250   4.996  13.857  0.1601  0.3561 -0.2550
11370TIP3    H155601   0.292   4.911  13.874 -1.8777 -0.5856  0.4018
11370TIP3    H255602   0.249   5.039  13.942 -2.6866 -0.8783  0.4507
11371TIP3   OH255603   3.347   4.922  12.475  0.1820 -0.5890  0.2352
11371TIP3    H155604   3.431   4.948  12.439 -0.5447 -0.2246 -1.3130
11371TIP3    H255605   3.304   5.004  12.499 -0.2001 -0.6706 -0.1391
11372TIP3   OH255606   6.063   4.892  14.978  0.0156  0.1946  0.1998
11372TIP3    H155607   6.024   4.968  14.934 -0.0822 -0.2912 -0.5634
11372TIP3    H255608   6.152   4.886  14.941 -0.0088 -0.1138  0.1882
11373TIP3   OH255609   2.470   5.986  15.714 -0.2823  0.4651  0.4683
11373TIP3    H155610   2.475   5.900  15.672 -1.6320  1.0501 -0.9663
11373TIP3    H255611   2.378   5.995  15.740  0.4055  0.2746  3.3517
11374TIP3   OH255612   5.191   5.409   2.785 -0.8939 -0.1127  0.5042
11374TIP3    H155613   5.240   5.450   2.856  0.8261 -1.0242 -0.1066
11374TIP3    H255614   5.210   5.463   2.708 -0.1469 -0.9524  0.0894
11375TIP3   OH255615   6.795   3.916  16.321 -0.1871 -0.2187  0.1878
11375TIP3    H155616   6.790   3.934  16.415 -1.7355 -0.1668  0.1152
11375TIP3    H255617   6.889   3.906  16.304  0.1108 -0.4160  1.7682
11376TIP3   OH255618   2.127   0.140   1.764  0.2273  0.1912 -0.7510
11376TIP3    H155619   2.110   0.215   1.821 -0.7575 -1.1982  0.8986
11376TIP3    H255620   2.062   0.148   1.694 -0.2048  0.6114 -0.3115
11377TIP3   OH255621   4.014   0.046  17.012 -0.2331 -0.1479  0.1307
11377TIP3    H155622   3.985   0.043  17.103  1.0255  2.0773  0.6967
11377TIP3    H255623   3.970   0.123  16.975 -1.0392 -1.2446 -1.2968
11378TIP3   OH255624   3.037   3.671   0.393  0.1093  0.2261 -0.0252
11378TIP3    H155625   3.035   3.724   0.473  0.3850 -1.7575  1.3652
11378TIP3    H255626   3.128   3.641   0.387  0.1093  0.4224 -1.1589
11379TIP3   OH255627   3.350   0.324  15.610  0.2544 -0.0480  0.4686
11379TIP3    H155628   3.311   0.300  15.694 -0.1592  2.7889  1.2029
11379TIP3    H255629   3.441   0.345  15.631 -0.2554  2.3154  0.6599
11380TIP3   OH255630   4.970   2.510   1.509 -0.0809  0.4249 -0.3772
11380TIP3    H155631   5.037   2.560   1.463 -1.1662  0.9230 -1.4779
11380TIP3    H255632   5.019   2.444   1.559  1.2446  1.1864 -0.6232
11381TIP3   OH255633   5.249   1.311   3.322  0.0188 -0.4104 -0.2402
11381TIP3    H155634   5.220   1.224   3.352  0.7478 -0.8956 -0.8947
11381TIP3    H255635   5.200   1.372   3.377 -0.8806 -1.2214 -0.0969
11382TIP3   OH255636   1.604   3.885  13.074  0.2524 -0.3988 -0.1082
11382TIP3    H155637   1.581   3.877  12.981  0.3863  2.2053 -0.4321
11382TIP3    H255638   1.621   3.795  13.102 -1.0796 -1.3997 -2.2479
11383TIP3   OH255639   1.606   0.860   4.897  0.2421 -0.2162  0.0611
11383TIP3    H155640   1.615   0.924   4.967 -2.7123 -0.6041  0.9457
11383TIP3    H255641   1.570   0.909   4.824 -0.1400 -0.4875  0.0653
11384TIP3   OH255642   0.712   6.574  13.691  0.4904 -0.0577 -0.4651
11384TIP3    H155643   0.640   6.629  13.719  0.0773 -0.1323 -1.3475
11384TIP3    H255644   0.769   6.632  13.640  0.2116 -0.3693 -1.1393
11385TIP3   OH255645   4.823   0.542   5.430  0.5419 -0.1881 -0.6873
11385TIP3    H155646   4.894   0.606   5.425  1.3114 -0.9055  0.4212
11385TIP3    H255647   4.845   0.476   5.364  1.1124 -0.5746 -0.1305
11386TIP3   OH255648   4.348   5.774  11.741  0.0041  0.2871  0.0418
11386TIP3    H155649   4.403   5.775  11.819  2.4633 -1.7939 -1.5171
11386TIP3    H255650   4.293   5.696  11.750  0.9675 -0.4999 -0.6764
11387TIP3   OH255651   5.872   0.844  10.500  0.1432 -0.8578  0.5346
11387TIP3    H155652   5.890   0.878  10.588  1.6460 -0.3239  0.0622
11387TIP3    H255653   5.866   0.922  10.445 -0.6415 -1.1937  0.1342
11388TIP3   OH255654   0.762   1.960  14.465 -0.4277  0.0222 -0.0997
11388TIP3    H155655   0.670   1.933  14.467  0.1921 -2.2978  2.5951
11388TIP3    H255656   0.808   1.885  14.428  0.5041  0.8292 -0.6342
11389TIP3   OH255657   2.830   3.992  13.216 -0.2535 -0.5649  0.3437
11389TIP3    H155658   2.791   4.066  13.263 -0.5432  1.9344 -3.4156
11389TIP3    H255659   2.759   3.955  13.165  0.6571 -1.1264 -0.5619
11390TIP3   OH255660   1.907   0.993  15.941 -0.3764  0.1867 -0.4697
11390TIP3    H155661   1.921   0.901  15.965 -0.8308  0.2640  0.1367
11390TIP3    H255662   1.968   1.042  15.997 -0.1395  0.2541 -0.7867
11391TIP3   OH255663   3.922   2.828  15.800  0.5456  0.4213  0.0156
11391TIP3    H155664   3.832   2.852  15.775  0.3111 -1.6110 -1.4331
11391TIP3    H255665   3.923   2.835  15.895 -1.6039 -0.7288  0.2029
11392TIP3   OH255666   3.727   2.199  10.707  0.4579  0.0145  0.4186
11392TIP3    H155667   3.639   2.168  10.685  0.8701  0.1959 -1.6819
11392TIP3    H255668   3.713   2.278  10.758 -0.5942 -0.1799  0.4520
11393TIP3   OH255669   0.199   3.909  10.572  0.3684  0.3813 -0.4819
11393TIP3    H155670   0.170   3.842  10.511  2.8437 -1.4474  0.2033
11393TIP3    H255671   0.254   3.967  10.520 -0.2481  0.8175 -0.6647
11394TIP3   OH255672   0.541   3.486  11.973 -0.2352  0.2027 -0.1645
11394TIP3    H155673   0.533   3.521  12.061  0.5459 -0.7167  0.2956
11394TIP3    H255674   0.452   3.489  11.937 -0.7381 -0.2609  0.9964
11395TIP3   OH255675   2.542   6.237  14.610  0.2096 -0.5937 -0.1150
11395TIP3    H155676   2.637   6.239  14.593  0.5263 -0.7678  1.4254
11395TIP3    H255677   2.504   6.293  14.543  1.3868 -0.6584 -0.8694
11396TIP3   OH255678   5.076   1.132  13.272  0.3977 -0.1356  0.5369
11396TIP3    H155679   5.048   1.186  13.198  0.3157 -1.1719 -0.2249
11396TIP3    H255680   5.131   1.189  13.325  1.8098  0.2306 -1.1881
11397TIP3   OH255681   4.760   6.840   2.981  0.3866  0.0732  0.6440
11397TIP3    H155682   4.803   6.925   2.972 -1.0492  0.7234 -0.8582
11397TIP3    H255683   4.776   6.813   3.071  2.3837  1.0691  0.6411
11398TIP3   OH255684   6.182   3.747   5.083  0.0744 -0.5532 -0.1867
11398TIP3    H155685   6.126   3.675   5.111 -0.9099  0.2747  0.0514
11398TIP3    H255686   6.258   3.705   5.044 -0.3677 -1.7138  0.1691
11399TIP3   OH255687   2.800   1.817  15.412 -0.6758 -0.6701  0.3887
11399TIP3    H155688   2.718   1.829  15.460  0.2402  0.5848  1.7028
11399TIP3    H255689   2.869   1.827  15.477  0.5877 -0.2639 -0.9488
11400TIP3   OH255690   6.153   0.652   1.910  0.1130 -0.2833  0.5902
11400TIP3    H155691   6.158   0.568   1.957 -1.0727 -1.2641 -0.9563
11400TIP3    H255692   6.082   0.641   1.847 -0.2594  2.0069  0.5216
11401TIP3   OH255693   5.610   5.809  15.426 -0.2835  0.1292 -0.6168
11401TIP3    H155694   5.535   5.854  15.386 -0.3444  1.2798  0.7148
11401TIP3    H255695   5.616   5.847  15.513 -0.1393 -2.2705  0.4827
11402TIP3   OH255696   3.387   1.450  11.697  0.1649 -0.1016  0.2600
11402TIP3    H155697   3.316   1.388  11.680 -1.0970  1.0624  1.1095
11402TIP3    H255698   3.458   1.396  11.732 -0.0009 -1.3959 -1.2754
11403TIP3   OH255699   0.162   6.271  13.709  0.4906  0.3602  0.3569
11403TIP3    H155700   0.229   6.233  13.766  1.7302  1.8819 -0.0148
11403TIP3    H255701   0.148   6.204  13.641  0.6099 -0.5473  1.2034
11404TIP3   OH255702   6.128   6.582   2.850  0.2323 -0.0939 -0.2362
11404TIP3    H155703   6.155   6.494   2.824 -0.5887 -0.8640  1.3959
11404TIP3    H255704   6.210   6.630   2.862  0.7430 -1.1438  0.5501
11405TIP3   OH255705   1.808   0.429   4.145  0.2977  0.4327 -0.2177
11405TIP3    H155706   1.754   0.386   4.079  1.5483 -1.1392 -0.2885
11405TIP3    H255707   1.827   0.359   4.208  1.4874  1.1879  0.2805
11406TIP3   OH255708   5.548   1.716   5.136 -0.7033 -0.4368  0.6548
11406TIP3    H155709   5.531   1.782   5.069 -0.0956 -0.5861  0.3442
11406TIP3    H255710   5.497   1.640   5.109 -3.9619  0.8420  2.6619
11407TIP3   OH255711   6.822   1.568   1.951  0.1623 -0.0000  0.0323
11407TIP3    H155712   6.866   1.576   1.866 -0.7424  1.3242 -0.3429
11407TIP3    H255713   6.729   1.582   1.931 -0.2091 -0.8573  1.0815
11408TIP3   OH255714   1.144   6.644  14.079 -0.5129  0.2170  0.6502
11408TIP3    H155715   1.093   6.563  14.080 -2.7509  1.5197  0.7329
11408TIP3    H255716   1.232   6.617  14.054 -1.4148 -2.1030 -0.3794
11409TIP3   OH255717   1.784   2.331  15.114 -0.0356 -0.5137 -0.0312
11409TIP3    H155718   1.812   2.267  15.049  0.3246  1.4063 -1.8590
11409TIP3    H255719   1.862   2.348  15.167 -0.7903 -3.5131  2.3431
11410TIP3   OH255720   1.276   4.791   0.204  0.1990 -0.0681  0.1407
11410TIP3    H155721   1.231   4.804   0.288  1.1777  0.4232  0.5941
11410TIP3    H255722   1.205   4.767   0.144 -0.9101  1.9853  0.5146
11411TIP3   OH255723   4.847   6.436  11.854 -0.3436  0.2403  0.7943
11411TIP3    H155724   4.752   6.441  11.867 -0.8584 -0.0130 -2.1488
11411TIP3    H255725   4.858   6.371  11.784  1.9700  0.7033  0.6475
11412TIP3   OH255726   6.016   1.614   1.270 -0.3518  0.2098  0.4849
11412TIP3    H155727   5.997   1.588   1.180 -0.4823 -0.3365  0.6637
11412TIP3    H255728   6.104   1.579   1.286 -1.1068 -1.5016  1.2197
11413TIP3   OH255729   2.510   0.238  12.139 -1.0886 -0.0965  0.3838
11413TIP3    H155730   2.502   0.198  12.053  2.9522 -1.7829  0.5455
11413TIP3    H255731   2.569   0.313  12.125 -0.4141 -0.3661  1.6193
11414TIP3   OH255732   0.318   5.838  15.983 -0.4368 -0.3879 -0.3321
11414TIP3    H155733   0.352   5.779  15.916 -2.0816 -1.1980 -0.4825
11414TIP3    H255734   0.262   5.783  16.038 -0.7815  0.7169  0.4581
11415TIP3   OH255735   4.097   2.375   2.533 -0.2526  0.0575 -0.2432
11415TIP3    H155736   4.028   2.353   2.470  1.2035  0.6956 -2.1610
11415TIP3    H255737   4.167   2.313   2.514  0.0120 -0.1015  1.1665
11416TIP3   OH255738   3.632   0.952   4.426 -0.6689 -0.1050 -0.0667
11416TIP3    H155739   3.588   0.919   4.348 -1.0078  2.2676 -0.9651
11416TIP3    H255740   3.713   0.902   4.430 -1.2427 -1.1882 -1.1848
11417TIP3   OH255741   1.659   2.325  16.133 -0.2081  0.2078 -0.5959
11417TIP3    H155742   1.707   2.321  16.050 -0.6736 -2.7508 -0.8458
11417TIP3    H255743   1.569   2.343  16.108 -0.1818  0.2540 -0.6574
11418TIP3   OH255744   3.502   3.844   4.806 -0.4982  0.2696 -0.0392
11418TIP3    H155745   3.521   3.934   4.832 -2.8064  1.1923 -1.2916
11418TIP3    H255746   3.464   3.804   4.884  0.3037  0.4175  0.4441
11419TIP3   OH255747   6.015   3.646  16.335 -0.0231  0.4419  0.2116
11419TIP3    H155748   5.927   3.656  16.300  0.1228  0.8475 -0.0487
11419TIP3    H255749   6.070   3.637  16.257 -0.0477 -1.8307  0.3694
11420TIP3   OH255750   3.219   4.317  15.685 -0.1827  0.3056  0.2243
11420TIP3    H155751   3.187   4.302  15.596 -1.2500 -0.6119  0.7323
11420TIP3    H255752   3.311   4.340  15.674 -0.3891  0.5656 -1.1347
11421TIP3   OH255753   1.508   5.738   3.934  0.5955  0.0973 -0.6726
11421TIP3    H155754   1.582   5.790   3.966  0.0894  0.7801 -0.6048
11421TIP3    H255755   1.515   5.655   3.982  1.0131  0.3540 -0.2807
11422TIP3   OH255756   5.713   5.596  11.195  0.2610  0.3942  0.7901
11422TIP3    H155757   5.767   5.555  11.127 -0.2607 -0.8459  1.0898
11422TIP3    H255758   5.748   5.684  11.204  0.7045  0.3893 -0.6841
11423TIP3   OH255759   6.136   1.618  11.575  1.0437 -0.2660 -0.0882
11423TIP3    H155760   6.104   1.659  11.655  0.0403  0.9839 -1.0760
11423TIP3    H255761   6.220   1.661  11.558  1.1604 -0.3862  0.1882
11424TIP3   OH255762   4.480   0.876  11.293  0.0569 -0.7549 -0.3634
11424TIP3    H155763   4.405   0.912  11.341  1.1780 -0.3940  1.2044
11424TIP3    H255764   4.469   0.781  11.300 -0.8912 -0.7368 -1.2452
11425TIP3   OH255765   3.487   0.332  11.889 -0.1827  0.1612  0.1316
11425TIP3    H155766   3.443   0.328  11.804  0.1670  0.5470 -0.0702
11425TIP3    H255767   3.466   0.420  11.922  0.4619  0.3627  0.0182
11426TIP3   OH255768   6.069   3.772  10.994  0.2752  0.5712  0.0372
11426TIP3    H155769   6.072   3.861  10.959 -1.8839  0.1695 -1.3169
11426TIP3    H255770   6.158   3.739  10.981  0.2716  1.3637 -2.7550
11427TIP3   OH255771   2.963   3.290  13.100  0.1491  0.1138  0.2746
11427TIP3    H155772   2.946   3.278  13.007 -0.8674 -0.0646  0.4737
11427TIP3    H255773   3.058   3.282  13.108  0.0537 -2.5287 -0.3823
11428TIP3   OH255774   0.627   5.518  16.325 -0.4555  0.1161 -0.5377
11428TIP3    H155775   0.559   5.582  16.348 -0.1960 -0.1070  0.9726
11428TIP3    H255776   0.590   5.434  16.350 -0.2047 -0.1701 -1.1176
11429TIP3   OH255777   6.508   1.069  15.480  0.2561 -0.0783 -0.1596
11429TIP3    H155778   6.595   1.059  15.519  0.5740 -0.0278 -0.8520
11429TIP3    H255779   6.478   0.979  15.464  0.0901 -0.1030  0.2488
11430TIP3   OH255780   1.903   1.400  11.121 -0.4148  0.2437 -0.1401
11430TIP3    H155781   1.917   1.427  11.030 -2.0908  1.6757 -0.0252
11430TIP3    H255782   1.906   1.305  11.119  1.6148  0.2740 -1.3144
11431TIP3   OH255783   5.643   5.669  12.630  0.4945 -0.0838  0.0731
11431TIP3    H155784   5.623   5.578  12.611  0.6615  0.0231 -0.6708
11431TIP3    H255785   5.731   5.667  12.668  3.0251  0.1330 -4.9550
11432TIP3   OH255786   1.697   4.845   2.521 -0.2894 -0.6267 -0.5750
11432TIP3    H155787   1.602   4.856   2.521 -0.3643 -1.1858 -1.0586
11432TIP3    H255788   1.710   4.755   2.551 -0.0955 -1.6438 -3.4158
11433TIP3   OH255789   4.660   2.316  13.148 -0.4794 -0.9090 -0.0367
11433TIP3    H155790   4.715   2.247  13.110 -0.0545 -1.3353  1.2888
11433TIP3    H255791   4.571   2.279  13.146 -0.3297 -1.2962  0.1785
11434TIP3   OH255792   4.831   5.413  11.362 -0.0319 -0.3029  0.0780
11434TIP3    H155793   4.815   5.323  11.332 -2.0381  0.4259 -1.2572
11434TIP3    H255794   4.755   5.462  11.331  1.2823  1.9898  0.2769
11435TIP3   OH255795   5.093   5.818   0.615 -0.3569 -0.4275 -0.4524
11435TIP3    H155796   5.145   5.889   0.654  0.0904 -0.5676 -0.7828
11435TIP3    H255797   5.132   5.738   0.649 -1.7267 -0.5200  1.0180
11436TIP3   OH255798   1.608   4.141  12.824  0.0912  0.1099  0.9245
11436TIP3    H155799   1.700   4.142  12.800 -0.0660 -0.1881  0.2895
11436TIP3    H255800   1.608   4.141  12.919  0.7386  0.6653  0.9368
11437TIP3   OH255801   4.722   3.527  13.519 -0.2623  0.4598 -0.2374
11437TIP3    H155802   4.724   3.535  13.424 -0.0758  2.0770 -0.1245
11437TIP3    H255803   4.785   3.593  13.550  0.1117 -0.4317  0.9914
11438TIP3   OH255804   4.325   4.922   1.233  0.1634 -0.3048  0.0025
11438TIP3    H155805   4.319   4.915   1.329 -1.6442  2.3065  0.1913
11438TIP3    H255806   4.363   5.009   1.218 -1.0618 -0.0072 -1.6339
11439TIP3   OH255807   6.032   3.496   0.145 -0.8544  0.0712  0.0183
11439TIP3    H155808   6.093   3.521   0.075  0.3148  0.4925  1.1456
11439TIP3    H255809   5.971   3.570   0.151 -0.3454  0.4870  0.1184
11440TIP3   OH255810   0.144   2.286   1.972  0.1793  0.4394  0.7125
11440TIP3    H155811   0.110   2.304   1.885  0.9883 -0.0643  0.2818
11440TIP3    H255812   0.221   2.342   1.980 -0.6435  1.4770  1.6282
11441TIP3   OH255813   1.309   4.813   5.959  0.3563  0.0894 -0.4670
11441TIP3    H155814   1.222   4.781   5.982  0.5333  0.2618  0.4617
11441TIP3    H255815   1.310   4.812   5.863 -0.8008  0.4419 -0.4990
11442TIP3   OH255816   2.820   4.024  14.413  0.1166  0.0661 -0.2107
11442TIP3    H155817   2.767   3.958  14.458  0.7127 -0.1941  0.1252
11442TIP3    H255818   2.756   4.086  14.379 -0.4754 -0.8545 -0.8240
11443TIP3   OH255819   4.213   1.413  13.125 -0.0206  0.7683 -0.2980
11443TIP3    H155820   4.274   1.350  13.086  0.1475 -1.8913  3.6853
11443TIP3    H255821   4.128   1.369  13.121  0.0316  0.3216  2.2131
11444TIP3   OH255822   5.013   0.919  12.095  0.5354  0.2413 -0.3310
11444TIP3    H155823   4.976   0.918  12.007  0.7389  0.2723 -0.4181
11444TIP3    H255824   4.963   0.853  12.143  0.1270  0.5379 -0.3488
11445TIP3   OH255825   5.992   5.829   4.125  0.7650  0.3142 -0.0083
11445TIP3    H155826   5.973   5.830   4.219 -0.9020 -0.2841 -0.3012
11445TIP3    H255827   6.087   5.827   4.120  0.8930 -2.1056  1.7253
11446TIP3   OH255828   5.097   0.013   4.372 -0.1691  0.3807  0.0141
11446TIP3    H155829   5.184   0.051   4.383 -0.5475  1.0150  0.9132
11446TIP3    H255830   5.109  -0.081   4.388  0.0418  0.7060  2.0805
11447TIP3   OH255831   3.275   1.402  16.549  0.3821 -0.2035 -0.3540
11447TIP3    H155832   3.330   1.442  16.616 -0.5860 -1.0545  0.9960
11447TIP3    H255833   3.333   1.341  16.503  1.3111  1.1333 -0.9946
11448TIP3   OH255834   2.165   1.982  13.057  0.0224 -0.5868 -0.1202
11448TIP3    H155835   2.167   2.040  12.980  0.6502  1.6721  1.4951
11448TIP3    H255836   2.246   1.931  13.050  0.6020  0.3435 -0.4315
11449TIP3   OH255837   2.456   3.245  10.843  0.6778 -0.4658  0.1222
11449TIP3    H155838   2.463   3.162  10.796  0.6966 -0.4630  0.1198
11449TIP3    H255839   2.546   3.279  10.845  0.6849 -0.4883  0.1991
11450TIP3   OH255840   6.299   1.821   0.159  0.6951  0.1013  0.7640
11450TIP3    H155841   6.292   1.738   0.112 -0.9403  0.5056  0.2273
11450TIP3    H255842   6.339   1.798   0.243 -0.8445 -1.4789  1.1268
11451TIP3   OH255843   1.230   1.700   3.864  0.2706  0.8289 -0.1549
11451TIP3    H155844   1.173   1.648   3.807  0.9645  0.9119 -0.9439
11451TIP3    H255845   1.202   1.678   3.953 -0.9943  0.8750 -0.5157
11452TIP3   OH255846   4.095   1.199  16.391  0.3706 -0.1341  0.0112
11452TIP3    H155847   4.140   1.115  16.385 -1.3963 -1.1423  0.3772
11452TIP3    H255848   4.101   1.236  16.303 -0.0306 -1.2778 -0.5134
11453TIP3   OH255849   2.185   6.632   0.163 -0.6360  0.2664  0.5683
11453TIP3    H155850   2.242   6.637   0.240 -3.9197  1.1890  3.1700
11453TIP3    H255851   2.147   6.545   0.167  0.5909 -0.4019 -1.2366
11454TIP3   OH255852   6.159   2.086  13.291 -0.0795  0.1824  0.0793
11454TIP3    H155853   6.163   2.029  13.368  0.6719  0.9314  0.6053
11454TIP3    H255854   6.210   2.039  13.225  0.5242  0.2346  0.5035
11455TIP3   OH255855   5.576   4.449  17.021 -0.1463  0.7204 -0.3395
11455TIP3    H155856   5.552   4.378  17.080 -0.5593  1.2895  0.2005
11455TIP3    H255857   5.663   4.476  17.051 -0.8938  1.8771  0.9005
11456TIP3   OH255858   0.024   6.504  16.918 -0.0428  0.3188 -0.1603
11456TIP3    H155859   0.119   6.507  16.926 -0.0441  0.5033 -0.2056
11456TIP3    H255860  -0.008   6.519  17.007 -0.0284  0.0891 -0.1154
11457TIP3   OH255861   0.739   5.026  11.717  0.0957 -1.4303  0.1375
11457TIP3    H155862   0.661   5.034  11.771 -0.4578 -1.4408 -0.6407
11457TIP3    H255863   0.740   5.106  11.663  0.5283 -1.5059  0.0262
11458TIP3   OH255864   6.196   1.209  17.090  0.2205 -0.3686 -0.2571
11458TIP3    H155865   6.147   1.127  17.079 -0.5819  0.2702 -1.5687
11458TIP3    H255866   6.137   1.266  17.138  0.1879 -0.0433 -0.6809
11459TIP3   OH255867   1.582   3.229  12.344 -0.3555 -0.4643  0.1813
11459TIP3    H155868   1.531   3.183  12.277  0.4355 -0.6114 -0.3327
11459TIP3    H255869   1.667   3.243  12.304  0.5702 -1.6947  1.6072
11460TIP3   OH255870   4.672   0.202  11.116 -0.1317 -0.3379 -0.3721
11460TIP3    H155871   4.578   0.195  11.099 -0.1941 -0.0703 -0.1491
11460TIP3    H255872   4.704   0.256  11.044  0.1742 -1.9725 -1.5077
11461TIP3   OH255873   4.443   2.960   0.427 -0.6591 -0.3567  0.0516
11461TIP3    H155874   4.445   3.052   0.452 -1.8721 -0.0845 -0.7360
11461TIP3    H255875   4.535   2.935   0.418 -0.2632  0.3474  1.7109
11462TIP3   OH255876   3.106   6.267  15.319 -0.0487 -0.0224 -1.0780
11462TIP3    H155877   3.018   6.245  15.289 -0.1939  1.0034 -1.4402
11462TIP3    H255878   3.132   6.341  15.265  0.5386  0.4927 -0.1207
11463TIP3   OH255879   2.920   0.388   5.352 -0.4567 -0.4737 -0.3325
11463TIP3    H155880   2.939   0.306   5.397  0.7010  0.1596  0.3886
11463TIP3    H255881   2.976   0.387   5.274  1.7525  0.8090  1.1146
11464TIP3   OH255882   5.471   0.468  12.305  0.0177  0.1695 -0.4871
11464TIP3    H155883   5.513   0.482  12.389 -0.3837  1.0893 -0.4350
11464TIP3    H255884   5.458   0.556  12.269  0.9159 -0.2311 -1.8764
11465TIP3   OH255885   2.970   0.078  15.219  0.1397  0.4017  0.4016
11465TIP3    H155886   2.912   0.018  15.267  0.2118  0.5179  0.6386
11465TIP3    H255887   3.057   0.040  15.231  0.0801  0.0718 -0.1928
11466TIP3   OH255888   1.038   3.877   5.726  0.2155  0.8328 -0.2708
11466TIP3    H155889   1.106   3.939   5.753  0.6729  0.3771 -0.3563
11466TIP3    H255890   0.967   3.889   5.790  0.1357  1.7142 -0.5163
11467TIP3   OH255891   1.547   6.202   3.875  0.9551  0.4372  0.1829
11467TIP3    H155892   1.525   6.156   3.795 -0.5765  2.6902 -0.8071
11467TIP3    H255893   1.472   6.189   3.933  0.2289  2.0394 -0.3306
11468TIP3   OH255894   6.769   5.838  15.903  0.1031  0.0710 -0.1801
11468TIP3    H155895   6.789   5.927  15.873 -0.8522  0.5289  0.4990
11468TIP3    H255896   6.791   5.782  15.829  0.1459  0.9357 -0.8331
11469TIP3   OH255897   5.036   0.079   3.918  0.4753 -0.6502 -0.2985
11469TIP3    H155898   5.056  -0.001   3.966  1.5667 -0.2825 -0.1188
11469TIP3    H255899   5.028   0.146   3.986  1.0384 -0.3260 -0.5420
11470TIP3   OH255900   5.145   5.140  11.057 -1.1114  0.0093  0.1798
11470TIP3    H155901   5.237   5.116  11.064 -1.6138 -2.2957 -0.2491
11470TIP3    H255902   5.143   5.235  11.069  1.1386 -0.0804  1.7789
11471TIP3   OH255903   3.665   1.423  13.825 -0.0676  0.0125 -0.8775
11471TIP3    H155904   3.681   1.516  13.835 -1.1947  0.0917  0.5234
11471TIP3    H255905   3.718   1.381  13.893 -0.4074 -0.2734 -0.7822
11472TIP3   OH255906   3.953   5.926   3.702  0.1212  0.6985 -0.2681
11472TIP3    H155907   3.956   5.988   3.629  3.3320 -0.9323 -1.7089
11472TIP3    H255908   3.936   5.841   3.660  0.0941 -0.0077  1.1274
11473TIP3   OH255909   6.278   5.871   1.340  0.2117  0.2133 -0.0376
11473TIP3    H155910   6.240   5.815   1.272  0.4458 -0.1202  0.1030
11473TIP3    H255911   6.372   5.870   1.322  0.2892  0.0085  0.3733
11474TIP3   OH255912   5.825   6.176   2.124 -0.3462 -0.1054 -0.1938
11474TIP3    H155913   5.792   6.111   2.062 -0.9294 -1.5793  1.5544
11474TIP3    H255914   5.848   6.252   2.071  0.3698 -1.7460 -2.3249
11475TIP3   OH255915   1.911   5.313  11.644  0.3369  0.3157  0.0999
11475TIP3    H155916   1.835   5.357  11.682  1.1242  0.8679  1.0756
11475TIP3    H255917   1.986   5.364  11.674  1.1068 -0.2667 -0.7831
11476TIP3   OH255918   2.383   0.338   0.529  0.2629  0.3417 -0.1077
11476TIP3    H155919   2.300   0.292   0.513  0.0659 -0.1847  2.0767
11476TIP3    H255920   2.450   0.271   0.517  0.1302 -0.0092  1.0171
11477TIP3   OH255921   6.368   2.392  11.700  0.0744  0.6003 -0.3462
11477TIP3    H155922   6.300   2.399  11.767  0.3620  0.4481 -0.0296
11477TIP3    H255923   6.426   2.466  11.717 -0.3157  1.0475 -0.9660
11478TIP3   OH255924   3.482   4.707   2.335 -0.4675  0.5040 -0.1783
11478TIP3    H155925   3.409   4.761   2.303 -0.5181  1.1207  0.9473
11478TIP3    H255926   3.476   4.713   2.430  1.6071  1.3107 -0.0592
11479TIP3   OH255927   2.820   2.711   5.573 -0.4565  0.3396  1.2164
11479TIP3    H155928   2.794   2.791   5.526 -0.6401 -0.3107  0.1682
11479TIP3    H255929   2.907   2.730   5.607  0.7822  0.0275 -1.5049
11480TIP3   OH255930   2.712   3.220  16.204 -0.5687  0.4978  0.1598
11480TIP3    H155931   2.737   3.243  16.115 -1.0637 -1.3237 -0.4893
11480TIP3    H255932   2.685   3.303  16.244  0.9268  1.5525 -0.9368
11481TIP3   OH255933   2.956   4.784  16.158  0.4412 -1.0066 -0.2718
11481TIP3    H155934   2.950   4.839  16.080  0.8253 -0.6860 -0.0725
11481TIP3    H255935   2.939   4.843  16.231 -0.0632 -1.3339 -0.1133
11482TIP3   OH255936   6.160   1.843  14.720  0.1644  0.7376 -0.2268
11482TIP3    H155937   6.177   1.936  14.733  0.9029  0.9384 -2.2369
11482TIP3    H255938   6.228   1.798  14.770 -0.0816  1.2786  0.6004
11483TIP3   OH255939   5.675   0.970  12.022  0.5311 -0.4644  0.6503
11483TIP3    H155940   5.718   1.046  11.983 -1.3689  0.8230  0.9340
11483TIP3    H255941   5.631   0.928  11.948 -0.1773 -0.0411  0.8236
11484TIP3   OH255942   6.660   3.065  15.891  0.3070 -0.1059 -0.1318
11484TIP3    H155943   6.641   3.154  15.921  1.5832 -0.2133  1.0933
11484TIP3    H255944   6.675   3.073  15.797  1.1940  1.1187  0.1017
11485TIP3   OH255945   4.747   0.168  14.372 -0.0036 -0.0550 -0.0429
11485TIP3    H155946   4.773   0.134  14.457  1.0577  0.3517 -0.1940
11485TIP3    H255947   4.828   0.172  14.321 -0.1202  2.2730 -0.1676
11486TIP3   OH255948   1.341   4.970  10.745  0.1180  0.1809 -0.1690
11486TIP3    H155949   1.288   4.926  10.678 -0.4297 -0.6763  0.8008
11486TIP3    H255950   1.411   4.908  10.764 -0.7981 -0.4181  1.3910
11487TIP3   OH255951   2.493   0.857   3.495 -0.0486  0.3300  0.2143
11487TIP3    H155952   2.446   0.778   3.469 -1.6867  1.2936  0.1271
11487TIP3    H255953   2.436   0.929   3.470  0.7999  1.5139  1.4827
11488TIP3   OH255954   1.264   1.959  13.831  0.2418 -0.4309 -0.6817
11488TIP3    H155955   1.203   1.922  13.768  0.3289 -0.4546 -0.7527
11488TIP3    H255956   1.244   1.914  13.914 -0.9530  0.7427 -0.3114
11489TIP3   OH255957   1.678   5.228   4.849  0.2355  0.2782 -0.1202
11489TIP3    H155958   1.662   5.168   4.776 -0.5862 -1.6987  1.5730
11489TIP3    H255959   1.608   5.208   4.912  1.6564  0.9574  1.7644
11490TIP3   OH255960   4.213   1.640  16.226 -0.1686 -0.1248  0.1935
11490TIP3    H155961   4.260   1.630  16.309  0.4609  0.1272 -0.1253
11490TIP3    H255962   4.142   1.701  16.246  0.3094  0.3636  0.4210
11491TIP3   OH255963   2.704   3.081  12.797  0.1122  0.4025  0.1278
11491TIP3    H155964   2.614   3.084  12.764  0.7515 -1.6321 -2.0193
11491TIP3    H255965   2.711   2.995  12.838  1.6507 -0.4039 -1.6958
11492TIP3   OH255966   2.553   4.023   0.187 -0.2461 -0.4099  0.8179
11492TIP3    H155967   2.545   3.968   0.109 -0.9832  0.3204  0.3639
11492TIP3    H255968   2.646   4.018   0.210  0.0623 -0.3075 -0.3511
11493TIP3   OH255969   2.311   3.138   4.384 -0.4202 -0.0713  0.4816
11493TIP3    H155970   2.321   3.225   4.346 -0.9564 -0.9988 -1.9351
11493TIP3    H255971   2.308   3.154   4.479 -1.6562  2.6639  0.0903
11494TIP3   OH255972   0.088   3.784  13.250  0.3055  0.0038 -0.3296
11494TIP3    H155973   0.098   3.729  13.327 -1.4842 -1.1869 -0.8920
11494TIP3    H255974   0.140   3.862  13.269 -0.6483  0.0656  2.3659
11495TIP3   OH255975   5.518   5.258  16.070  0.1996 -0.1057  0.7024
11495TIP3    H155976   5.594   5.306  16.035  0.6626  0.2737  2.1801
11495TIP3    H255977   5.491   5.308  16.147  0.6049 -2.0749  2.2074
11496TIP3   OH255978   3.887   2.687   5.227 -0.1798 -0.1959  0.6025
11496TIP3    H155979   3.828   2.750   5.185 -1.1215 -0.3010  1.7020
11496TIP3    H255980   3.961   2.679   5.167 -1.2778 -0.0430 -0.8181
11497TIP3   OH255981   4.377   3.457   3.434  0.2612 -0.2812 -0.1950
11497TIP3    H155982   4.305   3.394   3.430  0.6325 -0.9269  1.9803
11497TIP3    H255983   4.334   3.543   3.430 -0.3958 -0.6367 -1.3111
11498TIP3   OH255984   1.349   2.871  11.355  0.4631  0.0243 -0.3353
11498TIP3    H155985   1.360   2.953  11.308  2.0395 -0.5704 -1.0584
11498TIP3    H255986   1.268   2.834  11.320 -0.7306  1.6152  0.5911
11499TIP3   OH255987   2.296   5.997  14.886 -0.3892  0.4518 -0.0105
11499TIP3    H155988   2.309   6.070  14.826  0.1168  0.0105 -0.4419
11499TIP3    H255989   2.339   6.025  14.967 -1.0657  1.0425  0.1591
11500TIP3   OH255990   1.148   0.817  15.299 -0.0119 -0.3568  0.0190
11500TIP3    H155991   1.213   0.806  15.229 -0.5150 -0.3411 -0.4583
11500TIP3    H255992   1.071   0.851  15.254 -0.1021  0.3505  0.7082
11501TIP3   OH255993   0.149   1.148   1.241 -0.1167  0.4733  0.6080
11501TIP3    H155994   0.157   1.165   1.148  0.5969 -0.9411  0.3765
11501TIP3    H255995   0.115   1.229   1.278 -1.3629  0.7403 -1.0119
11502TIP3   OH255996   2.635   1.608   4.915 -0.2502 -0.1671  0.4009
11502TIP3    H155997   2.643   1.533   4.855 -2.5104 -0.0601 -0.1274
11502TIP3    H255998   2.696   1.673   4.881  1.4393 -1.5674  0.6078
11503TIP3   OH255999   1.192   2.143  13.555  0.1918 -0.3974  0.5217
11503TIP3    H156000   1.232   2.091  13.484 -1.0994 -0.0891 -0.4694
11503TIP3    H256001   1.260   2.148  13.622  1.0701 -1.6380 -0.2296
11504TIP3   OH256002   0.209   3.534  16.832  0.4716  0.2139  0.1392
11504TIP3    H156003   0.273   3.604  16.825  0.0953  0.6174  0.6633
11504TIP3    H256004   0.210   3.492  16.746 -0.3827  1.8238 -0.7092
11505TIP3   OH256005   4.702   5.640  13.259  0.2315 -0.1124 -0.1838
11505TIP3    H156006   4.668   5.576  13.196  1.7264 -1.2478  0.0965
11505TIP3    H256007   4.634   5.706  13.265  0.0297  0.0937 -3.0411
11506TIP3   OH256008   3.033   2.471  16.976 -0.5419  0.0066  0.1068
11506TIP3    H156009   3.015   2.500  16.887 -0.2472  4.2582  1.2116
11506TIP3    H256010   2.952   2.487  17.024  0.7778  3.0817  1.5856
11507TIP3   OH256011   4.485   6.801   0.315  0.0503 -0.6636 -0.2730
11507TIP3    H156012   4.570   6.843   0.329 -0.3468 -0.3173  1.3671
11507TIP3    H256013   4.423   6.873   0.310 -0.3078 -0.9545 -0.1212
11508TIP3   OH256014   4.576   6.264  10.649  0.1664 -0.1126 -0.1418
11508TIP3    H156015   4.616   6.332  10.596  0.2739  0.6041  0.8325
11508TIP3    H256016   4.485   6.291  10.658  0.2025 -0.0998  0.2213
11509TIP3   OH256017   4.628   5.580   3.801  0.3045  0.0042  0.3186
11509TIP3    H156018   4.632   5.566   3.707  0.3687  0.3004  0.2776
11509TIP3    H256019   4.663   5.668   3.815 -0.9234  0.4926  0.4838
11510TIP3   OH256020   5.726   1.310   4.553 -0.2021  0.3244 -0.2829
11510TIP3    H156021   5.768   1.368   4.491 -1.6566  1.3170 -0.3937
11510TIP3    H256022   5.739   1.222   4.517  0.7775  0.6971 -0.8695
11511TIP3   OH256023   6.304   4.692  16.293  0.1424 -0.1950 -0.5183
11511TIP3    H156024   6.385   4.729  16.260 -0.2086  0.1615 -0.9890
11511TIP3    H256025   6.259   4.766  16.334  0.4368 -0.5645  0.5276
11512TIP3   OH256026   2.959   4.058  10.857  0.1319  0.2220 -0.4252
11512TIP3    H156027   2.871   4.076  10.824  0.2526  0.1250 -0.8169
11512TIP3    H256028   2.974   3.965  10.835  0.5060  0.3626 -0.7917
11513TIP3   OH256029   3.285   1.443   3.969  0.3796 -0.2668  0.1728
11513TIP3    H156030   3.285   1.396   3.885  0.6358 -0.8645  0.5043
11513TIP3    H256031   3.281   1.535   3.944 -0.3257 -0.4635 -0.4831
11514TIP3   OH256032   1.286   2.666  12.886 -0.3587 -0.0362 -0.1000
11514TIP3    H156033   1.316   2.580  12.914 -0.1643  0.5390  1.5379
11514TIP3    H256034   1.248   2.651  12.799  1.3822 -1.4185 -0.6837
11515TIP3   OH256035   4.396   1.377  10.636  0.2386  0.2272  0.0956
11515TIP3    H156036   4.305   1.350  10.627  0.4776 -0.3915 -0.5428
11515TIP3    H256037   4.438   1.348  10.555  1.1304  0.0113  0.6223
11516TIP3   OH256038   4.348   6.743   2.677  0.7058 -0.5100  0.1679
11516TIP3    H156039   4.422   6.735   2.736  1.9608 -0.5693 -1.3605
11516TIP3    H256040   4.310   6.829   2.696  1.5112 -0.2439  0.5766
11517TIP3   OH256041   0.528   4.765  14.776  0.3991  0.0284  0.2677
11517TIP3    H156042   0.620   4.778  14.799  0.3742  1.0680 -0.1427
11517TIP3    H256043   0.498   4.852  14.751 -0.3938 -0.5117 -0.7112
11518TIP3   OH256044   1.393   2.857  13.456  0.2865  0.8309  0.0095
11518TIP3    H156045   1.434   2.943  13.448  1.5262  0.3617  0.9378
11518TIP3    H256046   1.299   2.874  13.456  0.5211  2.3344  1.6513
11519TIP3   OH256047   5.076   3.658  13.418 -0.2121 -0.1653  0.6968
11519TIP3    H156048   5.106   3.569  13.399  0.9611  0.3498  0.0271
11519TIP3    H256049   5.024   3.683  13.342 -1.7391 -0.7441  1.4868
11520TIP3   OH256050   3.459   2.153  10.929  0.2070  0.9309 -0.0309
11520TIP3    H156051   3.476   2.160  10.835  1.5238  1.9935  0.2568
11520TIP3    H256052   3.433   2.241  10.955  1.3099  1.0195  0.8472
11521TIP3   OH256053   1.079   3.835  17.040  0.5942  0.2712  0.8153
11521TIP3    H156054   0.997   3.787  17.024  1.3543 -1.1862  1.1399
11521TIP3    H256055   1.057   3.897  17.109 -0.5095  0.6770  0.1368
11522TIP3   OH256056   6.394   1.387   5.373  0.3561  0.2529 -0.0938
11522TIP3    H156057   6.462   1.433   5.324  1.2645  0.2935  1.1338
11522TIP3    H256058   6.368   1.449   5.441 -3.6807  1.7714 -2.6589
11523TIP3   OH256059   4.518   5.170  14.064 -0.0380  0.7117 -0.0068
11523TIP3    H156060   4.484   5.088  14.101 -0.2570  1.3573  1.2610
11523TIP3    H256061   4.503   5.161  13.970 -0.8340 -0.3456  0.1988
11524TIP3   OH256062   3.064   0.732   4.383 -0.1619 -0.2245  0.1752
11524TIP3    H156063   3.127   0.791   4.425  0.1119 -1.0461  0.9466
11524TIP3    H256064   3.118   0.661   4.349 -0.7052 -1.1919  1.2769
11525TIP3   OH256065   0.235   4.179   4.818 -0.2767  0.6924  0.3243
11525TIP3    H156066   0.200   4.172   4.906  0.0934  0.5821  0.4670
11525TIP3    H256067   0.314   4.233   4.827  0.1021  0.1807  0.1670
11526TIP3   OH256068   0.537   1.155   0.327  0.5668 -0.6177 -0.5802
11526TIP3    H156069   0.477   1.082   0.335  0.4627 -0.5692 -0.8973
11526TIP3    H256070   0.585   1.157   0.410 -1.9850  1.2384  0.9809
11527TIP3   OH256071   1.733   1.792  10.782 -0.0693  0.8336  0.5180
11527TIP3    H156072   1.642   1.821  10.782 -0.4879  0.2487 -3.8375
11527TIP3    H256073   1.728   1.696  10.781  0.4939  0.8022 -0.8402
11528TIP3   OH256074   3.516   2.618  11.308 -0.2584 -0.3324  0.9198
11528TIP3    H156075   3.497   2.697  11.358  1.5039  0.6168  0.1900
11528TIP3    H256076   3.464   2.626  11.228  0.5037  0.5131  0.4916
11529TIP3   OH256077   6.431   4.172  12.862  0.3550  0.6546 -0.3238
11529TIP3    H156078   6.370   4.235  12.899 -0.8358  0.9967 -2.6618
11529TIP3    H256079   6.391   4.146  12.779  1.8016 -1.6741 -0.3786
11530TIP3   OH256080   5.662   6.090   2.355 -0.5346 -0.2828 -0.0232
11530TIP3    H156081   5.701   6.121   2.273  0.4460 -1.4289 -0.0180
11530TIP3    H256082   5.691   6.154   2.421  0.5174 -0.5614 -0.2023
11531TIP3   OH256083   4.735   1.137   5.026 -0.0657 -0.0986 -0.4702
11531TIP3    H156084   4.786   1.210   5.061  0.4561  0.9389 -3.1797
11531TIP3    H256085   4.650   1.175   5.004 -1.3548 -1.3365  1.9792
11532TIP3   OH256086   4.738   1.757  12.074 -0.3374 -0.0134 -0.4235
11532TIP3    H156087   4.669   1.776  12.010  0.1923  1.1443 -0.6770
11532TIP3    H256088   4.805   1.823  12.057  0.9112 -1.1927 -0.2737
11533TIP3   OH256089   6.522   3.990   0.497  0.9604 -0.0276 -0.0239
11533TIP3    H156090   6.488   3.905   0.525  1.7976  0.2811  2.1861
11533TIP3    H256091   6.611   3.971   0.468  1.3778  0.1428  1.0870
11534TIP3   OH256092   0.023   6.797  15.523 -0.0261  0.2960  0.2871
11534TIP3    H156093   0.011   6.709  15.559 -2.4073  0.0989 -0.7823
11534TIP3    H256094   0.098   6.789  15.465 -0.6229 -1.2407 -0.3183
11535TIP3   OH256095   0.341   2.176  11.096 -0.0572 -0.0407  0.2973
11535TIP3    H156096   0.293   2.256  11.115 -0.4059  0.1038 -1.0445
11535TIP3    H256097   0.410   2.172  11.162 -1.7324 -0.1166  2.1361
11536TIP3   OH256098   0.194   0.635  13.254 -0.2609 -0.2527  0.3559
11536TIP3    H156099   0.266   0.664  13.310 -0.3466  0.7556 -0.0344
11536TIP3    H256100   0.191   0.540  13.266  3.2779 -0.9073 -2.0329
11537TIP3   OH256101   6.373   3.817  16.253 -0.3920  0.0540 -0.1572
11537TIP3    H156102   6.443   3.882  16.248 -1.8347  1.6079 -0.8642
11537TIP3    H256103   6.385   3.776  16.339  0.7655  0.9814  0.1499
11538TIP3   OH256104   2.015   2.986  13.488 -0.5928  0.0801 -0.3873
11538TIP3    H156105   1.938   2.955  13.536  0.9671 -1.6357  1.1455
11538TIP3    H256106   2.019   3.080  13.509 -1.3743 -0.1273  0.8232
11539TIP3   OH256107   6.043   6.495   2.108 -0.3956  0.5300 -0.7275
11539TIP3    H156108   6.008   6.456   2.188 -1.7830 -0.7425 -1.9026
11539TIP3    H256109   5.969   6.541   2.069 -0.5767 -1.3610 -2.7520
11540TIP3   OH256110   4.353   4.700   3.812 -0.4913 -0.2622 -0.3892
11540TIP3    H156111   4.273   4.721   3.861 -0.2954  0.7093 -0.4664
11540TIP3    H256112   4.322   4.648   3.738 -1.1327  0.4998 -0.6769
11541TIP3   OH256113   5.659   3.303  11.262 -0.4121  0.3565 -0.1170
11541TIP3    H156114   5.626   3.392  11.273  2.1670  1.3183  0.7453
11541TIP3    H256115   5.692   3.279  11.348  1.4636 -0.2853 -0.9516
11542TIP3   OH256116   6.493   2.674  15.648 -0.4650  0.2157 -0.3763
11542TIP3    H156117   6.544   2.711  15.720 -0.3747  0.3666 -0.5186
11542TIP3    H256118   6.416   2.637  15.690 -1.1127  1.5390 -0.3560
11543TIP3   OH256119   4.390   2.082   0.189  0.0383  0.6774  0.0405
11543TIP3    H156120   4.477   2.102   0.154  1.1835 -0.0839  2.2210
11543TIP3    H256121   4.383   2.136   0.268 -1.3758  0.5358  0.0402
11544TIP3   OH256122   6.322   1.894  15.047 -0.2201 -0.0751 -0.0581
11544TIP3    H156123   6.298   1.971  14.996 -2.0773 -0.5453  0.0311
11544TIP3    H256124   6.326   1.823  14.983 -1.5457 -0.4640  0.2466
11545TIP3   OH256125   1.733   3.583  10.033  0.2667  0.1776  0.3355
11545TIP3    H156126   1.784   3.661  10.053  0.5502 -0.0244  0.3938
11545TIP3    H256127   1.650   3.597  10.078  0.5814  0.1162  0.9400
11546TIP3   OH256128   5.441   3.912   4.712 -0.3738  0.2153  0.0514
11546TIP3    H156129   5.532   3.915   4.741  0.8302 -0.4251 -3.2602
11546TIP3    H256130   5.418   3.819   4.713 -0.9801  0.3651  0.7766
11547TIP3   OH256131   4.679   1.672   2.942 -0.4365  0.0037  0.3235
11547TIP3    H156132   4.661   1.709   3.028 -0.1212  0.8178  0.0505
11547TIP3    H256133   4.666   1.577   2.953 -0.0734  0.0608  1.3454
11548TIP3   OH256134   0.127   6.352  15.800 -0.0606 -0.4851  0.4937
11548TIP3    H156135   0.165   6.266  15.822  2.2765 -0.2507 -2.0459
11548TIP3    H256136   0.179   6.414  15.850 -0.2762 -0.4239  0.6418
11549TIP3   OH256137   2.926   1.921   1.283 -0.0200  0.9039 -0.1067
11549TIP3    H156138   2.980   1.930   1.362 -1.1353 -0.5423  0.8711
11549TIP3    H256139   2.837   1.907   1.316 -0.1096 -2.7702 -1.4603
11550TIP3   OH256140   6.381   0.528  16.503 -0.5618 -0.2472 -0.6680
11550TIP3    H156141   6.309   0.584  16.532  0.2206 -0.4953  1.9298
11550TIP3    H256142   6.459   0.565  16.544  0.9707  0.2721 -3.7516
11551TIP3   OH256143   3.019   2.361  11.862 -0.6308 -0.4933  0.0893
11551TIP3    H156144   3.065   2.318  11.789 -1.0755 -0.2502 -0.3386
11551TIP3    H256145   3.059   2.448  11.868  0.7046 -1.1502  1.3604
11552TIP3   OH256146   3.660   0.395   5.732  0.3799  0.0065 -0.3401
11552TIP3    H156147   3.660   0.372   5.639 -0.7879 -0.6435 -0.1868
11552TIP3    H256148   3.628   0.316   5.777 -1.5501  1.1428  0.3901
11553TIP3   OH256149   3.323   4.401   0.843  0.0508 -0.0569  0.3616
11553TIP3    H156150   3.368   4.474   0.886  0.3610  0.7577 -1.2491
11553TIP3    H256151   3.392   4.337   0.826  0.3324  0.4847 -0.6442
11554TIP3   OH256152   4.864   6.441  16.083  0.1225 -0.5481 -0.2408
11554TIP3    H156153   4.779   6.403  16.063  0.3276 -1.6809  0.8756
11554TIP3    H256154   4.845   6.528  16.117 -0.6464 -0.9901  0.4955
11555TIP3   OH256155   6.301   0.484   2.850 -0.1330  0.2369  0.1736
11555TIP3    H156156   6.388   0.446   2.836  0.1900  0.8427  0.5134
11555TIP3    H256157   6.286   0.473   2.944 -0.4226  0.1451  0.1166
11556TIP3   OH256158   2.749   2.310   5.719  0.7475 -0.0150 -0.2061
11556TIP3    H156159   2.828   2.335   5.671  1.2469  1.8466  1.4632
11556TIP3    H256160   2.695   2.389   5.721  0.0666 -0.4717  0.9881
11557TIP3   OH256161   5.380   6.775  12.788  0.3484  0.3466 -0.0298
11557TIP3    H156162   5.303   6.773  12.845 -1.1695  0.1193 -1.9868
11557TIP3    H256163   5.408   6.683  12.782  2.6257  0.6980  2.9187
11558TIP3   OH256164   3.277   0.876  15.648  0.1658 -0.1230 -0.0866
11558TIP3    H156165   3.220   0.871  15.571  0.6451 -0.4756 -0.4214
11558TIP3    H256166   3.299   0.968  15.655  0.6697 -0.1837 -0.7822
11559TIP3   OH256167   0.497   5.690  12.140 -0.5540 -0.2089 -0.2962
11559TIP3    H156168   0.484   5.626  12.070  0.2155 -1.5476  0.7471
11559TIP3    H256169   0.408   5.720  12.162 -0.8257 -0.0077 -1.6008
11560TIP3   OH256170   3.600   2.266   3.046 -0.2583  0.2810 -0.4089
11560TIP3    H156171   3.579   2.313   2.965  2.0422  0.8639 -0.7439
11560TIP3    H256172   3.663   2.199   3.020 -0.4361 -0.3505  0.7183
11561TIP3   OH256173   4.873   0.321  16.245 -0.0085 -0.1498  0.1689
11561TIP3    H156174   4.818   0.242  16.241 -0.7273  0.2119  2.1148
11561TIP3    H256175   4.815   0.392  16.218  0.6403 -0.2445 -1.5829
11562TIP3   OH256176   3.234   5.603  11.860 -0.0988 -0.6522 -0.8796
11562TIP3    H156177   3.168   5.555  11.810 -1.8863 -2.2574  2.6181
11562TIP3    H256178   3.304   5.539  11.875 -0.4676 -0.8281  0.1793
11563TIP3   OH256179   4.743   2.112   4.361 -0.2572  0.3526  0.2661
11563TIP3    H156180   4.700   2.103   4.446  1.1801  0.5595  1.0379
11563TIP3    H256181   4.765   2.205   4.354  0.0676  0.2511 -0.1213
11564TIP3   OH256182   2.160   4.625   4.320 -0.6179  0.4219  0.3292
11564TIP3    H156183   2.203   4.688   4.378 -0.2450  0.8032 -0.3543
11564TIP3    H256184   2.178   4.657   4.232 -0.0037 -0.8998 -0.0499
11565TIP3   OH256185   0.108   6.560  15.071  0.6415 -0.3481 -0.1198
11565TIP3    H156186   0.044   6.608  15.018  0.5420 -0.6567 -0.2884
11565TIP3    H256187   0.182   6.546  15.012  1.1524  0.5856  0.2746
11566TIP3   OH256188   3.325   2.911  10.916  0.2570  0.2023 -0.0209
11566TIP3    H156189   3.254   2.883  10.858 -0.9336  1.1246  0.9334
11566TIP3    H256190   3.367   2.983  10.869  0.8505 -0.6065 -0.7678
11567TIP3   OH256191   1.851   2.304   2.972 -0.2246 -0.4905  0.1065
11567TIP3    H156192   1.902   2.236   2.928  3.1042  1.2884  0.9132
11567TIP3    H256193   1.866   2.383   2.919 -0.7905  0.4457  1.3111
11568TIP3   OH256194   5.473   2.087   2.058  0.0378  0.6298 -0.1854
11568TIP3    H156195   5.431   2.060   1.976 -0.4827 -0.6057  0.4714
11568TIP3    H256196   5.566   2.067   2.044 -0.2443 -0.9491  0.0397
11569TIP3   OH256197   2.994   4.398  12.675 -0.4882  0.1426  0.0588
11569TIP3    H156198   2.906   4.401  12.636 -0.8608  0.1379  0.8653
11569TIP3    H256199   3.036   4.322  12.634 -0.3422  0.9721 -1.3770
11570TIP3   OH256200   3.997   6.740   3.127  0.3346  0.0565 -0.3585
11570TIP3    H156201   3.975   6.652   3.098  0.7405 -0.2342  0.1982
11570TIP3    H256202   3.915   6.789   3.120  0.0294 -0.4509 -0.3704
11571TIP3   OH256203   5.949   6.501  13.056 -0.1949 -0.2569 -0.3763
11571TIP3    H156204   6.015   6.568  13.036 -1.4399  1.7805  1.8084
11571TIP3    H256205   5.874   6.525  13.003 -0.2309 -0.7019 -0.5308
11572TIP3   OH256206   6.058   0.200   0.384 -0.2422  1.0513  0.2069
11572TIP3    H156207   6.011   0.232   0.461 -0.6731 -0.1366  0.4533
11572TIP3    H256208   6.067   0.106   0.398  0.3665  0.9338 -0.8331
11573TIP3   OH256209   3.342   0.122   5.856  0.2231 -0.0666 -0.0325
11573TIP3    H156210   3.296   0.191   5.904  0.5317  0.2049 -0.1217
11573TIP3    H256211   3.412   0.094   5.914 -2.0602 -2.9030  1.5751
11574TIP3   OH256212   4.368   1.599   3.081  0.0106 -0.8159 -0.0327
11574TIP3    H156213   4.352   1.644   2.998  1.4557  0.5289  0.3661
11574TIP3    H256214   4.420   1.523   3.058  0.7202 -0.2495 -0.3521
11575TIP3   OH256215   4.340   6.476  16.161 -0.4127 -0.5261 -0.2546
11575TIP3    H156216   4.254   6.461  16.200  0.0259 -1.7241  0.3002
11575TIP3    H256217   4.401   6.478  16.235  0.3164 -1.9194 -0.7739
11576TIP3   OH256218   2.346   6.623  15.018 -0.8111  0.1010 -0.4251
11576TIP3    H156219   2.438   6.649  15.015 -1.2920  1.9649 -0.1320
11576TIP3    H256220   2.345   6.545  15.073  0.3436  1.4099  1.5881
11577TIP3   OH256221   4.078   0.472  16.585 -0.2828 -0.2438 -0.4187
11577TIP3    H156222   4.049   0.382  16.603 -0.2326 -0.0870  0.4620
11577TIP3    H256223   3.997   0.520  16.565 -0.1751 -0.8445 -2.6557
11578TIP3   OH256224   0.204   0.361  11.272 -0.0145 -0.1404 -0.5499
11578TIP3    H156225   0.151   0.411  11.210 -0.1724 -1.2510 -1.3185
11578TIP3    H256226   0.157   0.370  11.355  0.3017  1.5119 -0.5086
11579TIP3   OH256227   5.456   3.838   5.768  0.3497  0.5529  0.3601
11579TIP3    H156228   5.525   3.901   5.788 -0.0710  0.7965  1.1090
11579TIP3    H256229   5.410   3.827   5.851  1.0765 -1.5789  0.5161
11580TIP3   OH256230   1.214   2.016  15.619 -0.3189 -0.4539  0.0049
11580TIP3    H156231   1.167   2.030  15.701  1.0359  2.1068  0.4354
11580TIP3    H256232   1.251   2.101  15.597  2.5282 -1.8864 -1.2986
11581TIP3   OH256233   6.397   1.271  14.414  0.1715 -0.1838 -0.0943
11581TIP3    H156234   6.393   1.255  14.509 -0.5596 -2.4291 -0.4367
11581TIP3    H256235   6.406   1.366  14.406 -0.6887  0.1649  2.2081
11582TIP3   OH256236   3.063   6.098   2.230  0.0173 -0.1023  0.1967
11582TIP3    H156237   3.061   6.094   2.326 -0.5290 -1.1395  0.1558
11582TIP3    H256238   3.063   6.007   2.202 -0.5725  0.1944 -0.8090
11583TIP3   OH256239   4.221   5.089   4.786 -0.2668 -0.0321  0.3826
11583TIP3    H156240   4.206   5.139   4.706 -0.4657 -2.2189 -1.0403
11583TIP3    H256241   4.297   5.130   4.826  0.6474  0.3594 -1.6269
11584TIP3   OH256242   3.234   5.921   1.899 -0.3725 -0.1370  0.5975
11584TIP3    H156243   3.226   6.014   1.917  1.4636 -0.0198  0.9756
11584TIP3    H256244   3.321   5.897   1.932 -1.6966 -2.4898  2.7216
11585TIP3   OH256245   0.576   0.738  14.003  1.0752  0.0041 -0.4535
11585TIP3    H156246   0.653   0.759  14.055 -0.0098 -0.6318  1.5197
11585TIP3    H256247   0.502   0.769  14.055 -0.0885 -0.9637 -1.4498
11586TIP3   OH256248   4.351   0.380  13.773 -0.4068  0.1891  0.1066
11586TIP3    H156249   4.303   0.298  13.788 -2.3345  1.3219  0.3738
11586TIP3    H256250   4.305   0.445  13.825 -0.7430  2.0460 -2.3229
11587TIP3   OH256251   6.811   4.847  10.907  0.1550 -0.7651  0.1068
11587TIP3    H156252   6.719   4.825  10.923 -0.3860  1.7099  0.7218
11587TIP3    H256253   6.851   4.763  10.883 -2.6940 -1.5796 -2.4773
11588TIP3   OH256254   4.789   1.794  12.618  0.0283  0.1001 -0.6293
11588TIP3    H156255   4.813   1.819  12.707  1.7268 -2.6599 -0.2149
11588TIP3    H256256   4.873   1.772  12.576 -0.9992 -1.7047 -1.8635
11589TIP3   OH256257   5.385   2.382   0.944 -0.8400  0.0431  0.5178
11589TIP3    H156258   5.371   2.300   0.897  2.9946 -0.3439 -0.2987
11589TIP3    H256259   5.348   2.449   0.887  1.4008 -0.6609 -1.9972
11590TIP3   OH256260   2.992   3.792  10.766  0.3570  0.1549  0.0250
11590TIP3    H156261   3.083   3.762  10.761  0.3282 -0.1795  1.1544
11590TIP3    H256262   2.947   3.723  10.815 -0.7970 -0.3009 -1.5892
11591TIP3   OH256263   0.453   4.360  12.038 -0.7460  0.6474 -0.3797
11591TIP3    H156264   0.445   4.276  11.995  1.1898  0.6608 -0.8865
11591TIP3    H256265   0.448   4.340  12.132  2.7373 -0.5888 -0.3142
11592TIP3   OH256266   5.945   5.586   1.768  0.1683  0.0416 -0.4533
11592TIP3    H156267   5.937   5.570   1.862  0.4622 -0.7375 -0.5541
11592TIP3    H256268   5.904   5.672   1.754  0.3443  0.2721  0.4188
11593TIP3   OH256269   0.895   0.010   5.163  0.1649 -0.0985  0.3155
11593TIP3    H156270   0.854   0.094   5.145  0.6102 -0.0704 -0.5968
11593TIP3    H256271   0.976   0.011   5.113 -0.4006 -1.5477 -0.6864
11594TIP3   OH256272   1.993   5.734   1.317  0.2076 -0.2366  0.2192
11594TIP3    H156273   1.953   5.663   1.367 -0.2316 -0.5889 -0.6116
11594TIP3    H256274   2.053   5.690   1.257  1.2271  0.2315  0.8788
11595TIP3   OH256275   0.717   1.265   1.027  0.5438 -0.0303  0.0010
11595TIP3    H156276   0.671   1.191   0.987 -1.5053  1.3362 -0.3111
11595TIP3    H256277   0.749   1.231   1.110 -0.6057 -1.1909  0.0053
11596TIP3   OH256278   2.302   6.798   4.469  0.5029  0.0800  0.2217
11596TIP3    H156279   2.323   6.848   4.390  0.1381  2.6950  1.6739
11596TIP3    H256280   2.207   6.806   4.477  0.7185  1.5347  1.9120
11597TIP3   OH256281   4.028   6.253  13.354 -0.7417  0.2474  0.2412
11597TIP3    H156282   4.115   6.239  13.318 -0.3088  2.2945  0.3748
11597TIP3    H256283   4.025   6.201  13.434  0.4023  0.2245  0.2791
11598TIP3   OH256284   2.317   5.833   1.231  0.0524  0.0458  0.4583
11598TIP3    H156285   2.327   5.877   1.146 -1.2132 -1.1230 -0.3505
11598TIP3    H256286   2.236   5.869   1.267 -0.7578 -1.2641 -0.0118
11599TIP3   OH256287   0.827   4.324  16.606  0.2874 -0.3302  0.9175
11599TIP3    H156288   0.915   4.343  16.573  0.1144  0.8418  1.1091
11599TIP3    H256289   0.773   4.317  16.527  0.4514 -0.5677  0.8228
11600TIP3   OH256290   6.337   0.939  14.882  0.1921  0.2115 -0.1921
11600TIP3    H156291   6.316   0.950  14.790 -0.6616 -1.1459 -0.1877
11600TIP3    H256292   6.304   0.852  14.904  0.4821  0.4637  1.3679
11601TIP3   OH256293   5.411   5.043  12.122 -0.3084  0.7509  0.3351
11601TIP3    H156294   5.344   5.021  12.057  0.6847 -1.0290 -0.1376
11601TIP3    H256295   5.429   4.961  12.168  1.4042  1.2222  0.5966
11602TIP3   OH256296   5.694   2.937   3.407 -0.2018 -0.1376 -0.4790
11602TIP3    H156297   5.667   2.905   3.321  1.3440 -2.9895 -0.0341
11602TIP3    H256298   5.618   2.921   3.464 -0.6360  0.1897 -0.9601
11603TIP3   OH256299   3.668   4.861   0.019 -0.3287  0.1150  0.1637
11603TIP3    H156300   3.690   4.816   0.101 -0.6328 -0.0850  0.1372
11603TIP3    H256301   3.645   4.950   0.047  1.3096  0.5873  0.1070
11604TIP3   OH256302   6.552   6.217  16.079 -0.6023  0.2884 -0.1207
11604TIP3    H156303   6.490   6.155  16.117  0.0927 -0.0229  0.5340
11604TIP3    H256304   6.512   6.303  16.096 -1.5499  0.0465 -1.0103
11605TIP3   OH256305   1.449   4.040   2.879 -0.2138  0.0732  0.0600
11605TIP3    H156306   1.540   4.055   2.854  0.3481 -0.1862  1.8028
11605TIP3    H256307   1.437   3.945   2.868  0.3074 -0.1853  1.5196
11606TIP3   OH256308   3.643   2.220   4.125 -0.1162  0.1831 -0.1313
11606TIP3    H156309   3.580   2.190   4.190 -1.0616  0.2358 -0.9952
11606TIP3    H256310   3.622   2.171   4.046  2.2654 -1.3350  0.0677
11607TIP3   OH256311   0.490   2.181   0.607  0.0033  0.4557 -0.4285
11607TIP3    H156312   0.406   2.167   0.564  0.0243  1.4184 -0.8191
11607TIP3    H256313   0.468   2.226   0.689  0.0982  0.2178 -0.2716
11608TIP3   OH256314   2.064   1.727  11.544  0.2853  0.1774  0.4731
11608TIP3    H156315   2.109   1.801  11.504 -0.9144  0.9302  0.4717
11608TIP3    H256316   2.067   1.658  11.478  2.2664 -0.1394  0.8464
11609TIP3   OH256317   6.686   2.760   5.006  0.0105  0.1063  0.1921
11609TIP3    H156318   6.635   2.837   4.981 -0.9548 -0.0097  1.6538
11609TIP3    H256319   6.673   2.699   4.934 -0.6413  0.6830 -0.1971
11610TIP3   OH256320   4.332   3.201   0.463 -0.6131 -0.1084 -0.9078
11610TIP3    H156321   4.313   3.148   0.386 -0.6685 -1.1684 -0.1866
11610TIP3    H256322   4.250   3.246   0.483 -0.5761  0.2274 -1.5049
11611TIP3   OH256323   0.526   0.066  12.364  0.2874 -0.4192 -0.4683
11611TIP3    H156324   0.607   0.028  12.397  0.2314 -0.1676 -0.0288
11611TIP3    H256325   0.544   0.084  12.271  0.6940 -0.4609 -0.3993
11612TIP3   OH256326   5.543   6.147   5.796 -0.7178  0.2497 -0.1316
11612TIP3    H156327   5.490   6.210   5.746  0.0981  0.6156 -0.5756
11612TIP3    H256328   5.527   6.170   5.888 -1.5764  0.1330 -0.2458
11613TIP3   OH256329   6.128   6.457   0.054 -0.7686  0.2931  0.4476
11613TIP3    H156330   6.067   6.529   0.074  0.4164  1.2799  0.5991
11613TIP3    H256331   6.147   6.417   0.138  1.8188  2.5011  1.0421
11614TIP3   OH256332   2.939   1.466  14.848  0.3005  0.8046  0.1532
11614TIP3    H156333   3.017   1.508  14.885  0.9150  0.7374 -1.0190
11614TIP3    H256334   2.973   1.406  14.781 -0.5970 -1.2554  1.4636
11615TIP3   OH256335   3.594   3.097  11.179  0.4975 -0.3927  0.0802
11615TIP3    H156336   3.633   3.184  11.176  0.9640 -0.6031 -0.2071
11615TIP3    H256337   3.669   3.038  11.180  0.1852 -0.7989 -0.1463
11616TIP3   OH256338   3.604   3.327  10.658 -0.2920  0.2414 -0.1234
11616TIP3    H156339   3.550   3.270  10.603 -0.0508  1.4805 -1.7117
11616TIP3    H256340   3.548   3.349  10.733 -1.1858 -0.2301 -0.6406
11617TIP3   OH256341   0.584   2.915  13.886 -0.0122 -0.3856 -0.0090
11617TIP3    H156342   0.673   2.950  13.883 -0.1467  0.1520  1.4051
11617TIP3    H256343   0.529   2.987  13.855 -0.0955 -0.1166  0.7534
11618TIP3   OH256344   6.845   4.547  14.628 -0.1868 -0.0668 -0.4741
11618TIP3    H156345   6.894   4.497  14.694 -0.0577 -0.8721 -1.1552
11618TIP3    H256346   6.911   4.574  14.564 -0.5505 -0.8864 -1.2314
11619TIP3   OH256347   6.533   6.611   2.319 -0.1322 -0.2824 -0.1085
11619TIP3    H156348   6.519   6.608   2.413  0.6414  1.2229  0.0768
11619TIP3    H256349   6.446   6.595   2.282 -0.7098  0.4490  0.8855
11620TIP3   OH256350   1.579   0.309  14.921  0.3895 -0.0298 -0.3827
11620TIP3    H156351   1.620   0.332  15.005 -2.1981 -2.5204  1.7486
11620TIP3    H256352   1.517   0.380  14.904 -1.3075 -0.9372  1.5673
11621TIP3   OH256353   6.300   2.191   1.205  0.0830 -0.9550  0.1830
11621TIP3    H156354   6.229   2.192   1.269  0.4069 -1.0026  0.5448
11621TIP3    H256355   6.353   2.268   1.227 -0.7271 -0.0081 -1.0708
11622TIP3   OH256356   0.236   1.233   2.545 -0.5073 -0.1581  0.4797
11622TIP3    H156357   0.245   1.293   2.471  1.1244  0.2496  0.9673
11622TIP3    H256358   0.190   1.156   2.509  0.0781  0.1170 -0.8960
11623TIP3   OH256359   4.183   2.571  13.900 -0.6453  0.0235 -0.1107
11623TIP3    H156360   4.211   2.658  13.926  0.0028 -0.2559  0.1437
11623TIP3    H256361   4.219   2.513  13.967  0.4274 -0.6288 -1.2173
11624TIP3   OH256362   1.145   6.607   3.973  0.6778 -0.2558 -0.9809
11624TIP3    H156363   1.069   6.608   3.915  0.5549 -0.2601 -0.8236
11624TIP3    H256364   1.204   6.673   3.937  0.5224 -0.1294 -1.0062
11625TIP3   OH256365   6.585   5.839   5.021  0.5595  0.3171 -0.0623
11625TIP3    H156366   6.536   5.853   4.940 -0.2876 -0.0732  0.3714
11625TIP3    H256367   6.673   5.815   4.992 -0.2608 -1.8810 -0.9145
11626TIP3   OH256368   3.556   1.627   5.444 -0.0114 -0.1006 -0.2235
11626TIP3    H156369   3.490   1.681   5.399  1.3110  0.8107 -1.1536
11626TIP3    H256370   3.593   1.573   5.374  1.3436  0.5751 -0.0518
11627TIP3   OH256371   1.723   0.266   5.681  0.1141  0.0106  0.1250
11627TIP3    H156372   1.675   0.245   5.761  0.9284  0.6463  0.8013
11627TIP3    H256373   1.765   0.350   5.700 -0.5986  0.7456 -1.3986
11628TIP3   OH256374   0.787   3.011   1.684  0.5132 -0.1818  0.0436
11628TIP3    H156375   0.706   3.045   1.724 -0.1685 -1.2942 -0.3385
11628TIP3    H256376   0.856   3.038   1.744 -0.0468  1.4357 -0.0047
11629TIP3   OH256377   2.286   0.238  15.447 -0.3278 -0.3133 -0.3646
11629TIP3    H156378   2.202   0.200  15.473  0.1307 -0.3561  1.1286
11629TIP3    H256379   2.349   0.203  15.509  0.7172  0.1366 -1.1410
11630TIP3   OH256380   1.680   3.992  13.868  0.0144 -0.0159  0.4846
11630TIP3    H156381   1.717   3.964  13.784  1.5145 -0.0097  1.1252
11630TIP3    H256382   1.754   3.996  13.927 -0.7940  1.4209  1.4527
11631TIP3   OH256383   0.060   1.228  15.896  0.0755  0.0208 -0.3762
11631TIP3    H156384  -0.031   1.199  15.906  0.0722  0.6700  2.4161
11631TIP3    H256385   0.101   1.159  15.844 -2.0359 -0.1630 -1.9257
11632TIP3   OH256386   0.896   0.521   0.722  0.4489  0.4689 -0.1933
11632TIP3    H156387   0.879   0.581   0.649  1.0408 -0.1620 -0.8697
11632TIP3    H256388   0.863   0.436   0.691  0.7754  0.1761  0.2404
11633TIP3   OH256389   6.423   2.241   0.696  0.4364 -0.1713  0.2833
11633TIP3    H156390   6.516   2.240   0.716  0.3224  0.0594  0.8345
11633TIP3    H256391   6.380   2.218   0.779 -0.0500  0.9653  0.3656
11634TIP3   OH256392   3.392   4.956  15.589 -0.1771  0.3703  0.1488
11634TIP3    H156393   3.467   4.994  15.633  0.8164  0.4649 -1.5274
11634TIP3    H256394   3.319   5.015  15.611  0.9538  2.2968 -0.9423
11635TIP3   OH256395   0.640   2.927  13.479  0.1559 -0.2198 -0.3714
11635TIP3    H156396   0.676   2.883  13.556  2.1071 -0.8951 -1.5819
11635TIP3    H256397   0.717   2.951  13.428 -1.0067  1.7371 -1.3257
11636TIP3   OH256398   3.601   0.262   1.641  0.4156  0.4217 -0.8315
11636TIP3    H156399   3.642   0.215   1.714  0.3429 -0.9990 -1.6639
11636TIP3    H256400   3.663   0.250   1.569 -0.3133  0.3452 -1.4485
11637TIP3   OH256401   5.742   5.159   4.781 -0.0071 -0.5857  0.2393
11637TIP3    H156402   5.664   5.171   4.835  0.4196  0.8724  0.5751
11637TIP3    H256403   5.716   5.092   4.717 -2.4229  1.5741 -1.2317
11638TIP3   OH256404   4.272   0.238  10.796 -0.5802 -0.2661 -1.0063
11638TIP3    H156405   4.232   0.323  10.778 -1.0702 -0.8151 -2.6360
11638TIP3    H256406   4.279   0.196  10.711 -1.5476 -2.3967 -0.0969
11639TIP3   OH256407   6.460   2.260  12.529 -0.0707  0.2564  0.3561
11639TIP3    H156408   6.503   2.317  12.465 -0.9474  1.6002  0.9102
11639TIP3    H256409   6.398   2.317  12.575 -0.1641 -0.8853  1.7519
11640TIP3   OH256410   0.880   0.962   0.994  0.5407 -0.1817  0.3254
11640TIP3    H156411   0.792   0.997   1.006  0.5128 -0.0198 -0.3387
11640TIP3    H256412   0.868   0.879   0.949  0.7968  0.5200 -1.1011
11641TIP3   OH256413   5.210   0.049  15.332  0.3566  0.5462 -0.1396
11641TIP3    H156414   5.246  -0.008  15.400 -1.1362 -0.7339 -0.3667
11641TIP3    H256415   5.285   0.099  15.300  1.5480 -0.6351  0.6968
11642TIP3   OH256416   0.509   0.485   2.379 -0.1421  0.2888  0.8481
11642TIP3    H156417   0.425   0.447   2.402 -1.9301  3.3026 -0.0836
11642TIP3    H256418   0.539   0.527   2.460  0.2405 -0.3568  1.0477
11643TIP3   OH256419   1.266   4.560  16.080  0.3377  0.3304 -0.0761
11643TIP3    H156420   1.280   4.536  15.988  1.1104  0.0267  0.1151
11643TIP3    H256421   1.271   4.656  16.080  0.0735  0.3476 -0.3882
11644TIP3   OH256422   5.245   5.557  13.783  0.2255 -0.5035  0.5125
11644TIP3    H156423   5.310   5.504  13.829  0.9279  0.5690  0.7929
11644TIP3    H256424   5.295   5.626  13.740 -0.6387 -0.2033 -0.0539
11645TIP3   OH256425   4.957   3.635  12.390 -0.5908  0.6435 -0.2888
11645TIP3    H156426   4.886   3.697  12.378 -2.1443 -0.7482  1.2307
11645TIP3    H256427   4.936   3.562  12.332  0.6514  1.0163 -1.2632
11646TIP3   OH256428   2.468   4.479  15.238  0.2207 -0.3248  0.2857
11646TIP3    H156429   2.518   4.524  15.170 -1.7745 -1.1956 -1.9140
11646TIP3    H256430   2.491   4.386  15.226  0.5453 -0.4054  1.4465
11647TIP3   OH256431   4.452   6.270   3.424 -0.0730  1.3987  0.4589
11647TIP3    H156432   4.357   6.280   3.423 -0.1951  0.7793 -2.0309
11647TIP3    H256433   4.481   6.310   3.341  1.3917 -1.6651 -0.6852
11648TIP3   OH256434   3.332   3.431   4.057  0.0489  0.0868  0.4592
11648TIP3    H156435   3.323   3.526   4.063 -1.1614  0.4159 -3.7532
11648TIP3    H256436   3.352   3.414   3.965 -0.0866 -3.7801  0.9720
11649TIP3   OH256437   6.403   3.065  15.247  0.1120 -0.2259  0.3936
11649TIP3    H156438   6.317   3.078  15.209  0.4325  1.2717  0.0969
11649TIP3    H256439   6.386   3.038  15.338 -0.6769  0.3446  0.4268
11650TIP3   OH256440   1.563   5.837   4.287  0.2561  0.5001 -0.4512
11650TIP3    H156441   1.538   5.926   4.310 -0.4025  1.4707 -4.1685
11650TIP3    H256442   1.654   5.843   4.260  0.5286 -0.1913  0.2956
11651TIP3   OH256443   4.798   4.017   5.348 -0.0317  0.1630  0.1264
11651TIP3    H156444   4.742   3.939   5.351  1.2651 -0.8259 -0.6629
11651TIP3    H256445   4.881   3.989   5.386  1.1061  0.5816 -1.9114
11652TIP3   OH256446   5.652   3.067   4.899  0.9791 -0.5127 -0.5537
11652TIP3    H156447   5.636   3.019   4.980 -1.1762 -0.2235 -0.7488
11652TIP3    H256448   5.613   3.012   4.830  1.7886 -0.2238 -1.2657
11653TIP3   OH256449   1.745   4.891   3.859 -0.4587 -0.1777 -0.3728
11653TIP3    H156450   1.781   4.872   3.772  0.7136 -0.2029  0.0945
11653TIP3    H256451   1.735   4.986   3.859 -1.6380 -0.2792 -0.9541
11654TIP3   OH256452   5.803   2.127   5.866  0.0282 -0.3369 -0.5852
11654TIP3    H156453   5.805   2.142   5.960 -1.9979 -0.6314 -0.4578
11654TIP3    H256454   5.893   2.145   5.837  0.0882  2.4510  0.9706
11655TIP3   OH256455   2.185   0.024   4.786 -0.2922 -0.1584  0.5356
11655TIP3    H156456   2.149   0.108   4.815 -2.5629 -0.7827 -0.2969
11655TIP3    H256457   2.149  -0.040   4.848  0.5257 -0.6730  0.4988
11656TIP3   OH256458   5.974   1.676   0.922  0.3372  0.0927 -0.4700
11656TIP3    H156459   5.889   1.674   0.964  0.1866  0.0726 -0.7735
11656TIP3    H256460   6.011   1.761   0.946  1.1581 -0.7426  1.4651
11657TIP3   OH256461   2.646   4.889   3.076 -0.2325  0.5589  0.0007
11657TIP3    H156462   2.697   4.941   3.014  0.6427  0.0524  0.2847
11657TIP3    H256463   2.709   4.860   3.141 -0.7462 -0.6487 -0.0109
11658TIP3   OH256464   2.468   0.703  13.004 -0.0453  0.1104  0.5031
11658TIP3    H156465   2.417   0.627  12.977  0.4687 -0.7934  1.9695
11658TIP3    H256466   2.549   0.667  13.040  0.6876  1.4101  0.2568
11659TIP3   OH256467   6.201   1.316   5.204  0.1368 -0.2005 -0.6918
11659TIP3    H156468   6.280   1.338   5.253 -1.2273  0.0431  1.5446
11659TIP3    H256469   6.231   1.253   5.138  2.1295 -0.3804  0.2859
11660TIP3   OH256470   6.703   3.846   4.305 -0.6978  0.2604  0.2905
11660TIP3    H156471   6.622   3.874   4.262 -1.5149  0.7116  2.0105
11660TIP3    H256472   6.760   3.923   4.301 -0.8558  0.3748  0.2018
11661TIP3   OH256473   1.091   4.199  16.134 -0.4621  0.1466  0.0387
11661TIP3    H156474   1.112   4.107  16.116 -2.1173 -0.5232  1.1913
11661TIP3    H256475   1.050   4.197  16.221  1.3682  2.2896  1.0482
11662TIP3   OH256476   4.717   5.835   1.312  0.1074  0.2115  0.9109
11662TIP3    H156477   4.684   5.786   1.236  1.6158  0.5284  0.0024
11662TIP3    H256478   4.667   5.801   1.386  0.2691 -1.8718  0.1378
11663TIP3   OH256479   2.702   1.049  15.623  0.0153 -0.8561 -0.3467
11663TIP3    H156480   2.679   1.093  15.540  1.1767 -0.2086 -0.3468
11663TIP3    H256481   2.772   1.103  15.659  0.0925 -1.6160  0.6552
11664TIP3   OH256482   6.343   1.140   3.008  0.4135 -0.1232 -0.3997
11664TIP3    H156483   6.433   1.111   3.025  0.0684 -0.7788  0.3850
11664TIP3    H256484   6.342   1.160   2.915  1.3331 -0.2498 -0.4517
11665TIP3   OH256485   1.507   2.888  15.927 -0.5012 -0.0449  0.3241
11665TIP3    H156486   1.483   2.963  15.982  0.6891 -0.0364  0.8516
11665TIP3    H256487   1.428   2.870  15.876 -2.0277 -0.6671  2.7384
11666TIP3   OH256488   5.182   3.440  15.435  0.0392 -0.4694 -0.5145
11666TIP3    H156489   5.194   3.416  15.526 -0.6684 -1.4446 -0.6632
11666TIP3    H256490   5.087   3.445  15.423  0.1251  1.1630 -0.8284
11667TIP3   OH256491   0.670   5.993   5.058  0.4558  0.3804 -0.3247
11667TIP3    H156492   0.648   6.027   4.971  0.5605 -1.1181 -0.9814
11667TIP3    H256493   0.761   5.965   5.051  1.1513  2.1879  0.9412
11668TIP3   OH256494   6.269   0.190   5.512  0.5494  0.2320 -0.2093
11668TIP3    H156495   6.287   0.104   5.474  0.2967 -1.5676  3.3444
11668TIP3    H256496   6.354   0.233   5.514  1.5748 -1.6802  1.6736
11669TIP3   OH256497   4.850   4.253  11.553 -0.4469  0.2429  0.1753
11669TIP3    H156498   4.943   4.242  11.533 -1.0615 -2.1917 -1.7932
11669TIP3    H256499   4.814   4.293  11.474 -1.6162 -2.2012 -0.6179
11670TIP3   OH256500   3.854   3.235   5.711  0.2029  0.0227 -0.5178
11670TIP3    H156501   3.764   3.269   5.715  0.1986  0.0942 -1.1057
11670TIP3    H256502   3.846   3.143   5.736 -0.1107 -0.0899 -1.0067
11671TIP3   OH256503   5.191   2.918   0.900 -0.2740 -0.5288  0.3690
11671TIP3    H156504   5.238   2.983   0.952  1.8098 -0.7220 -1.1697
11671TIP3    H256505   5.103   2.954   0.891 -0.1950  0.3466  2.4850
11672TIP3   OH256506   5.269   1.751   5.353  0.3836 -0.0260  0.0495
11672TIP3    H156507   5.299   1.730   5.442  0.8925  1.6240  0.3035
11672TIP3    H256508   5.349   1.777   5.307  0.0218 -0.2450 -0.7028
11673TIP3   OH256509   4.867   3.388  12.951  0.1994  0.2605  0.4362
11673TIP3    H156510   4.791   3.380  12.893  0.2758  0.9207  0.2436
11673TIP3    H256511   4.836   3.355  13.036 -0.2497  0.3672  0.3136
11674TIP3   OH256512   3.522   3.272   3.063  0.4089  0.4335 -0.2510
11674TIP3    H156513   3.533   3.349   3.119  1.5990 -1.6818  2.7067
11674TIP3    H256514   3.607   3.259   3.022  0.6454 -0.0822  0.3885
11675TIP3   OH256515   4.182   3.826   2.817  0.2210  0.0667 -0.1134
11675TIP3    H156516   4.217   3.876   2.891  0.7390  0.9368 -0.9322
11675TIP3    H256517   4.164   3.892   2.750 -1.7994 -0.4942 -0.1955
11676TIP3   OH256518   1.985   6.130   2.091 -0.9406  0.1096 -0.1521
11676TIP3    H156519   2.062   6.187   2.099 -0.4079 -0.7481  1.2381
11676TIP3    H256520   2.003   6.058   2.151 -2.6222 -0.3637 -0.1736
11677TIP3   OH256521   6.391   1.238   2.063  0.2022  0.2276  0.1253
11677TIP3    H156522   6.319   1.220   2.123  1.4992 -1.7340  1.1964
11677TIP3    H256523   6.442   1.306   2.107 -1.0880  1.8412 -0.7765
11678TIP3   OH256524   4.677   0.578   6.662  0.1704  0.2471  0.3032
11678TIP3    H156525   4.659   0.486   6.680 -0.8543  0.5406  0.8549
11678TIP3    H256526   4.610   0.626   6.711  0.2392  1.2571 -0.5412
11679TIP3   OH256527   3.993   1.607  12.749 -0.5356  0.1177 -0.0997
11679TIP3    H156528   4.079   1.648  12.737 -0.4814  0.3195  0.8510
11679TIP3    H256529   3.950   1.614  12.664  1.3026 -2.1610 -1.3255
11680TIP3   OH256530   3.273   2.885   0.233  0.5504  0.1743  0.3113
11680TIP3    H156531   3.299   2.794   0.218 -2.1952 -0.8671  1.3577
11680TIP3    H256532   3.237   2.886   0.322  0.6511  2.3427  0.3891
11681TIP3   OH256533   2.051   2.372  16.776  0.4200  0.4575  0.4823
11681TIP3    H156534   2.108   2.427  16.829 -0.3644 -0.2665  2.1414
11681TIP3    H256535   1.962   2.404  16.794  0.2077  1.6517 -2.1491
11682TIP3   OH256536   2.574   2.719   0.071 -0.0354 -0.3198  0.4122
11682TIP3    H156537   2.548   2.714  -0.021  1.9004 -4.0408 -0.1097
11682TIP3    H256538   2.494   2.698   0.119 -0.0322 -3.6873 -0.7861
11683TIP3   OH256539   3.338   4.043  16.014  0.1087  0.6784  0.3386
11683TIP3    H156540   3.369   3.988  16.086 -0.8652 -0.2900  0.0411
11683TIP3    H256541   3.281   4.108  16.056  0.4576  0.8392  0.5691
11684TIP3   OH256542   0.199   6.081  15.917 -0.4338 -0.1763  0.0294
11684TIP3    H156543   0.119   6.083  15.969 -1.3495 -0.4890 -1.3200
11684TIP3    H256544   0.241   5.999  15.942 -0.3082  0.1725  1.0335
11685TIP3   OH256545   3.644   3.008  13.937 -0.7838 -0.3270 -0.3799
11685TIP3    H156546   3.665   3.023  13.845 -3.4549 -0.8279 -1.1443
11685TIP3    H256547   3.713   2.949  13.968  1.3163  1.4225 -1.4211
11686TIP3   OH256548   1.560   5.453  14.454  0.2717 -0.3703  0.3668
11686TIP3    H156549   1.561   5.523  14.389  1.1654 -0.3091  0.4255
11686TIP3    H256550   1.651   5.447  14.483  0.5353 -2.5284 -0.6844
11687TIP3   OH256551   1.423   2.986  11.084  0.5960  0.0465  0.4541
11687TIP3    H156552   1.467   3.023  11.008 -0.2205  0.2099  0.0409
11687TIP3    H256553   1.410   2.894  11.062 -2.0814  0.6232 -0.8621
11688TIP3   OH256554   2.854   5.739   1.532 -0.2667  0.1967 -1.2107
11688TIP3    H156555   2.802   5.789   1.469 -0.2598  0.6770 -0.8328
11688TIP3    H256556   2.826   5.648   1.518 -0.3490  0.3137 -1.8248
11689TIP3   OH256557   0.082   5.981   1.504  0.3344 -0.1763  0.6067
11689TIP3    H156558  -0.013   5.972   1.495  0.1344 -0.7386  2.8051
11689TIP3    H256559   0.118   5.931   1.431 -1.0180  1.7018 -1.4865
11690TIP3   OH256560   0.935   5.019  14.275  0.2437  0.1376  0.2084
11690TIP3    H156561   0.967   5.018  14.185 -0.4591 -1.5340 -0.0599
11690TIP3    H256562   0.948   5.109  14.304  0.8265  0.6187 -1.4323
11691TIP3   OH256563   3.395   5.639  10.277 -0.2183  0.3397  0.0005
11691TIP3    H156564   3.451   5.566  10.251  1.1505  0.9397  1.1474
11691TIP3    H256565   3.454   5.700  10.322 -1.6940  1.2553  0.7749
11692TIP3   OH256566   5.789   0.622   4.966 -0.6279 -0.2449 -0.2200
11692TIP3    H156567   5.850   0.550   4.986 -0.0085  0.8314  2.0592
11692TIP3    H256568   5.723   0.616   5.035 -0.1352  1.8021  0.4843
11693TIP3   OH256569   3.370   4.400  13.269 -0.4956  0.5041 -0.4695
11693TIP3    H156570   3.355   4.340  13.342  1.1952 -1.7143 -1.8276
11693TIP3    H256571   3.283   4.414  13.231 -1.5563  2.3907  2.3177
11694TIP3   OH256572   2.769   1.794   4.427 -0.5655  0.6214 -0.4032
11694TIP3    H156573   2.795   1.718   4.375 -0.2099  0.1628  0.4235
11694TIP3    H256574   2.768   1.867   4.365  0.5695  0.2318 -0.9073
11695TIP3   OH256575   2.956   4.290   1.618 -0.1300 -0.1769 -0.4722
11695TIP3    H156576   2.987   4.350   1.687 -0.2945  1.4508 -1.7428
11695TIP3    H256577   3.001   4.208   1.636  1.5704  0.8532  0.2909
11696TIP3   OH256578   6.843   6.101  15.120  0.1872  0.0575 -0.3962
11696TIP3    H156579   6.753   6.132  15.124  0.0687 -0.0693 -1.8707
11696TIP3    H256580   6.895   6.178  15.099  0.2525 -0.1450 -0.9869
11697TIP3   OH256581   2.654   4.305  13.666  0.0214  0.0356  0.3662
11697TIP3    H156582   2.649   4.236  13.732 -1.1390 -1.4904 -1.2572
11697TIP3    H256583   2.612   4.381  13.707 -1.8126 -1.2516  0.9542
11698TIP3   OH256584   4.955   2.348  11.128 -0.0584  0.6719  0.5814
11698TIP3    H156585   4.965   2.255  11.108 -0.8676  0.8694 -0.8912
11698TIP3    H256586   4.864   2.356  11.159  0.4693  0.7567  2.2100
11699TIP3   OH256587   0.481   5.887   4.232  0.0639  0.5043  0.2714
11699TIP3    H156588   0.496   5.805   4.279 -1.5038  0.7577  1.2973
11699TIP3    H256589   0.540   5.950   4.273 -1.4507  0.7845  2.1665
11700TIP3   OH256590   5.232   4.588   1.739 -0.2094  0.0097  0.6010
11700TIP3    H156591   5.234   4.552   1.827  0.1833  0.1131  0.6372
11700TIP3    H256592   5.221   4.682   1.752 -2.4163 -0.1782  0.4833
11701TIP3   OH256593   2.493   3.531   2.854 -0.0067  0.8128 -0.0568
11701TIP3    H156594   2.416   3.585   2.869 -0.3587  0.2786  0.0937
11701TIP3    H256595   2.524   3.555   2.767  0.0530  1.5113  0.1553
11702TIP3   OH256596   1.793   1.184   0.652 -0.2484  0.0476 -0.1398
11702TIP3    H156597   1.794   1.280   0.659 -2.4282  0.3194 -2.4423
11702TIP3    H256598   1.709   1.158   0.688 -0.3560 -0.8427 -1.0042
11703TIP3   OH256599   4.104   4.683   1.177  0.4257  0.3465  0.3668
11703TIP3    H156600   4.174   4.652   1.235  0.4224 -0.1092  0.1338
11703TIP3    H256601   4.144   4.755   1.128  0.6963  0.1716  0.3260
11704TIP3   OH256602   6.280   6.792  15.596  1.0937 -0.0202 -0.0263
11704TIP3    H156603   6.219   6.852  15.554  2.0324 -0.6704 -2.4773
11704TIP3    H256604   6.225   6.732  15.645 -0.1165  0.3755 -0.8723
11705TIP3   OH256605   0.521   5.130  17.059 -0.1912 -0.0037 -0.0164
11705TIP3    H156606   0.571   5.179  16.994 -1.0125  0.1681 -0.5362
11705TIP3    H256607   0.507   5.044  17.019 -0.0709 -0.1466  0.2452
11706TIP3   OH256608   0.073   4.237  16.087 -0.0825 -0.4178  0.1550
11706TIP3    H156609   0.046   4.159  16.038 -1.1231 -0.8094  1.2959
11706TIP3    H256610  -0.001   4.298  16.078 -0.3975 -0.5863  1.3925
11707TIP3   OH256611   3.955   6.066   3.481 -0.3706  0.6862 -0.1239
11707TIP3    H156612   3.884   6.129   3.471 -1.8063 -0.6206  1.3067
11707TIP3    H256613   4.023   6.096   3.420 -2.7137  1.1222 -2.7009
11708TIP3   OH256614   5.311   6.754   2.835 -0.2647 -0.4562 -0.0765
11708TIP3    H156615   5.307   6.815   2.909 -1.3727 -0.1443 -0.3715
11708TIP3    H256616   5.220   6.725   2.824  0.1347 -1.6196 -0.3975
11709TIP3   OH256617   2.944   1.622   1.344 -0.2556  0.5056  0.0306
11709TIP3    H156618   2.968   1.688   1.408  1.0300 -0.3505  0.4775
11709TIP3    H256619   2.945   1.668   1.260  0.7213  1.0421  0.3167
11710TIP3   OH256620   3.033   0.386   3.636 -0.8963  0.4756  0.0846
11710TIP3    H156621   2.983   0.462   3.665  0.7215  1.8215 -0.5249
11710TIP3    H256622   3.073   0.413   3.553  0.7200 -0.5715  0.4655
11711TIP3   OH256623   2.305   2.290   2.171 -0.0481 -0.6255  0.5343
11711TIP3    H156624   2.314   2.236   2.249  0.6078 -1.2477  0.0426
11711TIP3    H256625   2.390   2.332   2.160 -0.3342 -0.0435  0.5108
11712TIP3   OH256626   2.235   5.746   5.130  0.3458 -0.1646  0.0556
11712TIP3    H156627   2.298   5.713   5.066 -1.4586 -2.9501 -0.4468
11712TIP3    H256628   2.168   5.790   5.078  0.4998  0.4507  0.3600
11713TIP3   OH256629   1.962   0.153  11.786  0.7458  0.3038 -0.2924
11713TIP3    H156630   1.960   0.212  11.862 -0.5154 -1.0719  0.8223
11713TIP3    H256631   2.047   0.169  11.745  2.0589  0.1788  2.1963
11714TIP3   OH256632   5.293   0.465  16.955  0.2019 -0.0450  0.5781
11714TIP3    H156633   5.309   0.487  16.863  0.1554 -0.6177  0.4291
11714TIP3    H256634   5.359   0.516  17.003  0.3156  0.1525  0.2205
11715TIP3   OH256635   4.520   6.591   1.898  0.0367 -0.0818  0.2585
11715TIP3    H156636   4.489   6.549   1.818  3.1576  0.5360 -1.4049
11715TIP3    H256637   4.610   6.561   1.908  0.0975  0.7404  2.9691
11716TIP3   OH256638   2.234   0.825   2.057  0.2007  0.2088 -0.3467
11716TIP3    H156639   2.283   0.795   1.981 -1.7166 -2.4177 -0.6871
11716TIP3    H256640   2.211   0.915   2.037  0.6842 -0.0695 -2.3682
11717TIP3   OH256641   5.267   5.236  12.892  0.3233  0.1979 -0.6690
11717TIP3    H156642   5.202   5.167  12.884  1.0864 -0.4106 -1.7956
11717TIP3    H256643   5.264   5.281  12.808  1.1056  0.3983 -0.5899
11718TIP3   OH256644   3.443   6.798   3.821 -0.7374  0.1964  0.6312
11718TIP3    H156645   3.467   6.854   3.894  2.5014 -1.4662  1.0519
11718TIP3    H256646   3.384   6.733   3.858 -0.5161  0.4099  1.3660
11719TIP3   OH256647   4.316   4.313   6.326 -0.2442 -0.5544 -0.0460
11719TIP3    H156648   4.271   4.228   6.323  1.0420 -1.3895  1.7766
11719TIP3    H256649   4.407   4.292   6.303 -0.2484  0.6475 -1.2192
11720TIP3   OH256650   5.414   0.122  15.819  0.0980  0.1901  0.4436
11720TIP3    H156651   5.361   0.045  15.842  0.4679 -0.7146 -1.5146
11720TIP3    H256652   5.503   0.088  15.810  0.5181  1.1395  0.8856
11721TIP3   OH256653   4.741   6.455   1.953 -0.2227 -0.1412  0.0658
11721TIP3    H156654   4.718   6.376   1.904  0.1735  0.4837 -1.1521
11721TIP3    H256655   4.833   6.470   1.933  0.2849 -0.5101  1.9363
11722TIP3   OH256656   2.022   2.645   3.009  0.3031 -0.6533  0.1808
11722TIP3    H156657   2.049   2.621   2.921  0.3587 -0.6724  0.2031
11722TIP3    H256658   2.098   2.626   3.064 -0.0556 -1.5984  0.3860
11723TIP3   OH256659   5.604   2.182   4.133 -0.0411  0.0439 -0.3302
11723TIP3    H156660   5.534   2.127   4.097  0.6094 -0.7716 -0.3757
11723TIP3    H256661   5.604   2.162   4.227 -0.4057  0.6584 -0.1965
11724TIP3   OH256662   5.880   2.371   0.464  0.2931 -0.3323  0.1281
11724TIP3    H156663   5.897   2.459   0.499 -0.4934  0.4109 -1.2597
11724TIP3    H256664   5.950   2.317   0.500 -0.4759  0.3290  2.8579
11725TIP3   OH256665   6.495   6.212  15.765 -0.2508  0.7143 -0.4023
11725TIP3    H156666   6.579   6.172  15.743 -0.4024 -0.1089  0.4681
11725TIP3    H256667   6.505   6.242  15.855 -0.6089  1.4125 -0.5807
11726TIP3   OH256668   1.733   4.711  11.464  0.7848  0.5420 -0.0752
11726TIP3    H156669   1.811   4.766  11.467  0.3667  1.1554 -0.1144
11726TIP3    H256670   1.739   4.655  11.541  0.3033  1.9416  1.0221
11727TIP3   OH256671   4.366   6.736   5.694 -0.8598  0.1784 -0.7932
11727TIP3    H156672   4.333   6.776   5.775  1.2548 -1.9568  1.2731
11727TIP3    H256673   4.460   6.732   5.706 -0.8093 -4.5980 -1.0657
11728TIP3   OH256674   0.452   6.290   0.618 -0.4835  0.1239  0.4755
11728TIP3    H156675   0.542   6.299   0.587 -0.0803 -2.8061  0.5393
11728TIP3    H256676   0.452   6.329   0.706  0.3019  1.4570 -0.0861
11729TIP3   OH256677   0.948   2.219  12.117 -0.3458 -0.5602  0.0605
11729TIP3    H156678   1.018   2.228  12.183  0.8413  2.4255 -1.4095
11729TIP3    H256679   0.871   2.256  12.160  0.4132  1.3514 -0.1097
11730TIP3   OH256680   3.056   1.587   0.318  0.2249  0.4671  0.7111
11730TIP3    H156681   3.030   1.675   0.292 -1.0424 -0.1578 -0.2523
11730TIP3    H256682   2.976   1.536   0.312  1.3289 -1.2231 -0.8687
11731TIP3   OH256683   3.468   5.485   5.473  0.0827 -0.6615 -0.0377
11731TIP3    H156684   3.429   5.458   5.556  1.0591  1.9966  1.4014
11731TIP3    H256685   3.559   5.456   5.478  0.2408 -0.1689  0.0027
11732TIP3   OH256686   6.239   2.151   1.641 -0.1385 -0.0909  0.1269
11732TIP3    H156687   6.234   2.131   1.735  0.8971  1.2982  0.5018
11732TIP3    H256688   6.154   2.191   1.621 -0.7058 -1.1917  0.2519
11733TIP3   OH256689   1.541   2.450  15.904  0.1369  0.1321  0.0943
11733TIP3    H156690   1.583   2.371  15.869  1.9097  1.3005 -0.5350
11733TIP3    H256691   1.543   2.513  15.832  1.0558  1.5759  1.3179
11734TIP3   OH256692   0.425   0.649   4.768  0.2880 -0.0555 -0.2024
11734TIP3    H156693   0.500   0.621   4.821  1.9051  0.7297 -1.9376
11734TIP3    H256694   0.379   0.568   4.747  0.7448 -0.5862  0.7636
11735TIP3   OH256695   4.925   1.990   5.675 -0.0410 -0.5281  0.1071
11735TIP3    H156696   4.980   2.068   5.682  0.4734 -0.6934 -1.5028
11735TIP3    H256697   4.935   1.944   5.758 -1.7073  1.9413  1.7951
11736TIP3   OH256698   6.278   5.352  15.612  0.0221  0.3502  0.3096
11736TIP3    H156699   6.231   5.280  15.570  0.9218 -0.8160  1.2127
11736TIP3    H256700   6.341   5.381  15.546 -0.2876  0.2476 -0.0356
11737TIP3   OH256701   3.840   2.853   6.485  0.3100 -0.3217 -0.5457
11737TIP3    H156702   3.881   2.784   6.433  1.0339 -0.3559  0.0716
11737TIP3    H256703   3.783   2.807   6.546  0.9927 -0.3920  0.0431
11738TIP3   OH256704   2.012   2.454  15.992 -0.5778 -0.2053 -0.4842
11738TIP3    H156705   2.068   2.417  16.060 -0.0880  3.8267  1.6487
11738TIP3    H256706   2.073   2.502  15.935 -1.4056  0.4221 -0.8606
11739TIP3   OH256707   1.579   0.817   2.226 -0.1220  0.0045  0.1399
11739TIP3    H156708   1.570   0.893   2.283  1.2515  0.6200 -0.4056
11739TIP3    H256709   1.621   0.750   2.281 -0.0134  0.1388  0.2205
11740TIP3   OH256710   4.554   1.377   6.622 -0.5298  0.0440 -0.4407
11740TIP3    H156711   4.588   1.350   6.536 -1.4562 -0.5302 -0.6488
11740TIP3    H256712   4.629   1.371   6.681  0.3055  1.1694 -1.3486
11741TIP3   OH256713   0.694   6.479   2.682 -0.0057  0.3081  0.5688
11741TIP3    H156714   0.683   6.499   2.589  0.7129 -1.1893  0.1367
11741TIP3    H256715   0.608   6.445   2.709 -0.4567  1.4715  0.6821
11742TIP3   OH256716   3.647   6.313  11.029  0.4330  0.2659 -0.2236
11742TIP3    H156717   3.606   6.240  10.981  0.8370  0.6981 -1.2713
11742TIP3    H256718   3.575   6.373  11.046 -0.1641 -0.9348  1.8194
11743TIP3   OH256719   4.331   0.000   5.987 -0.9703  0.4178  0.0353
11743TIP3    H156720   4.347   0.093   6.004 -2.7723  0.9095 -0.6937
11743TIP3    H256721   4.335  -0.041   6.073  1.5737  0.8117  0.1906
11744TIP3   OH256722   5.264   0.531   6.042  0.0625  1.0348  0.2775
11744TIP3    H156723   5.319   0.574   6.108  2.9173 -0.3319 -1.0669
11744TIP3    H256724   5.189   0.498   6.092  2.0060  0.2199  2.8616
11745TIP3   OH256725   4.243   6.265   5.890  0.1475 -0.3952  0.2234
11745TIP3    H156726   4.148   6.272   5.892  0.1446 -0.2896 -0.2570
11745TIP3    H256727   4.263   6.192   5.949 -0.3639 -1.6484 -1.0966
11746TIP3   OH256728   6.536   2.199  12.198  0.3791  0.3643 -0.2023
11746TIP3    H156729   6.524   2.282  12.243 -2.1211 -0.0292 -0.0310
11746TIP3    H256730   6.584   2.222  12.118  0.0124  1.9300  0.0004
11747TIP3   OH256731   1.979   5.977  16.600  0.3439 -0.0866 -0.3509
11747TIP3    H156732   2.064   6.010  16.628  1.4203 -1.5689 -1.6459
11747TIP3    H256733   1.992   5.954  16.508 -0.7101 -2.6452  0.0524
11748TIP3   OH256734   5.398   4.753   5.085  0.6103 -0.3446  0.4098
11748TIP3    H156735   5.365   4.727   4.999  0.4921 -1.6137  0.8115
11748TIP3    H256736   5.355   4.693   5.146  0.3827  0.8106  1.4039
11749TIP3   OH256737   4.355   3.473   5.042  0.6279 -0.0175  0.2765
11749TIP3    H156738   4.377   3.547   5.099 -0.6347  0.1512  0.5746
11749TIP3    H256739   4.261   3.481   5.028  0.5120 -1.4422  0.1279
11750TIP3   OH256740   4.229   5.340  13.203  0.0173  0.1015 -0.2103
11750TIP3    H156741   4.322   5.356  13.219  0.0823  0.7678 -1.1494
11750TIP3    H256742   4.186   5.359  13.287  0.6955  0.0820  0.1441
11751TIP3   OH256743   2.122   5.396   6.653  0.0351  0.5658 -0.3671
11751TIP3    H156744   2.199   5.342   6.672  0.9272  0.8047 -2.9127
11751TIP3    H256745   2.156   5.485   6.646 -0.7707  0.9182  0.0888
11752TIP3   OH256746   5.848   5.878   0.264 -0.0725  0.5312  0.3567
11752TIP3    H156747   5.754   5.894   0.257 -0.2656 -0.9357 -1.5857
11752TIP3    H256748   5.884   5.909   0.181  0.8539 -0.6043  0.2984
11753TIP3   OH256749   0.188   5.327  13.728 -0.1484  0.3756 -0.2418
11753TIP3    H156750   0.246   5.288  13.663  1.6124 -1.6387  2.3255
11753TIP3    H256751   0.107   5.278  13.721 -0.2388  0.6585 -1.3336
11754TIP3   OH256752   5.867   6.133  15.075  0.8546  0.4802  0.5239
11754TIP3    H156753   5.809   6.134  15.151 -0.4343  1.1353 -0.4172
11754TIP3    H256754   5.955   6.141  15.111  0.5632 -2.2425  2.1459
11755TIP3   OH256755   1.936   4.421  16.038 -0.2213  0.1504 -0.2866
11755TIP3    H156756   1.893   4.338  16.057 -0.2939 -0.0697 -1.3149
11755TIP3    H256757   1.865   4.485  16.036 -0.5008 -0.1604 -1.6800
11756TIP3   OH256758   6.291   0.050  13.572 -0.0172  0.2885  0.5706
11756TIP3    H156759   6.367   0.097  13.539 -1.3593  2.2459  0.0618
11756TIP3    H256760   6.249   0.111  13.632 -0.6675 -1.1238  1.6247
11757TIP3   OH256761   4.690   5.677   1.668 -0.1340 -0.2818 -0.2191
11757TIP3    H156762   4.758   5.745   1.669  0.1957 -0.6107  0.0658
11757TIP3    H256763   4.634   5.698   1.743  0.7820 -1.1258  0.7385
11758TIP3   OH256764   0.579   1.337  14.896  1.0074 -0.7788 -0.1579
11758TIP3    H156765   0.524   1.414  14.915 -0.6954 -2.1533  0.7421
11758TIP3    H256766   0.516   1.268  14.874  2.3696 -2.4509  0.9542
11759TIP3   OH256767   2.214   2.693   3.783 -0.1947  0.1940 -0.6654
11759TIP3    H156768   2.195   2.786   3.791 -0.1981  0.1235  0.2583
11759TIP3    H256769   2.310   2.688   3.784 -0.1755  0.2471 -1.5501
11760TIP3   OH256770   4.305   3.279  15.414  0.4938 -0.2953 -0.5981
11760TIP3    H156771   4.308   3.360  15.363  0.7389 -0.7102 -1.2455
11760TIP3    H256772   4.291   3.210  15.350 -0.0065 -0.7484 -0.0171
11761TIP3   OH256773   4.620   5.335  14.697  0.0850  0.2490  0.3674
11761TIP3    H156774   4.673   5.402  14.741 -0.4015  0.3348  0.8380
11761TIP3    H256775   4.613   5.365  14.607  1.6103 -0.2322  0.0488
11762TIP3   OH256776   3.640   2.770  12.281 -0.0747  0.4402  0.7917
11762TIP3    H156777   3.606   2.813  12.360  0.8557  2.2783  0.2509
11762TIP3    H256778   3.576   2.792  12.214  0.3839  0.9645  0.5208
11763TIP3   OH256779   3.590   0.871  14.586  0.2682  0.0038  0.0256
11763TIP3    H156780   3.590   0.775  14.585 -2.0851 -0.1240  1.5958
11763TIP3    H256781   3.499   0.895  14.564  0.6956  1.8499  0.1031
11764TIP3   OH256782   1.077   5.577   3.460 -0.2450  0.1410 -0.0092
11764TIP3    H156783   1.016   5.510   3.429  0.7998 -0.2991 -1.1864
11764TIP3    H256784   1.024   5.657   3.464 -0.9949 -0.3049 -0.6263
11765TIP3   OH256785   1.133   6.056   3.746 -0.3959  0.2257 -0.0387
11765TIP3    H156786   1.170   6.095   3.825  2.4112  0.4096 -1.3035
11765TIP3    H256787   1.114   5.966   3.770  3.4084 -0.6713  0.1667
11766TIP3   OH256788   5.842   3.516  14.161  0.4873  0.1105 -0.5572
11766TIP3    H156789   5.746   3.513  14.165  0.4737 -0.1779 -0.9864
11766TIP3    H256790   5.860   3.585  14.096  0.5936  0.8665  0.2561
11767TIP3   OH256791   5.892   0.409   6.183  0.0125 -0.2113  0.3463
11767TIP3    H156792   5.814   0.462   6.195  2.7649  4.1967  1.1580
11767TIP3    H256793   5.907   0.368   6.269  0.6452  2.2720  1.5028
11768TIP3   OH256794   5.907   2.726   2.972 -0.0946 -0.3666  0.4635
11768TIP3    H156795   5.909   2.638   3.010 -1.1304  0.0338  1.4847
11768TIP3    H256796   5.956   2.717   2.890 -0.4290 -1.9563  0.4005
11769TIP3   OH256797   0.209   3.848   5.204  0.0919  0.1493  0.3222
11769TIP3    H156798   0.255   3.768   5.228 -0.6509 -0.0643  1.0854
11769TIP3    H256799   0.268   3.918   5.228  0.1029 -0.1251  1.1288
11770TIP3   OH256800   4.869   0.581  15.570  0.3994  0.4173 -0.2239
11770TIP3    H156801   4.941   0.563  15.631  0.2527 -0.5937 -0.3348
11770TIP3    H256802   4.791   0.548  15.616  0.1554  0.5418 -0.5503
11771TIP3   OH256803   0.268   5.875   2.972 -0.3103 -0.2869 -0.3626
11771TIP3    H156804   0.287   5.876   2.878 -0.9046 -0.0568 -0.4871
11771TIP3    H256805   0.219   5.795   2.987  0.8353 -0.9507 -0.0163
11772TIP3   OH256806   0.632   0.476  13.022  0.0127 -0.3540 -0.3606
11772TIP3    H156807   0.721   0.465  13.056  0.7858  2.0540 -1.4389
11772TIP3    H256808   0.643   0.505  12.932 -1.8772  0.1524 -0.4766
11773TIP3   OH256809   6.140   0.305  10.443 -0.1225  0.4440  0.4319
11773TIP3    H156810   6.184   0.260  10.371 -0.5842  1.1009 -0.2757
11773TIP3    H256811   6.191   0.385  10.456 -0.1337  0.4028  0.7292
11774TIP3   OH256812   3.318   2.874  11.652 -0.6484  0.0572  0.0025
11774TIP3    H156813   3.379   2.892  11.580 -1.4601  4.5637  0.1580
11774TIP3    H256814   3.237   2.847  11.608  0.7637 -4.6562 -0.2424
11775TIP3   OH256815   4.709   1.973  16.149 -0.2117  0.1654 -0.4898
11775TIP3    H156816   4.759   2.002  16.072 -0.6453 -0.3861 -0.9908
11775TIP3    H256817   4.775   1.940  16.210  0.1993  1.2205 -0.3373
11776TIP3   OH256818   3.639   3.070  16.042 -0.1274  0.1667 -0.2539
11776TIP3    H156819   3.635   3.079  16.138  0.1052 -0.4706 -0.1788
11776TIP3    H256820   3.613   3.156  16.009 -1.1651  0.1062  0.3634
11777TIP3   OH256821   3.908   1.541  15.395  0.8016  0.4030  0.6983
11777TIP3    H156822   3.933   1.525  15.304  0.5089  2.7891  0.1205
11777TIP3    H256823   3.943   1.628  15.414 -2.5155  1.7242  1.5178
11778TIP3   OH256824   4.164   5.819   0.882 -0.3603  0.1277 -0.0585
11778TIP3    H156825   4.141   5.896   0.831 -1.3138  0.3438  0.6712
11778TIP3    H256826   4.116   5.747   0.840  0.3138 -0.0376 -0.5722
11779TIP3   OH256827   0.398   0.781  11.280 -0.0459 -0.5165  0.2057
11779TIP3    H156828   0.449   0.724  11.337  1.6769  1.6995  1.0415
11779TIP3    H256829   0.376   0.726  11.204  2.4904 -1.9850  0.4324
11780TIP3   OH256830   4.284   3.621   4.096 -0.0380 -0.7293 -0.3632
11780TIP3    H156831   4.306   3.561   4.025 -0.1017 -0.8892 -0.2489
11780TIP3    H256832   4.269   3.705   4.053 -2.0654 -1.2600 -0.7778
11781TIP3   OH256833   3.736   1.802  13.636 -0.3886  0.3687 -0.2684
11781TIP3    H156834   3.759   1.867  13.703  0.0490  1.7105 -1.6582
11781TIP3    H256835   3.802   1.733  13.645 -1.5829 -0.5759  2.0436
11782TIP3   OH256836   2.035   3.241  14.022  0.0872 -0.4716  0.2835
11782TIP3    H156837   2.006   3.253  14.113  0.5495 -1.1594  0.5264
11782TIP3    H256838   1.982   3.168  13.990 -1.4415  0.9598 -0.6251
11783TIP3   OH256839   5.659   6.286   4.944 -0.6004 -0.1142  0.3451
11783TIP3    H156840   5.698   6.362   4.986  0.1507  0.2133 -0.9075
11783TIP3    H256841   5.714   6.269   4.867 -1.5458 -1.0827 -0.1559
11784TIP3   OH256842   6.589   2.805  13.983  0.0267 -0.6891  0.1904
11784TIP3    H156843   6.627   2.845  13.905  1.0713 -0.9520  0.5353
11784TIP3    H256844   6.665   2.773  14.032 -0.6433 -0.9907  1.0583
11785TIP3   OH256845   0.915   4.327  13.929  0.1819  0.4392 -0.2504
11785TIP3    H156846   0.835   4.290  13.891 -0.9463  1.6254  0.8825
11785TIP3    H256847   0.929   4.408  13.880  1.7590 -0.6244 -1.6618
11786TIP3   OH256848   6.099   4.331  12.266 -0.1401  0.2606 -0.0152
11786TIP3    H156849   6.141   4.411  12.234  1.1043  0.4586  1.9690
11786TIP3    H256850   6.162   4.293  12.327 -1.7489 -0.8654  1.0311
11787TIP3   OH256851   3.044   6.853   2.362  0.2461  0.3175 -0.0834
11787TIP3    H156852   2.957   6.818   2.380  0.9281 -0.4123  2.1122
11787TIP3    H256853   3.091   6.780   2.322  0.1403  0.4171 -0.3956
11788TIP3   OH256854   5.195   4.168  14.223 -0.4476 -0.0243  0.0301
11788TIP3    H156855   5.161   4.171  14.134 -0.0497 -0.2205 -0.1324
11788TIP3    H256856   5.163   4.248  14.265 -0.9237 -0.1016 -0.1825
11789TIP3   OH256857   1.632   6.507  12.843 -0.2811  0.1647  0.3360
11789TIP3    H156858   1.619   6.596  12.875 -1.9445 -0.2854  1.0270
11789TIP3    H256859   1.636   6.453  12.922  0.5951 -0.4075 -0.0787
11790TIP3   OH256860   0.911   3.153   3.143  0.2734  0.0294  0.1231
11790TIP3    H156861   0.848   3.095   3.101  1.9002 -0.2046 -2.1931
11790TIP3    H256862   0.938   3.214   3.074  2.0030  0.6049  1.2149
11791TIP3   OH256863   1.510   0.036  15.727 -0.1486 -0.7542  0.3476
11791TIP3    H156864   1.431  -0.015  15.743 -2.3622  2.6464  1.4603
11791TIP3    H256865   1.500   0.070  15.638 -0.5530  0.5423  0.8602
11792TIP3   OH256866   0.184   5.968  15.661 -0.2866  0.2629 -0.8367
11792TIP3    H156867   0.147   6.013  15.585 -2.1518 -1.6693 -1.1845
11792TIP3    H256868   0.171   6.028  15.734  1.1782  1.9970 -1.9015
11793TIP3   OH256869   4.282   5.960  11.347 -0.0987 -0.0122 -0.2767
11793TIP3    H156870   4.337   6.025  11.304  1.1152 -1.2771 -0.7161
11793TIP3    H256871   4.338   5.883  11.355 -1.2253 -0.7441  0.9807
11794TIP3   OH256872   2.597   2.873  12.097  0.2862 -0.1748 -0.4071
11794TIP3    H156873   2.589   2.955  12.146  1.0650  1.5392 -2.9567
11794TIP3    H256874   2.630   2.810  12.162 -0.0535  1.5629  1.5690
11795TIP3   OH256875   0.352   4.303   3.826 -0.2976 -0.1484 -0.3093
11795TIP3    H156876   0.277   4.337   3.777 -1.3204 -1.4803  0.2734
11795TIP3    H256877   0.417   4.282   3.760 -1.0745 -0.5211 -0.9628
11796TIP3   OH256878   6.715   3.572   4.846 -0.2042 -0.5225  0.3944
11796TIP3    H156879   6.638   3.588   4.790  0.6756  0.5574 -0.5707
11796TIP3    H256880   6.685   3.590   4.935 -1.0956 -0.2188  0.0397
11797TIP3   OH256881   3.890   1.094  16.708 -0.3370 -0.1503  0.0902
11797TIP3    H156882   3.934   1.166  16.753 -1.2145  0.3339  0.2061
11797TIP3    H256883   3.862   1.132  16.624  0.7989 -0.8870 -0.6511
11798TIP3   OH256884   5.117   6.285  12.467  0.0595 -0.5620  0.0139
11798TIP3    H156885   5.111   6.193  12.443  2.5413 -1.1179  1.2055
11798TIP3    H256886   5.211   6.303  12.469 -0.3574  1.9684 -0.0095
11799TIP3   OH256887   0.643   1.249   5.088  0.1489 -0.7390  0.4909
11799TIP3    H156888   0.738   1.237   5.099 -0.0519 -1.1073  2.1321
11799TIP3    H256889   0.609   1.160   5.078  0.1511 -0.5154 -2.3550
11800TIP3   OH256890   3.258   3.346   5.149  0.0125 -0.1846 -0.0180
11800TIP3    H156891   3.332   3.311   5.100 -0.7814  0.3070 -1.6348
11800TIP3    H256892   3.285   3.435   5.172  0.2737 -0.3197  0.2129
11801TIP3   OH256893   2.663   1.270   4.486 -0.1293  0.7530 -0.0476
11801TIP3    H156894   2.587   1.328   4.480 -0.5737  0.2444  0.5907
11801TIP3    H256895   2.709   1.282   4.403 -1.8532 -0.2690 -1.1829
11802TIP3   OH256896   3.709   4.314  17.024  0.0596 -0.1621 -0.2873
11802TIP3    H156897   3.736   4.327  16.933 -1.2644 -0.8577 -0.8089
11802TIP3    H256898   3.622   4.354  17.029  0.4889  0.6888  0.9341
11803TIP3   OH256899   4.039   3.308  13.647  0.0140  0.6665  0.3883
11803TIP3    H156900   4.117   3.316  13.703 -0.1301 -0.2387  0.7354
11803TIP3    H256901   3.975   3.367  13.687  0.3889  1.1156  0.3330
11804TIP3   OH256902   5.407   1.387  15.917  0.0224  0.5420  0.8087
11804TIP3    H156903   5.424   1.481  15.917 -0.6668  0.7209 -1.3673
11804TIP3    H256904   5.425   1.359  16.007  1.0472  2.5908  1.2962
11805TIP3   OH256905   2.037   1.034   2.527 -0.3083 -0.4525  0.0688
11805TIP3    H156906   2.121   1.077   2.544  0.0140 -1.5942  1.5209
11805TIP3    H256907   2.060   0.952   2.483 -0.8118  0.0440 -1.1759
11806TIP3   OH256908   4.375   5.946  15.820 -0.7190 -0.2660  0.3885
11806TIP3    H156909   4.339   5.874  15.768  1.4803  0.0887 -1.7612
11806TIP3    H256910   4.312   6.017  15.808 -0.3422 -0.2427 -1.7287
11807TIP3   OH256911   4.975   3.018   1.105  0.0345  0.6426  0.3285
11807TIP3    H156912   5.019   3.098   1.135  1.8655 -0.6589  1.2629
11807TIP3    H256913   4.994   2.953   1.173 -0.8957 -0.7774 -0.7173
11808TIP3   OH256914   0.232   2.114   0.540  0.0992  0.4139 -0.6571
11808TIP3    H156915   0.205   2.164   0.463 -0.9446  0.2239 -0.4225
11808TIP3    H256916   0.151   2.094   0.586  0.8056  2.1602  1.5391
11809TIP3   OH256917   3.644   0.592  15.162 -0.3923 -0.4813  0.1587
11809TIP3    H156918   3.687   0.518  15.204  1.1829 -0.4480 -1.2825
11809TIP3    H256919   3.653   0.664  15.224  0.7667 -0.7385  0.2960
11810TIP3   OH256920   3.024   0.204   5.761  0.3368 -0.5885 -0.4275
11810TIP3    H156921   2.950   0.146   5.779  0.8109 -0.4004  2.6610
11810TIP3    H256922   2.984   0.288   5.739 -0.4877 -0.3710  1.6124
11811TIP3   OH256923   5.773   0.838  16.670 -0.0494 -0.8783  0.4421
11811TIP3    H156924   5.707   0.795  16.615 -1.3219 -0.0277  1.2546
11811TIP3    H256925   5.815   0.901  16.613 -0.9142 -0.4515  0.2674
11812TIP3   OH256926   1.151   6.504   0.595  0.0789 -0.3340  0.6017
11812TIP3    H156927   1.208   6.544   0.529 -0.0524  0.0808  0.7421
11812TIP3    H256928   1.167   6.410   0.586 -0.0552 -0.2912 -0.1327
11813TIP3   OH256929   4.401   6.361  12.050 -0.0476  0.1057  0.1935
11813TIP3    H156930   4.465   6.355  11.979 -0.5330  2.4214 -0.5286
11813TIP3    H256931   4.395   6.272  12.085  2.7098 -0.4159 -0.4310
11814TIP3   OH256932   0.677   1.133   0.548  0.1015  0.9072 -0.3452
11814TIP3    H156933   0.762   1.134   0.503 -0.4551  3.2818 -1.5373
11814TIP3    H256934   0.698   1.157   0.638  0.9472 -1.4035  0.1576
11815TIP3   OH256935   1.828   6.121  14.567  0.2024  0.5243  0.2093
11815TIP3    H156936   1.859   6.078  14.646  0.0555 -0.0990 -0.0601
11815TIP3    H256937   1.846   6.058  14.497 -1.1096  0.3874 -0.0332
11816TIP3   OH256938   2.423   4.189  16.027  0.1083  0.6789  0.0014
11816TIP3    H156939   2.368   4.263  16.003 -2.1224 -1.6553 -2.7701
11816TIP3    H256940   2.469   4.166  15.947 -0.1268 -1.5669  0.4278
11817TIP3   OH256941   6.024   5.657   5.278  0.5985  0.0085  0.6620
11817TIP3    H156942   6.114   5.674   5.303  0.4242 -0.7254  1.8335
11817TIP3    H256943   6.005   5.723   5.211  1.6500  0.8831  1.2003
11818TIP3   OH256944   3.457   5.626  14.294 -0.3372  0.0557  0.4536
11818TIP3    H156945   3.513   5.576  14.235 -0.0518  0.1310  0.6580
11818TIP3    H256946   3.416   5.692  14.238 -0.9786 -0.6160  0.1196
11819TIP3   OH256947   4.590   1.148  12.560 -0.4680  0.3059  0.2110
11819TIP3    H156948   4.546   1.074  12.519 -0.6048 -0.3312  1.4560
11819TIP3    H256949   4.667   1.165  12.505 -1.9949  1.1695 -1.7592
11820TIP3   OH256950   1.522   0.533  11.010 -0.7840  0.3179 -0.3146
11820TIP3    H156951   1.486   0.582  10.936 -4.0993  0.5363  1.2390
11820TIP3    H256952   1.445   0.493  11.052  0.8736  0.3260  3.0884
11821TIP3   OH256953   5.946   3.335  16.508 -0.4844  0.0365  0.1274
11821TIP3    H156954   6.001   3.258  16.521 -0.9870 -0.5574 -1.0358
11821TIP3    H256955   5.892   3.313  16.432 -1.6034  0.9978  0.5992
11822TIP3   OH256956   0.719   4.557  11.494 -0.0897  0.3055  0.5474
11822TIP3    H156957   0.798   4.544  11.441  1.3695 -0.1347  2.7117
11822TIP3    H256958   0.663   4.482  11.472  0.1030  0.5451 -0.8976
11823TIP3   OH256959   1.565   5.034   1.864  0.7984 -0.1218 -0.4360
11823TIP3    H156960   1.539   5.126   1.864  0.8722 -0.0990 -0.7450
11823TIP3    H256961   1.529   4.999   1.945 -0.6300 -0.2192 -1.0871
11824TIP3   OH256962   4.322   6.655   1.614  0.7695 -0.2429  0.3043
11824TIP3    H156963   4.239   6.622   1.579  2.3103 -1.8725 -2.1375
11824TIP3    H256964   4.304   6.671   1.706 -3.0434  2.3298 -0.6434
11825TIP3   OH256965   4.269   3.213   3.340  0.1391  0.3544  0.0345
11825TIP3    H156966   4.342   3.151   3.331  2.1274  2.6631 -0.6741
11825TIP3    H256967   4.243   3.207   3.432  0.6457 -1.1008  0.1097
11826TIP3   OH256968   5.192   0.307  11.058  0.4765 -0.4289 -0.7926
11826TIP3    H156969   5.115   0.359  11.031 -0.5167 -1.0085  0.7936
11826TIP3    H256970   5.245   0.368  11.108 -0.4259 -0.7354  0.6062
11827TIP3   OH256971   3.975   2.454   3.825  0.2102  0.0272  0.4549
11827TIP3    H156972   4.057   2.501   3.840  1.6881 -2.4700  0.7244
11827TIP3    H256973   3.963   2.401   3.903 -0.2755 -1.5869 -0.6741
11828TIP3   OH256974   0.604   4.590   0.329  0.2928 -0.2859 -0.1859
11828TIP3    H156975   0.597   4.666   0.272 -1.7756  0.1145  0.5078
11828TIP3    H256976   0.606   4.627   0.418 -0.5008 -0.9994  0.1459
11829TIP3   OH256977   2.026   0.631   3.406 -0.6259  0.1439 -1.0555
11829TIP3    H156978   2.055   0.700   3.346 -0.5176 -0.4984 -1.7726
11829TIP3    H256979   2.059   0.550   3.366  1.9693 -0.1316  1.3595
11830TIP3   OH256980   0.139   6.156  16.881  0.2437 -0.3668  0.3475
11830TIP3    H156981   0.110   6.204  16.803 -2.7620 -1.8366  0.4310
11830TIP3    H256982   0.220   6.113  16.854  0.6170  1.1302 -1.1120
11831TIP3   OH256983   2.560   3.643  14.704 -0.2431 -0.1857 -0.7477
11831TIP3    H156984   2.654   3.629  14.697 -0.3563 -0.8030 -1.1503
11831TIP3    H256985   2.547   3.732  14.672  0.4915  0.9132  1.8002
11832TIP3   OH256986   2.492   6.832  15.391 -0.3961  0.2758  0.2548
11832TIP3    H156987   2.408   6.788  15.380  0.0264 -0.1864 -1.2886
11832TIP3    H256988   2.488   6.868  15.480 -2.1587  0.1557  0.2592
11833TIP3   OH256989   4.044   4.759   2.870  0.0760  0.2142  0.6383
11833TIP3    H156990   4.050   4.748   2.965  0.1118  1.3790  0.7821
11833TIP3    H256991   4.009   4.847   2.858  1.6806  0.7500 -0.4402
11834TIP3   OH256992   0.496   1.101  12.995  0.1658 -0.3808  0.5613
11834TIP3    H156993   0.506   1.178  13.050  1.0750  0.0604 -0.1944
11834TIP3    H256994   0.462   1.135  12.912 -0.8383 -0.9871  0.7021
11835TIP3   OH256995   6.514   6.363  13.624 -0.0882 -0.5750  0.2990
11835TIP3    H156996   6.469   6.305  13.684  0.8681 -1.8278 -0.1502
11835TIP3    H256997   6.606   6.356  13.648  0.1798 -0.2398 -0.5808
11836TIP3   OH256998   4.510   6.312  16.614 -0.4489 -0.3409  0.3539
11836TIP3    H156999   4.570   6.315  16.689  1.2624  0.2642 -0.9818
11836TIP3    H257000   4.555   6.256  16.550 -1.8429 -0.7829 -0.2767
11837TIP3   OH257001   1.037   3.665   1.785  0.2694 -0.3032  0.4808
11837TIP3    H157002   1.087   3.742   1.756 -0.1871 -0.5760 -1.1487
11837TIP3    H257003   0.981   3.698   1.855 -0.0647  0.9195 -0.3156
11838TIP3   OH257004   3.449   6.345   5.210 -0.3659 -0.0890 -0.4564
11838TIP3    H157005   3.518   6.371   5.149 -0.2614 -1.0214 -0.7659
11838TIP3    H257006   3.388   6.419   5.212  1.5224  1.5486  1.2290
11839TIP3   OH257007   5.237   3.328   5.353 -0.0817 -0.2988  0.3507
11839TIP3    H157008   5.242   3.421   5.372 -1.3601 -0.1303 -0.0066
11839TIP3    H257009   5.189   3.291   5.428 -0.9223 -0.4046 -0.2238
11840TIP3   OH257010   5.238   3.258   3.674 -0.1282  0.0905  0.1048
11840TIP3    H157011   5.164   3.198   3.678  0.7213 -0.9343  2.3493
11840TIP3    H257012   5.212   3.333   3.728  0.2819 -0.0752  0.5438
11841TIP3   OH257013   4.758   1.484  14.233 -0.1889  0.4686 -0.0012
11841TIP3    H157014   4.665   1.465  14.220 -0.2471 -0.6965  1.7130
11841TIP3    H257015   4.801   1.398  14.227  0.8637  1.0630 -1.3158
11842TIP3   OH257016   3.881   5.268  14.450  0.3140  0.1082  0.3830
11842TIP3    H157017   3.818   5.334  14.420  0.2285  0.3510  1.0612
11842TIP3    H257018   3.848   5.185  14.415 -1.1064  0.0425  1.7435
11843TIP3   OH257019   6.250   6.383   2.597  0.2908  0.1819 -0.0390
11843TIP3    H157020   6.187   6.383   2.526  1.7528 -1.4093 -1.4394
11843TIP3    H257021   6.235   6.299   2.642  1.6494 -0.4419 -0.6880
11844TIP3   OH257022   5.957   2.344   3.018 -0.2084  0.6598  0.3907
11844TIP3    H157023   6.024   2.412   3.009 -0.7530  1.1496  0.0007
11844TIP3    H257024   5.928   2.351   3.109 -0.2062  0.8875  0.3740
11845TIP3   OH257025   4.662   4.050  12.805  0.1076 -0.5123 -0.6644
11845TIP3    H157026   4.648   4.145  12.806  1.1177 -0.3467  0.5784
11845TIP3    H257027   4.711   4.034  12.724  1.3265  0.2834 -0.1201
11846TIP3   OH257028   1.496   2.720   0.645  0.0266  0.1822  0.2674
11846TIP3    H157029   1.441   2.741   0.570  0.0994 -0.5272  0.0161
11846TIP3    H257030   1.472   2.785   0.711  0.5571  1.3512 -0.6545
11847TIP3   OH257031   4.110   6.733  16.824 -0.0318  0.4726 -0.4278
11847TIP3    H157032   4.192   6.743  16.873  0.0215 -1.4013 -0.0308
11847TIP3    H257033   4.046   6.783  16.874  0.1778 -0.8274  1.2376
11848TIP3   OH257034   3.708   1.255  14.605 -0.3839  0.2471 -0.4038
11848TIP3    H157035   3.623   1.255  14.649  0.1931  1.5156  0.8036
11848TIP3    H257036   3.689   1.287  14.517 -0.8132  3.6067  0.7779
11849TIP3   OH257037   3.182   4.293  15.146  0.0288  0.2829  0.3969
11849TIP3    H157038   3.277   4.301  15.144  0.0965 -0.0929  1.4051
11849TIP3    H257039   3.160   4.241  15.069  0.8082 -1.0427  1.0400
11850TIP3   OH257040   2.557   3.135   0.103  0.0367  0.4445 -0.4780
11850TIP3    H157041   2.579   3.129   0.196  1.9114 -0.3605 -0.9390
11850TIP3    H257042   2.577   3.049   0.067  2.1302  1.5482 -2.1665
11851TIP3   OH257043   5.108   5.353   1.809  0.1337  0.3792 -0.2540
11851TIP3    H157044   5.076   5.282   1.864  0.7417  1.4876  1.6341
11851TIP3    H257045   5.188   5.382   1.852 -0.1054  2.2101 -0.9683
11852TIP3   OH257046   3.404   0.654  17.107  0.4020 -0.1796  0.2746
11852TIP3    H157047   3.379   0.720  17.042  1.6344  0.2402  0.1856
11852TIP3    H257048   3.396   0.571  17.061  0.2798  0.0358 -0.0985
11853TIP3   OH257049   6.436   0.891  13.026 -0.1847  0.2238 -0.1659
11853TIP3    H157050   6.526   0.924  13.025 -0.2191  0.4368 -2.8555
11853TIP3    H257051   6.389   0.956  13.079  0.9205  1.0154 -0.0921
11854TIP3   OH257052   3.143   4.442  16.039 -0.0843 -0.5603 -0.0676
11854TIP3    H157053   3.224   4.490  16.025  0.7943 -2.7219 -4.0848
11854TIP3    H257054   3.169   4.367  16.093 -0.0078  0.0055  0.7001
11855TIP3   OH257055   5.150   3.179   3.081  0.2461  0.1621  0.0375
11855TIP3    H157056   5.194   3.167   3.165  1.2901  0.8487 -0.3957
11855TIP3    H257057   5.157   3.273   3.063  1.6288 -0.2089 -1.6397
11856TIP3   OH257058   4.547   0.768  15.399 -0.0520 -0.1589  0.6653
11856TIP3    H157059   4.505   0.852  15.383  0.4990  0.4205  2.1122
11856TIP3    H257060   4.492   0.726  15.465  0.3528 -0.4040  0.8520
11857TIP3   OH257061   2.327   6.546   0.801  0.1956 -0.0448 -0.9773
11857TIP3    H157062   2.410   6.593   0.791 -0.3498  1.2383  0.1594
11857TIP3    H257063   2.326   6.484   0.729  1.4016  1.0369 -1.9750
11858TIP3   OH257064   4.663   6.794  15.553  0.6542 -0.1979 -0.1110
11858TIP3    H157065   4.614   6.742  15.488  0.9695 -1.1054  0.3664
11858TIP3    H257066   4.619   6.776  15.636  0.2505  0.9660 -0.0460
11859TIP3   OH257067   4.892   4.590  11.806  0.0765  0.4865  0.6915
11859TIP3    H157068   4.843   4.666  11.774 -1.5914  0.3148  2.5849
11859TIP3    H257069   4.911   4.611  11.898  0.0882 -1.1209  1.0866
11860TIP3   OH257070   4.203   4.801  15.325 -0.3949 -0.5577 -0.4379
11860TIP3    H157071   4.199   4.832  15.415  2.1098  1.0538 -0.7718
11860TIP3    H257072   4.131   4.846  15.280  1.0224  2.2846 -0.1259
11861TIP3   OH257073   1.123   6.249  12.606  0.0815 -0.3884  0.0177
11861TIP3    H157074   1.098   6.167  12.562 -1.7883  0.4141 -0.5071
11861TIP3    H257075   1.167   6.300  12.538 -2.3713  0.6479 -0.9280
11862TIP3   OH257076   6.150   0.268   3.522 -0.0153  0.1421 -0.3864
11862TIP3    H157077   6.212   0.216   3.470  0.3692 -0.3366  0.5264
11862TIP3    H257078   6.154   0.230   3.610 -1.5672  0.1507 -0.2892
11863TIP3   OH257079   2.793   5.592   0.173  0.4923 -0.4675  0.9902
11863TIP3    H157080   2.760   5.568   0.086 -0.7996  2.6928  0.4623
11863TIP3    H257081   2.888   5.588   0.165  0.4012  0.0288 -0.6851
11864TIP3   OH257082   4.610   4.985   1.847  0.0529  0.5171  0.4789
11864TIP3    H157083   4.700   4.956   1.832 -0.2825 -0.6195  0.6012
11864TIP3    H257084   4.599   5.060   1.787  0.8225  0.1740 -0.1095
11865TIP3   OH257085   1.036   0.199  10.818  0.4632 -0.8398 -0.1042
11865TIP3    H157086   1.101   0.131  10.833 -0.1709 -1.9789 -2.1458
11865TIP3    H257087   1.081   0.281  10.841  1.8990 -1.7547  0.4687
11866TIP3   OH257088   5.529   4.575   1.178 -0.5914  0.4301 -0.0515
11866TIP3    H157089   5.446   4.551   1.219 -0.4809 -0.5767 -0.3804
11866TIP3    H257090   5.518   4.666   1.152 -1.4441  0.4267  0.2666
11867TIP3   OH257091   4.928   2.527   3.484 -0.0337  0.4644  0.0929
11867TIP3    H157092   5.002   2.548   3.540 -0.8033 -0.8372  1.7069
11867TIP3    H257093   4.854   2.574   3.523 -0.1471  1.5013 -1.3098
11868TIP3   OH257094   6.791   3.502  10.674 -0.4067  0.5073  0.3070
11868TIP3    H157095   6.886   3.505  10.664 -0.1597  0.2338  2.2704
11868TIP3    H257096   6.763   3.593  10.667  0.0366  0.6360  0.1917
11869TIP3   OH257097   3.277   0.399  10.396  0.2143 -0.6211  0.0779
11869TIP3    H157098   3.219   0.453  10.451 -0.1953 -1.0719  0.0962
11869TIP3    H257099   3.338   0.359  10.458  0.7228  0.0706  0.0278
11870TIP3   OH257100   5.776   2.750   4.840 -0.5267  0.4293 -0.5863
11870TIP3    H157101   5.847   2.756   4.904 -0.5947  0.5403 -0.5221
11870TIP3    H257102   5.759   2.656   4.832 -0.5733  0.4205 -0.3818
11871TIP3   OH257103   3.378   0.323   6.230  0.4294  0.2290  0.0877
11871TIP3    H157104   3.436   0.283   6.166 -0.1664 -0.3428 -0.0951
11871TIP3    H257105   3.432   0.389   6.273  1.2713 -0.4255  0.0493
11872TIP3   OH257106   4.231   1.592  11.099 -0.1202  0.2585  0.3127
11872TIP3    H157107   4.243   1.506  11.139 -3.7994 -0.4075  0.2731
11872TIP3    H257108   4.248   1.577  11.006 -0.1232 -0.2783  0.3946
11873TIP3   OH257109   6.214   1.687  10.701 -0.1193  0.5030 -0.2440
11873TIP3    H157110   6.209   1.782  10.712 -2.5286  0.8789 -3.1971
11873TIP3    H257111   6.182   1.671  10.613  1.2068 -3.0352 -0.2664
11874TIP3   OH257112   2.295   3.632  12.296  0.3024 -0.0017  0.0439
11874TIP3    H157113   2.238   3.685  12.351 -0.2023 -0.7566  0.2667
11874TIP3    H257114   2.313   3.554  12.349  0.4028 -0.4057 -0.5824
11875TIP3   OH257115   1.549   2.980  14.458  0.1182 -0.2220 -0.1063
11875TIP3    H157116   1.481   2.928  14.503  1.0683 -1.0764  0.3787
11875TIP3    H257117   1.628   2.926  14.465  0.9938  1.0399 -0.1292
11876TIP3   OH257118   2.507   0.439   1.561  0.6872  0.2040  0.6215
11876TIP3    H157119   2.440   0.392   1.511  1.1743  1.2425 -1.1183
11876TIP3    H257120   2.584   0.382   1.556  0.9860  0.6726 -0.6278
11877TIP3   OH257121   6.110   2.467  16.249  0.2666  0.4755  0.6092
11877TIP3    H157122   6.059   2.416  16.186  1.4440 -1.1145  0.8651
11877TIP3    H257123   6.049   2.533  16.281 -1.4045 -0.8590  0.3424
11878TIP3   OH257124   2.045   2.786  15.946 -0.0016 -0.1697 -0.0811
11878TIP3    H157125   1.953   2.812  15.955  0.0557  0.2929 -0.7635
11878TIP3    H257126   2.074   2.773  16.036 -0.8586 -0.7750  0.1196
11879TIP3   OH257127   4.124   5.070   6.346 -0.3822  0.5078  0.3224
11879TIP3    H157128   4.113   4.981   6.312  0.0512  0.2474  0.8549
11879TIP3    H257129   4.043   5.088   6.394  1.0466 -1.1129  3.5918
11880TIP3   OH257130   2.632   6.786   4.647  0.0688 -0.1048 -0.2402
11880TIP3    H157131   2.637   6.874   4.609  0.4197 -0.3311 -0.7204
11880TIP3    H257132   2.620   6.728   4.572 -2.0052 -0.3260  0.2044
11881TIP3   OH257133   5.472   0.419  10.797 -0.1409  0.1869 -0.2373
11881TIP3    H157134   5.549   0.437  10.743 -0.4687 -0.1670 -0.8320
11881TIP3    H257135   5.398   0.447  10.743 -0.4186  0.7219  0.4161
11882TIP3   OH257136   3.526   1.223  12.147 -0.8285  0.0158  0.3884
11882TIP3    H157137   3.524   1.317  12.162  0.7196  0.2646 -0.6635
11882TIP3    H257138   3.600   1.193  12.201  0.2927 -0.1670 -1.1953
11883TIP3   OH257139   4.313   6.010  10.782 -0.3756 -0.3278  0.2836
11883TIP3    H157140   4.288   5.984  10.871  0.5685 -1.7556  0.1587
11883TIP3    H257141   4.304   6.105  10.782 -2.3884 -0.4616  1.2654
11884TIP3   OH257142   0.314   0.035   1.546  1.0525 -0.1150  0.6666
11884TIP3    H157143   0.245  -0.025   1.575  0.3192  0.0865 -0.5745
11884TIP3    H257144   0.272   0.088   1.478  2.1277  0.7726  0.6694
11885TIP3   OH257145   4.969   5.534  13.588  0.2504 -0.4716  0.0565
11885TIP3    H157146   4.982   5.545  13.493  0.2914 -2.0521 -0.1470
11885TIP3    H257147   5.057   5.544  13.625  0.0319  1.7138  0.1545
11886TIP3   OH257148   3.663   3.279  15.500 -0.6069  0.1512 -0.0006
11886TIP3    H157149   3.758   3.292  15.497 -0.5150  0.1911  1.9094
11886TIP3    H257150   3.627   3.359  15.460  0.1448  0.1596 -0.6942
11887TIP3   OH257151   6.734   4.433  12.821 -0.0096 -0.5383 -0.0791
11887TIP3    H157152   6.699   4.372  12.756 -0.4279 -1.1106  0.6655
11887TIP3    H257153   6.824   4.448  12.795 -0.1716 -0.7717 -0.7833
11888TIP3   OH257154   0.495   0.676   5.174 -0.1266  0.1969 -0.0497
11888TIP3    H157155   0.412   0.677   5.127 -0.3667 -1.8562  0.2425
11888TIP3    H257156   0.546   0.747   5.135 -1.6599  0.8839 -0.8748
11889TIP3   OH257157   6.402   2.450   2.007 -0.0957 -0.1634  0.5410
11889TIP3    H157158   6.463   2.519   2.035 -0.3091  0.0932  0.3816
11889TIP3    H257159   6.316   2.482   2.035 -0.2433 -0.1777  0.1124
11890TIP3   OH257160   5.377   2.497   6.452 -0.9748 -0.1460 -0.0405
11890TIP3    H157161   5.465   2.485   6.415 -1.0100  3.8831 -1.9458
11890TIP3    H257162   5.384   2.574   6.508 -2.6865 -1.7345  2.5731
11891TIP3   OH257163   0.980   6.429  14.100 -0.2166  0.5108  0.3713
11891TIP3    H157164   0.892   6.394  14.113 -0.1677  0.1607 -0.2189
11891TIP3    H257165   1.036   6.371  14.152 -0.3087  0.5912  0.5601
11892TIP3   OH257166   2.305   2.878   0.674 -0.3200  0.0327  0.1280
11892TIP3    H157167   2.274   2.789   0.689  0.9449 -0.3603  0.5867
11892TIP3    H257168   2.232   2.935   0.699 -0.3718 -0.8087  2.0520
11893TIP3   OH257169   2.994   2.175   6.164 -0.3000  0.5582  0.6879
11893TIP3    H157170   2.978   2.083   6.142 -0.5673  0.8828 -0.5528
11893TIP3    H257171   2.944   2.189   6.245 -1.1160 -0.1162  0.3174
11894TIP3   OH257172   2.301   5.976   3.238  0.3860  0.2784  0.0647
11894TIP3    H157173   2.299   6.068   3.263 -1.7575  0.5520 -0.9032
11894TIP3    H257174   2.244   5.932   3.302 -0.6108  0.0685 -0.9350
11895TIP3   OH257175   2.598   0.612   2.594  0.1353  0.0858 -0.4213
11895TIP3    H157176   2.619   0.626   2.502 -0.0681 -0.0952 -0.4959
11895TIP3    H257177   2.659   0.545   2.623  0.5756  0.5449 -0.2742
11896TIP3   OH257178   6.818   5.489  11.728 -0.0293 -0.6212  0.0672
11896TIP3    H157179   6.913   5.481  11.725  0.0831 -0.4907  2.0815
11896TIP3    H257180   6.786   5.419  11.672  1.2440  0.1647 -1.7398
11897TIP3   OH257181   2.692   5.455  15.411  0.2391  0.0013 -0.2415
11897TIP3    H157182   2.683   5.523  15.478 -0.3284 -0.7112  0.4242
11897TIP3    H257183   2.721   5.503  15.332  0.7759  0.8686  0.4581
11898TIP3   OH257184   5.085   3.520  13.094 -0.2675 -0.1980 -0.3970
11898TIP3    H157185   5.163   3.465  13.096 -0.2779 -0.1993  1.3780
11898TIP3    H257186   5.034   3.488  13.020  0.2711 -1.8173 -0.0948
11899TIP3   OH257187   1.506   2.283   2.479  0.0588 -0.0906 -0.4123
11899TIP3    H157188   1.472   2.352   2.423  0.1255 -0.1991 -0.5894
11899TIP3    H257189   1.469   2.202   2.443  0.9510 -0.2710 -0.9692
11900TIP3   OH257190   2.578   6.457  10.794 -0.0629 -0.2939 -0.2195
11900TIP3    H157191   2.581   6.552  10.794 -3.8284 -0.0257 -1.0310
11900TIP3    H257192   2.571   6.432  10.886 -1.5184  0.4355 -0.1068
11901TIP3   OH257193   2.592   5.906   3.253  0.2308 -0.0783 -0.4483
11901TIP3    H157194   2.510   5.941   3.218 -0.0421 -0.3462 -0.0816
11901TIP3    H257195   2.584   5.915   3.348  0.9132  0.5217 -0.4306
11902TIP3   OH257196   1.827   3.706  15.190  0.2374  0.0452 -0.4663
11902TIP3    H157197   1.889   3.658  15.246  0.7243 -0.1369 -1.1498
11902TIP3    H257198   1.863   3.697  15.102  0.4375  1.7956 -0.6044
11903TIP3   OH257199   0.867   6.044  15.352  0.2041  0.4824 -0.4442
11903TIP3    H157200   0.866   6.005  15.440 -0.1163 -1.2033 -1.1577
11903TIP3    H257201   0.775   6.044  15.325  0.4100 -0.0313 -1.1870
11904TIP3   OH257202   1.796   3.128  16.014  0.1470  0.2181 -0.2544
11904TIP3    H157203   1.884   3.166  16.011  0.1934  0.0847 -0.7128
11904TIP3    H257204   1.805   3.050  16.069  0.0751  0.8040  0.5974
11905TIP3   OH257205   1.057   3.639   5.196  0.4778 -0.1240 -0.4955
11905TIP3    H157206   1.043   3.586   5.275  0.8678  1.3319  0.5951
11905TIP3    H257207   0.992   3.709   5.203  1.1079  0.5179 -1.0034
11906TIP3   OH257208   3.024   6.543  14.858  0.3032  0.1359  0.0213
11906TIP3    H157209   2.997   6.542  14.950  3.3480  0.1093  1.0113
11906TIP3    H257210   2.944   6.567  14.811 -1.8052 -1.4858  2.4540
11907TIP3   OH257211   1.424   3.048  16.972 -0.1596 -0.2797  0.2705
11907TIP3    H157212   1.458   3.012  16.890 -0.7251 -0.4541  0.1099
11907TIP3    H257213   1.410   3.141  16.954 -1.5723 -0.5723 -0.2698
11908TIP3   OH257214   0.222   5.452  11.770  0.2108  0.6258  0.2273
11908TIP3    H157215   0.228   5.487  11.859 -3.9770  0.1694  0.9124
11908TIP3    H257216   0.201   5.359  11.782  1.8721  0.0019 -1.3494
11909TIP3   OH257217   4.435   4.421  11.464  0.0416 -0.3607  0.3824
11909TIP3    H157218   4.486   4.463  11.533  0.5083  2.0124 -1.2839
11909TIP3    H257219   4.347   4.455  11.476  0.0967 -0.0422 -0.1033
11910TIP3   OH257220   3.514   2.473  10.718 -0.3347  0.2779  0.0466
11910TIP3    H157221   3.606   2.454  10.734 -0.4951  0.9124  1.9736
11910TIP3    H257222   3.514   2.560  10.679 -0.1294  0.3469  0.2000
11911TIP3   OH257223   5.356   5.662   1.253 -0.2542  0.2058 -0.7665
11911TIP3    H157224   5.359   5.568   1.269 -0.1568  0.5193  1.2772
11911TIP3    H257225   5.264   5.686   1.266  0.0639  0.6836  0.7903
11912TIP3   OH257226   1.259   4.226  14.968  1.0145  0.5335 -0.2003
11912TIP3    H157227   1.318   4.271  15.029  0.7891 -1.2461  1.4053
11912TIP3    H257228   1.187   4.196  15.022  0.4233 -0.4544 -1.4916
11913TIP3   OH257229   0.884   0.518   1.140  0.0585  0.2241  0.1121
11913TIP3    H157230   0.807   0.528   1.084 -0.2548 -0.2780  0.4388
11913TIP3    H257231   0.931   0.443   1.102  0.6692  0.8569 -0.3990
11914TIP3   OH257232   3.353   1.656   0.272  0.2271  0.7541  0.0557
11914TIP3    H157233   3.304   1.576   0.253  1.5963 -0.1889  0.3828
11914TIP3    H257234   3.442   1.627   0.290  0.6140  2.2948  0.8611
11915TIP3   OH257235   1.367   3.866  12.081 -0.8032  0.1705  0.4192
11915TIP3    H157236   1.443   3.809  12.074 -0.5214  0.6756 -0.9253
11915TIP3    H257237   1.320   3.853  11.999 -1.4340  0.8806  0.6624
11916TIP3   OH257238   5.439   2.287  15.360  0.3598  0.6709 -0.0488
11916TIP3    H157239   5.500   2.223  15.396  1.9859  1.8533 -0.5563
11916TIP3    H257240   5.395   2.325  15.436  0.3209 -0.1215  0.3305
11917TIP3   OH257241   1.458   4.005  11.237  0.7174  0.0179  0.3617
11917TIP3    H157242   1.462   3.989  11.331 -1.6683 -0.1085  0.5197
11917TIP3    H257243   1.415   3.927  11.201  1.6378  0.0388 -0.8633
11918TIP3   OH257244   1.461   2.441  11.894  0.1095 -0.6524 -0.1931
11918TIP3    H157245   1.437   2.364  11.945  0.2398 -0.6049 -0.0580
11918TIP3    H257246   1.441   2.515  11.951  0.8075 -0.6210  0.0237
11919TIP3   OH257247   2.387   1.314  16.869 -0.3421  0.8094  0.0394
11919TIP3    H157248   2.410   1.376  16.799  1.1526 -0.6484 -0.8331
11919TIP3    H257249   2.468   1.266  16.886 -1.0687  0.1128  1.7705
11920TIP3   OH257250   6.011   6.202  13.034  0.6443 -0.9296 -0.0147
11920TIP3    H157251   6.013   6.297  13.048  0.0590 -1.2367  2.6304
11920TIP3    H257252   5.971   6.191  12.948 -1.1361  1.1749  0.4663
11921TIP3   OH257253   2.480   4.806  14.872  0.2707  0.0133 -0.4097
11921TIP3    H157254   2.519   4.765  14.795  0.5955  0.2495 -0.3747
11921TIP3    H257255   2.446   4.733  14.924  0.6955 -0.1974 -0.4283
11922TIP3   OH257256   6.645   1.768  16.392 -0.1022 -0.6347 -0.5512
11922TIP3    H157257   6.670   1.678  16.373  2.8593  0.1800 -0.9261
11922TIP3    H257258   6.641   1.772  16.487  0.7087 -0.9503 -0.4978
11923TIP3   OH257259   4.572   4.517   5.191 -0.3063  0.2058 -0.2853
11923TIP3    H157260   4.637   4.477   5.248 -0.7606  0.0692  0.1453
11923TIP3    H257261   4.501   4.453   5.188 -0.2806  0.2015 -1.0214
11924TIP3   OH257262   3.888   4.047   2.542  0.8444 -0.1382  0.3869
11924TIP3    H157263   3.875   4.124   2.598  0.8895  0.3130 -0.2196
11924TIP3    H257264   3.823   3.984   2.572 -0.7014  0.9388 -0.5630
11925TIP3   OH257265   2.450   2.350   1.866  0.1967  0.1836  0.0612
11925TIP3    H157266   2.517   2.297   1.824  0.1086  0.0738  0.0563
11925TIP3    H257267   2.370   2.332   1.815  0.3454  0.9752 -0.4634
11926TIP3   OH257268   1.831   3.556   1.698  0.0790  0.5675  0.2070
11926TIP3    H157269   1.827   3.482   1.758  0.8139  0.0705 -0.3315
11926TIP3    H257270   1.743   3.593   1.698 -0.3224 -0.3712  0.4085
11927TIP3   OH257271   2.977   0.568  14.607  0.1179 -0.4005  0.0628
11927TIP3    H157272   2.940   0.568  14.694  0.2821  1.8606  0.1781
11927TIP3    H257273   2.920   0.510  14.556 -1.8121  0.6665  0.9314
11928TIP3   OH257274   5.370   3.938   0.245 -0.8956  0.6694 -0.1306
11928TIP3    H157275   5.280   3.949   0.277 -1.4339 -1.7264 -0.6386
11928TIP3    H257276   5.369   3.854   0.199  2.0281 -0.2717  1.2841
11929TIP3   OH257277   3.459   1.625  13.724 -0.2784  0.0986  0.1210
11929TIP3    H157278   3.398   1.556  13.751  0.6427 -0.6371  0.3583
11929TIP3    H257279   3.491   1.663  13.806 -0.2228  0.3103  0.0022
11930TIP3   OH257280   1.171   3.120   5.847 -0.3507  0.4494 -0.3370
11930TIP3    H157281   1.216   3.201   5.826  0.8328 -0.4038 -1.2612
11930TIP3    H257282   1.155   3.125   5.941  1.0209  1.1422 -0.1138
11931TIP3   OH257283   3.102   3.379   4.484 -0.5767 -0.2207  0.0692
11931TIP3    H157284   3.139   3.452   4.533 -0.7287  0.6857 -1.1086
11931TIP3    H257285   3.125   3.301   4.534  2.2005  0.3700 -0.1457
11932TIP3   OH257286   3.442   2.999   3.044  0.1364 -0.0947 -0.4806
11932TIP3    H157287   3.452   3.089   3.074  0.9616 -0.1702 -0.5134
11932TIP3    H257288   3.479   2.999   2.955 -0.7459 -0.2491 -0.8615
11933TIP3   OH257289   6.452   5.373   5.194 -0.2360  0.5635 -0.4575
11933TIP3    H157290   6.462   5.443   5.129  0.9659 -1.6932 -2.9588
11933TIP3    H257291   6.542   5.348   5.215 -0.6062 -0.9186 -0.5198
11934TIP3   OH257292   2.411   2.910   3.454  0.1111 -0.2834 -0.0052
11934TIP3    H157293   2.322   2.877   3.441 -0.9434  2.4543 -0.4951
11934TIP3    H257294   2.430   2.958   3.373  0.9749  1.3514  1.1211
11935TIP3   OH257295   4.419   5.727  16.245  0.4955 -0.5178  0.2334
11935TIP3    H157296   4.475   5.716  16.168  0.1823 -1.8611  0.1791
11935TIP3    H257297   4.363   5.802  16.222 -1.1264 -2.2247 -1.8599
11936TIP3   OH257298   2.536   1.185   5.793 -0.5974  0.2763 -0.6535
11936TIP3    H157299   2.542   1.137   5.876 -0.2363 -0.8499 -1.3072
11936TIP3    H257300   2.528   1.277   5.819 -0.8719 -0.0857  0.6339
11937TIP3   OH257301   4.441   0.605  11.322 -0.3856  0.6377 -0.3550
11937TIP3    H157302   4.491   0.526  11.343 -2.0039 -1.1832 -2.8753
11937TIP3    H257303   4.387   0.619  11.400  1.8436  0.9750  1.2455
11938TIP3   OH257304   6.351   1.703  11.423  0.0295 -0.0754  0.1125
11938TIP3    H157305   6.346   1.671  11.333 -0.4481 -1.1386  0.4984
11938TIP3    H257306   6.445   1.711  11.441  0.1579  2.8000 -1.3511
11939TIP3   OH257307   4.870   1.586  16.924  0.3670  0.2027 -0.4453
11939TIP3    H157308   4.850   1.648  16.854 -3.1195  0.7335  0.8545
11939TIP3    H257309   4.808   1.515  16.912  0.5405 -0.3147  1.3632
11940TIP3   OH257310   3.503   3.088   3.458  0.3385 -0.2288 -0.2802
11940TIP3    H157311   3.574   3.110   3.397  0.6867  0.2751  0.2982
11940TIP3    H257312   3.440   3.160   3.448  0.9823  0.5276  0.8430
11941TIP3   OH257313   1.149   3.186  12.149 -0.2287 -0.2645 -0.5068
11941TIP3    H157314   1.068   3.139  12.131 -0.4918 -0.6236  1.3448
11941TIP3    H257315   1.121   3.272  12.181  0.1266 -0.1812 -0.4098
11942TIP3   OH257316   0.480   3.062  11.921 -0.6269  0.2321 -0.8562
11942TIP3    H157317   0.524   3.046  11.838 -2.2319 -0.1918 -1.6506
11942TIP3    H257318   0.441   2.977  11.944 -0.5238  0.4414  0.1460
11943TIP3   OH257319   1.913   2.694  13.785 -0.2308 -0.7498 -0.2327
11943TIP3    H157320   1.947   2.613  13.749  0.0606 -0.4033 -0.7565
11943TIP3    H257321   1.845   2.667  13.847 -0.1775 -1.3853 -0.4482
11944TIP3   OH257322   3.517   2.095  15.294 -0.2650  0.4859  0.7052
11944TIP3    H157323   3.587   2.102  15.229 -1.5932 -1.2283 -1.0171
11944TIP3    H257324   3.501   2.001  15.303 -0.9224  0.7396  2.6763
11945TIP3   OH257325   2.415   4.840  11.478  0.0205 -0.6577 -0.1207
11945TIP3    H157326   2.500   4.876  11.504  0.1723 -0.4991 -0.8104
11945TIP3    H257327   2.418   4.749  11.506 -1.1136  0.2539  3.4330
11946TIP3   OH257328   3.531   0.407  11.430  0.0964  0.2511 -0.1882
11946TIP3    H157329   3.560   0.397  11.521  1.5065 -0.7122 -0.7203
11946TIP3    H257330   3.457   0.347  11.422  0.3827 -0.1517  0.1529
11947TIP3   OH257331   5.184   6.228   1.340  0.5231  0.3279 -0.5063
11947TIP3    H157332   5.223   6.307   1.380  1.4754  0.3302 -1.3992
11947TIP3    H257333   5.195   6.240   1.246  1.0362 -1.0444 -0.6493
11948TIP3   OH257334   0.863   2.750   4.430 -0.2264 -0.1401 -0.3215
11948TIP3    H157335   0.830   2.829   4.473 -0.7730  0.2585 -1.4214
11948TIP3    H257336   0.849   2.766   4.336  2.1250 -0.4125 -0.7804
11949TIP3   OH257337   3.748   5.261  14.795 -0.4271  0.1785 -0.1865
11949TIP3    H157338   3.741   5.319  14.871 -0.4742  0.3464 -0.3160
11949TIP3    H257339   3.714   5.177  14.825  1.9119 -0.5208  0.7666
11950TIP3   OH257340   1.651   5.718  15.640 -0.1183 -0.5664  0.0269
11950TIP3    H157341   1.704   5.648  15.678 -0.2181 -0.5749  0.1528
11950TIP3    H257342   1.684   5.798  15.681 -0.4737 -0.6147  0.4110
11951TIP3   OH257343   1.169   3.804  10.946 -0.4920  0.0194 -0.7624
11951TIP3    H157344   1.168   3.709  10.931 -3.0315 -0.4474  1.5214
11951TIP3    H257345   1.159   3.842  10.859 -2.7798 -1.9697 -1.5077
11952TIP3   OH257346   0.985   3.589  10.992 -0.5599  0.1315 -0.2615
11952TIP3    H157347   0.941   3.646  10.929 -0.5021  1.0258  0.4751
11952TIP3    H257348   0.957   3.622  11.077  1.6542  0.8673  0.2511
11953TIP3   OH257349   3.176   6.411  14.392 -0.5678  0.2825  0.6346
11953TIP3    H157350   3.099   6.461  14.417 -1.4791 -1.2259  0.9903
11953TIP3    H257351   3.203   6.448  14.308 -2.5969 -0.0971 -0.2574
11954TIP3   OH257352   3.521   4.865   2.952  0.0113  0.4737  0.0387
11954TIP3    H157353   3.463   4.788   2.955 -0.5667  0.9277  1.9461
11954TIP3    H257354   3.602   4.835   2.993  0.4658  0.3929 -0.8822
11955TIP3   OH257355   2.111   2.929   4.551 -0.1245 -0.1218  0.0112
11955TIP3    H157356   2.063   3.007   4.578  0.3302  0.1443  0.0567
11955TIP3    H257357   2.043   2.868   4.522 -0.3560  1.2825 -2.6677
11956TIP3   OH257358   5.786   4.595   5.805 -0.6070  0.4767 -0.2991
11956TIP3    H157359   5.779   4.524   5.741  2.4795 -1.2436  1.0332
11956TIP3    H257360   5.735   4.666   5.767 -3.1521 -2.0946 -2.1561
11957TIP3   OH257361   3.043   1.659  16.728  0.4719  0.5665  0.2483
11957TIP3    H157362   3.072   1.591  16.789  0.2419 -0.4909 -0.7967
11957TIP3    H257363   3.121   1.713  16.715 -0.0806  2.4664  3.4657
11958TIP3   OH257364   0.557   1.436   0.202 -0.1540  0.6276  0.4782
11958TIP3    H157365   0.546   1.341   0.204  1.1765  0.2557 -2.7394
11958TIP3    H257366   0.468   1.471   0.201 -0.7454 -0.7881 -0.9948
11959TIP3   OH257367   5.181   3.418  13.375  0.2833  0.1091  0.0326
11959TIP3    H157368   5.236   3.409  13.453 -0.3004 -1.3405  0.3106
11959TIP3    H257369   5.243   3.410  13.302  0.6154 -0.3068  0.3482
11960TIP3   OH257370   5.211   3.325  16.975 -0.2063  0.1235 -0.0621
11960TIP3    H157371   5.150   3.298  17.043 -2.1577  1.6033 -1.0798
11960TIP3    H257372   5.232   3.245  16.927 -0.1898 -0.6389  1.1850
11961TIP3   OH257373   4.064   5.578   1.315  0.1967  0.9973 -0.2494
11961TIP3    H157374   4.000   5.636   1.357 -0.3627  0.9521 -1.0150
11961TIP3    H257375   4.053   5.594   1.221 -0.4767 -0.8454 -0.5254
11962TIP3   OH257376   0.205   1.358  12.063 -0.7762 -0.5494 -0.1999
11962TIP3    H157377   0.225   1.315  12.146 -0.1090  0.8068  0.3869
11962TIP3    H257378   0.121   1.401  12.078 -0.7273 -0.4272 -0.2750
11963TIP3   OH257379   0.375   1.646  13.742  0.0061 -0.4370  0.2460
11963TIP3    H157380   0.294   1.636  13.693  0.5982 -2.4495 -0.4308
11963TIP3    H257381   0.391   1.740  13.744 -1.6772 -0.0971 -0.6844
11964TIP3   OH257382   6.248   3.195   1.880  0.7468  0.1343 -0.3470
11964TIP3    H157383   6.315   3.202   1.812 -1.6065  0.8760 -2.7317
11964TIP3    H257384   6.165   3.195   1.832 -1.1343  2.2676  2.6162
11965TIP3   OH257385   1.428   5.928  13.912  0.0996 -0.4695  0.3422
11965TIP3    H157386   1.482   5.994  13.955 -0.4747  0.7264 -0.7064
11965TIP3    H257387   1.392   5.876  13.984 -1.4192  1.9161  1.4382
11966TIP3   OH257388   5.014   2.951  11.597 -0.7544 -0.1173  0.4538
11966TIP3    H157389   4.924   2.930  11.620 -0.1237 -1.8166  1.5673
11966TIP3    H257390   5.053   2.982  11.679 -0.4513  1.1091 -0.1371
11967TIP3   OH257391   4.506   2.599   1.757 -0.2144 -0.4458  0.2284
11967TIP3    H157392   4.595   2.624   1.779  0.6601 -1.8005 -1.4756
11967TIP3    H257393   4.502   2.504   1.773 -1.5158 -0.3363  0.7368
11968TIP3   OH257394   3.881   6.532  15.610  0.1262 -0.3054  0.4164
11968TIP3    H157395   3.919   6.579  15.684 -0.4809 -1.2561  1.3590
11968TIP3    H257396   3.826   6.597  15.565  0.1155  0.1539  1.0856
11969TIP3   OH257397   4.439   1.323  12.366 -0.7117  0.1613 -0.4534
11969TIP3    H157398   4.420   1.405  12.321 -0.0591 -0.6051 -2.1908
11969TIP3    H257399   4.531   1.329  12.391 -1.4992  1.3954  2.6740
11970TIP3   OH257400   3.378   2.805   4.876  0.8714 -0.0787  0.3886
11970TIP3    H157401   3.434   2.858   4.934 -0.3300 -0.1486  1.6688
11970TIP3    H257402   3.410   2.825   4.788  1.8549  1.1205  0.9746
11971TIP3   OH257403   1.502   1.616  16.775 -0.2738  0.0161 -0.1149
11971TIP3    H157404   1.502   1.699  16.728 -1.0374 -0.0856 -0.3155
11971TIP3    H257405   1.507   1.549  16.707  1.5548 -0.1062  0.0968
11972TIP3   OH257406   3.196   6.679  10.412  0.2927 -0.6058 -0.2305
11972TIP3    H157407   3.142   6.605  10.438 -0.9137  0.3316 -0.0142
11972TIP3    H257408   3.266   6.683  10.477  2.2391 -3.4071 -1.9099
11973TIP3   OH257409   5.537   1.443  12.533 -0.1016 -0.2696 -0.1224
11973TIP3    H157410   5.607   1.498  12.498  0.9796  0.1029  2.4653
11973TIP3    H257411   5.493   1.497  12.598 -1.0302 -1.4391  0.2776
11974TIP3   OH257412   5.848   2.001  16.769 -0.1114 -1.2066 -0.0732
11974TIP3    H157413   5.753   2.006  16.754  0.0275 -0.8060 -0.8280
11974TIP3    H257414   5.857   2.012  16.864 -0.7142  0.5107 -0.1756
11975TIP3   OH257415   6.662   1.758  14.449 -0.2790 -0.0208  0.1751
11975TIP3    H157416   6.602   1.772  14.522  1.0448  3.9247  0.7553
11975TIP3    H257417   6.690   1.667  14.458 -1.4673 -0.1963  3.5576
11976TIP3   OH257418   2.713   3.571  15.344 -0.1723 -0.4049 -0.5268
11976TIP3    H157419   2.792   3.525  15.317  0.1050 -0.5420  0.4776
11976TIP3    H257420   2.716   3.654  15.296 -1.5010 -1.9663 -3.6514
11977TIP3   OH257421   1.885   0.988   4.647 -0.0420  0.3797  0.3883
11977TIP3    H157422   1.819   0.957   4.709  0.1613  1.0023  0.9207
11977TIP3    H257423   1.956   0.923   4.652 -1.1431 -1.0352 -1.1631
11978TIP3   OH257424   5.748   2.330   6.774 -0.3665 -0.1541 -0.4340
11978TIP3    H157425   5.822   2.274   6.749  0.5280  0.0470  1.4823
11978TIP3    H257426   5.759   2.409   6.722  1.4552  0.3021  0.5216
11979TIP3   OH257427   5.199   5.684   1.647 -0.2767 -0.4683 -0.7883
11979TIP3    H157428   5.139   5.623   1.605 -1.3353  0.0956 -0.1626
11979TIP3    H257429   5.153   5.712   1.726  0.6870  0.2292 -0.4469
11980TIP3   OH257430   2.337   6.813   1.837 -0.1908  0.3263  0.0765
11980TIP3    H157431   2.265   6.754   1.818 -0.3450  0.3695  0.5195
11980TIP3    H257432   2.299   6.883   1.890 -0.1612  1.2103 -1.0224
11981TIP3   OH257433   4.778   6.756  11.263 -0.3269 -0.1548  0.2179
11981TIP3    H157434   4.832   6.824  11.224  0.2134  0.5765  2.1086
11981TIP3    H257435   4.716   6.803  11.318 -1.3255 -1.1134 -0.0473
11982TIP3   OH257436   0.744   3.938  15.008 -0.0065  0.2222  0.5071
11982TIP3    H157437   0.822   3.882  15.002  0.0888  0.3629  0.3928
11982TIP3    H257438   0.761   3.995  15.083 -0.3831 -0.3165  1.0086
11983TIP3   OH257439   6.763   4.093   1.218  0.4027 -0.3926  0.2650
11983TIP3    H157440   6.804   4.172   1.183 -1.0028 -0.3125 -1.3167
11983TIP3    H257441   6.672   4.119   1.236 -0.6282 -2.0180 -2.0237
11984TIP3   OH257442   6.811   2.881   3.542  0.2117  0.1621 -0.0683
11984TIP3    H157443   6.888   2.841   3.582  0.5259  0.1794 -0.6454
11984TIP3    H257444   6.779   2.814   3.481 -0.0882  0.2480 -0.0070
11985TIP3   OH257445   4.855   3.220  12.605  0.3511  0.5334  0.0010
11985TIP3    H157446   4.769   3.193  12.637  0.7953 -0.6963  0.2346
11985TIP3    H257447   4.888   3.143  12.558  1.4122  0.8921  0.1250
11986TIP3   OH257448   6.439   2.591   0.741  0.8527 -0.0131  0.3081
11986TIP3    H157449   6.368   2.612   0.681 -0.4388 -0.8851  1.4655
11986TIP3    H257450   6.515   2.576   0.684  0.3601  1.7838 -0.8902
11987TIP3   OH257451   5.637   6.769  11.884  0.1074  0.2526  0.3872
11987TIP3    H157452   5.723   6.748  11.921 -0.4617 -2.9807  0.1150
11987TIP3    H257453   5.582   6.787  11.960 -0.0662 -2.3491  0.9445
11988TIP3   OH257454   3.158   3.364   3.014 -0.2551  0.1235 -0.2304
11988TIP3    H157455   3.190   3.300   3.077 -0.0077 -0.7573 -1.2236
11988TIP3    H257456   3.067   3.339   2.997 -0.1801  0.0635 -0.5669
11989TIP3   OH257457   1.800   2.020   5.043 -0.3929  0.4757 -0.2420
11989TIP3    H157458   1.740   1.952   5.013 -0.0366 -0.5490  1.2712
11989TIP3    H257459   1.887   1.984   5.027 -0.2007  0.7319  0.2114
11990TIP3   OH257460   6.418   5.337  16.688  0.5126  0.0167 -0.0684
11990TIP3    H157461   6.476   5.332  16.763 -0.4382 -0.1424  0.6733
11990TIP3    H257462   6.335   5.368  16.723 -0.2647 -1.0817 -0.8566
11991TIP3   OH257463   0.904   0.939  15.224  0.9126  0.2736 -0.1720
11991TIP3    H157464   0.842   0.868  15.207  1.4883  0.2258 -2.2916
11991TIP3    H257465   0.849   1.011  15.256  0.2505 -0.8766  1.4298
11992TIP3   OH257466   4.771   2.359  11.833  0.0066 -1.0213  0.3630
11992TIP3    H157467   4.689   2.375  11.787 -1.7691 -3.9279  2.2140
11992TIP3    H257468   4.824   2.310  11.770 -0.9344 -1.8251  0.1733
11993TIP3   OH257469   2.694   0.635   1.602 -0.0254  0.1480 -0.1101
11993TIP3    H157470   2.678   0.722   1.565 -1.6293  0.8902  2.0987
11993TIP3    H257471   2.617   0.584   1.577 -0.2361  0.1041  0.6245
11994TIP3   OH257472   5.761   0.552   2.050  0.5271 -0.1852 -0.2531
11994TIP3    H157473   5.681   0.525   2.094  0.8249 -0.1654  0.3076
11994TIP3    H257474   5.775   0.487   1.981  0.3947 -0.5698  0.0842
11995TIP3   OH257475   3.463   6.020  13.382  0.3889  0.1424 -0.1662
11995TIP3    H157476   3.391   6.069  13.343 -0.1073  2.0040  2.7781
11995TIP3    H257477   3.523   6.088  13.414  0.3522 -1.0811  2.8593
11996TIP3   OH257478   4.289   5.903   2.760  0.1399  0.6119  0.4951
11996TIP3    H157479   4.326   5.815   2.764  2.3361  1.5154  1.7280
11996TIP3    H257480   4.217   5.896   2.698  0.6057 -1.9234  0.1467
11997TIP3   OH257481   0.315   0.446  16.000 -0.2427 -0.8864 -0.3829
11997TIP3    H157482   0.299   0.499  15.922 -0.5318 -2.2862 -1.2962
11997TIP3    H257483   0.228   0.423  16.031 -0.1398 -0.0998  0.5572
11998TIP3   OH257484   0.137   3.757  11.874  0.2220 -0.1557  0.4996
11998TIP3    H157485   0.147   3.853  11.875  0.1298 -0.1433  0.2541
11998TIP3    H257486   0.121   3.734  11.965 -1.8989  0.2882  0.2829
11999TIP3   OH257487   5.195   1.981   5.851 -0.1106  0.1670  0.4549
11999TIP3    H157488   5.141   1.903   5.864 -0.3588  0.5508  1.9179
11999TIP3    H257489   5.146   2.052   5.893  1.4173  0.5472  1.7091
12000TIP3   OH257490   1.348   0.814   5.133  0.1939 -0.1964  0.0665
12000TIP3    H157491   1.420   0.752   5.123  1.4894  1.1474  0.5840
12000TIP3    H257492   1.287   0.771   5.192  0.1951 -1.6657 -0.9447
12001TIP3   OH257493   6.658   0.522  14.626 -0.3505 -0.1865  0.7349
12001TIP3    H157494   6.650   0.476  14.709  1.8405 -1.6575  0.2376
12001TIP3    H257495   6.747   0.500  14.595 -0.5939  1.3974 -1.3372
12002TIP3   OH257496   4.044   2.120   5.639 -0.2086 -0.4529 -0.4119
12002TIP3    H157497   4.130   2.159   5.624 -0.2836  0.4231  1.2780
12002TIP3    H257498   4.034   2.058   5.566  1.8546 -0.6047 -0.6499
12003TIP3   OH257499   5.239   6.177   3.285 -0.2260 -0.1218  0.1014
12003TIP3    H157500   5.214   6.228   3.363 -0.5046 -0.8783  0.5164
12003TIP3    H257501   5.168   6.194   3.223 -0.3376 -0.0292  0.2511
12004TIP3   OH257502   4.858   4.778  16.269 -0.3701  0.7554  0.6594
12004TIP3    H157503   4.867   4.838  16.343  1.5532  0.5573  0.6184
12004TIP3    H257504   4.933   4.719  16.275 -1.3824 -0.7022 -0.1844
12005TIP3   OH257505   2.446   0.317   2.813  0.3054  0.1970  0.0454
12005TIP3    H157506   2.415   0.406   2.830  0.3883  0.0254  1.1743
12005TIP3    H257507   2.535   0.328   2.781  0.5800  0.4946  0.8853
12006TIP3   OH257508   2.358   6.312  10.653  0.1459 -0.2689  0.5368
12006TIP3    H157509   2.435   6.353  10.692 -0.8254  1.2705  0.9191
12006TIP3    H257510   2.325   6.376  10.591  0.1406 -1.6279 -0.9300
12007TIP3   OH257511   4.139   5.195  11.142  0.1222 -0.0567  0.4599
12007TIP3    H157512   4.131   5.210  11.236 -0.8119 -0.3675  0.4435
12007TIP3    H257513   4.090   5.267  11.102  0.3326 -0.0468  0.2170
12008TIP3   OH257514   6.419   2.609  12.534  0.1665  0.1386 -0.1674
12008TIP3    H157515   6.352   2.673  12.508  0.8056  0.8565 -0.0864
12008TIP3    H257516   6.373   2.550  12.593 -0.3229  0.8405  0.1737
12009TIP3   OH257517   2.087   2.905  16.430  0.2394 -0.2065 -0.1306
12009TIP3    H157518   2.035   2.849  16.487  1.0200 -1.7873 -0.8976
12009TIP3    H257519   2.028   2.977  16.407 -0.9682 -0.9453  0.5230
12010TIP3   OH257520   0.012   3.421  15.919 -0.0837 -0.2222 -0.2249
12010TIP3    H157521  -0.036   3.405  16.000 -0.5457  1.7719 -0.0467
12010TIP3    H257522  -0.028   3.500  15.882  0.8643 -0.4249 -1.8192
12011TIP3   OH257523   0.709   3.923   2.411  0.1005  0.2128  0.1790
12011TIP3    H157524   0.687   4.009   2.447  1.8248 -0.3959  3.0072
12011TIP3    H257525   0.662   3.860   2.467  0.8924 -0.7448 -0.2001
12012TIP3   OH257526   6.650   2.160  10.596 -0.3811 -0.6459 -0.0600
12012TIP3    H157527   6.722   2.214  10.627  0.4205 -1.4504 -0.4753
12012TIP3    H257528   6.664   2.151  10.502 -0.3908 -1.7153  0.0238
12013TIP3   OH257529   4.627   0.972  12.980 -0.4434 -0.0689  0.0714
12013TIP3    H157530   4.609   1.051  13.030 -0.6371  0.7666 -1.2616
12013TIP3    H257531   4.556   0.912  13.004 -1.9298  1.1885 -0.9693
12014TIP3   OH257532   4.015   0.847  13.739 -0.4584  0.3335 -0.0188
12014TIP3    H157533   3.938   0.803  13.776  0.4284 -0.6621  0.7330
12014TIP3    H257534   4.063   0.879  13.815  1.3366 -1.6340 -0.2229
12015TIP3   OH257535   6.820   4.844  16.510  0.1213 -0.6482  0.1333
12015TIP3    H157536   6.862   4.769  16.553  0.9563 -1.1240 -1.4344
12015TIP3    H257537   6.727   4.823  16.512  0.1148 -0.5878  1.7879
12016TIP3   OH257538   0.316   4.048  12.881  0.0066  0.1520  0.0583
12016TIP3    H157539   0.299   4.020  12.791  1.7836  0.3985 -0.3866
12016TIP3    H257540   0.353   4.136  12.872 -0.1992  0.3537  1.0603
12017TIP3   OH257541   5.593   5.932  14.797 -0.3178  0.3630 -0.3481
12017TIP3    H157542   5.558   5.939  14.886  0.5527  1.9243 -0.0786
12017TIP3    H257543   5.688   5.942  14.809 -0.1432  0.0536 -1.4020
12018TIP3   OH257544   3.488   6.786   3.531  0.2135 -0.4419  0.4780
12018TIP3    H157545   3.448   6.873   3.543  2.3423  0.6034  0.5073
12018TIP3    H257546   3.433   6.727   3.582 -0.5536  1.1191  1.5341
12019TIP3   OH257547   5.880   3.330  13.952 -0.4781  0.3646 -0.1993
12019TIP3    H157548   5.795   3.289  13.935 -0.5445  0.2571  0.3880
12019TIP3    H257549   5.865   3.386  14.028 -0.2787  1.1544 -0.7273
12020TIP3   OH257550   1.343   1.292   5.968 -0.3858 -0.1656 -0.0397
12020TIP3    H157551   1.330   1.366   6.028 -2.4187 -1.4821  1.2840
12020TIP3    H257552   1.369   1.219   6.025 -1.2120 -1.1598 -0.8998
12021TIP3   OH257553   3.013   3.964  12.726 -0.3102  0.0915 -0.2120
12021TIP3    H157554   3.022   4.040  12.669  1.1812 -0.3633 -0.6353
12021TIP3    H257555   3.046   3.891  12.673  1.6893 -0.2583  1.3767
12022TIP3   OH257556   0.173   6.266   0.013  0.0850 -0.4476 -0.4502
12022TIP3    H157557   0.147   6.235  -0.073 -1.8267  0.1568 -0.1320
12022TIP3    H257558   0.189   6.186   0.063 -0.3011 -0.8364 -0.9329
12023TIP3   OH257559   4.061   5.027  12.373  1.0326  0.0578  0.8524
12023TIP3    H157560   4.124   4.988  12.313  0.0182 -0.2234 -0.0598
12023TIP3    H257561   4.045   4.959  12.438 -0.9883 -1.2750 -0.9204
12024TIP3   OH257562   4.311   4.280  10.454 -0.2414 -0.4854 -0.1375
12024TIP3    H157563   4.241   4.330  10.495 -1.1641 -0.5340 -1.5812
12024TIP3    H257564   4.281   4.189  10.457  1.0449 -0.9149  1.7086
12025TIP3   OH257565   0.596   0.793   2.964  0.0862  0.6115  0.0320
12025TIP3    H157566   0.681   0.814   3.003  0.1639 -1.0164  0.8267
12025TIP3    H257567   0.543   0.871   2.980  0.7509  0.7933  1.5643
12026TIP3   OH257568   4.406   1.592   6.552 -0.3028 -0.5025 -0.5113
12026TIP3    H157569   4.330   1.540   6.526  0.5293 -1.1737 -1.6900
12026TIP3    H257570   4.478   1.529   6.557  0.4085  0.2957 -0.4779
12027TIP3   OH257571   3.237   6.185  12.879 -0.1699  0.0381 -0.0042
12027TIP3    H157572   3.311   6.160  12.934  1.3793  1.8788 -1.1100
12027TIP3    H257573   3.198   6.260  12.922  0.3612  0.7944 -0.8004
12028TIP3   OH257574   0.391   2.278   4.599 -0.1072 -0.1241 -0.8197
12028TIP3    H157575   0.425   2.260   4.511  0.8754  1.8119 -0.8951
12028TIP3    H257576   0.460   2.329   4.641 -0.4852 -1.1704  1.1687
12029TIP3   OH257577   3.248   2.078  11.274  0.6071 -0.3690 -0.8263
12029TIP3    H157578   3.273   2.032  11.355  1.0760 -0.7460 -1.1789
12029TIP3    H257579   3.247   2.170  11.299  0.3720 -0.5104 -0.2888
12030TIP3   OH257580   2.868   0.885   1.195 -0.0954 -0.3824 -0.1494
12030TIP3    H157581   2.880   0.792   1.214 -0.3307 -0.8295 -1.9968
12030TIP3    H257582   2.943   0.908   1.140 -0.2593  0.4097 -0.0549
12031TIP3   OH257583   0.680   1.586  11.981 -0.2336 -0.1646 -0.0913
12031TIP3    H157584   0.736   1.625  12.048 -2.1903  1.4009  0.7498
12031TIP3    H257585   0.591   1.604  12.011 -1.1909 -0.5378 -2.4883
12032TIP3   OH257586   3.399   2.018   1.288 -0.0518  0.8413 -0.1363
12032TIP3    H157587   3.365   1.946   1.342  2.0607 -1.9037 -2.1548
12032TIP3    H257588   3.477   2.048   1.335  1.1919 -0.8299 -1.0463
12033TIP3   OH257589   3.771   0.060   3.056  0.8653 -0.1225 -0.1310
12033TIP3    H157590   3.809   0.139   3.094 -0.9389  0.8859 -0.3101
12033TIP3    H257591   3.688   0.089   3.019  0.2600 -2.0733 -0.4077
12034TIP3   OH257592   1.021   5.161  12.219  0.2017 -0.0393  0.0218
12034TIP3    H157593   1.116   5.158  12.229  0.2803 -1.1169 -0.8653
12034TIP3    H257594   1.005   5.234  12.159  0.6609 -1.0773 -1.4361
12035TIP3   OH257595   3.876   1.236   3.858 -0.4071 -0.2019 -0.6633
12035TIP3    H157596   3.915   1.289   3.928  2.1132 -1.9634 -0.6052
12035TIP3    H257597   3.916   1.269   3.778 -1.4812  0.2335 -1.0367
12036TIP3   OH257598   5.960   6.720  13.742 -0.3471 -0.3450  0.2895
12036TIP3    H157599   5.934   6.640  13.788 -2.0792 -0.7820 -1.3339
12036TIP3    H257600   6.027   6.692  13.680 -0.8032 -0.5089 -0.1328
12037TIP3   OH257601   3.716   2.559  14.691  0.2327  0.1189  0.5041
12037TIP3    H157602   3.630   2.518  14.694  0.4132 -0.2105  1.3580
12037TIP3    H257603   3.698   2.653  14.697 -0.1183  0.1247 -0.4441
12038TIP3   OH257604   0.374   0.159  13.650 -0.1450  0.0549  0.2584
12038TIP3    H157605   0.371   0.246  13.690 -2.3588 -0.1719  0.7085
12038TIP3    H257606   0.465   0.132  13.658  1.1842  3.2128 -1.9141
12039TIP3   OH257607   6.223   4.100  11.675  0.6804  0.0332 -0.6937
12039TIP3    H157608   6.292   4.143  11.624  0.6757 -1.2300 -1.8307
12039TIP3    H257609   6.147   4.101  11.617 -0.0895  0.7949  0.2825
12040TIP3   OH257610   2.124   3.009   2.034  0.5287 -0.4492  0.5153
12040TIP3    H157611   2.176   3.084   2.063  0.0444  0.2860 -0.4505
12040TIP3    H257612   2.163   2.934   2.080  2.8212 -0.0334 -0.5911
12041TIP3   OH257613   1.303   5.358   3.512 -0.2612  0.0465  0.4019
12041TIP3    H157614   1.341   5.443   3.491 -1.4167  0.4356 -0.1734
12041TIP3    H257615   1.212   5.364   3.484 -1.2704 -0.2870  3.2533
12042TIP3   OH257616   0.242   1.533   6.367 -0.0586  0.3698  0.0490
12042TIP3    H157617   0.264   1.444   6.340 -0.7135  0.1068  0.3486
12042TIP3    H257618   0.281   1.590   6.301 -1.1840 -0.2307 -1.1682
12043TIP3   OH257619   2.943   4.677   2.511 -0.4380 -0.0894 -0.2954
12043TIP3    H157620   2.893   4.696   2.432  1.2486 -1.9585 -1.9160
12043TIP3    H257621   2.904   4.597   2.546  0.1621 -0.4818 -0.4950
12044TIP3   OH257622   0.085   3.357   0.234  0.6796 -0.2884 -0.5882
12044TIP3    H157623   0.128   3.309   0.305  1.3270  0.2626 -0.6033
12044TIP3    H257624   0.148   3.357   0.162 -0.5303 -2.1616 -1.7606
12045TIP3   OH257625   2.655   1.176   2.968 -0.5158  0.8405 -0.1047
12045TIP3    H157626   2.585   1.147   2.910 -0.0349 -0.2719 -0.1704
12045TIP3    H257627   2.615   1.179   3.055 -0.8180  0.8663 -0.2439
12046TIP3   OH257628   3.431   5.804   4.725  0.6173 -0.2067  0.0005
12046TIP3    H157629   3.495   5.841   4.786  0.9472  1.2049 -1.1315
12046TIP3    H257630   3.352   5.857   4.738  1.4650  1.8422 -2.4789
12047TIP3   OH257631   3.037   1.109   3.546  0.0803  0.3295  0.3332
12047TIP3    H157632   3.123   1.104   3.503  0.5420 -3.0344  1.3709
12047TIP3    H257633   2.975   1.083   3.478  0.1863  0.1264  0.3146
12048TIP3   OH257634   5.478   0.300   1.401  0.0395  0.2037 -0.1614
12048TIP3    H157635   5.461   0.207   1.390  1.0955  0.0580 -0.6982
12048TIP3    H257636   5.415   0.328   1.468 -0.9050 -0.6864 -0.6475
12049TIP3   OH257637   1.362   0.524  12.764 -0.8136 -0.5613 -0.0698
12049TIP3    H157638   1.336   0.475  12.842  0.4773  0.0450  0.7567
12049TIP3    H257639   1.449   0.491  12.742 -0.4613  0.4633 -0.2491
12050TIP3   OH257640   2.011   0.349   2.710  0.1136 -0.2366  0.2521
12050TIP3    H157641   2.080   0.310   2.763  0.2816 -1.0304 -0.5177
12050TIP3    H257642   2.057   0.379   2.631 -0.0184  1.5311  0.8251
12051TIP3   OH257643   0.782   1.870   5.701  0.4982  0.2759 -0.0287
12051TIP3    H157644   0.825   1.798   5.656 -0.9305 -0.2433 -0.5955
12051TIP3    H257645   0.848   1.940   5.702  0.9813 -0.1132 -1.8298
12052TIP3   OH257646   4.767   1.460  14.659 -0.0093 -0.1825 -0.4959
12052TIP3    H157647   4.820   1.401  14.606  0.5149  1.5347 -1.9871
12052TIP3    H257648   4.701   1.495  14.599 -1.0001 -0.0565  0.6137
12053TIP3   OH257649   0.007   1.065   3.620 -0.5367  0.1409 -0.2415
12053TIP3    H157650  -0.038   1.148   3.601 -0.2629  0.6023  1.0063
12053TIP3    H257651   0.091   1.092   3.659 -0.7676 -0.7237  0.8821
12054TIP3   OH257652   2.820   1.897  17.046 -0.0019  0.7547 -0.3253
12054TIP3    H157653   2.848   1.955  17.116 -1.1882  0.4690  0.4108
12054TIP3    H257654   2.877   1.820  17.054 -0.3538  0.5753  0.5563
12055TIP3   OH257655   4.660   2.385  14.791 -0.0437 -0.1741  0.1914
12055TIP3    H157656   4.581   2.410  14.839  0.1549  0.3866  0.2379
12055TIP3    H257657   4.710   2.332  14.853 -1.5848 -2.8674 -0.6970
12056TIP3   OH257658   5.108   1.685  11.738 -0.5467  0.3773 -0.7596
12056TIP3    H157659   5.081   1.714  11.826 -3.8052  3.7959 -2.5914
12056TIP3    H257660   5.178   1.746  11.714 -1.1693  0.9062 -1.2781
12057TIP3   OH257661   5.796   1.385   0.913 -0.4904  0.2024  0.3706
12057TIP3    H157662   5.840   1.470   0.917  1.9013 -0.8157 -1.6208
12057TIP3    H257663   5.703   1.407   0.906  0.0254  2.6553  0.1677
12058TIP3   OH257664   4.489   6.219  14.551 -0.2513 -0.0328 -0.6536
12058TIP3    H157665   4.510   6.145  14.493  1.1769 -0.4875  0.3862
12058TIP3    H257666   4.431   6.182  14.617  1.6913 -0.6930  0.7782
12059TIP3   OH257667   4.102   4.349  16.112  0.2755  0.1492 -0.3620
12059TIP3    H157668   4.149   4.363  16.194  0.2169 -0.9891 -0.1246
12059TIP3    H257669   4.112   4.256  16.093 -1.9593 -0.1771 -0.2348
12060TIP3   OH257670   4.583   6.611  16.874  0.6916 -0.2537  0.6434
12060TIP3    H157671   4.623   6.634  16.957 -1.2727  2.8429  0.9092
12060TIP3    H257672   4.590   6.691  16.821  2.6603 -2.3586 -2.5998
12061TIP3   OH257673   1.609   5.207  14.799 -0.0173  0.2751  0.2484
12061TIP3    H157674   1.693   5.226  14.842  1.2583 -1.1922 -1.4134
12061TIP3    H257675   1.627   5.218  14.706 -2.2533  1.8333 -0.0631
12062TIP3   OH257676   2.690   0.409  12.049 -0.5397  0.2239  0.4830
12062TIP3    H157677   2.730   0.488  12.086  1.0669 -0.5586  0.4677
12062TIP3    H257678   2.698   0.419  11.954 -3.5510  1.6479  0.2543
12063TIP3   OH257679   1.567   3.648  10.233  0.5017 -0.0938 -0.2536
12063TIP3    H157680   1.491   3.672  10.286 -0.1298  0.3946 -1.3525
12063TIP3    H257681   1.630   3.613  10.297 -1.3115 -2.2691  0.4939
12064TIP3   OH257682   6.625   1.391  15.299  0.6101  0.2210 -0.3611
12064TIP3    H157683   6.613   1.302  15.265  1.0621  0.2593 -0.6233
12064TIP3    H257684   6.544   1.409  15.348  0.8857 -0.6870  0.4756
12065TIP3   OH257685   0.661   5.565  12.311  0.2020 -0.2047 -0.2067
12065TIP3    H157686   0.630   5.619  12.238  0.0411 -1.2897 -0.9749
12065TIP3    H257687   0.643   5.617  12.389 -1.2090  0.2922 -0.8156
12066TIP3   OH257688   1.020   0.110  13.551  0.6253 -0.0964 -0.5589
12066TIP3    H157689   0.973   0.027  13.561 -0.3672  0.6384  1.5431
12066TIP3    H257690   1.105   0.094  13.592  0.4881 -0.1475 -0.2864
12067TIP3   OH257691   6.420   0.365   1.508  0.1046  0.3479 -0.6528
12067TIP3    H157692   6.394   0.416   1.584  0.0927 -0.3398 -0.1781
12067TIP3    H257693   6.508   0.394   1.487  0.7370 -0.5651  0.6275
12068TIP3   OH257694   1.313   1.023  13.882  0.2014 -0.0049 -0.3585
12068TIP3    H157695   1.253   1.004  13.810  0.3398 -1.2504 -0.1777
12068TIP3    H257696   1.339   1.114  13.869  0.1019 -0.1567 -1.7859
12069TIP3   OH257697   2.088   2.657   5.210 -0.9204 -0.0644  0.0721
12069TIP3    H157698   2.109   2.687   5.298 -0.5572  0.3203 -0.1390
12069TIP3    H257699   2.133   2.719   5.153 -1.7284  0.1057 -0.3894
12070TIP3   OH257700   2.098   3.553  15.978  1.0881 -0.0977 -0.1304
12070TIP3    H157701   2.178   3.545  16.029  0.4023 -0.3581  0.9302
12070TIP3    H257702   2.118   3.621  15.914  2.9464 -1.7753 -1.4652
12071TIP3   OH257703   5.859   5.307  11.498 -0.3882  0.1589 -0.9343
12071TIP3    H157704   5.921   5.307  11.571 -1.3766 -0.0508 -0.0710
12071TIP3    H257705   5.835   5.399  11.488  0.0494  0.2408 -1.2704
12072TIP3   OH257706   5.737   3.787   2.138  0.1392  0.0997  0.0994
12072TIP3    H157707   5.743   3.733   2.217  1.6968 -0.5066 -0.4175
12072TIP3    H257708   5.728   3.725   2.066 -0.7539  0.6345 -0.2738
12073TIP3   OH257709   5.020   3.524  11.425 -0.4425  0.5554 -0.1613
12073TIP3    H157710   5.106   3.517  11.384  0.0091  1.9623  0.5013
12073TIP3    H257711   4.959   3.533  11.352  0.3175  2.8308 -0.5752
12074TIP3   OH257712   6.363   4.092  13.984  0.4474 -0.2459 -0.4638
12074TIP3    H157713   6.283   4.135  13.953  1.5630  0.7416 -2.2098
12074TIP3    H257714   6.366   4.010  13.936  1.2751  0.4803 -1.7300
12075TIP3   OH257715   4.672   6.762  12.489 -0.3506  0.6408 -0.3065
12075TIP3    H157716   4.741   6.824  12.465 -0.9717  1.4212 -0.1140
12075TIP3    H257717   4.592   6.799  12.449 -0.6652 -0.2300 -0.5007
12076TIP3   OH257718   4.517   0.101  10.125 -0.1291 -0.8967 -0.0534
12076TIP3    H157719   4.537   0.117  10.217 -1.1223 -1.5618  0.2960
12076TIP3    H257720   4.602   0.099  10.081  0.2426  1.8570  0.4082
12077TIP3   OH257721   6.255   4.390  12.925  0.3167  0.0307 -0.0316
12077TIP3    H157722   6.340   4.432  12.914  0.5091 -0.5928 -1.1960
12077TIP3    H257723   6.230   4.408  13.015  1.4267  0.6948  0.1623
12078TIP3   OH257724   1.066   4.424   1.103  0.5283  0.7916 -0.3360
12078TIP3    H157725   1.093   4.430   1.011 -0.6709 -1.1158 -0.8802
12078TIP3    H257726   1.009   4.499   1.117 -0.0114  0.6029 -1.4358
12079TIP3   OH257727   6.810   5.075   2.227 -0.2703 -0.3684  0.7467
12079TIP3    H157728   6.725   5.037   2.208 -0.7834  0.4170  1.4291
12079TIP3    H257729   6.840   5.109   2.143 -0.2758 -1.3096  0.3480
12080TIP3   OH257730   3.868   3.982   1.440 -0.1518 -0.6100 -0.1728
12080TIP3    H157731   3.945   4.034   1.463 -1.6511  2.1826 -0.9969
12080TIP3    H257732   3.824   3.965   1.523 -1.0718  1.9847 -0.0350
12081TIP3   OH257733   2.620   4.339   2.249  0.3630  0.2830 -0.2201
12081TIP3    H157734   2.703   4.384   2.235  0.0362  0.9256 -0.1535
12081TIP3    H257735   2.582   4.332   2.162 -0.5371  2.0439 -0.0141
12082TIP3   OH257736   6.704   1.473  13.932 -0.4339  0.0520  0.2863
12082TIP3    H157737   6.722   1.477  13.838 -1.5784 -2.1041 -0.0765
12082TIP3    H257738   6.784   1.509  13.972  1.2932 -1.5685 -1.4491
12083TIP3   OH257739   3.349   5.798   0.026 -0.0182 -0.2810  0.5717
12083TIP3    H157740   3.401   5.787  -0.053  2.4901 -0.5672  2.1436
12083TIP3    H257741   3.307   5.712   0.039  1.0781 -0.8312  0.5590
12084TIP3   OH257742   3.086   5.584   0.180  0.3767 -0.5712 -0.0053
12084TIP3    H157743   3.106   5.605   0.271 -0.4219  3.4360 -0.5542
12084TIP3    H257744   3.167   5.547   0.145  1.9564  1.2371  1.4811
12085TIP3   OH257745   4.035   5.968   1.469  0.2399  0.6223  0.5038
12085TIP3    H157746   3.988   6.023   1.407 -1.6738 -2.6241 -1.1409
12085TIP3    H257747   4.125   6.002   1.469  0.0387  1.4697 -3.2068
12086TIP3   OH257748   2.405   1.598   3.500  0.1263  0.4272 -0.1230
12086TIP3    H157749   2.359   1.660   3.556 -1.2864  0.3290 -1.1187
12086TIP3    H257750   2.476   1.648   3.461  0.4764  0.7666  0.9172
12087TIP3   OH257751   6.562   5.956  12.709  0.1787  0.4019  0.0739
12087TIP3    H157752   6.641   5.956  12.763 -0.1767  0.3905  0.6033
12087TIP3    H257753   6.588   5.913  12.628  1.2773  2.2578 -0.6083
12088TIP3   OH257754   4.400   2.825  14.858 -0.1945 -0.0464 -0.0784
12088TIP3    H157755   4.378   2.820  14.766 -0.9173  1.4369 -0.0183
12088TIP3    H257756   4.495   2.809  14.861 -0.0424  0.5183 -1.1614
12089TIP3   OH257757   5.628   6.166   3.051  0.0259 -0.5517 -0.3869
12089TIP3    H157758   5.701   6.219   3.016 -0.0705 -0.0053  0.2169
12089TIP3    H257759   5.576   6.228   3.101  0.6900 -1.4794  1.5550
12090TIP3   OH257760   5.450   4.087   0.610 -0.1295 -0.2116  0.1593
12090TIP3    H157761   5.452   4.181   0.595  2.6933 -0.3427 -1.0004
12090TIP3    H257762   5.535   4.067   0.650  0.0558 -2.4572 -1.1716
12091TIP3   OH257763   6.199   3.285  16.752  0.1634  0.0076  0.2522
12091TIP3    H157764   6.113   3.282  16.794 -0.1599  0.5119 -0.3518
12091TIP3    H257765   6.248   3.214  16.792 -0.6905 -0.5795  0.2754
12092TIP3   OH257766   5.914   5.809   5.056 -0.6323  0.8919 -0.3069
12092TIP3    H157767   5.914   5.714   5.051 -0.8056  0.9316 -1.3020
12092TIP3    H257768   5.966   5.837   4.980 -3.2000  1.6372 -1.9256
12093TIP3   OH257769   3.601   2.479  14.379  0.0256 -0.0124  0.2496
12093TIP3    H157770   3.610   2.571  14.354  1.3681 -0.0622  0.4458
12093TIP3    H257771   3.596   2.431  14.297  3.6587 -0.1111 -0.1023
12094TIP3   OH257772   3.875   3.416  14.745  0.8213 -0.0473 -0.2786
12094TIP3    H157773   3.960   3.428  14.704  1.8519 -1.1562  1.3871
12094TIP3    H257774   3.865   3.321  14.753 -0.2814  0.0808  0.1381
12095TIP3   OH257775   2.827   5.467   1.349 -0.1418 -0.0075  0.1561
12095TIP3    H157776   2.775   5.403   1.398 -1.0842 -1.1089 -2.1117
12095TIP3    H257777   2.917   5.435   1.356 -0.4932 -1.1477 -0.2384
12096TIP3   OH257778   1.083   6.526   1.642 -0.3003 -0.5010  0.2359
12096TIP3    H157779   1.177   6.519   1.656 -0.4132 -2.4301  0.3326
12096TIP3    H257780   1.075   6.557   1.552  0.3941  1.3906  0.7786
12097TIP3   OH257781   1.276   6.094  15.548 -0.0856 -0.5130  0.2594
12097TIP3    H157782   1.302   6.123  15.461  1.2805  1.0049  1.1157
12097TIP3    H257783   1.321   6.153  15.608 -0.7472 -1.6954  2.0265
12098TIP3   OH257784   6.260   1.763   5.280 -0.0893 -0.0958  0.1965
12098TIP3    H157785   6.275   1.697   5.213  0.5973  0.5561 -0.3203
12098TIP3    H257786   6.197   1.824   5.240 -1.4992 -0.9487  1.0447
12099TIP3   OH257787   1.933   6.555   2.228  0.4324 -0.1190  0.2728
12099TIP3    H157788   1.872   6.560   2.155 -0.5400  0.0352  1.0700
12099TIP3    H257789   1.970   6.643   2.234 -1.4156  0.6390  1.5373
12100TIP3   OH257790   4.597   0.589  13.669 -0.0809  0.4017  0.3122
12100TIP3    H157791   4.643   0.665  13.705  1.1428  0.1239 -0.5772
12100TIP3    H257792   4.547   0.624  13.595 -0.7860  0.5959  0.8755
12101TIP3   OH257793   2.508   1.326   0.121 -0.1006 -0.0435  0.2050
12101TIP3    H157794   2.436   1.302   0.062 -0.2016  1.2982 -0.2287
12101TIP3    H257795   2.498   1.265   0.195 -0.0027 -1.7122 -1.0937
12102TIP3   OH257796   0.096   4.926   5.877  0.1945 -0.1037 -0.0562
12102TIP3    H157797   0.079   4.834   5.856  0.6879 -0.2211  0.0526
12102TIP3    H257798   0.164   4.923   5.945 -1.5582  0.2434  1.8240
12103TIP3   OH257799   5.881   5.965   6.432 -0.2966 -0.2173 -0.3209
12103TIP3    H157800   5.883   6.024   6.357 -1.6012  0.2928  0.0274
12103TIP3    H257801   5.973   5.938   6.443  0.6809  2.9368  0.4188
12104TIP3   OH257802   4.860   1.420   5.931 -0.0535 -0.1021  0.0328
12104TIP3    H157803   4.849   1.464   6.015 -0.1180  0.3039 -0.1869
12104TIP3    H257804   4.815   1.336   5.941 -0.6192  0.2169  0.1842
12105TIP3   OH257805   1.013   2.932   3.847 -0.0014 -0.1503  0.3855
12105TIP3    H157806   1.084   2.926   3.783 -0.0898 -1.3940  0.3799
12105TIP3    H257807   1.049   2.984   3.919  0.3818  0.5309 -0.2796
12106TIP3   OH257808   5.089   3.484   3.019  0.2475 -0.6194  0.6554
12106TIP3    H157809   5.063   3.449   2.934  0.3721  2.0097 -0.5781
12106TIP3    H257810   5.025   3.448   3.080 -1.0752 -1.0183 -0.8832
12107TIP3   OH257811   3.621   2.631   6.506 -0.2874 -0.2372 -0.3327
12107TIP3    H157812   3.534   2.592   6.516 -0.5169 -0.5140 -2.8403
12107TIP3    H257813   3.682   2.561   6.533 -0.7788  0.1746  2.0552
12108TIP3   OH257814   5.749   3.548   0.765 -0.6680 -0.5398  0.2668
12108TIP3    H157815   5.715   3.511   0.683  0.1125  0.0439 -0.3303
12108TIP3    H257816   5.727   3.641   0.759 -0.2015 -0.4150  0.5120
12109TIP3   OH257817   2.557   2.659  12.784  0.1957 -0.0702  0.2727
12109TIP3    H157818   2.530   2.724  12.718 -1.3713  2.3393  3.0682
12109TIP3    H257819   2.479   2.604  12.795  0.1682  0.0571  0.7024
12110TIP3   OH257820   0.910   0.144   0.737  0.3852  0.1960 -0.3721
12110TIP3    H157821   0.837   0.186   0.691  1.1978  0.6747 -1.2459
12110TIP3    H257822   0.879   0.136   0.828 -0.4883  1.0265 -0.5778
12111TIP3   OH257823   1.356   0.117   4.591 -0.0967  0.2648 -0.3211
12111TIP3    H157824   1.334   0.206   4.562  0.1526  0.2719 -0.4860
12111TIP3    H257825   1.448   0.107   4.569 -0.4402 -0.5026 -1.4944
12112TIP3   OH257826   1.808   6.635   1.087  0.0320 -0.5304 -1.0372
12112TIP3    H157827   1.877   6.631   1.021 -0.5729  1.0672 -1.8176
12112TIP3    H257828   1.727   6.628   1.037 -0.4493  1.1160 -0.5293
12113TIP3   OH257829   6.517   3.069   6.316 -0.6777 -0.2790  0.2929
12113TIP3    H157830   6.573   3.070   6.394  1.2908  0.3888 -1.0415
12113TIP3    H257831   6.500   2.977   6.300 -1.0352 -0.4298  1.4563
12114TIP3   OH257832   2.707   2.024   2.050 -0.4149  0.1551  0.2380
12114TIP3    H157833   2.756   2.093   2.006  0.6112 -0.3436  0.5769
12114TIP3    H257834   2.620   2.026   2.009  0.4565 -0.2086 -1.6995
12115TIP3   OH257835   2.630   0.947   1.066 -0.4196 -0.6094  0.3377
12115TIP3    H157836   2.711   0.908   1.099 -0.2200 -0.5111 -0.0389
12115TIP3    H257837   2.645   1.041   1.073  0.4342 -0.5266 -1.9450
12116TIP3   OH257838   6.420   6.309   6.659 -0.2498 -0.2553 -0.3261
12116TIP3    H157839   6.397   6.300   6.751 -0.8780  2.5050 -0.1217
12116TIP3    H257840   6.344   6.276   6.612  0.2841 -2.1734  0.0819
12117TIP3   OH257841   1.996   0.137  13.779 -0.4184  0.2268 -0.0544
12117TIP3    H157842   1.959   0.225  13.784  0.5639  0.6891 -0.7448
12117TIP3    H257843   2.086   0.150  13.749  0.1688 -0.9094  1.1035
12118TIP3   OH257844   5.891   2.535   1.116 -0.1093  0.4064  0.1746
12118TIP3    H157845   5.948   2.507   1.046 -1.2830 -0.1278 -0.5972
12118TIP3    H257846   5.947   2.587   1.174  0.6907  1.6527 -1.6238
12119TIP3   OH257847   2.401   1.289  15.898 -0.1232  0.2470 -0.2685
12119TIP3    H157848   2.330   1.278  15.834  1.3195  1.0720 -2.0928
12119TIP3    H257849   2.463   1.219  15.877 -1.0719 -1.5663  2.4225
12120TIP3   OH257850   1.991   3.055   5.095  0.0162 -0.5655 -0.1355
12120TIP3    H157851   2.043   3.130   5.124 -1.3949  0.9173 -1.2079
12120TIP3    H257852   2.054   2.995   5.056  1.0267  0.9303 -0.9362
12121TIP3   OH257853   1.607   0.073  13.523 -0.2803 -0.3685  0.8354
12121TIP3    H157854   1.576   0.093  13.611 -0.0724 -0.5731  0.9570
12121TIP3    H257855   1.641   0.157  13.491  0.3560 -0.4569  1.2497
12122TIP3   OH257856   1.455   5.286   2.000  0.4711 -0.6079 -0.0314
12122TIP3    H157857   1.450   5.366   1.949  0.0411 -0.8408 -0.3621
12122TIP3    H257858   1.548   5.277   2.022  0.6221 -0.3800 -0.5655
12123TIP3   OH257859   0.304   3.267  12.085  0.3597 -0.1436  0.2340
12123TIP3    H157860   0.348   3.205  12.027  0.0655  0.3484 -0.5352
12123TIP3    H257861   0.228   3.297  12.035  0.0334  0.2070  0.9234
12124TIP3   OH257862   3.066   0.470  16.012  0.1451 -0.3871  0.1046
12124TIP3    H157863   3.042   0.487  15.921  1.1218  0.5831  0.0078
12124TIP3    H257864   2.984   0.448  16.055 -0.3072 -1.0560 -1.0484
12125TIP3   OH257865   0.436   2.336   3.917 -0.1918 -0.2405  0.3545
12125TIP3    H157866   0.477   2.421   3.935  0.9549 -0.4156 -1.2422
12125TIP3    H257867   0.387   2.317   3.997 -0.1685  1.7293  0.9117
12126TIP3   OH257868   6.345   5.040  12.129 -0.5153  0.0001 -0.1051
12126TIP3    H157869   6.317   5.047  12.037  0.9099 -2.4546 -0.8081
12126TIP3    H257870   6.377   4.951  12.138  2.6455  1.1449  1.8507
12127TIP3   OH257871   4.975   4.068  12.320 -0.7695  0.0406  0.3436
12127TIP3    H157872   4.965   4.110  12.235  1.7055 -0.4306 -0.2562
12127TIP3    H257873   4.998   4.140  12.380 -1.0216  0.1696  0.2841
12128TIP3   OH257874   5.899   0.238  12.775 -0.3328  0.1324  0.3578
12128TIP3    H157875   5.815   0.283  12.766  0.2938  1.4317  0.7549
12128TIP3    H257876   5.904   0.212  12.867 -0.4429 -0.2634  0.2554
12129TIP3   OH257877   2.190   2.166  14.979  0.1135 -0.3483 -0.0024
12129TIP3    H157878   2.262   2.104  14.987  0.4887 -0.0780 -1.0721
12129TIP3    H257879   2.232   2.251  14.975 -0.4462  0.1002  2.3889
12130TIP3   OH257880   3.490   4.043   0.088  0.1271 -0.0896  0.2154
12130TIP3    H157881   3.522   4.034  -0.001  1.9118 -1.1975  0.9086
12130TIP3    H257882   3.396   4.022   0.082  0.0650  0.5342 -1.4734
12131TIP3   OH257883   6.521   0.256   0.500  0.0746  0.0790 -0.0711
12131TIP3    H157884   6.604   0.220   0.529 -1.2141 -0.9959  2.6206
12131TIP3    H257885   6.525   0.251   0.404  2.3025 -1.7967  0.0253
12132TIP3   OH257886   1.051   5.458  12.583 -0.1531 -0.3786  0.2495
12132TIP3    H157887   1.067   5.366  12.604 -1.7509 -0.6787  0.2849
12132TIP3    H257888   1.117   5.506  12.633  1.4377 -1.5399 -0.6532
12133TIP3   OH257889   4.354   0.143  13.059  0.0740  0.4595  0.3126
12133TIP3    H157890   4.371   0.217  13.117  1.1039  0.5838 -0.1202
12133TIP3    H257891   4.416   0.155  12.986  0.5102 -1.0057  0.4071
12134TIP3   OH257892   6.671   3.367   3.277 -0.6565  0.0848 -0.1932
12134TIP3    H157893   6.621   3.386   3.356  0.5670  1.3790  0.3268
12134TIP3    H257894   6.631   3.420   3.208  0.1280  1.3718  0.2938
12135TIP3   OH257895   3.091   1.991   1.520  0.7588  0.0400  0.1138
12135TIP3    H157896   3.183   2.005   1.541  0.8766 -0.3409 -0.1499
12135TIP3    H257897   3.068   1.910   1.565  0.2712  0.6636  1.0271
12136TIP3   OH257898   1.961   4.321  11.886 -0.0685 -0.2171 -0.0935
12136TIP3    H157899   1.941   4.228  11.880 -1.3935  0.0404  0.0904
12136TIP3    H257900   1.938   4.345  11.976 -0.9315  0.5365 -0.4988
12137TIP3   OH257901   3.013   1.302  16.587  0.1677 -0.0519 -0.0290
12137TIP3    H157902   3.084   1.253  16.546  0.3146 -1.0017  1.2811
12137TIP3    H257903   3.045   1.393  16.590  1.2623 -0.4386  0.4030
12138TIP3   OH257904   4.235   3.147   6.285 -0.6346  0.8114  0.6014
12138TIP3    H157905   4.259   3.221   6.340 -2.9010  1.0029  1.4367
12138TIP3    H257906   4.179   3.093   6.340  0.0327 -0.9663 -0.3684
12139TIP3   OH257907   3.209   6.522   3.123  0.0355 -0.4323  0.0496
12139TIP3    H157908   3.173   6.458   3.184 -1.8548  0.1858 -0.3549
12139TIP3    H257909   3.222   6.473   3.042  0.5222 -0.7539  0.3154
12140TIP3   OH257910   2.228   6.748  11.785 -0.2367 -0.0201 -0.6757
12140TIP3    H157911   2.257   6.685  11.851 -0.2111 -0.1557 -0.8170
12140TIP3    H257912   2.133   6.735  11.779 -0.7719  2.1267  1.6106
12141TIP3   OH257913   5.684   6.533   1.850 -0.2013  0.2653  0.3867
12141TIP3    H157914   5.602   6.487   1.866  0.2726 -0.4948  0.6671
12141TIP3    H257915   5.752   6.475   1.883  0.4313  1.0716  0.5564
12142TIP3   OH257916   0.900   5.721  12.209 -0.4416 -0.8146  0.2992
12142TIP3    H157917   0.959   5.781  12.163 -0.6814  0.4154  1.5286
12142TIP3    H257918   0.890   5.647  12.149 -0.2276  0.4158 -1.3409
12143TIP3   OH257919   4.004   6.250  11.570  0.0396  0.0343  0.0366
12143TIP3    H157920   4.094   6.240  11.539 -0.3025  1.4118 -1.5305
12143TIP3    H257921   3.951   6.253  11.491 -1.3358 -0.1079  0.9076
12144TIP3   OH257922   0.184   6.836   1.840  0.7084 -0.6284  0.7549
12144TIP3    H157923   0.251   6.900   1.864 -0.5322  0.3490  1.7574
12144TIP3    H257924   0.102   6.885   1.843 -0.2254 -2.1553  1.0571
12145TIP3   OH257925   5.585   5.397   1.419  0.4770  0.0072  0.2858
12145TIP3    H157926   5.622   5.336   1.481 -0.8485 -1.0346  0.1045
12145TIP3    H257927   5.661   5.438   1.377  1.3808 -0.4943  1.3826
12146TIP3   OH257928   5.606   4.684   0.868  0.2931  0.3096  0.0625
12146TIP3    H157929   5.620   4.771   0.831  0.3796 -0.1090 -0.9205
12146TIP3    H257930   5.515   4.686   0.898 -0.1180  0.3282 -1.1440
12147TIP3   OH257931   3.058   3.015  16.804  0.8110 -0.3459  0.5280
12147TIP3    H157932   3.152   2.999  16.794  0.8300 -0.1751  0.4320
12147TIP3    H257933   3.018   2.973  16.727  0.9851  1.2318 -0.4888
12148TIP3   OH257934   4.759   3.560   3.120 -0.0838  0.1785  0.7050
12148TIP3    H157935   4.842   3.607   3.120  0.2557 -0.3617  2.2456
12148TIP3    H257936   4.755   3.517   3.035  2.3652 -1.7112  1.4369
12149TIP3   OH257937   1.143   4.872  10.488 -0.4890  0.0128 -0.5833
12149TIP3    H157938   1.168   4.904  10.401  2.5510  2.3876  0.9523
12149TIP3    H257939   1.172   4.781  10.490  0.8212  0.3793 -1.5903
12150TIP3   OH257940   2.083   2.050   1.752  1.1208  0.1572  0.2524
12150TIP3    H157941   2.034   2.122   1.793  0.4051 -0.1336 -0.0967
12150TIP3    H257942   2.108   1.994   1.825 -3.1249 -2.2566  0.1459
12151TIP3   OH257943   5.212   1.621   1.358 -0.1436 -0.3575  0.1754
12151TIP3    H157944   5.218   1.717   1.359  0.3058 -0.3868  0.5676
12151TIP3    H257945   5.162   1.599   1.436  2.1270 -0.5762  1.6606
12152TIP3   OH257946   3.849   0.848   0.066 -0.2111 -0.1013  0.0544
12152TIP3    H157947   3.811   0.858  -0.021 -2.4431 -2.0872  0.6744
12152TIP3    H257948   3.778   0.871   0.126 -0.1017 -2.6055  1.2867
12153TIP3   OH257949   4.102   5.898   1.133  0.4013  0.1240 -0.0420
12153TIP3    H157950   4.010   5.924   1.142  0.5677  0.5497  0.4688
12153TIP3    H257951   4.112   5.879   1.040 -0.3450 -0.4635 -0.0164
12154TIP3   OH257952   6.034   4.109   5.922  0.1887  0.5693 -0.3446
12154TIP3    H157953   6.071   4.149   6.001 -0.6560  0.9796 -0.1363
12154TIP3    H257954   6.019   4.018   5.947  0.2866  0.6030 -0.1569
12155TIP3   OH257955   3.622   3.516  16.170 -0.7472  0.5679 -0.0159
12155TIP3    H157956   3.573   3.434  16.162  1.2110 -0.7609  0.7627
12155TIP3    H257957   3.683   3.516  16.096  0.1018  0.6816  0.6529
12156TIP3   OH257958   3.918   3.072   1.363 -0.0870  0.1097 -0.0556
12156TIP3    H157959   3.996   3.025   1.393 -0.8997 -2.1509 -1.2204
12156TIP3    H257960   3.851   3.053   1.429 -0.4320 -0.4390 -0.5532
12157TIP3   OH257961   2.750   3.835   3.444  0.0442 -0.1292 -0.1934
12157TIP3    H157962   2.659   3.812   3.460  0.1385 -1.0762 -0.9408
12157TIP3    H257963   2.770   3.901   3.510 -1.1903  0.1239 -0.0440
12158TIP3   OH257964   0.495   0.864   0.371 -0.7048  0.4534  0.8719
12158TIP3    H157965   0.559   0.882   0.303  0.4393 -0.8019  1.5588
12158TIP3    H257966   0.420   0.827   0.324 -0.1670  0.1572  0.2312
12159TIP3   OH257967   0.944   2.229   0.732  0.4484  0.0203  0.0286
12159TIP3    H157968   0.943   2.195   0.821 -0.6622  0.3955  0.1811
12159TIP3    H257969   0.955   2.324   0.743 -0.1531  0.1220 -0.1971
12160TIP3   OH257970   2.450   5.867   3.513 -0.1425  0.6832 -0.9159
12160TIP3    H157971   2.456   5.774   3.490  1.9861  1.1212 -2.4687
12160TIP3    H257972   2.410   5.868   3.600 -0.4163 -1.6602 -0.9584
12161TIP3   OH257973   1.196   4.817   3.424  0.4456  0.0114 -0.1920
12161TIP3    H157974   1.214   4.757   3.351 -2.1922 -1.3189  0.1371
12161TIP3    H257975   1.228   4.772   3.501 -1.0253 -0.8127 -0.0165
12162TIP3   OH257976   5.747   1.274   1.183  0.1835 -0.3433  0.2086
12162TIP3    H157977   5.756   1.304   1.092 -0.0725 -1.2549 -0.1220
12162TIP3    H257978   5.778   1.184   1.182  0.6978 -0.1920  1.1504
12163TIP3   OH257979   0.174   4.272  15.598 -0.2655 -0.1533  0.1195
12163TIP3    H157980   0.161   4.274  15.503  2.4894  0.5195 -0.3308
12163TIP3    H257981   0.168   4.364  15.624  0.2105 -0.2005  0.3913
12164TIP3   OH257982   6.169   0.478   4.794 -0.3097 -0.3324 -0.1847
12164TIP3    H157983   6.194   0.552   4.850  0.0004 -0.0070 -0.7343
12164TIP3    H257984   6.075   0.468   4.808  0.0266 -1.3381  1.6455
12165TIP3   OH257985   1.272   0.339  15.761  0.4276  0.3807  0.2739
12165TIP3    H157986   1.282   0.353  15.855 -2.8114 -0.2064  0.8327
12165TIP3    H257987   1.246   0.247  15.754 -2.2410  1.1172 -0.8069
12166TIP3   OH257988   5.607   1.936  12.574 -0.1182  0.4426  0.5375
12166TIP3    H157989   5.556   1.863  12.537  1.0062 -0.3478  0.5144
12166TIP3    H257990   5.621   1.911  12.665 -0.8488  1.2706  0.8900
12167TIP3   OH257991   4.090   4.109  14.451 -0.0591  0.2931 -0.2088
12167TIP3    H157992   4.160   4.121  14.387  0.9725  0.4445  0.9011
12167TIP3    H257993   4.013   4.150  14.411  0.6089  0.5694 -1.2459
12168TIP3   OH257994   4.029   1.026  10.647 -0.1064  0.0902  0.1650
12168TIP3    H157995   4.115   0.997  10.677 -0.6603 -0.2341  1.5461
12168TIP3    H257996   3.978   0.945  10.640 -0.8058  0.4259  1.1492
12169TIP3   OH257997   4.960   1.774  15.248  0.8440 -0.1778  0.1233
12169TIP3    H157998   4.956   1.702  15.185  0.5368 -0.1946  0.1592
12169TIP3    H257999   4.931   1.851  15.199  0.1469 -0.2774  0.3612
12170TIP3   OH258000   6.114   4.821   1.234  0.5705 -0.0461  0.0955
12170TIP3    H158001   6.143   4.788   1.148  0.1256 -2.2873  0.7374
12170TIP3    H258002   6.195   4.840   1.281  0.8953 -1.2532  0.0482
12171TIP3   OH258003   6.544   1.190   4.035  0.1313 -0.1702  0.1537
12171TIP3    H158004   6.612   1.180   3.968  0.5823 -0.9066  0.7062
12171TIP3    H258005   6.495   1.267   4.007  1.5928  0.7844  0.0738
12172TIP3   OH258006   0.036   4.139   5.004  0.4466  0.4367  0.3013
12172TIP3    H158007   0.069   4.197   5.073  0.9223  0.6914 -0.1323
12172TIP3    H258008  -0.006   4.066   5.051 -0.6314  1.3821  0.8568
12173TIP3   OH258009   3.182   6.138  11.817 -0.2208 -0.3562 -0.1014
12173TIP3    H158010   3.186   6.044  11.835  1.2730 -0.0533  1.3748
12173TIP3    H258011   3.199   6.144  11.723  0.2276 -1.5427 -0.1218
12174TIP3   OH258012   2.900   3.398  15.256  0.1902 -0.0634  0.4200
12174TIP3    H158013   2.889   3.322  15.313 -0.0608 -0.1282  0.2871
12174TIP3    H258014   2.974   3.375  15.200 -0.3770 -0.5551 -0.1589
12175TIP3   OH258015   6.704   2.349  12.022 -0.4408  0.6348 -0.1691
12175TIP3    H158016   6.719   2.363  11.929 -2.0725  0.4546 -0.4891
12175TIP3    H258017   6.632   2.408  12.044 -3.1328 -2.3789 -0.1024
12176TIP3   OH258018   3.502   1.750  14.737 -0.5174  0.6475 -0.2322
12176TIP3    H158019   3.571   1.685  14.728 -1.1501  0.2086 -2.2873
12176TIP3    H258020   3.442   1.733  14.665 -3.2200  0.5480  1.8927
12177TIP3   OH258021   3.115   3.027  15.859  0.7619 -0.6357  0.0799
12177TIP3    H158022   3.191   3.046  15.914 -0.5915  2.1382  1.2084
12177TIP3    H258023   3.151   3.016  15.771  2.4550  1.1197  0.4832
12178TIP3   OH258024   3.159   2.512  11.588  0.3448 -0.3548  0.2669
12178TIP3    H158025   3.132   2.552  11.670 -0.4804 -0.5239  0.0835
12178TIP3    H258026   3.105   2.554  11.521  0.9228 -0.3025 -0.1775
12179TIP3   OH258027   3.210   0.552  12.056  0.0261  0.5418 -0.7869
12179TIP3    H158028   3.127   0.527  12.096  0.6503 -1.2419 -0.5056
12179TIP3    H258029   3.268   0.569  12.130 -0.0017  1.5679 -0.9809
12180TIP3   OH258030   2.580   5.764   5.273 -0.1628 -0.0614  0.1357
12180TIP3    H158031   2.486   5.779   5.261  0.4035  2.9885 -1.3030
12180TIP3    H258032   2.603   5.702   5.203 -0.7434  0.9511 -0.9902
12181TIP3   OH258033   0.225   5.877   1.276 -0.1354 -0.6336 -0.3749
12181TIP3    H158034   0.284   5.810   1.310 -1.1174 -1.0490  0.5736
12181TIP3    H258035   0.283   5.948   1.247  0.8396 -1.2574 -0.0015
12182TIP3   OH258036   2.536   6.024  16.076 -0.0457 -0.1232 -0.0527
12182TIP3    H158037   2.522   6.092  16.009 -0.6524 -0.1571  0.0298
12182TIP3    H258038   2.587   5.956  16.032 -0.6423 -0.2538 -0.5546
12183TIP3   OH258039   4.449   5.324   4.444 -0.2144  0.1253  0.4520
12183TIP3    H158040   4.388   5.257   4.476 -1.4159  1.3298  0.7913
12183TIP3    H258041   4.393   5.385   4.395  0.8332  0.9137  0.2120
12184TIP3   OH258042   0.249   5.960  15.075  0.3988  0.0999 -0.5527
12184TIP3    H158043   0.176   6.022  15.082 -0.6050 -1.1904  0.8075
12184TIP3    H258044   0.325   6.015  15.055 -1.0659  1.3910 -3.1521
12185TIP3   OH258045   2.109   6.466   4.633  0.2079 -0.1891  0.2633
12185TIP3    H158046   2.131   6.402   4.701 -0.8844 -0.3841  0.4494
12185TIP3    H258047   2.066   6.415   4.565  2.8474 -0.3156 -1.4445
12186TIP3   OH258048   6.668   2.312  16.143  0.6188 -0.4463 -0.3200
12186TIP3    H158049   6.685   2.341  16.054 -0.0530 -0.3536 -0.4228
12186TIP3    H258050   6.574   2.324  16.155  0.1376 -3.2517 -0.6083
12187TIP3   OH258051   5.348   3.770   0.553  0.5976 -0.5852  0.0757
12187TIP3    H158052   5.297   3.694   0.526  0.6963 -0.4364 -0.5568
12187TIP3    H258053   5.284   3.842   0.553  0.6222 -0.5634  0.1425
12188TIP3   OH258054   4.791   6.254  10.237 -0.0521  0.2216 -0.2956
12188TIP3    H158055   4.706   6.271  10.278  0.9742 -0.0249  2.0695
12188TIP3    H258056   4.841   6.335  10.252  0.1588  0.3839 -1.7113
12189TIP3   OH258057   6.732   6.479   2.152  0.1834  0.2900 -0.5503
12189TIP3    H158058   6.671   6.495   2.225 -0.8701  2.7619 -1.8325
12189TIP3    H258059   6.818   6.502   2.187  0.1486 -1.3714  0.7253
12190TIP3   OH258060   3.914   0.525   1.868  0.0487  0.2780  0.5767
12190TIP3    H158061   3.961   0.514   1.950  1.0954 -1.2540 -0.1794
12190TIP3    H258062   3.825   0.494   1.886 -0.6353  2.7165  1.8796
12191TIP3   OH258063   4.150   4.261  16.551  0.3997  0.7419  0.5210
12191TIP3    H158064   4.203   4.257  16.471 -2.2982 -0.8870 -1.3569
12191TIP3    H258065   4.060   4.263  16.520 -0.7594  1.7875  3.5677
12192TIP3   OH258066   3.828   1.433  13.471 -0.2800  0.1408  0.4852
12192TIP3    H158067   3.884   1.481  13.532 -0.7512 -0.9011  1.7772
12192TIP3    H258068   3.872   1.349  13.459 -1.0543 -0.3180  0.7585
12193TIP3   OH258069   2.824   0.753  16.678 -0.4498 -0.3023  0.2653
12193TIP3    H158070   2.815   0.791  16.591  2.3653 -0.0952 -0.0163
12193TIP3    H258071   2.797   0.823  16.737 -0.1169  0.3941 -0.3942
12194TIP3   OH258072   0.658   1.987  11.904 -0.4203 -0.7055 -0.2283
12194TIP3    H158073   0.631   2.074  11.932 -0.5145 -0.6280 -0.5586
12194TIP3    H258074   0.735   1.968  11.958 -0.4310 -0.4422 -0.1172
12195TIP3   OH258075   0.555   1.090  13.397  0.5648  0.1141 -1.0716
12195TIP3    H158076   0.623   1.026  13.417 -0.1057 -0.7656 -1.5414
12195TIP3    H258077   0.474   1.039  13.392 -0.7651  1.4804  2.5625
12196TIP3   OH258078   2.470   3.951   3.637  0.2526 -0.5019  0.6737
12196TIP3    H158079   2.381   3.984   3.626  0.8821  1.2535  0.5869
12196TIP3    H258080   2.485   3.953   3.731  0.6189  0.3936  0.6019
12197TIP3   OH258081   2.897   0.426   2.014 -0.1209 -0.6039 -0.5111
12197TIP3    H158082   2.901   0.415   1.919  3.3489 -0.9629 -0.4520
12197TIP3    H258083   2.909   0.520   2.028 -0.7037 -0.5412 -0.4084
12198TIP3   OH258084   6.348   4.214   4.975 -0.5431  0.2380  0.2431
12198TIP3    H158085   6.366   4.125   5.006  0.1461  0.0422 -0.6916
12198TIP3    H258086   6.396   4.271   5.034 -1.1873  0.0123  1.0002
12199TIP3   OH258087   4.296   3.363  12.631  0.0984 -0.1283 -0.1877
12199TIP3    H158088   4.361   3.433  12.635  0.3827 -0.3215 -1.2527
12199TIP3    H258089   4.332   3.294  12.686  0.8442 -0.2714 -0.8390
12200TIP3   OH258090   6.111   3.659  12.647 -1.0878  0.0747  0.1031
12200TIP3    H158091   6.092   3.752  12.632  0.3342  0.4297  0.2904
12200TIP3    H258092   6.201   3.648  12.614 -0.4326 -0.7128  2.0284
12201TIP3   OH258093   1.782   4.191   5.577 -0.3034  0.0337 -0.3487
12201TIP3    H158094   1.820   4.147   5.652 -0.4841  1.8443  0.8687
12201TIP3    H258095   1.717   4.251   5.614 -0.1688  1.2223 -1.8971
12202TIP3   OH258096   3.037   3.536  11.137  0.3501  0.5679 -0.7692
12202TIP3    H158097   3.054   3.444  11.113 -0.3438  0.0448  0.6327
12202TIP3    H258098   3.106   3.557  11.200  0.6020  1.0842 -1.2062
12203TIP3   OH258099   1.812   3.200  15.340 -0.5649 -0.2461 -0.2529
12203TIP3    H158100   1.784   3.221  15.429 -1.1711 -0.0574 -0.4821
12203TIP3    H258101   1.756   3.254  15.284  2.2242  2.4653 -0.6928
12204TIP3   OH258102   1.415   1.452   4.398  0.4790  0.1114  0.4822
12204TIP3    H158103   1.380   1.444   4.309 -1.0728 -1.7657  1.2004
12204TIP3    H258104   1.360   1.395   4.451  3.5358 -1.6455  2.0466
12205TIP3   OH258105   6.686   3.255   0.123 -0.2708 -0.3767 -0.4065
12205TIP3    H158106   6.734   3.173   0.129 -1.2283 -1.3727 -3.9709
12205TIP3    H258107   6.752   3.323   0.136  1.1096 -1.6827 -0.3320
12206TIP3   OH258108   4.159   3.350  16.076  0.4182  0.4521  0.0130
12206TIP3    H158109   4.143   3.272  16.128  2.0142  0.6464  0.8721
12206TIP3    H258110   4.134   3.423  16.133  0.8154  0.6201 -0.0184
12207TIP3   OH258111   3.168   3.402   2.401  0.2245  0.1991  0.4186
12207TIP3    H158112   3.191   3.361   2.485  0.0146 -0.6775  0.0624
12207TIP3    H258113   3.077   3.374   2.386  0.4646 -0.1639 -0.3927
12208TIP3   OH258114   1.350   1.587  11.922  0.1721 -0.3551 -0.5273
12208TIP3    H158115   1.309   1.545  11.997 -0.1787  0.4089 -0.2896
12208TIP3    H258116   1.439   1.607  11.951 -0.5862  1.8720  0.4534
12209TIP3   OH258117   0.685   3.092   2.058 -0.8269  0.2911 -0.4043
12209TIP3    H158118   0.716   3.171   2.014  0.0043 -0.2948 -0.8900
12209TIP3    H258119   0.591   3.089   2.039 -0.3489 -0.4209 -2.9491
12210TIP3   OH258120   1.464   4.526  13.548  0.2164  0.2567  0.0274
12210TIP3    H158121   1.469   4.612  13.589 -0.9360 -0.0828  0.9625
12210TIP3    H258122   1.445   4.544  13.456 -0.3738  1.0115  0.2808
12211TIP3   OH258123   1.072   4.309   2.773 -0.3881 -0.3089  0.0937
12211TIP3    H158124   1.099   4.388   2.821 -1.5224 -0.6312  1.2983
12211TIP3    H258125   1.076   4.336   2.681 -0.8644  1.2077  0.4766
12212TIP3   OH258126   4.383   0.656  12.388 -0.0399  0.1864  0.3774
12212TIP3    H158127   4.333   0.576  12.400  1.5954 -1.2308 -1.4406
12212TIP3    H258128   4.405   0.685  12.476  1.1505 -2.6301  1.1043
12213TIP3   OH258129   0.032   3.469  12.807 -0.6650  0.0255 -0.1583
12213TIP3    H158130   0.045   3.521  12.886  2.0752  0.1134 -0.5693
12213TIP3    H258131   0.001   3.533  12.742  1.9747  1.1028 -0.4639
12214TIP3   OH258132   6.385   3.789   0.630 -0.6616  0.5355  0.4441
12214TIP3    H158133   6.392   3.694   0.618  3.2348  0.5375  1.4288
12214TIP3    H258134   6.362   3.800   0.722  1.1590  0.4715  0.9410
12215TIP3   OH258135   4.463   1.771  13.074 -0.3752  0.4690  0.0380
12215TIP3    H158136   4.510   1.707  13.127  1.3036  1.1000 -0.6124
12215TIP3    H258137   4.469   1.853  13.124  0.0991  0.7767 -0.5156
12216TIP3   OH258138   3.271   5.355  13.886 -0.1067 -0.2408  0.6008
12216TIP3    H158139   3.281   5.349  13.981  2.2804 -0.6218  0.3883
12216TIP3    H258140   3.235   5.442  13.871 -1.4150 -0.5363  1.8877
12217TIP3   OH258141   1.094   3.444   1.961 -0.3142  0.2627 -0.3486
12217TIP3    H158142   1.061   3.498   1.889 -2.5062 -1.0543 -0.4258
12217TIP3    H258143   1.030   3.373   1.969  1.8180 -1.7110  0.4842
12218TIP3   OH258144   5.186   2.585  10.792 -0.6451  0.4071  0.9080
12218TIP3    H158145   5.157   2.495  10.772 -1.7950  1.2544 -1.6831
12218TIP3    H258146   5.274   2.591  10.754  0.2198 -0.0788  2.6832
12219TIP3   OH258147   0.956   3.366  14.085  0.2397  0.2104 -0.4507
12219TIP3    H158148   0.956   3.273  14.063  0.1158  0.3402 -0.9917
12219TIP3    H258149   1.015   3.406  14.022  1.1152  0.3513  0.4407
12220TIP3   OH258150   4.748   1.114   3.264  0.4040  0.4715  0.5083
12220TIP3    H158151   4.715   1.094   3.351  0.6461  0.7442  0.6678
12220TIP3    H258152   4.813   1.182   3.278  0.6069  0.3622  0.1380
12221TIP3   OH258153   0.234   2.397   2.215  0.5049  0.3516  0.0624
12221TIP3    H158154   0.284   2.448   2.151  0.2996 -0.3950 -0.7162
12221TIP3    H258155   0.286   2.400   2.295  0.9144  1.0601 -0.2270
12222TIP3   OH258156   6.087   1.351  13.257 -0.0388 -0.2274  0.1011
12222TIP3    H158157   6.136   1.407  13.196  1.0585  0.7948  1.8302
12222TIP3    H258158   5.998   1.351  13.223 -0.2394  3.0710  0.2397
12223TIP3   OH258159   4.433   4.153  13.279  0.0458 -0.3141 -0.0552
12223TIP3    H158160   4.341   4.180  13.288  0.5863  1.2839  1.0225
12223TIP3    H258161   4.460   4.129  13.367  0.3010 -2.1921 -0.5979
12224TIP3   OH258162   3.495   6.181   2.056 -0.4262 -0.2157 -0.0345
12224TIP3    H158163   3.445   6.146   2.129 -0.1929  0.4583  0.4523
12224TIP3    H258164   3.476   6.274   2.055  0.6518  0.0208  0.0321
12225TIP3   OH258165   5.227   4.901  13.545  0.6281  0.1285 -0.2597
12225TIP3    H158166   5.226   4.990  13.509 -1.3059 -0.0468 -0.7324
12225TIP3    H258167   5.224   4.915  13.640  1.5031  0.5517 -0.2789
12226TIP3   OH258168   3.678   4.250   1.525 -0.2711  0.4335 -0.1237
12226TIP3    H158169   3.738   4.201   1.581  0.5252  0.5183 -0.8940
12226TIP3    H258170   3.659   4.330   1.574  2.1628  1.5559 -0.8847
12227TIP3   OH258171   1.031   2.221   0.089 -0.0242  0.2260  0.6126
12227TIP3    H158172   1.019   2.184   0.176  2.7774 -0.0497  0.9561
12227TIP3    H258173   1.021   2.316   0.102  1.1846  0.2617  1.4339
12228TIP3   OH258174   5.289   2.309   4.277  0.4217 -0.0839  0.2197
12228TIP3    H158175   5.244   2.389   4.250  1.1553  1.1082  2.2583
12228TIP3    H258176   5.247   2.285   4.360  0.6148 -1.4882 -0.0656
12229TIP3   OH258177   5.011   1.767  14.583  0.4084 -0.0353 -0.7022
12229TIP3    H158178   4.945   1.746  14.517 -0.4839  0.5691 -0.0321
12229TIP3    H258179   5.042   1.854  14.560  0.0699  0.1908 -0.3030
12230TIP3   OH258180   3.885   2.209   4.362  0.4689 -0.1319 -0.3064
12230TIP3    H158181   3.850   2.149   4.295 -0.0399  1.4372 -1.5283
12230TIP3    H258182   3.976   2.183   4.372 -0.3301 -2.7276  1.1051
12231TIP3   OH258183   5.280   5.501  16.733  0.2498 -0.0726 -0.4537
12231TIP3    H158184   5.201   5.453  16.708 -0.4781  0.1400  1.2751
12231TIP3    H258185   5.249   5.590  16.751  0.7616 -0.1037  0.7187
12232TIP3   OH258186   3.511   2.544  12.534  0.0917 -0.8430  0.1889
12232TIP3    H158187   3.491   2.481  12.604  0.9146  0.5950  1.8139
12232TIP3    H258188   3.606   2.550  12.534  0.0730 -0.4914 -0.7591
12233TIP3   OH258189   6.534   5.164   3.565 -0.0370  0.0775 -0.3760
12233TIP3    H158190   6.555   5.257   3.571 -0.2419  0.1365 -0.5641
12233TIP3    H258191   6.615   5.119   3.590  0.1848  0.3063 -0.6700
12234TIP3   OH258192   6.145   5.540  13.800  0.9229  0.7933 -0.1708
12234TIP3    H158193   6.132   5.477  13.730  1.7079 -1.7759  1.8361
12234TIP3    H258194   6.240   5.557  13.800  1.1679 -0.4175  1.1548
12235TIP3   OH258195   0.543   5.221  13.163  0.0727  0.4237  0.1128
12235TIP3    H158196   0.542   5.127  13.182 -1.1253  0.1336 -1.1837
12235TIP3    H258197   0.475   5.258  13.219 -0.5058  0.2544 -0.4625
12236TIP3   OH258198   4.338   0.586  13.538 -0.4307 -0.3626  0.4102
12236TIP3    H158199   4.306   0.676  13.548 -0.6879 -0.4582  0.4410
12236TIP3    H258200   4.315   0.561  13.449 -0.3130 -0.3797  0.3843
12237TIP3   OH258201   2.875   3.248   1.624  0.4039  0.0575  0.1665
12237TIP3    H158202   2.915   3.232   1.539 -0.2121 -0.3010 -0.0629
12237TIP3    H258203   2.811   3.177   1.635 -0.3776  0.7757  0.3838
12238TIP3   OH258204   4.582   5.851  15.969  0.0889  0.1747  0.6584
12238TIP3    H158205   4.628   5.919  15.919 -0.4169 -0.1500 -0.2695
12238TIP3    H258206   4.496   5.847  15.928 -0.4151  0.0588  1.7213
12239TIP3   OH258207   1.456   6.125  12.560 -0.7162 -0.0187 -0.3056
12239TIP3    H158208   1.442   6.217  12.585  0.3189  0.7206 -2.2186
12239TIP3    H258209   1.456   6.126  12.464 -1.3363 -2.1528 -0.3825
12240TIP3   OH258210   5.507   4.938   2.960 -0.2849 -0.1224 -0.3775
12240TIP3    H158211   5.466   4.915   3.044  0.0216  0.0496 -0.1774
12240TIP3    H258212   5.461   4.884   2.896  0.1349 -0.9753  0.0282
12241TIP3   OH258213   0.250   1.150   3.758  0.3257  0.0688 -0.7087
12241TIP3    H158214   0.235   1.121   3.847 -1.7854  0.9692 -0.6973
12241TIP3    H258215   0.294   1.077   3.715 -1.1537 -1.5121  0.3425
12242TIP3   OH258216   4.822   0.775  11.206  0.0118  0.5184 -0.7492
12242TIP3    H158217   4.859   0.817  11.284  0.8057 -0.0555 -0.8032
12242TIP3    H258218   4.730   0.800  11.206  0.3920  1.9717 -0.5969
12243TIP3   OH258219   4.400   5.348  15.895 -0.7666  0.2345  0.1961
12243TIP3    H158220   4.346   5.285  15.849  2.9777 -3.4956  0.2766
12243TIP3    H258221   4.404   5.316  15.985  1.6735  0.1061  0.1232
12244TIP3   OH258222   5.305   4.087  11.789  0.4504  0.4721 -0.2015
12244TIP3    H158223   5.284   4.158  11.850 -0.2805  0.7145 -0.7327
12244TIP3    H258224   5.399   4.072  11.802  0.2608  0.3349  1.1750
12245TIP3   OH258225   5.029   6.011   3.796 -0.1961  0.1667 -0.0415
12245TIP3    H158226   4.944   6.014   3.752  0.6783 -1.0775 -1.9572
12245TIP3    H258227   5.050   6.103   3.814 -0.9420  0.6882 -1.6305
12246TIP3   OH258228   4.286   2.186   5.505  0.5159  0.1433 -0.7935
12246TIP3    H158229   4.380   2.206   5.499  0.6654 -0.3752 -0.3486
12246TIP3    H258230   4.243   2.271   5.512  1.0841  0.3484  0.5415
12247TIP3   OH258231   2.344   6.592  15.836  0.3928 -0.2468 -0.0965
12247TIP3    H158232   2.272   6.653  15.826  0.5082  0.2325  1.6147
12247TIP3    H258233   2.309   6.507  15.808 -1.0552 -0.1353  1.2440
12248TIP3   OH258234   6.306   0.871   1.870  0.4670  0.1898  0.4315
12248TIP3    H158235   6.263   0.786   1.870  0.8531 -0.0481  2.1646
12248TIP3    H258236   6.257   0.924   1.807 -1.5878 -0.4478  1.4272
12249TIP3   OH258237   6.040   5.568   0.807  0.0154 -0.5754  0.0167
12249TIP3    H158238   6.061   5.490   0.858  1.7205  0.4518  0.9680
12249TIP3    H258239   6.007   5.534   0.724 -0.4259 -2.2887  0.8472
12250TIP3   OH258240   2.357   1.241   5.022 -0.0867  0.1597 -0.1233
12250TIP3    H158241   2.305   1.296   4.964  1.5045  1.0385 -0.7882
12250TIP3    H258242   2.385   1.298   5.093 -0.7744 -0.5373  0.7332
12251TIP3   OH258243   3.681   3.315   0.318  0.1703  0.1394 -0.3408
12251TIP3    H158244   3.646   3.240   0.271 -1.7103  0.9049 -0.2334
12251TIP3    H258245   3.731   3.276   0.391 -0.0480 -0.9962 -0.7767
12252TIP3   OH258246   3.643   5.648  15.368 -0.0538 -0.1340 -0.0590
12252TIP3    H158247   3.736   5.633  15.386 -0.2349 -2.1109 -0.4728
12252TIP3    H258248   3.610   5.561  15.343 -1.2523  1.0957 -3.2591
12253TIP3   OH258249   2.951   1.235  15.389 -0.8948  0.0396  0.1574
12253TIP3    H158250   2.877   1.180  15.416 -1.5392  1.5518  1.6499
12253TIP3    H258251   2.922   1.324  15.407  0.5790  0.8151 -1.0735
12254TIP3   OH258252   4.873   0.374  13.910  0.3729 -0.2720  0.2924
12254TIP3    H158253   4.941   0.307  13.899 -0.1892 -0.5635 -1.8372
12254TIP3    H258254   4.902   0.425  13.986  2.3692 -1.0915  0.1475
12255TIP3   OH258255   4.043   4.754   3.184  0.4180  0.0029  0.2133
12255TIP3    H158256   3.999   4.820   3.238  1.1799  0.5773  0.1463
12255TIP3    H258257   4.136   4.764   3.205  0.4873 -1.5633  0.7707
12256TIP3   OH258258   4.018   0.587  12.828  0.0327 -0.1465 -0.3566
12256TIP3    H158259   3.999   0.520  12.762 -1.7402  0.7721 -0.8521
12256TIP3    H258260   3.990   0.547  12.911  1.4237 -0.9646 -0.2583
12257TIP3   OH258261   6.462   2.524  13.979  0.6122 -0.2731 -0.3280
12257TIP3    H158262   6.429   2.555  13.895  0.6086  1.1081  0.1543
12257TIP3    H258263   6.467   2.603  14.034  1.0533 -1.0638  0.8212
12258TIP3   OH258264   0.287   0.719   0.201  0.2845  0.4585  0.0794
12258TIP3    H158265   0.273   0.647   0.140  1.1720  0.4495 -0.1269
12258TIP3    H258266   0.312   0.793   0.146 -0.0996  0.7784  0.3318
12259TIP3   OH258267   4.417   5.879   4.953  0.4985  0.3583  0.2695
12259TIP3    H158268   4.449   5.823   4.882 -0.9860 -0.7530  0.4184
12259TIP3    H258269   4.491   5.889   5.012  1.2271 -0.2189 -0.5325
12260TIP3   OH258270   2.646   0.247   3.236  0.5305 -0.1975 -0.4502
12260TIP3    H158271   2.683   0.260   3.324  0.4304 -1.0844 -0.2638
12260TIP3    H258272   2.559   0.209   3.252  0.6940 -0.7978 -0.9330
12261TIP3   OH258273   1.666   4.908  10.773  0.0799  0.5391 -0.0423
12261TIP3    H158274   1.707   4.941  10.693 -0.7828  1.1538 -0.2419
12261TIP3    H258275   1.620   4.829  10.745  0.0403  0.5779 -0.0865
12262TIP3   OH258276   0.707   2.113   2.002 -0.1168 -0.6759 -0.0218
12262TIP3    H158277   0.666   2.033   2.035 -2.7553  0.1653 -1.0106
12262TIP3    H258278   0.659   2.184   2.045  0.9101  0.4101 -0.6016
12263TIP3   OH258279   0.018   6.561  13.809  0.4625  0.1241  1.2903
12263TIP3    H158280  -0.057   6.593  13.858  1.6222 -0.1207  3.3276
12263TIP3    H258281  -0.005   6.471  13.786 -0.7734  0.7626 -0.1521
12264TIP3   OH258282   5.902   5.682  12.709  0.4877  0.3683 -0.7421
12264TIP3    H158283   5.979   5.645  12.667  0.2469  0.3249 -1.1509
12264TIP3    H258284   5.935   5.722  12.790  1.0954  1.2176 -1.3852
12265TIP3   OH258285   6.621   4.877   4.521  0.0847 -0.2492 -0.1531
12265TIP3    H158286   6.656   4.928   4.594  1.8020 -0.8489 -0.5040
12265TIP3    H258287   6.528   4.897   4.520  0.3249  1.0980  1.1226
12266TIP3   OH258288   6.121   2.342   3.638  0.0443 -0.1475  0.1578
12266TIP3    H158289   6.167   2.258   3.646  0.7156  0.1839 -0.1172
12266TIP3    H258290   6.175   2.403   3.688  1.4189  0.8237 -2.2893
12267TIP3   OH258291   1.325   6.346   2.344 -0.3737 -0.1029  0.1808
12267TIP3    H158292   1.352   6.328   2.434 -1.5871 -0.8455  0.4236
12267TIP3    H258293   1.404   6.376   2.300  0.5270 -0.9780  1.1637
12268TIP3   OH258294   1.104   3.164  11.874 -0.4207  0.0089  0.2634
12268TIP3    H158295   1.137   3.218  11.803  0.0856 -0.6264  0.0048
12268TIP3    H258296   1.145   3.200  11.953 -0.0152 -0.0620  0.0824
12269TIP3   OH258297   0.719   3.616   1.259 -0.1190 -0.0210 -0.4066
12269TIP3    H158298   0.675   3.532   1.266  2.4876 -1.3641  2.0254
12269TIP3    H258299   0.782   3.604   1.188 -0.6046  0.3667 -0.9150
12270TIP3   OH258300   1.259   3.996  14.526 -0.2790  0.0522  0.5829
12270TIP3    H158301   1.195   3.961  14.465  2.1212 -2.5709 -0.6722
12270TIP3    H258302   1.253   3.940  14.603 -2.4401  2.5891  2.4464
12271TIP3   OH258303   3.104   0.560  14.103 -0.2937 -0.4704 -0.4465
12271TIP3    H158304   3.032   0.507  14.136 -1.8325  1.3583 -0.6748
12271TIP3    H258305   3.077   0.585  14.015  1.4538 -1.1766 -1.2188
12272TIP3   OH258306   4.412   1.510   3.701  0.8117 -0.1755  0.6096
12272TIP3    H158307   4.415   1.598   3.738 -0.1643  0.6718 -1.2018
12272TIP3    H258308   4.319   1.487   3.699  0.8367 -0.2536 -1.0660
12273TIP3   OH258309   5.583   1.713   1.698 -0.1814 -0.6004 -0.5924
12273TIP3    H158310   5.597   1.622   1.671  0.4437 -1.1610  1.4284
12273TIP3    H258311   5.661   1.759   1.666  0.8506 -1.3720  0.6921
12274TIP3   OH258312   5.910   0.942  13.264 -0.2619 -0.1019 -0.8549
12274TIP3    H158313   5.949   0.871  13.316 -2.5002 -0.8758 -0.0872
12274TIP3    H258314   5.815   0.927  13.271 -0.7916  2.5062 -1.3688
12275TIP3   OH258315   3.558   5.105   1.083 -0.0898 -0.2792  0.2087
12275TIP3    H158316   3.583   5.088   1.174 -0.9172 -0.2813  0.4433
12275TIP3    H258317   3.482   5.162   1.089  1.3692  1.8792 -0.5354
12276TIP3   OH258318   3.405   0.812  12.457  0.6877  0.1656  0.4833
12276TIP3    H158319   3.383   0.830  12.366  0.7241  0.1672  0.4752
12276TIP3    H258320   3.402   0.716  12.464 -3.3617  0.1544  1.4270
12277TIP3   OH258321   1.069   1.094  12.800 -0.5227 -0.5443 -0.0302
12277TIP3    H158322   1.028   1.038  12.734  0.5819  0.8800 -2.0239
12277TIP3    H258323   1.007   1.167  12.811 -0.2665 -0.3002 -0.2076
12278TIP3   OH258324   0.282   3.744  12.326 -0.4859  0.2519  0.3004
12278TIP3    H158325   0.189   3.721  12.332 -1.0707  2.3960  0.2509
12278TIP3    H258326   0.283   3.840  12.330  1.6952  0.2895 -0.1785
12279TIP3   OH258327   5.869   6.376   1.933 -0.1380 -0.0067  0.2223
12279TIP3    H158328   5.954   6.408   1.963 -0.6521  1.4591  0.1659
12279TIP3    H258329   5.890   6.312   1.865  0.9010  2.1068 -1.5436
12280TIP3   OH258330   5.685   0.923   2.450 -0.0051  0.4055  1.1150
12280TIP3    H158331   5.655   0.954   2.365 -0.9474 -0.5996  1.0488
12280TIP3    H258332   5.744   0.991   2.482  0.2199  0.8727 -0.2577
12281TIP3   OH258333   2.301   0.419  13.809  0.4148 -0.1012  0.5371
12281TIP3    H158334   2.317   0.511  13.831 -0.3704 -0.1875  1.5680
12281TIP3    H258335   2.230   0.393  13.868  0.9597 -1.5098  0.6079
12282TIP3   OH258336   4.572   4.347  16.344 -0.0227 -0.2148 -0.7008
12282TIP3    H158337   4.633   4.275  16.363  0.0190 -0.2492 -0.9604
12282TIP3    H258338   4.628   4.416  16.309  0.1626  0.5201  0.9655
12283TIP3   OH258339   2.094   0.754  14.039 -0.1461 -0.3755 -0.1231
12283TIP3    H158340   2.065   0.845  14.037 -0.9974 -0.6292 -2.5192
12283TIP3    H258341   2.020   0.705  14.074 -0.7373 -0.4153 -1.3674
12284TIP3   OH258342   6.411   6.260  12.841 -0.6279  0.5304 -0.2601
12284TIP3    H158343   6.319   6.281  12.824 -1.3542 -0.4103  2.1155
12284TIP3    H258344   6.442   6.330  12.898  0.5308  1.4758 -1.9672
12285TIP3   OH258345   2.983   2.058   0.103  0.4547  0.2225  0.2451
12285TIP3    H158346   2.973   2.002   0.180  0.3010  0.1831  0.1954
12285TIP3    H258347   2.934   2.138   0.124 -0.3141 -0.1331 -0.1604
12286TIP3   OH258348   4.210   0.902   2.160 -0.0510 -0.2818  0.4481
12286TIP3    H158349   4.230   0.859   2.076 -0.6231 -2.7804  1.4941
12286TIP3    H258350   4.128   0.860   2.189 -0.4627  1.3283  1.7535
12287TIP3   OH258351   5.254   5.226  15.599 -0.2778  0.1295 -0.0510
12287TIP3    H158352   5.169   5.250  15.561 -1.0024 -0.4077  1.1772
12287TIP3    H258353   5.266   5.289  15.670  0.9840  1.0195 -1.0145
12288TIP3   OH258354   5.989   3.283  11.137 -0.0245 -0.1359 -0.1221
12288TIP3    H158355   6.022   3.373  11.135 -0.3387 -0.0218 -1.5842
12288TIP3    H258356   6.056   3.231  11.094 -0.0858 -0.5182  0.2352
12289TIP3   OH258357   1.697   5.717  12.898 -0.2656 -0.0228 -0.4823
12289TIP3    H158358   1.703   5.771  12.977  0.1272 -2.5256  1.3133
12289TIP3    H258359   1.611   5.676  12.902 -0.0386 -0.5875 -1.0654
12290TIP3   OH258360   5.709   4.911   1.104 -0.5678 -0.0337  0.1274
12290TIP3    H158361   5.763   4.837   1.076  0.1973 -0.0590  1.5706
12290TIP3    H258362   5.620   4.875   1.111 -0.1870 -0.8681  0.9079
12291TIP3   OH258363   2.049   1.946   5.052  0.0554 -0.0547 -0.6656
12291TIP3    H158364   2.069   1.881   4.985  1.1749 -0.2302 -0.1731
12291TIP3    H258365   2.132   1.991   5.068 -0.1127 -0.2187  0.8094
12292TIP3   OH258366   2.996   2.605   5.343  0.0658  0.1614  0.3799
12292TIP3    H158367   2.983   2.677   5.406  1.2619  0.4997  0.2513
12292TIP3    H258368   2.959   2.639   5.261 -0.2059  0.2635  0.5405
12293TIP3   OH258369   5.299   2.330  11.836  0.2434  0.1911 -0.2592
12293TIP3    H158370   5.287   2.378  11.754 -0.9353  1.1812  0.4559
12293TIP3    H258371   5.381   2.282  11.824  0.4629  0.8763 -1.7384
12294TIP3   OH258372   3.417   2.849  15.727 -0.2745  0.0770 -0.5478
12294TIP3    H158373   3.341   2.851  15.670 -0.8273 -0.0865  0.1689
12294TIP3    H258374   3.386   2.807  15.808 -0.2057  2.5149  0.8433
12295TIP3   OH258375   6.518   0.484  14.407 -0.5985  0.1189  0.0638
12295TIP3    H158376   6.545   0.521  14.492 -0.3705  1.2325 -0.4734
12295TIP3    H258377   6.586   0.419  14.387  0.0205  0.7095  0.1820
12296TIP3   OH258378   6.301   4.458  13.841 -0.2500  0.4066  0.3861
12296TIP3    H158379   6.380   4.426  13.796  0.6337  0.9847  1.4742
12296TIP3    H258380   6.305   4.418  13.927 -1.5010 -0.0432  0.2577
12297TIP3   OH258381   6.347   6.146  12.420 -0.2457  0.0778  0.8446
12297TIP3    H158382   6.404   6.163  12.345 -0.9233 -0.3647  0.2116
12297TIP3    H258383   6.396   6.179  12.496  0.3965  0.6519  0.1986
12298TIP3   OH258384   2.965   5.840  12.677 -0.3568 -0.1612  0.0647
12298TIP3    H158385   3.055   5.835  12.708 -0.7708  1.1940  1.6227
12298TIP3    H258386   2.973   5.844  12.582  1.3921  1.9582  0.2178
12299TIP3   OH258387   6.767   6.747   2.902  0.1326 -0.2203  0.0680
12299TIP3    H158388   6.818   6.678   2.944  0.9091  1.5346  2.1573
12299TIP3    H258389   6.782   6.825   2.955 -1.6772  1.3106 -1.4915
12300TIP3   OH258390   5.820   6.661   5.962 -0.2814  0.3833  0.1678
12300TIP3    H158391   5.857   6.703   5.885 -3.0928 -0.8588 -2.0595
12300TIP3    H258392   5.866   6.577   5.968  0.2930  0.6925  0.1788
12301TIP3   OH258393   1.712   6.299  15.840  0.1229 -0.0342 -0.0506
12301TIP3    H158394   1.742   6.224  15.893 -1.1117  0.1849  0.9963
12301TIP3    H258395   1.700   6.370  15.904 -0.2335  0.5953 -0.8057
12302TIP3   OH258396   6.284   1.438  10.836  0.3365 -0.1981 -0.0672
12302TIP3    H158397   6.256   1.519  10.794 -0.3006 -1.2166 -1.6962
12302TIP3    H258398   6.213   1.376  10.820  1.3229 -1.4175  0.0788
12303TIP3   OH258399   6.293   6.291  15.416 -0.5553 -0.6211 -0.6747
12303TIP3    H158400   6.335   6.362  15.368 -0.4177  0.1963  0.6121
12303TIP3    H258401   6.242   6.334  15.484  0.9726 -1.7432  1.3145
12304TIP3   OH258402   3.083   1.984  15.023  0.5219 -0.2688 -0.4090
12304TIP3    H158403   3.090   2.043  14.947 -1.1300 -0.1037 -0.4555
12304TIP3    H258404   3.144   2.021  15.087  0.9732  0.3417 -1.1711
12305TIP3   OH258405   6.606   2.729  15.931 -0.7100 -0.1583  0.0153
12305TIP3    H158406   6.680   2.689  15.977 -0.0727  1.8263  0.8191
12305TIP3    H258407   6.550   2.763  16.001 -1.1684  0.4449 -0.6324
12306TIP3   OH258408   5.573   2.682  12.028  0.3419  0.4033  0.2555
12306TIP3    H158409   5.560   2.595  11.992 -1.3412  0.5374  0.4824
12306TIP3    H258410   5.629   2.668  12.105  1.1278 -0.2885 -0.4208
12307TIP3   OH258411   5.314   1.868  11.710  0.0415 -0.3669  0.1794
12307TIP3    H158412   5.317   1.864  11.614  0.9400  1.1289  0.1115
12307TIP3    H258413   5.403   1.893  11.735 -0.3106 -0.2572  1.3841
12308TIP3   OH258414   6.705   4.319   5.385  0.4000  0.6102  0.1331
12308TIP3    H158415   6.662   4.250   5.335 -0.2362  0.7898  0.4242
12308TIP3    H258416   6.639   4.388   5.393  0.5864  0.7077  0.9651
12309TIP3   OH258417   1.586   0.459  11.716 -0.0684 -0.1576 -0.0593
12309TIP3    H158418   1.585   0.543  11.670 -1.8208 -0.7663 -1.2411
12309TIP3    H258419   1.557   0.479  11.805 -0.4668  0.5032 -0.3318
12310TIP3   OH258420   1.025   3.922  13.961  0.1012  0.3680  0.2848
12310TIP3    H158421   1.036   3.942  13.868 -3.3335 -1.0668 -0.5940
12310TIP3    H258422   1.024   4.007  14.004 -0.1676  1.2032 -1.2931
12311TIP3   OH258423   4.815   6.432   3.023  0.6989  0.2898  0.9725
12311TIP3    H158424   4.745   6.431   3.089  0.5363  2.1629  0.8741
12311TIP3    H258425   4.884   6.486   3.062  2.1224 -1.4433  1.0277
12312TIP3   OH258426   1.591   0.124   5.882  0.5108 -0.5904 -0.3181
12312TIP3    H158427   1.534   0.165   5.947  1.3924  3.2764 -1.7096
12312TIP3    H258428   1.657   0.078   5.933  1.4599  2.6877  1.7226
12313TIP3   OH258429   4.647   2.173   0.627 -0.3984 -0.1860 -0.3175
12313TIP3    H158430   4.563   2.182   0.672 -1.0114 -1.3029 -1.1746
12313TIP3    H258431   4.704   2.131   0.691 -1.0562 -1.1384 -0.3279
12314TIP3   OH258432   6.582   5.477   3.823 -0.0953 -0.0699 -0.5044
12314TIP3    H158433   6.491   5.485   3.852 -0.5376 -0.9076 -1.5699
12314TIP3    H258434   6.629   5.440   3.898 -1.0171 -1.3408 -0.5251
12315TIP3   OH258435   2.721   5.901   1.372  0.4701  0.2002  0.3219
12315TIP3    H158436   2.762   5.961   1.310  0.6906  1.4490  1.6210
12315TIP3    H258437   2.658   5.955   1.419  2.1689  0.0121  3.0198
12316TIP3   OH258438   6.037   0.257  11.441 -0.9215  0.5203  0.2054
12316TIP3    H158439   6.109   0.283  11.384 -1.7897  0.9348 -0.7507
12316TIP3    H258440   6.074   0.256  11.529  0.3170  0.4123 -0.3012
12317TIP3   OH258441   2.758   6.107   2.333  0.4400  0.0442 -0.2510
12317TIP3    H158442   2.725   6.018   2.325  0.6869  0.0728 -1.8893
12317TIP3    H258443   2.844   6.097   2.373  0.9697 -0.5840 -1.4968
12318TIP3   OH258444   0.970   1.023  13.770 -0.0454 -0.0854 -0.0629
12318TIP3    H158445   0.917   1.067  13.704 -0.4708  1.0990  1.0263
12318TIP3    H258446   0.934   1.052  13.853  2.5399  1.1104  0.7585
12319TIP3   OH258447   6.179   3.044   4.254 -0.1282  0.1333 -0.3235
12319TIP3    H158448   6.113   2.993   4.300 -0.1387  0.6641  0.2685
12319TIP3    H258449   6.133   3.122   4.224 -0.1406 -0.2491 -1.3243
12320TIP3   OH258450   3.565   2.979   4.766 -0.1339  0.2751  0.4143
12320TIP3    H158451   3.618   3.054   4.792  0.8207  0.6595 -2.2794
12320TIP3    H258452   3.615   2.938   4.694 -1.4593 -1.9211  0.6358
12321TIP3   OH258453   4.702   6.554  13.700  0.4022 -0.5102  0.0373
12321TIP3    H158454   4.706   6.536  13.794  0.6281 -0.4928  0.0319
12321TIP3    H258455   4.770   6.620  13.685 -0.6396  0.6192  0.1153
12322TIP3   OH258456   5.574   1.946  11.731 -0.0767 -0.2196 -0.0853
12322TIP3    H158457   5.553   1.951  11.637 -1.0151  2.2982  0.1820
12322TIP3    H258458   5.611   2.031  11.752  1.5162 -1.2472  1.5771
12323TIP3   OH258459   0.931   3.300   6.062 -0.1050  0.1488 -0.1236
12323TIP3    H158460   0.902   3.326   6.149 -0.0710 -0.0610 -0.0488
12323TIP3    H258461   0.963   3.211   6.073 -0.6988 -0.1145 -0.4794
12324TIP3   OH258462   0.260   2.175  17.072  0.6488  0.1749  0.0626
12324TIP3    H158463   0.281   2.184  16.980 -0.1988  0.0982 -0.1500
12324TIP3    H258464   0.219   2.258  17.096  0.8050  0.1704  0.3509
12325TIP3   OH258465   2.052   4.548  11.735 -0.6461 -0.2615  0.6980
12325TIP3    H158466   2.025   4.466  11.776 -1.6884 -0.6445 -0.6829
12325TIP3    H258467   1.971   4.592  11.713 -0.1229  1.7417  2.4375
12326TIP3   OH258468   0.591   3.477   2.766 -0.6844 -0.3904 -0.2190
12326TIP3    H158469   0.599   3.420   2.843  1.0564  0.0715  0.0038
12326TIP3    H258470   0.617   3.563   2.798 -0.2414 -0.1246 -1.2492
12327TIP3   OH258471   1.455   5.679   4.769  0.0831 -0.5481 -0.1299
12327TIP3    H158472   1.367   5.650   4.792  0.1238 -0.5775 -0.0077
12327TIP3    H258473   1.475   5.634   4.687 -0.6827  0.7801 -1.0959
12328TIP3   OH258474   1.535   0.601   5.162  0.2797  0.3511  0.4220
12328TIP3    H158475   1.583   0.522   5.136  0.0500  0.3647 -0.0549
12328TIP3    H258476   1.560   0.615   5.253  0.5585 -0.1002  0.4201
12329TIP3   OH258477   4.855   4.761  12.064 -0.0617 -0.2428 -0.2826
12329TIP3    H158478   4.840   4.805  11.981  1.8719  0.2319 -0.4226
12329TIP3    H258479   4.902   4.825  12.118  1.7321 -1.6726 -0.0652
12330TIP3   OH258480   4.820   5.563  17.101 -0.3010 -0.0571 -0.1439
12330TIP3    H158481   4.859   5.636  17.052  0.1716  0.0063  0.3196
12330TIP3    H258482   4.896   5.514  17.134 -0.5604  0.8079  1.8995
12331TIP3   OH258483   3.939   0.554   4.850 -0.0682  0.1877  0.3321
12331TIP3    H158484   3.894   0.638   4.859 -0.0307  0.7925 -3.4743
12331TIP3    H258485   4.023   0.575   4.811 -0.4581 -1.6064 -1.6764
12332TIP3   OH258486   6.500   0.320   5.596  0.3818 -0.4599  0.0112
12332TIP3    H158487   6.553   0.275   5.530  2.0460 -1.1712  1.7060
12332TIP3    H258488   6.552   0.312   5.676 -2.1391 -0.8392  1.7248
12333TIP3   OH258489   3.668   5.464  11.725  0.0870 -0.1784  0.5032
12333TIP3    H158490   3.628   5.525  11.787 -0.3306 -2.5453  2.7222
12333TIP3    H258491   3.685   5.517  11.647 -2.3905  2.1999  1.4162
12334TIP3   OH258492   4.976   6.564  14.986  0.1734  0.1665 -0.4373
12334TIP3    H158493   5.058   6.614  14.988 -0.1634  0.7386 -0.4990
12334TIP3    H258494   4.984   6.501  15.057  0.2080  0.9677  0.2792
12335TIP3   OH258495   0.017   5.659  11.108  0.4200 -0.3637 -0.3288
12335TIP3    H158496  -0.024   5.716  11.044 -2.2499 -0.9888  0.6773
12335TIP3    H258497  -0.040   5.583  11.113  2.3283 -1.8479  0.4327
12336TIP3   OH258498   4.078   1.798   0.166  0.1630  0.1147  0.1083
12336TIP3    H158499   4.043   1.757   0.245  0.9631 -0.4470  0.1876
12336TIP3    H258500   4.172   1.779   0.169  0.5856  2.0197  0.1760
12337TIP3   OH258501   5.105   0.003  16.546  0.6242  0.2583 -0.4579
12337TIP3    H158502   5.138   0.092  16.558  0.9375  0.3384 -1.7326
12337TIP3    H258503   5.015   0.006  16.578  1.0003  0.7176  0.6106
12338TIP3   OH258504   3.371   5.486  16.458  0.4788 -0.1279 -0.1779
12338TIP3    H158505   3.396   5.541  16.384  0.3945 -0.5454 -0.5217
12338TIP3    H258506   3.381   5.397  16.425  1.7136 -0.3417  0.7387
12339TIP3   OH258507   2.983   1.738   4.100 -0.3391 -0.4010 -0.0173
12339TIP3    H158508   2.940   1.689   4.169  0.5272 -0.3427  0.5820
12339TIP3    H258509   2.996   1.825   4.137  1.8532 -0.8922  0.5097
12340TIP3   OH258510   0.770   1.939   3.670 -0.3653  0.1955 -0.0012
12340TIP3    H158511   0.762   2.027   3.634 -0.1380  0.5448  0.7869
12340TIP3    H258512   0.857   1.938   3.710 -0.5973 -0.2025  0.4898
12341TIP3   OH258513   4.329   5.631   5.465 -0.2284 -0.3732 -0.2042
12341TIP3    H158514   4.342   5.584   5.548 -1.0894 -2.7775 -1.3511
12341TIP3    H258515   4.262   5.696   5.485 -0.4686 -0.9504  0.9613
12342TIP3   OH258516   4.683   2.433  14.501 -0.2208 -0.1283 -0.1226
12342TIP3    H158517   4.656   2.397  14.586 -0.1567 -0.4715 -0.2497
12342TIP3    H258518   4.770   2.397  14.486  0.2520  0.8348  0.1969
12343TIP3   OH258519   5.961   4.606  12.835 -0.3144  0.3656  0.7580
12343TIP3    H158520   6.032   4.589  12.774 -0.0645  0.2361  1.0790
12343TIP3    H258521   5.999   4.589  12.921 -0.2967  1.7392  1.0475
12344TIP3   OH258522   4.663   6.336  14.271 -0.0641 -0.1827  0.2076
12344TIP3    H158523   4.571   6.329  14.247 -0.1196  0.3967  0.2271
12344TIP3    H258524   4.690   6.246  14.288 -0.7058 -0.3318  0.4927
12345TIP3   OH258525   2.579   1.403  11.401  0.2019 -0.1374  0.1762
12345TIP3    H158526   2.580   1.413  11.496 -0.4751  1.3594  0.0604
12345TIP3    H258527   2.525   1.476  11.370 -2.3328 -2.3877 -1.1582
12346TIP3   OH258528   5.973   4.283   5.562 -0.4341 -0.1473 -0.1386
12346TIP3    H158529   6.046   4.320   5.513  0.1795 -0.3758  0.5894
12346TIP3    H258530   6.005   4.275   5.652 -1.1557 -0.7813  0.0788
12347TIP3   OH258531   3.360   0.107   0.048  0.0028 -0.4695 -0.3872
12347TIP3    H158532   3.402   0.035   0.001 -0.8179 -0.9695 -0.3737
12347TIP3    H258533   3.410   0.115   0.129 -1.5612 -2.9521  0.9646
12348TIP3   OH258534   1.078   3.985   0.378 -0.6414 -0.0280 -0.4350
12348TIP3    H158535   1.148   4.018   0.323 -0.5281  0.1966 -0.1515
12348TIP3    H258536   1.099   4.014   0.466  0.1481 -1.9058  0.0575
12349TIP3   OH258537   1.245   1.641  16.526  0.0818 -0.2935  0.2384
12349TIP3    H158538   1.153   1.669  16.524 -0.0278 -0.6163 -1.8931
12349TIP3    H258539   1.293   1.716  16.560 -0.8359  0.3230  0.1943
12350TIP3   OH258540   4.689   6.579  14.747  0.1642  0.0064 -0.0026
12350TIP3    H158541   4.752   6.508  14.753  1.3432  1.0710  0.6598
12350TIP3    H258542   4.643   6.563  14.665  0.5094 -1.4218  0.0603
12351TIP3   OH258543   6.350   3.715   2.801  0.2684  0.1855 -0.3865
12351TIP3    H158544   6.331   3.715   2.894 -0.2886  0.8314 -0.4966
12351TIP3    H258545   6.417   3.783   2.789 -1.6036  2.0330 -0.8225
12352TIP3   OH258546   0.035   0.945   6.280  0.1051  0.1568  0.1275
12352TIP3    H158547   0.013   0.991   6.199 -1.3465  2.3857  1.6378
12352TIP3    H258548   0.091   1.007   6.328  2.7031 -1.9497  0.0457
12353TIP3   OH258549   5.437   3.697   3.253  0.4231 -0.1399  0.4313
12353TIP3    H158550   5.404   3.738   3.173  0.0123 -0.1793  0.5774
12353TIP3    H258551   5.510   3.752   3.280  2.0698 -1.4072 -1.2294
12354TIP3   OH258552   2.781   1.430   0.225 -0.0591  0.4245  0.4371
12354TIP3    H158553   2.736   1.373   0.163  2.2988  0.9056 -1.8843
12354TIP3    H258554   2.778   1.517   0.185  1.7289  0.7164  0.8369
12355TIP3   OH258555   2.879   3.669   2.827 -0.0672 -0.1726 -0.0238
12355TIP3    H158556   2.883   3.764   2.827 -1.1745 -0.1165 -0.0034
12355TIP3    H258557   2.878   3.645   2.920 -1.9978 -0.0738  0.0144
12356TIP3   OH258558   6.190   2.246  13.815 -0.1501 -0.0362  0.9128
12356TIP3    H158559   6.213   2.318  13.757 -0.3023 -0.6796  0.0365
12356TIP3    H258560   6.096   2.232  13.800 -0.1000 -0.4818  1.0082
12357TIP3   OH258561   5.074   5.392   5.033 -0.1991 -0.4693 -0.4044
12357TIP3    H158562   5.082   5.298   5.048  0.6753 -0.6286 -1.7585
12357TIP3    H258563   5.150   5.430   5.078 -1.1410 -0.2577  1.0964
12358TIP3   OH258564   0.888   5.506   1.864  0.0129 -0.1337 -0.6185
12358TIP3    H158565   0.850   5.578   1.914  1.5510  0.1583  0.1901
12358TIP3    H258566   0.936   5.454   1.929  0.8795 -0.5429 -1.5525
12359TIP3   OH258567   0.537   4.435  11.146 -0.4990  0.0092 -0.8915
12359TIP3    H158568   0.464   4.396  11.099 -0.6489 -0.5235 -0.2445
12359TIP3    H258569   0.516   4.528  11.152 -1.1970 -0.1649 -0.5931
12360TIP3   OH258570   5.263   4.265  10.789  0.4522  0.0131  0.0809
12360TIP3    H158571   5.183   4.215  10.772 -0.2662  0.8957  0.7432
12360TIP3    H258572   5.277   4.316  10.710 -1.6674  2.4950  1.1322
12361TIP3   OH258573   0.308   2.734   5.688  0.0189 -0.3675  0.1941
12361TIP3    H158574   0.287   2.820   5.724  2.3952 -0.0698  1.0527
12361TIP3    H258575   0.328   2.680   5.765 -1.2756 -1.6819 -0.3440
12362TIP3   OH258576   6.108   5.665   0.366 -0.5085 -0.4557  0.0793
12362TIP3    H158577   6.029   5.635   0.323 -0.1256  0.0784 -1.0338
12362TIP3    H258578   6.100   5.761   0.369 -0.0971 -0.4230  0.3245
12363TIP3   OH258579   0.936   2.087  16.550 -0.1523 -0.1709  0.4307
12363TIP3    H158580   0.947   2.172  16.507  0.8197 -0.9130 -0.8276
12363TIP3    H258581   1.001   2.087  16.620 -0.7370  0.4462  0.9926
12364TIP3   OH258582   0.962   3.653   3.105  0.4124  0.2860  0.0749
12364TIP3    H158583   0.866   3.655   3.105  0.3509 -0.6191 -2.0239
12364TIP3    H258584   0.985   3.616   3.190 -1.2445 -2.7391 -0.6682
12365TIP3   OH258585   0.286   0.543   1.014 -0.2265  0.2659  0.2856
12365TIP3    H158586   0.323   0.512   0.932 -0.0838  1.2776 -0.0510
12365TIP3    H258587   0.333   0.625   1.031  0.0531 -0.1387  1.5956
12366TIP3   OH258588   5.632   5.404  12.456 -0.1717  0.3679 -0.2724
12366TIP3    H158589   5.647   5.377  12.546  1.0873  0.6661 -0.3636
12366TIP3    H258590   5.606   5.324  12.411  1.6574 -0.3541 -0.1463
12367TIP3   OH258591   1.643   0.695  11.178  0.7416  0.1282  0.0558
12367TIP3    H158592   1.598   0.616  11.147 -0.7338  0.6050  0.8822
12367TIP3    H258593   1.632   0.758  11.106  1.9869 -0.4049 -0.6369
12368TIP3   OH258594   2.961   2.559   3.820  0.1587  0.4557  0.3638
12368TIP3    H158595   3.024   2.562   3.748  0.3347 -2.7943  0.2668
12368TIP3    H258596   3.014   2.560   3.899  0.1169  0.9596  0.3926
12369TIP3   OH258597   2.109   0.044   2.493  0.1764 -0.3846 -0.2055
12369TIP3    H158598   2.134   0.135   2.477 -1.0988  0.1283  0.5564
12369TIP3    H258599   2.167  -0.007   2.437  3.4498  0.6150  2.0085
12370TIP3   OH258600   1.075   0.834  14.979 -0.0394 -0.0329 -0.2180
12370TIP3    H158601   0.980   0.825  14.976 -0.1065  0.7942 -2.0069
12370TIP3    H258602   1.106   0.746  15.001 -1.2109 -0.1189  1.3082
12371TIP3   OH258603   1.609   4.887   5.784 -0.4423  0.3113  0.5106
12371TIP3    H158604   1.660   4.900   5.864 -1.5276 -2.0481  1.7001
12371TIP3    H258605   1.528   4.936   5.798  0.3542  1.9528 -0.2904
12372TIP3   OH258606   3.887   1.968   4.209  0.2714 -0.2678  0.4107
12372TIP3    H158607   3.883   1.894   4.149  0.8128 -0.5167  0.6751
12372TIP3    H258608   3.879   1.928   4.296 -4.0686  0.3145  0.5121
12373TIP3   OH258609   0.165   6.524  14.706  0.7991  0.1405 -0.2316
12373TIP3    H158610   0.227   6.571  14.652  0.2758 -0.2758 -1.2333
12373TIP3    H258611   0.216   6.493  14.781  1.7393  0.0009 -0.9137
12374TIP3   OH258612   4.726   3.726  13.871  0.1251  0.0013 -0.2860
12374TIP3    H158613   4.800   3.702  13.816  1.0670  0.8387  0.5671
12374TIP3    H258614   4.663   3.766  13.811  0.0152 -1.4043 -1.1396
12375TIP3   OH258615   1.367   2.596  11.457  0.6862  0.2343  0.4805
12375TIP3    H158616   1.374   2.685  11.422  0.0751  0.5186  1.0628
12375TIP3    H258617   1.351   2.541  11.380 -1.9673  1.0104  0.3915
12376TIP3   OH258618   5.996   4.236  16.508 -0.1405 -0.0718  0.1714
12376TIP3    H158619   5.910   4.207  16.476  0.4793  0.6851 -2.3701
12376TIP3    H258620   5.987   4.332  16.515  0.1485 -0.1051  1.0924
12377TIP3   OH258621   4.448   5.330   1.234  0.1851 -0.7714  0.3853
12377TIP3    H158622   4.440   5.343   1.328  1.2092  0.3297  0.3448
12377TIP3    H258623   4.401   5.403   1.195  1.7723  0.1422  0.0905
12378TIP3   OH258624   1.801   1.318  16.191 -0.5435 -0.1308  0.0899
12378TIP3    H158625   1.870   1.252  16.187 -0.8082 -0.4608  0.9518
12378TIP3    H258626   1.729   1.276  16.236 -1.1814  0.3384 -0.4778
12379TIP3   OH258627   5.517   6.623  16.127 -0.0112 -0.3837 -0.1446
12379TIP3    H158628   5.588   6.606  16.190  0.8305 -0.5740 -1.1082
12379TIP3    H258629   5.462   6.689  16.169  0.7727 -0.1900  0.6066
12380TIP3   OH258630   5.466   0.010   1.389  0.2324 -0.5305 -0.1146
12380TIP3    H158631   5.398  -0.055   1.409 -1.0007  0.8391  0.3226
12380TIP3    H258632   5.474   0.007   1.293 -2.4612  1.1053 -0.5122
12381TIP3   OH258633   5.041   1.446  12.641 -0.0942 -0.3981 -0.5806
12381TIP3    H158634   4.981   1.404  12.580  0.2075 -0.8220 -0.5921
12381TIP3    H258635   5.123   1.398  12.631  0.4590  0.6068 -1.0643
12382TIP3   OH258636   0.928   3.181  11.235  0.3142  0.0109 -0.2462
12382TIP3    H158637   0.928   3.192  11.140  0.7389  0.6756 -0.1752
12382TIP3    H258638   0.856   3.237  11.266 -0.9931 -1.5642 -0.3047
12383TIP3   OH258639   0.701   3.684  11.374  0.2351 -0.0015 -0.8035
12383TIP3    H158640   0.735   3.617  11.315  0.2120 -0.7337 -0.0087
12383TIP3    H258641   0.674   3.635  11.452  0.0061  0.9119 -0.3014
12384TIP3   OH258642   4.504   0.075  14.890 -0.5463  0.5350 -0.1372
12384TIP3    H158643   4.421   0.063  14.938 -0.3604 -0.4407 -0.0289
12384TIP3    H258644   4.557   0.131  14.946 -0.4327 -0.3771  0.6884
12385TIP3   OH258645   0.839   1.088   2.665  0.5210  0.1135 -0.3126
12385TIP3    H158646   0.774   1.055   2.603 -0.5514  1.4341  0.0674
12385TIP3    H258647   0.828   1.035   2.743 -2.6544  2.5074  1.0785
12386TIP3   OH258648   2.846   5.150   5.939  0.1248  0.4073  0.2681
12386TIP3    H158649   2.940   5.148   5.952  0.3255  0.4233 -1.0414
12386TIP3    H258650   2.829   5.232   5.893 -0.1047 -0.9363 -2.1975
12387TIP3   OH258651   3.375   6.788   4.991 -0.5572 -0.0127  0.2732
12387TIP3    H158652   3.343   6.697   4.989 -0.4867 -0.0504 -1.5303
12387TIP3    H258653   3.448   6.787   5.052 -0.6803 -1.1328  0.4232
12388TIP3   OH258654   4.706   5.050   3.238  0.1805  0.1924 -0.5224
12388TIP3    H158655   4.787   5.064   3.187 -1.8263 -1.2169 -4.5755
12388TIP3    H258656   4.643   5.110   3.198 -0.9776  0.9852  2.3010
12389TIP3   OH258657   3.800   1.602   4.314 -0.1131  0.5932 -0.1212
12389TIP3    H158658   3.802   1.679   4.258 -2.2666 -0.4062 -1.7159
12389TIP3    H258659   3.706   1.585   4.328  0.1136 -3.1048 -1.9003
12390TIP3   OH258660   5.957   5.458   2.548  0.3302  0.1106 -0.0070
12390TIP3    H158661   5.885   5.521   2.541  0.9573  0.9033  0.5291
12390TIP3    H258662   6.034   5.511   2.567  1.0584 -0.7342 -0.5088
12391TIP3   OH258663   3.829   5.374  11.956  0.0214 -0.3438 -0.1299
12391TIP3    H158664   3.819   5.437  11.884  0.2244  1.0441  1.0016
12391TIP3    H258665   3.758   5.396  12.016  0.8137 -0.3965  0.8474
12392TIP3   OH258666   1.295   3.577   2.401  0.4118 -0.3499 -0.4419
12392TIP3    H158667   1.279   3.663   2.360  1.0225  0.5753  1.1886
12392TIP3    H258668   1.373   3.544   2.357  1.0010  0.5807 -0.1251
12393TIP3   OH258669   5.472   4.039   2.029 -0.6846  0.0304 -0.1769
12393TIP3    H158670   5.447   4.062   2.119  1.6348 -0.0122  0.5657
12393TIP3    H258671   5.510   4.120   1.994  0.5808 -0.5580 -0.2381
12394TIP3   OH258672   1.835   4.906  13.812 -0.6771 -0.0111  0.2336
12394TIP3    H158673   1.895   4.890  13.739 -2.2048 -1.4943 -0.7629
12394TIP3    H258674   1.833   5.001  13.821 -1.4282  0.3048 -2.5443
12395TIP3   OH258675   4.025   3.366   0.132 -0.6849  0.4786 -0.2283
12395TIP3    H158676   4.047   3.275   0.148 -1.4825  0.3971  0.5120
12395TIP3    H258677   4.096   3.416   0.171 -0.3395  0.1869 -0.4751
12396TIP3   OH258678   1.102   3.104   6.103 -0.3193 -0.0965 -0.0050
12396TIP3    H158679   1.167   3.081   6.169 -0.7579 -0.8913  0.1534
12396TIP3    H258680   1.049   3.025   6.092 -2.2320  0.9782  0.9795
12397TIP3   OH258681   4.765   4.525   5.403  0.2573  0.0863 -0.5639
12397TIP3    H158682   4.686   4.514   5.455 -0.9460 -0.4520 -2.3945
12397TIP3    H258683   4.758   4.613   5.366 -0.0341 -0.3454 -1.5648
12398TIP3   OH258684   3.757   4.939  13.280  0.2553 -0.3772 -0.7335
12398TIP3    H158685   3.754   4.881  13.357 -0.6617  1.1566  0.4613
12398TIP3    H258686   3.705   4.893  13.214 -2.1003 -0.1536  0.8082
12399TIP3   OH258687   4.159   0.732   0.345  0.7407 -0.4361 -0.7618
12399TIP3    H158688   4.139   0.697   0.432 -2.3038 -0.7255 -1.5001
12399TIP3    H258689   4.244   0.692   0.323  1.2377 -0.9510  1.7158
12400TIP3   OH258690   5.524   4.706  15.498  0.1420 -0.0584  0.1410
12400TIP3    H158691   5.499   4.795  15.523 -0.0235 -0.1348  0.2481
12400TIP3    H258692   5.549   4.664  15.581 -1.7738 -0.7579  0.4065
12401TIP3   OH258693   0.020   1.535  15.835 -0.2807  0.0953 -0.0634
12401TIP3    H158694  -0.028   1.609  15.871  1.2027  0.5871  0.9977
12401TIP3    H258695  -0.021   1.458  15.874 -1.3430  0.3777 -0.5842
12402TIP3   OH258696   1.002   0.584  10.385  0.8039  0.3846 -0.1127
12402TIP3    H158697   0.951   0.665  10.380 -1.5503 -1.0039 -0.0564
12402TIP3    H258698   1.016   0.559  10.294  0.5819  0.3030 -0.1254
12403TIP3   OH258699   3.745   5.866   1.674  0.2428 -0.1088  0.1422
12403TIP3    H158700   3.711   5.924   1.743 -0.4862  0.9789 -1.0728
12403TIP3    H258701   3.688   5.883   1.599  1.9524 -0.0943 -1.2209
12404TIP3   OH258702   0.902   1.342  11.178  0.1192 -0.2305  0.3884
12404TIP3    H158703   0.961   1.387  11.116 -0.6662 -0.0998 -0.2901
12404TIP3    H258704   0.838   1.298  11.122  1.3861 -3.0451  0.9747
12405TIP3   OH258705   5.070   6.692   5.329 -0.1186 -0.0148 -0.2509
12405TIP3    H158706   5.031   6.779   5.315  1.0674  0.5690 -0.0466
12405TIP3    H258707   5.136   6.685   5.260  0.5379 -0.2936  0.3969
12406TIP3   OH258708   6.292   0.073  10.611 -0.3344 -0.2503  0.2781
12406TIP3    H158709   6.287   0.115  10.525 -0.1708 -2.1298 -0.6915
12406TIP3    H258710   6.208   0.028  10.621 -0.3179 -0.1251  1.0727
12407TIP3   OH258711   6.477   3.784   3.876 -0.5272  0.3379  0.2910
12407TIP3    H158712   6.471   3.740   3.961 -2.5725  1.4895  0.8242
12407TIP3    H258713   6.404   3.847   3.876  1.7611  3.2546 -0.6950
12408TIP3   OH258714   5.195   2.019  16.130 -0.0723  0.0686  0.3435
12408TIP3    H158715   5.281   2.049  16.103 -0.6341  0.3010 -1.3130
12408TIP3    H258716   5.203   1.924  16.133  1.1496  0.1625  3.6224
12409TIP3   OH258717   3.257   0.101  10.512 -0.0739 -0.1264 -0.6488
12409TIP3    H158718   3.201   0.053  10.451 -0.9317  1.0698 -0.8297
12409TIP3    H258719   3.320   0.147  10.457 -0.0276 -0.0692 -0.5491
12410TIP3   OH258720   4.617   3.667   4.042  0.5324 -0.3214  0.6417
12410TIP3    H158721   4.523   3.653   4.037  0.2459  1.0974  1.5618
12410TIP3    H258722   4.654   3.609   3.975 -1.2073  1.3937 -2.0124
12411TIP3   OH258723   4.164   0.176   2.553  0.1924 -0.7242 -0.8116
12411TIP3    H158724   4.247   0.189   2.507 -0.6384  0.0839 -2.1639
12411TIP3    H258725   4.187   0.177   2.646  1.4000  2.1077 -1.0375
12412TIP3   OH258726   6.089   2.703   1.280 -0.1327  0.0686 -0.1022
12412TIP3    H158727   6.154   2.679   1.345  0.7164 -0.0025 -0.9689
12412TIP3    H258728   6.043   2.778   1.318  0.8533  0.4956  0.2663
12413TIP3   OH258729   6.105   0.030   2.292 -0.1026 -0.1947  0.0580
12413TIP3    H158730   6.180   0.084   2.315 -1.0169  1.7517 -1.3125
12413TIP3    H258731   6.110   0.021   2.197 -0.0421 -2.4993  0.2191
12414TIP3   OH258732   5.236   2.689  14.064 -0.2136 -0.0932  0.1308
12414TIP3    H158733   5.159   2.740  14.088  0.3468  0.1772  1.4411
12414TIP3    H258734   5.228   2.676  13.969 -2.2545 -0.7239  0.3502
12415TIP3   OH258735   6.330   1.093  12.421  0.6037 -0.2334  0.2551
12415TIP3    H158736   6.310   1.000  12.411  0.8275 -0.3000  0.4204
12415TIP3    H258737   6.408   1.107  12.366  0.7629 -0.2143  0.4837
12416TIP3   OH258738   5.995   3.502  11.646  0.0091  0.2595 -0.0029
12416TIP3    H158739   5.939   3.576  11.673 -0.9209 -0.3497 -0.2158
12416TIP3    H258740   5.933   3.432  11.624  0.8708 -0.4897 -0.0925
12417TIP3   OH258741   4.947   4.317   3.856  0.2948 -0.2515  0.1209
12417TIP3    H158742   4.953   4.389   3.919  2.5694  0.9852 -1.3594
12417TIP3    H258743   5.032   4.275   3.859  0.3624 -0.3759 -1.8294
12418TIP3   OH258744   4.344   4.695  13.424  0.7371  0.2815  0.5596
12418TIP3    H158745   4.350   4.615  13.476  0.6831  0.4360  0.8073
12418TIP3    H258746   4.333   4.665  13.334  3.6479 -0.0574  0.2230
12419TIP3   OH258747   2.701   1.354   2.458 -0.1395  0.4026  0.2207
12419TIP3    H158748   2.609   1.366   2.435 -0.9748  0.6205  3.2970
12419TIP3    H258749   2.702   1.351   2.553  2.6843 -2.7040  0.2697
12420TIP3   OH258750   1.986   1.983   2.192 -0.5401  0.1861  0.5845
12420TIP3    H158751   1.973   2.032   2.273 -0.0208  0.5376  0.4517
12420TIP3    H258752   1.951   1.896   2.212 -1.5961  0.6385  0.7684
12421TIP3   OH258753   6.480   2.928   0.153 -0.0962 -0.6334 -0.4866
12421TIP3    H158754   6.407   2.975   0.195  0.1477 -1.3017  0.7360
12421TIP3    H258755   6.462   2.936   0.059 -1.1743  0.1155 -0.2444
12422TIP3   OH258756   1.825   6.814   5.727 -0.0582  0.4575  0.0069
12422TIP3    H158757   1.770   6.747   5.767 -1.6599  0.4928 -1.9806
12422TIP3    H258758   1.769   6.893   5.726  1.3801  1.5523  1.2707
12423TIP3   OH258759   4.734   3.855  14.331 -0.3154 -0.5954  0.1374
12423TIP3    H158760   4.734   3.939  14.377  2.3377  1.2761 -2.8752
12423TIP3    H258761   4.685   3.872  14.250  1.0015 -1.6025 -0.9332
12424TIP3   OH258762   0.773   4.413   1.712  0.0394 -0.2122 -0.4863
12424TIP3    H158763   0.678   4.405   1.704  0.0616  0.1688 -1.1908
12424TIP3    H258764   0.800   4.457   1.632  1.0467 -2.0308 -1.1987
12425TIP3   OH258765   6.465   4.139   4.484 -0.2023  0.7514  0.4295
12425TIP3    H158766   6.425   4.181   4.560  1.8120  0.8530  1.4837
12425TIP3    H258767   6.485   4.050   4.513 -0.9814  0.2242 -0.5701
12426TIP3   OH258768   3.104   6.369  11.551 -0.4060  0.2010  0.2116
12426TIP3    H158769   3.018   6.403  11.577 -0.0306  0.1860  1.5514
12426TIP3    H258770   3.084   6.287  11.505 -1.1406  0.5381 -0.0821
12427TIP3   OH258771   4.986   3.710  12.797 -0.5104 -0.3153 -1.0473
12427TIP3    H158772   4.964   3.622  12.769  1.3053 -0.7425 -1.2347
12427TIP3    H258773   5.071   3.728  12.756  0.7350  0.2423  1.5564
12428TIP3   OH258774   3.378   6.501   0.918 -0.1527  0.1829 -0.0323
12428TIP3    H158775   3.408   6.427   0.970  0.7049  0.0407 -0.7188
12428TIP3    H258776   3.286   6.483   0.901  0.5633 -1.9168 -2.1389
12429TIP3   OH258777   3.324   1.006  11.097  0.1166 -0.4025  0.3597
12429TIP3    H158778   3.284   1.061  11.164  0.9853 -1.7064  2.0072
12429TIP3    H258779   3.296   1.045  11.014 -2.8600 -0.0387  1.4127
12430TIP3   OH258780   6.074   1.918   1.055 -0.2069  0.2927 -0.2871
12430TIP3    H158781   6.031   1.997   1.023  0.6476  1.2613  0.8655
12430TIP3    H258782   6.080   1.931   1.150  0.9329 -0.6521 -0.2066
12431TIP3   OH258783   1.048   0.943  11.472 -0.1715 -0.4288  0.1803
12431TIP3    H158784   1.053   1.028  11.428 -0.8307 -0.0958  0.7147
12431TIP3    H258785   0.968   0.902  11.438 -0.2173 -0.5388  0.4132
12432TIP3   OH258786   2.331   4.367  14.816 -0.2119  0.0693  0.8752
12432TIP3    H158787   2.268   4.298  14.794 -1.1554  0.9706  0.7138
12432TIP3    H258788   2.348   4.412  14.734  0.9549 -0.3946  0.8409
12433TIP3   OH258789   5.471   2.025  16.425 -0.0667  0.0716  0.2226
12433TIP3    H158790   5.441   1.945  16.383 -0.3838  0.3731 -0.1272
12433TIP3    H258791   5.538   2.059  16.366 -0.2158  0.2747  0.1706
12434TIP3   OH258792   4.270   4.743   4.178 -0.5228 -0.1745  0.3697
12434TIP3    H158793   4.355   4.717   4.144 -0.5895 -0.8975  0.7420
12434TIP3    H258794   4.281   4.835   4.204  0.0417 -0.1662  0.1047
12435TIP3   OH258795   6.728   1.731   1.112  0.5673 -0.8890 -0.0639
12435TIP3    H158796   6.660   1.763   1.172 -1.7256 -0.9884 -2.4564
12435TIP3    H258797   6.776   1.666   1.163 -2.1625 -2.0100  1.3022
12436TIP3   OH258798   3.829   6.067   2.645 -0.3832  0.7455 -0.5329
12436TIP3    H158799   3.890   5.995   2.651 -0.7216  0.3296 -1.7842
12436TIP3    H258800   3.839   6.115   2.728  2.2689  1.2228 -1.0492
12437TIP3   OH258801   5.219   4.270   3.914  0.2241 -0.4866 -0.0308
12437TIP3    H158802   5.231   4.316   3.997 -0.9010 -0.8014  0.3235
12437TIP3    H258803   5.260   4.327   3.849 -2.0032  1.5861  0.2350
12438TIP3   OH258804   3.010   1.700  17.036 -0.5036 -0.0487 -0.6789
12438TIP3    H158805   3.048   1.711  16.949 -0.4756  0.0664 -0.6517
12438TIP3    H258806   3.076   1.735  17.096 -0.5697 -0.0251 -0.6190
12439TIP3   OH258807   0.666   2.575   4.170  0.1658 -0.0267  0.1373
12439TIP3    H158808   0.717   2.648   4.135 -0.8801 -0.2342 -1.9780
12439TIP3    H258809   0.576   2.591   4.141 -0.3223 -1.4810  0.7257
12440TIP3   OH258810   4.879   0.385   5.960  0.4697 -0.2198  0.2427
12440TIP3    H158811   4.902   0.448   5.891  1.6949 -0.1922  0.6497
12440TIP3    H258812   4.798   0.419   5.998  0.1424  0.1293 -0.7263
12441TIP3   OH258813   0.709   0.180  11.204 -0.0965  0.5228 -0.3250
12441TIP3    H158814   0.777   0.151  11.264 -0.8387 -0.3664  0.1026
12441TIP3    H258815   0.645   0.224  11.260 -0.2973  0.5888 -0.6043
12442TIP3   OH258816   0.720   2.164   5.869  0.3087  0.0567 -0.3789
12442TIP3    H158817   0.651   2.153   5.804 -0.6156  0.3309  0.5241
12442TIP3    H258818   0.765   2.244   5.843 -0.4183  0.4836 -0.3780
12443TIP3   OH258819   2.228   4.853   5.242  0.3436 -0.5479  0.4624
12443TIP3    H158820   2.133   4.866   5.246  0.6372  2.0019  0.6664
12443TIP3    H258821   2.238   4.759   5.230 -2.2450 -0.7377 -1.0190
12444TIP3   OH258822   3.127   1.760  15.347 -0.4119 -0.2399  0.0592
12444TIP3    H158823   3.098   1.719  15.428 -0.4545  0.6943  0.5270
12444TIP3    H258824   3.114   1.854  15.361 -0.4344 -0.0642 -1.0334
12445TIP3   OH258825   4.857   3.901  11.643 -0.2342 -0.2492 -0.1373
12445TIP3    H158826   4.948   3.882  11.663 -0.3778 -0.3485  0.4350
12445TIP3    H258827   4.840   3.985  11.685 -0.3023 -0.0474 -0.5622
12446TIP3   OH258828   3.782   6.125   5.800 -0.3384  0.2737 -0.1690
12446TIP3    H158829   3.806   6.049   5.854 -0.6518  1.8919  2.3981
12446TIP3    H258830   3.852   6.189   5.816 -0.9620  1.1765 -0.9392
12447TIP3   OH258831   1.728   5.553   5.424 -0.1748 -0.1897  0.5898
12447TIP3    H158832   1.819   5.535   5.448 -0.1561 -2.0400 -0.6693
12447TIP3    H258833   1.735   5.604   5.343 -0.1960 -1.8015 -0.4804
12448TIP3   OH258834   0.347   6.062  12.655  0.1677  0.1675 -0.0211
12448TIP3    H158835   0.420   6.120  12.678  0.6533  0.0890 -1.2814
12448TIP3    H258836   0.282   6.121  12.615  0.1226  0.0374 -0.1411
12449TIP3   OH258837   6.609   2.191   6.075 -0.4927  0.3609 -0.8462
12449TIP3    H158838   6.687   2.136   6.080  0.2756  1.5184  1.0867
12449TIP3    H258839   6.601   2.213   5.982 -0.0122 -1.8024 -1.4451
12450TIP3   OH258840   5.220   4.601  14.546 -0.5839 -0.1838  0.2623
12450TIP3    H158841   5.178   4.683  14.520 -0.8919 -0.3269  0.3032
12450TIP3    H258842   5.162   4.564  14.613 -0.7407 -0.7050 -0.1492
12451TIP3   OH258843   3.564   3.043   6.709 -0.1213 -0.8519 -0.2375
12451TIP3    H158844   3.500   3.001   6.652  0.5457 -2.0239 -0.1573
12451TIP3    H258845   3.511   3.089   6.774 -0.8821 -1.5115 -0.3723
12452TIP3   OH258846   0.526   2.274   3.226  0.1554  0.2215  0.3796
12452TIP3    H158847   0.579   2.354   3.225 -1.1445  1.1248  0.4863
12452TIP3    H258848   0.536   2.241   3.316  0.2749  0.5537  0.4911
12453TIP3   OH258849   3.450   6.574  13.669 -0.3479 -0.0857  0.1009
12453TIP3    H158850   3.501   6.648  13.703  0.1545  0.7773 -2.3317
12453TIP3    H258851   3.516   6.517  13.630 -1.0176 -0.1869 -0.9007
12454TIP3   OH258852   6.683   5.778   3.613 -0.1518 -0.1764  0.0861
12454TIP3    H158853   6.674   5.869   3.585 -0.7123 -0.4620 -0.6799
12454TIP3    H258854   6.714   5.731   3.536 -0.7913 -0.8034  0.1966
12455TIP3   OH258855   1.602   6.275   4.217 -0.3194 -0.3907  0.4096
12455TIP3    H158856   1.628   6.212   4.285  0.3461  2.4272  2.9661
12455TIP3    H258857   1.514   6.303   4.243 -0.9008 -0.7130 -1.1122
12456TIP3   OH258858   5.617   3.125   2.957  0.2443 -0.1497  0.5430
12456TIP3    H158859   5.524   3.110   2.974  0.1483  0.4557  0.5754
12456TIP3    H258860   5.645   3.048   2.907 -0.4729  0.0453 -0.1895
12457TIP3   OH258861   3.188   6.401  12.210 -0.2117 -0.5557  0.6349
12457TIP3    H158862   3.135   6.321  12.214 -0.1218 -0.5885  1.3362
12457TIP3    H258863   3.264   6.381  12.264  0.6254 -0.5775 -0.5033
12458TIP3   OH258864   0.764   4.815   2.328  0.2935 -0.8104  0.2675
12458TIP3    H158865   0.681   4.781   2.360 -0.3925 -0.6345 -1.2440
12458TIP3    H258866   0.794   4.750   2.264  0.4232 -0.0166 -0.4987
12459TIP3   OH258867   1.808   4.321   4.921  0.4667  0.2815  0.1278
12459TIP3    H158868   1.718   4.321   4.951  0.5723 -1.3878  0.5016
12459TIP3    H258869   1.802   4.338   4.826 -0.4013 -1.7586 -0.2154
12460TIP3   OH258870   4.665   2.597   2.676 -0.5887 -0.1844  0.1328
12460TIP3    H158871   4.580   2.573   2.639 -0.4178  0.9325 -1.0691
12460TIP3    H258872   4.723   2.603   2.600 -0.2456  2.3657  0.4914
12461TIP3   OH258873   2.775   5.287   3.208 -0.0182  0.2848 -0.1369
12461TIP3    H158874   2.780   5.219   3.275  1.4843 -1.2965 -1.7606
12461TIP3    H258875   2.711   5.254   3.145 -0.8213  1.3871  0.0560
12462TIP3   OH258876   5.851   2.259   0.765 -0.5069  0.6431 -0.0273
12462TIP3    H158877   5.830   2.218   0.681 -0.8205 -0.7856  0.7065
12462TIP3    H258878   5.779   2.232   0.823  0.7452 -0.1326  1.2242
12463TIP3   OH258879   0.369   4.911   2.257  0.0560 -0.0582 -0.4508
12463TIP3    H158880   0.444   4.969   2.269  1.3065 -1.7033  0.2419
12463TIP3    H258881   0.370   4.889   2.164  0.5881 -0.2344 -0.4084
12464TIP3   OH258882   1.676   2.178   2.166 -0.1272  0.3283 -0.4795
12464TIP3    H158883   1.588   2.142   2.172 -0.1003  0.4079  0.7129
12464TIP3    H258884   1.703   2.190   2.258  0.7976  1.0807 -0.8369
12465TIP3   OH258885   1.704   6.314  17.043  0.3471  0.3812 -0.2648
12465TIP3    H158886   1.616   6.336  17.013  0.6674  1.2102 -0.6256
12465TIP3    H258887   1.739   6.257  16.975 -0.3526 -1.0013  0.4953
12466TIP3   OH258888   6.455   4.469   2.513  0.3828  0.5671 -0.0021
12466TIP3    H158889   6.541   4.477   2.554 -0.5679 -1.6477  2.7397
12466TIP3    H258890   6.408   4.548   2.540  1.2982  1.4497 -0.9323
12467TIP3   OH258891   5.501   0.994   4.049  0.0717 -0.2857  0.3475
12467TIP3    H158892   5.539   1.054   3.985 -2.7272 -0.0719 -1.2355
12467TIP3    H258893   5.485   1.049   4.126 -1.2751  0.7544 -0.6307
12468TIP3   OH258894   1.983   2.087  16.468  0.9166 -0.2175 -0.0390
12468TIP3    H158895   2.039   2.016  16.439  0.4709 -0.9671  0.8488
12468TIP3    H258896   1.933   2.049  16.541  1.1430  1.2002  0.8960
12469TIP3   OH258897   6.299   6.183   4.674 -0.2102 -0.3519  0.1867
12469TIP3    H158898   6.386   6.178   4.714 -0.5766 -2.7901  0.8897
12469TIP3    H258899   6.240   6.200   4.747 -0.3743  0.8786 -0.2246
12470TIP3   OH258900   0.525   2.938   1.395  0.3460  0.3580 -0.1591
12470TIP3    H158901   0.594   2.943   1.329  1.7711 -3.5549  0.7415
12470TIP3    H258902   0.486   2.852   1.382 -0.1947 -0.0324  3.2074
12471TIP3   OH258903   0.799   1.420   5.727  0.0583 -0.1322 -0.1112
12471TIP3    H158904   0.820   1.513   5.740 -1.1348  0.1212  0.1204
12471TIP3    H258905   0.733   1.419   5.658  1.4670 -0.9879 -1.5149
12472TIP3   OH258906   1.839   0.418  12.590 -0.1980  0.4783 -0.2831
12472TIP3    H158907   1.910   0.366  12.552  2.0178  1.5843  2.0788
12472TIP3    H258908   1.834   0.496  12.535  1.9009  1.3366  0.6197
12473TIP3   OH258909   0.360   5.206  15.979  0.1105  0.1870 -0.5014
12473TIP3    H158910   0.336   5.164  16.062  0.6434  1.2639  0.2280
12473TIP3    H258911   0.303   5.165  15.914 -0.7576 -0.2434  0.4944
12474TIP3   OH258912   5.865   6.162  14.277  0.5434  0.7717 -0.2397
12474TIP3    H158913   5.775   6.188  14.296  0.7290  1.0097  0.3406
12474TIP3    H258914   5.916   6.201  14.348  1.1242  0.7827 -0.6637
12475TIP3   OH258915   1.863   4.708   2.862 -0.1395 -0.3094  0.0391
12475TIP3    H158916   1.850   4.759   2.942 -1.4168  2.1592 -1.6144
12475TIP3    H258917   1.786   4.726   2.809  1.0976 -1.0940 -2.1669
12476TIP3   OH258918   2.429   1.354   4.352 -0.1238  0.6645  0.2212
12476TIP3    H158919   2.401   1.299   4.279  0.6577 -0.2568  0.6030
12476TIP3    H258920   2.353   1.410   4.370 -0.7781  0.0097 -0.4452
12477TIP3   OH258921   0.658   5.684   5.661 -0.4277  0.2821  0.2980
12477TIP3    H158922   0.662   5.673   5.757  0.1898 -2.3701  0.0509
12477TIP3    H258923   0.747   5.665   5.632 -0.9533 -0.4203 -0.9006
12478TIP3   OH258924   6.339   0.869   0.835 -0.1744 -0.0046  0.1354
12478TIP3    H158925   6.418   0.900   0.880  0.8994 -1.0002 -0.9960
12478TIP3    H258926   6.337   0.775   0.851 -0.1736 -0.2658 -1.2663
12479TIP3   OH258927   0.199   0.404  10.895 -0.3009 -0.3785 -0.0049
12479TIP3    H158928   0.241   0.460  10.830 -0.6374 -0.8643 -0.6461
12479TIP3    H258929   0.247   0.422  10.976 -0.6384  1.1105 -0.1068
12480TIP3   OH258930   3.512   3.444  13.537 -0.1458  0.0674  0.4493
12480TIP3    H158931   3.416   3.450  13.541 -0.1578 -0.2789  0.8010
12480TIP3    H258932   3.535   3.385  13.610  0.2327 -0.8501 -0.3902
12481TIP3   OH258933   3.613   4.628   4.032  0.2649 -0.4971  0.3705
12481TIP3    H158934   3.576   4.543   4.054  2.4445 -1.2901  1.3302
12481TIP3    H258935   3.553   4.691   4.071 -0.6527 -1.6477  0.8752
12482TIP3   OH258936   2.205   4.895  10.150  0.1136  0.0131  0.6383
12482TIP3    H158937   2.266   4.824  10.172  1.0050  0.6486  0.2562
12482TIP3    H258938   2.149   4.858  10.082  0.6157 -0.3084  0.3931
12483TIP3   OH258939   0.665   5.975  15.816 -0.4370 -0.0878 -0.4065
12483TIP3    H158940   0.607   6.033  15.864 -2.3600 -0.8362 -1.7354
12483TIP3    H258941   0.667   5.895  15.869 -0.1142  0.1395 -0.0656
12484TIP3   OH258942   4.539   6.835  11.991  0.1028  0.5307  0.3277
12484TIP3    H158943   4.482   6.911  12.006 -0.1609  0.3736  0.1338
12484TIP3    H258944   4.505   6.768  12.051 -0.3180  0.2303 -0.2365
12485TIP3   OH258945   4.988   1.203  15.826  0.3556 -0.7398  0.2766
12485TIP3    H158946   4.905   1.178  15.785  0.5721  0.0044 -0.6629
12485TIP3    H258947   4.999   1.295  15.803  1.5992 -0.9129  0.0864
12486TIP3   OH258948   0.191   6.718  11.078 -0.5885  0.1975  0.0290
12486TIP3    H158949   0.262   6.763  11.033  1.0420 -1.8725  0.3476
12486TIP3    H258950   0.113   6.738  11.027  0.1946  2.4797 -0.3839
12487TIP3   OH258951   6.000   0.209  13.038  0.3013  0.4968 -0.4544
12487TIP3    H158952   6.055   0.282  13.009  0.3293 -0.0723 -1.8862
12487TIP3    H258953   6.018   0.202  13.132  2.0022  0.9216 -0.7025
12488TIP3   OH258954   0.860   3.434  15.713 -0.6006  0.8453 -0.3664
12488TIP3    H158955   0.819   3.479  15.639  0.3060 -1.8477 -2.7039
12488TIP3    H258956   0.944   3.478  15.723 -2.2963  3.9900  2.0492
12489TIP3   OH258957   0.125   1.069   0.005  0.1989  0.1011 -0.5158
12489TIP3    H158958   0.134   1.080  -0.090  0.0570 -0.6636 -0.6210
12489TIP3    H258959   0.214   1.051   0.036  0.3387  0.9236 -0.4196
12490TIP3   OH258960   1.218   5.003  13.908 -0.0157  0.4203 -0.1185
12490TIP3    H158961   1.310   5.023  13.923  0.0446  1.2254 -1.3950
12490TIP3    H258962   1.187   5.073  13.851 -0.7010 -1.2842 -1.9791
12491TIP3   OH258963   3.680   6.453   1.954 -0.4843  0.0240 -0.1919
12491TIP3    H158964   3.676   6.365   1.992  1.1516 -0.1760 -0.4132
12491TIP3    H258965   3.770   6.461   1.921 -0.8283  1.5014 -0.8535
12492TIP3   OH258966   1.397   3.948  13.433  0.5485  0.1432  0.6629
12492TIP3    H158967   1.347   3.869  13.410 -0.1795  0.3342  1.5490
12492TIP3    H258968   1.489   3.919  13.429  0.2789 -0.9641  1.6565
12493TIP3   OH258969   2.244   1.042  14.277  0.1891 -0.4420  0.9031
12493TIP3    H158970   2.271   0.955  14.304 -0.4408 -1.8121 -2.3665
12493TIP3    H258971   2.148   1.037  14.271 -0.1340  1.3447  3.0746
12494TIP3   OH258972   4.676   0.993  16.057  0.0618 -0.2888 -0.0369
12494TIP3    H158973   4.769   1.012  16.068 -0.1409 -0.1170  1.6816
12494TIP3    H258974   4.636   1.078  16.043 -0.1061 -0.0499  1.6749
12495TIP3   OH258975   5.030   3.416  13.910 -0.6031 -0.2148  0.2040
12495TIP3    H158976   4.990   3.399  13.825 -0.4980  1.5457 -0.2363
12495TIP3    H258977   5.061   3.506  13.904  0.5313 -0.4784  1.6811
12496TIP3   OH258978   2.803   0.224   2.216 -0.3615 -0.1681  1.1740
12496TIP3    H158979   2.778   0.230   2.308  0.0266 -0.0246  1.2732
12496TIP3    H258980   2.786   0.311   2.181  0.1703 -0.0116  1.2903
12497TIP3   OH258981   1.633   3.235   0.890  0.2568  0.2215 -0.5183
12497TIP3    H158982   1.603   3.212   0.977  0.1168  2.3611  0.0485
12497TIP3    H258983   1.561   3.208   0.832 -1.1794  1.8085  0.4177
12498TIP3   OH258984   1.151   1.779   2.938 -0.0946 -0.3945  0.0126
12498TIP3    H158985   1.092   1.848   2.970 -0.1845 -0.2572 -0.4377
12498TIP3    H258986   1.094   1.720   2.888  0.1661 -0.1902 -0.5340
12499TIP3   OH258987   5.389   4.859   0.189  0.1196  0.1196  0.5296
12499TIP3    H158988   5.373   4.875   0.096  0.9331 -1.6705  0.0291
12499TIP3    H258989   5.338   4.926   0.234 -0.4270  0.9235 -1.1943
12500TIP3   OH258990   5.548   3.124  15.911 -0.0109  0.0675  0.1082
12500TIP3    H158991   5.487   3.064  15.868 -1.7127  0.5359  1.7732
12500TIP3    H258992   5.534   3.208  15.867 -1.2097  0.3696  1.0284
12501TIP3   OH258993   2.296   3.057  16.605  0.7443  0.2983  0.4577
12501TIP3    H158994   2.254   3.138  16.634 -0.2400 -0.9479  2.7209
12501TIP3    H258995   2.229   3.014  16.551  1.0088  0.6427 -0.1558
12502TIP3   OH258996   0.851   0.090   0.371  0.2907 -0.0438 -0.2548
12502TIP3    H158997   0.936   0.051   0.350  0.8356  2.0088 -2.3952
12502TIP3    H258998   0.872   0.180   0.395 -1.2622  0.4889 -0.7947
12503TIP3   OH258999   3.442   2.544  16.307 -0.1022  0.1146 -0.5246
12503TIP3    H159000   3.432   2.530  16.402 -0.8019  0.2840 -0.5675
12503TIP3    H259001   3.507   2.613  16.300  0.0977 -0.0336 -0.1709
12504TIP3   OH259002   1.155   1.751  14.110 -0.0724  0.1629 -0.2400
12504TIP3    H159003   1.195   1.682  14.163 -1.1331 -0.6528 -0.4643
12504TIP3    H259004   1.119   1.705  14.034 -0.2346  1.0565 -0.7169
12505TIP3   OH259005   0.146   2.717  15.688  0.5757  0.1029  0.4181
12505TIP3    H159006   0.194   2.718  15.605  1.4675 -0.9952  0.9013
12505TIP3    H259007   0.200   2.767  15.748 -0.8155  2.2630 -0.0006
12506TIP3   OH259008   6.560   3.536   5.753  0.4637  0.1831 -0.3943
12506TIP3    H159009   6.617   3.544   5.676  0.7002  0.4666 -0.1911
12506TIP3    H259010   6.608   3.476   5.811 -0.5119 -1.4293 -1.1913
12507TIP3   OH259011   5.049   4.288   5.747 -0.9011 -0.0089 -0.5948
12507TIP3    H159012   5.027   4.323   5.833  1.1629 -1.8076  0.7810
12507TIP3    H259013   5.039   4.193   5.757  0.9693 -0.3875 -1.7643
12508TIP3   OH259014   4.552   5.027  13.823  0.2772  0.0051  0.3187
12508TIP3    H159015   4.630   5.048  13.771 -0.3460  1.1538 -0.2043
12508TIP3    H259016   4.500   4.970  13.767  1.1082 -1.5081  1.0123
12509TIP3   OH259017   1.885   5.846  12.510  0.1563  0.4668  0.1247
12509TIP3    H159018   1.940   5.806  12.577 -0.1310 -1.3658 -0.6746
12509TIP3    H259019   1.796   5.836  12.544 -0.0310 -0.8853 -0.6761
12510TIP3   OH259020   0.696   4.329  14.994  0.1493  0.0560 -0.4755
12510TIP3    H159021   0.750   4.336  14.916 -0.3355  0.7544 -0.7500
12510TIP3    H259022   0.723   4.245  15.033 -0.6514 -1.0462 -2.1665
12511TIP3   OH259023   3.363   4.772   3.730 -0.0570 -0.4010  0.2212
12511TIP3    H159024   3.315   4.808   3.805  1.3014 -0.8067  1.3442
12511TIP3    H259025   3.447   4.743   3.767  1.1012  0.3458 -1.6607
12512TIP3   OH259026   3.495   3.619  16.768 -0.5750  0.0833  0.6667
12512TIP3    H159027   3.516   3.612  16.861  0.0443 -2.1357  0.4108
12512TIP3    H259028   3.553   3.689  16.736  0.3741 -0.2220  1.6437
12513TIP3   OH259029   4.869   6.258  16.625 -0.2267  0.5414 -0.2009
12513TIP3    H159030   4.854   6.165  16.640  2.1022  0.3198  1.3422
12513TIP3    H259031   4.796   6.302  16.668 -1.6101 -0.5375 -1.3603
12514TIP3   OH259032   5.620   6.014   4.445 -0.7514  0.0017  0.2312
12514TIP3    H159033   5.702   5.998   4.492 -1.8261 -3.2535  1.2873
12514TIP3    H259034   5.639   6.089   4.388  2.6737 -0.1058  1.0183
12515TIP3   OH259035   3.132   1.369   1.436 -0.3753  0.1339  0.2215
12515TIP3    H159036   3.153   1.350   1.527  0.7138 -0.5773 -0.1545
12515TIP3    H259037   3.055   1.426   1.440  0.1832  0.8295  1.6017
12516TIP3   OH259038   5.349   4.810  12.297  0.2537 -0.3248  0.5192
12516TIP3    H159039   5.389   4.814  12.384 -0.0616 -0.9862  0.6959
12516TIP3    H259040   5.274   4.869  12.302 -0.2752 -1.0236  0.9682
12517TIP3   OH259041   5.056   0.725  11.653  0.3422  0.0028  0.1570
12517TIP3    H159042   5.145   0.693  11.639  0.5155  0.8240 -0.7799
12517TIP3    H259043   5.062   0.782  11.729  0.5471 -0.2161  0.3049
12518TIP3   OH259044   5.601   4.473  16.488  0.1047  0.1366 -0.7107
12518TIP3    H159045   5.655   4.551  16.481 -2.2972  2.0369  0.4820
12518TIP3    H259046   5.601   4.452  16.582  0.8585 -1.4506 -1.0335
12519TIP3   OH259047   1.754   6.394  15.546  0.1654  0.4460  0.8151
12519TIP3    H159048   1.669   6.423  15.512  1.0957  2.4373 -0.0248
12519TIP3    H259049   1.733   6.338  15.620 -1.8847  0.1298  0.0476
12520TIP3   OH259050   3.787   4.603  16.980 -0.3569  0.0867 -0.0677
12520TIP3    H159051   3.694   4.585  16.994  0.3070 -2.9793  1.2554
12520TIP3    H259052   3.818   4.637  17.064 -0.0803  0.0918 -0.1710
12521TIP3   OH259053   6.677   0.938   6.570  0.5500  0.0412  0.3227
12521TIP3    H159054   6.763   0.941   6.611  1.2887 -0.3719 -1.1467
12521TIP3    H259055   6.692   0.902   6.483 -1.2554 -1.0085  0.3830
12522TIP3   OH259056   4.260   5.422   2.330 -0.4463  0.3485  0.3744
12522TIP3    H159057   4.253   5.330   2.302  0.1549  0.3904  0.0706
12522TIP3    H259058   4.324   5.420   2.401 -0.5704  0.5138  0.4920
12523TIP3   OH259059   3.755   4.055   3.638 -0.0508 -0.6402 -0.4569
12523TIP3    H159060   3.844   4.031   3.613 -0.2059 -1.4134 -0.2999
12523TIP3    H259061   3.763   4.091   3.726  0.1201 -0.5827 -0.4955
12524TIP3   OH259062   1.862   2.030   6.570  0.4903  0.5823  0.0821
12524TIP3    H159063   1.821   2.093   6.511  1.3570 -0.4616 -1.7097
12524TIP3    H259064   1.822   2.047   6.655 -1.7718  1.2762 -1.0492
12525TIP3   OH259065   5.421   2.507   3.701 -0.1122 -0.1774 -0.6202
12525TIP3    H159066   5.441   2.423   3.659  0.8060 -0.9643  1.2751
12525TIP3    H259067   5.394   2.484   3.790 -2.9293  1.3549 -0.9595
12526TIP3   OH259068   0.497   3.751   0.399 -0.5972  0.0330 -0.7270
12526TIP3    H159069   0.427   3.687   0.407  0.1798 -0.9071 -1.2368
12526TIP3    H259070   0.458   3.821   0.345 -0.6198 -1.3197 -2.5870
12527TIP3   OH259071   1.945   0.339  17.016 -0.1071  0.1589 -0.2932
12527TIP3    H159072   2.019   0.278  17.022 -1.6770 -1.8069  0.4691
12527TIP3    H259073   1.950   0.374  16.927 -1.3924 -4.3316 -2.4456
12528TIP3   OH259074   4.375   2.466  17.047  0.2747 -0.4411 -0.3227
12528TIP3    H159075   4.402   2.553  17.016  0.5271 -0.7403 -0.9503
12528TIP3    H259076   4.294   2.483  17.095  0.2567  0.1315 -0.5394
12529TIP3   OH259077   5.255   5.861  13.124  0.1816  0.5681  0.6543
12529TIP3    H159078   5.306   5.857  13.205 -0.6359  2.6042  1.3413
12529TIP3    H259079   5.197   5.937  13.136 -0.3960  0.5556 -1.5950
12530TIP3   OH259080   6.746   4.722  16.802  0.3722 -0.4828 -0.7543
12530TIP3    H159081   6.706   4.683  16.724 -3.5584 -1.5348  1.4850
12530TIP3    H259082   6.770   4.647  16.856 -1.1271  0.1048  0.8170
12531TIP3   OH259083   2.544   3.205   3.018 -0.1014 -0.2651 -0.5903
12531TIP3    H159084   2.592   3.123   3.011  1.5526  0.4237  1.5232
12531TIP3    H259085   2.612   3.273   3.020 -1.0256  0.7348  2.7163
12532TIP3   OH259086   4.751   5.363  12.632 -0.0035 -0.1224  0.5756
12532TIP3    H159087   4.703   5.441  12.605  0.6295  0.0781  0.0081
12532TIP3    H259088   4.797   5.389  12.712 -0.0100  0.0066  0.5371
12533TIP3   OH259089   4.789   5.935  11.088 -0.2868 -0.4257 -0.5976
12533TIP3    H159090   4.705   5.970  11.059 -0.6874 -0.6497  0.2571
12533TIP3    H259091   4.847   5.946  11.013 -0.6837  1.0788 -0.7158
12534TIP3   OH259092   1.683   2.758   4.502  0.1493 -0.1861  0.0269
12534TIP3    H159093   1.636   2.694   4.556 -1.9525 -0.2048 -1.6650
12534TIP3    H259094   1.645   2.747   4.415  0.4367  2.6550 -0.5452
12535TIP3   OH259095   4.992   3.302   3.956 -0.3254  0.0754 -0.5763
12535TIP3    H159096   4.963   3.286   4.046  0.9143 -0.5019 -0.2573
12535TIP3    H259097   5.021   3.393   3.957  0.8328 -0.2823 -0.0469
12536TIP3   OH259098   4.056   0.486   3.885  0.0378 -0.1590 -0.1001
12536TIP3    H159099   4.062   0.581   3.890 -2.8536  0.0463  0.7632
12536TIP3    H259100   4.148   0.457   3.888  0.9425  2.4430  2.4857
12537TIP3   OH259101   5.285   0.135   0.409 -0.2160  0.0447  0.0095
12537TIP3    H159102   5.292   0.193   0.485  0.2033  0.6797 -0.5073
12537TIP3    H259103   5.365   0.151   0.359 -0.5826 -0.2243 -0.6718
12538TIP3   OH259104   5.228   3.262  14.468  0.1009  0.4236 -0.3834
12538TIP3    H159105   5.161   3.232  14.407  2.8175 -0.6179 -3.1223
12538TIP3    H259106   5.244   3.186  14.525 -0.0711  0.2054 -0.6211
12539TIP3   OH259107   3.299   6.165  11.038  0.0444 -0.1382 -0.0513
12539TIP3    H159108   3.243   6.163  10.960  0.9064 -0.9914 -0.6677
12539TIP3    H259109   3.386   6.139  11.006  1.1728  2.5159  0.6181
12540TIP3   OH259110   3.203   5.175   3.679  0.1046 -0.0063 -0.1252
12540TIP3    H159111   3.111   5.156   3.662 -0.0164 -2.2411  2.4113
12540TIP3    H259112   3.247   5.152   3.598 -1.2952 -1.6492 -0.4906
12541TIP3   OH259113   4.783   5.752  16.476 -0.7546  0.2235 -0.6366
12541TIP3    H159114   4.769   5.756  16.381 -0.5474 -0.7100 -0.7183
12541TIP3    H259115   4.696   5.764  16.514 -0.5731  2.5897 -0.8599
12542TIP3   OH259116   6.586   0.112   3.856  0.1600  1.0901  0.0609
12542TIP3    H159117   6.645   0.160   3.915  0.1727  2.3385 -0.9348
12542TIP3    H259118   6.638   0.099   3.777 -0.0910  0.0190  0.0597
12543TIP3   OH259119   6.620   0.259  16.794  0.6960  0.1292  0.2010
12543TIP3    H159120   6.539   0.266  16.744  0.8724  0.6347 -0.0145
12543TIP3    H259121   6.687   0.293  16.736  0.8828  0.8681  0.8297
12544TIP3   OH259122   4.601   0.574  12.711  0.4860 -0.4598  0.1883
12544TIP3    H159123   4.640   0.516  12.646  0.1293 -0.0799 -0.3760
12544TIP3    H259124   4.646   0.658  12.699  0.7752 -0.5190  0.7827
12545TIP3   OH259125   3.748   3.655   6.596 -0.5879 -0.3239 -0.4070
12545TIP3    H159126   3.687   3.601   6.647 -1.3260 -1.4147 -2.3317
12545TIP3    H259127   3.830   3.606   6.597 -0.6926 -0.5038 -0.5241
12546TIP3   OH259128   1.410   1.216   0.879  0.3376 -0.0572 -0.3843
12546TIP3    H159129   1.475   1.210   0.949 -0.4603 -1.1914  0.3163
12546TIP3    H259130   1.343   1.151   0.904 -0.8571  0.7877 -1.2728
12547TIP3   OH259131   5.946   5.251   2.735  0.7177  0.3733  0.1727
12547TIP3    H159132   5.927   5.308   2.660 -1.8004 -0.2796  0.2328
12547TIP3    H259133   5.867   5.256   2.789  0.9835 -2.0870  0.8917
12548TIP3   OH259134   4.221   2.172   5.865  0.2954  0.0673 -0.2585
12548TIP3    H159135   4.154   2.135   5.807  0.0453 -0.7786  0.5544
12548TIP3    H259136   4.175   2.238   5.917  0.5789  1.0284 -1.1755
12549TIP3   OH259137   3.888   4.410  13.790 -0.3981 -0.1277 -0.4023
12549TIP3    H159138   3.951   4.451  13.849 -0.4503 -0.2792 -0.2394
12549TIP3    H259139   3.893   4.462  13.710 -0.8120  0.4923 -0.0335
12550TIP3   OH259140   6.019   3.006  12.211  0.1318  0.2869 -0.2797
12550TIP3    H159141   6.088   2.939  12.218 -0.1851  0.0381  0.6187
12550TIP3    H259142   5.985   2.996  12.122  1.0526  0.2093 -0.6329
12551TIP3   OH259143   5.676   6.573   3.260  0.0551  0.3334  0.4113
12551TIP3    H159144   5.615   6.630   3.308 -0.5690 -0.7316  0.9063
12551TIP3    H259145   5.620   6.512   3.213  0.6879  0.8977 -1.1305
12552TIP3   OH259146   5.098   6.579  11.384  0.1551 -0.5552  0.1542
12552TIP3    H159147   5.043   6.647  11.424 -0.1406 -0.7494  0.0862
12552TIP3    H259148   5.110   6.608  11.294  0.7653 -0.1506  0.3605
12553TIP3   OH259149   4.156   2.313   3.474 -0.2427  0.1778  0.3903
12553TIP3    H159150   4.212   2.284   3.546 -1.2662 -1.3871  0.6101
12553TIP3    H259151   4.182   2.258   3.400 -0.1187  0.8498 -0.0759
12554TIP3   OH259152   2.905   6.359  12.742  0.2173  0.4520  0.2974
12554TIP3    H159153   2.953   6.279  12.720 -0.7753  0.1206 -0.7774
12554TIP3    H259154   2.813   6.335  12.731 -0.1290  1.4955  0.8362
12555TIP3   OH259155   3.402   4.683  12.606  0.0659  0.2642 -0.3456
12555TIP3    H159156   3.496   4.693  12.622  0.1674 -0.3899 -0.5128
12555TIP3    H259157   3.379   4.759  12.552  1.0428 -0.8506 -2.4985
12556TIP3   OH259158   6.346   1.339  16.228 -0.3166  0.4760 -0.3459
12556TIP3    H159159   6.384   1.256  16.258 -1.7273 -0.3810 -0.8729
12556TIP3    H259160   6.365   1.400  16.300  0.3539 -0.3973  0.2477
12557TIP3   OH259161   5.612   5.524  14.324 -0.4534 -0.0853 -0.5214
12557TIP3    H159162   5.694   5.556  14.287 -1.0041  0.9883 -0.8776
12557TIP3    H259163   5.603   5.435  14.289 -0.6201  0.6446 -2.4789
12558TIP3   OH259164   3.613   1.279  11.643 -0.2335 -0.3749  0.6621
12558TIP3    H159165   3.591   1.220  11.716  0.3604 -1.1418  0.2376
12558TIP3    H259166   3.574   1.238  11.566  0.3708 -0.3294  0.3279
12559TIP3   OH259167   6.351   5.770   2.230  0.4584  0.0191  0.0391
12559TIP3    H159168   6.434   5.740   2.267  0.3926  0.2331  0.3602
12559TIP3    H259169   6.368   5.774   2.136  0.8967  0.3170  0.1251
12560TIP3   OH259170   3.239   2.690  12.154  0.7393 -0.2175  0.1074
12560TIP3    H159171   3.146   2.670  12.157  1.1818 -2.6671 -0.3333
12560TIP3    H259172   3.271   2.672  12.242  0.6189  2.0452  0.6875
12561TIP3   OH259173   6.042   5.692  12.965  0.1748 -0.4740  0.0585
12561TIP3    H159174   6.042   5.620  13.028 -1.5562  0.1716  0.8639
12561TIP3    H259175   6.055   5.771  13.019  2.1565 -0.1283 -0.8201
12562TIP3   OH259176   3.914   3.786  15.322 -0.2728 -0.5671 -0.4527
12562TIP3    H159177   3.891   3.822  15.237  1.5067  0.6703 -0.4680
12562TIP3    H259178   3.888   3.694  15.317 -2.0864 -0.0439 -1.5452
12563TIP3   OH259179   5.921   6.570  16.513 -0.2945  0.5301  0.2520
12563TIP3    H159180   5.933   6.635  16.583 -0.0604  0.3943  0.3399
12563TIP3    H259181   5.894   6.491  16.558 -0.1514  0.4446  0.1892
12564TIP3   OH259182   1.188   3.288   1.441  0.2524 -0.4309  0.2200
12564TIP3    H159183   1.173   3.284   1.346  0.3714 -0.2368  0.1935
12564TIP3    H259184   1.142   3.366   1.470  0.8642 -0.0622  0.2014
12565TIP3   OH259185   4.430   4.509  12.084  0.2419 -0.2306 -0.4841
12565TIP3    H159186   4.511   4.533  12.129  0.9098 -0.8409 -1.3161
12565TIP3    H259187   4.361   4.526  12.148  1.0919 -0.4034  0.5153
12566TIP3   OH259188   3.396   3.178   3.851 -0.3097 -0.0668  0.0190
12566TIP3    H159189   3.438   3.244   3.797  0.2657 -1.7236 -1.6644
12566TIP3    H259190   3.303   3.182   3.826 -0.6639  1.4202  1.4101
12567TIP3   OH259191   0.251   3.858  10.232  0.4479  0.2139  0.4778
12567TIP3    H159192   0.237   3.934  10.289  1.0841  2.9828 -2.7487
12567TIP3    H259193   0.314   3.888  10.166 -0.2019 -2.7319 -1.7168
12568TIP3   OH259194   1.411   4.934   4.371  0.2958  0.4831  0.1772
12568TIP3    H159195   1.325   4.976   4.378 -0.7129 -1.0493 -1.8331
12568TIP3    H259196   1.465   4.979   4.436 -1.3700  3.0768 -0.0701
12569TIP3   OH259197   5.927   4.800   3.736  0.2343 -0.3748  0.3437
12569TIP3    H159198   5.836   4.786   3.710 -0.2462  2.1133  0.4210
12569TIP3    H259199   5.953   4.718   3.780 -1.2315 -1.9462 -1.5541
12570TIP3   OH259200   2.726   5.925   0.032  0.2504  0.7240  0.6795
12570TIP3    H159201   2.777   5.952   0.108 -0.4789 -1.6529  2.0955
12570TIP3    H259202   2.780   5.859  -0.011  0.4544  1.7193 -0.6763
12571TIP3   OH259203   3.612   3.838  15.231 -0.0667  0.2892 -0.1310
12571TIP3    H159204   3.602   3.754  15.185  0.7500  0.3654 -0.4527
12571TIP3    H259205   3.606   3.904  15.162  0.8026  0.4208 -0.0851
12572TIP3   OH259206   1.176   6.373  15.925 -0.1014 -0.2675  0.2135
12572TIP3    H159207   1.224   6.291  15.936 -1.1461 -1.0503 -0.8906
12572TIP3    H259208   1.158   6.378  15.831 -0.6974  0.8543  0.3739
12573TIP3   OH259209   0.721   1.652   3.028  0.1276  0.3369 -0.1595
12573TIP3    H159210   0.640   1.686   2.988  0.2052  1.2326  0.4089
12573TIP3    H259211   0.787   1.661   2.959 -0.6371 -2.3677 -1.3781
12574TIP3   OH259212   2.313   2.992   6.035  0.2815 -0.3544 -0.0956
12574TIP3    H159213   2.332   2.919   5.976 -0.5592 -1.3027  0.7610
12574TIP3    H259214   2.289   3.064   5.977  0.0027 -1.0990 -0.9285
12575TIP3   OH259215   4.431   5.821  13.253 -0.2286  0.2753  0.3385
12575TIP3    H159216   4.375   5.859  13.321  0.2514  0.4953  0.6194
12575TIP3    H259217   4.371   5.776  13.194 -1.0409  2.7407 -0.8795
12576TIP3   OH259218   0.244   4.640  14.841  0.1161  0.2957 -0.4212
12576TIP3    H159219   0.168   4.630  14.897  0.4641  2.6189  0.5457
12576TIP3    H259220   0.304   4.571  14.869 -0.1966  0.6847  1.2899
12577TIP3   OH259221   5.770   1.060   3.054 -0.6989 -0.7219  0.1005
12577TIP3    H159222   5.691   1.110   3.036 -1.0893 -0.4748  2.2481
12577TIP3    H259223   5.738   0.974   3.081 -0.1660 -1.0369 -0.2565
12578TIP3   OH259224   1.940   3.522  13.400  0.3123  0.1132 -0.0562
12578TIP3    H159225   1.893   3.544  13.481  0.0206  0.9038 -0.4304
12578TIP3    H259226   1.999   3.596  13.386  1.9061 -0.9934  0.5573
12579TIP3   OH259227   6.215   4.607   5.224 -0.3423 -0.6416  0.5400
12579TIP3    H159228   6.295   4.614   5.173  0.1188 -2.4994  0.9385
12579TIP3    H259229   6.171   4.529   5.190 -0.5016 -1.3558  2.2780
12580TIP3   OH259230   6.630   2.605  16.357  0.0362 -0.4443 -0.8572
12580TIP3    H159231   6.606   2.533  16.298  0.3171 -0.1709 -1.3147
12580TIP3    H259232   6.592   2.683  16.317 -0.1327 -0.3136 -0.4494
12581TIP3   OH259233   6.731   2.341  15.867 -0.1339 -0.1494  0.5565
12581TIP3    H159234   6.821   2.308  15.860 -0.5386 -1.2093  0.1384
12581TIP3    H259235   6.730   2.418  15.811  0.0699 -1.1735 -0.9271
12582TIP3   OH259236   4.240   2.817   0.574 -0.4077  0.3306  0.0401
12582TIP3    H159237   4.287   2.733   0.572  0.2655  0.5281  3.1159
12582TIP3    H259238   4.288   2.873   0.512 -0.1560 -1.1467 -1.1666
12583TIP3   OH259239   2.270   1.112  13.259  0.1670 -0.0108  0.0975
12583TIP3    H159240   2.201   1.046  13.259  0.6918 -0.5964 -1.0583
12583TIP3    H259241   2.334   1.080  13.195  1.2190  0.8156  0.6958
12584TIP3   OH259242   6.027   3.780   3.824 -0.3338 -0.6474 -0.2679
12584TIP3    H159243   6.062   3.828   3.749 -0.8745  0.9657  0.4619
12584TIP3    H259244   5.937   3.759   3.799 -0.3453 -0.5834 -0.2799
12585TIP3   OH259245   6.310   0.214   5.059 -0.5435  0.1707 -0.0311
12585TIP3    H159246   6.284   0.289   5.113 -0.3334 -2.4007  4.0477
12585TIP3    H259247   6.405   0.222   5.052 -0.4763  0.1138  0.7280
12586TIP3   OH259248   4.591   3.757  16.263 -0.2367 -0.1769 -0.6108
12586TIP3    H159249   4.677   3.716  16.261 -1.1575 -2.3307  0.6933
12586TIP3    H259250   4.588   3.803  16.347 -0.8808 -1.4210  0.0725
12587TIP3   OH259251   2.705   0.411   2.877  0.6819  0.3022 -0.2825
12587TIP3    H159252   2.728   0.379   2.790  1.1576  0.8779 -0.3727
12587TIP3    H259253   2.743   0.347   2.937 -0.4532 -0.6123 -0.5053
12588TIP3   OH259254   6.397   3.971   5.834  0.0754 -0.8863 -0.4465
12588TIP3    H159255   6.400   3.878   5.856 -1.8652 -1.0344 -0.6689
12588TIP3    H259256   6.378   3.973   5.740  0.7967 -0.2527 -0.5913
12589TIP3   OH259257   1.176   4.124   3.333 -0.1918 -0.0800 -0.0654
12589TIP3    H159258   1.267   4.093   3.333 -0.9139 -2.4200  1.1611
12589TIP3    H259259   1.183   4.217   3.356  1.8510 -0.4354  1.0157
12590TIP3   OH259260   6.061   2.329   2.387 -0.0615  0.2944  0.2937
12590TIP3    H159261   6.061   2.248   2.437 -0.8263  0.2443  0.2277
12590TIP3    H259262   6.124   2.315   2.317  0.6313  0.1736  0.9326
12591TIP3   OH259263   0.737   2.819   1.198 -0.4262  0.5614  0.1397
12591TIP3    H159264   0.802   2.888   1.186 -0.6260  0.6316 -0.5923
12591TIP3    H259265   0.713   2.793   1.109  0.8331 -1.6042  0.3635
12592TIP3   OH259266   6.691   4.809  13.894  0.3704 -0.2758  0.3889
12592TIP3    H159267   6.779   4.772  13.903  1.5876  2.6895  2.1856
12592TIP3    H259268   6.662   4.826  13.983 -0.4599  2.0520 -0.2463
12593TIP3   OH259269   0.878   3.905   2.989  0.0830 -0.0310  0.8964
12593TIP3    H159270   0.923   3.871   3.067  0.6983  0.2607  0.6753
12593TIP3    H259271   0.946   3.954   2.942 -0.2791 -0.2231  0.1655
12594TIP3   OH259272   5.233   2.410  14.145 -0.2902  0.3351  0.0736
12594TIP3    H159273   5.215   2.365  14.063 -0.1874 -1.1352  0.8186
12594TIP3    H259274   5.226   2.503  14.124 -0.8396 -0.0249 -1.4522
12595TIP3   OH259275   1.911   5.018  13.005  0.6074 -0.2831 -0.2876
12595TIP3    H159276   1.859   5.004  13.084  0.6210  0.1504 -0.1957
12595TIP3    H259277   1.995   4.975  13.023  0.3119 -0.9071 -0.4038
12596TIP3   OH259278   3.894   1.988  12.123  0.2474 -0.4121 -0.8622
12596TIP3    H159279   3.982   1.966  12.093  0.5586  0.4232 -0.5680
12596TIP3    H259280   3.897   2.082  12.140 -1.1005 -0.0813 -2.2230
12597TIP3   OH259281   4.249   0.869  12.890  0.2760 -0.0682 -0.2190
12597TIP3    H159282   4.161   0.868  12.852 -0.0215  1.1580  0.3785
12597TIP3    H259283   4.301   0.922  12.830  0.5718 -0.6462 -0.4789
12598TIP3   OH259284   0.170   5.134   6.618 -0.3356  0.3295 -0.5052
12598TIP3    H159285   0.100   5.098   6.564 -2.2122  1.0081  1.3533
12598TIP3    H259286   0.182   5.072   6.689  0.5252  0.5351 -0.4493
12599TIP3   OH259287   5.921   5.481  15.960 -0.3991  0.6748  0.2881
12599TIP3    H159288   5.849   5.459  16.018 -2.3418  1.1849 -1.7769
12599TIP3    H259289   5.910   5.574  15.941  0.5908  0.6870 -0.3631
12600TIP3   OH259290   4.286   5.636  12.057  0.3495  0.5728 -0.0448
12600TIP3    H159291   4.204   5.682  12.075 -1.0164 -1.0629 -1.6436
12600TIP3    H259292   4.293   5.635  11.962  1.2911 -0.8413  0.0072
12601TIP3   OH259293   2.275   6.097  12.793  0.4695  0.0238 -0.1416
12601TIP3    H159294   2.277   6.056  12.880  1.3310 -2.1866 -1.1378
12601TIP3    H259295   2.184   6.089  12.765  0.4464 -0.3970  0.0413
12602TIP3   OH259296   4.604   0.133  15.873  0.0042  0.2464  0.3525
12602TIP3    H159297   4.521   0.179  15.886 -0.2173 -0.1645  0.4125
12602TIP3    H259298   4.671   0.200  15.887 -0.3005  0.4418  0.8866
12603TIP3   OH259299   1.232   6.570   4.244 -0.1092 -0.2309 -0.1155
12603TIP3    H159300   1.243   6.654   4.289  0.2941  0.5711 -1.6450
12603TIP3    H259301   1.216   6.594   4.153 -4.4710 -1.6058  0.0392
12604TIP3   OH259302   0.950   4.391  11.365 -0.1901 -0.2102  0.6022
12604TIP3    H159303   1.032   4.439  11.377  0.0352 -0.3872 -0.1828
12604TIP3    H259304   0.923   4.412  11.276 -1.4960  0.5927  1.1579
12605TIP3   OH259305   3.835   5.823   2.013  0.2367 -0.2048  0.3023
12605TIP3    H159306   3.846   5.728   2.015  2.9291  0.0438  0.4724
12605TIP3    H259307   3.889   5.853   1.940  0.9431  1.3387  1.3880
12606TIP3   OH259308   0.613   2.003  14.013 -0.2679  0.0288 -0.2081
12606TIP3    H159309   0.606   2.084  13.962 -0.6554 -0.9539 -1.7650
12606TIP3    H259310   0.605   2.032  14.104  0.6829  1.8522 -0.6627
12607TIP3   OH259311   3.847   6.205   4.350 -0.0637 -0.9386 -0.3882
12607TIP3    H159312   3.843   6.290   4.392 -0.2221 -1.4618  0.6894
12607TIP3    H259313   3.920   6.212   4.288  0.2764 -0.2036  0.0873
12608TIP3   OH259314   5.705   5.775  16.313  0.0684 -0.2120  0.0281
12608TIP3    H159315   5.723   5.833  16.238 -0.2220 -0.4549 -0.2317
12608TIP3    H259316   5.610   5.769  16.316 -0.0892  1.8249  1.9772
12609TIP3   OH259317   5.765   0.534  16.291  0.1604 -0.3679  0.2513
12609TIP3    H159318   5.707   0.588  16.237  0.2149  1.1952  1.6815
12609TIP3    H259319   5.817   0.484  16.228  0.4833  1.6435 -1.1675
12610TIP3   OH259320   1.403   6.087   1.003  0.3822  0.3700 -0.2719
12610TIP3    H159321   1.310   6.066   1.015  1.1742 -3.1717  0.8542
12610TIP3    H259322   1.417   6.076   0.909 -0.0834 -0.4264 -0.2608
12611TIP3   OH259323   2.669   2.468  16.492  0.5166  0.7409  0.0773
12611TIP3    H159324   2.634   2.461  16.581  1.1246  1.2793  0.3654
12611TIP3    H259325   2.611   2.531  16.449  0.3178  0.6026  0.1430
12612TIP3   OH259326   0.359   1.492   2.036  0.2200  0.8583  1.1242
12612TIP3    H159327   0.423   1.441   1.986 -1.3734 -0.5364  0.4042
12612TIP3    H259328   0.339   1.567   1.979 -1.0910 -0.3750 -0.1141
12613TIP3   OH259329   1.807   1.962  13.102 -0.1518 -1.0251 -0.3677
12613TIP3    H159330   1.747   1.924  13.165 -2.9180  1.1154 -1.4942
12613TIP3    H259331   1.805   2.056  13.121  0.9902 -0.6287 -1.9866
12614TIP3   OH259332   0.958   1.276   5.563 -0.2361 -0.1078  0.7638
12614TIP3    H159333   1.049   1.284   5.592  0.1315 -0.9114 -0.1155
12614TIP3    H259334   0.908   1.329   5.625  0.9298  1.0415  0.7638
12615TIP3   OH259335   5.220   4.777  16.524  0.6703  0.0332  0.1556
12615TIP3    H159336   5.248   4.857  16.568 -0.4685 -0.6353  2.2528
12615TIP3    H259337   5.247   4.707  16.583  0.5440 -1.0566 -1.0333
12616TIP3   OH259338   6.622   5.470  12.403 -0.1618 -0.4633  0.6763
12616TIP3    H159339   6.687   5.440  12.340 -0.2165  1.0437 -0.1568
12616TIP3    H259340   6.541   5.426  12.379  0.0638 -0.7061  0.3622
12617TIP3   OH259341   5.654   4.988  12.421  0.1729  0.2306  0.1474
12617TIP3    H159342   5.640   4.895  12.440 -1.2246  0.3899  0.0169
12617TIP3    H259343   5.698   4.989  12.336 -1.7678 -0.3114 -0.9370
12618TIP3   OH259344   0.720   4.573   3.049 -0.6634 -0.2559 -0.0757
12618TIP3    H159345   0.669   4.503   3.009 -1.1006  0.3575 -0.6186
12618TIP3    H259346   0.767   4.614   2.975  0.3568 -0.5964  0.3682
12619TIP3   OH259347   2.106   1.295   3.922 -0.1771  0.6092 -0.0476
12619TIP3    H159348   2.096   1.200   3.908  2.8471  0.1867 -0.0859
12619TIP3    H259349   2.099   1.332   3.834 -0.8490  0.3621 -0.1040
12620TIP3   OH259350   1.139   2.763  11.568 -0.3047  0.4618  0.2739
12620TIP3    H159351   1.139   2.713  11.649 -1.7035 -1.7627 -0.9902
12620TIP3    H259352   1.211   2.725  11.517 -0.7808  0.3664 -0.3400
12621TIP3   OH259353   0.682   1.697   3.731  0.4628  0.0846 -0.4395
12621TIP3    H159354   0.702   1.788   3.711  2.4605 -0.4616 -1.1701
12621TIP3    H259355   0.718   1.683   3.819  3.0689 -0.7394 -1.5215
12622TIP3   OH259356   2.486   0.944  14.581  0.5135  0.0427  0.4249
12622TIP3    H159357   2.480   0.901  14.496 -3.2188 -2.2391  1.6083
12622TIP3    H259358   2.550   1.015  14.568 -0.2892  0.2080 -4.3810
12623TIP3   OH259359   2.740   2.366   3.488 -0.2041  0.4039 -0.6078
12623TIP3    H159360   2.823   2.332   3.453 -0.6931 -1.8145  0.2420
12623TIP3    H259361   2.687   2.385   3.411  0.4699  0.2084 -1.1299
12624TIP3   OH259362   2.158   0.003  11.550  0.5259 -0.4620 -0.2138
12624TIP3    H159363   2.178  -0.032  11.637  0.0637  1.4577  0.7333
12624TIP3    H259364   2.243   0.015  11.509  0.7558 -1.2742  0.0101
12625TIP3   OH259365   4.857   3.452   5.191  0.2962 -0.7207 -0.2250
12625TIP3    H159366   4.911   3.457   5.112  1.4402 -0.5006  0.5395
12625TIP3    H259367   4.799   3.377   5.176  0.7544 -0.9158 -1.1088
12626TIP3   OH259368   3.999   1.932  12.381 -0.0163  0.4527 -0.0096
12626TIP3    H159369   4.001   2.002  12.446 -0.6594 -0.1236  0.6639
12626TIP3    H259370   3.939   1.963  12.313 -0.6243  0.3964  0.4921
12627TIP3   OH259371   5.894   4.707  11.214 -0.0494  0.1884  0.2429
12627TIP3    H159372   5.862   4.757  11.139  2.3176  0.9025 -0.3780
12627TIP3    H259373   5.816   4.661  11.247 -1.5084  1.2166 -1.5525
12628TIP3   OH259374   6.078   3.887   1.001 -0.2780  0.2648  0.2730
12628TIP3    H159375   5.988   3.853   0.992  0.2405 -0.8091 -1.3536
12628TIP3    H259376   6.076   3.939   1.082 -1.9228 -1.1554  1.2280
12629TIP3   OH259377   3.259   5.863  16.394 -0.2304  0.9557  0.0367
12629TIP3    H159378   3.287   5.941  16.347  2.7506  0.1908  0.3547
12629TIP3    H259379   3.305   5.791  16.350 -1.0442 -0.3524  1.2362
12630TIP3   OH259380   0.053   0.680  11.427  0.5338  0.6213  0.1847
12630TIP3    H159381  -0.005   0.664  11.352  1.4234  0.0973 -0.3969
12630TIP3    H259382   0.123   0.734  11.392  0.4800  1.1542  0.8668
12631TIP3   OH259383   2.279   4.199   5.990  0.8578  0.0760 -0.3080
12631TIP3    H159384   2.283   4.283   6.036 -0.5181  0.1757 -0.3358
12631TIP3    H259385   2.234   4.140   6.049 -0.1242 -0.0386 -1.1362
12632TIP3   OH259386   6.593   1.238   6.037 -0.1235  0.0604 -0.7916
12632TIP3    H159387   6.553   1.314   6.078 -0.1289 -0.6321  0.5282
12632TIP3    H259388   6.527   1.169   6.043 -0.4675  0.1473 -2.7783
12633TIP3   OH259389   4.413   6.021  14.900 -0.0390  0.0632  0.1315
12633TIP3    H159390   4.364   6.052  14.824  1.0808 -2.1179 -1.6113
12633TIP3    H259391   4.467   6.096  14.926  0.9253  0.3717 -2.4606
12634TIP3   OH259392   0.694   1.819  13.382  0.0767 -0.3911 -0.3939
12634TIP3    H159393   0.708   1.908  13.350  0.0496  0.4869  1.8348
12634TIP3    H259394   0.751   1.765  13.328  0.5712  1.0699 -1.3953
12635TIP3   OH259395   2.951   2.570   2.298 -0.4050 -0.1247  0.3754
12635TIP3    H159396   2.924   2.479   2.317  1.3775 -1.0277 -1.1227
12635TIP3    H259397   3.030   2.582   2.349 -0.8794  0.7868  0.9200
12636TIP3   OH259398   6.612   2.796  14.327  0.0661 -0.0860  0.4210
12636TIP3    H159399   6.696   2.781  14.282  0.0701 -0.4861  0.5542
12636TIP3    H259400   6.615   2.736  14.402 -0.0052  0.4599  0.8690
12637TIP3   OH259401   5.911   2.653   1.692 -0.0129 -0.0720 -0.3415
12637TIP3    H159402   5.858   2.634   1.615  1.2856 -1.1808 -1.0012
12637TIP3    H259403   5.858   2.622   1.766 -1.0853  0.6077 -0.8065
12638TIP3   OH259404   4.964   2.851  13.740 -0.6017  0.1948  0.4077
12638TIP3    H159405   4.907   2.819  13.670 -0.1151 -0.1977  0.1746
12638TIP3    H259406   4.905   2.890  13.804 -0.9583  2.0009 -0.9364
12639TIP3   OH259407   6.319   4.513   4.662  0.0879  0.1670  0.2148
12639TIP3    H159408   6.227   4.493   4.680  0.2529  0.0655  0.9802
12639TIP3    H259409   6.325   4.514   4.567 -0.4189 -1.1842  0.1473
12640TIP3   OH259410   4.888   2.672  14.678 -0.0649  0.0474 -0.2547
12640TIP3    H159411   4.793   2.667  14.676 -0.0992  0.6015 -2.4795
12640TIP3    H259412   4.914   2.612  14.748 -2.0021 -0.5248  0.0329
12641TIP3   OH259413   0.038   6.367  12.108  0.8447 -0.1806 -0.3665
12641TIP3    H159414   0.076   6.450  12.140 -1.1650 -0.0654  2.0546
12641TIP3    H259415   0.069   6.301  12.171 -0.8611 -0.4876  0.2173
12642TIP3   OH259416   4.275   3.243   3.603  0.2914  0.3406  0.5839
12642TIP3    H159417   4.358   3.252   3.649 -0.0996 -0.0733  1.4003
12642TIP3    H259418   4.209   3.264   3.669 -0.2124  2.6864 -0.5843
12643TIP3   OH259419   6.327   3.603   4.680 -0.0166 -0.3264  0.0107
12643TIP3    H159420   6.406   3.609   4.625  0.8160  0.1403  1.2202
12643TIP3    H259421   6.288   3.519   4.656  2.5204 -2.0820  1.5258
12644TIP3   OH259422   0.196   2.717   3.543 -0.6881 -0.6994 -0.1222
12644TIP3    H159423   0.276   2.736   3.495 -0.6540  2.2164  0.8780
12644TIP3    H259424   0.213   2.632   3.586  2.2429  0.2231  0.7612
12645TIP3   OH259425   5.912   1.417   5.161 -0.1300 -0.0831  0.0684
12645TIP3    H159426   5.913   1.483   5.231 -1.2221  0.4433 -0.3828
12645TIP3    H259427   5.991   1.365   5.175  0.6931  1.2459  0.5180
12646TIP3   OH259428   0.198   1.546  13.575 -0.1655  0.1934 -0.5593
12646TIP3    H159429   0.217   1.573  13.485  0.0628  0.3694 -0.4590
12646TIP3    H259430   0.103   1.532  13.576 -0.0258 -0.8056 -1.0865
12647TIP3   OH259431   4.184   4.273  13.716  0.3938  0.0963  0.4514
12647TIP3    H159432   4.207   4.201  13.658  0.3733  1.6377 -1.5947
12647TIP3    H259433   4.123   4.236  13.778 -0.3632 -1.4491 -1.1394
12648TIP3   OH259434   2.805   2.320   2.357  0.2749 -0.8797  0.3385
12648TIP3    H159435   2.872   2.286   2.417 -0.7311 -0.8322  1.5496
12648TIP3    H259436   2.730   2.262   2.370  0.6501 -2.1395 -2.4263
12649TIP3   OH259437   3.090   6.562  13.777 -0.4221  0.2026 -0.9098
12649TIP3    H159438   3.137   6.515  13.845  0.6485  2.3426 -0.0726
12649TIP3    H259439   3.146   6.554  13.699 -0.6777 -0.6131 -1.0137
12650TIP3   OH259440   3.508   4.010   3.933 -0.8593 -0.9272  0.1406
12650TIP3    H159441   3.434   4.020   3.993 -0.5904 -0.0372  0.3398
12650TIP3    H259442   3.483   3.937   3.876 -2.5912  0.2783 -0.7625
12651TIP3   OH259443   3.760   5.513   5.042  0.8788  0.7730 -0.0846
12651TIP3    H159444   3.821   5.476   4.978  2.6527  0.0413  1.8931
12651TIP3    H259445   3.808   5.509   5.125 -1.3766  1.5021  1.3368
12652TIP3   OH259446   4.057   5.896   2.599 -0.1643 -1.0630 -0.2532
12652TIP3    H159447   4.124   5.874   2.533  0.5170 -1.0401  0.4214
12652TIP3    H259448   4.043   5.814   2.646 -0.6187 -1.0653 -0.3880
12653TIP3   OH259449   1.065   2.180  11.882 -0.0075 -0.1606 -0.0363
12653TIP3    H159450   0.999   2.181  11.951  0.5051  0.8335  0.4606
12653TIP3    H259451   1.046   2.101  11.831  0.4121 -1.6559  2.0073
12654TIP3   OH259452   1.455   2.009   0.479 -0.1831 -0.0542  0.1647
12654TIP3    H159453   1.391   2.079   0.462 -1.7109 -1.6985 -1.3403
12654TIP3    H259454   1.536   2.056   0.499 -1.0847  2.1592 -0.9188
12655TIP3   OH259455   4.850   6.058  12.765 -0.1119  0.2450  0.2849
12655TIP3    H159456   4.811   6.109  12.695 -2.0065 -0.9878  0.3796
12655TIP3    H259457   4.850   5.968  12.733 -1.5081 -0.4352  2.0086
12656TIP3   OH259458   5.286   5.842  13.875 -0.2989  0.0607 -0.3348
12656TIP3    H159459   5.248   5.918  13.832  1.3048  0.7986 -0.5423
12656TIP3    H259460   5.213   5.799  13.918 -1.3215  1.4834 -0.5853
12657TIP3   OH259461   5.839   2.585  14.524 -0.4213 -0.6208  0.2240
12657TIP3    H159462   5.795   2.528  14.461 -0.0610 -2.9535  1.9475
12657TIP3    H259463   5.794   2.570  14.607  0.0918  1.2020  0.8994
12658TIP3   OH259464   5.651   0.483   4.131 -0.3904 -0.1620 -0.1760
12658TIP3    H159465   5.657   0.525   4.217  1.1370 -1.7568  0.5699
12658TIP3    H259466   5.718   0.527   4.078 -1.6262  1.1206 -0.7442
12659TIP3   OH259467   4.151   3.357   3.802 -0.2308 -0.0628 -0.4478
12659TIP3    H159468   4.130   3.450   3.792 -0.6956 -0.0946  0.2015
12659TIP3    H259469   4.208   3.353   3.879 -0.8091 -0.3909 -0.0264
12660TIP3   OH259470   1.264   3.819   3.479  0.5227  0.3286 -0.2309
12660TIP3    H159471   1.238   3.734   3.513  1.6576  0.5446  1.2805
12660TIP3    H259472   1.342   3.801   3.425  0.6112  0.3791 -0.1200
12661TIP3   OH259473   3.716   1.939   2.721 -0.5292 -0.2843  0.0428
12661TIP3    H159474   3.749   1.850   2.733 -0.1577 -0.2176 -0.4686
12661TIP3    H259475   3.621   1.929   2.712 -0.4541 -0.6617 -0.3549
12662TIP3   OH259476   4.321   2.552   1.518 -0.6500 -0.4255 -0.6040
12662TIP3    H159477   4.370   2.591   1.591 -0.4130 -1.6953 -0.0582
12662TIP3    H259478   4.312   2.624   1.455  0.7554  0.2136 -0.1407
12663TIP3   OH259479   1.934   5.485  12.189  0.4400 -0.5984 -0.4408
12663TIP3    H159480   1.931   5.395  12.220  2.3206 -0.9405 -1.1184
12663TIP3    H259481   2.010   5.523  12.233  0.1302  0.4247 -0.7505
12664TIP3   OH259482   1.461   1.513  14.972  0.4089  0.2745 -0.1624
12664TIP3    H159483   1.402   1.588  14.971  0.1015  0.1019  1.5925
12664TIP3    H259484   1.404   1.437  14.960  0.2579  0.1308  1.2294
12665TIP3   OH259485   4.646   4.320  14.763 -0.1809 -0.5118  0.1629
12665TIP3    H159486   4.725   4.374  14.759  2.0740 -3.2893  2.4776
12665TIP3    H259487   4.627   4.313  14.857 -0.6053 -3.2555 -0.0531
12666TIP3   OH259488   4.882   1.017   1.233  0.7851 -0.6371 -0.0662
12666TIP3    H159489   4.928   1.101   1.237  0.0852 -0.2311 -0.4438
12666TIP3    H259490   4.835   1.012   1.317  1.4902 -1.0440  0.3123
12667TIP3   OH259491   4.204   5.586  14.290 -0.5504  0.2241 -0.1309
12667TIP3    H159492   4.160   5.501  14.289 -1.6324  0.7539 -1.5608
12667TIP3    H259493   4.279   5.575  14.233 -0.5049  0.1433 -0.0561
12668TIP3   OH259494   2.693   4.409  12.572  0.0376  0.2207  0.4806
12668TIP3    H159495   2.711   4.430  12.480 -1.5419 -0.4441 -0.0243
12668TIP3    H259496   2.688   4.314  12.574  1.6291  0.1174  1.6145
12669TIP3   OH259497   4.831   6.690  16.216 -0.7815  0.9635 -0.0632
12669TIP3    H159498   4.919   6.674  16.249  0.1723  2.4905 -1.7164
12669TIP3    H259499   4.777   6.698  16.295  0.3282 -0.9480  0.9691
12670TIP3   OH259500   1.516   0.328  11.245 -0.0023  0.4799  0.2248
12670TIP3    H159501   1.593   0.382  11.263  0.6369 -0.5596  0.7372
12670TIP3    H259502   1.522   0.256  11.308 -0.0802 -0.9221 -1.2916
12671TIP3   OH259503   4.101   5.298  13.456  0.0196  0.0645  0.2159
12671TIP3    H159504   4.141   5.211  13.463  0.6686  0.3687  0.3634
12671TIP3    H259505   4.024   5.294  13.513 -0.1102 -0.4998  0.0053
12672TIP3   OH259506   5.440   1.412   3.956  0.6024  0.1318 -0.1104
12672TIP3    H159507   5.473   1.473   3.891  1.8158 -1.2642 -0.8786
12672TIP3    H259508   5.515   1.391   4.011  0.3215 -0.9134 -0.0847
12673TIP3   OH259509   4.626   6.433  16.261  0.3132  0.3945  0.1172
12673TIP3    H159510   4.634   6.500  16.329 -0.0710  0.2271  0.3319
12673TIP3    H259511   4.652   6.352  16.304  0.2873  0.3218 -0.0020
12674TIP3   OH259512   1.429   3.820   4.531  0.5248 -0.4331  0.7029
12674TIP3    H159513   1.488   3.765   4.583  0.7891  0.9877  1.9828
12674TIP3    H259514   1.486   3.886   4.493 -0.2350  1.2161  2.2960
12675TIP3   OH259515   5.283   2.245  10.985 -0.5305 -0.2600  0.6723
12675TIP3    H159516   5.274   2.283  10.897 -0.1703 -1.0963  0.2681
12675TIP3    H259517   5.366   2.197  10.982 -1.0945 -1.2795  1.0995
12676TIP3   OH259518   6.281   4.651  15.368  0.5549 -0.5715 -0.2384
12676TIP3    H159519   6.192   4.617  15.361  0.0838  0.6279 -0.3026
12676TIP3    H259520   6.323   4.625  15.286  0.2930 -1.1740 -0.1908
12677TIP3   OH259521   2.814   6.261   5.270 -0.1671 -0.4077 -0.4039
12677TIP3    H159522   2.741   6.259   5.331 -0.4325 -2.0213 -0.7250
12677TIP3    H259523   2.891   6.278   5.324 -0.7852  1.8832 -0.1296
12678TIP3   OH259524   4.852   2.754  15.607 -0.0984  0.2500  0.0826
12678TIP3    H159525   4.899   2.825  15.650  2.9409  0.3577 -2.9360
12678TIP3    H259526   4.889   2.674  15.645  1.3573  0.3567 -0.9980
12679TIP3   OH259527   4.395   6.250  13.394  0.2790 -0.0610 -0.1578
12679TIP3    H159528   4.471   6.193  13.380 -1.1102 -1.8636 -0.7073
12679TIP3    H259529   4.384   6.253  13.489  1.3863  0.7405 -0.0359
12680TIP3   OH259530   2.440   0.253  10.356 -0.4279 -0.1591 -0.0798
12680TIP3    H159531   2.376   0.183  10.344 -1.4265  0.5040  1.1484
12680TIP3    H259532   2.389   0.334  10.351 -0.1432  0.3360  3.0176
12681TIP3   OH259533   1.718   5.127  12.558  0.2350 -0.1056  0.4765
12681TIP3    H159534   1.675   5.169  12.633 -1.4742 -0.4539 -0.2682
12681TIP3    H259535   1.754   5.200  12.507 -0.2118  0.2630  0.6865
12682TIP3   OH259536   2.269   6.592  15.459  0.1175 -0.0993 -0.4049
12682TIP3    H159537   2.229   6.652  15.395  0.0884 -1.1851 -1.4360
12682TIP3    H259538   2.195   6.559  15.510 -0.1771 -1.0995 -1.4445
12683TIP3   OH259539   1.315   6.277   4.707 -0.2235  0.2489  1.0978
12683TIP3    H159540   1.249   6.265   4.639  1.8483 -0.1696 -0.9781
12683TIP3    H259541   1.356   6.362   4.686  2.6672 -1.3365 -0.3870
12684TIP3   OH259542   6.216   0.536   4.174  0.0927  0.0403  0.3580
12684TIP3    H159543   6.249   0.448   4.158  1.6264  0.4003  1.3096
12684TIP3    H259544   6.123   0.523   4.195  0.1391 -1.2676 -0.1399
12685TIP3   OH259545   5.012   0.641  16.935  0.0455 -0.0691 -0.1361
12685TIP3    H159546   4.970   0.709  16.882 -0.7207 -0.3372  0.1146
12685TIP3    H259547   5.089   0.684  16.973  0.1530  0.3544 -0.8128
12686TIP3   OH259548   4.307   3.621  13.082  0.0191  0.2614 -0.0366
12686TIP3    H159549   4.349   3.546  13.125  0.1198 -0.0733 -0.6974
12686TIP3    H259550   4.342   3.619  12.992 -1.6556 -0.2308 -0.7099
12687TIP3   OH259551   0.456   3.947   3.438  0.4095 -0.5175  0.1604
12687TIP3    H159552   0.531   3.932   3.380 -0.5623 -0.6808 -1.0889
12687TIP3    H259553   0.453   4.042   3.448  0.0020 -0.4065 -0.8832
12688TIP3   OH259554   1.268   5.449  13.345  0.2872  0.2777 -0.5423
12688TIP3    H159555   1.291   5.413  13.431 -2.0070 -0.2241 -0.0569
12688TIP3    H259556   1.266   5.543  13.358  2.8360  0.4404 -0.8771
12689TIP3   OH259557   5.430   5.181   5.298  0.0130  0.1345 -0.1588
12689TIP3    H159558   5.498   5.239   5.264 -0.6545  0.6491 -0.6526
12689TIP3    H259559   5.354   5.197   5.242 -0.4675 -0.5567  0.2680
12690TIP3   OH259560   3.441   5.141  15.938 -0.0836  0.0049  0.1019
12690TIP3    H159561   3.429   5.150  16.032 -2.0627  1.3271 -0.2123
12690TIP3    H259562   3.353   5.121  15.904  0.1379  1.7001 -1.6548
12691TIP3   OH259563   1.654   5.351  11.148 -0.3288  0.1032 -0.1456
12691TIP3    H159564   1.564   5.323  11.132 -0.1290  0.3502 -1.8623
12691TIP3    H259565   1.707   5.273  11.131 -0.0857  0.4459 -1.0148
12692TIP3   OH259566   5.370   3.123  14.939  0.4164  0.0264  0.4425
12692TIP3    H159567   5.305   3.184  14.974  0.4542  0.4391 -0.1980
12692TIP3    H259568   5.433   3.179  14.894  1.0142 -0.4046  0.7425
12693TIP3   OH259569   0.712   0.559   6.330  0.0118  0.2444 -0.1051
12693TIP3    H159570   0.640   0.501   6.357 -0.1245 -0.3585 -1.6254
12693TIP3    H259571   0.721   0.621   6.402 -1.8720  0.1840  0.2479
12694TIP3   OH259572   4.503   0.061   6.643 -0.8318  0.5475 -0.0583
12694TIP3    H159573   4.594   0.030   6.649  0.6581  4.0700 -1.3947
12694TIP3    H259574   4.471   0.024   6.561  0.1880  0.9183 -0.6524
12695TIP3   OH259575   3.649   0.189   1.269 -0.1925 -0.3001  0.3931
12695TIP3    H159576   3.723   0.170   1.328  0.0048  1.0438  0.5973
12695TIP3    H259577   3.689   0.198   1.183  0.2912  2.7891  0.8448
12696TIP3   OH259578   6.558   2.834  12.857 -0.2107 -0.0876 -0.3250
12696TIP3    H159579   6.640   2.840  12.810  1.3137 -0.6307  2.0928
12696TIP3    H259580   6.519   2.921  12.849  1.4845  0.7374 -0.0055
12697TIP3   OH259581   4.393   4.888  14.818 -0.1966 -0.7889  0.5414
12697TIP3    H159582   4.365   4.979  14.829  0.2290 -0.7455  1.4215
12697TIP3    H259583   4.398   4.854  14.907 -1.4166 -2.0230  0.1633
12698TIP3   OH259584   2.812   0.758  14.356  0.2147 -0.8825  0.5450
12698TIP3    H159585   2.905   0.778  14.343  0.0180 -0.9223 -1.0770
12698TIP3    H259586   2.795   0.784  14.447  1.3791  0.8260  0.3288
12699TIP3   OH259587   3.067   3.311   1.953 -0.0952  0.0408  0.0241
12699TIP3    H159588   3.132   3.339   2.017 -1.5161  0.8416  1.1782
12699TIP3    H259589   2.992   3.369   1.968 -2.1984 -2.6503  0.7271
12700TIP3   OH259590   0.683   0.527   3.391 -0.1832 -0.0695 -0.3023
12700TIP3    H159591   0.767   0.535   3.345  0.5063 -1.4959  0.6543
12700TIP3    H259592   0.624   0.584   3.341  1.2850  0.8326 -1.1121
12701TIP3   OH259593   0.007   6.783   2.617 -0.8230  0.1867  0.0154
12701TIP3    H159594  -0.009   6.709   2.558  1.3082 -1.2619  1.1105
12701TIP3    H259595  -0.031   6.756   2.700  1.1582 -0.3944  0.8069
12702TIP3   OH259596   5.135   0.716  14.347 -0.3461 -0.1769 -0.4458
12702TIP3    H159597   5.224   0.689  14.371 -0.2269  2.1055  2.0884
12702TIP3    H259598   5.078   0.648  14.384  0.2528 -1.1959 -1.3388
12703TIP3   OH259599   0.769   0.396   5.606 -0.2912  0.5585 -0.2970
12703TIP3    H159600   0.786   0.489   5.619  0.9889  0.6512 -2.1694
12703TIP3    H259601   0.756   0.388   5.511  0.5828 -1.2950 -0.3032
12704TIP3   OH259602   0.743   1.113  11.956  0.3706 -0.6230 -0.5634
12704TIP3    H159603   0.667   1.065  11.986  0.9901 -2.3269 -1.5853
12704TIP3    H259604   0.773   1.065  11.878  1.4782  0.9890 -1.1887
12705TIP3   OH259605   2.276   0.468   3.600  0.3481  0.3642  0.2443
12705TIP3    H159606   2.326   0.500   3.675  0.0465  1.1695  0.1089
12705TIP3    H259607   2.191   0.511   3.607 -0.2628 -0.8042  0.3340
12706TIP3   OH259608   5.065   0.231  13.468 -0.2170  0.6092 -0.5058
12706TIP3    H159609   5.013   0.298  13.513  0.1444 -0.2740  1.3483
12706TIP3    H259610   5.155   0.249  13.495 -0.2628 -1.4621  1.3120
12707TIP3   OH259611   2.462   0.581   2.952 -0.4197 -0.4967 -1.1345
12707TIP3    H159612   2.487   0.671   2.973 -0.5668 -0.6567 -0.2578
12707TIP3    H259613   2.538   0.529   2.973 -0.0757 -0.5135 -2.3221
12708TIP3   OH259614   1.662   3.569  15.934 -0.1140  0.5162 -0.0961
12708TIP3    H159615   1.693   3.583  16.024 -3.2853  2.0331  0.9032
12708TIP3    H259616   1.615   3.486  15.939  1.8169 -0.7172 -1.0907
12709TIP3   OH259617   4.004   2.990  14.849  0.0528  0.1636 -0.1253
12709TIP3    H159618   3.931   3.027  14.897  0.3633  0.6153  0.0083
12709TIP3    H259619   4.022   3.054  14.779  0.8704  0.4937  0.3692
12710TIP3   OH259620   0.137   4.201   6.248  1.2830  0.4801 -0.1974
12710TIP3    H159621   0.231   4.193   6.268  0.8530 -0.4447  1.6462
12710TIP3    H259622   0.096   4.128   6.294 -0.3082  0.4878 -1.4974
12711TIP3   OH259623   5.895   4.726   2.553 -0.6048  0.0671  0.4817
12711TIP3    H159624   5.862   4.642   2.584 -0.9121  0.1593  0.4099
12711TIP3    H259625   5.879   4.723   2.458  1.8114 -0.8931  0.0432
12712TIP3   OH259626   5.179   2.804  11.202  0.1474  0.8601 -0.3586
12712TIP3    H159627   5.114   2.858  11.247 -0.0122  0.7695 -0.4815
12712TIP3    H259628   5.231   2.766  11.273 -0.8235 -0.2005 -0.1891
12713TIP3   OH259629   6.786   0.160  12.692  0.2515  0.2531  0.0696
12713TIP3    H159630   6.707   0.177  12.642  0.9423  1.3872 -0.6741
12713TIP3    H259631   6.784   0.224  12.763  1.0122  1.0093 -0.5715
12714TIP3   OH259632   4.138   1.211   1.481  0.0033 -0.5858  0.2601
12714TIP3    H159633   4.157   1.194   1.573 -0.1268  0.3631  0.4717
12714TIP3    H259634   4.045   1.194   1.471  0.4404 -3.1041 -0.2837
12715TIP3   OH259635   1.519   2.995   3.428 -0.1080  0.5783 -0.4139
12715TIP3    H159636   1.441   2.976   3.377 -1.4582  1.1818  1.3477
12715TIP3    H259637   1.542   3.085   3.405 -1.6181  1.4025  1.0737
12716TIP3   OH259638   5.219   0.968   3.119  0.6399 -0.4870  0.9135
12716TIP3    H159639   5.158   0.895   3.113  0.9546 -0.8950  2.2311
12716TIP3    H259640   5.275   0.946   3.194  3.2923 -0.7699 -1.0250
12717TIP3   OH259641   5.920   1.604  12.980  0.4224  0.2102  0.3373
12717TIP3    H159642   5.863   1.567  13.048 -1.5935  1.5910 -0.5009
12717TIP3    H259643   5.903   1.551  12.902 -1.9024  2.2415 -0.6602
12718TIP3   OH259644   5.434   5.660   0.996 -0.6489 -0.1644 -0.5223
12718TIP3    H159645   5.410   5.662   1.089  0.1083 -0.0923 -0.3209
12718TIP3    H259646   5.530   5.662   0.996 -0.5803 -1.7329 -1.2595
12719TIP3   OH259647   1.111   0.819   0.374 -0.0857 -0.3251  0.0148
12719TIP3    H159648   1.189   0.843   0.424  0.1157 -0.0112 -0.4394
12719TIP3    H259649   1.145   0.793   0.288 -0.4845 -0.1204 -0.2089
12720TIP3   OH259650   2.064   1.472   0.606  0.2085 -0.5843  0.6310
12720TIP3    H159651   2.022   1.425   0.534  0.0916  0.3856  0.0450
12720TIP3    H259652   1.994   1.489   0.668  0.1905 -0.8972  0.7012
12721TIP3   OH259653   5.001   2.638  13.050 -0.2733 -0.1704  0.1838
12721TIP3    H159654   4.914   2.634  13.090 -0.5032  0.0354 -0.2825
12721TIP3    H259655   5.015   2.731  13.032 -0.3155 -0.2968 -0.5158
12722TIP3   OH259656   1.910   1.737  16.409  0.4942  0.1826 -0.1097
12722TIP3    H159657   1.895   1.750  16.502  1.8278  1.2632 -0.0106
12722TIP3    H259658   1.829   1.699  16.376  0.1716 -0.6518  1.5634
12723TIP3   OH259659   6.705   5.803   1.577  0.2526 -1.0084 -0.0943
12723TIP3    H159660   6.678   5.768   1.662  1.5994 -1.5589  0.1318
12723TIP3    H259661   6.661   5.887   1.570 -2.9700 -2.5818 -0.5674
12724TIP3   OH259662   2.717   3.548   2.620 -0.0142  0.4198 -0.6165
12724TIP3    H159663   2.654   3.620   2.614  0.6359  0.9220 -1.6063
12724TIP3    H259664   2.799   3.590   2.644 -0.1808 -0.3190  1.4183
12725TIP3   OH259665   5.731   6.377   2.940  0.4963 -0.0201 -0.3702
12725TIP3    H159666   5.723   6.471   2.953  0.8401 -0.1179  0.5592
12725TIP3    H259667   5.653   6.354   2.890 -0.2239  0.5660  0.4520
12726TIP3   OH259668   4.907   3.448  11.018  0.3054 -0.2632 -0.4805
12726TIP3    H159669   4.905   3.496  10.935 -0.8187  0.1353 -0.2411
12726TIP3    H259670   4.999   3.446  11.043  0.5048  0.7266 -1.0993
12727TIP3   OH259671   3.638   4.313   2.604 -0.4519 -0.0852  0.4997
12727TIP3    H159672   3.579   4.238   2.608 -3.4115  2.0421 -0.1087
12727TIP3    H259673   3.621   4.362   2.684  1.7497 -0.1904  1.0986
12728TIP3   OH259674   4.882   3.301  13.671 -0.0679 -0.1840  0.0800
12728TIP3    H159675   4.827   3.232  13.709  0.1946 -0.1230  0.5802
12728TIP3    H259676   4.826   3.345  13.608 -0.0044 -1.3893 -0.8651
12729TIP3   OH259677   1.323   6.750  11.356  0.1848  0.6043 -0.4096
12729TIP3    H159678   1.414   6.737  11.328  0.1491  1.1727 -0.8064
12729TIP3    H259679   1.274   6.684  11.306  0.0358  2.0382 -2.2519
12730TIP3   OH259680   1.997   3.317   4.061 -0.0560  0.2903 -0.1400
12730TIP3    H159681   1.999   3.411   4.047  0.9013  0.6743  2.2454
12730TIP3    H259682   1.997   3.306   4.156 -0.3616 -2.1104 -0.3573
12731TIP3   OH259683   1.288   0.612   1.834  0.4392 -0.4494  0.4489
12731TIP3    H159684   1.332   0.666   1.899 -0.1897  0.4606  0.1526
12731TIP3    H259685   1.197   0.609   1.863  0.2862 -0.5791 -0.0354
12732TIP3   OH259686   3.072   5.679  14.486  0.5035 -0.5638  0.7354
12732TIP3    H159687   3.074   5.680  14.582 -0.6884  0.0519  0.7768
12732TIP3    H259688   3.139   5.742  14.460  0.2287 -0.0734  1.1916
12733TIP3   OH259689   3.498   4.122   3.628 -0.0147 -0.3153  0.9663
12733TIP3    H159690   3.492   4.184   3.701 -0.3448  0.3848  0.3606
12733TIP3    H259691   3.590   4.094   3.627  0.4795  1.2052  0.4319
12734TIP3   OH259692   3.245   6.177  14.997 -0.3223 -0.2272 -0.0885
12734TIP3    H159693   3.203   6.121  15.062  0.8917 -0.5688  0.4299
12734TIP3    H259694   3.320   6.127  14.966 -0.4031  0.2763 -1.1596
12735TIP3   OH259695   5.718   3.013  11.160  0.0540  0.7485  0.4605
12735TIP3    H159696   5.745   2.941  11.103  0.8938  2.2434 -1.1104
12735TIP3    H259697   5.633   2.986  11.195  0.1193 -0.7792 -0.4939
12736TIP3   OH259698   0.612   3.143   0.848  0.6149 -0.3389 -0.0554
12736TIP3    H159699   0.531   3.174   0.889  2.5219  2.8170  1.7497
12736TIP3    H259700   0.583   3.080   0.782 -3.3666  1.4627 -0.3292
12737TIP3   OH259701   5.017   4.578  10.834  0.1391  0.1997 -0.3781
12737TIP3    H159702   5.045   4.544  10.749 -0.1471  0.6439 -0.6554
12737TIP3    H259703   5.098   4.588  10.884  0.2560 -0.5694 -0.4106
12738TIP3   OH259704   0.436   3.037   2.997 -0.3126  0.7513  0.3604
12738TIP3    H159705   0.514   2.990   2.968 -0.4746 -0.5797  1.9131
12738TIP3    H259706   0.444   3.040   3.092 -1.3108  2.1471  0.4199
12739TIP3   OH259707   1.996   1.718  15.094  0.0073 -0.2902 -0.0393
12739TIP3    H159708   2.031   1.770  15.166  2.9594  0.6263 -1.9177
12739TIP3    H259709   1.956   1.783  15.035  0.3254 -0.6130 -0.6222
12740TIP3   OH259710   5.202   1.512  13.943 -0.1404 -0.0167 -0.4970
12740TIP3    H159711   5.111   1.533  13.963  0.3788  0.8298  1.1891
12740TIP3    H259712   5.226   1.446  14.007  0.6632  0.3805 -0.3739
12741TIP3   OH259713   6.452   2.050  11.897  0.4494  0.5905 -0.0193
12741TIP3    H159714   6.484   2.048  11.987  0.6802  0.7128 -0.0970
12741TIP3    H259715   6.510   1.991  11.849  0.5168  0.7567 -0.1462
12742TIP3   OH259716   3.663   3.637  17.018 -0.5776 -0.3712  0.2271
12742TIP3    H159717   3.681   3.591  17.100 -0.1187  1.2743  1.0806
12742TIP3    H259718   3.738   3.696  17.006 -0.4728 -0.7962 -1.5600
12743TIP3   OH259719   6.381   5.631   1.593  0.6250  0.0551 -0.5866
12743TIP3    H159720   6.313   5.606   1.656  1.8966 -0.0798  0.7900
12743TIP3    H259721   6.381   5.726   1.594  1.6882  0.0814  0.8736
12744TIP3   OH259722   1.412   2.644  14.483  0.2213 -0.5684 -0.4208
12744TIP3    H159723   1.473   2.572  14.500  0.1254 -0.8170 -1.1061
12744TIP3    H259724   1.366   2.618  14.404  0.8805  0.7043 -1.2456
12745TIP3   OH259725   6.455   4.873  13.411 -0.3936  0.0639 -0.0698
12745TIP3    H159726   6.419   4.792  13.375 -0.1359  0.4750 -1.3190
12745TIP3    H259727   6.483   4.850  13.499 -2.3238 -0.6627  0.4246
12746TIP3   OH259728   4.245   4.326   0.251 -0.2956 -0.2733 -0.1743
12746TIP3    H159729   4.322   4.272   0.270 -0.4248  0.2883  2.2681
12746TIP3    H259730   4.178   4.263   0.223  0.1346 -1.1493  0.7262
12747TIP3   OH259731   2.546   4.071  12.758  0.1354 -0.1990  0.2148
12747TIP3    H159732   2.624   4.040  12.712 -0.6529  0.2280 -1.4762
12747TIP3    H259733   2.473   4.030  12.711 -0.6853 -1.5047  2.4417
12748TIP3   OH259734   1.361   3.239   1.664  0.0480  0.1952  0.3735
12748TIP3    H159735   1.281   3.190   1.683 -0.0174  0.6479  1.2938
12748TIP3    H259736   1.355   3.260   1.570 -1.4546  1.1948  0.6691
12749TIP3   OH259737   5.371   6.797   2.577  0.1309 -0.2336  0.1942
12749TIP3    H159738   5.327   6.877   2.547  0.0402 -0.3571 -0.0089
12749TIP3    H259739   5.360   6.797   2.672  1.4955  0.8142  0.3858
12750TIP3   OH259740   1.867   4.960  15.177  0.0179 -0.8551  0.1474
12750TIP3    H159741   1.827   4.904  15.244 -0.0480 -1.1567 -0.1427
12750TIP3    H259742   1.827   4.931  15.095 -0.1189 -0.2880  0.0087
12751TIP3   OH259743   5.677   0.097  13.131  0.5649  0.4248 -0.4454
12751TIP3    H159744   5.734   0.068  13.203 -0.0176  0.0225 -0.1386
12751TIP3    H259745   5.600   0.042  13.138 -0.9910  2.6071  0.7156
12752TIP3   OH259746   1.890   3.096   0.938  0.1853  0.3026 -0.1418
12752TIP3    H159747   1.869   3.067   1.027 -1.6122  1.7257 -0.0564
12752TIP3    H259748   1.822   3.160   0.916  0.7198  0.1776 -2.4609
12753TIP3   OH259749   3.800   1.333   0.414  1.2853  0.4668 -0.0520
12753TIP3    H159750   3.844   1.261   0.368  2.4078  1.5258 -0.7186
12753TIP3    H259751   3.799   1.307   0.506  3.9849  0.6707  0.1105
12754TIP3   OH259752   5.212   4.059  16.124 -0.1449 -0.2661 -0.4890
12754TIP3    H159753   5.281   4.122  16.103  0.0469 -0.2455  0.1877
12754TIP3    H259754   5.175   4.091  16.207  0.2482 -1.2748  0.0922
12755TIP3   OH259755   5.244   1.425  12.960  0.2826  0.8364  0.6486
12755TIP3    H159756   5.250   1.386  12.873 -0.9107 -1.9891  1.7348
12755TIP3    H259757   5.310   1.379  13.012 -0.8160  0.5943  1.8611
12756TIP3   OH259758   4.586   4.066   3.711 -0.6539 -0.2113 -0.4267
12756TIP3    H159759   4.600   4.091   3.620  0.0047  2.0449  0.2155
12756TIP3    H259760   4.534   4.137   3.748 -0.3590 -0.7406  1.1051
12757TIP3   OH259761   5.998   2.349  11.628  0.1401 -0.0740 -0.7674
12757TIP3    H159762   6.017   2.257  11.611 -0.4211 -0.1789 -0.8442
12757TIP3    H259763   6.015   2.361  11.721 -1.0596 -0.5891 -0.4636
12758TIP3   OH259764   0.751   0.414  16.438  0.0174  0.0451 -0.0553
12758TIP3    H159765   0.706   0.496  16.417 -1.4768 -0.5575  0.6156
12758TIP3    H259766   0.714   0.350  16.377 -0.0504 -0.4596  0.4978
12759TIP3   OH259767   4.301   1.554  11.806  0.0131 -0.0857 -0.1919
12759TIP3    H159768   4.249   1.633  11.822 -1.2651 -0.6880 -1.1676
12759TIP3    H259769   4.287   1.501  11.885  0.1663  0.2992  0.0937
12760TIP3   OH259770   2.525   1.400  11.659  0.7027  0.1857  0.0505
12760TIP3    H159771   2.448   1.458  11.657  0.2992 -0.3259  0.4836
12760TIP3    H259772   2.579   1.434  11.730  0.5019  0.0786  0.2564
12761TIP3   OH259773   4.811   1.149  11.098  0.2410 -0.2507  0.1037
12761TIP3    H159774   4.719   1.136  11.119  0.0699 -0.4227 -0.7292
12761TIP3    H259775   4.844   1.206  11.167  0.1937 -2.3726  2.0057
12762TIP3   OH259776   4.350   4.568   1.861  0.0725  0.0213 -0.2448
12762TIP3    H159777   4.338   4.606   1.948  1.0108  0.0667 -0.1235
12762TIP3    H259778   4.437   4.528   1.864 -0.9067 -2.2511 -0.3361
12763TIP3   OH259779   1.364   5.005   3.177 -0.0957  0.2636  0.0868
12763TIP3    H159780   1.309   5.033   3.250  0.1285 -2.7357  1.5713
12763TIP3    H259781   1.442   5.060   3.183  0.2013 -0.2751  2.5964
12764TIP3   OH259782   4.383   6.017  15.489 -0.2999  0.0073 -0.4174
12764TIP3    H159783   4.425   5.934  15.467 -0.8557 -0.2036 -0.7200
12764TIP3    H259784   4.300   5.991  15.530 -0.4309  0.4102 -0.4243
12765TIP3   OH259785   2.073   4.364   5.837  0.1821  0.2966  0.3853
12765TIP3    H159786   2.137   4.332   5.901  0.1213 -1.9240 -0.5786
12765TIP3    H259787   2.120   4.366   5.754 -0.4952  0.4737 -0.0047
12766TIP3   OH259788   4.920   4.816   0.643 -0.3530 -0.1162 -0.6133
12766TIP3    H159789   4.973   4.826   0.563  1.4343 -2.2136  0.2245
12766TIP3    H259790   4.844   4.873   0.628  0.3895  0.3020 -3.3847
12767TIP3   OH259791   4.815   3.822   4.199 -0.2452  0.0437  0.0821
12767TIP3    H159792   4.735   3.791   4.157 -0.6271  0.6524  0.3371
12767TIP3    H259793   4.881   3.822   4.130 -0.3228 -0.9712 -0.0047
12768TIP3   OH259794   6.023   2.167  12.209 -0.1736 -0.3957 -0.7599
12768TIP3    H159795   6.113   2.161  12.178  0.2569 -0.4777  0.4776
12768TIP3    H259796   5.987   2.243  12.162 -0.0115 -1.3705 -2.5510
12769TIP3   OH259797   4.910   5.130  10.858 -0.6323  0.4555 -0.7384
12769TIP3    H159798   4.829   5.098  10.899  0.2297 -0.8497  0.0306
12769TIP3    H259799   4.970   5.144  10.932 -0.2019  1.5493 -1.2822
12770TIP3   OH259800   6.578   2.694   0.296  0.3757 -0.4161  0.8296
12770TIP3    H159801   6.613   2.751   0.364 -1.4221 -1.1465  2.4729
12770TIP3    H259802   6.531   2.752   0.237  0.8237  0.0762  0.9525
12771TIP3   OH259803   6.174   2.775  14.526 -0.2777 -0.3897 -0.4243
12771TIP3    H159804   6.136   2.697  14.486 -1.5949 -1.7644  3.0842
12771TIP3    H259805   6.236   2.741  14.591  0.8494  1.5936 -0.3652
12772TIP3   OH259806   3.531   6.607  14.047  0.3061 -0.4162  0.1382
12772TIP3    H159807   3.612   6.635  14.088 -1.7709  2.8693  2.4655
12772TIP3    H259808   3.489   6.688  14.018 -2.7060 -1.7872  0.2275
12773TIP3   OH259809   2.437   0.601   0.392 -0.1324  0.0140 -0.2666
12773TIP3    H159810   2.488   0.579   0.314  1.4058  0.7113  0.5069
12773TIP3    H259811   2.425   0.517   0.437 -0.7962 -0.3506 -1.0924
12774TIP3   OH259812   1.749   5.728  15.301  0.2189 -0.1066  0.8154
12774TIP3    H159813   1.779   5.653  15.250  0.4359  0.1371  0.5819
12774TIP3    H259814   1.671   5.697  15.346 -1.1300  0.2415 -1.1704
12775TIP3   OH259815   2.252   4.499   2.047  0.0135  0.4457 -0.8300
12775TIP3    H159816   2.328   4.440   2.051  0.1913  0.6662 -0.9492
12775TIP3    H259817   2.189   4.460   2.108  0.7954  1.0604  0.4230
12776TIP3   OH259818   2.067   1.320  12.735 -0.0513  0.2339  0.5987
12776TIP3    H159819   2.047   1.241  12.684  0.3055  0.7345 -0.3458
12776TIP3    H259820   2.068   1.290  12.826 -1.8860 -0.4446  0.4254
12777TIP3   OH259821   4.802   1.271   6.480  0.0205  0.4008 -0.2202
12777TIP3    H159822   4.865   1.296   6.412  1.5966 -1.4796  0.4577
12777TIP3    H259823   4.855   1.227   6.547 -1.9769 -1.1429  0.4455
12778TIP3   OH259824   4.354   6.466  16.832  0.2477 -0.3684 -0.0134
12778TIP3    H159825   4.417   6.536  16.846  0.6943 -1.0420  1.4821
12778TIP3    H259826   4.301   6.466  16.911 -1.0566 -0.4221 -0.8623
12779TIP3   OH259827   3.529   1.613   4.354  0.3668  0.0390  0.4107
12779TIP3    H159828   3.504   1.686   4.297  0.5579  0.9680  1.4884
12779TIP3    H259829   3.447   1.572   4.379  0.2933 -0.5681 -0.7472
12780TIP3   OH259830   6.135   1.242  13.671 -0.2298  0.0909 -0.1053
12780TIP3    H159831   6.216   1.191  13.668  0.0311  0.5476 -1.1495
12780TIP3    H259832   6.091   1.221  13.589 -0.1473  1.4791 -0.5189
12781TIP3   OH259833   3.614   2.782  16.264 -0.2847 -0.6144 -0.1333
12781TIP3    H159834   3.617   2.824  16.350 -0.0673 -1.6196  0.3628
12781TIP3    H259835   3.706   2.761  16.245 -0.4274 -1.2031 -0.1943
12782TIP3   OH259836   2.109   5.873   1.513 -0.3376 -0.2471  0.1404
12782TIP3    H159837   2.052   5.824   1.454  0.3113  0.6427 -1.2871
12782TIP3    H259838   2.052   5.937   1.554 -0.3164  1.0555 -1.7517
12783TIP3   OH259839   3.233   3.811  14.238 -0.2539 -0.7144  0.0477
12783TIP3    H159840   3.309   3.860  14.270  0.2539 -0.4624 -1.4440
12783TIP3    H259841   3.271   3.739  14.187 -0.9737 -2.9011  2.3784
12784TIP3   OH259842   0.182   6.611  16.034 -0.4209  0.2149  0.0598
12784TIP3    H159843   0.206   6.633  16.124 -0.8459 -0.3645  0.3181
12784TIP3    H259844   0.111   6.548  16.042  0.8609 -1.4194 -0.6583
12785TIP3   OH259845   0.940   5.638   1.330  0.2022  0.3904 -0.0374
12785TIP3    H159846   0.896   5.672   1.407 -0.9561 -0.3339 -0.3624
12785TIP3    H259847   0.977   5.555   1.358 -0.1020  0.1920 -0.2179
12786TIP3   OH259848   5.484   6.417   2.722 -0.4629  0.0658 -0.7135
12786TIP3    H159849   5.414   6.372   2.768  1.5316 -1.0201  1.4759
12786TIP3    H259850   5.478   6.508   2.752  0.5235 -0.5295  1.5462
12787TIP3   OH259851   5.617   5.742   4.837  0.0767 -0.1405 -0.0040
12787TIP3    H159852   5.617   5.767   4.930  2.4880 -1.8348  0.5667
12787TIP3    H259853   5.527   5.755   4.809 -1.1089 -0.9549  2.9853
12788TIP3   OH259854   5.872   5.008   6.548 -0.2133  0.2032  0.3690
12788TIP3    H159855   5.852   4.940   6.612  0.5752  0.3833  0.8200
12788TIP3    H259856   5.854   5.091   6.593  0.5175  0.3359  0.4202
12789TIP3   OH259857   2.231   0.597  12.426  0.2970  0.4089  0.2288
12789TIP3    H159858   2.256   0.548  12.504  0.5919 -0.4258 -0.3759
12789TIP3    H259859   2.170   0.663  12.458  0.9379  0.5238  1.2647
12790TIP3   OH259860   5.361   4.514   3.472  0.4520  0.0541 -0.0016
12790TIP3    H159861   5.434   4.507   3.411  0.3005 -1.1020 -0.0746
12790TIP3    H259862   5.388   4.580   3.535  0.5166  1.4553 -1.4292
12791TIP3   OH259863   3.435   5.705  16.261 -0.1492 -0.5806 -0.0549
12791TIP3    H159864   3.515   5.652  16.261  0.4201  0.1641 -2.5778
12791TIP3    H259865   3.458   5.783  16.211 -2.1223  0.2275  0.2130
12792TIP3   OH259866   2.763   3.141  11.023  0.5667 -0.1782  0.5327
12792TIP3    H159867   2.707   3.218  11.013  0.0766 -0.1851  2.7187
12792TIP3    H259868   2.736   3.083  10.951  0.2544  1.2511 -0.5544
12793TIP3   OH259869   3.024   4.648   4.885 -0.7297  0.2193 -0.6525
12793TIP3    H159870   3.054   4.698   4.961 -0.8228 -2.0498  0.9804
12793TIP3    H259871   3.104   4.622   4.839 -0.4505 -1.0059  0.4725
12794TIP3   OH259872   4.265   1.786   4.578 -0.2235  0.1262  0.3968
12794TIP3    H159873   4.344   1.732   4.578 -0.1307  0.2371  1.8157
12794TIP3    H259874   4.193   1.723   4.585 -0.1740  0.1255  0.8930
12795TIP3   OH259875   0.825   3.999   6.181  0.4709  0.1143 -0.3549
12795TIP3    H159876   0.817   3.925   6.242  1.8959 -1.5214 -2.0562
12795TIP3    H259877   0.766   4.066   6.218 -0.5443 -1.6615  1.4903
12796TIP3   OH259878   6.377   3.846  12.168 -0.1865 -0.0530 -0.1278
12796TIP3    H159879   6.324   3.778  12.209  0.1750  0.5650  1.4274
12796TIP3    H259880   6.340   3.856  12.081  0.0020 -2.5295 -0.5763
12797TIP3   OH259881   5.315   1.511   4.848  0.1846 -0.4934 -0.1125
12797TIP3    H159882   5.387   1.480   4.903  0.5205  2.5311  1.3610
12797TIP3    H259883   5.245   1.532   4.910 -0.0266  1.4823 -0.9398
12798TIP3   OH259884   3.130   1.795  11.362 -0.3729 -0.5025  0.2476
12798TIP3    H159885   3.123   1.767  11.453  0.8678  0.9857  0.8551
12798TIP3    H259886   3.215   1.763  11.333 -1.0999 -1.6667 -0.6779
12799TIP3   OH259887   1.091   2.244   5.104  0.0043  0.0211  0.1079
12799TIP3    H159888   1.067   2.321   5.053  0.9129  1.3022  1.5118
12799TIP3    H259889   1.163   2.204   5.055  1.0548  1.3897  0.4635
12800TIP3   OH259890   3.298   0.183  13.194 -0.1214 -0.0398  0.3068
12800TIP3    H159891   3.382   0.189  13.149 -0.4184  0.3992 -0.2001
12800TIP3    H259892   3.257   0.268  13.178  0.3153  0.6482  2.4800
12801TIP3   OH259893   0.515   4.820  11.887  0.2835 -0.1409  0.3480
12801TIP3    H159894   0.530   4.793  11.796  0.4090  0.3917  0.2087
12801TIP3    H259895   0.446   4.761  11.918  0.4465 -0.5218  0.0016
12802TIP3   OH259896   4.424   5.484  14.476 -0.2434 -0.8065  0.1156
12802TIP3    H159897   4.332   5.493  14.503 -0.4347 -0.4831 -0.6196
12802TIP3    H259898   4.424   5.411  14.414  0.5087 -2.8267  2.3699
12803TIP3   OH259899   2.418   0.968  13.687 -0.3319  0.5267 -0.0145
12803TIP3    H159900   2.475   0.930  13.754 -0.2570 -1.2785 -1.0344
12803TIP3    H259901   2.421   1.062  13.704  1.1711  0.2871  1.3476
12804TIP3   OH259902   3.875   0.944   1.794 -0.0008 -0.0612  0.0521
12804TIP3    H159903   3.844   0.864   1.752 -1.9015  0.2883  0.6605
12804TIP3    H259904   3.962   0.958   1.759 -1.3763  0.1259 -3.7214
12805TIP3   OH259905   1.626   2.317   0.399  0.2090  0.2574  0.5775
12805TIP3    H159906   1.707   2.363   0.421  0.4400  0.4704 -0.6173
12805TIP3    H259907   1.652   2.255   0.330 -0.8602  1.2568 -0.7892
12806TIP3   OH259908   1.713   5.735   4.504 -0.1149  0.2097 -0.5676
12806TIP3    H159909   1.645   5.744   4.438 -0.8502 -0.3285  0.1009
12806TIP3    H259910   1.695   5.803   4.568  0.3052  0.4173 -0.6647
12807TIP3   OH259911   5.147   4.774   2.944  0.1843  0.3054 -0.7403
12807TIP3    H159912   5.237   4.778   2.913  0.4994  0.4615  0.1590
12807TIP3    H259913   5.097   4.823   2.879  1.1223  2.3989  0.0095
12808TIP3   OH259914   3.498   0.185   0.549 -0.4298  0.1640 -0.4600
12808TIP3    H159915   3.480   0.261   0.494  0.5396 -0.5496 -1.8151
12808TIP3    H259916   3.414   0.139   0.554 -0.4642  0.0597 -1.6553
12809TIP3   OH259917   3.317   2.230   3.079  0.3070  0.0235  0.2878
12809TIP3    H159918   3.302   2.317   3.041  0.6766  0.1005  0.3135
12809TIP3    H259919   3.412   2.217   3.071  0.6375  0.6687  2.5128
12810TIP3   OH259920   3.917   2.353  14.212  0.4671 -0.2962 -0.6958
12810TIP3    H159921   3.872   2.287  14.265 -0.4746  0.7301 -0.1837
12810TIP3    H259922   4.008   2.324  14.211  0.2628 -1.0646  0.3762
12811TIP3   OH259923   5.552   5.998   0.592 -0.0500 -0.4093  0.1498
12811TIP3    H159924   5.468   6.043   0.601 -0.4119 -1.1636  0.6985
12811TIP3    H259925   5.554   5.937   0.666  0.4777 -1.1917 -0.4978
12812TIP3   OH259926   4.884   4.785   3.495 -0.4902  0.2519  0.3329
12812TIP3    H159927   4.880   4.879   3.508 -0.4871  0.4075 -0.6613
12812TIP3    H259928   4.911   4.774   3.403  2.1134 -0.7346  1.1276
12813TIP3   OH259929   6.786   4.955  11.908 -0.0125 -0.3583 -0.1331
12813TIP3    H159930   6.860   4.922  11.959  0.8886  0.6501 -0.7627
12813TIP3    H259931   6.757   5.033  11.955  0.1278 -0.0396 -0.5728
12814TIP3   OH259932   3.452   6.746  10.857 -0.0962 -0.3487  0.2473
12814TIP3    H159933   3.510   6.720  10.786  1.5788 -1.2184  1.8644
12814TIP3    H259934   3.474   6.838  10.874 -1.1679  0.1537 -0.9292
12815TIP3   OH259935   3.869   3.144  13.286 -0.2058 -1.0912 -0.3199
12815TIP3    H159936   3.954   3.173  13.318 -0.1983 -0.7649 -0.6361
12815TIP3    H259937   3.867   3.050  13.305 -0.4736 -0.7919  1.2678
12816TIP3   OH259938   0.621   4.539   3.981 -0.6515  0.5733 -0.3797
12816TIP3    H159939   0.561   4.505   3.914 -0.4510 -2.0408  0.6134
12816TIP3    H259940   0.563   4.577   4.047 -1.3813 -2.2274  0.7294
12817TIP3   OH259941   0.997   2.151   2.172 -0.1534 -0.0677  0.3103
12817TIP3    H159942   0.957   2.194   2.096 -1.1215  0.2345  0.9776
12817TIP3    H259943   1.086   2.129   2.143 -0.5820 -0.1689 -0.9877
12818TIP3   OH259944   0.720   0.595  15.441  0.1851 -0.6257  0.2907
12818TIP3    H159945   0.654   0.526  15.438  0.1592 -0.5696 -2.3077
12818TIP3    H259946   0.671   0.676  15.431  0.3584 -0.2924  1.8929
12819TIP3   OH259947   6.019   2.590  15.977  0.4377  0.3796 -0.3454
12819TIP3    H159948   5.952   2.646  15.938 -0.4770  2.4216  3.6061
12819TIP3    H259949   6.068   2.648  16.035  0.5277 -2.5064  2.7806
12820TIP3   OH259950   4.112   1.574   2.035  0.3422  0.3778 -0.3976
12820TIP3    H159951   4.018   1.555   2.035  0.4205 -0.0249 -0.9693
12820TIP3    H259952   4.153   1.487   2.031  0.7590  0.4783  1.0583
12821TIP3   OH259953   5.634   6.356  11.449 -0.6649  0.0331  0.2837
12821TIP3    H159954   5.574   6.355  11.375  0.6615  0.4099 -0.8231
12821TIP3    H259955   5.579   6.330  11.524 -2.1512  0.1771 -0.7057
12822TIP3   OH259956   1.565   4.182  14.574  0.4947 -0.1695 -0.6147
12822TIP3    H159957   1.514   4.256  14.607  0.1674 -0.1982 -1.0421
12822TIP3    H259958   1.500   4.122  14.539  0.6162 -1.5219  1.3494
12823TIP3   OH259959   5.472   1.101  15.428  0.0213 -0.3483 -1.1218
12823TIP3    H159960   5.504   1.038  15.364 -1.4466 -1.1643 -1.1031
12823TIP3    H259961   5.377   1.092  15.425 -0.1509  0.7551  0.0235
12824TIP3   OH259962   2.887   4.822  16.665  0.2860 -0.0998  0.0306
12824TIP3    H159963   2.822   4.779  16.721 -0.8566  1.1404 -0.2827
12824TIP3    H259964   2.926   4.751  16.615  0.3012 -1.0683  1.3494
12825TIP3   OH259965   1.361   3.317   4.775 -0.1505  0.2788 -0.2066
12825TIP3    H159966   1.361   3.401   4.820  3.6083 -0.1882  1.0168
12825TIP3    H259967   1.454   3.299   4.758 -1.0205 -1.3287 -4.9672
12826TIP3   OH259968   1.567   1.658   0.533  0.3282  0.5381 -0.4063
12826TIP3    H159969   1.516   1.705   0.599 -1.9340  0.0665 -1.7009
12826TIP3    H259970   1.554   1.708   0.452  0.6914 -0.4144 -1.0773
12827TIP3   OH259971   3.061   0.074   0.515 -0.8321  0.0324  0.0500
12827TIP3    H159972   3.136   0.075   0.456 -0.3404  0.9850  0.6522
12827TIP3    H259973   2.988   0.106   0.463 -1.0343 -1.6558 -0.7692
12828TIP3   OH259974   6.646   5.705  11.688 -0.4840 -0.0426  0.4117
12828TIP3    H159975   6.697   5.785  11.676 -0.3954 -0.5344 -3.9079
12828TIP3    H259976   6.708   5.642  11.724  0.1249  1.1104  1.4485
12829TIP3   OH259977   0.550   2.917  14.174 -0.3186  0.1113 -0.4421
12829TIP3    H159978   0.554   2.941  14.082  0.9508  0.2325 -0.3769
12829TIP3    H259979   0.557   3.001  14.221  1.6577 -0.1129 -0.2384
12830TIP3   OH259980   5.550   6.467   3.722  0.1737 -0.1456  0.7653
12830TIP3    H159981   5.569   6.401   3.656  3.2885 -0.6014  1.9308
12830TIP3    H259982   5.523   6.417   3.799  0.0695  0.1057  0.8923
12831TIP3   OH259983   2.080   1.466   3.636  0.4063 -0.7353 -0.3544
12831TIP3    H159984   2.107   1.439   3.549 -1.0988 -0.9354 -0.7872
12831TIP3    H259985   2.130   1.546   3.653  1.8624 -1.5395 -0.7397
12832TIP3   OH259986   4.604   5.827  14.807 -0.4593  0.2840  0.5582
12832TIP3    H159987   4.538   5.895  14.817 -0.5027  0.7207 -1.9190
12832TIP3    H259988   4.637   5.839  14.718  2.5841 -0.2859  1.5025
12833TIP3   OH259989   5.963   4.946   0.773  0.1151 -0.1899 -0.1443
12833TIP3    H159990   5.977   4.990   0.856  1.1451 -1.7578  0.5452
12833TIP3    H259991   6.034   4.978   0.717 -0.2277  0.4071 -0.2503
12834TIP3   OH259992   5.692   4.921  12.118 -0.0379 -0.4411  0.0434
12834TIP3    H159993   5.655   4.987  12.059 -0.5097  0.6019  1.4484
12834TIP3    H259994   5.704   4.843  12.063 -0.6324  0.4294 -1.3643
12835TIP3   OH259995   0.510   3.011   5.649 -0.0387  0.3531 -0.5200
12835TIP3    H159996   0.516   3.033   5.556  2.6401  3.8298  0.2722
12835TIP3    H259997   0.417   3.023   5.670 -0.7011 -0.5209 -2.6749
12836TIP3   OH259998   0.479   4.722  13.502  0.4240 -0.3679  0.5808
12836TIP3    H159999   0.557   4.748  13.551  0.9178  1.2107 -0.9393
12836TIP3    H260000   0.494   4.630  13.481 -0.1500 -1.3423  3.8898
12837TIP3   OH260001   3.752   2.974  14.251  0.5682 -0.2583  0.4617
12837TIP3    H160002   3.679   3.030  14.276  0.3707 -1.5687  3.0723
12837TIP3    H260003   3.814   3.033  14.208 -0.0273  1.8149  2.2836
12838TIP3   OH260004   2.083   1.935  14.031 -0.2540  0.2627 -0.0526
12838TIP3    H160005   2.127   1.876  14.092  0.2752  1.4769  0.7624
12838TIP3    H260006   2.042   1.876  13.967  2.5451 -0.9851 -0.9014
12839TIP3   OH260007   6.110   2.786  16.160  0.1526  0.1793 -0.3240
12839TIP3    H160008   6.202   2.779  16.184 -0.0008  1.2085  0.6402
12839TIP3    H260009   6.063   2.749  16.235 -0.2672  1.2997 -0.0118
12840TIP3   OH260010   4.846   4.929   2.018 -0.1997 -0.2475 -0.5062
12840TIP3    H160011   4.781   4.923   2.088 -1.5091  0.7572 -1.5987
12840TIP3    H260012   4.820   4.861   1.955 -0.1446  0.1105 -0.9167
12841TIP3   OH260013   5.677   6.504   5.420 -0.1706  0.3414  0.5456
12841TIP3    H160014   5.593   6.513   5.374  0.1512  1.0559  0.0819
12841TIP3    H260015   5.742   6.528   5.354  0.4732 -1.1759  0.5985
12842TIP3   OH260016   4.332   1.859   6.534  0.6030 -0.1964 -0.4191
12842TIP3    H160017   4.351   1.868   6.441 -0.0521 -0.8437 -0.6265
12842TIP3    H260018   4.358   1.769   6.555  0.7970 -0.0384  0.0400
12843TIP3   OH260019   3.376   2.175  14.526  0.0571 -0.0427  0.0520
12843TIP3    H160020   3.367   2.147  14.435 -1.4061 -0.6979  0.3687
12843TIP3    H260021   3.314   2.120  14.574  1.0987 -0.0044  1.5202
12844TIP3   OH260022   1.682   5.391  16.302  0.0244 -0.3947  0.5270
12844TIP3    H160023   1.593   5.381  16.338 -0.8621  0.0823 -1.3926
12844TIP3    H260024   1.713   5.301  16.292  0.0419 -0.5555  1.7755
12845TIP3   OH260025   2.225   4.194   1.791  0.2113 -0.2574  0.7313
12845TIP3    H160026   2.173   4.247   1.731  1.9120  0.2429 -0.3948
12845TIP3    H260027   2.251   4.117   1.739 -0.2544 -1.0169  1.6010
12846TIP3   OH260028   1.466   2.070   1.356  0.3094  0.3642 -0.0088
12846TIP3    H160029   1.519   2.145   1.329 -1.7155  1.4284 -1.2409
12846TIP3    H260030   1.408   2.105   1.423  0.4216 -0.5296  0.5740
12847TIP3   OH260031   5.467   1.130   4.292 -0.2634  0.5968  0.5687
12847TIP3    H160032   5.474   1.220   4.262  2.8250  0.8582  1.6964
12847TIP3    H260033   5.388   1.128   4.346 -0.1416  2.7614  0.8892
12848TIP3   OH260034   0.588   2.885   0.169 -0.2878 -0.3938 -0.2568
12848TIP3    H160035   0.581   2.954   0.235 -1.5679 -0.3799 -0.3918
12848TIP3    H260036   0.681   2.885   0.145 -0.1864  0.9939  0.0398
12849TIP3   OH260037   4.634   0.601  13.012 -0.1211  0.2409  0.0462
12849TIP3    H160038   4.702   0.668  13.020 -0.3820  0.6688 -1.1290
12849TIP3    H260039   4.628   0.585  12.918 -1.7095  0.2691  0.1287
12850TIP3   OH260040   0.541   0.240   5.654  0.2014 -0.2367  0.0853
12850TIP3    H160041   0.556   0.209   5.743 -0.6390 -4.1706 -0.9752
12850TIP3    H260042   0.629   0.246   5.616  0.4183 -1.8384  0.2625
12851TIP3   OH260043   2.387   2.159  14.540  0.2772 -0.2442  0.3348
12851TIP3    H160044   2.382   2.093  14.471  1.4063 -0.2631  0.2523
12851TIP3    H260045   2.478   2.189  14.538  0.3023 -0.1593  1.7367
12852TIP3   OH260046   3.285   0.105  13.991 -0.4662  0.0615  0.0541
12852TIP3    H160047   3.239   0.041  13.936  2.4148 -2.5443  0.3816
12852TIP3    H260048   3.244   0.095  14.077 -0.7508 -0.5676 -0.1440
12853TIP3   OH260049   2.584   6.573  16.388 -0.8752  0.1169 -0.1913
12853TIP3    H160050   2.608   6.589  16.297  0.1985  0.5849  0.1514
12853TIP3    H260051   2.546   6.485  16.388  0.4993 -0.5096 -0.8626
12854TIP3   OH260052   5.700   0.160   1.993 -0.0435  1.0375  0.3909
12854TIP3    H160053   5.649   0.206   2.058  1.7277  0.6702  2.1452
12854TIP3    H260054   5.791   0.183   2.013  0.8210 -2.0062  0.4542
12855TIP3   OH260055   2.140   2.908   4.921 -0.3240  0.5401 -0.1834
12855TIP3    H160056   2.082   2.866   4.858  0.1298  0.9905 -0.9173
12855TIP3    H260057   2.156   2.995   4.884  0.5532  0.5336  0.1651
12856TIP3   OH260058   4.952   0.885  11.442  0.2006 -0.0254 -0.3232
12856TIP3    H160059   4.992   0.845  11.519 -0.7359  0.4746  0.4472
12856TIP3    H260060   4.908   0.963  11.476  0.4066  0.6227 -1.4892
12857TIP3   OH260061   3.493   4.689  15.629  0.0088 -0.1778  0.2767
12857TIP3    H160062   3.461   4.636  15.556  1.4165  0.7550 -1.0623
12857TIP3    H260063   3.444   4.771  15.622  1.9818  0.9534 -1.3107
12858TIP3   OH260064   4.619   1.300  11.298 -0.0405 -0.1247 -0.2531
12858TIP3    H160065   4.628   1.389  11.265 -1.9489 -0.2698 -1.3252
12858TIP3    H260066   4.589   1.249  11.223  1.1630 -1.7227  0.3078
12859TIP3   OH260067   3.539   1.757   4.610  0.1514 -0.5635  0.5536
12859TIP3    H160068   3.630   1.786   4.599 -0.1731  0.8855  1.5035
12859TIP3    H260069   3.516   1.719   4.525  1.5976 -0.8573  0.2580
12860TIP3   OH260070   4.237   4.523  14.908 -0.3312 -0.2693  0.7420
12860TIP3    H160071   4.279   4.440  14.930  0.6665  0.0142 -0.0265
12860TIP3    H260072   4.235   4.525  14.812  2.1292  1.7466  0.6228
12861TIP3   OH260073   3.356   5.797  16.773 -0.1972 -0.0540 -0.0491
12861TIP3    H160074   3.271   5.837  16.754 -0.6715 -1.6533 -1.5299
12861TIP3    H260075   3.335   5.709  16.803  0.9281 -0.5623 -0.6951
12862TIP3   OH260076   2.934   5.862   0.769  0.6494  0.0155  0.0184
12862TIP3    H160077   2.866   5.797   0.755  1.6860 -1.3799  1.1497
12862TIP3    H260078   3.015   5.818   0.744  1.5185  0.4199  1.9504
12863TIP3   OH260079   2.489   6.445   5.211 -0.3621  0.3947 -0.5950
12863TIP3    H160080   2.467   6.528   5.255  0.7139  0.8007 -0.7850
12863TIP3    H260081   2.472   6.378   5.277 -1.9546  0.6858 -0.6767
12864TIP3   OH260082   3.283   2.840   1.494 -0.0592  0.2634 -0.0430
12864TIP3    H160083   3.343   2.808   1.427 -0.9489  0.0290 -0.7592
12864TIP3    H260084   3.244   2.919   1.456 -1.1813 -0.3265 -0.1654
12865TIP3   OH260085   6.355   3.516   6.153 -0.2362 -0.5062 -0.1135
12865TIP3    H160086   6.380   3.427   6.178  0.9622 -0.4744 -1.1297
12865TIP3    H260087   6.264   3.524   6.184 -0.8724 -2.5842 -1.2474
12866TIP3   OH260088   0.316   1.832  13.278  0.3730 -0.4451 -0.2629
12866TIP3    H160089   0.364   1.831  13.361  0.9781  0.4997 -0.5840
12866TIP3    H260090   0.333   1.746  13.239  0.7597 -0.5883  0.2204
12867TIP3   OH260091   3.466   4.419   4.127  0.5385 -0.6717  0.1206
12867TIP3    H160092   3.523   4.344   4.148  0.8573 -0.3030  0.6062
12867TIP3    H260093   3.412   4.430   4.206  0.7534 -0.1612  0.1983
12868TIP3   OH260094   1.138   4.508   1.657  0.0145  0.1221 -0.0254
12868TIP3    H160095   1.124   4.430   1.711 -1.2218 -0.6343 -1.3697
12868TIP3    H260096   1.230   4.530   1.671  0.4348 -1.6611  0.2855
12869TIP3   OH260097   1.270   0.176   3.030 -0.2672 -0.1514 -0.8043
12869TIP3    H160098   1.195   0.216   3.074  0.5486  1.1985 -0.5954
12869TIP3    H260099   1.333   0.247   3.020  0.9419 -1.2260 -1.0933
12870TIP3   OH260100   0.059   6.049   6.716  0.4470  0.1279 -0.5703
12870TIP3    H160101   0.029   5.973   6.766  0.9984  1.0317  1.2069
12870TIP3    H260102  -0.021   6.084   6.676  0.0224 -0.7103 -0.4809
12871TIP3   OH260103   2.905   5.502  10.298  0.8571  0.2071 -0.1928
12871TIP3    H160104   2.895   5.519  10.204 -2.5764  1.7955  0.3254
12871TIP3    H260105   2.819   5.472  10.326  1.8272 -0.3626  2.4745
12872TIP3   OH260106   5.137   0.362   3.177  0.3538  0.0840 -0.0045
12872TIP3    H160107   5.128   0.417   3.255 -0.6764 -2.5046  1.8411
12872TIP3    H260108   5.228   0.331   3.181  0.4217  0.2665 -0.0884
12873TIP3   OH260109   5.452   6.150  11.965  0.2591  0.1789  0.3466
12873TIP3    H160110   5.487   6.071  11.923  0.4399  1.1531 -1.3940
12873TIP3    H260111   5.365   6.160  11.927  0.8317  1.6674 -0.6408
12874TIP3   OH260112   5.945   3.484   0.533 -0.0661 -0.4247 -0.1208
12874TIP3    H160113   5.867   3.539   0.546  0.5279  0.0859  1.6164
12874TIP3    H260114   5.960   3.444   0.619  1.1163 -1.1742 -0.6535
12875TIP3   OH260115   3.545   1.825  12.497 -0.1405  0.1999 -0.5761
12875TIP3    H160116   3.631   1.817  12.539 -0.0208  0.4159 -0.7773
12875TIP3    H260117   3.562   1.809  12.404 -0.8063 -2.9093 -0.2671
12876TIP3   OH260118   4.356   3.963  12.106 -0.1264  0.3896 -0.6036
12876TIP3    H160119   4.407   4.019  12.048 -0.1071  0.3919 -0.5851
12876TIP3    H260120   4.406   3.960  12.188  0.3912 -0.4784 -0.9381
12877TIP3   OH260121   4.509   4.390  11.727 -0.3301 -0.1456 -0.5444
12877TIP3    H160122   4.522   4.299  11.701  0.7064  0.6065 -2.9223
12877TIP3    H260123   4.580   4.408  11.789  0.0826 -0.6528 -0.8679
12878TIP3   OH260124   6.252   1.752  16.513  0.2004  0.0081 -1.1156
12878TIP3    H160125   6.309   1.676  16.500  0.8563  0.0039  1.3703
12878TIP3    H260126   6.288   1.797  16.589 -1.5816  1.4993 -1.0802
12879TIP3   OH260127   5.883   0.206  12.124  0.3023  0.1472  0.5256
12879TIP3    H160128   5.791   0.180  12.121  0.6823 -1.7035  2.4103
12879TIP3    H260129   5.902   0.238  12.036 -2.0238  0.1702 -0.0228
12880TIP3   OH260130   5.123   4.346   2.653  0.3371 -0.8873 -0.2005
12880TIP3    H160131   5.092   4.427   2.692 -1.1365  0.1359 -3.2210
12880TIP3    H260132   5.044   4.296   2.633  0.7784 -0.4179 -3.6032
12881TIP3   OH260133   3.657   2.405   2.352 -0.5608 -0.1798 -0.2634
12881TIP3    H160134   3.673   2.353   2.273  2.0221 -0.6260  0.4677
12881TIP3    H260135   3.732   2.464   2.357 -0.0186 -0.9906  2.4570
12882TIP3   OH260136   4.562   2.830  14.444  0.2134 -0.0866  0.4933
12882TIP3    H160137   4.554   2.906  14.386 -2.5330  0.4120  1.3769
12882TIP3    H260138   4.605   2.864  14.522 -1.2703  0.7075  1.0072
12883TIP3   OH260139   2.163   1.537  12.148  0.2580  1.0062  0.4084
12883TIP3    H160140   2.132   1.627  12.135  0.8586  1.0882 -0.4934
12883TIP3    H260141   2.134   1.515  12.237 -0.6392  1.7839  0.3284
12884TIP3   OH260142   0.113   6.383   1.128 -0.3539 -0.1765  0.1453
12884TIP3    H160143   0.057   6.441   1.180  1.4358 -0.0910  2.0643
12884TIP3    H260144   0.070   6.298   1.133 -1.7648  0.4365 -0.7713
12885TIP3   OH260145   5.102   5.780   1.289 -0.5115 -0.6585 -0.1905
12885TIP3    H160146   5.075   5.865   1.325  0.6815 -0.0424 -0.6797
12885TIP3    H260147   5.023   5.745   1.248 -1.3543 -0.3928  1.1259
12886TIP3   OH260148   2.235   2.839  16.792  0.1776 -0.7632  0.1151
12886TIP3    H160149   2.169   2.883  16.845 -0.7373 -1.0743 -0.7179
12886TIP3    H260150   2.296   2.908  16.766 -0.2665 -0.3129  0.2539
12887TIP3   OH260151   3.410   1.280   4.760  0.0718 -0.2551 -0.6301
12887TIP3    H160152   3.419   1.184   4.761 -2.4800 -0.5803 -0.1645
12887TIP3    H260153   3.417   1.303   4.667  0.4249 -0.9314 -0.7789
12888TIP3   OH260154   0.691   2.247   1.450  0.1765  0.0388  0.3879
12888TIP3    H160155   0.628   2.201   1.395  0.9274 -0.0245 -0.4534
12888TIP3    H260156   0.713   2.326   1.401  0.9232 -0.0552  0.5562
12889TIP3   OH260157   2.290   0.729  15.561 -0.1942 -0.2039 -0.1357
12889TIP3    H160158   2.249   0.691  15.484 -0.0177  0.9928 -0.8386
12889TIP3    H260159   2.378   0.691  15.563 -1.0655 -2.3539  1.0693
12890TIP3   OH260160   2.345   0.935  13.029  0.8193 -0.7682  0.0682
12890TIP3    H160161   2.250   0.934  13.019  0.8930  1.5684 -2.1626
12890TIP3    H260162   2.369   0.845  13.048 -1.7359 -1.6616 -0.5689
12891TIP3   OH260163   6.122   5.140   3.706  0.0389  0.5174  0.7257
12891TIP3    H160164   6.138   5.088   3.784 -0.4132  0.8674  1.0537
12891TIP3    H260165   6.176   5.098   3.638 -0.2662 -0.3357  0.9960
12892TIP3   OH260166   3.764   5.009   5.150  0.0641 -0.2082 -0.0825
12892TIP3    H160167   3.856   4.990   5.136  0.6521  2.7677 -1.0139
12892TIP3    H260168   3.718   4.955   5.085  0.8817 -3.0811  1.5592
12893TIP3   OH260169   3.048   5.802   4.620  0.0787 -0.0397 -0.6994
12893TIP3    H160170   3.103   5.858   4.675 -0.6156 -0.9197  0.9713
12893TIP3    H260171   3.104   5.729   4.596 -0.3428 -1.0306  1.1559
12894TIP3   OH260172   1.540   0.131  11.463 -0.1961  0.6465  0.2517
12894TIP3    H160173   1.527   0.047  11.505  0.5175 -0.5893 -1.8343
12894TIP3    H260174   1.623   0.163  11.499 -0.2508  0.2545  0.7372
12895TIP3   OH260175   6.496   1.346  11.743 -0.1746  0.2926  0.5888
12895TIP3    H160176   6.449   1.371  11.823 -1.8322 -0.1394 -0.2071
12895TIP3    H260177   6.428   1.340  11.676  1.3029  1.5935 -1.1163
12896TIP3   OH260178   0.648   4.337   2.933  0.1528  0.1665  0.0624
12896TIP3    H160179   0.687   4.278   2.997  1.8868 -0.2999 -1.3222
12896TIP3    H260180   0.555   4.315   2.932  0.6411 -2.0966  0.0910
12897TIP3   OH260181   5.298   5.729   4.056 -0.3510 -0.7227 -0.1164
12897TIP3    H160182   5.277   5.822   4.063 -0.5680 -0.7546 -0.3113
12897TIP3    H260183   5.239   5.687   4.119  0.6328 -0.6137  0.9082
12898TIP3   OH260184   1.933   4.468  16.749 -0.4532 -0.1455 -0.1457
12898TIP3    H160185   1.886   4.442  16.828 -1.2365 -0.2867 -0.6461
12898TIP3    H260186   2.016   4.421  16.754 -0.2738  0.2555  0.8457
12899TIP3   OH260187   6.779   5.582  12.933  0.0178  0.0574 -0.1871
12899TIP3    H160188   6.766   5.619  12.845  1.0135 -0.6431 -0.6467
12899TIP3    H260189   6.709   5.621  12.986 -0.7090  0.3549 -1.3307
12900TIP3   OH260190   5.509   5.209   2.740 -0.0483  0.0240  0.8564
12900TIP3    H160191   5.570   5.280   2.760  0.4199  0.2738 -1.1941
12900TIP3    H260192   5.563   5.129   2.745  0.1280  0.1100  0.4065
12901TIP3   OH260193   2.654   3.516  16.326 -0.2873 -0.1743  0.7873
12901TIP3    H160194   2.598   3.557  16.392  1.6795  0.6884  1.9834
12901TIP3    H260195   2.657   3.579  16.254 -2.7531 -1.2804 -0.4414
12902TIP3   OH260196   1.487   3.797  12.630 -0.3212  0.1888  0.4221
12902TIP3    H160197   1.547   3.822  12.700 -0.8003 -1.6715  1.5627
12902TIP3    H260198   1.538   3.808  12.549  0.5976  1.3101  1.1284
12903TIP3   OH260199   1.626   4.080   4.548 -0.4988  0.6310 -0.4537
12903TIP3    H160200   1.686   4.143   4.507 -0.5434  0.9176 -0.0799
12903TIP3    H260201   1.563   4.059   4.479  0.2263  0.0597 -0.9629
12904TIP3   OH260202   2.945   3.023   0.374 -0.5509 -0.0515 -0.2450
12904TIP3    H160203   2.958   3.118   0.377 -1.3719  0.0513  1.4467
12904TIP3    H260204   3.018   2.991   0.320  0.9549  1.3607  0.8163
12905TIP3   OH260205   3.299   1.055   1.475 -0.0855  0.1013  0.2350
12905TIP3    H160206   3.247   1.031   1.551  0.4511 -2.0542 -0.0176
12905TIP3    H260207   3.276   0.989   1.409 -0.1288  1.5886 -1.3055
12906TIP3   OH260208   2.309   2.704   1.761  0.2388 -0.1208 -0.3216
12906TIP3    H160209   2.282   2.795   1.751 -0.2766 -0.0831  1.1485
12906TIP3    H260210   2.338   2.698   1.852 -0.3939 -1.5881 -0.1954
12907TIP3   OH260211   3.213   5.178   0.398 -0.0439 -0.0115  0.3024
12907TIP3    H160212   3.256   5.104   0.354  0.2762  0.3166  0.0569
12907TIP3    H260213   3.217   5.156   0.491 -0.9392 -0.8277  0.1711
12908TIP3   OH260214   5.117   6.340  16.108  0.3356  0.4451 -0.1872
12908TIP3    H160215   5.022   6.329  16.107  0.0621  1.1839  3.4411
12908TIP3    H260216   5.147   6.283  16.178  2.5212  0.7337 -0.8095
12909TIP3   OH260217   1.924   3.784  15.581  0.2796 -0.3078  0.1510
12909TIP3    H160218   1.985   3.777  15.655 -0.8839  0.1060  1.1930
12909TIP3    H260219   1.919   3.695  15.546 -0.2018 -0.8199  1.4624
12910TIP3   OH260220   0.435   2.998  16.405  0.0085  0.0859 -0.4258
12910TIP3    H160221   0.415   3.040  16.322 -0.6170  1.1881  0.2672
12910TIP3    H260222   0.410   2.906  16.392 -0.2100  0.2702 -1.3992
12911TIP3   OH260223   5.464   5.065   0.599  0.4797  0.1388 -0.1366
12911TIP3    H160224   5.518   5.027   0.668 -0.4618 -0.1636  0.4520
12911TIP3    H260225   5.391   5.005   0.589  0.2666  0.5107 -0.9613
12912TIP3   OH260226   1.525   4.551   2.270 -0.7564 -0.3381  0.8409
12912TIP3    H160227   1.446   4.605   2.275 -0.9961 -0.7589  2.0500
12912TIP3    H260228   1.597   4.614   2.264 -1.2012  0.0387 -1.4270
12913TIP3   OH260229   6.526   1.768  10.695  0.3344  0.4232 -0.2184
12913TIP3    H160230   6.559   1.706  10.759 -0.7731 -0.4717 -0.4980
12913TIP3    H260231   6.431   1.766  10.705  0.2488  1.7147 -0.5700
12914TIP3   OH260232   4.506   0.854  13.574  0.8747  0.2003 -0.2428
12914TIP3    H160233   4.417   0.866  13.540  0.6101 -0.1489  0.2973
12914TIP3    H260234   4.563   0.860  13.497  0.6650  3.2185 -0.2732
12915TIP3   OH260235   0.276   2.574   2.839  0.2273 -0.8313  0.0170
12915TIP3    H160236   0.284   2.573   2.744  2.1658 -0.6377  0.1481
12915TIP3    H260237   0.182   2.585   2.855 -0.0760 -0.3932 -1.8587
12916TIP3   OH260238   3.697   2.738   0.230 -0.1294 -0.0266 -0.2000
12916TIP3    H160239   3.652   2.655   0.214  0.7463 -0.4750 -0.3837
12916TIP3    H260240   3.637   2.804   0.197  0.0335 -0.7122 -1.9862
12917TIP3   OH260241   6.678   5.127  15.039 -0.7801 -0.9436  0.4529
12917TIP3    H160242   6.746   5.075  14.996  1.4837  0.7536  1.7504
12917TIP3    H260243   6.695   5.117  15.132 -0.6267  1.5950  0.7544
12918TIP3   OH260244   4.128   2.322  15.104 -0.7636  0.5162 -0.2944
12918TIP3    H160245   4.106   2.230  15.114 -1.3749  0.7477  0.6095
12918TIP3    H260246   4.090   2.346  15.019 -1.0829  0.0725 -0.2781
12919TIP3   OH260247   3.966   0.453  12.116  0.5189  0.1428  0.0927
12919TIP3    H160248   4.007   0.496  12.191  0.9751  1.5650 -0.9107
12919TIP3    H260249   3.874   0.476  12.122  0.3064 -0.8828  0.9384
12920TIP3   OH260250   4.315   1.385   5.474  0.2983  0.3484  0.2956
12920TIP3    H160251   4.364   1.346   5.546 -0.3824 -1.2053 -0.0447
12920TIP3    H260252   4.223   1.378   5.500  0.0468 -0.1738 -0.6629
12921TIP3   OH260253   4.017   3.700  10.488 -0.4708  0.0599 -0.0110
12921TIP3    H160254   3.957   3.628  10.505 -1.1145 -0.4559 -3.6735
12921TIP3    H260255   3.961   3.776  10.477 -0.1614  0.2313 -0.3917
12922TIP3   OH260256   2.404   3.542   1.075  0.4367 -0.8176 -0.1009
12922TIP3    H160257   2.455   3.599   1.017  0.6305 -1.0792 -0.1894
12922TIP3    H260258   2.396   3.460   1.026  1.3910 -1.3604  0.6204
12923TIP3   OH260259   3.272   6.274  13.687 -0.3045 -0.0240  0.4795
12923TIP3    H160260   3.179   6.252  13.691 -0.1287 -1.0690 -0.5653
12923TIP3    H260261   3.294   6.302  13.775 -1.7561  0.8585  0.5958
12924TIP3   OH260262   3.822   0.402  15.280 -0.3685  0.3123 -0.2901
12924TIP3    H160263   3.909   0.381  15.246 -0.4457  0.1683 -0.4001
12924TIP3    H260264   3.839   0.452  15.359 -0.1637 -0.9705  0.5128
12925TIP3   OH260265   2.650   5.571  16.355 -0.5005  0.5410 -0.0432
12925TIP3    H160266   2.555   5.561  16.350 -0.3551 -1.6748  0.7258
12925TIP3    H260267   2.665   5.602  16.445 -0.4245 -0.5468  0.3309
12926TIP3   OH260268   0.434   6.506  13.204  0.0621  0.0916  0.2482
12926TIP3    H160269   0.346   6.528  13.176  0.7383  0.7915 -1.4589
12926TIP3    H260270   0.489   6.577  13.169  1.4908 -1.1143 -0.0666
12927TIP3   OH260271   6.174   6.837   2.015 -0.0099  0.1306 -0.5856
12927TIP3    H160272   6.165   6.757   1.965 -0.8826 -0.3367  0.2698
12927TIP3    H260273   6.268   6.845   2.032 -0.0496 -1.7949  0.9759
12928TIP3   OH260274   2.356   2.297  16.995 -0.1631 -0.6321 -0.3431
12928TIP3    H160275   2.395   2.267  17.078 -0.6478 -2.1467 -0.6400
12928TIP3    H260276   2.394   2.384  16.981  0.9764 -0.9225  0.7781
12929TIP3   OH260277   4.899   4.993   2.983 -0.4626 -0.2874 -0.1457
12929TIP3    H160278   4.925   4.951   2.901  0.5243 -0.2786  0.1532
12929TIP3    H260279   4.971   5.052   3.004  0.1468 -1.5558  1.6087
12930TIP3   OH260280   1.571   6.510   0.700 -0.4441 -0.0334 -0.2809
12930TIP3    H160281   1.513   6.444   0.663  0.6172 -2.8035  2.5724
12930TIP3    H260282   1.539   6.525   0.789  1.1153  1.0704  0.1514
12931TIP3   OH260283   2.523   0.404   3.890 -0.2025 -0.3157 -0.5491
12931TIP3    H160284   2.549   0.455   3.813  0.4625  0.0681 -0.0824
12931TIP3    H260285   2.606   0.374   3.928 -0.4989 -0.1722  0.2299
12932TIP3   OH260286   5.867   5.526  12.236  0.5482 -0.1212  0.0083
12932TIP3    H160287   5.840   5.605  12.283  1.1759 -0.2145  0.5323
12932TIP3    H260288   5.787   5.473  12.231  0.2539  0.3039  0.1336
12933TIP3   OH260289   5.492   5.538  11.727  0.1257 -0.5529 -0.2071
12933TIP3    H160290   5.401   5.507  11.730 -0.4947  1.1833  0.3220
12933TIP3    H260291   5.487   5.621  11.680  1.2953  0.0075  0.6184
12934TIP3   OH260292   0.754   2.288  12.425 -0.5632 -0.1044 -0.2781
12934TIP3    H160293   0.702   2.209  12.438  0.7355 -0.7780  0.9371
12934TIP3    H260294   0.768   2.323  12.513 -0.3598  0.9985 -0.7278
12935TIP3   OH260295   2.637   6.441  16.762  0.0752 -0.3596  0.2517
12935TIP3    H160296   2.648   6.356  16.805  0.3396  0.0661  1.0569
12935TIP3    H260297   2.724   6.481  16.768  0.3726 -0.6741 -1.5533
12936TIP3   OH260298   0.815   3.154  13.586  0.3836  0.1181  0.0463
12936TIP3    H160299   0.720   3.166  13.581  0.2981  0.0394  1.3094
12936TIP3    H260300   0.827   3.085  13.651  1.4162  2.3500  2.4245
12937TIP3   OH260301   3.734   0.393  11.623 -0.0322  0.3237 -0.3858
12937TIP3    H160302   3.792   0.349  11.561  0.7393  2.9620 -1.6504
12937TIP3    H260303   3.783   0.392  11.705 -0.0635 -1.1569 -0.3486
12938TIP3   OH260304   4.297   0.744   3.783 -0.4459  0.3477 -0.1230
12938TIP3    H160305   4.369   0.791   3.826 -1.0141  1.6847 -0.5779
12938TIP3    H260306   4.312   0.652   3.805  0.8516  0.7025  0.5931
12939TIP3   OH260307   5.242   4.446   6.155 -0.0228  0.1579  0.3795
12939TIP3    H160308   5.252   4.448   6.251  0.6684  0.8654  0.2947
12939TIP3    H260309   5.245   4.537   6.128 -2.3448  0.1532 -0.1285
12940TIP3   OH260310   6.827   6.686  14.570  0.5593 -0.2810 -0.0270
12940TIP3    H160311   6.911   6.730  14.557  0.1899  0.5216  0.2288
12940TIP3    H260312   6.850   6.599  14.602  1.2659  0.3435  1.2047
12941TIP3   OH260313   2.319   6.235   4.609  0.3429 -0.7029  0.2184
12941TIP3    H160314   2.261   6.242   4.534 -0.5300 -0.4660  0.8913
12941TIP3    H260315   2.260   6.217   4.683  1.0174  0.3555  1.0497
12942TIP3   OH260316   5.567   4.463   2.534  0.1182  0.3770 -0.0445
12942TIP3    H160317   5.505   4.467   2.606  0.7591 -0.3804  0.5755
12942TIP3    H260318   5.653   4.467   2.577  0.5533 -2.0059 -0.5783
12943TIP3   OH260319   0.431   2.002   4.681  0.8535  0.5513 -0.0829
12943TIP3    H160320   0.516   2.026   4.718  0.8667 -0.3318  0.4850
12943TIP3    H260321   0.403   2.080   4.632  1.5678  1.1743  0.4781
12944TIP3   OH260322   0.262   5.365  14.655  0.1051  0.1013 -0.1653
12944TIP3    H160323   0.211   5.289  14.682  0.2156 -0.1981 -0.7948
12944TIP3    H260324   0.292   5.344  14.567 -0.8547  1.3674 -0.8243
12945TIP3   OH260325   3.307   3.107  11.877  0.1996 -0.0618 -0.8696
12945TIP3    H160326   3.370   3.049  11.920  2.8475  0.7833 -3.2701
12945TIP3    H260327   3.287   3.063  11.794  1.3298  1.7781 -2.1990
12946TIP3   OH260328   6.678   6.415  15.519 -0.5515 -0.9290  0.5388
12946TIP3    H160329   6.696   6.443  15.608  2.4809  0.5975 -0.4299
12946TIP3    H260330   6.728   6.335  15.507  0.0332 -0.4844 -0.1091
12947TIP3   OH260331   1.743   3.030  15.056 -0.7001 -0.0588  0.1450
12947TIP3    H160332   1.755   3.056  15.148  0.7457  2.3222 -0.6279
12947TIP3    H260333   1.653   2.999  15.052 -1.0069  0.3924  2.2478
12948TIP3   OH260334   3.191   4.090   0.800  0.0194 -0.0329  0.1620
12948TIP3    H160335   3.214   4.013   0.852 -0.1970 -0.0833  0.1837
12948TIP3    H260336   3.268   4.107   0.745 -0.0945 -0.5173 -0.1495
12949TIP3   OH260337   2.628   4.781  16.475 -0.2319 -0.0637  0.4954
12949TIP3    H160338   2.617   4.876  16.474  0.5748  0.0820  2.0584
12949TIP3    H260339   2.698   4.767  16.539  0.3050 -1.6466 -0.4116
12950TIP3   OH260340   2.988   1.069   5.686 -0.3103  0.1344 -0.5549
12950TIP3    H160341   3.011   1.139   5.747 -0.5342 -1.6584  1.6914
12950TIP3    H260342   2.902   1.095   5.651 -0.1490  1.2260 -0.1777
12951TIP3   OH260343   5.137   2.427  12.983 -0.2098  0.1440 -0.6579
12951TIP3    H160344   5.085   2.497  13.022 -0.1491  0.1511 -0.5902
12951TIP3    H260345   5.220   2.428  13.031 -0.2466 -0.0413 -0.5888
12952TIP3   OH260346   5.095   2.005   2.239  0.1606 -0.0745  0.1053
12952TIP3    H160347   5.138   2.082   2.202 -1.0679 -0.1411 -1.5743
12952TIP3    H260348   5.066   1.955   2.163  0.9167 -2.2230  1.1475
12953TIP3   OH260349   0.166   3.899  16.969 -0.5058  0.5240  0.2676
12953TIP3    H160350   0.226   3.927  17.038 -0.1777 -0.3728  0.3589
12953TIP3    H260351   0.085   3.947  16.987 -0.3588  0.4541  1.1563
12954TIP3   OH260352   1.824   3.898   6.635 -0.2942  0.3968 -0.5096
12954TIP3    H160353   1.917   3.915   6.647 -0.3878  1.6336 -1.3903
12954TIP3    H260354   1.800   3.843   6.709  0.9752  0.6529  0.1153
12955TIP3   OH260355   0.244   1.513   1.777 -0.1149 -0.0224 -0.0490
12955TIP3    H160356   0.239   1.482   1.687  1.7812 -0.0090 -0.1976
12955TIP3    H260357   0.262   1.606   1.770  0.5874 -0.1243  0.3326
12956TIP3   OH260358   6.623   0.577  15.886 -0.0243 -0.0227  0.4051
12956TIP3    H160359   6.640   0.485  15.867  1.6198  0.3076  0.1383
12956TIP3    H260360   6.681   0.597  15.960 -1.6018  0.3885  1.5997
12957TIP3   OH260361   4.505   6.833  10.768 -0.4604 -0.1212  0.0250
12957TIP3    H160362   4.585   6.828  10.715 -0.6035  3.5655 -0.8399
12957TIP3    H260363   4.459   6.751  10.749  1.9509 -1.2817 -1.3659
12958TIP3   OH260364   0.586   4.454   0.775 -0.1683 -0.7067  0.4355
12958TIP3    H160365   0.540   4.390   0.830 -1.7946 -0.2595 -0.3525
12958TIP3    H260366   0.611   4.406   0.697 -0.3885 -0.6618  0.3361
12959TIP3   OH260367   4.271   2.111  11.623  0.2586 -0.6000  0.5197
12959TIP3    H160368   4.315   2.115  11.708  1.0623  0.7281  0.0873
12959TIP3    H260369   4.221   2.193  11.618  0.0761 -0.7452 -0.2000
12960TIP3   OH260370   4.609   6.194  14.993  0.0892 -0.1563 -0.7244
12960TIP3    H160371   4.682   6.139  15.022 -0.3898 -0.5601 -0.2712
12960TIP3    H260372   4.609   6.268  15.053  0.8070  0.4157 -1.4068
12961TIP3   OH260373   1.492   1.106   2.275 -0.3436  0.1254 -0.1491
12961TIP3    H160374   1.465   1.142   2.190 -0.1330 -1.0615 -0.7431
12961TIP3    H260375   1.416   1.055   2.304 -0.5488  0.8209  0.5621
12962TIP3   OH260376   6.137   3.978  15.749  0.0699  0.5386  0.0680
12962TIP3    H160377   6.172   3.995  15.837  1.0783 -0.1764 -0.1743
12962TIP3    H260378   6.051   3.940  15.765  0.0954  0.7382  0.7415
12963TIP3   OH260379   4.494   3.389  14.883  0.6345  0.3504 -0.4132
12963TIP3    H160380   4.440   3.367  14.959 -0.0200 -0.3693 -1.0604
12963TIP3    H260381   4.540   3.469  14.908 -0.1021  0.5161  0.4706
12964TIP3   OH260382   1.771   0.027   2.739  0.0966 -0.1392  0.0067
12964TIP3    H160383   1.845  -0.030   2.757  0.7878  0.3817 -1.1038
12964TIP3    H260384   1.737   0.050   2.826 -1.8899 -4.2735  0.6126
12965TIP3   OH260385   3.066   3.670  12.311  1.0715  0.2676 -0.3890
12965TIP3    H160386   3.006   3.633  12.246  0.1573  1.4926 -0.2800
12965TIP3    H260387   3.092   3.595  12.365 -0.9989 -0.1892  0.0634
12966TIP3   OH260388   6.391   5.884   4.786  0.3606 -0.6724 -0.4158
12966TIP3    H160389   6.440   5.952   4.740 -0.1654 -0.7010 -1.0245
12966TIP3    H260390   6.340   5.841   4.718 -2.3661  0.8930  0.4933
12967TIP3   OH260391   4.845   4.998   2.463  0.0663 -0.1531 -0.2162
12967TIP3    H160392   4.886   4.913   2.481 -0.4827 -0.6102 -1.0219
12967TIP3    H260393   4.764   4.997   2.514 -0.3105 -0.4393 -0.8095
12968TIP3   OH260394   0.508   6.671  16.595 -0.1842  0.0341  0.5337
12968TIP3    H160395   0.572   6.741  16.603 -0.9904  0.9534 -0.6941
12968TIP3    H260396   0.433   6.701  16.647 -0.2953 -0.2182  0.5234
12969TIP3   OH260397   1.492   6.466  15.459  0.1925  0.6379 -0.0612
12969TIP3    H160398   1.462   6.408  15.529  0.2059  1.7650  0.9028
12969TIP3    H260399   1.433   6.541  15.463  0.7568  1.1242 -0.6749
12970TIP3   OH260400   4.426   6.305  12.869  0.3432  0.1018  0.2158
12970TIP3    H160401   4.519   6.327  12.864  0.5409 -0.4582  1.3041
12970TIP3    H260402   4.382   6.377  12.823  1.2919  0.4841 -0.1047
12971TIP3   OH260403   2.447   2.622  16.389  0.0261  0.2925  0.0634
12971TIP3    H160404   2.360   2.620  16.429 -0.5711  2.5520 -0.9572
12971TIP3    H260405   2.479   2.711  16.405  0.6472  0.6338 -2.5514
12972TIP3   OH260406   2.094   1.714  11.838 -0.2879 -0.1400  0.3424
12972TIP3    H160407   2.010   1.759  11.851 -0.1039  0.5631 -0.7498
12972TIP3    H260408   2.096   1.693  11.745  0.1395 -1.4296  0.6267
12973TIP3   OH260409   2.677   2.749   1.893  0.5936 -0.0625 -0.2103
12973TIP3    H160410   2.619   2.777   1.964  0.9870  1.8844 -0.5995
12973TIP3    H260411   2.729   2.679   1.931 -1.3483 -1.2186  0.4343
12974TIP3   OH260412   0.917   5.400  15.913  0.4692  0.6371  0.1462
12974TIP3    H160413   0.919   5.304  15.904 -0.8263  0.4664  1.2070
12974TIP3    H260414   0.965   5.418  15.993 -3.6237  0.2575  3.0319
12975TIP3   OH260415   3.478   0.921   2.717 -0.2588 -0.0102  0.0103
12975TIP3    H160416   3.432   0.932   2.634  0.5822  1.4162 -0.2989
12975TIP3    H260417   3.563   0.886   2.693  0.1351  0.7841  0.2160
12976TIP3   OH260418   0.171   3.782   4.048 -0.1520  0.9369  0.1967
12976TIP3    H160419   0.203   3.718   3.984  1.9250  0.5970  1.4860
12976TIP3    H260420   0.202   3.866   4.016  1.5754  0.6809  1.0953
12977TIP3   OH260421   5.419   5.966   4.153 -0.2869  0.2123 -0.1248
12977TIP3    H160422   5.390   5.978   4.244  0.2241 -1.3261  0.2750
12977TIP3    H260423   5.339   5.974   4.101 -0.7940 -0.1804  0.5865
12978TIP3   OH260424   5.711   5.573   2.537  0.2832 -0.0072  0.6677
12978TIP3    H160425   5.678   5.484   2.530 -0.8309  0.4836 -0.9289
12978TIP3    H260426   5.637   5.624   2.570  0.3304  0.6163 -0.1439
12979TIP3   OH260427   3.108   4.555  15.186 -0.3062  0.2141  0.1666
12979TIP3    H160428   3.129   4.596  15.102 -1.0396 -0.6636 -0.4570
12979TIP3    H260429   3.129   4.463  15.174  1.3206  0.3562  1.5598
12980TIP3   OH260430   4.411   3.176  14.365 -0.3564  0.3159  0.4199
12980TIP3    H160431   4.503   3.153  14.357 -0.1949  0.8771  0.5757
12980TIP3    H260432   4.410   3.272  14.358 -0.9457  0.3029  0.2451
12981TIP3   OH260433   2.651   1.843   1.389 -0.4354  0.0992  0.5795
12981TIP3    H160434   2.577   1.901   1.372  1.1041  1.8763 -0.4129
12981TIP3    H260435   2.613   1.755   1.391 -2.3892  0.8311 -1.1353
12982TIP3   OH260436   3.456   2.889   1.914  0.2840 -0.2290 -0.3129
12982TIP3    H160437   3.544   2.862   1.940  1.9274  2.8370 -2.1037
12982TIP3    H260438   3.453   2.983   1.934 -1.6152  0.2942 -2.6497
12983TIP3   OH260439   4.646   0.839  12.722 -0.2155 -0.5372  0.3404
12983TIP3    H160440   4.577   0.872  12.665 -1.5243 -0.7902  1.7338
12983TIP3    H260441   4.640   0.892  12.801 -0.7174 -2.3816  1.6123
12984TIP3   OH260442   3.161   2.416  13.327  0.0617  0.3997 -0.3533
12984TIP3    H160443   3.230   2.352  13.309 -0.5592 -0.2777 -0.4089
12984TIP3    H260444   3.202   2.481  13.383  0.9382  0.3996 -0.9711
12985TIP3   OH260445   2.056   2.005   0.637  0.6785 -0.2678 -0.5336
12985TIP3    H160446   2.144   1.970   0.654  0.5152  0.0056  1.0540
12985TIP3    H260447   2.012   1.935   0.588  1.3403 -1.0039 -0.1197
12986TIP3   OH260448   3.016   2.358   5.982  0.0087 -0.1428  0.0221
12986TIP3    H160449   2.957   2.323   5.915 -0.0994  0.1398 -0.0336
12986TIP3    H260450   3.012   2.295   6.053 -1.2229  0.4197  0.4818
12987TIP3   OH260451   1.713   4.670  13.746 -0.5619  0.7663  0.3167
12987TIP3    H160452   1.680   4.634  13.828 -0.1013  0.7652  0.5050
12987TIP3    H260453   1.771   4.742  13.773  1.4995 -0.7237  0.1332
12988TIP3   OH260454   3.991   3.016   1.806  0.5135  0.0980 -0.5782
12988TIP3    H160455   4.068   2.966   1.779 -0.5180  0.5895 -5.4484
12988TIP3    H260456   4.021   3.106   1.810  0.6740  0.0249 -0.1591
12989TIP3   OH260457   4.881   6.554   2.563  0.0514 -0.3492  0.1633
12989TIP3    H160458   4.812   6.525   2.503 -2.3607 -0.6184  2.8799
12989TIP3    H260459   4.945   6.483   2.561  0.5024  0.0176 -2.6066
12990TIP3   OH260460   3.389   6.637   2.025  0.5689  0.2755  0.4982
12990TIP3    H160461   3.410   6.549   2.057  0.5619 -0.2851 -0.9569
12990TIP3    H260462   3.301   6.629   1.988  0.4781  0.9558  0.5604
12991TIP3   OH260463   1.615   4.476   4.303 -0.1675 -0.0410  0.2690
12991TIP3    H160464   1.633   4.411   4.235  0.6933  0.0788  0.3721
12991TIP3    H260465   1.639   4.433   4.385  2.2689  1.0144  0.1959
12992TIP3   OH260466   0.362   3.886  13.556  0.0383 -0.3798  0.1436
12992TIP3    H160467   0.338   3.939  13.480  0.4046  2.0539  1.6289
12992TIP3    H260468   0.446   3.846  13.533 -0.3656 -0.5664 -1.0954
12993TIP3   OH260469   4.036   3.335  12.575  0.1216  0.4150 -0.1429
12993TIP3    H160470   4.128   3.361  12.585  0.3821 -1.0283  1.8523
12993TIP3    H260471   3.986   3.411  12.606  0.6493  0.9256 -0.5172
12994TIP3   OH260472   5.544   2.369   6.128  0.4922  0.5322 -0.0378
12994TIP3    H160473   5.609   2.386   6.196  1.2180 -0.3681 -0.4748
12994TIP3    H260474   5.551   2.444   6.069 -0.4962  1.5753  1.1098
12995TIP3   OH260475   2.430   5.399   4.157 -0.4402  0.2436 -0.5390
12995TIP3    H160476   2.502   5.419   4.097 -0.4541 -1.1334 -1.0683
12995TIP3    H260477   2.467   5.334   4.218 -1.0682 -0.0825 -0.4940
12996TIP3   OH260478   5.254   1.101   5.504  0.0172  0.5243  0.2379
12996TIP3    H160479   5.180   1.141   5.458  0.4361  0.3248 -0.6293
12996TIP3    H260480   5.233   1.008   5.507  0.1185  0.5008  0.2180
12997TIP3   OH260481   5.827   0.805  16.941  0.6792 -0.0457  0.1635
12997TIP3    H160482   5.887   0.734  16.964  0.2760 -0.3595  0.2774
12997TIP3    H260483   5.802   0.786  16.851 -0.7735 -1.0608  0.7315
12998TIP3   OH260484   1.025   1.625  13.313  0.3006 -1.2211  0.0234
12998TIP3    H160485   1.012   1.656  13.223  0.6243  0.3388  0.4924
12998TIP3    H260486   1.119   1.609  13.320  0.6112  0.7160  0.6907
12999TIP3   OH260487   3.541   2.125   3.888 -0.2280 -0.4996  0.6697
12999TIP3    H160488   3.594   2.175   3.826 -0.6810  0.6580  1.1913
12999TIP3    H260489   3.506   2.053   3.836 -0.1804  0.1431 -0.2895
13000TIP3   OH260490   6.533   3.628  15.753  0.1669  0.1204  0.6900
13000TIP3    H160491   6.472   3.579  15.697 -1.0526  1.3479  0.8783
13000TIP3    H260492   6.476   3.682  15.808  1.4212  2.6361 -0.3137
13001TIP3   OH260493   0.600   4.815   3.756 -0.2049 -0.3695  0.3164
13001TIP3    H160494   0.547   4.892   3.735  1.7840  0.7537 -1.0321
13001TIP3    H260495   0.551   4.741   3.723 -2.1112  0.2912  1.5109
13002TIP3   OH260496   3.027   1.204   0.488 -0.6564 -0.6655  0.0150
13002TIP3    H160497   3.108   1.158   0.466  0.0074  0.4811 -0.0180
13002TIP3    H260498   3.049   1.256   0.564 -1.6992 -1.1929  0.7003
13003TIP3   OH260499   1.530   4.784   5.110  0.0238 -0.0716  0.5102
13003TIP3    H160500   1.492   4.699   5.090 -0.3814  0.4814 -1.2742
13003TIP3    H260501   1.611   4.787   5.060  0.1805  0.4947  0.7799
13004TIP3   OH260502   6.337   5.295   0.758 -0.1911  0.2682  0.0782
13004TIP3    H160503   6.375   5.326   0.841  0.7269 -0.7030  0.0377
13004TIP3    H260504   6.356   5.365   0.696 -1.2760  1.2124  0.7648
13005TIP3   OH260505   2.723   2.986   0.523  0.5606 -0.3053  0.5032
13005TIP3    H160506   2.735   2.929   0.599  1.8496  0.5203  0.9423
13005TIP3    H260507   2.812   3.003   0.491  0.1068  0.2576 -0.5222
13006TIP3   OH260508   5.234   2.661   1.610 -0.2654 -0.0260  0.0159
13006TIP3    H160509   5.311   2.717   1.610 -0.4116  0.1805 -0.2057
13006TIP3    H260510   5.258   2.586   1.555 -0.0361 -0.2301  0.3925
13007TIP3   OH260511   2.785   0.587  16.873 -0.1124  0.1733  0.2280
13007TIP3    H160512   2.801   0.659  16.812  0.6475  0.7381  1.0739
13007TIP3    H260513   2.812   0.508  16.825  1.5455  0.7190  0.2154
13008TIP3   OH260514   4.856   3.838   2.255  0.0719 -1.0489  0.1061
13008TIP3    H160515   4.812   3.879   2.329  0.0634  0.2208 -0.5646
13008TIP3    H260516   4.878   3.750   2.285 -1.7779 -1.2847  0.9020
13009TIP3   OH260517   4.259   3.154   2.562 -0.5898  0.0918  0.2860
13009TIP3    H160518   4.193   3.120   2.502  0.9472 -0.7794 -0.9925
13009TIP3    H260519   4.309   3.076   2.590  0.9354  0.8825 -0.1153
13010TIP3   OH260520   0.901   2.070   1.818 -0.0653  0.0948  0.2831
13010TIP3    H160521   0.934   1.985   1.845  0.8383 -0.1416 -1.4022
13010TIP3    H260522   0.834   2.092   1.882  2.5514  0.0721  3.2807
13011TIP3   OH260523   6.456   4.469   1.074 -0.1143 -0.8724  0.0428
13011TIP3    H160524   6.439   4.442   0.984 -0.8712  0.6824 -0.3271
13011TIP3    H260525   6.465   4.564   1.069  0.0037 -0.7763  1.5852
13012TIP3   OH260526   5.969   5.939  16.405  0.4890 -0.1432  0.1299
13012TIP3    H160527   6.054   5.921  16.364  0.9690  0.8170  0.6565
13012TIP3    H260528   5.908   5.943  16.332  0.8582 -1.0413 -0.2399
13013TIP3   OH260529   5.386   4.250  14.490 -0.2748 -0.0979  0.5377
13013TIP3    H160530   5.442   4.296  14.552 -0.4137 -0.2660  0.7885
13013TIP3    H260531   5.413   4.284  14.404 -1.0128  1.1494  0.7720
13014TIP3   OH260532   3.774   0.756   4.956  0.1938  0.6086  0.1635
13014TIP3    H160533   3.840   0.817   4.989  0.5410  0.3396 -0.0266
13014TIP3    H260534   3.696   0.809   4.944  0.1400  0.7793  1.1450
13015TIP3   OH260535   5.676   4.279  13.563  0.5025 -0.0850  0.2751
13015TIP3    H160536   5.769   4.277  13.540  0.0300  1.1805 -2.1190
13015TIP3    H260537   5.659   4.371  13.585 -0.2784 -0.2160  0.2276
13016TIP3   OH260538   2.806   2.447   2.746 -0.0089 -0.5597 -0.1400
13016TIP3    H160539   2.877   2.453   2.810  1.5116  1.4868 -1.9066
13016TIP3    H260540   2.826   2.368   2.695 -0.0464 -1.0100  0.5320
13017TIP3   OH260541   1.761   5.022  13.235  0.5117  0.7495  0.6657
13017TIP3    H160542   1.820   4.978  13.297  1.0447  3.1333  1.9556
13017TIP3    H260543   1.686   4.963  13.226  1.3782 -0.5981  1.9486
13018TIP3   OH260544   2.440   5.943  14.136 -0.4558  0.1644 -0.3767
13018TIP3    H160545   2.466   5.852  14.126  3.8252  1.3001 -2.0567
13018TIP3    H260546   2.446   5.960  14.230 -0.7480 -1.1252 -0.1083
13019TIP3   OH260547   4.951   3.863  14.632  0.3654 -0.0179  0.3832
13019TIP3    H160548   4.972   3.939  14.578  1.7165  0.3346  1.3754
13019TIP3    H260549   4.999   3.876  14.713 -0.2774 -1.3852  1.0181
13020TIP3   OH260550   3.642   6.616   5.336  0.7172 -0.4320  0.3190
13020TIP3    H160551   3.695   6.540   5.310  0.9567 -0.4593  0.8863
13020TIP3    H260552   3.621   6.659   5.253 -0.3933 -1.7444 -0.1383
13021TIP3   OH260553   0.289   2.126  16.359  0.2456  0.0850 -0.7718
13021TIP3    H160554   0.333   2.126  16.444 -1.4063 -0.2755  0.1287
13021TIP3    H260555   0.355   2.091  16.298  1.3586  0.0534  0.4061
13022TIP3   OH260556   2.817   0.183   4.078 -0.3279 -0.3048  0.2810
13022TIP3    H160557   2.774   0.145   4.154  0.5607 -1.2258  0.3517
13022TIP3    H260558   2.873   0.252   4.114 -0.3353 -0.3565  0.3911
13023TIP3   OH260559   5.929   3.281   2.172 -0.1234 -0.4027  0.8291
13023TIP3    H160560   5.898   3.244   2.254 -1.7251 -1.0560 -0.0320
13023TIP3    H260561   5.969   3.364   2.197 -2.7060  0.5827  2.0353
13024TIP3   OH260562   5.414   5.294  13.165  0.1135 -0.0111 -0.3279
13024TIP3    H160563   5.334   5.269  13.119  0.4726 -0.6832 -0.6037
13024TIP3    H260564   5.431   5.221  13.225  0.5645  0.0843 -0.3340
13025TIP3   OH260565   2.349   3.038  13.440 -0.0769 -0.7152 -0.3067
13025TIP3    H160566   2.436   3.075  13.455  0.1317 -1.0535 -0.6920
13025TIP3    H260567   2.293   3.086  13.501  0.3445 -0.3698 -0.1820
13026TIP3   OH260568   4.718   3.729  14.569  0.0147 -0.0741 -0.0513
13026TIP3    H160569   4.768   3.787  14.627 -0.2568 -2.1359  2.3969
13026TIP3    H260570   4.757   3.744  14.483  1.4224  2.0844  0.8485
13027TIP3   OH260571   1.741   1.056   1.955  0.5443  0.4970  0.2300
13027TIP3    H160572   1.649   1.038   1.936  0.4867 -0.1837  1.0848
13027TIP3    H260573   1.742   1.142   1.997  0.0339 -0.3907  2.1470
13028TIP3   OH260574   3.219   1.184  15.359  0.0318 -0.0204  0.5450
13028TIP3    H160575   3.262   1.270  15.359  0.6718 -0.3211 -0.8723
13028TIP3    H260576   3.126   1.204  15.360  0.1742  0.6926 -0.0216
13029TIP3   OH260577   5.614   1.390  11.341  0.5042 -0.0621 -0.2940
13029TIP3    H160578   5.558   1.385  11.418  0.1867  1.2322 -0.4326
13029TIP3    H260579   5.678   1.320  11.354 -1.1074 -1.5778 -0.1468
13030TIP3   OH260580   0.641   2.648  16.362 -0.1527 -0.1782 -0.0352
13030TIP3    H160581   0.594   2.640  16.445  1.8263 -0.1957  1.1630
13030TIP3    H260582   0.724   2.690  16.386 -0.9983  3.4505 -2.6010
13031TIP3   OH260583   6.479   4.002  12.568 -0.6905  0.5230 -0.3741
13031TIP3    H160584   6.520   3.968  12.488 -1.6043 -0.8437 -0.2922
13031TIP3    H260585   6.517   3.950  12.638 -0.8846  0.7962 -0.0643
13032TIP3   OH260586   6.396   5.243   2.251 -0.4745  0.5232 -0.3958
13032TIP3    H160587   6.302   5.243   2.230 -0.8864 -0.1488  1.2577
13032TIP3    H260588   6.399   5.256   2.346  1.1041  0.4200 -0.4108
13033TIP3   OH260589   0.028   3.100   2.954 -0.5963 -0.1972  0.3276
13033TIP3    H160590  -0.040   3.129   2.893 -1.5786 -0.7917  1.1037
13033TIP3    H260591  -0.020   3.053   3.022  0.5440 -0.1243  1.2072
13034TIP3   OH260592   1.866   5.752  15.841 -0.0993 -0.4224 -0.2934
13034TIP3    H160593   1.862   5.662  15.810 -0.7934 -0.8176  0.8827
13034TIP3    H260594   1.793   5.760  15.902 -1.5212  1.6198 -2.0955
13035TIP3   OH260595   4.501   3.339  16.243  0.3451  0.4389 -0.2869
13035TIP3    H160596   4.523   3.364  16.154  1.3717 -0.3208 -0.2708
13035TIP3    H260597   4.565   3.385  16.297 -0.1583  0.7546  0.0446
13036TIP3   OH260598   4.026   4.101  15.675  0.5297 -0.3064  0.3273
13036TIP3    H160599   4.059   4.018  15.710  0.0682  0.1039  1.7995
13036TIP3    H260600   3.932   4.099  15.695  0.1825 -0.1519 -1.1478
13037TIP3   OH260601   6.845   5.704  15.395 -0.2392 -0.2882 -0.1145
13037TIP3    H160602   6.937   5.707  15.368 -0.3859  0.2868 -0.5534
13037TIP3    H260603   6.796   5.716  15.314 -0.7414 -2.4390 -0.1824
13038TIP3   OH260604   6.819   5.412  14.923  0.3518  0.6873  0.4903
13038TIP3    H160605   6.854   5.435  14.837  1.7549 -0.2894  0.7813
13038TIP3    H260606   6.785   5.495  14.958  0.9911  1.3580 -0.4417
13039TIP3   OH260607   3.232   3.702  16.045 -0.2175  0.1713 -0.4445
13039TIP3    H160608   3.259   3.785  16.083  1.1348 -0.6072  0.3851
13039TIP3    H260609   3.250   3.637  16.113 -2.1403 -0.7161 -0.7165
13040TIP3   OH260610   6.671   0.245   5.805 -0.0028  0.7048 -0.2903
13040TIP3    H160611   6.741   0.194   5.765 -1.2515  0.1902 -1.9312
13040TIP3    H260612   6.608   0.180   5.836 -1.2514  1.1807 -1.7270
13041TIP3   OH260613   0.678   6.683  16.247  0.8260  0.5732  0.7200
13041TIP3    H160614   0.759   6.641  16.218  2.2563  1.8725  2.5740
13041TIP3    H260615   0.702   6.726  16.330 -1.5203  1.8015  0.8400
13042TIP3   OH260616   3.848   5.679  16.720 -0.2856 -0.1033  0.2303
13042TIP3    H160617   3.828   5.608  16.782 -0.0755 -0.0114  0.4030
13042TIP3    H260618   3.763   5.701  16.681 -0.5198  0.2422  0.9154
13043TIP3   OH260619   6.500   3.098  12.851 -0.0104  0.4321  0.3149
13043TIP3    H160620   6.433   3.148  12.898 -0.1416 -0.0433  0.6363
13043TIP3    H260621   6.548   3.164  12.801 -1.7218  0.5999 -1.1802
13044TIP3   OH260622   0.848   0.069  13.955 -0.3566 -1.0122  0.3210
13044TIP3    H160623   0.830   0.143  14.012  0.7888 -1.6728  1.6167
13044TIP3    H260624   0.822  -0.008  14.006  0.3684 -1.6018 -0.1618
13045TIP3   OH260625   1.929   1.917   0.907 -0.4637 -0.4797 -0.2426
13045TIP3    H160626   1.974   1.971   0.842  1.0129  1.0533  1.9238
13045TIP3    H260627   1.836   1.937   0.894 -0.1067  0.7840 -1.0509
13046TIP3   OH260628   6.427   5.735  11.873 -0.0558  0.7956 -0.8870
13046TIP3    H160629   6.475   5.652  11.870 -0.5992  0.4635 -0.6664
13046TIP3    H260630   6.491   5.801  11.850  0.5505  0.3817 -0.4121
13047TIP3   OH260631   0.666   6.678  14.477  0.2268 -0.2011 -0.4531
13047TIP3    H160632   0.696   6.757  14.523 -0.4646 -0.4336  0.4228
13047TIP3    H260633   0.594   6.709  14.421 -1.3026 -0.4748  1.2668
13048TIP3   OH260634   5.332   6.093  13.407  0.2734 -0.4800 -0.2071
13048TIP3    H160635   5.361   6.147  13.480  0.9347 -0.8579 -0.1787
13048TIP3    H260636   5.240   6.075  13.425  0.4471 -0.6176  0.5689
13049TIP3   OH260637   4.703   0.486  14.404  0.1786  0.4359 -0.0064
13049TIP3    H160638   4.637   0.458  14.341 -1.3626  0.8329  1.3886
13049TIP3    H260639   4.694   0.426  14.478  0.3024  1.4695  0.8648
13050TIP3   OH260640   4.468   3.816  12.855 -0.4670  0.1564 -0.5694
13050TIP3    H160641   4.429   3.876  12.919  1.3186  1.2089 -0.4260
13050TIP3    H260642   4.512   3.872  12.792 -1.0413 -0.9259 -2.0028
13051TIP3   OH260643   6.479   0.591   4.712 -0.2199 -0.0467 -0.4276
13051TIP3    H160644   6.537   0.626   4.780 -1.3687  0.8895  0.0841
13051TIP3    H260645   6.437   0.667   4.674 -1.5073 -0.7391 -0.4414
13052TIP3   OH260646   4.154   1.599   5.280 -0.1208  0.2534  0.1516
13052TIP3    H160647   4.121   1.510   5.287  0.7927 -0.1040  0.0576
13052TIP3    H260648   4.151   1.633   5.369  1.3213 -0.5456  0.5329
13053TIP3   OH260649   2.865   4.633  12.934 -0.2817  0.1200  0.1931
13053TIP3    H160650   2.819   4.692  12.994 -0.0374 -1.2295  1.7830
13053TIP3    H260651   2.839   4.545  12.962  1.5584 -0.6245 -0.2510
13054TIP3   OH260652   3.407   2.303   4.580 -0.4006  0.5860 -1.0336
13054TIP3    H160653   3.486   2.352   4.557  0.8542 -0.5608  0.5619
13054TIP3    H260654   3.417   2.285   4.673 -1.2256 -1.8756 -1.3509
13055TIP3   OH260655   4.165   2.947   1.422  0.2704 -0.3595 -0.3292
13055TIP3    H160656   4.220   2.967   1.498 -1.9047 -0.2664  1.3560
13055TIP3    H260657   4.156   2.852   1.423  0.6059 -0.3985 -0.7675
13056TIP3   OH260658   3.716   5.662   4.442  0.2474 -0.2980  0.2982
13056TIP3    H160659   3.738   5.755   4.439  1.5934 -0.6215 -0.7626
13056TIP3    H260660   3.759   5.625   4.365 -0.8568 -1.6806  0.3192
13057TIP3   OH260661   6.580   3.657  11.453 -0.4029  0.1102 -0.2282
13057TIP3    H160662   6.487   3.655  11.479 -0.4687  0.2858 -0.4457
13057TIP3    H260663   6.597   3.748  11.432 -0.5377 -0.1328 -1.4658
13058TIP3   OH260664   4.820   1.023  14.837  0.3294  0.5359  0.2285
13058TIP3    H160665   4.757   1.017  14.764  2.5717  2.2086 -2.0033
13058TIP3    H260666   4.766   1.047  14.913 -1.6900  2.5485 -1.6915
13059TIP3   OH260667   2.235   1.481   3.058 -0.1784 -0.1459  0.2657
13059TIP3    H160668   2.193   1.454   3.139 -0.5149 -0.8988 -0.1475
13059TIP3    H260669   2.186   1.436   2.989  0.9737 -0.6333 -0.2664
13060TIP3   OH260670   6.553   2.409   6.348 -0.2107 -0.4140 -0.2848
13060TIP3    H160671   6.523   2.483   6.295 -1.3858 -0.3932  0.3809
13060TIP3    H260672   6.523   2.429   6.437 -0.7883 -1.8220 -0.1460
13061TIP3   OH260673   5.053   4.206  10.139 -0.0577 -0.2113 -0.2015
13061TIP3    H160674   4.987   4.183  10.205 -1.2277 -0.2091 -1.3262
13061TIP3    H260675   5.115   4.133  10.142 -0.1196 -0.2364  0.8600
13062TIP3   OH260676   5.631   2.416   1.700 -0.1022  0.3161 -0.5183
13062TIP3    H160677   5.702   2.444   1.759  0.9633  0.5926 -1.8759
13062TIP3    H260678   5.552   2.452   1.739  0.4005 -0.5295  1.3934
13063TIP3   OH260679   0.405   4.254   3.489  0.2073 -0.2379  0.4160
13063TIP3    H160680   0.470   4.284   3.553  0.3323  1.5164 -0.4982
13063TIP3    H260681   0.323   4.293   3.517  0.0018 -0.5407  0.2445
13064TIP3   OH260682   6.024   0.082   1.526 -0.8578  0.4343  0.3203
13064TIP3    H160683   5.946   0.043   1.488 -0.6198 -1.0050  1.1939
13064TIP3    H260684   6.095   0.055   1.468 -0.5489 -1.4323  1.4559
13065TIP3   OH260685   5.564   0.180  12.448  0.0615  0.1285 -0.0120
13065TIP3    H160686   5.647   0.150  12.485  0.5019 -1.0489 -1.8321
13065TIP3    H260687   5.541   0.257  12.500  2.1892  0.3771  0.6565
13066TIP3   OH260688   4.450   5.234   4.053  0.9589 -0.0903  0.9744
13066TIP3    H160689   4.364   5.257   4.018  1.2228  1.1350  1.1061
13066TIP3    H260690   4.490   5.317   4.075  1.5770 -0.7274  2.3650
13067TIP3   OH260691   2.554   4.484   4.693 -0.4097 -0.7116 -0.3345
13067TIP3    H160692   2.540   4.513   4.603 -1.7540  0.2422  0.1557
13067TIP3    H260693   2.641   4.517   4.716  0.7000 -2.4078 -1.7948
13068TIP3   OH260694   6.628   0.285   4.437 -0.1993  0.0567 -0.4413
13068TIP3    H160695   6.661   0.227   4.506 -1.3113 -0.4301 -0.2991
13068TIP3    H260696   6.649   0.239   4.356 -0.4356 -0.2011 -0.3575
13069TIP3   OH260697   3.772   2.383   1.937  0.2006  0.9396 -0.4325
13069TIP3    H160698   3.851   2.337   1.907 -1.7574 -2.8765 -0.3193
13069TIP3    H260699   3.711   2.377   1.864 -0.8675  1.4962  0.3957
13070TIP3   OH260700   2.299   1.262   3.669  0.4366 -0.1191  0.0983
13070TIP3    H160701   2.334   1.320   3.737  1.3232 -0.3023 -0.1798
13070TIP3    H260702   2.215   1.300   3.646 -1.0522 -1.3973  2.9733
13071TIP3   OH260703   0.408   5.894  11.433  0.0085  0.2577 -1.1109
13071TIP3    H160704   0.354   5.876  11.356 -0.2274 -0.9508 -0.6754
13071TIP3    H260705   0.346   5.927  11.498 -0.0554 -0.2274 -0.9232
13072TIP3   OH260706   5.971   0.331  11.857  0.4571  0.5742  0.2265
13072TIP3    H160707   5.897   0.349  11.798 -0.5203  0.7164  1.4425
13072TIP3    H260708   5.993   0.417  11.894 -1.1033  0.1052  2.4781
13073TIP3   OH260709   2.477   5.591   3.455  0.1050  0.1091 -0.5659
13073TIP3    H160710   2.454   5.501   3.481 -0.1257  0.0054 -1.1126
13073TIP3    H260711   2.557   5.610   3.503  0.8839 -0.8740 -1.4232
13074TIP3   OH260712   3.132   1.664  13.570 -0.2853  0.3456 -0.1108
13074TIP3    H160713   3.193   1.614  13.516  0.1142  2.2883 -1.5470
13074TIP3    H260714   3.063   1.601  13.592  1.1998 -1.3599 -0.1130
13075TIP3   OH260715   6.682   3.376  13.809  0.0764  0.3413 -0.0993
13075TIP3    H160716   6.611   3.440  13.814  1.0855  1.5295 -0.2523
13075TIP3    H260717   6.759   3.424  13.841  1.1321 -0.3665 -1.4409
13076TIP3   OH260718   5.414   4.405   4.568  0.0010  0.3186 -0.0086
13076TIP3    H160719   5.398   4.321   4.611  0.4300  0.0191 -0.4206
13076TIP3    H260720   5.509   4.412   4.565 -0.0269  1.2350  0.8058
13077TIP3   OH260721   6.764   3.761  10.698  0.1902  0.4074 -0.2749
13077TIP3    H160722   6.773   3.802  10.784 -0.2241 -0.7732  0.3526
13077TIP3    H260723   6.718   3.826  10.646  1.2378  1.5039  0.1169
13078TIP3   OH260724   0.174   5.695  14.986  0.1761  0.0011  0.0421
13078TIP3    H160725   0.237   5.760  15.018 -1.0879  0.8619  0.8666
13078TIP3    H260726   0.089   5.727  15.016 -0.7377 -0.8380 -1.5185
13079TIP3   OH260727   3.694   5.327  16.388 -0.3605 -0.3017  0.8133
13079TIP3    H160728   3.710   5.394  16.321  2.8268 -0.6980  1.0521
13079TIP3    H260729   3.653   5.374  16.460 -1.7936  0.5600 -0.4937
13080TIP3   OH260730   5.148   0.849  11.239 -0.0903  0.3015 -0.0371
13080TIP3    H160731   5.224   0.828  11.294  1.1402  1.6787 -1.1496
13080TIP3    H260732   5.077   0.863  11.301  0.5175 -1.0685  1.0352
13081TIP3   OH260733   1.046   2.337   1.646  0.4402 -0.1789 -0.1592
13081TIP3    H160734   0.952   2.355   1.640  0.2786 -0.1456  1.8805
13081TIP3    H260735   1.052   2.241   1.652  0.4373 -0.1269  0.8196
13082TIP3   OH260736   0.982   6.033   0.625 -0.2165  0.0732 -0.2973
13082TIP3    H160737   1.000   5.965   0.689 -0.3540  0.4271  0.1227
13082TIP3    H260738   0.977   5.987   0.541  2.3368 -0.1103 -0.4380
13083TIP3   OH260739   0.409   2.902   3.464  0.7149  0.3872 -0.0112
13083TIP3    H160740   0.482   2.865   3.513  0.5683  0.3614  0.1897
13083TIP3    H260741   0.440   2.906   3.374  1.5983  1.9494  0.3260
13084TIP3   OH260742   2.030   3.586   5.048  0.0336  0.0044  0.0941
13084TIP3    H160743   2.002   3.677   5.039 -1.4071 -0.1401  2.3950
13084TIP3    H260744   2.033   3.570   5.142 -2.2489 -3.0108 -0.1541
13085TIP3   OH260745   1.648   1.143  14.698  0.9686 -0.4006  0.0339
13085TIP3    H160746   1.643   1.238  14.713  0.7209 -0.4140  0.0411
13085TIP3    H260747   1.734   1.130  14.657  0.5414 -0.0191 -1.0199
13086TIP3   OH260748   4.372   3.227   6.820 -0.2657 -0.1242  0.0136
13086TIP3    H160749   4.362   3.255   6.911 -0.1789  2.6181 -0.7201
13086TIP3    H260750   4.284   3.201   6.792 -0.7506  1.1979  0.2650
13087TIP3   OH260751   4.134   0.685   5.692 -0.3792 -0.5862 -0.0874
13087TIP3    H160752   4.221   0.720   5.713 -0.8458  0.7293 -0.2714
13087TIP3    H260753   4.152   0.606   5.641  0.7749  1.3719 -2.9886
13088TIP3   OH260754   6.063   4.770  10.929 -0.0037  0.1667 -0.5932
13088TIP3    H160755   5.999   4.828  10.971  1.1408  0.6991  0.4970
13088TIP3    H260756   6.010   4.700  10.890 -1.1893 -0.3153  1.6979
13089TIP3   OH260757   2.422   0.081   2.971 -0.0568  0.2825 -0.1333
13089TIP3    H160758   2.424   0.175   2.956 -1.3253  0.1215 -1.5815
13089TIP3    H260759   2.509   0.050   2.945 -0.5592  0.7090 -2.4993
13090TIP3   OH260760   5.997   6.226  14.516  0.2510 -0.0610  0.2262
13090TIP3    H160761   6.046   6.298  14.555 -0.3122 -0.2518  1.3135
13090TIP3    H260762   6.065   6.164  14.488  0.7424  0.8835 -0.7694
13091TIP3   OH260763   3.015   1.748  10.316 -0.1633  0.0999  0.0140
13091TIP3    H160764   3.065   1.781  10.241 -0.2675  0.5362  0.1341
13091TIP3    H260765   3.076   1.753  10.390  0.2707 -1.2606 -0.2117
13092TIP3   OH260766   2.480   3.540   5.483 -0.0452  0.1402 -0.3128
13092TIP3    H160767   2.538   3.613   5.461 -2.7029  2.2844 -0.8340
13092TIP3    H260768   2.447   3.562   5.570 -2.0348  0.4555 -1.0927
13093TIP3   OH260769   2.407   4.228   1.986  0.4155  0.7501  0.0255
13093TIP3    H160770   2.356   4.208   1.908  0.6639 -1.3154  0.3179
13093TIP3    H260771   2.497   4.234   1.954  1.0537 -3.4395  0.4126
13094TIP3   OH260772   0.998   3.734   3.668 -0.3587  0.5444 -0.6567
13094TIP3    H160773   0.916   3.774   3.641 -1.2123  0.2357  1.3203
13094TIP3    H260774   0.972   3.650   3.706  0.7702  0.7136  0.5701
13095TIP3   OH260775   6.772   2.796   6.241 -0.4459 -0.0097 -0.2463
13095TIP3    H160776   6.769   2.723   6.179 -1.8841 -1.5921  1.5697
13095TIP3    H260777   6.680   2.808   6.267 -0.1341  1.9857  0.0481
13096TIP3   OH260778   3.376   2.697  12.769  0.5525 -0.5715  0.5492
13096TIP3    H160779   3.444   2.691  12.836  1.1846  0.9193  0.0805
13096TIP3    H260780   3.423   2.713  12.688 -0.3292 -0.2558  0.0852
13097TIP3   OH260781   4.914   1.676  14.340  0.2357 -0.5149  0.0833
13097TIP3    H160782   4.859   1.747  14.305 -1.0234 -1.2598  0.5255
13097TIP3    H260783   4.866   1.596  14.320 -0.4573 -1.0265  3.2562
13098TIP3   OH260784   1.047   4.301   2.263  0.0618  0.4179 -0.8654
13098TIP3    H160785   1.124   4.308   2.206  2.1869 -0.7270  1.6512
13098TIP3    H260786   1.062   4.222   2.315 -1.6737  1.4005  1.3286
13099TIP3   OH260787   5.851   6.598   3.854 -0.3747  0.4687  0.3203
13099TIP3    H160788   5.808   6.535   3.796  1.1387 -0.9212  0.6095
13099TIP3    H260789   5.862   6.676   3.801  0.3893 -0.5413 -1.0780
13100TIP3   OH260790   2.396   0.666  13.625  0.0940 -0.0590  0.2758
13100TIP3    H160791   2.392   0.684  13.719 -1.6557 -0.8101  0.3904
13100TIP3    H260792   2.354   0.742  13.585 -1.9132 -1.0530  0.3571
13101TIP3   OH260793   4.536   4.208  14.367  0.2258  0.1335  0.5446
13101TIP3    H160794   4.546   4.175  14.456  1.5813  0.5896  0.5934
13101TIP3    H260795   4.626   4.214  14.334 -0.0700  2.1175 -0.0504
13102TIP3   OH260796   1.269   2.627   3.500  0.1831  0.0477  0.0902
13102TIP3    H160797   1.269   2.721   3.485 -0.8644  0.0038 -0.2584
13102TIP3    H260798   1.196   2.594   3.448  1.4304 -1.1640 -0.9903
13103TIP3   OH260799   4.225   6.442   3.072 -0.4672 -0.0140  0.0229
13103TIP3    H160800   4.278   6.404   3.002  0.2545 -0.4498  0.7929
13103TIP3    H260801   4.224   6.375   3.140  2.2226  1.9016  2.1351
13104TIP3   OH260802   1.779   1.878  11.586  0.0588  0.3055  0.2935
13104TIP3    H160803   1.851   1.815  11.585 -0.2946 -0.1013  0.3945
13104TIP3    H260804   1.820   1.961  11.561  0.1634 -0.3641 -2.0429
13105TIP3   OH260805   5.617   2.119   0.221  0.2663 -0.3332 -0.2481
13105TIP3    H160806   5.674   2.041   0.219  0.2780 -0.3349  0.0551
13105TIP3    H260807   5.545   2.097   0.163 -0.2133 -0.9522  0.5623
13106TIP3   OH260808   0.469   2.392  12.552  0.0568 -0.0906  0.1514
13106TIP3    H160809   0.416   2.318  12.581 -1.8739  1.0709 -0.2214
13106TIP3    H260810   0.514   2.360  12.473 -0.9354 -0.8098 -0.1494
13107TIP3   OH260811   2.676   0.451  14.625 -0.4004 -0.1962  0.6242
13107TIP3    H160812   2.734   0.501  14.682  0.9282 -2.7995  1.7085
13107TIP3    H260813   2.620   0.401  14.685 -1.5594 -0.1840 -0.4041
13108TIP3   OH260814   1.598   6.291   2.295  0.1193 -0.0071 -0.0162
13108TIP3    H160815   1.617   6.208   2.338  0.7712  0.0085 -0.2780
13108TIP3    H260816   1.649   6.356   2.344  1.7172 -0.1267 -1.4358
13109TIP3   OH260817   6.107   5.861   1.006  0.4761  0.2394  0.1093
13109TIP3    H160818   6.045   5.791   0.988 -0.6121  1.4455 -1.0593
13109TIP3    H260819   6.187   5.816   1.032  0.2250 -1.4927 -1.8585
13110TIP3   OH260820   1.746   4.587   2.641 -0.4171  0.3052  0.1670
13110TIP3    H160821   1.834   4.552   2.624 -0.7916  0.8424 -3.8193
13110TIP3    H260822   1.698   4.513   2.678  0.9047 -1.0000 -0.6057
13111TIP3   OH260823   0.404   1.945   1.595 -0.8196  0.1818  0.1945
13111TIP3    H160824   0.394   2.030   1.637  0.2073  0.6388 -0.4196
13111TIP3    H260825   0.498   1.941   1.574 -1.2893  0.0627 -2.1420
13112TIP3   OH260826   3.417   0.911   2.116  0.4517 -0.2365  0.7474
13112TIP3    H160827   3.487   0.938   2.056  0.6392 -0.7406  0.7388
13112TIP3    H260828   3.353   0.868   2.059  0.0285  0.4039  0.7229
13113TIP3   OH260829   6.008   4.244   1.855 -0.0598  0.0790 -0.6560
13113TIP3    H160830   6.075   4.288   1.907  0.2411 -0.7411 -0.3214
13113TIP3    H260831   5.996   4.299   1.778  0.8605  0.3365 -0.6212
13114TIP3   OH260832   4.650   5.017  15.941  0.3639  0.0421  0.3674
13114TIP3    H160833   4.624   4.926  15.948 -1.2708  0.4761  0.1401
13114TIP3    H260834   4.614   5.058  16.020 -0.8682  0.9316 -0.6275
13115TIP3   OH260835   6.214   5.491  10.975 -0.4846 -0.1478 -0.3244
13115TIP3    H160836   6.263   5.511  10.896 -1.0206 -1.8761 -1.1424
13115TIP3    H260837   6.145   5.558  10.977  0.3513  0.7489 -0.5375
13116TIP3   OH260838   0.279   5.417  13.083 -0.3837 -0.1145 -0.0999
13116TIP3    H160839   0.248   5.353  13.019 -1.5089 -1.1484  1.4380
13116TIP3    H260840   0.200   5.465  13.109  0.5117  2.5720 -1.8054
13117TIP3   OH260841   0.862   6.462  16.263  0.0003  0.5094 -0.3085
13117TIP3    H160842   0.900   6.460  16.176 -0.8548 -0.0098 -0.6885
13117TIP3    H260843   0.937   6.467  16.323  0.6004  0.6315 -1.0610
13118TIP3   OH260844   6.651   5.116   0.801 -0.1513 -0.4029 -0.0454
13118TIP3    H160845   6.745   5.103   0.812 -0.0150 -1.3179 -1.8371
13118TIP3    H260846   6.641   5.210   0.787  0.1823  0.0596  2.3485
13119TIP3   OH260847   6.724   4.530  11.403 -0.1756  0.3086  0.2551
13119TIP3    H160848   6.779   4.486  11.468  0.0629 -0.8981 -0.7235
13119TIP3    H260849   6.785   4.553  11.332 -0.8116 -0.5383 -0.5900
13120TIP3   OH260850   0.143   4.511   1.666  0.0194  0.2243  0.2694
13120TIP3    H160851   0.075   4.534   1.603  1.6231  1.4146 -1.1128
13120TIP3    H260852   0.224   4.541   1.626  1.4227 -1.3748  1.7399
13121TIP3   OH260853   1.694   4.705   1.673 -0.5789 -0.1281  0.3475
13121TIP3    H160854   1.717   4.797   1.659  0.0004  0.1954  2.8867
13121TIP3    H260855   1.762   4.655   1.628 -1.9078  0.5585 -2.6577
13122TIP3   OH260856   2.671   5.747  15.509  0.2309 -0.0196  0.2756
13122TIP3    H160857   2.579   5.773  15.498 -0.4994 -1.8246  1.6258
13122TIP3    H260858   2.719   5.830  15.508 -1.3880  0.9674 -0.5056
13123TIP3   OH260859   4.530   5.697  12.190  0.4362  0.5366  0.0501
13123TIP3    H160860   4.434   5.696  12.184  0.3394  0.6710  1.2335
13123TIP3    H260861   4.556   5.607  12.174  0.0432  0.3366  0.4960
13124TIP3   OH260862   1.583   6.689   5.352  0.1833  0.2963 -0.0383
13124TIP3    H160863   1.553   6.628   5.283  1.2653 -0.2496 -0.0537
13124TIP3    H260864   1.667   6.652   5.380  1.8373  2.7828 -1.3644
13125TIP3   OH260865   0.581   3.164  15.433 -0.2670  0.0726 -0.4731
13125TIP3    H160866   0.541   3.193  15.351  0.4241 -0.4935 -1.0260
13125TIP3    H260867   0.508   3.130  15.484 -0.4179 -1.7506 -1.8094
13126TIP3   OH260868   6.648   6.095   0.057  0.4358  0.5856 -0.2612
13126TIP3    H160869   6.644   6.115  -0.037 -0.4234  1.2424 -0.0974
13126TIP3    H260870   6.604   6.011   0.065  0.3057  0.6382 -0.4172
13127TIP3   OH260871   3.931   2.812  12.586 -0.0841 -0.0603 -0.1718
13127TIP3    H160872   3.938   2.903  12.617  1.5513  0.4622 -1.9130
13127TIP3    H260873   3.979   2.811  12.504  0.3751 -2.6482  0.0508
13128TIP3   OH260874   3.005   6.259  11.106  0.7155 -0.2044  0.0373
13128TIP3    H160875   2.996   6.206  11.026  0.4363  1.2771 -0.9594
13128TIP3    H260876   3.093   6.239  11.137  1.0910 -0.3174 -1.0292
13129TIP3   OH260877   0.972   3.943   3.293  0.0411  0.3403  0.1884
13129TIP3    H160878   1.050   3.889   3.298  1.2752  2.1467  3.2670
13129TIP3    H260879   1.003   4.028   3.264 -1.2794  0.4201 -1.1295
13130TIP3   OH260880   2.893   1.728   4.651 -0.4844  0.1943  0.2733
13130TIP3    H160881   2.847   1.786   4.712 -2.8091 -2.3593  1.1687
13130TIP3    H260882   2.861   1.753   4.565  0.2519  1.6380  0.3931
13131TIP3   OH260883   3.651   4.813   2.710 -0.2505  0.0061  0.0576
13131TIP3    H160884   3.739   4.850   2.708  0.2992 -1.1314  1.3129
13131TIP3    H260885   3.616   4.839   2.795 -0.0842 -1.7590  0.7034
13132TIP3   OH260886   6.010   3.440   1.380  0.0460  0.1037  0.1695
13132TIP3    H160887   6.105   3.429   1.380  0.2145  1.2683  1.5207
13132TIP3    H260888   5.996   3.528   1.344 -0.5853 -0.4248 -0.8972
13133TIP3   OH260889   5.894   3.678  13.616  0.2290 -0.1456 -0.5283
13133TIP3    H160890   5.864   3.672  13.706 -1.4885 -1.9390 -1.1566
13133TIP3    H260891   5.970   3.737  13.620 -0.5998  0.8873  1.8464
13134TIP3   OH260892   4.919   0.299  12.597  0.2737 -0.3078 -0.4402
13134TIP3    H160893   4.996   0.308  12.653  0.9161  0.8254 -1.4566
13134TIP3    H260894   4.953   0.305  12.508 -0.7113 -2.1974 -1.0001
13135TIP3   OH260895   0.815   6.545  14.828  0.1632 -0.4197  0.5530
13135TIP3    H160896   0.805   6.456  14.795 -1.2008 -0.1051  0.0286
13135TIP3    H260897   0.835   6.597  14.750 -3.3993  0.3825 -0.0369
13136TIP3   OH260898   2.813   0.436   3.887  0.4190 -0.0067  0.5494
13136TIP3    H160899   2.858   0.417   3.970  0.7725 -1.5883  0.0368
13136TIP3    H260900   2.860   0.511   3.852  1.2959 -0.2917  1.0588
13137TIP3   OH260901   4.237   6.556  13.735 -0.1681  0.6962 -0.5865
13137TIP3    H160902   4.160   6.550  13.790  0.4185  1.6964  0.3884
13137TIP3    H260903   4.232   6.643  13.695  0.9740  1.2165  0.3354
13138TIP3   OH260904   0.919   2.150  14.926  0.5124 -0.0359  0.2309
13138TIP3    H160905   1.012   2.136  14.908  0.2960  0.3342 -1.3596
13138TIP3    H260906   0.875   2.128  14.844 -0.6329  1.5194  0.3715
13139TIP3   OH260907   5.724   5.876  11.297  0.1099 -0.2201  0.1835
13139TIP3    H160908   5.632   5.892  11.319  0.3402  0.7295  0.4824
13139TIP3    H260909   5.771   5.885  11.379  0.5685  0.0584 -0.1050
13140TIP3   OH260910   4.865   2.811   4.694  0.9721  0.0800 -0.3504
13140TIP3    H160911   4.937   2.748   4.703  1.0656  0.2971  0.4779
13140TIP3    H260912   4.786   2.758   4.704  1.0654  0.2324  1.4048
13141TIP3   OH260913   5.218   2.304  11.577 -0.2136  0.1681 -0.0462
13141TIP3    H160914   5.199   2.222  11.531 -0.8914 -0.2092  0.8952
13141TIP3    H260915   5.232   2.368  11.506 -0.0594 -0.6662 -0.7839
13142TIP3   OH260916   4.745   5.211   4.956 -0.0038  0.3564  0.1048
13142TIP3    H160917   4.816   5.184   4.898  0.7840  2.4194  0.0122
13142TIP3    H260918   4.765   5.170   5.040  0.9261  0.3673 -0.1066
13143TIP3   OH260919   5.302   2.353   6.771 -0.3325  0.6454 -0.2636
13143TIP3    H160920   5.390   2.370   6.806 -0.6251  0.3596  0.6393
13143TIP3    H260921   5.253   2.321   6.846 -0.2167 -2.9502 -1.5445
13144TIP3   OH260922   1.247   5.565   3.988  0.2624  0.6675 -0.0187
13144TIP3    H160923   1.203   5.540   4.069  1.8474 -2.5609 -0.0165
13144TIP3    H260924   1.233   5.491   3.929  1.5927  1.6754 -1.6829
13145TIP3   OH260925   5.313   0.688  14.593 -0.0669  0.1982  0.9174
13145TIP3    H160926   5.405   0.682  14.568 -0.1353  0.3943  0.6150
13145TIP3    H260927   5.283   0.597  14.596 -0.3970  0.1992 -1.0140
13146TIP3   OH260928   5.837   4.616  12.468 -0.0059  0.3717  0.1566
13146TIP3    H160929   5.860   4.699  12.509 -2.3733  2.3777 -2.1976
13146TIP3    H260930   5.889   4.614  12.387 -0.4953 -0.1035 -0.1518
13147TIP3   OH260931   4.897   0.053  14.101 -0.3326  0.2715  0.1569
13147TIP3    H160932   4.971  -0.008  14.095 -0.7768 -0.6253  2.7249
13147TIP3    H260933   4.935   0.132  14.140 -0.6318 -0.0107  1.0218
13148TIP3   OH260934   1.224   0.864   1.241  0.6879 -0.2576  0.1785
13148TIP3    H160935   1.311   0.839   1.271  0.3719  0.2035  1.5379
13148TIP3    H260936   1.211   0.952   1.277 -0.5463 -0.5274  0.4239
13149TIP3   OH260937   4.094   0.870   0.724  0.0363  0.3727 -0.0701
13149TIP3    H160938   4.005   0.836   0.738  0.2019  0.7775  2.4775
13149TIP3    H260939   4.142   0.797   0.687 -0.1632 -1.6145  3.2153
13150TIP3   OH260940   4.727   6.097   1.122 -0.3657  0.4650  0.4098
13150TIP3    H160941   4.747   6.096   1.216  0.4444 -0.9693  0.2546
13150TIP3    H260942   4.812   6.087   1.080 -0.5298  2.5599 -0.5637
13151TIP3   OH260943   3.615   2.481  12.193  0.2541  0.2432 -0.3875
13151TIP3    H160944   3.571   2.534  12.259 -0.2145  0.8167 -1.1406
13151TIP3    H260945   3.625   2.395  12.234  1.7641  1.1027  1.1690
13152TIP3   OH260946   2.178   5.884  12.450 -0.1700 -0.5532  0.1382
13152TIP3    H160947   2.172   5.978  12.431 -1.4841 -0.6828 -0.1466
13152TIP3    H260948   2.152   5.876  12.541 -1.1817 -0.7562 -0.1592
13153TIP3   OH260949   1.082   3.187  11.569 -0.1118  0.7408 -0.2412
13153TIP3    H160950   1.141   3.212  11.498  1.6753 -0.9545  0.5407
13153TIP3    H260951   1.058   3.096  11.550  1.7839 -0.3660  2.0835
13154TIP3   OH260952   0.242   6.461   4.427 -0.6797 -0.1400 -0.1417
13154TIP3    H160953   0.328   6.421   4.412  0.4554  2.3291 -0.7121
13154TIP3    H260954   0.259   6.530   4.492 -2.5362 -0.5129  0.8097
13155TIP3   OH260955   5.866   3.857  12.440  0.1955  0.3345 -0.4160
13155TIP3    H160956   5.914   3.911  12.377 -0.0738  0.5483 -0.4403
13155TIP3    H260957   5.800   3.811  12.388 -0.7485  1.3376 -0.1521
13156TIP3   OH260958   1.106   2.985  16.732  0.5841  0.1170  0.0779
13156TIP3    H160959   1.021   3.023  16.711  0.1761 -0.6730  0.2432
13156TIP3    H260960   1.169   3.037  16.683 -0.1331 -0.2272 -1.2709
13157TIP3   OH260961   1.017   1.819   0.213  0.6419  0.0332 -0.1940
13157TIP3    H160962   1.025   1.841   0.120 -2.4677  0.5769 -0.4177
13157TIP3    H260963   1.024   1.903   0.258  0.9804 -0.0854 -0.0241
13158TIP3   OH260964   5.862   2.785  14.254  0.3597  0.1611 -0.1222
13158TIP3    H160965   5.881   2.731  14.332 -2.4872 -1.8247 -0.6345
13158TIP3    H260966   5.842   2.721  14.186 -0.0254  1.8946 -1.6972
13159TIP3   OH260967   4.333   6.687   2.386 -0.0401  0.8639 -0.0725
13159TIP3    H160968   4.332   6.696   2.481 -0.9174  1.5043 -0.1250
13159TIP3    H260969   4.294   6.768   2.354  0.7392  0.8873 -1.0069
13160TIP3   OH260970   2.620   3.936  14.149  0.5313 -0.0750  0.0450
13160TIP3    H160971   2.539   3.973  14.185  0.8871 -0.3035  1.1112
13160TIP3    H260972   2.664   3.896  14.224  0.1427 -2.7644 -1.0510
13161TIP3   OH260973   1.399   6.432   1.608  0.1131 -0.6390 -0.3331
13161TIP3    H160974   1.412   6.424   1.702 -0.8725 -0.4110 -0.1670
13161TIP3    H260975   1.443   6.513   1.584 -0.5518 -0.1441  0.1166
13162TIP3   OH260976   3.537   4.847  15.050  0.1274 -0.2255 -0.0400
13162TIP3    H160977   3.630   4.844  15.027 -0.2854 -2.4272 -1.7595
13162TIP3    H260978   3.501   4.915  14.993  0.3893 -0.5616 -0.6153
13163TIP3   OH260979   2.273   5.718  14.020 -0.2661 -0.1859  0.3586
13163TIP3    H160980   2.361   5.680  14.025 -0.0064  0.1784 -1.0176
13163TIP3    H260981   2.258   5.731  13.927 -1.5370  0.3517  0.6183
13164TIP3   OH260982   0.239   6.735   4.788 -0.2904 -0.1613  0.1698
13164TIP3    H160983   0.277   6.687   4.861 -0.5569  0.2972  0.6127
13164TIP3    H260984   0.286   6.703   4.711 -2.6745 -3.6848 -0.0697
13165TIP3   OH260985   1.476   2.466   1.544  0.0178 -0.2298  0.2059
13165TIP3    H160986   1.396   2.503   1.580 -0.1573 -1.9031  1.6751
13165TIP3    H260987   1.545   2.490   1.607  0.3181 -0.4317 -0.0392
13166TIP3   OH260988   5.374   3.287   6.173 -0.4121 -0.6011 -0.1482
13166TIP3    H160989   5.400   3.317   6.260  0.9922  1.1369 -1.1015
13166TIP3    H260990   5.337   3.200   6.188  0.3132 -0.5946  2.0982
13167TIP3   OH260991   2.324   6.423  15.246 -0.4679 -0.0484  0.4786
13167TIP3    H160992   2.276   6.470  15.313 -2.0624  0.0033 -0.6509
13167TIP3    H260993   2.338   6.336  15.283 -1.1316  0.0438  0.9621
13168TIP3   OH260994   4.178   2.247   0.104 -0.1631  0.3060 -0.1609
13168TIP3    H160995   4.240   2.180   0.135  1.0005  1.0571 -0.7823
13168TIP3    H260996   4.191   2.320   0.164 -1.1110  0.1556  0.2420
13169TIP3   OH260997   1.812   2.553  10.853  0.2149  0.0647  0.0899
13169TIP3    H160998   1.802   2.551  10.757  1.7766  0.7858 -0.1117
13169TIP3    H260999   1.738   2.500  10.885 -0.2155 -0.3833 -1.5114
13170TIP3   OH261000   6.501   1.607   0.961 -0.2199  0.3150  0.5180
13170TIP3    H161001   6.581   1.658   0.955 -0.5155  0.7646  0.3600
13170TIP3    H261002   6.430   1.671   0.955 -0.6462 -0.2730 -1.9245
13171TIP3   OH261003   5.355   1.179   1.767 -0.2729  0.8200 -0.4175
13171TIP3    H161004   5.356   1.258   1.713 -3.3442  2.0148  1.0321
13171TIP3    H261005   5.345   1.107   1.705 -2.1757  2.0135 -1.6115
13172TIP3   OH261006   2.534   0.556  10.844 -0.0094  0.5260 -0.3805
13172TIP3    H161007   2.583   0.474  10.853 -0.3788  0.0142 -2.5118
13172TIP3    H261008   2.601   0.624  10.839  0.3706  0.1547 -0.3757
13173TIP3   OH261009   4.813   3.055   4.805 -0.3626 -0.1746  0.6291
13173TIP3    H161010   4.720   3.071   4.791 -0.0717  0.2147 -1.0680
13173TIP3    H261011   4.829   2.970   4.762  0.4433  0.7469 -0.9940
13174TIP3   OH261012   0.487   3.670   4.824 -0.1010  0.2805  0.1209
13174TIP3    H161013   0.537   3.726   4.884 -0.3613  0.7857 -0.1210
13174TIP3    H261014   0.467   3.592   4.875  0.0585  0.5146  0.5516
13175TIP3   OH261015   4.521   1.579  14.761 -0.7050 -0.2281 -0.0159
13175TIP3    H161016   4.548   1.652  14.817 -0.4461 -0.3143 -0.0258
13175TIP3    H261017   4.578   1.585  14.685 -2.0406  0.7807 -0.9831
13176TIP3   OH261018   2.402   3.447  11.753  1.0118 -0.2254 -0.3565
13176TIP3    H161019   2.436   3.470  11.839  2.2549  0.7817 -1.0655
13176TIP3    H261020   2.475   3.402  11.710 -0.1127 -2.1332 -0.3643
13177TIP3   OH261021   0.340   1.878  11.464 -0.3718 -0.2779 -0.1010
13177TIP3    H161022   0.294   1.940  11.520 -3.3804 -1.9963 -0.4766
13177TIP3    H261023   0.408   1.930  11.421 -1.6480  2.3410  0.8619
13178TIP3   OH261024   5.733   6.398   4.087  0.1306  0.3634 -0.0376
13178TIP3    H161025   5.755   6.369   3.998  0.2147 -0.1549  0.1501
13178TIP3    H261026   5.803   6.460   4.110 -0.1821  0.9119 -0.5301
13179TIP3   OH261027   1.562   5.040   2.809  0.1310 -0.1457  0.1170
13179TIP3    H161028   1.559   5.098   2.885 -1.5966  0.5911 -0.4527
13179TIP3    H261029   1.648   5.057   2.770 -0.0141  1.4946  0.4104
13180TIP3   OH261030   5.712   6.576  16.312 -0.3665 -0.4504  0.2731
13180TIP3    H161031   5.682   6.485  16.323 -0.1019 -0.4529  1.0763
13180TIP3    H261032   5.783   6.585  16.376  0.4908 -0.0597 -0.7057
13181TIP3   OH261033   3.963   6.476   3.048 -0.1643  0.1117  0.4187
13181TIP3    H161034   4.051   6.477   3.084 -0.6528  0.7361  1.6573
13181TIP3    H261035   3.975   6.452   2.956  1.4348  1.5009  0.2064
13182TIP3   OH261036   1.152   5.271   5.665  0.1831 -0.4152 -0.0643
13182TIP3    H161037   1.172   5.252   5.573  1.0310  1.9781 -0.4567
13182TIP3    H261038   1.228   5.319   5.697 -0.3718 -0.6549  1.7219
13183TIP3   OH261039   5.450   6.248  16.468 -0.0622 -0.3491 -1.1100
13183TIP3    H161040   5.513   6.305  16.512 -2.2186  1.9838 -0.8861
13183TIP3    H261041   5.438   6.175  16.529 -0.2072  0.9519  0.4966
13184TIP3   OH261042   4.737   4.785   2.875 -0.1496 -0.4196 -0.7203
13184TIP3    H161043   4.677   4.816   2.941 -1.3451 -2.0702 -0.9695
13184TIP3    H261044   4.810   4.747   2.924 -0.3287 -0.3150 -0.3741
13185TIP3   OH261045   4.813   5.696   4.726  0.4635  0.3510  0.3493
13185TIP3    H161046   4.875   5.769   4.727 -0.3142  1.0477  2.0852
13185TIP3    H261047   4.863   5.622   4.762  1.0068  0.2242 -0.6311
13186TIP3   OH261048   1.742   1.799   6.088  0.1496  0.4396 -0.1711
13186TIP3    H161049   1.687   1.722   6.098  0.6488  0.2157  0.9297
13186TIP3    H261050   1.796   1.781   6.011  1.2175 -0.9104  0.8587
13187TIP3   OH261051   0.722   3.075  12.975  0.1240 -0.4360  0.2249
13187TIP3    H161052   0.649   3.061  12.915  0.3030 -2.6312  0.4536
13187TIP3    H261053   0.800   3.057  12.922  0.3273 -1.4005  0.8338
13188TIP3   OH261054   5.527   4.635  12.005  0.0069  0.4701  0.1941
13188TIP3    H161055   5.509   4.568  12.071 -0.6889 -1.4748 -1.8743
13188TIP3    H261056   5.621   4.650  12.011  0.1378 -0.5514  0.8119
13189TIP3   OH261057   3.860   4.500  13.206 -0.3033  0.2559 -0.1220
13189TIP3    H161058   3.803   4.513  13.281 -0.6524  2.4575 -0.6998
13189TIP3    H261059   3.802   4.504  13.130  0.4054  1.1122 -0.6409
13190TIP3   OH261060   6.320   2.621   4.331 -0.0087 -1.1751  0.1561
13190TIP3    H161061   6.300   2.529   4.314  2.1978 -1.4118 -1.7644
13190TIP3    H261062   6.396   2.639   4.276 -0.2786  1.7790  0.5845
13191TIP3   OH261063   3.603   2.482   4.613  0.2432  0.5769  0.4202
13191TIP3    H161064   3.546   2.523   4.679  0.0945  2.7324 -0.9432
13191TIP3    H261065   3.685   2.530   4.620  0.6632 -0.0493 -0.1174
13192TIP3   OH261066   0.907   0.070  11.356  0.3247  0.1104 -0.6474
13192TIP3    H161067   0.883  -0.020  11.333  0.6960 -0.3933  0.8808
13192TIP3    H261068   0.927   0.068  11.449 -0.6013  1.9752 -0.3415
13193TIP3   OH261069   2.556   1.906   1.809  0.3134 -0.0548  0.2726
13193TIP3    H161070   2.505   1.884   1.730  1.6176 -1.9754 -0.0817
13193TIP3    H261071   2.617   1.974   1.779  1.1150 -1.0986 -0.5115
13194TIP3   OH261072   2.410   2.011  14.869  0.5236  0.0501  0.0225
13194TIP3    H161073   2.490   1.972  14.904  1.2393  0.6890 -0.8888
13194TIP3    H261074   2.439   2.089  14.822 -0.6814  0.5285  0.0368
13195TIP3   OH261075   2.518   0.902   4.402 -0.7599 -0.1026  0.3196
13195TIP3    H161076   2.478   0.849   4.471  0.6207  0.1568  1.3595
13195TIP3    H261077   2.456   0.973   4.387 -0.8518  0.1310  1.6945
13196TIP3   OH261078   3.739   1.584  13.214 -0.1568  0.1254 -0.0923
13196TIP3    H161079   3.793   1.560  13.138 -2.9625 -1.1818 -1.8462
13196TIP3    H261080   3.783   1.542  13.288  1.2488 -0.8621 -1.4055
13197TIP3   OH261081   3.513   0.555   1.706 -0.2675  0.1187  0.0979
13197TIP3    H161082   3.493   0.472   1.663 -1.3738  0.5511 -0.2488
13197TIP3    H261083   3.446   0.615   1.675  0.3444  1.0759  0.5734
13198TIP3   OH261084   3.253   0.638   3.671 -0.0522  0.4361 -0.0791
13198TIP3    H161085   3.277   0.549   3.646 -0.6765  0.4018 -0.5807
13198TIP3    H261086   3.274   0.691   3.594 -0.9270  0.5089 -0.2792
13199TIP3   OH261087   3.885   6.722  11.363 -0.6425  0.3927  0.1303
13199TIP3    H161088   3.900   6.812  11.335 -0.3484  0.0232 -0.9280
13199TIP3    H261089   3.793   6.705  11.343 -0.5291  0.2476 -0.2625
13200TIP3   OH261090   2.998   5.849  12.411 -0.1718  0.5357  0.1346
13200TIP3    H161091   2.975   5.872  12.321 -2.4816  1.2074  0.8244
13200TIP3    H261092   3.093   5.836  12.409 -0.4193 -2.2502 -2.9858
13201TIP3   OH261093   4.207   5.503  11.167 -0.2259  0.1223  0.1642
13201TIP3    H161094   4.160   5.486  11.085 -0.4412 -0.3768  0.3834
13201TIP3    H261095   4.288   5.452  11.159 -0.3426 -0.0949  0.3443
13202TIP3   OH261096   1.758   2.617  10.590 -0.6333 -0.1533 -0.3146
13202TIP3    H161097   1.692   2.684  10.607 -1.8463 -1.1251 -1.0212
13202TIP3    H261098   1.710   2.546  10.547  0.5754 -1.5438  0.5273
13203TIP3   OH261099   5.693   6.090  15.291  0.4626  0.2308 -0.6061
13203TIP3    H161100   5.656   6.173  15.320  1.1695  0.4999 -0.4442
13203TIP3    H261101   5.737   6.055  15.368 -0.1423 -0.4745 -0.5765
13204TIP3   OH261102   1.211   2.421  14.795 -0.0233 -0.5763 -0.3955
13204TIP3    H161103   1.230   2.447  14.705  0.2098 -0.1763 -0.2337
13204TIP3    H261104   1.263   2.342  14.809 -0.3573 -0.8607 -0.7329
13205TIP3   OH261105   1.164   0.031   0.872 -0.4804 -0.5327 -0.5447
13205TIP3    H161106   1.214  -0.018   0.937 -1.4633 -1.8136 -0.7272
13205TIP3    H261107   1.096   0.075   0.922 -0.6312 -0.7240 -0.5793
13206TIP3   OH261108   1.682   2.497   1.725 -0.5357  0.2968  0.0999
13206TIP3    H161109   1.765   2.481   1.681 -0.5254  0.6456 -0.0123
13206TIP3    H261110   1.669   2.420   1.781 -0.4748 -0.0772 -0.3912
13207TIP3   OH261111   3.681   1.582   3.073 -0.2874  0.2751 -0.3900
13207TIP3    H161112   3.704   1.526   2.999  2.1866 -1.4578  1.5190
13207TIP3    H261113   3.640   1.523   3.136 -2.3595  1.7141 -0.2902
13208TIP3   OH261114   6.443   6.006   0.365 -0.0559 -1.3203  0.0044
13208TIP3    H161115   6.509   5.946   0.331 -0.2993 -0.7842 -1.4666
13208TIP3    H261116   6.435   6.074   0.298  0.1738  0.3522  1.5894
13209TIP3   OH261117   0.499   0.901  12.659 -0.8839 -0.0869  0.0569
13209TIP3    H161118   0.484   0.989  12.624  0.6380  0.5373  0.8676
13209TIP3    H261119   0.594   0.897  12.673 -1.0783 -1.4200  1.1611
13210TIP3   OH261120   6.168   5.108   2.497  0.1303 -0.0310 -0.1252
13210TIP3    H161121   6.249   5.155   2.516 -0.4978  1.2265 -0.4106
13210TIP3    H261122   6.144   5.065   2.579  0.3286  0.7990  0.3782
13211TIP3   OH261123   1.893   6.573   0.826  0.5463  0.0752 -0.1531
13211TIP3    H161124   1.829   6.502   0.836  1.4380 -1.4205 -3.4952
13211TIP3    H261125   1.895   6.590   0.732  3.4537  1.6127  0.0703
13212TIP3   OH261126   2.213   1.072   1.426  0.0478 -0.2901  0.0730
13212TIP3    H161127   2.271   1.076   1.349 -0.4279 -1.6144 -0.3790
13212TIP3    H261128   2.160   1.152   1.420  1.5544  0.7779  0.3105
13213TIP3   OH261129   0.050   5.868   3.471 -0.2459  0.0033  0.3308
13213TIP3    H161130   0.126   5.902   3.423  0.1567  0.5726  1.3451
13213TIP3    H261131   0.084   5.797   3.524 -0.1803  0.9385  1.5888
13214TIP3   OH261132   4.208   4.190   5.587 -0.4972 -0.2685 -0.3307
13214TIP3    H161133   4.291   4.150   5.561 -0.5639 -2.0106  1.8392
13214TIP3    H261134   4.228   4.234   5.669 -1.5046  0.2121 -0.3337
13215TIP3   OH261135   3.489   4.528  14.143  0.3294  0.2908 -0.3510
13215TIP3    H161136   3.547   4.468  14.188  0.6147 -0.1079 -1.2225
13215TIP3    H261137   3.470   4.485  14.059  0.0862  1.1476 -0.7503
13216TIP3   OH261138   6.847   5.350  15.271 -0.3489  0.2360  0.2453
13216TIP3    H161139   6.857   5.376  15.180  1.9008  2.5394  1.0261
13216TIP3    H261140   6.773   5.402  15.303  0.5366  1.4863  0.3447
13217TIP3   OH261141   1.481   3.763   0.224 -0.4950  0.1610  0.2728
13217TIP3    H161142   1.506   3.715   0.303  2.3991  1.3118  0.1870
13217TIP3    H261143   1.477   3.854   0.252 -2.4078  0.2982 -0.3230
13218TIP3   OH261144   1.133   0.420   0.325 -0.3261 -0.4486 -0.3186
13218TIP3    H161145   1.140   0.511   0.296 -0.6918 -0.1111  0.6202
13218TIP3    H261146   1.040   0.399   0.317 -0.7334  0.1779  2.0595
13219TIP3   OH261147   6.452   0.092   5.894  0.1859  0.3620  0.2879
13219TIP3    H161148   6.426   0.067   5.982 -0.7424 -0.1015 -0.1044
13219TIP3    H261149   6.417   0.024   5.838 -0.6593  1.4906 -0.6124
13220TIP3   OH261150   4.838   5.399  12.888  0.0247 -0.3573  0.0377
13220TIP3    H161151   4.850   5.306  12.908  1.6244  0.0892  1.3762
13220TIP3    H261152   4.793   5.435  12.965  2.4094  0.5685  1.0923
13221TIP3   OH261153   1.777   3.197   4.488 -0.5409  0.2291  0.2722
13221TIP3    H161154   1.787   3.151   4.404 -0.5573  0.5162  0.1105
13221TIP3    H261155   1.824   3.143   4.551  0.2600  0.4877 -0.0910
13222TIP3   OH261156   1.659   2.620  13.912 -0.7525  0.1303  0.5183
13222TIP3    H161157   1.601   2.641  13.985 -1.7862  1.2506 -0.5741
13222TIP3    H261158   1.624   2.670  13.839 -0.2524 -1.5939 -0.9730
13223TIP3   OH261159   4.727   5.252  15.266  0.4842  0.0061 -0.5841
13223TIP3    H161160   4.777   5.330  15.241  1.0530  0.4241  1.6092
13223TIP3    H261161   4.651   5.252  15.208  1.4382  1.1055 -1.8975
13224TIP3   OH261162   6.615   1.140   1.370  0.0674 -0.3699  0.4302
13224TIP3    H161163   6.627   1.183   1.455 -0.0543  1.5600 -0.4632
13224TIP3    H261164   6.521   1.144   1.354  0.2365  0.6082 -0.4161
13225TIP3   OH261165   0.886   2.688   5.689 -0.1536  0.4878 -0.4805
13225TIP3    H161166   0.925   2.653   5.769 -0.3543  4.0188  1.3648
13225TIP3    H261167   0.795   2.659   5.692  0.0464 -0.1059  0.1282
13226TIP3   OH261168   0.385   5.788  12.671  0.0957  0.0951 -0.0860
13226TIP3    H161169   0.342   5.743  12.744 -1.2596  0.4430 -0.6306
13226TIP3    H261170   0.374   5.881  12.691 -1.8810  0.2555 -1.5286
13227TIP3   OH261171   2.677   6.381   2.306  0.4733 -0.2752 -0.0522
13227TIP3    H161172   2.760   6.424   2.329 -0.3977  0.8081  1.1796
13227TIP3    H261173   2.687   6.292   2.341  1.2989 -0.3289 -0.3808
13228TIP3   OH261174   3.897   0.505  16.305 -0.2240  0.2371 -0.4300
13228TIP3    H161175   3.842   0.488  16.228  1.2037  0.2310 -1.4750
13228TIP3    H261176   3.983   0.527  16.269  0.7991 -0.8936  1.1877
13229TIP3   OH261177   3.899   3.313   0.860 -0.0501 -0.6481 -0.2849
13229TIP3    H161178   3.981   3.315   0.909  0.2444 -0.4906 -0.7673
13229TIP3    H261179   3.830   3.318   0.926  0.3410  0.0269  0.0843
13230TIP3   OH261180   3.354   0.364  12.716  0.6153  0.6465 -0.2514
13230TIP3    H161181   3.377   0.278  12.752  2.7777  1.4366  0.4288
13230TIP3    H261182   3.392   0.427  12.778 -1.1404  2.1328 -0.5858
13231TIP3   OH261183   3.272   0.732   4.953  0.2622 -0.3446 -0.4422
13231TIP3    H161184   3.217   0.772   4.885  1.4245  0.7622 -0.7764
13231TIP3    H261185   3.252   0.782   5.033  0.6227 -0.0646 -0.5225
13232TIP3   OH261186   2.614   2.534   3.194  0.1447 -0.2316  0.0732
13232TIP3    H161187   2.549   2.491   3.250 -1.4814 -0.8124 -2.1213
13232TIP3    H261188   2.585   2.514   3.105  1.1505  2.7837 -1.0327
13233TIP3   OH261189   5.554   2.223  12.582 -0.0001 -0.1782  0.1068
13233TIP3    H161190   5.462   2.225  12.556 -1.0722 -0.9608  3.3737
13233TIP3    H261191   5.565   2.140  12.627  1.2239  1.4802  3.1710
13234TIP3   OH261192   0.768   4.281   0.045  1.0228 -0.4849  0.5481
13234TIP3    H161193   0.792   4.371   0.066 -1.5342  0.5434 -0.5797
13234TIP3    H261194   0.813   4.262  -0.037 -0.8894  0.9709 -0.9082
13235TIP3   OH261195   6.678   0.224   5.421  0.0104 -0.0085 -0.1012
13235TIP3    H161196   6.652   0.232   5.329 -1.4530  1.8565  0.3916
13235TIP3    H261197   6.773   0.210   5.418 -0.2712 -2.0242 -1.9019
13236TIP3   OH261198   3.257   1.776   0.866  0.3377  0.1158  0.3705
13236TIP3    H161199   3.318   1.706   0.893 -0.2941  0.1767  2.0452
13236TIP3    H261200   3.282   1.851   0.919 -0.3019  0.5617  0.0454
13237TIP3   OH261201   5.875   5.580   4.922 -0.8650 -0.2368 -0.0031
13237TIP3    H161202   5.800   5.624   4.882 -0.4664 -0.7199 -1.3439
13237TIP3    H261203   5.898   5.510   4.860  1.1947  0.4004 -0.0368
13238TIP3   OH261204   6.579   6.376  14.691 -0.5418 -0.7666  0.6961
13238TIP3    H161205   6.645   6.377  14.760  2.4722 -1.0043 -1.9204
13238TIP3    H261206   6.555   6.284  14.683 -1.6514 -0.6110  2.0153
13239TIP3   OH261207   2.782   4.077   0.563  0.1593  0.1158 -0.1302
13239TIP3    H161208   2.806   4.145   0.626  0.2943 -0.4620  0.4516
13239TIP3    H261209   2.689   4.062   0.579  0.5212 -1.1435  1.0569
13240TIP3   OH261210   6.632   4.975  11.470  0.3745  0.4279  0.1633
13240TIP3    H161211   6.661   4.955  11.381 -1.8977 -1.2877 -0.2787
13240TIP3    H261212   6.634   4.890  11.515 -1.2036  0.7487  0.8879
13241TIP3   OH261213   3.263   0.995   6.077 -0.2971 -0.2574 -0.2017
13241TIP3    H161214   3.182   0.976   6.123 -1.3746 -0.2229 -1.9713
13241TIP3    H261215   3.332   0.955   6.130 -1.5890 -1.3255  0.7255
13242TIP3   OH261216   2.083   4.857   1.828 -0.0401  0.1179  0.2262
13242TIP3    H161217   2.042   4.935   1.863 -1.9150  0.1798 -1.9097
13242TIP3    H261218   2.146   4.890   1.764 -1.6910 -0.0506 -1.5704
13243TIP3   OH261219   5.918   0.252   0.612 -0.0865  0.3044 -0.0399
13243TIP3    H161220   5.899   0.250   0.705 -0.6161 -0.6207 -0.1530
13243TIP3    H261221   5.841   0.211   0.571  0.8440 -0.8112 -0.7397
13244TIP3   OH261222   1.741   4.744   2.250  0.1969 -0.7365 -0.1141
13244TIP3    H161223   1.825   4.749   2.294  0.1895 -1.1040 -0.0534
13244TIP3    H261224   1.759   4.772   2.160  0.1009  0.5533  0.2550
13245TIP3   OH261225   5.335   3.622   4.722 -0.4214 -0.1726  0.3833
13245TIP3    H161226   5.324   3.610   4.817  3.7490  2.2159  1.4513
13245TIP3    H261227   5.403   3.559   4.698  1.1959  1.6375 -0.0739
13246TIP3   OH261228   4.519   1.360  15.578 -0.2572  0.2743 -0.2429
13246TIP3    H161229   4.436   1.320  15.550 -0.6081  1.3378 -0.7850
13246TIP3    H261230   4.506   1.377  15.671 -0.0559 -0.9581  0.0261
13247TIP3   OH261231   4.233   5.240  16.283 -0.4701 -0.5993  0.2639
13247TIP3    H161232   4.198   5.216  16.368 -2.8398 -0.6826 -0.6573
13247TIP3    H261233   4.248   5.335  16.289 -2.4153 -0.2476  0.2489
13248TIP3   OH261234   3.221   1.913  16.076  0.2743 -0.5734  0.1847
13248TIP3    H161235   3.241   1.934  15.985 -1.0755 -1.0504 -0.2535
13248TIP3    H261236   3.134   1.874  16.073  0.2682 -0.7471  1.6699
13249TIP3   OH261237   1.520   5.757  16.328 -0.5024 -0.0319  0.3305
13249TIP3    H161238   1.601   5.736  16.373 -0.6433 -1.6022 -0.0985
13249TIP3    H261239   1.547   5.808  16.252 -0.1210  1.1960  1.2637
13250TIP3   OH261240   1.919   4.978  16.640 -0.0489  0.0117 -0.1802
13250TIP3    H161241   1.859   4.948  16.571  0.5770  2.0467 -1.6830
13250TIP3    H261242   1.938   4.899  16.690 -0.8785 -1.4793 -2.0701
13251TIP3   OH261243   2.017   6.790  13.018  0.3073 -0.6434 -0.2041
13251TIP3    H161244   2.031   6.699  13.045  1.9593 -0.2036  0.5122
13251TIP3    H261245   1.998   6.837  13.099  2.0436  0.0886 -0.1753
13252TIP3   OH261246   1.273   4.252   1.692 -0.6566  0.2498 -0.1253
13252TIP3    H161247   1.216   4.247   1.615  0.5904 -2.7617 -1.0061
13252TIP3    H261248   1.217   4.225   1.765 -1.0019 -0.3116 -0.5845
13253TIP3   OH261249   5.895   1.521  13.958  0.0833  0.2663 -0.2358
13253TIP3    H161250   5.848   1.548  14.037 -1.4476 -1.1518 -0.6269
13253TIP3    H261251   5.916   1.429  13.972  1.5980  0.5050 -0.6631
13254TIP3   OH261252   5.516   5.651   3.170  0.0106  0.3980  0.1345
13254TIP3    H161253   5.558   5.737   3.181 -3.3584  2.3622 -0.8814
13254TIP3    H261254   5.508   5.617   3.259 -2.6685  3.4063  1.2424
13255TIP3   OH261255   6.018   3.371  16.165  0.1140 -0.7769 -0.4272
13255TIP3    H161256   5.953   3.310  16.199 -0.8917  0.6825  0.4091
13255TIP3    H261257   6.066   3.402  16.242 -0.3287  0.4835 -0.6199
13256TIP3   OH261258   3.703   5.920  15.904 -0.3717  0.0624  0.1684
13256TIP3    H161259   3.653   5.892  15.981 -0.6311 -1.7860 -0.6049
13256TIP3    H261260   3.727   5.838  15.861  0.8033  1.0211 -1.0732
13257TIP3   OH261261   2.450   6.216   0.736  0.4754  0.9751 -0.4058
13257TIP3    H161262   2.409   6.131   0.719 -0.5155  1.3953 -0.1796
13257TIP3    H261263   2.399   6.278   0.685  0.5173  1.5711  0.2609
13258TIP3   OH261264   1.180   4.034   6.321 -0.0628 -0.2340  0.6161
13258TIP3    H161265   1.266   4.061   6.289 -0.2506 -0.1346  0.1889
13258TIP3    H261266   1.157   4.101   6.385  1.7781 -2.1611  3.5322
13259TIP3   OH261267   0.448   6.108  15.624  0.4835  0.3127 -0.4153
13259TIP3    H161268   0.375   6.049  15.638  0.7791  0.4922  2.2556
13259TIP3    H261269   0.451   6.162  15.703  2.3867  1.5334 -1.2565
13260TIP3   OH261270   4.177   5.660   5.051  0.2581 -0.4057  0.0496
13260TIP3    H161271   4.270   5.679   5.051 -0.1866  2.2831  2.2481
13260TIP3    H261272   4.172   5.568   5.025  3.6494 -1.1816  1.5736
13261TIP3   OH261273   5.156   1.212  16.163  0.2400  0.6120 -0.3791
13261TIP3    H161274   5.158   1.308  16.162  1.4888  0.6069 -1.2605
13261TIP3    H261275   5.245   1.186  16.139  0.3598 -0.7859  1.3369
13262TIP3   OH261276   6.437   3.919  16.992 -0.2992  0.0662 -0.1332
13262TIP3    H161277   6.385   3.908  17.072 -0.2292  1.1191  0.0720
13262TIP3    H261278   6.439   3.831  16.953  0.0811 -0.5865  1.2689
13263TIP3   OH261279   6.483   3.280  11.847  0.4991 -0.7350 -0.0142
13263TIP3    H161280   6.505   3.314  11.934  1.6456 -0.1225 -0.5285
13263TIP3    H261281   6.429   3.349  11.808 -0.6334 -1.3247  0.4601
13264TIP3   OH261282   3.606   5.457  12.572  0.1481  0.2353 -0.6563
13264TIP3    H161283   3.693   5.425  12.549 -0.2896 -0.4191 -1.4567
13264TIP3    H261284   3.619   5.505  12.654  0.7323 -2.5887  1.0569
13265TIP3   OH261285   6.200   5.250   4.902 -0.0139 -0.3563  0.1275
13265TIP3    H161286   6.158   5.321   4.951  1.4430  1.2152 -0.7840
13265TIP3    H261287   6.283   5.235   4.948  0.2972 -0.5305 -0.4852
13266TIP3   OH261288   6.646   1.579   5.747 -1.0541  0.4182  0.0213
13266TIP3    H161289   6.562   1.585   5.792  0.1169  2.8956  2.1324
13266TIP3    H261290   6.696   1.515   5.798 -0.5364  1.4701  0.8632
13267TIP3   OH261291   4.380   6.074  13.773  0.1678  0.1828  0.5712
13267TIP3    H161292   4.449   6.103  13.714 -0.2802  0.6776  0.2824
13267TIP3    H261293   4.313   6.142  13.767 -1.1580 -1.1753 -0.5160
13268TIP3   OH261294   5.612   1.988  10.716 -0.0863  0.0038  0.2798
13268TIP3    H161295   5.619   1.900  10.678  0.2215 -0.9075  2.3137
13268TIP3    H261296   5.524   1.991  10.753  0.9334 -0.7139  2.9924
13269TIP3   OH261297   5.906   0.161   4.043 -0.0960 -0.3699  1.1635
13269TIP3    H161298   5.974   0.131   4.103 -0.6555 -1.0375  1.4810
13269TIP3    H261299   5.954   0.200   3.970  0.6075 -0.1725  1.7150
13270TIP3   OH261300   2.387   2.874   5.027 -0.0286  0.4616 -0.7044
13270TIP3    H161301   2.446   2.871   4.952  0.8232  0.0903 -0.0354
13270TIP3    H261302   2.299   2.881   4.988  0.4649  1.4776 -1.7097
13271TIP3   OH261303   2.368   3.439   1.965 -0.1987  0.3591 -0.4237
13271TIP3    H161304   2.462   3.435   1.945 -0.3113 -1.7853 -0.7923
13271TIP3    H261305   2.325   3.433   1.880 -0.6661  0.0095 -0.1679
13272TIP3   OH261306   0.908   3.791  13.660 -0.0657  0.3630 -0.0125
13272TIP3    H161307   0.843   3.860  13.655  0.5085  0.8142 -2.5587
13272TIP3    H261308   0.887   3.744  13.741 -2.5182  1.4550  0.0707
13273TIP3   OH261309   5.426   3.532   1.973 -0.8234  0.1236  0.2715
13273TIP3    H161310   5.381   3.617   1.976  3.0649  2.3974  0.6787
13273TIP3    H261311   5.399   3.494   1.889 -0.9775  2.8660 -1.0512
13274TIP3   OH261312   2.677   2.132   1.723 -0.0532 -0.4587  0.3888
13274TIP3    H161313   2.771   2.110   1.722  0.3686  1.2033  0.2445
13274TIP3    H261314   2.673   2.220   1.686 -1.5606 -0.0690  1.3980
13275TIP3   OH261315   1.970   4.405   2.082  0.8380  0.4902 -0.1859
13275TIP3    H161316   1.928   4.337   2.029  0.8601  1.3098 -1.2814
13275TIP3    H261317   1.922   4.404   2.164 -0.3997  0.4410 -0.8921
13276TIP3   OH261318   0.484   5.753   4.933  0.3399 -0.1987 -0.0576
13276TIP3    H161319   0.484   5.723   5.024 -0.6373 -2.1356 -0.6339
13276TIP3    H261320   0.405   5.805   4.924  0.1023 -0.5339  0.0642
13277TIP3   OH261321   3.732   1.290  14.300  0.7535 -0.0504  0.2353
13277TIP3    H161322   3.764   1.358  14.240  0.6911 -0.9499 -0.8452
13277TIP3    H261323   3.811   1.254  14.340  1.0166 -1.0222 -1.0710
13278TIP3   OH261324   3.386   3.631  14.978 -0.0310 -0.2141  0.4474
13278TIP3    H161325   3.441   3.622  14.900 -1.1035 -1.6328 -0.1826
13278TIP3    H261326   3.366   3.541  15.004  0.3995  0.2270  2.4528
13279TIP3   OH261327   0.683   6.263  15.533  0.5705 -0.7657 -0.4633
13279TIP3    H161328   0.698   6.219  15.450 -3.4756 -0.1238 -1.7491
13279TIP3    H261329   0.639   6.198  15.588  0.0466 -0.1433 -0.1329
13280TIP3   OH261330   1.291   6.435  11.758 -0.0069  0.1290 -0.1720
13280TIP3    H161331   1.269   6.408  11.848  0.0982  1.4136  0.2605
13280TIP3    H261332   1.299   6.530  11.763 -0.6732  0.2903 -1.7102
13281TIP3   OH261333   5.652   2.077   4.672 -0.4447  0.3824  0.0370
13281TIP3    H161334   5.685   1.990   4.648 -0.5941  0.4612 -0.4685
13281TIP3    H261335   5.564   2.060   4.705  0.1618  0.1458  1.6041
13282TIP3   OH261336   3.681   3.810  16.544  0.3488  0.2315  0.4267
13282TIP3    H161337   3.643   3.738  16.494 -0.4573  0.9039  0.0394
13282TIP3    H261338   3.626   3.886  16.522 -0.7530  0.3480  3.1609
13283TIP3   OH261339   4.172   3.733   2.103 -0.0060 -0.4448 -0.0071
13283TIP3    H161340   4.110   3.714   2.174 -0.0023  0.3931  0.2283
13283TIP3    H261341   4.180   3.829   2.102 -1.3785 -0.2820 -2.3108
13284TIP3   OH261342   5.936   3.962  14.781  0.1161  0.0332  1.0557
13284TIP3    H161343   5.946   4.033  14.844  0.0652  0.5678  0.4792
13284TIP3    H261344   5.902   4.005  14.702 -0.3731 -0.7077  0.8480
13285TIP3   OH261345   2.607   0.903  16.493  0.1326  0.0521 -0.0288
13285TIP3    H161346   2.557   0.985  16.502  0.3629  0.4212 -1.6418
13285TIP3    H261347   2.687   0.917  16.543 -0.4142  0.2994  0.7875
13286TIP3   OH261348   4.735   6.238  16.386 -0.7633 -0.0499  0.0415
13286TIP3    H161349   4.718   6.145  16.375 -2.7815  0.0811  1.5165
13286TIP3    H261350   4.824   6.242  16.421 -1.0494 -1.5264  1.0380
13287TIP3   OH261351   1.783   2.325  15.889  0.2122  0.2720 -0.2510
13287TIP3    H161352   1.814   2.242  15.853  2.0138  0.3073  1.0768
13287TIP3    H261353   1.854   2.387  15.872 -0.7046  1.3325 -0.3842
13288TIP3   OH261354   3.377   2.382  12.714 -0.7526  0.2367 -0.0167
13288TIP3    H161355   3.305   2.388  12.777 -0.4061 -0.0847  0.4194
13288TIP3    H261356   3.442   2.328  12.758 -0.3512  0.3131 -0.5113
13289TIP3   OH261357   5.469   1.310  13.082 -0.3517  0.4420  0.2984
13289TIP3    H161358   5.454   1.290  13.174 -0.7541 -0.0277  0.1380
13289TIP3    H261359   5.532   1.244  13.053 -1.8250 -0.7803 -0.2806
13290TIP3   OH261360   3.907   6.017  14.195 -0.3255  0.3649  0.5472
13290TIP3    H161361   3.938   6.087  14.252 -0.2235  0.5783  0.2294
13290TIP3    H261362   3.812   6.030  14.192 -0.3706  0.1490  0.9365
13291TIP3   OH261363   1.780   0.491   1.017  0.2687 -0.1432  0.0220
13291TIP3    H161364   1.730   0.420   1.058  0.1042  0.3693  0.7318
13291TIP3    H261365   1.839   0.447   0.956 -1.6153 -0.7282 -1.5028
13292TIP3   OH261366   0.997   4.562  10.870  0.4484 -0.6004 -0.6359
13292TIP3    H161367   1.009   4.556  10.775  0.6682  2.8437 -0.9438
13292TIP3    H261368   0.970   4.474  10.896  1.0545 -1.8432 -3.7665
13293TIP3   OH261369   4.851   6.044  15.578 -0.2247  0.3489  0.1844
13293TIP3    H161370   4.849   6.122  15.633 -0.2040  1.9632 -1.9801
13293TIP3    H261371   4.858   6.077  15.489 -1.1066 -2.1163 -0.9041
13294TIP3   OH261372   3.386   3.671   2.696  0.0132 -0.3416  0.3282
13294TIP3    H161373   3.401   3.606   2.764 -1.9461 -1.2791 -0.0581
13294TIP3    H261374   3.290   3.677   2.689  0.1460 -0.1807 -2.2204
13295TIP3   OH261375   6.611   5.385  16.971 -0.0404  0.3425 -0.0675
13295TIP3    H161376   6.620   5.330  17.049 -1.9329  1.0663  0.7200
13295TIP3    H261377   6.520   5.413  16.972  0.5549  2.5310 -1.0766
13296TIP3   OH261378   0.969   2.506   0.168  0.1350 -0.3483  0.0281
13296TIP3    H161379   1.052   2.526   0.212  0.5813 -1.6806 -0.1824
13296TIP3    H261380   0.907   2.491   0.239  0.2735 -0.1756  0.1863
13297TIP3   OH261381   5.491   6.398  15.229  0.2194  0.3325  0.0272
13297TIP3    H161382   5.585   6.398  15.210  0.8192  3.6986  2.1852
13297TIP3    H261383   5.455   6.462  15.167  0.2213  2.4590  2.1044
13298TIP3   OH261384   1.930   1.662  12.483 -0.3715 -0.0784  0.2887
13298TIP3    H161385   2.014   1.706  12.491  0.1666 -1.1699  0.9117
13298TIP3    H261386   1.867   1.723  12.523 -0.0443  1.1147 -0.9395
13299TIP3   OH261387   3.987   0.188   2.261 -0.1533 -0.3605 -0.1679
13299TIP3    H161388   4.002   0.271   2.216  1.7230 -1.1833 -1.1894
13299TIP3    H261389   4.073   0.144   2.260 -1.1618 -2.4777 -0.0057
13300TIP3   OH261390   5.465   2.402   5.356 -0.7907  0.3126  0.3728
13300TIP3    H161391   5.485   2.309   5.361 -1.6790  0.1762  2.9161
13300TIP3    H261392   5.403   2.410   5.283 -0.5603 -1.0434  0.0058
13301TIP3   OH261393   4.105   3.784   5.894  0.4760 -0.2905  0.1450
13301TIP3    H161394   4.091   3.874   5.921 -1.1038 -0.6529  0.6885
13301TIP3    H261395   4.067   3.732   5.965  0.8311 -1.3656 -0.4311
13302TIP3   OH261396   2.884   3.525  12.125  0.1100  0.1676  0.3578
13302TIP3    H161397   2.815   3.579  12.087  0.5723 -0.1494 -0.9941
13302TIP3    H261398   2.853   3.435  12.114  0.5581  0.0419  0.0993
13303TIP3   OH261399   5.902   1.125  13.041 -0.2389  0.4701  1.0560
13303TIP3    H161400   5.913   1.065  13.115 -0.7928  0.3683  1.0555
13303TIP3    H261401   5.992   1.147  13.016 -0.0249 -0.4730  0.9564
13304TIP3   OH261402   2.876   2.180   3.845  0.5341 -0.0715 -0.5467
13304TIP3    H161403   2.901   2.230   3.768  0.1928  0.9266 -0.0354
13304TIP3    H261404   2.942   2.202   3.911  1.2305 -1.4575 -0.7338
13305TIP3   OH261405   5.430   5.693   5.185  0.4910  0.1918  0.3034
13305TIP3    H161406   5.497   5.659   5.244  1.1012 -1.8379 -1.4129
13305TIP3    H261407   5.471   5.769   5.143  0.5288  0.8380  1.4615
13306TIP3   OH261408   6.485   6.552   4.526  0.2119 -0.2872 -0.5707
13306TIP3    H161409   6.415   6.526   4.466  0.7687  0.7369 -1.7333
13306TIP3    H261410   6.442   6.607   4.591 -0.6209 -2.3906  0.7554
13307TIP3   OH261411   4.579   1.159  14.666 -0.5327 -0.4096  0.0118
13307TIP3    H161412   4.495   1.134  14.707 -1.5154  0.2925 -1.4853
13307TIP3    H261413   4.616   1.224  14.726  0.2487 -2.5878  2.0226
13308TIP3   OH261414   3.508   5.555  12.339 -0.3030  0.6039  0.8912
13308TIP3    H161415   3.523   5.531  12.430 -0.1787  0.5114  0.8468
13308TIP3    H261416   3.415   5.539  12.324 -0.2457  0.2632  0.8944
13309TIP3   OH261417   4.063   4.477   0.025 -0.1757 -0.1369 -0.0518
13309TIP3    H161418   4.148   4.446   0.056  0.5125  2.2577  0.7045
13309TIP3    H261419   4.071   4.478  -0.070  1.1088  1.1494  0.0400
13310TIP3   OH261420   3.119   3.880  17.049 -0.7860  0.5923 -0.0254
13310TIP3    H161421   3.132   3.834  16.965  0.4706  0.3450  0.2751
13310TIP3    H261422   3.091   3.812  17.109  1.7431 -0.0269  0.5930
13311TIP3   OH261423   4.414   1.247  10.913 -0.9732  0.2095  0.1665
13311TIP3    H161424   4.453   1.162  10.891  1.9815  1.0192  1.6696
13311TIP3    H261425   4.452   1.307  10.849 -0.6418  0.8688  0.9796
13312TIP3   OH261426   3.201   2.002  16.646 -0.4861 -0.6425  0.1432
13312TIP3    H161427   3.164   2.077  16.694  0.5813 -0.5986  0.9324
13312TIP3    H261428   3.283   2.035  16.610 -1.2813 -0.6729 -1.7801
13313TIP3   OH261429   6.481   0.794  13.772  0.3573 -0.7462  0.3764
13313TIP3    H161430   6.406   0.736  13.778  0.0428 -0.4652 -0.5334
13313TIP3    H261431   6.507   0.812  13.862 -0.4879 -1.0797  0.6870
13314TIP3   OH261432   1.713   0.101   4.131 -0.2013 -0.6046  0.0071
13314TIP3    H161433   1.730   0.146   4.213 -1.1026  0.5237 -0.3973
13314TIP3    H261434   1.623   0.070   4.138  0.4549 -2.6115  0.3599
13315TIP3   OH261435   4.367   0.786  14.992 -0.3382 -0.1854  0.4860
13315TIP3    H161436   4.317   0.791  14.910 -1.4875 -2.4345  0.9692
13315TIP3    H261437   4.333   0.708  15.036  0.6611  0.6270  2.8583
13316TIP3   OH261438   4.114   1.649   4.202 -0.3644  0.5195  0.4328
13316TIP3    H161439   4.195   1.681   4.242  1.0005 -0.2700 -1.5143
13316TIP3    H261440   4.091   1.571   4.253  2.8146 -2.0406 -1.6581
13317TIP3   OH261441   4.644   0.093   5.440  0.1867  0.4096 -0.0072
13317TIP3    H161442   4.643   0.136   5.526  0.8333 -0.5116  0.4665
13317TIP3    H261443   4.584   0.146   5.387 -0.2564  0.9689  1.0183
13318TIP3   OH261444   5.717   0.976  16.239  0.4498  0.1172  0.1091
13318TIP3    H161445   5.721   0.883  16.219 -0.9260  0.1083 -0.2126
13318TIP3    H261446   5.795   1.013  16.198  1.0813 -0.9015  0.3577
13319TIP3   OH261447   5.497   4.523   5.430 -0.0719  0.0983 -0.2782
13319TIP3    H161448   5.502   4.447   5.372  1.1398 -0.4066  0.4652
13319TIP3    H261449   5.535   4.494   5.512 -3.7179  0.1087  1.6386
13320TIP3   OH261450   3.318   2.714   5.695  0.5537  0.2238  0.4731
13320TIP3    H161451   3.404   2.744   5.724  1.1877 -0.4983 -0.5976
13320TIP3    H261452   3.336   2.632   5.648 -0.9064 -0.7901  1.6190
13321TIP3   OH261453   0.003   2.327   0.541  0.5170  0.5780 -0.2405
13321TIP3    H161454   0.032   2.273   0.468  1.9687  0.8351  0.1075
13321TIP3    H261455  -0.069   2.279   0.580  0.7866 -0.3483 -0.8705
13322TIP3   OH261456   3.668   4.829   4.903 -0.2305 -0.2721 -0.6113
13322TIP3    H161457   3.631   4.742   4.888 -0.0497 -0.5478  0.4712
13322TIP3    H261458   3.760   4.820   4.877  0.6333 -1.3390  2.4110
13323TIP3   OH261459   1.954   0.919   4.246  0.2838 -0.0293 -0.0487
13323TIP3    H161460   1.917   0.833   4.230 -1.3232  0.3524  1.3819
13323TIP3    H261461   2.048   0.904   4.253  0.0187 -1.6851  0.2781
13324TIP3   OH261462   4.990   1.843   1.475  0.2320 -0.3076  0.3097
13324TIP3    H161463   4.942   1.767   1.441 -1.1233  0.5988  0.1132
13324TIP3    H261464   5.009   1.820   1.566  1.2160 -1.5071 -0.1671
13325TIP3   OH261465   1.728   2.230  13.152  0.5327 -0.3096 -0.0219
13325TIP3    H161466   1.769   2.309  13.189  0.4866 -0.5412  0.5371
13325TIP3    H261467   1.677   2.194  13.225 -0.3372 -0.2533 -0.5827
13326TIP3   OH261468   2.646   5.875   4.351 -0.1859  0.1124 -0.3417
13326TIP3    H161469   2.662   5.963   4.318  0.9461  0.1626  0.2892
13326TIP3    H261470   2.733   5.837   4.360 -0.5640 -0.5001  0.9065
13327TIP3   OH261471   4.390   2.951  16.712  0.7762 -0.2556 -0.0268
13327TIP3    H161472   4.322   2.915  16.655  0.5263 -1.7286  1.1433
13327TIP3    H261473   4.381   3.046  16.704 -0.5520 -0.4308 -0.8922
13328TIP3   OH261474   5.810   0.142  16.928 -0.8859  0.5993  0.3419
13328TIP3    H161475   5.738   0.204  16.914 -0.8556  0.6331  0.3386
13328TIP3    H261476   5.801   0.079  16.857 -1.5608 -0.0015  0.9349
13329TIP3   OH261477   0.093   2.017   2.237  0.2619 -0.1722  0.1640
13329TIP3    H161478   0.009   1.980   2.213  0.4682 -0.5842  0.0710
13329TIP3    H261479   0.101   2.001   2.331 -0.1834  0.7167  0.3643
13330TIP3   OH261480   6.243   6.723  15.196  0.1166 -0.4360 -0.2302
13330TIP3    H161481   6.284   6.745  15.113 -0.8159  1.4560 -0.2243
13330TIP3    H261482   6.313   6.735  15.261  0.5339 -0.8168 -0.6030
13331TIP3   OH261483   3.267   1.658   2.873  0.1855  0.2947  0.0181
13331TIP3    H161484   3.336   1.668   2.938  0.5751 -0.0263 -0.3319
13331TIP3    H261485   3.243   1.565   2.878 -0.9715  0.6147  0.8684
13332TIP3   OH261486   5.538   0.471   2.882 -0.0377  0.6531 -0.7629
13332TIP3    H161487   5.448   0.505   2.881 -1.1198 -1.9723 -0.4307
13332TIP3    H261488   5.562   0.466   2.789 -0.6218  0.4563 -0.9116
13333TIP3   OH261489   4.886   6.033  16.172 -0.4418 -0.1299  0.0865
13333TIP3    H161490   4.848   5.951  16.206 -0.9846 -0.0007 -0.1982
13333TIP3    H261491   4.977   6.030  16.199 -0.4040 -0.9362 -0.1130
13334TIP3   OH261492   5.742   4.461   1.033  0.2415 -0.1681 -0.4327
13334TIP3    H161493   5.679   4.464   1.105  0.6697 -0.0192 -0.0605
13334TIP3    H261494   5.703   4.516   0.965  1.0127  1.8021  0.6443
13335TIP3   OH261495   1.478   6.320  15.717 -0.0940 -0.1600 -0.0937
13335TIP3    H161496   1.416   6.269  15.769 -0.6479  0.0153 -0.5587
13335TIP3    H261497   1.563   6.307  15.759 -0.9449  2.6625  2.9858
13336TIP3   OH261498   0.626   0.134   5.287  0.3599 -0.3021 -0.7971
13336TIP3    H161499   0.627   0.151   5.193  0.1304 -0.0855 -0.7610
13336TIP3    H261500   0.541   0.091   5.302  0.2762 -0.0805 -0.6440
13337TIP3   OH261501   3.118   1.366  11.584 -0.3758 -0.6782  0.2317
13337TIP3    H161502   3.100   1.274  11.563 -2.9967 -0.5473  1.5431
13337TIP3    H261503   3.083   1.378  11.672  0.1220  1.5406  0.1825
13338TIP3   OH261504   0.129   0.051  16.285 -0.3222 -0.9446 -0.0941
13338TIP3    H161505   0.153  -0.041  16.290 -0.4834 -0.9180  1.5876
13338TIP3    H261506   0.204   0.097  16.324 -0.8618 -0.4816  0.4109
13339TIP3   OH261507   4.051   1.210   4.767 -0.5223 -0.3396 -0.2523
13339TIP3    H161508   4.058   1.257   4.850 -0.1200 -0.1750 -0.3730
13339TIP3    H261509   3.969   1.161   4.773  0.1352 -1.3725  0.7805
13340TIP3   OH261510   5.890   5.401   4.379  0.1348  0.4864  0.3099
13340TIP3    H161511   5.909   5.453   4.458  1.5645 -0.5162  0.6792
13340TIP3    H261512   5.807   5.358   4.398 -0.8775  2.2702  0.1577
13341TIP3   OH261513   3.157   3.154   5.329 -0.4550 -0.0676 -0.2231
13341TIP3    H161514   3.228   3.169   5.392 -1.4150 -0.0466  0.8852
13341TIP3    H261515   3.183   3.203   5.252 -0.1376  1.4969  0.8203
13342TIP3   OH261516   3.568   5.547   3.537 -0.2784 -0.6231 -0.0108
13342TIP3    H161517   3.593   5.474   3.595  0.3439  0.0994  0.6491
13342TIP3    H261518   3.641   5.555   3.476 -0.0195 -0.1109  0.3590
13343TIP3   OH261519   4.849   3.599   0.733 -0.1624 -0.3636  0.3116
13343TIP3    H161520   4.849   3.514   0.777 -1.4331 -0.4280  0.2343
13343TIP3    H261521   4.879   3.579   0.644  1.3612 -0.4097  0.8162
13344TIP3   OH261522   2.137   0.264   0.482 -0.3462 -0.1957 -0.1633
13344TIP3    H161523   2.075   0.231   0.548  1.1801 -0.7538  1.0678
13344TIP3    H261524   2.082   0.310   0.419 -1.8650  0.6817  1.6752
13345TIP3   OH261525   0.054   4.449  11.140  0.2703 -0.2429  0.6576
13345TIP3    H161526   0.147   4.425  11.145  0.2758 -0.4854 -0.3560
13345TIP3    H261527   0.054   4.544  11.149  0.4252 -0.3848  2.6543
13346TIP3   OH261528   0.783   3.213   3.938 -0.0393  0.1474 -0.5617
13346TIP3    H161529   0.752   3.196   3.849 -0.0703  0.1034 -0.5429
13346TIP3    H261530   0.739   3.146   3.991 -1.3357  1.1866 -0.2574
13347TIP3   OH261531   0.630   4.060   1.138 -0.2298 -0.3729  0.0811
13347TIP3    H161532   0.712   4.080   1.092 -0.8279 -0.6019 -1.0968
13347TIP3    H261533   0.659   4.030   1.225  1.1382 -3.5744 -1.3269
13348TIP3   OH261534   4.467   0.454   0.939  0.0114 -0.2770 -0.2801
13348TIP3    H161535   4.545   0.412   0.904  1.1029  0.3648  1.2269
13348TIP3    H261536   4.483   0.458   1.034 -1.0226  1.4952 -0.1357
13349TIP3   OH261537   1.247   6.303  10.186 -0.0136 -0.3212 -0.4876
13349TIP3    H161538   1.291   6.262  10.112  0.0729  0.5900 -0.9540
13349TIP3    H261539   1.279   6.393  10.187  0.7354 -0.5569  1.2524
13350TIP3   OH261540   6.518   4.546  12.048  0.2217 -0.1704 -0.1607
13350TIP3    H161541   6.505   4.511  11.960 -0.0519  0.0651 -0.2148
13350TIP3    H261542   6.559   4.631  12.034 -1.4676  0.6865 -0.1538
13351TIP3   OH261543   2.672   5.599  14.341  0.2251 -0.0532  0.5871
13351TIP3    H161544   2.599   5.544  14.312  1.8271 -1.3265 -1.2840
13351TIP3    H261545   2.651   5.621  14.431 -2.3525 -0.5539  0.1793
13352TIP3   OH261546   1.683   1.614   4.901  0.1590  0.2006  0.6677
13352TIP3    H161547   1.600   1.571   4.879  1.4045 -1.4961 -1.1128
13352TIP3    H261548   1.726   1.552   4.961  0.5579  0.5792  0.7740
13353TIP3   OH261549   6.772   0.797   5.181 -0.4681  0.1721  0.5983
13353TIP3    H161550   6.691   0.837   5.213 -1.2022 -2.2882  2.1063
13353TIP3    H261551   6.835   0.811   5.252 -0.3910 -0.2848  0.6236
13354TIP3   OH261552   6.421   6.691   5.766 -0.0705  0.0645  0.7027
13354TIP3    H161553   6.476   6.706   5.689  0.0795  3.6925  1.3580
13354TIP3    H261554   6.482   6.664   5.835  0.2005 -0.3222  0.3186
13355TIP3   OH261555   0.325   6.690  16.845  0.5818  0.2599 -0.3587
13355TIP3    H161556   0.335   6.638  16.924  1.0873  0.5574 -0.2199
13355TIP3    H261557   0.363   6.775  16.868  0.4639  0.4412 -0.8248
13356TIP3   OH261558   2.150   6.774  15.291  0.0530  0.4912 -0.1568
13356TIP3    H161559   2.118   6.741  15.206  1.1498 -0.4447 -0.2343
13356TIP3    H261560   2.111   6.860  15.299 -2.1470 -0.4154 -0.4308
13357TIP3   OH261561   6.642   0.938   2.967 -0.1001 -0.1334 -0.5625
13357TIP3    H161562   6.731   0.906   2.951 -0.3663 -1.8466  1.0130
13357TIP3    H261563   6.653   1.030   2.989  1.3577 -0.4397  0.0870
13358TIP3   OH261564   3.178   5.118  13.796 -0.4291  0.8456 -0.0816
13358TIP3    H161565   3.224   5.191  13.836  0.6470  0.7916 -1.1662
13358TIP3    H261566   3.115   5.089  13.863  0.6284  1.3594  1.1732
13359TIP3   OH261567   1.955   5.053  16.988 -0.1447 -0.0402  0.5035
13359TIP3    H161568   2.031   5.074  16.934  0.5618 -0.0989  1.4462
13359TIP3    H261569   1.891   5.122  16.968  0.4072  0.3930  0.1985
13360TIP3   OH261570   4.039   0.430   2.103 -0.2395  0.1161 -0.5785
13360TIP3    H161571   4.086   0.407   2.024  0.7983  0.0115  0.0499
13360TIP3    H261572   4.106   0.462   2.163  0.2129 -5.2289  2.4349
13361TIP3   OH261573   5.123   0.222  15.525  0.2870 -0.1129 -0.8307
13361TIP3    H161574   5.152   0.160  15.459  1.2907  0.4411 -0.9354
13361TIP3    H261575   5.130   0.308  15.483  1.2445  0.2790  0.0635
13362TIP3   OH261576   3.472   1.757   3.038 -0.0666 -0.3027 -0.0347
13362TIP3    H161577   3.540   1.690   3.042 -0.2165 -0.5420 -1.1423
13362TIP3    H261578   3.519   1.837   3.014 -0.2003 -0.5462 -1.1765
13363TIP3   OH261579   3.596   6.848   2.312  0.0621  0.2308 -0.0096
13363TIP3    H161580   3.501   6.860   2.316  0.1656  0.9141  0.7319
13363TIP3    H261581   3.612   6.816   2.223 -0.8633  0.0529 -0.1281
13364TIP3   OH261582   6.518   4.906   0.837  0.0789 -0.3502 -0.3102
13364TIP3    H161583   6.571   4.982   0.814 -0.1489 -0.3494 -0.8446
13364TIP3    H261584   6.441   4.943   0.880  0.5614 -0.3587  0.5691
13365TIP3   OH261585   4.418   0.371  15.311  0.2981 -0.3546 -0.3355
13365TIP3    H161586   4.425   0.275  15.312  2.1338 -0.2550  0.0604
13365TIP3    H261587   4.486   0.400  15.251  0.1722  0.7267  0.0112
13366TIP3   OH261588   2.642   0.773   3.853  0.3641 -0.7899  0.0658
13366TIP3    H161589   2.661   0.760   3.946 -2.4601  0.6138  0.9390
13366TIP3    H261590   2.571   0.712   3.834 -0.0841 -0.0415 -0.7563
13367TIP3   OH261591   2.839   4.194  16.212  0.1649  0.4070 -0.1443
13367TIP3    H161592   2.800   4.234  16.134  0.9134 -0.3981 -0.9593
13367TIP3    H261593   2.889   4.120  16.178 -0.8777 -1.0286  1.2684
13368TIP3   OH261594   1.937   0.272  14.852 -0.3096 -0.2604 -0.1989
13368TIP3    H161595   1.958   0.347  14.907  0.3090 -0.6804  0.1499
13368TIP3    H261596   1.937   0.197  14.913  0.4067 -0.7371 -0.7649
13369TIP3   OH261597   1.134   0.027  13.936 -0.0154  0.1771  0.5088
13369TIP3    H161598   1.043   0.047  13.956  0.1149 -0.0626  1.4115
13369TIP3    H261599   1.152  -0.054  13.984  0.7977  0.4690  0.7226
13370TIP3   OH261600   5.196   1.224   2.717  0.1747  0.3488  0.4438
13370TIP3    H161601   5.261   1.291   2.697 -1.8707  2.4087  0.2458
13370TIP3    H261602   5.173   1.238   2.809  0.6551 -0.9889  0.7943
13371TIP3   OH261603   1.902   1.733   0.087  0.1627  0.0616  0.2652
13371TIP3    H161604   1.935   1.822   0.101 -1.2046  0.9505 -1.6688
13371TIP3    H261605   1.837   1.743   0.017 -0.9472 -2.2774  0.8890
13372TIP3   OH261606   6.803   6.093  16.106 -0.0315  0.2158  0.4217
13372TIP3    H161607   6.770   6.033  16.173 -0.5263  0.1782  0.1454
13372TIP3    H261608   6.725   6.138  16.073  0.1061 -0.2989 -0.6510
13373TIP3   OH261609   4.253   5.915   1.874  0.2163 -0.0472 -0.0854
13373TIP3    H161610   4.165   5.937   1.846  1.3897  3.5101 -1.4518
13373TIP3    H261611   4.261   5.951   1.962  0.2130 -0.7904  0.2333
13374TIP3   OH261612   3.954   0.528   0.400  0.0475  0.5072 -0.5113
13374TIP3    H161613   4.031   0.472   0.408 -0.0478  0.4309 -0.0534
13374TIP3    H261614   3.982   0.612   0.436 -1.2167 -0.6371  3.7479
13375TIP3   OH261615   6.733   4.463   0.972  0.0707 -0.1433  1.2246
13375TIP3    H161616   6.662   4.412   1.012 -1.3414 -0.0088 -0.9222
13375TIP3    H261617   6.707   4.554   0.986  1.3909  0.0006  3.0069
13376TIP3   OH261618   0.698   1.936  16.468 -1.0402 -0.2940 -0.5176
13376TIP3    H161619   0.702   1.868  16.400  0.0045  0.3871 -1.1751
13376TIP3    H261620   0.789   1.960  16.483 -1.4039  1.6647 -1.0529
13377TIP3   OH261621   4.479   1.518   1.689  0.2945  0.0389 -0.1346
13377TIP3    H161622   4.544   1.498   1.756  0.1212 -1.4770 -0.3816
13377TIP3    H261623   4.400   1.539   1.738  0.2430 -0.7953  0.1540
13378TIP3   OH261624   1.559   5.647  14.277 -0.5107  0.0105  0.2803
13378TIP3    H161625   1.509   5.728  14.286 -1.6186 -0.5451 -0.5856
13378TIP3    H261626   1.595   5.652  14.188 -0.6187 -0.4524  0.2075
13379TIP3   OH261627   0.727   6.465  15.740 -0.1211  0.4087 -0.2628
13379TIP3    H161628   0.728   6.549  15.694  0.9266 -0.8631 -2.7393
13379TIP3    H261629   0.694   6.402  15.676 -0.0086 -1.2489  1.2109
13380TIP3   OH261630   3.843   4.908   1.078  0.0409  0.0985  0.1135
13380TIP3    H161631   3.903   4.866   1.016  0.3124  0.9302 -0.2024
13380TIP3    H261632   3.854   4.858   1.159  0.3663 -0.4305 -0.2530
13381TIP3   OH261633   1.725   6.777   6.084  0.4729  0.1828 -0.6740
13381TIP3    H161634   1.632   6.754   6.080  0.2147  1.0990 -0.1582
13381TIP3    H261635   1.769   6.693   6.100 -0.3093 -0.1862 -0.3819
13382TIP3   OH261636   5.934   4.640   3.482 -0.1218 -0.1253  0.4579
13382TIP3    H161637   5.958   4.554   3.516  0.4246  0.1081  0.6675
13382TIP3    H261638   5.946   4.700   3.556  1.0761  0.3904 -0.1310
13383TIP3   OH261639   3.799   0.171   0.110 -0.5372  0.1232 -0.4841
13383TIP3    H161640   3.747   0.224   0.049 -1.7906  0.2379  0.6485
13383TIP3    H261641   3.802   0.222   0.191  1.2440  0.0464 -0.4563
13384TIP3   OH261642   6.804   4.002  16.574  0.0517  0.4418  0.3745
13384TIP3    H161643   6.812   4.096  16.586  0.6500  0.3603  0.6016
13384TIP3    H261644   6.791   3.967  16.662 -0.8925  0.3768  0.2212
13385TIP3   OH261645   1.165   5.573  15.325 -0.1266 -0.3292  0.0251
13385TIP3    H161646   1.149   5.550  15.233 -1.3731 -1.1199  0.4170
13385TIP3    H261647   1.192   5.665  15.322 -1.9993  0.2386 -0.9993
13386TIP3   OH261648   3.806   5.960   4.478 -0.4830 -0.0406 -0.0956
13386TIP3    H161649   3.822   6.053   4.460  0.6474 -0.2969 -0.5003
13386TIP3    H261650   3.890   5.928   4.511 -1.1982 -0.6632  1.1527
13387TIP3   OH261651   2.789   0.685   0.870 -0.1872 -0.1969  1.0092
13387TIP3    H161652   2.844   0.607   0.861 -1.0094 -0.7053  0.1715
13387TIP3    H261653   2.728   0.679   0.796 -2.5764 -0.6076  2.9123
13388TIP3   OH261654   5.047   6.727   1.823  0.2429 -0.1681 -0.4877
13388TIP3    H161655   5.131   6.753   1.861  0.3790 -1.8764  0.4689
13388TIP3    H261656   4.983   6.781   1.869  0.5131 -1.4413  1.5190
13389TIP3   OH261657   3.775   2.340  15.863  0.2499 -0.7868  0.3260
13389TIP3    H161658   3.868   2.358  15.870  0.0353  0.3849  0.4425
13389TIP3    H261659   3.737   2.422  15.830 -0.6758 -1.3914 -0.1557
13390TIP3   OH261660   1.552   5.697  10.203  0.5031 -0.4438  0.0456
13390TIP3    H161661   1.477   5.733  10.252 -0.9494 -0.4977 -1.9876
13390TIP3    H261662   1.591   5.633  10.262 -0.0702  0.7021  1.7637
13391TIP3   OH261663   4.335   4.228   2.928  0.3420  0.0583 -0.0899
13391TIP3    H161664   4.423   4.190   2.933  0.2820  0.0647  1.2133
13391TIP3    H261665   4.340   4.291   2.856  1.4691  0.2267  0.1183
13392TIP3   OH261666   0.758   3.450  11.237 -0.0516  0.1012  0.3648
13392TIP3    H161667   0.721   3.450  11.149  1.2728 -0.2614 -0.2044
13392TIP3    H261668   0.852   3.449  11.224  0.1688  0.2944  1.7951
13393TIP3   OH261669   4.082   2.240   6.124 -0.1506  0.6793  0.4422
13393TIP3    H161670   4.085   2.284   6.209 -0.3684  0.6799  0.4491
13393TIP3    H261671   3.996   2.199   6.121  0.8031 -1.5380  1.3355
13394TIP3   OH261672   5.755   6.253   0.593 -0.1824 -0.5357  0.0904
13394TIP3    H161673   5.701   6.322   0.633  0.3603  0.1902 -0.3961
13394TIP3    H261674   5.692   6.190   0.559 -0.6973 -0.2124  0.4354
13395TIP3   OH261675   0.076   4.305   2.882 -0.2317  0.2983 -0.8063
13395TIP3    H161676   0.098   4.345   2.798  0.3192  0.2750 -0.6729
13395TIP3    H261677  -0.002   4.252   2.863  0.3697 -0.3689 -1.4982
13396TIP3   OH261678   0.005   0.241  11.671 -0.3082  0.5267  0.4938
13396TIP3    H161679  -0.010   0.275  11.759 -0.3919 -0.8217  1.0174
13396TIP3    H261680  -0.083   0.219  11.639 -0.1288 -0.5441  0.7260
13397TIP3   OH261681   3.869   2.741  16.446 -0.6676 -0.7490 -0.2983
13397TIP3    H161682   3.890   2.749  16.539  3.0407 -0.6093 -0.9829
13397TIP3    H261683   3.876   2.648  16.427  2.4440 -0.4771 -1.0322
13398TIP3   OH261684   2.644   6.381   4.323  0.9339 -0.5085 -0.9128
13398TIP3    H161685   2.724   6.337   4.296  1.0441 -0.7708 -0.1884
13398TIP3    H261686   2.589   6.383   4.245  2.6503  2.0190 -2.1944
13399TIP3   OH261687   5.869   5.861  13.671  0.0083  0.1461 -0.2405
13399TIP3    H161688   5.843   5.927  13.735 -1.2897  0.4015 -0.9909
13399TIP3    H261689   5.802   5.793  13.677  0.5099 -0.3869 -0.5252
13400TIP3   OH261690   6.256   4.593  11.062  0.6028 -0.1484  0.7104
13400TIP3    H161691   6.343   4.627  11.043  0.6080 -0.3410  0.3919
13400TIP3    H261692   6.197   4.662  11.030  0.6359 -0.0590  0.8427
13401TIP3   OH261693   3.272   2.818   1.103 -0.1065  0.3129  0.4970
13401TIP3    H161694   3.351   2.773   1.071 -0.2702  1.5680 -1.9609
13401TIP3    H261695   3.291   2.911   1.091 -1.9186  0.6497 -0.1049
13402TIP3   OH261696   5.493   5.566  12.116 -0.6304 -0.3596 -0.1923
13402TIP3    H161697   5.468   5.474  12.114 -0.2206 -0.5522  1.6625
13402TIP3    H261698   5.563   5.573  12.051  0.6283 -1.8006  0.9208
13403TIP3   OH261699   2.724   5.542   1.903  0.2922 -0.4589  0.2614
13403TIP3    H161700   2.714   5.614   1.841 -0.7695  0.6807  1.6757
13403TIP3    H261701   2.779   5.478   1.858  0.7228  0.9496 -1.2817
13404TIP3   OH261702   0.334   5.472  14.952  0.0560 -0.7114  0.6087
13404TIP3    H161703   0.257   5.421  14.976  0.2791 -0.8169  1.1224
13404TIP3    H261704   0.308   5.563  14.968 -0.7444 -0.5302 -1.4168
13405TIP3   OH261705   1.244   2.719   5.413 -0.6624  0.1129 -0.1616
13405TIP3    H161706   1.226   2.724   5.507 -0.3053  0.1394 -0.0954
13405TIP3    H261707   1.172   2.768   5.372 -0.6275  0.3984  0.1187
13406TIP3   OH261708   5.936   4.003   3.971 -0.1050  0.6949 -0.0907
13406TIP3    H161709   5.946   3.919   3.927  1.5104  1.5318 -1.3825
13406TIP3    H261710   5.854   3.993   4.021  0.0195 -1.6053 -0.2193
13407TIP3   OH261711   3.323   4.873   0.754 -0.5153  0.3678 -0.2035
13407TIP3    H161712   3.357   4.801   0.702 -0.4837  0.2604 -0.0319
13407TIP3    H261713   3.285   4.832   0.831  1.0051  0.6535  0.7311
13408TIP3   OH261714   0.635   3.299   4.764 -0.6805 -0.1403  0.0743
13408TIP3    H161715   0.572   3.313   4.694 -1.3844  1.0579  0.9284
13408TIP3    H261716   0.588   3.245   4.828 -0.3079 -0.5397  0.0215
13409TIP3   OH261717   6.212   2.229   5.719  0.1478  0.0990  0.0961
13409TIP3    H161718   6.143   2.290   5.745 -0.2416 -0.4154  0.3085
13409TIP3    H261719   6.269   2.279   5.661  0.3551  0.9212  0.9977
13410TIP3   OH261720   2.663   2.860  10.515  0.0716  0.1369  0.4462
13410TIP3    H161721   2.735   2.843  10.576  0.5546  0.2523 -0.0857
13410TIP3    H261722   2.704   2.859  10.429 -0.3128  1.5574  0.2154
13411TIP3   OH261723   1.002   6.231   5.751  0.0884  0.1965 -0.0590
13411TIP3    H161724   0.959   6.316   5.749 -1.3714 -0.4293  1.8922
13411TIP3    H261725   1.070   6.240   5.818 -0.4141 -0.3154  0.5247
13412TIP3   OH261726   5.168   4.015  13.335  0.3258  0.0088 -0.3293
13412TIP3    H161727   5.119   3.938  13.306  2.1525 -1.5241  0.3935
13412TIP3    H261728   5.259   3.994  13.315  0.9571  1.6378  0.6436
13413TIP3   OH261729   6.119   6.248  15.185 -0.0799  0.7868 -0.1846
13413TIP3    H161730   6.151   6.300  15.258  0.1407  0.3904  0.0037
13413TIP3    H261731   6.144   6.298  15.107  4.3649 -1.1466 -0.3201
13414TIP3   OH261732   1.536   4.337   0.205 -0.0783  0.0267  0.3855
13414TIP3    H161733   1.488   4.407   0.161  0.1515 -1.1717 -1.9392
13414TIP3    H261734   1.550   4.271   0.137  0.4496 -1.9190  2.2532
13415TIP3   OH261735   1.968   6.011  13.401  0.0960  0.2992 -0.3177
13415TIP3    H161736   1.882   5.988  13.436 -0.0390 -0.4326 -1.1018
13415TIP3    H261737   1.984   6.100  13.433  0.0441 -0.3474  1.6778
13416TIP3   OH261738   4.637   1.745  11.747 -0.5108 -0.4764 -0.0483
13416TIP3    H161739   4.727   1.727  11.719 -0.6415  0.9717 -1.5380
13416TIP3    H261740   4.582   1.702  11.681 -0.8645  0.4800 -0.3932
13417TIP3   OH261741   6.224   4.458   3.527 -0.0784  0.1055  0.2307
13417TIP3    H161742   6.275   4.400   3.583 -0.4022 -0.2354  0.1808
13417TIP3    H261743   6.234   4.422   3.439 -0.7966 -0.2577  0.2882
13418TIP3   OH261744   1.649   6.559   1.349  0.0053 -0.6876 -0.4097
13418TIP3    H161745   1.710   6.591   1.283  0.9421 -0.6731  0.4504
13418TIP3    H261746   1.653   6.464   1.340  0.2279 -0.6905 -0.2939
13419TIP3   OH261747   2.751   2.178  17.013 -0.5953 -0.1485 -0.1488
13419TIP3    H161748   2.760   2.271  16.991 -0.4612  0.0740  0.8208
13419TIP3    H261749   2.768   2.173  17.107  0.2981 -1.2820 -0.3438
13420TIP3   OH261750   5.719   6.796   4.315  0.8712  0.2896  0.1225
13420TIP3    H161751   5.769   6.747   4.379  2.1209  1.7741  0.3336
13420TIP3    H261752   5.763   6.881   4.309  0.3453  0.4714 -2.1402
13421TIP3   OH261753   4.532   4.567  12.877 -0.8006  0.1302  0.3465
13421TIP3    H161754   4.608   4.600  12.925 -1.9657  2.1384  0.9440
13421TIP3    H261755   4.479   4.523  12.943 -2.2775  2.6706  1.0118
13422TIP3   OH261756   3.560   5.042   2.036  0.4777  0.5289  0.0075
13422TIP3    H161757   3.507   5.115   2.065  0.3225 -0.0488  1.2351
13422TIP3    H261758   3.618   5.023   2.110  0.2167 -0.8496 -0.1142
13423TIP3   OH261759   4.216   2.704  12.400 -0.0659 -0.0437  0.6088
13423TIP3    H161760   4.260   2.782  12.432  0.4609 -0.4690  0.9309
13423TIP3    H261761   4.215   2.644  12.475  1.7007 -1.2802 -0.3018
13424TIP3   OH261762   3.838   5.354  12.341  0.0186  0.0177  0.0891
13424TIP3    H161763   3.881   5.295  12.403 -0.3259 -0.8029 -0.4393
13424TIP3    H261764   3.771   5.300  12.299 -0.7256  0.9481  0.0391
13425TIP3   OH261765   5.490   3.452  15.480  0.0861  0.6700  0.6822
13425TIP3    H161766   5.447   3.454  15.394 -2.3471 -3.0022  1.5963
13425TIP3    H261767   5.418   3.461  15.542  1.5948  1.3851  2.4192
13426TIP3   OH261768   2.298   1.853   2.259 -0.1953 -0.0390 -0.0312
13426TIP3    H161769   2.300   1.820   2.169  1.0369  0.0850 -0.0628
13426TIP3    H261770   2.290   1.775   2.313  2.0672 -0.4039 -0.1360
13427TIP3   OH261771   0.542   4.655  14.197 -0.5801 -0.0311  0.1908
13427TIP3    H161772   0.481   4.708  14.249  0.1721  0.5580  0.4832
13427TIP3    H261773   0.617   4.712  14.182 -0.3019 -0.5814 -0.5889
13428TIP3   OH261774   5.526   0.531  13.817 -0.1275  0.2035  0.4867
13428TIP3    H161775   5.621   0.523  13.829  0.0153  0.3106 -0.4588
13428TIP3    H261776   5.513   0.512  13.724 -1.1638 -0.8842  0.8376
13429TIP3   OH261777   5.083   6.472   3.331  0.2890  0.8130 -0.3074
13429TIP3    H161778   5.165   6.499   3.289  0.5642  0.9806  0.3378
13429TIP3    H261779   5.048   6.405   3.272  1.0900  0.4501 -0.3862
13430TIP3   OH261780   4.893   1.249  11.637  0.1803  0.2853  0.6095
13430TIP3    H161781   4.964   1.278  11.694  2.5964 -3.2685 -0.2358
13430TIP3    H261782   4.861   1.168  11.679 -1.3387  0.2101 -0.6022
13431TIP3   OH261783   1.958   1.130  11.060  0.4209  0.0065 -0.1036
13431TIP3    H161784   1.939   1.115  11.153 -1.1636 -2.7479 -0.7795
13431TIP3    H261785   1.883   1.095  11.014  0.8753  1.8889 -2.4837
13432TIP3   OH261786   1.514   3.493  15.586  0.0585 -0.3420  0.0337
13432TIP3    H161787   1.562   3.567  15.547 -1.4254  0.7351  0.1734
13432TIP3    H261788   1.567   3.468  15.662  1.6620 -0.8169 -1.1648
13433TIP3   OH261789   3.288   2.563  16.909  0.7518  0.3785 -0.0138
13433TIP3    H161790   3.320   2.499  16.846  1.1345  0.8564 -0.3105
13433TIP3    H261791   3.221   2.516  16.959  2.6942 -1.0175  1.4196
13434TIP3   OH261792   5.016   1.842   0.228 -0.2832  0.2801 -0.1234
13434TIP3    H161793   5.039   1.788   0.304  0.5908  0.2666 -0.3816
13434TIP3    H261794   4.935   1.804   0.195 -0.5577  0.1509  0.6737
13435TIP3   OH261795   3.578   2.994  11.901  0.2870  0.4629  0.0976
13435TIP3    H161796   3.616   3.079  11.922  1.1341 -0.1223  1.0208
13435TIP3    H261797   3.558   2.955  11.987 -0.7132 -0.0054 -0.3251
13436TIP3   OH261798   3.388   0.827   3.490 -0.3669 -0.2779  0.1469
13436TIP3    H161799   3.332   0.901   3.512 -1.4234 -0.8635 -0.4425
13436TIP3    H261800   3.475   0.864   3.481 -0.9885  1.0417 -0.8631
13437TIP3   OH261801   2.809   0.490   0.008 -0.4910  0.0265 -0.5374
13437TIP3    H161802   2.829   0.535  -0.074  0.8469  1.8866  0.7368
13437TIP3    H261803   2.762   0.555   0.060 -1.1261 -1.0576  0.2728
13438TIP3   OH261804   1.712   6.021  13.515 -0.2153  0.5807 -0.7215
13438TIP3    H161805   1.717   5.997  13.608 -1.4097  4.3643  0.5020
13438TIP3    H261806   1.622   6.001  13.489  0.3168 -1.1659 -1.3855
13439TIP3   OH261807   5.509   0.893   6.109 -0.0005  0.1600  0.3279
13439TIP3    H161808   5.441   0.847   6.158 -0.8688 -0.8480 -1.6736
13439TIP3    H261809   5.588   0.883   6.162 -0.9583 -0.4738  1.6961
13440TIP3   OH261810   0.635   2.627   5.690  0.3547 -0.0354 -0.7164
13440TIP3    H161811   0.617   2.714   5.725 -0.9553 -1.1510  1.7001
13440TIP3    H261812   0.557   2.576   5.713  1.0122 -1.8115 -2.1998
13441TIP3   OH261813   4.361   1.716  16.959 -0.1611 -0.8532 -0.1200
13441TIP3    H161814   4.345   1.677  17.045  0.3272 -1.3891 -0.2613
13441TIP3    H261815   4.353   1.642  16.898  0.1307 -0.6019 -0.4652
13442TIP3   OH261816   2.234   2.392   6.038  0.1466 -0.3459 -0.6746
13442TIP3    H161817   2.306   2.357   6.089 -0.7310 -0.0255  0.8449
13442TIP3    H261818   2.275   2.434   5.963  1.5508  0.0536  0.2933
13443TIP3   OH261819   4.270   6.200   1.220 -0.2494 -0.0541 -0.1383
13443TIP3    H161820   4.286   6.106   1.213 -0.6776 -0.0432 -1.6266
13443TIP3    H261821   4.186   6.208   1.264 -0.8849 -0.4319 -1.2527
13444TIP3   OH261822   5.669   6.240   1.584  0.5687 -0.1452  0.6310
13444TIP3    H161823   5.605   6.168   1.580  1.8607 -1.3234  0.4359
13444TIP3    H261824   5.685   6.252   1.678 -0.3803  0.6015  0.7207
13445TIP3   OH261825   5.452   5.346   1.803 -0.1080 -0.2039 -0.3639
13445TIP3    H161826   5.398   5.379   1.874 -0.1897 -1.6499  0.2666
13445TIP3    H261827   5.435   5.406   1.730  2.3155  3.2090  1.6259
13446TIP3   OH261828   2.948   2.584  16.720  0.0608  0.5242  0.3456
13446TIP3    H161829   2.919   2.522  16.652  0.5755  0.6132  0.0372
13446TIP3    H261830   3.012   2.640  16.675  1.0379  0.0513  1.1225
13447TIP3   OH261831   3.016   2.219  12.172  0.5977 -0.4020  0.3529
13447TIP3    H161832   3.028   2.126  12.189 -0.2587 -1.0141 -1.9903
13447TIP3    H261833   3.023   2.227  12.077  2.0113  2.1704  0.5890
13448TIP3   OH261834   2.352   0.026  13.435 -0.4623  0.0507 -0.3506
13448TIP3    H161835   2.421   0.041  13.499 -0.6813  2.1597 -0.5339
13448TIP3    H261836   2.270   0.037  13.485 -0.6298  0.9363 -0.7899
13449TIP3   OH261837   0.929   4.530   0.777  0.2262 -0.0719 -0.4569
13449TIP3    H161838   0.883   4.447   0.786  0.3321  0.1146  3.2732
13449TIP3    H261839   1.021   4.505   0.769  0.1134 -0.3192 -1.0297
13450TIP3   OH261840   2.478   5.010   0.569  0.0471  0.4700  0.0135
13450TIP3    H161841   2.489   4.937   0.630  0.1468  0.1643 -0.3664
13450TIP3    H261842   2.567   5.032   0.541 -0.0698 -0.0697 -0.8099
13451TIP3   OH261843   2.449   4.745  12.213 -0.0173  0.3008 -0.4866
13451TIP3    H161844   2.366   4.725  12.170 -0.3851 -1.5370  0.9575
13451TIP3    H261845   2.423   4.786  12.296  0.5029 -0.2905 -0.0268
13452TIP3   OH261846   0.149   5.283   5.248 -0.0185  0.7900  0.1380
13452TIP3    H161847   0.200   5.282   5.329  1.0642  2.2567 -0.4659
13452TIP3    H261848   0.205   5.241   5.183 -0.8679 -0.3522  0.1212
13453TIP3   OH261849   4.401   2.240   4.851  0.4347 -0.5650 -0.0939
13453TIP3    H161850   4.321   2.293   4.858  1.6267  1.4195 -0.7328
13453TIP3    H261851   4.371   2.159   4.811 -1.6177 -0.7920  1.6902
13454TIP3   OH261852   4.362   4.161   4.092 -0.0447 -0.2392  0.0377
13454TIP3    H161853   4.411   4.224   4.039  0.9995 -0.1364  1.1018
13454TIP3    H261854   4.407   4.078   4.079  0.8519 -0.0182  1.5280
13455TIP3   OH261855   0.510   4.961  14.125 -0.4532 -0.2278  0.0394
13455TIP3    H161856   0.510   4.946  14.219  0.9013 -1.0646 -0.0760
13455TIP3    H261857   0.597   4.996  14.106 -0.8989  0.4534 -0.8354
13456TIP3   OH261858   3.282   6.579   3.945  0.1802  0.0386  0.0765
13456TIP3    H161859   3.272   6.510   4.010  0.3695  0.4563  0.5513
13456TIP3    H261860   3.247   6.658   3.987 -2.2222 -0.1959 -1.2651
13457TIP3   OH261861   2.316   0.838  14.986 -0.4505  0.1175 -0.3005
13457TIP3    H161862   2.297   0.777  14.914  0.2442  0.0803 -0.4565
13457TIP3    H261863   2.305   0.925  14.947  0.7782  0.1106 -0.7069
13458TIP3   OH261864   2.216   4.112  12.010  0.1752 -0.1152 -0.3048
13458TIP3    H161865   2.154   4.074  12.072  0.8674 -1.0598 -0.1762
13458TIP3    H261866   2.232   4.201  12.043 -0.4471 -0.1626  0.1338
13459TIP3   OH261867   1.025   3.702  15.882  0.0677  0.3662 -0.6069
13459TIP3    H161868   0.971   3.764  15.931 -1.9095  1.9487 -4.4076
13459TIP3    H261869   0.979   3.618  15.890  0.7452  0.1384  1.5134
13460TIP3   OH261870   6.148   4.431  15.283 -0.7095 -0.2129  0.8427
13460TIP3    H161871   6.157   4.340  15.255 -0.0416 -0.2638  1.1860
13460TIP3    H261872   6.144   4.481  15.201  0.0013 -0.4654  0.6405
13461TIP3   OH261873   1.708   6.745  11.502  0.3488  0.2148 -0.1688
13461TIP3    H161874   1.727   6.706  11.587  3.4462 -1.9059 -1.6435
13461TIP3    H261875   1.649   6.683  11.460 -0.5459  0.8694  0.0789
13462TIP3   OH261876   1.702   6.227   3.025  0.0407  0.3089 -0.3934
13462TIP3    H161877   1.740   6.296   3.080  0.8137  0.2847 -0.8806
13462TIP3    H261878   1.669   6.274   2.948 -0.2284  0.2349 -0.3244
13463TIP3   OH261879   4.980   2.087  12.239  0.2741  1.0824 -0.1385
13463TIP3    H161880   5.075   2.096  12.234  0.1747  2.1167 -0.5420
13463TIP3    H261881   4.953   2.062  12.151  0.0509  2.3231 -0.4462
13464TIP3   OH261882   3.471   5.050  14.426  0.2361 -0.1385 -0.4434
13464TIP3    H161883   3.497   5.131  14.469 -1.2581  0.7146 -1.0519
13464TIP3    H261884   3.377   5.043  14.443 -0.0761 -0.6187 -2.1879
13465TIP3   OH261885   3.117   3.604   1.248 -0.5501  0.2842  0.6663
13465TIP3    H161886   3.188   3.668   1.237  0.1969 -0.9556 -3.6107
13465TIP3    H261887   3.043   3.643   1.201 -1.0046 -0.6795  0.5608
13466TIP3   OH261888   6.185   6.229   4.436  0.2483  0.4316 -0.9235
13466TIP3    H161889   6.095   6.200   4.422 -0.6697  1.7605  1.6252
13466TIP3    H261890   6.209   6.193   4.521  0.8416  2.8505  0.0173
13467TIP3   OH261891   3.884   4.371  12.822 -0.4020  0.4108  0.2627
13467TIP3    H161892   3.804   4.328  12.794  0.8452 -2.5300  0.8128
13467TIP3    H261893   3.856   4.433  12.890 -2.0898 -1.8506  1.7824
13468TIP3   OH261894   5.285   3.370   3.971 -0.4814 -0.1175  0.1258
13468TIP3    H161895   5.251   3.398   4.056 -1.8865 -1.0733 -0.0829
13468TIP3    H261896   5.289   3.274   3.976 -0.1221 -0.1611 -0.7098
13469TIP3   OH261897   2.229   6.514  10.515  0.1634  0.4186  0.0708
13469TIP3    H161898   2.201   6.581  10.578 -0.8123 -0.0605  0.1588
13469TIP3    H261899   2.264   6.565  10.442  1.1426  0.9873  0.9066
13470TIP3   OH261900   6.673   5.206   2.567 -0.3898 -0.1812  0.4346
13470TIP3    H161901   6.748   5.161   2.604  1.7906  1.4076 -1.7390
13470TIP3    H261902   6.708   5.255   2.492 -3.9403 -0.9323 -1.9860
13471TIP3   OH261903   5.355   3.136  11.912 -0.0580 -1.1834 -0.0416
13471TIP3    H161904   5.271   3.156  11.954  0.0889  0.8304 -0.6033
13471TIP3    H261905   5.334   3.126  11.819  0.2040 -1.5386 -0.0636
13472TIP3   OH261906   4.754   6.100   0.521 -0.0509 -0.1034  0.0305
13472TIP3    H161907   4.780   6.009   0.510 -1.0447 -0.2465 -1.5121
13472TIP3    H261908   4.739   6.132   0.432 -0.2545  1.4048  0.5694
13473TIP3   OH261909   0.401   0.273   3.234  0.1553  0.0686 -0.1664
13473TIP3    H161910   0.411   0.350   3.179 -1.5416 -0.0071 -0.6302
13473TIP3    H261911   0.382   0.307   3.321 -0.7708  0.1856 -0.4083
13474TIP3   OH261912   2.619   4.685   1.977  0.2673  0.3328 -0.0143
13474TIP3    H161913   2.560   4.617   1.944  0.7690 -0.2746  0.2947
13474TIP3    H261914   2.566   4.737   2.037  0.0357 -0.1825  0.2321
13475TIP3   OH261915   4.503   6.352   2.904  0.4548 -0.2119  0.0572
13475TIP3    H161916   4.485   6.259   2.893  1.1175 -0.3730  0.2824
13475TIP3    H261917   4.571   6.371   2.839  0.9192 -0.0819  0.5663
13476TIP3   OH261918   5.536   3.420  14.230 -0.4477 -1.1111  1.0507
13476TIP3    H161919   5.551   3.499  14.180  0.4235 -1.4759  0.7091
13476TIP3    H261920   5.445   3.396  14.212  0.2694 -2.1701 -1.7654
13477TIP3   OH261921   6.393   6.164   5.452 -0.1136  0.3936 -0.1190
13477TIP3    H161922   6.468   6.173   5.393  1.1299 -0.4708  1.2669
13477TIP3    H261923   6.423   6.203   5.534  0.0033 -2.6136  1.3985
13478TIP3   OH261924   1.389   6.361   3.167 -0.6576 -0.4130  0.1505
13478TIP3    H161925   1.405   6.449   3.132 -2.7562 -0.0338 -0.0208
13478TIP3    H261926   1.389   6.373   3.262 -1.1280 -0.1740  0.1240
13479TIP3   OH261927   3.442   5.652   6.395  0.0072 -0.1924  0.2352
13479TIP3    H161928   3.527   5.611   6.378  0.4596  0.2599  1.3831
13479TIP3    H261929   3.386   5.579   6.422  0.2916 -0.3507  0.4031
13480TIP3   OH261930   5.541   2.428   2.348  0.3558 -0.0801 -0.1360
13480TIP3    H161931   5.571   2.407   2.437 -1.3237 -0.6190  0.3438
13480TIP3    H261932   5.562   2.351   2.296  0.4898 -0.1351 -0.0015
13481TIP3   OH261933   2.724   2.550   6.351  0.3518  0.0027 -0.3689
13481TIP3    H161934   2.725   2.583   6.441  0.3633 -1.9862  0.3947
13481TIP3    H261935   2.641   2.582   6.315  0.5002  1.0958  0.2081
13482TIP3   OH261936   0.340   4.182  16.209  0.7444  0.5363  0.0458
13482TIP3    H161937   0.385   4.265  16.226  2.1743  0.8800 -4.2760
13482TIP3    H261938   0.256   4.208  16.171  0.1165 -0.0764  0.9695
13483TIP3   OH261939   5.836   5.619  15.678 -0.0350  0.1999 -0.4832
13483TIP3    H161940   5.871   5.531  15.693 -0.0675  0.4455  1.3601
13483TIP3    H261941   5.862   5.641  15.589  0.2253 -1.5535 -0.8812
13484TIP3   OH261942   3.536   5.177  12.608  0.0470 -0.8994 -0.0552
13484TIP3    H161943   3.462   5.154  12.665  1.0235 -0.5597  1.3926
13484TIP3    H261944   3.546   5.272  12.618  0.7325 -0.9529 -0.1880
13485TIP3   OH261945   1.718   5.246  13.358  0.0337 -0.2143  0.0541
13485TIP3    H161946   1.716   5.172  13.298  1.5298  0.0825 -0.4145
13485TIP3    H261947   1.809   5.276  13.356 -0.8991  2.9029 -1.3139
13486TIP3   OH261948   2.601   0.891  13.888  0.3921  0.2353  0.0098
13486TIP3    H161949   2.695   0.901  13.871  0.5095  0.7243  0.8833
13486TIP3    H261950   2.595   0.810  13.939  0.3913  0.4385  0.3334
13487TIP3   OH261951   2.485   0.893   2.224  0.6321  0.5014  0.1308
13487TIP3    H161952   2.413   0.857   2.172  0.3643 -0.0655  0.8691
13487TIP3    H261953   2.554   0.912   2.161 -0.3547  1.5573 -0.6594
13488TIP3   OH261954   2.599   0.837   2.891  0.1983 -0.2919  0.2426
13488TIP3    H161955   2.694   0.824   2.895  0.5127  1.2059 -0.9780
13488TIP3    H261956   2.587   0.896   2.816 -1.3907  2.0463  2.1687
13489TIP3   OH261957   1.638   2.446   5.232  0.1959  0.2271 -0.3071
13489TIP3    H161958   1.581   2.515   5.197  0.4868  0.6923  0.1124
13489TIP3    H261959   1.718   2.492   5.257 -0.1723  0.0079  1.4059
13490TIP3   OH261960   6.254   2.099  12.831  0.1110 -0.2895 -0.6987
13490TIP3    H161961   6.259   2.066  12.921 -0.0340  2.4787  0.4233
13490TIP3    H261962   6.165   2.136  12.825  0.7794  1.3240 -1.2536
13491TIP3   OH261963   4.862   6.174   2.387  0.4805  0.2090  0.5093
13491TIP3    H161964   4.921   6.192   2.314  0.1925 -1.7335 -0.2659
13491TIP3    H261965   4.805   6.104   2.355 -0.4535  0.1519  2.1836
13492TIP3   OH261966   1.799   4.014   0.873  0.1777 -0.3367 -0.1062
13492TIP3    H161967   1.745   4.078   0.826  1.8639  0.0778 -1.6017
13492TIP3    H261968   1.879   4.008   0.821  2.2471  0.2227  2.7828
13493TIP3   OH261969   5.373   1.429  16.311 -0.0663 -0.2386  0.4646
13493TIP3    H161970   5.396   1.453  16.401 -1.2616  0.3904  0.6182
13493TIP3    H261971   5.458   1.419  16.267  0.5265 -0.1285  1.5420
13494TIP3   OH261972   3.571   3.550   5.089  0.0510  0.2279  0.1045
13494TIP3    H161973   3.633   3.482   5.064 -0.7899  0.2809 -2.5299
13494TIP3    H261974   3.574   3.552   5.184  1.2084 -2.4419  0.2235
13495TIP3   OH261975   5.995   2.439  13.403 -0.7530  0.4240 -0.1867
13495TIP3    H161976   5.985   2.399  13.317  0.7625 -0.4026 -0.0307
13495TIP3    H261977   6.082   2.410  13.432 -1.3316  0.4727  1.7262
13496TIP3   OH261978   2.045   2.656  10.619 -0.8545  0.0646  0.0972
13496TIP3    H161979   1.950   2.661  10.618 -0.8533  0.3039  0.7585
13496TIP3    H261980   2.068   2.610  10.538 -1.4596  1.2864 -0.8130
13497TIP3   OH261981   2.070   3.532  10.133 -0.6041 -0.1336  0.0483
13497TIP3    H161982   1.990   3.551  10.182 -1.3126  0.7960 -1.4090
13497TIP3    H261983   2.112   3.461  10.182 -0.3467  1.8834  3.0263
13498TIP3   OH261984   0.517   3.332   6.263  0.5511 -0.2601 -0.4409
13498TIP3    H161985   0.602   3.375   6.273 -0.1342  1.1907 -0.5768
13498TIP3    H261986   0.497   3.300   6.351  0.6763  0.4911 -0.1322
13499TIP3   OH261987   3.447   1.699   3.871  0.0506 -0.0628  0.2830
13499TIP3    H161988   3.354   1.713   3.888 -0.0310  2.7959 -1.7530
13499TIP3    H261989   3.474   1.635   3.936 -3.4912 -1.6140  0.4651
13500TIP3   OH261990   2.466   0.587   0.111  0.5624  0.7677  0.0681
13500TIP3    H161991   2.405   0.562   0.042  0.2172  0.8767  0.3350
13500TIP3    H261992   2.512   0.663   0.075  1.4527 -0.0816 -0.6532
13501TIP3   OH261993   1.378   5.814   5.975 -0.2642 -0.0662  0.1113
13501TIP3    H161994   1.457   5.775   5.937  0.1528  1.6165 -0.8714
13501TIP3    H261995   1.390   5.909   5.962 -1.9028  0.2936  1.0212
13502TIP3   OH261996   6.850   2.191  13.657 -0.2016  0.2899  0.0147
13502TIP3    H161997   6.769   2.157  13.619 -1.0006 -0.3764  2.1348
13502TIP3    H261998   6.912   2.193  13.584 -2.1264  0.9444 -1.7136
13503TIP3   OH261999   2.471   5.364  11.616 -0.0930 -0.5780  0.4792
13503TIP3    H162000   2.493   5.457  11.607  2.7699 -1.1385  0.5619
13503TIP3    H262001   2.398   5.350  11.556 -1.7723  2.0373  1.7586
13504TIP3   OH262002   0.152   6.248   3.414 -0.3570 -0.3482 -0.8964
13504TIP3    H162003   0.189   6.321   3.364  2.1537 -1.0274 -0.2064
13504TIP3    H262004   0.124   6.185   3.348 -0.9656  0.4940 -1.4678
13505TIP3   OH262005   2.351   2.772  13.640  0.2259 -0.3285  0.0550
13505TIP3    H162006   2.418   2.824  13.595 -0.2831 -1.4421 -2.1084
13505TIP3    H262007   2.286   2.753  13.572 -0.0408 -3.0479  0.9610
13506TIP3   OH262008   6.113   0.746  16.893 -0.3987  0.0072  0.0193
13506TIP3    H162009   6.091   0.837  16.872 -0.5803 -0.0723 -0.1295
13506TIP3    H262010   6.186   0.753  16.955  0.8209  0.2197 -1.4090
13507TIP3   OH262011   0.808   1.360  10.778  0.7106 -0.3171 -0.7422
13507TIP3    H162012   0.856   1.383  10.859  0.8893  1.3674 -1.2788
13507TIP3    H262013   0.726   1.321  10.809  1.5089 -1.3080  0.2192
13508TIP3   OH262014   3.585   5.541   2.814  0.2941 -0.1293  0.2518
13508TIP3    H162015   3.652   5.584   2.760  0.0772 -1.5043 -1.1834
13508TIP3    H262016   3.585   5.591   2.895  1.4935  1.2818 -0.5517
13509TIP3   OH262017   0.913   2.548   2.580  0.5084  0.5352  0.0012
13509TIP3    H162018   0.925   2.642   2.592  2.8767  0.3841 -0.6937
13509TIP3    H262019   0.964   2.528   2.501 -1.7135 -1.0029 -1.1514
13510TIP3   OH262020   5.177   2.695   1.080  0.4148  0.4095 -0.2572
13510TIP3    H162021   5.125   2.631   1.031  1.5165 -0.8798  0.1750
13510TIP3    H262022   5.193   2.766   1.018  0.4954 -0.4793 -1.2858
13511TIP3   OH262023   0.294   3.505  11.852  0.0956  0.0653 -0.1286
13511TIP3    H162024   0.227   3.439  11.863  0.2559 -0.5378 -2.2542
13511TIP3    H262025   0.246   3.585  11.829 -0.0431  0.4949  1.5472
13512TIP3   OH262026   0.060   2.825  16.222 -0.3153  0.7584 -0.3395
13512TIP3    H162027   0.037   2.914  16.194 -1.4680  0.6509  0.1860
13512TIP3    H262028   0.008   2.811  16.302 -0.2327 -0.4267 -0.4758
13513TIP3   OH262029   3.404   6.439  15.760 -0.2763  0.0083 -0.5605
13513TIP3    H162030   3.461   6.401  15.693  0.1847  0.3843 -0.3871
13513TIP3    H262031   3.394   6.369  15.825  0.1614  0.0075 -0.4887
13514TIP3   OH262032   4.399   6.267   4.465 -0.1905  0.3740 -0.5447
13514TIP3    H162033   4.389   6.295   4.374  2.6903  1.8832 -0.4817
13514TIP3    H262034   4.462   6.328   4.503 -2.6581  1.0023  3.0676
13515TIP3   OH262035   1.593   4.513   5.796 -0.2308 -0.0710 -0.3835
13515TIP3    H162036   1.545   4.431   5.801 -1.3220  0.5903  0.4321
13515TIP3    H262037   1.679   4.494   5.836 -0.4283 -0.8376 -0.3205
13516TIP3   OH262038   4.590   1.161   0.602  0.2042  0.2430  0.1615
13516TIP3    H162039   4.524   1.192   0.664 -1.0050 -0.2413 -0.8579
13516TIP3    H262040   4.540   1.120   0.532  1.6206 -0.6782 -0.3440
13517TIP3   OH262041   1.782   2.612  15.181 -0.6161  0.1613  0.2384
13517TIP3    H162042   1.718   2.666  15.136 -1.3265  1.0565  2.2083
13517TIP3    H262043   1.753   2.522  15.166  0.2312  0.2814 -2.5664
13518TIP3   OH262044   5.135   3.687  14.970  0.1659 -0.1966  0.0876
13518TIP3    H162045   5.170   3.751  15.033 -0.0542  0.1977 -0.1889
13518TIP3    H262046   5.092   3.621  15.024 -0.2655  0.2873  0.3372
13519TIP3   OH262047   5.600   4.465   3.331  0.1518  0.1799 -0.3551
13519TIP3    H162048   5.616   4.540   3.273 -1.2442 -0.5189 -1.7305
13519TIP3    H262049   5.619   4.388   3.277  0.8824 -0.4890  0.8147
13520TIP3   OH262050   0.241   1.217  12.506 -0.5337  0.7004  0.0108
13520TIP3    H162051   0.225   1.123  12.502 -0.3562  0.5745  1.6780
13520TIP3    H262052   0.310   1.232  12.441 -1.3652 -0.1096 -1.0960
13521TIP3   OH262053   5.132   2.765   2.456  0.3459 -0.6538  0.2117
13521TIP3    H162054   5.127   2.786   2.549 -0.8929 -3.7813  0.9787
13521TIP3    H262055   5.184   2.685   2.452 -2.1296 -2.3368 -1.3659
13522TIP3   OH262056   6.801   5.516  16.377  0.5915  0.6150 -0.0066
13522TIP3    H162057   6.857   5.593  16.364 -0.6625  1.4154 -0.8491
13522TIP3    H262058   6.837   5.450  16.317  0.6266  1.1288 -0.5616
13523TIP3   OH262059   6.073   5.873   2.110 -0.0297 -0.5759  0.1099
13523TIP3    H162060   6.081   5.967   2.123 -0.6239 -0.3616 -0.9345
13523TIP3    H262061   6.043   5.864   2.019 -1.4153 -1.7099  0.6447
13524TIP3   OH262062   1.864   6.286   1.091  0.3277 -0.4210 -0.1387
13524TIP3    H162063   1.845   6.195   1.066 -0.1169 -0.2225 -0.5180
13524TIP3    H262064   1.846   6.337   1.013 -2.2421  0.3639  0.8699
13525TIP3   OH262065   2.349   2.607   0.202  0.0865 -0.4515  0.4766
13525TIP3    H162066   2.379   2.663   0.274  2.0635  0.2672 -0.8338
13525TIP3    H262067   2.264   2.644   0.177  1.4095  2.2445 -0.4817
13526TIP3   OH262068   1.051   5.171  15.814  0.2380 -0.3007  0.4429
13526TIP3    H162069   1.063   5.110  15.887  0.2250  0.4278  1.0604
13526TIP3    H262070   1.079   5.121  15.737  0.6646 -0.9352  0.9924
13527TIP3   OH262071   4.811   1.811  16.766  0.1450  0.1383  0.2195
13527TIP3    H162072   4.755   1.851  16.833 -1.3047  0.3836 -1.0598
13527TIP3    H262073   4.870   1.881  16.739  0.9676 -0.0568  1.4370
13528TIP3   OH262074   5.562   0.393   0.463  0.0923 -0.1449 -0.0960
13528TIP3    H162075   5.531   0.342   0.537 -0.0503 -1.8065 -1.2368
13528TIP3    H262076   5.497   0.461   0.451 -1.3018 -1.4517 -0.2762
13529TIP3   OH262077   5.513   0.016  12.133 -0.2087 -0.0501  0.1503
13529TIP3    H162078   5.557   0.101  12.127  0.0074 -0.0368  1.5669
13529TIP3    H262079   5.425   0.037  12.165 -0.2214 -0.3394  0.3053
13530TIP3   OH262080   0.068   6.686   1.218  0.1018  0.0417  0.1146
13530TIP3    H162081   0.139   6.749   1.205 -0.2185  0.2990 -0.4180
13530TIP3    H262082   0.014   6.694   1.140 -0.2518 -0.5002  0.2962
13531TIP3   OH262083   1.354   0.129  11.118  0.8969 -0.0569  0.0766
13531TIP3    H162084   1.372   0.183  11.041  1.6922  0.2485  0.4642
13531TIP3    H262085   1.380   0.184  11.192 -2.0373  0.6153  0.7655
13532TIP3   OH262086   3.148   0.780  14.622 -0.3215 -0.2557 -0.7083
13532TIP3    H162087   3.080   0.714  14.607 -0.6350 -0.8910  2.6179
13532TIP3    H262088   3.119   0.827  14.701  2.2392  0.5989 -0.1615
13533TIP3   OH262089   2.980   1.719   2.229 -0.2213 -0.0401 -0.2321
13533TIP3    H162090   2.967   1.768   2.310  0.3432 -0.9622  0.4325
13533TIP3    H262091   2.913   1.753   2.170 -0.0162  1.3365  0.2829
13534TIP3   OH262092   2.764   6.022   4.651 -0.4521  0.4011  0.1428
13534TIP3    H162093   2.818   5.994   4.576 -0.4197 -0.6937  0.5518
13534TIP3    H262094   2.722   6.102   4.621  2.0615  1.8290  0.0996
13535TIP3   OH262095   2.397   0.167  13.994  0.4177 -0.4799 -0.2072
13535TIP3    H162096   2.414   0.261  14.000 -0.3468 -0.4167  1.8235
13535TIP3    H262097   2.484   0.127  13.993  0.7572  0.2250 -1.4092
13536TIP3   OH262098   3.272   5.837   0.308  0.2960  0.2088 -0.1439
13536TIP3    H162099   3.182   5.865   0.319  0.4973  0.1151  2.2770
13536TIP3    H262100   3.289   5.847   0.214 -1.8231  1.3829 -0.4666
13537TIP3   OH262101   5.453   2.417  13.040  0.4502 -0.1500  0.4230
13537TIP3    H162102   5.529   2.418  13.098 -0.0761  1.1109  1.1242
13537TIP3    H262103   5.441   2.324  13.019  1.2545 -0.5341  1.5339
13538TIP3   OH262104   3.791   1.820   2.376 -0.1765 -0.3982  0.2439
13538TIP3    H162105   3.802   1.809   2.471  0.7267  0.1456  0.2079
13538TIP3    H262106   3.772   1.732   2.344  0.1724 -0.6997  0.8419
13539TIP3   OH262107   4.825   2.609   0.857 -0.2533  0.4891 -0.2681
13539TIP3    H162108   4.814   2.676   0.790 -0.7222  0.0096 -0.6873
13539TIP3    H262109   4.919   2.590   0.856 -0.2404  0.5547 -0.7304
13540TIP3   OH262110   5.018   3.922   2.655 -0.1378  0.0548  0.1390
13540TIP3    H162111   5.009   3.828   2.646 -0.4050 -0.1719  2.2601
13540TIP3    H262112   4.957   3.959   2.590 -0.9533 -1.2349  0.1543
13541TIP3   OH262113   1.576   5.020   5.458  0.0756 -0.4680  0.0337
13541TIP3    H162114   1.508   5.022   5.392  0.9896 -0.8052 -0.9542
13541TIP3    H262115   1.621   4.936   5.444 -0.5916 -1.2333  2.0173
13542TIP3   OH262116   4.340   2.841   0.155  0.1043 -0.1335  0.0416
13542TIP3    H162117   4.250   2.869   0.172  0.2289 -0.1710  0.8211
13542TIP3    H262118   4.385   2.857   0.238  0.8748  0.1130 -0.4243
13543TIP3   OH262119   3.841   4.470   5.322 -0.1319 -0.1199 -0.2122
13543TIP3    H162120   3.911   4.529   5.350  0.1832 -0.7153  0.2641
13543TIP3    H262121   3.873   4.382   5.343 -0.6628 -0.4593 -0.7695
13544TIP3   OH262122   2.750   0.209  16.897 -0.0767 -0.4069  0.1709
13544TIP3    H162123   2.654   0.209  16.903 -0.0152 -0.7659  1.2206
13544TIP3    H262124   2.774   0.117  16.907  0.3154 -0.5512 -1.6193
13545TIP3   OH262125   6.592   4.695   3.165 -0.8170 -0.0526 -0.5187
13545TIP3    H162126   6.605   4.782   3.204 -0.6016 -0.4430  0.2852
13545TIP3    H262127   6.680   4.658   3.159 -1.0036 -0.5870  0.0073
13546TIP3   OH262128   5.370   0.572   4.820 -0.4634  0.0908 -0.0593
13546TIP3    H162129   5.300   0.604   4.763 -0.3364  1.4927  0.5310
13546TIP3    H262130   5.355   0.477   4.825 -2.6765  0.3944  0.4827
13547TIP3   OH262131   1.788   2.965   2.193 -0.2749  0.5112  0.0961
13547TIP3    H162132   1.700   2.926   2.187 -0.6038  1.4280 -1.7875
13547TIP3    H262133   1.789   3.007   2.279 -2.7297  2.7313 -0.8081
13548TIP3   OH262134   1.891   3.848   3.911  0.0448 -0.1385 -0.1068
13548TIP3    H162135   1.834   3.919   3.938  2.9557  2.3509  0.0389
13548TIP3    H262136   1.874   3.838   3.817 -1.3831 -0.2639  0.1472
13549TIP3   OH262137   3.103   2.190   2.331 -0.3676  0.2838  0.2565
13549TIP3    H162138   3.190   2.227   2.346 -0.3670 -0.0577  1.1770
13549TIP3    H262139   3.086   2.204   2.238  0.6965  0.2950  0.0614
13550TIP3   OH262140   4.344   1.181   1.710  0.0714  0.4369  0.2022
13550TIP3    H162141   4.408   1.117   1.739  0.0756  0.1519 -0.4090
13550TIP3    H262142   4.394   1.262   1.699  0.2602  0.3024  0.0637
13551TIP3   OH262143   0.559   0.585   2.646 -0.4235 -0.2300 -0.0898
13551TIP3    H162144   0.509   0.542   2.715 -0.9913  1.4833  0.6023
13551TIP3    H262145   0.541   0.678   2.657  1.6876  0.3131 -0.8083
13552TIP3   OH262146   1.446   5.109   5.716  0.0364 -0.2114  0.2603
13552TIP3    H162147   1.436   5.067   5.631 -0.8267 -0.2437  0.3759
13552TIP3    H262148   1.504   5.183   5.699 -0.0886 -0.2469 -0.3446
13553TIP3   OH262149   3.155   0.920  15.370  0.6902  0.1014 -0.3463
13553TIP3    H162150   3.221   0.859  15.335  0.0616 -0.6226 -0.3015
13553TIP3    H262151   3.195   1.006  15.362  1.4845 -0.2911 -0.6910
13554TIP3   OH262152   1.452   4.616  11.500 -0.2537 -0.4677  0.2430
13554TIP3    H162153   1.409   4.683  11.553  1.6900  0.2291  1.0419
13554TIP3    H262154   1.512   4.665  11.443 -0.5384 -1.3862 -0.8954
13555TIP3   OH262155   4.425   6.852   4.196 -0.5174 -0.1734  0.4581
13555TIP3    H162156   4.409   6.911   4.270 -0.0036 -0.1474  0.5574
13555TIP3    H262157   4.385   6.896   4.121 -0.0201  0.3723  0.5043
13556TIP3   OH262158   4.480   5.919  14.590 -0.3069  0.1299 -0.2223
13556TIP3    H162159   4.538   5.893  14.518  0.7524 -0.6261  0.8646
13556TIP3    H262160   4.392   5.903  14.556  0.1616 -0.1677 -1.3666
13557TIP3   OH262161   6.179   4.392  11.799 -0.2058  0.4263  0.2916
13557TIP3    H162162   6.095   4.348  11.794  0.0069  0.0638 -0.1896
13557TIP3    H262163   6.189   4.415  11.892 -0.5653 -0.0539  0.4516
13558TIP3   OH262164   3.439   6.790  12.102 -0.4268 -0.1149 -0.5002
13558TIP3    H162165   3.456   6.765  12.011 -0.1073 -2.0742  0.0531
13558TIP3    H262166   3.354   6.833  12.100  0.2306  1.2176 -1.9184
13559TIP3   OH262167   1.699   0.966  16.779 -0.0925  0.0831  0.0840
13559TIP3    H162168   1.746   0.884  16.769  1.1925  0.7868  0.1373
13559TIP3    H262169   1.719   1.015  16.699 -1.4923  0.0436 -0.3080
13560TIP3   OH262170   2.427   1.261   5.524 -0.3322  0.4709 -0.1940
13560TIP3    H162171   2.472   1.177   5.520 -0.0532  0.6459 -0.9417
13560TIP3    H262172   2.372   1.256   5.602 -2.0293 -1.2567 -1.4269
13561TIP3   OH262173   6.795   3.044  14.873  0.1670  0.1662  0.3811
13561TIP3    H162174   6.817   2.955  14.846 -1.8273  0.3342 -2.2653
13561TIP3    H262175   6.741   3.033  14.951  0.2498 -0.9205  0.3045
13562TIP3   OH262176   6.833   0.766   2.629 -0.2206  0.5505  0.4588
13562TIP3    H162177   6.879   0.766   2.713 -1.0590 -1.1735  0.9563
13562TIP3    H262178   6.742   0.785   2.651 -0.8147 -1.7570  0.2352
13563TIP3   OH262179   6.726   4.421   2.624  0.4643 -0.2713 -0.7294
13563TIP3    H162180   6.811   4.431   2.582 -0.3919 -1.0768 -2.7855
13563TIP3    H262181   6.706   4.327   2.616 -1.4255  0.1921 -2.0063
13564TIP3   OH262182   0.450   0.639  15.651 -0.0855 -0.0199 -0.1572
13564TIP3    H162183   0.512   0.591  15.707  0.1921  0.6725  0.1377
13564TIP3    H262184   0.420   0.574  15.588  0.8766 -0.3945 -0.2495
13565TIP3   OH262185   6.215   0.492  11.573 -0.2046  0.0760 -0.1740
13565TIP3    H162186   6.207   0.407  11.617  1.4536  0.0231  0.0891
13565TIP3    H262187   6.226   0.555  11.644  1.9518  0.0570 -0.4310
13566TIP3   OH262188   0.804   6.156  16.315 -0.2491  0.5188 -0.4126
13566TIP3    H162189   0.898   6.173  16.311 -0.3271  0.9206 -0.5354
13566TIP3    H262190   0.780   6.171  16.407 -0.3204  1.0923 -0.5222
13567TIP3   OH262191   5.245   3.910  15.076  0.4924  0.6330  0.1329
13567TIP3    H162192   5.324   3.960  15.057  0.2875  0.7178 -0.5356
13567TIP3    H262193   5.239   3.910  15.172  1.0460  1.0168  0.1740
13568TIP3   OH262194   5.362   5.400   4.467 -0.3594 -0.1981  0.2011
13568TIP3    H162195   5.307   5.328   4.496  0.0257 -0.0635  1.3414
13568TIP3    H262196   5.320   5.478   4.504  1.5370 -0.2447  2.7770
13569TIP3   OH262197   1.659   6.057   2.447  1.0820 -0.3773 -0.7283
13569TIP3    H162198   1.629   5.975   2.409  0.1607 -0.1235 -0.5673
13569TIP3    H262199   1.755   6.052   2.442  1.0177 -0.9387 -1.8134
13570TIP3   OH262200   6.176   1.518   3.985 -0.4738  0.1171 -0.5805
13570TIP3    H162201   6.264   1.531   4.018 -0.6429  2.2245 -0.8174
13570TIP3    H262202   6.167   1.423   3.976  3.5026 -0.2310 -5.1697
13571TIP3   OH262203   4.198   6.370   5.270 -0.5895 -0.1511 -0.2182
13571TIP3    H162204   4.239   6.355   5.355 -0.2971 -0.5589 -0.4279
13571TIP3    H262205   4.248   6.442   5.232 -0.4197 -0.2765 -0.2368
13572TIP3   OH262206   4.992   1.502   2.318  0.0178 -0.5273  0.0599
13572TIP3    H162207   4.923   1.562   2.290 -0.0964 -1.1275 -1.0018
13572TIP3    H262208   5.003   1.442   2.244  1.0111 -1.0322  0.5989
13573TIP3   OH262209   5.971   5.221  14.012  0.2835  0.6396  0.1712
13573TIP3    H162210   5.954   5.315  14.003 -0.6027  0.3877 -0.9676
13573TIP3    H262211   6.062   5.211  13.986  0.4322  1.1939  0.4458
13574TIP3   OH262212   3.604   5.430  12.118  0.1479 -0.2268 -0.1226
13574TIP3    H162213   3.521   5.398  12.155 -0.5071  0.2595 -1.1301
13574TIP3    H262214   3.619   5.513  12.162 -0.6983  0.4143 -1.0036
13575TIP3   OH262215   5.074   3.142  11.319  0.6020 -0.0303 -0.0287
13575TIP3    H162216   5.026   3.060  11.303  0.3469  0.2115 -0.5137
13575TIP3    H262217   5.119   3.127  11.402  2.0577 -1.3881 -0.9938
13576TIP3   OH262218   2.323   6.166   6.110 -0.0004  0.0007 -0.3652
13576TIP3    H162219   2.274   6.181   6.029  1.3924 -0.6924 -1.3921
13576TIP3    H262220   2.267   6.109   6.163 -0.2941 -0.8407 -1.5424
13577TIP3   OH262221   4.544   4.023   2.637 -0.1971 -0.4127  0.1228
13577TIP3    H162222   4.561   4.115   2.618  2.6213 -0.9839 -0.6513
13577TIP3    H262223   4.545   4.017   2.733 -2.3283  0.6040  0.2540
13578TIP3   OH262224   3.130   3.750  12.591  0.0131 -0.0920 -0.2495
13578TIP3    H162225   3.168   3.669  12.626 -1.4420 -0.9399 -0.5232
13578TIP3    H262226   3.096   3.725  12.505 -0.3792  0.8256 -0.3706
13579TIP3   OH262227   5.592   3.745   0.698 -0.2340  0.2226  0.6495
13579TIP3    H162228   5.519   3.749   0.636 -0.0756  0.5527  0.4816
13579TIP3    H262229   5.636   3.830   0.688 -0.0831  0.1932  1.0589
13580TIP3   OH262230   6.493   4.677   6.346 -0.1589  0.1770 -0.0246
13580TIP3    H162231   6.564   4.690   6.283  0.1672 -0.2476  0.2501
13580TIP3    H262232   6.538   4.667   6.430 -0.5296 -0.3764  0.1100
13581TIP3   OH262233   3.135   5.209   0.816  0.1797 -0.2175 -0.1485
13581TIP3    H162234   3.121   5.207   0.911 -1.6390  0.4876 -0.3591
13581TIP3    H262235   3.220   5.167   0.804  0.7105  0.1526  1.8324
13582TIP3   OH262236   0.604   2.602   0.158  0.1736 -0.7195 -0.4521
13582TIP3    H162237   0.569   2.691   0.166  1.5201 -0.1894 -0.1580
13582TIP3    H262238   0.690   2.613   0.119  1.2627 -1.6647  1.5123
13583TIP3   OH262239   1.282   0.149   2.678 -0.9011  0.2585  0.1852
13583TIP3    H162240   1.238   0.230   2.650 -0.7394  0.5630  0.7898
13583TIP3    H262241   1.374   0.172   2.683 -0.5376 -0.5694 -1.7427
13584TIP3   OH262242   5.802   1.903   5.050 -0.0845  0.5600 -0.1891
13584TIP3    H162243   5.714   1.932   5.074  0.4168  2.8646 -0.8900
13584TIP3    H262244   5.797   1.890   4.956 -0.2336 -1.6142  0.0756
13585TIP3   OH262245   5.944   6.179  11.572  0.9288  0.1129  0.7967
13585TIP3    H162246   5.867   6.131  11.603  0.0408 -0.2535 -1.7768
13585TIP3    H262247   6.004   6.180  11.647 -0.9815 -0.8405  2.4071
13586TIP3   OH262248   3.487   3.359  15.176  0.4902 -0.2663  0.0463
13586TIP3    H162249   3.426   3.298  15.217  2.7841 -1.1675  2.4670
13586TIP3    H262250   3.537   3.305  15.114 -1.2703  0.5570 -2.2649
13587TIP3   OH262251   4.725   2.406  13.394 -0.1549  0.2630 -0.2000
13587TIP3    H162252   4.712   2.354  13.315 -1.0121 -0.9268  0.6965
13587TIP3    H262253   4.643   2.398  13.443  0.9154 -0.4162  1.5934
13588TIP3   OH262254   4.340   0.931   5.620  0.7024  0.0979  0.4080
13588TIP3    H162255   4.291   1.014   5.621  1.2967  0.4575  1.4441
13588TIP3    H262256   4.363   0.916   5.712 -1.9827 -2.8281  0.7496
13589TIP3   OH262257   2.010   4.358  11.271  0.5150 -0.5306  0.2873
13589TIP3    H162258   2.014   4.454  11.270  0.5382 -0.5311 -0.5682
13589TIP3    H262259   1.960   4.337  11.350  2.3777  0.0981  1.7242
13590TIP3   OH262260   6.133   1.062   1.694  0.7937 -0.3316 -0.6537
13590TIP3    H162261   6.084   0.988   1.657 -0.8323  0.5060 -0.2459
13590TIP3    H262262   6.096   1.139   1.650  1.0881  0.4007  0.3573
13591TIP3   OH262263   1.440   4.320   3.620  0.1060 -0.2395 -0.3339
13591TIP3    H162264   1.525   4.357   3.643 -1.0381  2.2200  0.2897
13591TIP3    H262265   1.421   4.356   3.534  0.0704 -1.5415 -0.8942
13592TIP3   OH262266   3.358   3.369  16.647  0.3273 -0.3253 -0.2568
13592TIP3    H162267   3.397   3.452  16.675  0.9553  0.1478 -2.3096
13592TIP3    H262268   3.324   3.330  16.727 -0.4256  2.1298  0.7293
13593TIP3   OH262269   5.797   2.934   5.553 -0.4615 -0.1046  0.2569
13593TIP3    H162270   5.801   2.839   5.542  0.2205 -0.0449 -0.0741
13593TIP3    H262271   5.750   2.947   5.635 -0.8031 -0.7184  0.1660
13594TIP3   OH262272   3.155   5.556  16.058  0.2026 -0.0273  0.3455
13594TIP3    H162273   3.065   5.556  16.092  0.1051 -1.5718  0.1669
13594TIP3    H262274   3.195   5.478  16.096 -0.1565 -2.3929 -3.5746
13595TIP3   OH262275   6.682   6.288  13.379  0.6099 -0.5329 -0.2267
13595TIP3    H162276   6.615   6.306  13.444 -0.1276  1.1609 -1.3814
13595TIP3    H262277   6.634   6.277  13.297  1.7212  1.6802 -1.2684
13596TIP3   OH262278   1.531   3.963   1.719 -0.1766  0.0641  0.7185
13596TIP3    H162279   1.580   4.029   1.670 -1.4616  0.5446  0.0562
13596TIP3    H262280   1.509   4.006   1.802 -0.8849  0.4222  0.3478
13597TIP3   OH262281   2.352   2.484   4.439 -0.2055  0.3863  0.3622
13597TIP3    H162282   2.354   2.578   4.418  0.7239  0.5373  1.0638
13597TIP3    H262283   2.393   2.478   4.525  0.7702 -0.7884 -0.1591
13598TIP3   OH262284   0.584   1.391   2.765  0.3367  0.1748 -0.8031
13598TIP3    H162285   0.516   1.458   2.758  0.3324  0.2355 -0.2136
13598TIP3    H262286   0.552   1.319   2.711 -0.4394  0.0047 -0.1332
13599TIP3   OH262287   0.096   0.117   0.682 -0.1157  0.6588  0.3755
13599TIP3    H162288   0.103   0.025   0.656  2.2231  1.0073 -0.4498
13599TIP3    H262289   0.091   0.115   0.778  2.2735 -0.3192  0.5509
13600TIP3   OH262290   5.585   4.592  14.811 -0.4430  0.1650  0.4659
13600TIP3    H162291   5.658   4.586  14.872  0.0522  0.2541 -0.1086
13600TIP3    H262292   5.544   4.676  14.830  0.8788  1.0849 -0.6004
13601TIP3   OH262293   1.958   1.085  15.564 -0.3090  0.3927 -0.7712
13601TIP3    H162294   2.010   1.141  15.506 -1.4755  2.8496  0.4028
13601TIP3    H262295   2.019   1.055  15.630  0.0341  1.7296 -0.4560
13602TIP3   OH262296   4.594   0.420  15.128 -0.0151 -0.6534 -0.2586
13602TIP3    H162297   4.606   0.507  15.090 -0.9204 -1.1136 -1.6766
13602TIP3    H262298   4.648   0.362  15.075 -1.2863 -1.3065 -0.8904
13603TIP3   OH262299   3.908   4.389   4.009  0.1649  0.3022 -0.4834
13603TIP3    H162300   3.942   4.392   3.919  0.8854  1.4155 -0.1966
13603TIP3    H262301   3.947   4.466   4.052 -0.9936  0.3727  0.4932
13604TIP3   OH262302   4.668   2.464  12.877 -0.5565 -0.3770  0.7874
13604TIP3    H162303   4.692   2.386  12.926 -1.0271 -0.5263  0.7806
13604TIP3    H262304   4.624   2.431  12.799  1.4440 -0.2125 -0.4858
13605TIP3   OH262305   0.530   1.851   0.253  0.2073  0.5648 -0.0102
13605TIP3    H162306   0.471   1.796   0.304  0.1832  1.0270  0.4651
13605TIP3    H262307   0.611   1.854   0.304  0.3820  0.5663 -0.2804
13606TIP3   OH262308   4.191   4.911  17.040 -0.3123  0.1736  0.2629
13606TIP3    H162309   4.243   4.831  17.047 -1.9050 -1.1323 -1.5983
13606TIP3    H262310   4.100   4.882  17.048 -0.9941  1.5688 -1.5744
13607TIP3   OH262311   0.334   5.238  12.637  0.0032 -0.1411  0.7620
13607TIP3    H162312   0.347   5.332  12.629  2.3755 -0.0978  3.4708
13607TIP3    H262313   0.419   5.204  12.666 -0.9167 -3.0595  0.4157
13608TIP3   OH262314   6.312   5.817  13.458 -0.3426 -0.0500 -0.4037
13608TIP3    H162315   6.231   5.865  13.478 -0.9010 -0.8312 -0.7367
13608TIP3    H262316   6.381   5.867  13.501 -0.8225  1.4053 -1.2366
13609TIP3   OH262317   5.050   0.197  13.162  0.5566 -0.0494  0.5285
13609TIP3    H162318   5.074   0.248  13.240  0.6720  0.0318  0.4387
13609TIP3    H262319   5.121   0.134  13.151 -0.0189 -0.8334  1.1702
13610TIP3   OH262320   1.621   5.198   3.047  0.1967  0.0820 -0.7092
13610TIP3    H162321   1.685   5.231   3.110 -1.2129 -0.0238  0.8552
13610TIP3    H262322   1.570   5.274   3.022  0.2273 -0.0252 -1.1016
13611TIP3   OH262323   2.932   6.100   5.565 -0.3628  0.0432  0.6664
13611TIP3    H162324   2.949   6.026   5.507  2.0035  1.9336 -1.2770
13611TIP3    H262325   2.985   6.082   5.643 -1.4561 -1.2353  1.1480
13612TIP3   OH262326   6.322   3.824  15.589 -0.0552  0.5628  0.3266
13612TIP3    H162327   6.255   3.883  15.623 -2.0534 -0.6882 -1.1765
13612TIP3    H262328   6.303   3.740  15.631  0.3387  0.1058 -0.3921
13613TIP3   OH262329   0.198   3.962   1.811  0.5112  0.3011  0.0870
13613TIP3    H162330   0.196   4.009   1.895 -0.2201  1.5261 -0.5966
13613TIP3    H262331   0.127   4.000   1.760  0.4048 -1.0220 -0.7960
13614TIP3   OH262332   0.174   5.144   2.405 -0.5066 -0.9534 -0.4822
13614TIP3    H162333   0.240   5.172   2.343  0.5257  1.0481  1.3809
13614TIP3    H262334   0.091   5.149   2.357  0.3428 -0.3198 -1.9166
13615TIP3   OH262335   6.607   1.191  10.922 -0.2091  0.1745 -0.1939
13615TIP3    H162336   6.651   1.116  10.963  0.8314  0.8845  0.0295
13615TIP3    H262337   6.678   1.242  10.883 -0.9456  0.8301 -0.7086
13616TIP3   OH262338   6.405   5.180  16.490  0.5198  0.0175 -0.1408
13616TIP3    H162339   6.406   5.231  16.571  0.1443 -1.1688  0.6485
13616TIP3    H262340   6.426   5.243  16.421 -2.6650  1.9076  0.3926
13617TIP3   OH262341   4.750   4.809  11.817 -0.4141  0.6132  0.4176
13617TIP3    H162342   4.668   4.777  11.778  0.3950  0.3642 -1.1599
13617TIP3    H262343   4.767   4.892  11.773  1.2699 -0.3707 -0.9178
13618TIP3   OH262344   0.599   4.753   5.606  0.2102  0.1479 -0.1516
13618TIP3    H162345   0.608   4.757   5.701 -1.6955  1.1542  0.0500
13618TIP3    H262346   0.505   4.743   5.591  0.4324  0.3193 -1.9343
13619TIP3   OH262347   2.043   6.095  15.158  0.3613  0.3375  0.3333
13619TIP3    H162348   2.096   6.031  15.111  0.4066 -0.5241  1.5020
13619TIP3    H262349   1.976   6.043  15.202 -0.2426  1.2096  0.4760
13620TIP3   OH262350   3.805   1.192  12.585 -0.5505  0.0354 -0.3461
13620TIP3    H162351   3.747   1.269  12.585 -0.9359 -0.2511  0.0909
13620TIP3    H262352   3.745   1.117  12.585 -0.1845 -0.2805 -1.4990
13621TIP3   OH262353   0.959   4.460  17.034  0.3278 -0.4208  0.5382
13621TIP3    H162354   1.026   4.413  16.985  1.3626  0.9470  0.5835
13621TIP3    H262355   0.890   4.477  16.970  0.6702 -0.5843  0.1217
13622TIP3   OH262356   5.100   5.174  12.000  0.0960 -0.4731  0.0073
13622TIP3    H162357   5.146   5.207  12.077 -1.6755 -1.6377  1.6711
13622TIP3    H262358   5.032   5.117  12.035 -1.5021 -0.2134 -2.3730
13623TIP3   OH262359   3.295   1.325  13.695 -0.0154 -0.0855 -0.5778
13623TIP3    H162360   3.236   1.355  13.765  1.7837 -0.3851  1.1386
13623TIP3    H262361   3.353   1.263  13.737  2.8338  1.6291 -1.6766
13624TIP3   OH262362   0.573   1.180   1.535 -0.4975  0.0635 -0.1555
13624TIP3    H162363   0.517   1.215   1.466  1.2019 -0.0289 -1.6630
13624TIP3    H262364   0.660   1.215   1.516 -0.0009  0.2111  2.0931
13625TIP3   OH262365   3.041   0.319   4.352  0.0998  0.4923 -0.3443
13625TIP3    H162366   3.111   0.383   4.350  0.7206 -0.1886 -0.7436
13625TIP3    H262367   3.059   0.266   4.429 -1.3463  1.7892  0.9736
13626TIP3   OH262368   4.485   2.845  10.890 -0.2503  0.2995  0.4739
13626TIP3    H162369   4.449   2.889  10.812 -1.2156 -0.2273  0.6070
13626TIP3    H262370   4.516   2.917  10.945  1.3192  0.6463 -0.7844
13627TIP3   OH262371   5.980   4.828  12.352 -0.8172 -0.1030  0.2649
13627TIP3    H162372   5.972   4.888  12.426 -2.3413  1.2834 -0.9347
13627TIP3    H262373   5.985   4.885  12.276  0.2839 -1.4991 -0.7587
13628TIP3   OH262374   2.075   2.554   4.152  0.7005 -0.3078 -0.0900
13628TIP3    H162375   2.104   2.644   4.135  1.5061 -0.0118  2.5007
13628TIP3    H262376   2.155   2.505   4.170  0.0341 -0.3159  3.5160
13629TIP3   OH262377   6.500   5.415  14.232  0.2537 -0.1465  0.6699
13629TIP3    H162378   6.419   5.439  14.187  1.7135 -0.2898 -2.2912
13629TIP3    H262379   6.531   5.498  14.270 -0.5109  0.2132  0.5381
13630TIP3   OH262380   6.302   6.149   0.069 -0.4244  0.5763  0.1215
13630TIP3    H162381   6.379   6.100   0.039  0.0214  1.8958 -0.9938
13630TIP3    H262382   6.240   6.141  -0.004 -0.6661  0.9745  0.2837
13631TIP3   OH262383   2.432   4.990  11.212 -0.0634  0.1006 -0.2852
13631TIP3    H162384   2.418   4.909  11.261 -2.3121 -1.1703 -2.7490
13631TIP3    H262385   2.461   5.053  11.278 -0.0610 -2.1877  2.0833
13632TIP3   OH262386   6.438   5.013  14.388  0.2255 -0.1893 -0.3049
13632TIP3    H162387   6.483   5.078  14.443  0.2523  0.1287 -0.7048
13632TIP3    H262388   6.478   4.930  14.414  0.5531  0.0111 -0.1505
13633TIP3   OH262389   4.544   2.241  17.101 -0.3103  0.1508  0.5695
13633TIP3    H162390   4.471   2.303  17.104  0.5944  1.2147  2.6892
13633TIP3    H262391   4.616   2.287  17.144  1.7923 -0.6946 -1.8037
13634TIP3   OH262392   5.703   4.168   3.694  0.1476 -0.4027  0.5116
13634TIP3    H162393   5.773   4.102   3.695  3.7328  3.0661  1.4070
13634TIP3    H262394   5.693   4.189   3.601 -0.6034 -1.6870  0.2739
13635TIP3   OH262395   4.807   5.090  11.845  0.2189  0.2772 -0.3992
13635TIP3    H162396   4.745   5.052  11.907  1.7892 -0.1524  0.9784
13635TIP3    H262397   4.808   5.184  11.866  0.7418  0.1331  0.2432
13636TIP3   OH262398   0.726   5.560   3.575 -0.2082 -0.2831 -0.2372
13636TIP3    H162399   0.702   5.577   3.484  1.8865 -0.6242 -0.9034
13636TIP3    H262400   0.663   5.495   3.605 -0.3902 -0.8112 -1.7205
13637TIP3   OH262401   5.300   4.136  16.579  0.0662  0.3082  0.8835
13637TIP3    H162402   5.233   4.142  16.511 -0.7448  0.9085  1.7041
13637TIP3    H262403   5.267   4.068  16.639  0.7244 -0.1525  0.7313
13638TIP3   OH262404   1.235   0.155  11.373 -0.3208 -0.2260  0.0650
13638TIP3    H162405   1.274   0.093  11.312  1.9591  1.7114 -0.5984
13638TIP3    H262406   1.299   0.162  11.444 -0.3299  1.5553 -0.0503
13639TIP3   OH262407   6.497   1.641  13.931  0.5883 -0.2182 -0.0979
13639TIP3    H162408   6.514   1.735  13.942 -0.4725  0.0064 -0.2107
13639TIP3    H262409   6.583   1.602  13.918  1.0175  0.7882 -0.3622
13640TIP3   OH262410   4.998   0.381   0.602  0.2908 -0.2993  1.0497
13640TIP3    H162411   4.928   0.444   0.617  1.1133  1.1550 -0.8403
13640TIP3    H262412   4.959   0.314   0.546  0.2868  0.3129  0.3067
13641TIP3   OH262413   6.465   1.927   0.589 -1.4457  0.0450 -0.1343
13641TIP3    H162414   6.478   1.866   0.516 -1.0696 -0.9789  0.7636
13641TIP3    H262415   6.515   2.005   0.565  0.0183 -0.8962 -0.2494
13642TIP3   OH262416   6.792   4.764  14.793  0.1817  0.1155  0.0908
13642TIP3    H162417   6.858   4.790  14.728  0.7171 -1.1385  0.0972
13642TIP3    H262418   6.793   4.669  14.791 -0.0149  0.0489  1.7216
13643TIP3   OH262419   0.011   2.916  13.360 -0.6329  0.2456  0.4068
13643TIP3    H162420  -0.032   2.888  13.279 -0.3004 -0.7410  0.5496
13643TIP3    H262421  -0.000   2.842  13.420  0.5809  0.2786  0.7010
13644TIP3   OH262422   3.970   5.244   2.500 -0.1285  0.1767 -0.0582
13644TIP3    H162423   3.997   5.179   2.564 -0.2414  0.5126  0.3330
13644TIP3    H262424   4.019   5.221   2.420 -0.2877 -0.4771  0.0266
13645TIP3   OH262425   3.156   0.333  13.691  0.1273  0.1788  0.3087
13645TIP3    H162426   3.173   0.316  13.598  0.8574 -1.3309  0.6871
13645TIP3    H262427   3.076   0.285  13.711  0.2906  0.0131  0.5814
13646TIP3   OH262428   1.321   6.401  13.175  0.1202  0.3758  0.3921
13646TIP3    H162429   1.280   6.317  13.154  0.0307 -0.4281  3.2900
13646TIP3    H262430   1.248   6.461  13.191  0.0736 -0.0062  1.7612
13647TIP3   OH262431   0.720   0.347  11.967 -0.5438  0.1296  0.1279
13647TIP3    H162432   0.721   0.436  11.932 -0.1046  0.1122  0.0886
13647TIP3    H262433   0.759   0.355  12.054 -0.5139 -0.0198  0.1286
13648TIP3   OH262434   3.639   5.445   6.226 -0.1547  0.0601  0.1357
13648TIP3    H162435   3.672   5.521   6.178 -1.4546  1.1408  0.8662
13648TIP3    H262436   3.711   5.383   6.225  1.4141  1.7669  0.4861
13649TIP3   OH262437   5.339   3.997  14.497 -0.0275 -0.5840  0.1154
13649TIP3    H162438   5.346   4.092  14.484 -1.9074 -0.6981 -2.5147
13649TIP3    H262439   5.300   3.989  14.584  0.6538  1.0136  0.6192
13650TIP3   OH262440   0.477   2.016  16.156  0.0348  0.5332  0.2233
13650TIP3    H162441   0.563   2.059  16.157 -0.1326  1.7066 -5.1978
13650TIP3    H262442   0.495   1.929  16.120 -0.8256 -0.1434  1.3823
13651TIP3   OH262443   1.109   1.148   2.583  0.5484  0.1261 -0.1141
13651TIP3    H162444   1.017   1.122   2.589  0.6654 -0.2041  0.2259
13651TIP3    H262445   1.158   1.071   2.611  0.9341  0.2627 -0.4044
13652TIP3   OH262446   4.535   6.451   4.620  0.5962  0.5973  0.3278
13652TIP3    H162447   4.479   6.529   4.618  1.2182  1.0928 -2.7233
13652TIP3    H262448   4.619   6.483   4.653  1.0803  1.4915 -1.6104
13653TIP3   OH262449   3.078   3.176  13.529 -0.0834  0.5503 -0.6066
13653TIP3    H162450   3.068   3.140  13.617  1.2359  0.2611 -0.5438
13653TIP3    H262451   3.168   3.210  13.528 -0.1240  0.6643 -1.7999
13654TIP3   OH262452   3.695   6.028  16.530  0.1764 -0.0049  0.3623
13654TIP3    H162453   3.631   6.096  16.511  0.6195  0.3913  0.2453
13654TIP3    H262454   3.644   5.949  16.542 -0.4577  0.5815  1.7204
13655TIP3   OH262455   1.357   2.065   2.351  0.0874  0.0759 -0.0629
13655TIP3    H162456   1.354   2.053   2.256  0.2099 -0.2311 -0.0277
13655TIP3    H262457   1.369   1.977   2.386  0.0242  0.1867  0.2388
13656TIP3   OH262458   3.613   3.995  11.742  0.6701 -0.1755 -0.2546
13656TIP3    H162459   3.560   3.977  11.820  0.9507  0.9701  0.2247
13656TIP3    H262460   3.689   3.937  11.751 -0.1458 -1.3231 -0.5915
13657TIP3   OH262461   4.681   5.083   2.844  0.2399 -0.0279  0.2012
13657TIP3    H162462   4.753   5.083   2.907  0.6170 -2.3607 -0.1359
13657TIP3    H262463   4.701   5.011   2.784 -1.8387 -0.0703 -0.5333
13658TIP3   OH262464   6.184   5.532  15.823 -0.3293 -0.6716  0.3554
13658TIP3    H162465   6.120   5.490  15.881 -0.4967 -0.9744 -0.0410
13658TIP3    H262466   6.174   5.486  15.739 -1.7584  1.2782 -0.6313
13659TIP3   OH262467   1.528   1.381  11.253 -0.0508 -0.5035  0.1394
13659TIP3    H162468   1.598   1.445  11.270  0.5638 -1.3335  0.8560
13659TIP3    H262469   1.506   1.347  11.339 -1.2481 -0.3750 -0.1014
13660TIP3   OH262470   3.229   3.541  16.258  0.3169 -0.2066  0.1696
13660TIP3    H162471   3.231   3.593  16.338  2.4767  0.0554  0.0168
13660TIP3    H262472   3.142   3.502  16.257 -0.9291  2.3004  0.9869
13661TIP3   OH262473   4.553   1.489   1.304 -0.1601  0.0286 -0.0280
13661TIP3    H162474   4.508   1.552   1.360 -0.8554  0.4126 -0.9924
13661TIP3    H262475   4.483   1.447   1.254  0.2384 -1.7848  0.8244
13662TIP3   OH262476   1.253   0.376   4.520 -0.6329  0.0621 -0.1919
13662TIP3    H162477   1.215   0.445   4.573  0.1874  0.5168 -0.1902
13662TIP3    H262478   1.324   0.418   4.471  0.0198 -0.8166 -0.0340
13663TIP3   OH262479   0.185   5.950   2.712 -0.3374 -0.4394 -0.2943
13663TIP3    H162480   0.101   5.908   2.692 -1.9681  2.4029  0.0592
13663TIP3    H262481   0.169   6.000   2.792  0.7766  2.3577 -1.6699
13664TIP3   OH262482   6.193   0.976   0.618 -0.5475  0.5671 -0.5122
13664TIP3    H162483   6.235   0.973   0.704 -0.2698  1.3468 -0.6179
13664TIP3    H262484   6.261   1.008   0.558 -1.0048  0.9312 -0.8489
13665TIP3   OH262485   1.776   2.555  13.457  0.2351 -0.5900 -0.1632
13665TIP3    H162486   1.703   2.540  13.518  1.2440  0.3099  1.3361
13665TIP3    H262487   1.768   2.647  13.432 -0.3772 -1.0328 -1.7479
13666TIP3   OH262488   3.797   1.820  12.904 -0.1687 -0.2837 -0.1528
13666TIP3    H162489   3.789   1.731  12.939 -0.7700 -0.2139 -0.0941
13666TIP3    H262490   3.802   1.876  12.981  0.9471 -0.3160 -0.1864
13667TIP3   OH262491   0.365   6.007   3.652  0.1209 -0.6252 -0.5409
13667TIP3    H162492   0.408   5.933   3.610  1.0442 -1.2475  1.3941
13667TIP3    H262493   0.294   5.968   3.703 -0.1435 -0.0476 -0.4540
13668TIP3   OH262494   0.892   4.086  15.787  0.2031  0.1825  0.2440
13668TIP3    H162495   0.986   4.071  15.789  0.5182  1.9642  0.3847
13668TIP3    H262496   0.880   4.167  15.836 -1.3409  0.3010 -0.2882
13669TIP3   OH262497   6.654   5.830  12.103  0.0058  0.4172  0.7348
13669TIP3    H162498   6.623   5.891  12.036 -0.3658 -0.0721  0.4543
13669TIP3    H262499   6.575   5.787  12.135  0.4297 -1.6684 -0.7765
13670TIP3   OH262500   2.891   5.651   3.800  0.0320 -1.0890  0.0494
13670TIP3    H162501   2.899   5.639   3.894  0.8475  2.5721  0.5847
13670TIP3    H262502   2.940   5.578   3.762  2.0532 -1.1646  2.5531
13671TIP3   OH262503   2.212   1.603  16.803 -0.5524 -0.2602 -0.5289
13671TIP3    H162504   2.264   1.626  16.726  0.7172 -1.3047 -0.0231
13671TIP3    H262505   2.158   1.680  16.820  1.0719  1.0115 -0.8988
13672TIP3   OH262506   3.437   6.206   0.283  0.1451 -0.7702  0.0512
13672TIP3    H162507   3.348   6.215   0.319 -0.6979  2.7722 -2.3487
13672TIP3    H262508   3.425   6.155   0.203  1.0142 -3.3812  1.4651
13673TIP3   OH262509   1.679   5.955  14.986  0.1070  0.0540  0.0910
13673TIP3    H162510   1.645   5.986  15.070  0.3059  0.9954 -0.1519
13673TIP3    H262511   1.627   6.002  14.920  1.6116  1.3061 -0.2848
13674TIP3   OH262512   3.067   1.795   0.675 -0.3502 -0.0573  0.0477
13674TIP3    H162513   3.115   1.789   0.758 -1.2942 -0.5151  0.5764
13674TIP3    H262514   3.103   1.725   0.621 -1.4724 -1.4482  1.0224
13675TIP3   OH262515   2.503   6.247  15.431  0.3623  1.2068 -1.0558
13675TIP3    H162516   2.481   6.309  15.501 -0.5399  0.0593 -0.2707
13675TIP3    H262517   2.595   6.227  15.445  0.0281  0.4753  0.2622
13676TIP3   OH262518   3.966   6.471   3.403  0.0838 -0.7613  0.4164
13676TIP3    H162519   3.989   6.443   3.491  0.2856 -2.3018 -0.0963
13676TIP3    H262520   4.014   6.412   3.345  0.9329  0.9953 -0.7754
13677TIP3   OH262521   2.230   2.222  16.572 -0.1950 -0.3569  0.2235
13677TIP3    H162522   2.230   2.225  16.668  0.2246 -0.7254  0.2384
13677TIP3    H262523   2.163   2.157  16.550  0.6609 -1.3089  0.3196
13678TIP3   OH262524   2.938   0.037  14.929 -0.0363  0.8435  0.3600
13678TIP3    H162525   2.948   0.046  15.024  0.8748  0.9906  0.2618
13678TIP3    H262526   3.027   0.044  14.895 -0.0916 -1.1907 -0.3470
13679TIP3   OH262527   1.745   2.071  11.959  0.3233  0.1904 -0.8162
13679TIP3    H162528   1.748   2.124  11.879  0.1391 -0.2776 -1.1316
13679TIP3    H262529   1.673   2.011  11.946  0.8237 -0.4568 -0.6569
13680TIP3   OH262530   4.847   6.829  16.935 -0.6404 -0.3413 -0.5848
13680TIP3    H162531   4.850   6.764  17.005 -1.7208 -1.3637 -1.4489
13680TIP3    H262532   4.831   6.912  16.981  1.3319 -0.5433  0.5792
13681TIP3   OH262533   2.359   2.133   0.360 -0.0071  0.6163 -0.5382
13681TIP3    H162534   2.340   2.085   0.440 -0.0531  1.3590 -0.0928
13681TIP3    H262535   2.366   2.066   0.292 -2.1539  0.1471 -0.3456
13682TIP3   OH262536   1.007   3.524   1.524 -0.0265  0.1598  0.0999
13682TIP3    H162537   1.013   3.538   1.618 -3.5026  1.2634  0.3231
13682TIP3    H262538   0.936   3.461   1.513 -1.1308  1.5844 -1.7598
13683TIP3   OH262539   5.587   3.719  11.109  0.1379  0.1924 -0.8750
13683TIP3    H162540   5.649   3.660  11.152  1.1939  0.0261 -2.5184
13683TIP3    H262541   5.633   3.803  11.105 -0.4114  0.5057 -0.6448
13684TIP3   OH262542   5.675   3.142  12.998  0.2218  0.0227 -0.1860
13684TIP3    H162543   5.655   3.071  12.937 -0.6653  0.1916 -0.1023
13684TIP3    H262544   5.614   3.212  12.973  1.6180  1.0674 -0.7926
13685TIP3   OH262545   0.604   4.489  15.276 -0.0528 -0.6251 -0.0574
13685TIP3    H162546   0.595   4.540  15.195  0.8427 -0.3288  0.0209
13685TIP3    H262547   0.669   4.423  15.255  0.8411  0.0046  0.6837
13686TIP3   OH262548   0.535   2.529   2.164  0.4022  0.3920  0.5675
13686TIP3    H162549   0.531   2.511   2.258  0.7783 -1.9769  0.2018
13686TIP3    H262550   0.489   2.613   2.153 -1.9652 -0.5130  2.5759
13687TIP3   OH262551   3.946   6.669   5.780  0.7471 -0.4193  0.0149
13687TIP3    H162552   3.865   6.658   5.732 -1.0454  1.3194  2.3923
13687TIP3    H262553   4.013   6.626   5.726 -1.4983 -0.8128 -2.6325
13688TIP3   OH262554   4.036   1.789  11.034 -0.0780 -0.6157  0.0697
13688TIP3    H162555   4.061   1.734  10.960 -0.0024 -0.2231 -0.1990
13688TIP3    H262556   4.072   1.743  11.111 -1.4143 -1.7955  0.0410
13689TIP3   OH262557   5.784   5.744  12.386  0.1507 -0.0179 -0.1651
13689TIP3    H162558   5.869   5.769  12.423  1.7008 -3.0972 -1.2908
13689TIP3    H262559   5.733   5.717  12.462 -0.1042  2.3288  0.5853
13690TIP3   OH262560   0.349   6.018  16.209 -0.0546 -0.0662  0.6479
13690TIP3    H162561   0.444   6.013  16.216  0.3416  0.9912 -2.2112
13690TIP3    H262562   0.326   5.951  16.145 -0.7142  1.8281 -1.2271
13691TIP3   OH262563   0.839   1.268   2.952  0.3241  0.0765  0.0597
13691TIP3    H162564   0.758   1.301   2.914 -0.4724 -0.4898  1.1964
13691TIP3    H262565   0.908   1.298   2.893 -0.7296  0.4052 -1.0307
13692TIP3   OH262566   2.327   0.611   4.469  0.1037 -0.2486 -0.5866
13692TIP3    H162567   2.321   0.619   4.374 -0.1042  0.0679 -0.5485
13692TIP3    H262568   2.254   0.554   4.493  1.0318 -1.5409 -0.7633
13693TIP3   OH262569   3.548   4.456   1.034  0.3559  0.6038 -0.4539
13693TIP3    H162570   3.593   4.416   1.109  1.1281  1.1556 -0.6098
13693TIP3    H262571   3.608   4.442   0.961  0.3921  1.5774 -0.6176
13694TIP3   OH262572   0.935   5.572   3.773  0.9213  0.7152 -0.6568
13694TIP3    H162573   0.961   5.486   3.740  1.1689  0.8121 -0.7145
13694TIP3    H262574   0.855   5.593   3.724  0.4479  0.1918 -0.1107
13695TIP3   OH262575   3.214   5.415  15.821 -0.1707  0.4067  0.4300
13695TIP3    H162576   3.188   5.500  15.856  0.9451  2.3428 -2.9663
13695TIP3    H262577   3.145   5.394  15.758  0.4162 -0.3584  0.0265
13696TIP3   OH262578   5.685   2.158   0.505  0.3377 -0.1695 -0.3997
13696TIP3    H162579   5.728   2.240   0.480 -0.8596  1.1627  1.5978
13696TIP3    H262580   5.653   2.121   0.423 -1.2400  2.6495 -1.1858
13697TIP3   OH262581   6.290   0.434   3.121  0.3687  0.3077 -0.1036
13697TIP3    H162582   6.367   0.384   3.147  2.6518  2.8652 -1.4062
13697TIP3    H262583   6.263   0.480   3.201 -0.6555 -1.4927  0.6525
13698TIP3   OH262584   3.140   6.568  16.761 -0.4444  0.6738  0.4662
13698TIP3    H162585   3.213   6.507  16.763  0.9180  2.2333  0.0795
13698TIP3    H262586   3.064   6.514  16.739  0.2824 -1.2372  2.3271
13699TIP3   OH262587   2.054   1.908   3.075  0.2065 -0.4063  0.5040
13699TIP3    H162588   2.003   1.853   3.135 -1.8798  2.1148  1.2597
13699TIP3    H262589   2.077   1.985   3.128  0.1584  0.9285 -1.3233
13700TIP3   OH262590   2.714   1.681   0.104 -0.3535  0.3971 -0.5195
13700TIP3    H162591   2.702   1.742   0.031  1.4092 -0.6083 -1.7140
13700TIP3    H262592   2.760   1.731   0.171  0.3076  0.6219 -1.1377
13701TIP3   OH262593   6.500   6.825  12.441  0.5288  0.2277  0.1403
13701TIP3    H162594   6.463   6.912  12.426 -0.6615 -0.1401  0.8544
13701TIP3    H262595   6.523   6.794  12.353  0.1579  0.9103 -0.2108
13702TIP3   OH262596   3.560   1.196  13.698 -0.2970  0.2921  0.0736
13702TIP3    H162597   3.616   1.262  13.740 -0.2940  0.3621 -0.0407
13702TIP3    H262598   3.550   1.128  13.764 -1.5164  1.0881  0.7515
13703TIP3   OH262599   4.368   5.288   5.538  0.1314 -0.0622 -0.0748
13703TIP3    H162600   4.325   5.341   5.605  0.7575 -1.0641  1.1618
13703TIP3    H262601   4.462   5.298   5.556  0.3503  0.2287 -1.2730
13704TIP3   OH262602   2.359   2.557  15.593  0.2688  0.1704  0.2033
13704TIP3    H162603   2.454   2.548  15.603  0.6462  1.8085 -1.3763
13704TIP3    H262604   2.331   2.608  15.669  1.3315  3.0742 -1.2190
13705TIP3   OH262605   3.922   2.179   2.360  0.3531 -0.1614  0.4969
13705TIP3    H162606   3.962   2.120   2.424  0.1599  0.0684  0.8286
13705TIP3    H262607   3.836   2.142   2.343  1.0318 -1.1800 -0.9145
13706TIP3   OH262608   0.474   2.476   3.041  0.0195 -0.2918 -0.2612
13706TIP3    H162609   0.452   2.433   3.124  0.0697 -0.1501 -0.1737
13706TIP3    H262610   0.390   2.481   2.994 -0.2835  0.8352  0.3457
13707TIP3   OH262611   3.762   0.669  15.897  0.2145 -0.2990 -0.3895
13707TIP3    H162612   3.829   0.725  15.858  1.5442 -0.3197  1.6967
13707TIP3    H262613   3.679   0.704  15.865  1.1053  1.4863 -0.8713
13708TIP3   OH262614   1.031   2.168   5.953 -0.4514 -0.3215  0.2202
13708TIP3    H162615   1.023   2.180   5.859 -0.7029  0.4960  0.3288
13708TIP3    H262616   0.952   2.119   5.978 -0.8223  0.1960  0.1060
13709TIP3   OH262617   3.816   3.164   4.688  0.4153  0.2881  0.1573
13709TIP3    H162618   3.891   3.223   4.698 -0.1177  0.9162  0.5826
13709TIP3    H262619   3.749   3.218   4.646 -0.3478  0.2456  1.2559
13710TIP3   OH262620   6.806   1.031   2.254  0.4823 -0.0872 -0.0995
13710TIP3    H162621   6.814   1.056   2.162 -0.9045  3.1354  0.5246
13710TIP3    H262622   6.712   1.033   2.271  0.7548  0.1060  1.5558
13711TIP3   OH262623   1.986   1.648  14.381 -0.0253  0.5397  0.4142
13711TIP3    H162624   1.916   1.708  14.356 -0.8349 -0.2931  0.6579
13711TIP3    H262625   1.991   1.654  14.476  0.4208  0.7897  0.3794
13712TIP3   OH262626   2.756   6.771  11.229 -0.2664 -0.0200 -0.1721
13712TIP3    H162627   2.666   6.758  11.259  0.5546 -1.8502  1.7693
13712TIP3    H262628   2.809   6.713  11.284  2.1913  1.3875 -0.8556
13713TIP3   OH262629   1.654   0.829   3.818  0.3637 -0.3549 -0.6164
13713TIP3    H162630   1.600   0.836   3.897 -0.4905 -2.2005 -0.9724
13713TIP3    H262631   1.701   0.912   3.814 -0.3314  0.1970  1.2681
13714TIP3   OH262632   0.469   6.112   0.048 -0.0994 -0.3811  0.0887
13714TIP3    H162633   0.562   6.127   0.033 -0.2909  0.6960 -0.0740
13714TIP3    H262634   0.455   6.138   0.139 -0.2018 -0.7608  0.1836
13715TIP3   OH262635   5.153   2.059  11.807 -0.1512 -0.1000 -0.7852
13715TIP3    H162636   5.204   1.983  11.779  2.2173  1.1141 -0.0247
13715TIP3    H262637   5.214   2.132  11.803 -1.7161  1.3857  0.6306
13716TIP3   OH262638   4.631   5.295   4.651  0.9447  0.3280 -0.0231
13716TIP3    H162639   4.578   5.316   4.574  1.8374  1.3964 -0.3762
13716TIP3    H262640   4.654   5.380   4.688  1.0767 -0.1617  1.0538
13717TIP3   OH262641   3.613   3.686   0.375 -0.0973  0.4375 -0.2251
13717TIP3    H162642   3.551   3.649   0.312  0.5249  1.1655 -1.2978
13717TIP3    H262643   3.699   3.656   0.344  0.2448  1.0740  0.0843
13718TIP3   OH262644   2.303   5.185   3.951 -0.1821  0.3696  0.4088
13718TIP3    H162645   2.395   5.180   3.928 -0.4146 -0.4251 -0.3795
13718TIP3    H262646   2.257   5.198   3.868 -0.9561 -1.6360  0.4823
13719TIP3   OH262647   3.127   4.892  15.635  0.1145 -0.1352 -0.6927
13719TIP3    H162648   3.122   4.824  15.703  0.7657 -0.9766 -1.4632
13719TIP3    H262649   3.115   4.844  15.553 -3.3277  1.1894 -1.1006
13720TIP3   OH262650   2.154   5.121  13.160  0.5094  0.2501 -0.0368
13720TIP3    H162651   2.084   5.168  13.114  0.2962  0.0536  0.0891
13720TIP3    H262652   2.228   5.182  13.157  0.5697  0.1535 -0.8318
13721TIP3   OH262653   0.483   1.370  10.765  0.1549 -0.3090  0.1668
13721TIP3    H162654   0.525   1.292  10.728  1.3849 -0.6365  2.0712
13721TIP3    H262655   0.395   1.340  10.790  0.0883 -0.6635 -0.4774
13722TIP3   OH262656   5.011   5.142  13.471 -0.6674  0.2235 -0.0838
13722TIP3    H162657   4.974   5.093  13.398 -1.7368  0.6963  0.1291
13722TIP3    H262658   5.053   5.218  13.430 -0.7100  0.1594 -0.2471
13723TIP3   OH262659   0.883   5.287   5.043 -1.0018  0.0622  0.2670
13723TIP3    H162660   0.879   5.229   4.967 -1.0402  0.2109  0.1543
13723TIP3    H262661   0.977   5.303   5.057 -0.9773 -0.2485  0.4696
13724TIP3   OH262662   2.301   1.117   6.294  0.0609 -0.3403  0.2235
13724TIP3    H162663   2.251   1.195   6.317  1.0130  0.1873  0.5969
13724TIP3    H262664   2.238   1.059   6.252 -0.2215  1.5340 -2.1473
13725TIP3   OH262665   0.009   0.271  13.203  0.3189  0.5095  0.0161
13725TIP3    H162666   0.083   0.304  13.255  0.4848 -1.7990  1.3770
13725TIP3    H262667   0.035   0.182  13.179 -1.5445  0.0679 -0.4805
13726TIP3   OH262668   6.065   4.514  15.607 -0.0778 -0.1923  0.2758
13726TIP3    H162669   6.032   4.540  15.521 -2.0121  0.3769  1.1503
13726TIP3    H262670   6.128   4.444  15.588 -0.2386  0.1102 -1.5991
13727TIP3   OH262671   3.572   4.264  16.469  0.1166 -0.3840 -0.2972
13727TIP3    H162672   3.503   4.323  16.439 -1.6045 -1.5181  1.2393
13727TIP3    H262673   3.628   4.318  16.523 -1.1680  0.0049  0.6994
13728TIP3   OH262674   1.855   0.381   6.332 -0.2020 -0.0731  0.2607
13728TIP3    H162675   1.790   0.319   6.298  0.1196 -0.3832  0.1970
13728TIP3    H262676   1.939   0.338   6.317  0.0707  0.6521 -0.3480
13729TIP3   OH262677   3.654   3.291  13.741 -0.2334 -0.2507 -0.0226
13729TIP3    H162678   3.593   3.292  13.815  0.0085  1.7524  0.2109
13729TIP3    H262679   3.657   3.200  13.714 -1.5097 -0.7858  1.4659
13730TIP3   OH262680   4.853   1.593   3.227  0.5636  0.6805 -0.5335
13730TIP3    H162681   4.879   1.553   3.144 -2.0031  0.7927 -1.4786
13730TIP3    H262682   4.791   1.662   3.202  0.5781  1.4826  1.4237
13731TIP3   OH262683   0.351   0.065  14.701  0.0236  0.5862  0.2794
13731TIP3    H162684   0.438   0.089  14.670  0.5285 -0.2240  1.0383
13731TIP3    H262685   0.356   0.074  14.796 -0.5326 -0.0313  0.3766
13732TIP3   OH262686   3.322   3.837  11.713  0.0506 -0.2604 -0.4955
13732TIP3    H162687   3.276   3.880  11.785  0.7250 -0.4999  0.0854
13732TIP3    H262688   3.413   3.829  11.743  0.3972 -0.1382 -1.4739
13733TIP3   OH262689   3.805   1.827   4.634  0.7030 -0.1215 -0.4117
13733TIP3    H162690   3.874   1.760   4.629  0.3671 -0.6059  1.1449
13733TIP3    H262691   3.807   1.857   4.724 -1.9096 -0.9898  0.0164
13734TIP3   OH262692   2.370   1.173  12.885 -0.3893  0.0128 -0.0088
13734TIP3    H162693   2.409   1.182  12.798  0.9487 -0.3697  0.5293
13734TIP3    H262694   2.394   1.085  12.913 -2.2924 -0.5233  0.0652
13735TIP3   OH262695   4.564   0.231   3.248  0.0702 -0.2558  0.3204
13735TIP3    H162696   4.551   0.303   3.186 -1.3979 -1.4700 -0.8696
13735TIP3    H262697   4.657   0.213   3.245  0.0245 -0.3535 -1.6642
13736TIP3   OH262698   4.810   6.846   0.175  0.3677  0.3564 -0.7173
13736TIP3    H162699   4.892   6.879   0.212  0.3907  0.6964 -1.0626
13736TIP3    H262700   4.763   6.924   0.147 -0.4873  0.2362  0.2936
13737TIP3   OH262701   4.038   5.008   0.577  0.0023 -0.3038  0.4946
13737TIP3    H162702   4.044   5.034   0.485 -2.9546  1.2614  0.6121
13737TIP3    H262703   3.968   4.944   0.579  0.2434 -0.5563  1.6256
13738TIP3   OH262704   4.220   3.304   4.557  0.1297  0.1916 -0.5058
13738TIP3    H162705   4.208   3.259   4.473  0.8778  0.2642 -0.6617
13738TIP3    H262706   4.170   3.385   4.548 -0.1680 -0.0124 -0.7106
13739TIP3   OH262707   4.584   1.772   4.065  0.2003 -0.1811  0.0578
13739TIP3    H162708   4.586   1.860   4.101 -0.6171 -0.5914  1.1334
13739TIP3    H262709   4.675   1.743   4.069  0.0342 -0.5052  2.5727
13740TIP3   OH262710   6.349   5.943   1.595 -0.0334  0.2630  0.2157
13740TIP3    H162711   6.379   6.034   1.598  0.6736  0.0019  2.3669
13740TIP3    H262712   6.317   5.931   1.505  1.1074  2.2236 -0.4972
13741TIP3   OH262713   5.501   0.602   0.776  0.0226 -0.3185 -0.1531
13741TIP3    H162714   5.448   0.586   0.855  1.2642 -0.0623  0.7496
13741TIP3    H262715   5.436   0.610   0.706 -1.0802 -1.1170  0.7366
13742TIP3   OH262716   3.386   1.673  14.065 -0.0552  0.2958  0.6015
13742TIP3    H162717   3.377   1.590  14.112 -0.0334  0.8740  1.6520
13742TIP3    H262718   3.298   1.711  14.067  0.0940  0.6360  0.7754
13743TIP3   OH262719   4.257   1.347   2.016  0.1290  0.3423 -0.1648
13743TIP3    H162720   4.342   1.341   1.973 -0.1242  0.1340 -0.6451
13743TIP3    H262721   4.264   1.287   2.091 -0.0816 -0.8179 -1.0442
13744TIP3   OH262722   4.984   4.498  14.678  0.0181  0.4734  0.3053
13744TIP3    H162723   4.952   4.495  14.588  0.8937  0.7139 -0.0237
13744TIP3    H262724   5.017   4.410  14.695  0.5668  0.6425  0.1206
13745TIP3   OH262725   2.976   1.787  16.041  0.2470 -0.4418 -0.1324
13745TIP3    H162726   2.980   1.695  16.068  2.2017 -0.0079  1.3262
13745TIP3    H262727   2.941   1.784  15.952  0.7652 -2.6645 -0.3404
13746TIP3   OH262728   4.938   4.536   4.002  0.1893  0.6020 -0.1111
13746TIP3    H162729   4.848   4.561   3.980 -0.3167 -0.5581  0.5025
13746TIP3    H262730   4.954   4.576   4.087  0.1058  0.5002 -0.0462
13747TIP3   OH262731   0.708   4.904  16.865  0.3994 -0.4872 -0.7033
13747TIP3    H162732   0.653   4.928  16.790  1.1512  1.0284 -0.8218
13747TIP3    H262733   0.651   4.850  16.920 -0.1373 -1.7254 -2.3832
13748TIP3   OH262734   6.289   2.446   2.539  0.3868 -0.0448  0.3137
13748TIP3    H162735   6.304   2.372   2.598  0.0734 -0.4935 -0.1685
13748TIP3    H262736   6.371   2.455   2.490  0.2728 -0.3470  0.0671
13749TIP3   OH262737   1.308   3.636  10.748 -0.2176  0.7723 -0.5563
13749TIP3    H162738   1.376   3.579  10.714  0.7171  1.5162  0.0219
13749TIP3    H262739   1.326   3.722  10.709  1.1300  1.7483  2.0249
13750TIP3   OH262740   4.002   1.797  15.949  0.6303 -0.3719  0.0943
13750TIP3    H162741   3.942   1.766  16.016  0.8751 -1.1948 -0.0531
13750TIP3    H262742   4.083   1.817  15.996  1.1419 -1.9225 -0.0613
13751TIP3   OH262743   3.729   4.734  14.085  0.8339  0.4771  0.0831
13751TIP3    H162744   3.682   4.709  14.164 -0.6233 -0.1493 -0.9376
13751TIP3    H262745   3.740   4.653  14.036  3.5189  0.5029  0.5081
13752TIP3   OH262746   5.347   0.856  12.771 -0.4944 -0.5154 -0.3472
13752TIP3    H162747   5.358   0.949  12.750 -2.6067  0.0669  0.7842
13752TIP3    H262748   5.252   0.843  12.770 -0.3766 -2.0340  1.9382
13753TIP3   OH262749   1.660   1.659  16.106 -0.6578 -0.0417  0.2150
13753TIP3    H162750   1.618   1.641  16.190 -0.6518  1.5184  0.5822
13753TIP3    H262751   1.614   1.603  16.044  0.6511 -2.7749  1.5052
13754TIP3   OH262752   2.678   5.169  11.350 -0.7444 -0.4087 -0.6197
13754TIP3    H162753   2.674   5.132  11.438 -0.9688 -0.8495 -0.8176
13754TIP3    H262754   2.619   5.245  11.353 -3.7389 -2.5425 -1.4109
13755TIP3   OH262755   4.050   3.172  14.637 -0.0472  0.2419  0.1823
13755TIP3    H162756   4.022   3.227  14.564 -0.3379 -0.7721 -0.4978
13755TIP3    H262757   4.136   3.139  14.610  0.1725  0.4473  0.6292
13756TIP3   OH262758   1.645   5.724   2.925  0.7203 -0.0833 -0.1555
13756TIP3    H162759   1.658   5.813   2.892 -2.9162  0.7007  0.1585
13756TIP3    H262760   1.665   5.731   3.019  0.1130  0.5036 -0.0639
13757TIP3   OH262761   0.794   4.098   1.767  0.0827 -0.1933 -0.1834
13757TIP3    H162762   0.745   4.145   1.700  0.6490 -0.2922 -0.6789
13757TIP3    H262763   0.742   4.020   1.785 -0.0766 -0.1661 -0.5120
13758TIP3   OH262764   5.346   1.172   1.324  0.2080 -0.4868 -0.1013
13758TIP3    H162765   5.255   1.200   1.315  0.0264 -1.5390 -2.2071
13758TIP3    H262766   5.347   1.118   1.403 -1.0734 -0.6719 -0.1905
13759TIP3   OH262767   1.566   1.487  15.230 -0.2423 -0.6788  0.0602
13759TIP3    H162768   1.507   1.469  15.157  1.7247 -2.0077 -1.3250
13759TIP3    H262769   1.545   1.576  15.257 -1.1359 -0.1760 -2.0742
13760TIP3   OH262770   4.364   6.224   3.843 -0.1364 -0.6494  0.1154
13760TIP3    H162771   4.357   6.145   3.789  1.8558 -1.7053  1.2583
13760TIP3    H262772   4.414   6.286   3.789  0.1086 -0.9570 -0.0186
13761TIP3   OH262773   2.207   5.695  11.683  0.1955  0.0731  0.0384
13761TIP3    H162774   2.298   5.685  11.712 -0.1503 -1.1595  0.7507
13761TIP3    H262775   2.157   5.708  11.764 -0.3304  0.2279 -0.3042
13762TIP3   OH262776   1.542   6.647   4.264  0.0850 -0.1935  0.0644
13762TIP3    H162777   1.487   6.583   4.218  0.2662 -0.7677  0.6383
13762TIP3    H262778   1.606   6.675   4.198 -1.3921  1.1362 -0.8845
13763TIP3   OH262779   6.421   2.321   5.533 -0.2423  0.3324  0.0105
13763TIP3    H162780   6.513   2.346   5.544 -0.9115  2.8005  0.6018
13763TIP3    H262781   6.379   2.399   5.498 -2.2420 -0.5602  0.2766
13764TIP3   OH262782   0.652   3.878   5.615 -0.7850 -0.0371 -0.1877
13764TIP3    H162783   0.680   3.844   5.700 -0.7698  1.6355  0.5118
13764TIP3    H262784   0.557   3.875   5.618 -0.9243  2.7574  1.1490
13765TIP3   OH262785   2.042   2.258   0.011 -0.2406 -0.6808  0.5547
13765TIP3    H162786   2.041   2.285   0.103 -1.2347  0.4561  0.2323
13765TIP3    H262787   2.129   2.221  -0.002  0.2939  0.1318  1.6812
13766TIP3   OH262788   2.138   1.299  11.470 -0.6047 -0.1057 -0.5840
13766TIP3    H162789   2.212   1.273  11.525 -0.6414  0.0593 -0.4545
13766TIP3    H262790   2.061   1.283  11.524 -0.5445  2.2100  0.3360
13767TIP3   OH262791   2.660   0.603  15.788  0.3108  0.6888  0.2593
13767TIP3    H162792   2.662   0.647  15.873  1.1863  1.1845 -0.0030
13767TIP3    H262793   2.652   0.674  15.725 -2.9370  0.2161 -0.0196
13768TIP3   OH262794   4.002   5.648   0.043 -0.0249  0.1330 -0.2066
13768TIP3    H162795   3.919   5.695   0.047  0.1098  0.4249 -0.8186
13768TIP3    H262796   4.068   5.717   0.035  0.3124 -0.0738  0.6338
13769TIP3   OH262797   6.299   0.017  11.293  1.0638 -0.3589 -0.0967
13769TIP3    H162798   6.357  -0.043  11.246 -1.0470 -0.7253 -2.4213
13769TIP3    H262799   6.284  -0.025  11.378  1.2869 -2.0933 -0.8746
13770TIP3   OH262800   1.059   4.420  14.345  0.2522  0.7308  0.3580
13770TIP3    H162801   1.014   4.352  14.295 -1.3835  0.6641  1.8562
13770TIP3    H262802   1.083   4.486  14.279 -0.7610  0.1047 -0.6777
13771TIP3   OH262803   6.485   2.452   0.343  0.4781 -0.4053  0.1707
13771TIP3    H162804   6.507   2.544   0.330  0.1500 -0.3161  0.2318
13771TIP3    H262805   6.457   2.421   0.257  1.8937 -0.8159 -0.1582
13772TIP3   OH262806   6.489   6.007  13.578  0.4355 -0.1755 -0.5190
13772TIP3    H162807   6.465   6.076  13.640  0.8659  1.6768 -2.3170
13772TIP3    H262808   6.581   5.989  13.596  0.3013 -0.3678  0.0069
13773TIP3   OH262809   4.851   2.866  14.929  0.4106  0.1625  0.3097
13773TIP3    H162810   4.794   2.796  14.899 -0.2134 -0.6052  3.0364
13773TIP3    H262811   4.910   2.825  14.992  0.5975  1.9016  1.3493
13774TIP3   OH262812   3.438   4.324   3.854 -0.6646  0.1012  0.0852
13774TIP3    H162813   3.465   4.413   3.877  0.0350  0.0666 -0.5704
13774TIP3    H262814   3.363   4.306   3.911 -0.1224  0.6967  0.9951
13775TIP3   OH262815   2.037   2.121   1.074 -0.0161 -0.7332  0.7706
13775TIP3    H162816   1.971   2.187   1.052  1.6918  1.1137  0.8193
13775TIP3    H262817   2.024   2.052   1.009  0.8026  1.6494 -2.1753
13776TIP3   OH262818   1.078   1.367  13.966 -0.2343 -0.2577  0.0249
13776TIP3    H162819   1.127   1.379  14.047 -0.9030 -0.9208  0.5382
13776TIP3    H262820   1.043   1.454  13.946  2.8083  0.7774 -1.5063
13777TIP3   OH262821   1.963   0.612  15.592 -0.1514 -0.9366  0.0666
13777TIP3    H162822   2.036   0.573  15.544  0.6771 -0.1434  0.6415
13777TIP3    H262823   1.885   0.566  15.560  0.2977 -0.2075 -2.3196
13778TIP3   OH262824   1.312   3.579   0.917  0.2468 -0.8008  0.4763
13778TIP3    H162825   1.305   3.508   0.981  2.2698 -1.8374 -0.3558
13778TIP3    H262826   1.304   3.536   0.832 -0.0122  0.1988 -0.0269
13779TIP3   OH262827   2.398   0.678  11.252 -0.8598  0.1086 -0.5043
13779TIP3    H162828   2.481   0.667  11.206 -0.2906  1.1282  0.2244
13779TIP3    H262829   2.357   0.592  11.250 -1.8828  0.4212 -4.7385
13780TIP3   OH262830   4.581   4.863   3.841 -0.0823  0.2476  0.1024
13780TIP3    H162831   4.514   4.804   3.806 -1.0361  1.0297  0.5594
13780TIP3    H262832   4.533   4.942   3.865  0.8028  0.3834  1.5793
13781TIP3   OH262833   1.734   3.856   1.092 -0.6962 -0.0438 -0.5828
13781TIP3    H162834   1.794   3.887   1.024  1.8508 -2.4877  0.3869
13781TIP3    H262835   1.679   3.791   1.049 -1.2377  0.6488 -0.9665
13782TIP3   OH262836   1.709   5.699   2.649  0.1418 -0.1886  0.3063
13782TIP3    H162837   1.688   5.771   2.709  0.9625 -0.6486  1.1703
13782TIP3    H262838   1.805   5.697   2.647  0.1223 -0.6376 -0.4769
13783TIP3   OH262839   6.349   1.120   6.060 -0.1574  0.4301 -0.2913
13783TIP3    H162840   6.337   1.188   6.126 -0.0629 -0.8436  1.0973
13783TIP3    H262841   6.385   1.046   6.108 -1.2251 -0.9712 -1.5345
13784TIP3   OH262842   5.283   2.516   0.734 -0.7357  0.1285  0.1632
13784TIP3    H162843   5.311   2.464   0.659 -1.2846  0.1444 -0.0616
13784TIP3    H262844   5.313   2.605   0.715  1.4378 -0.3232  1.1976
13785TIP3   OH262845   0.956   2.865   4.923 -0.3092 -0.3443 -0.3835
13785TIP3    H162846   1.044   2.872   4.961 -0.4927  2.0049 -0.2836
13785TIP3    H262847   0.972   2.835   4.833  0.2876 -3.4288  0.6163
13786TIP3   OH262848   0.033   1.996   5.458  0.3905  0.6572 -0.6767
13786TIP3    H162849   0.079   2.071   5.420  1.3986  2.6312  3.8064
13786TIP3    H262850   0.102   1.944   5.499 -0.6457 -1.0612 -1.0076
13787TIP3   OH262851   5.023   6.306   2.594  0.1970 -0.1499  0.3364
13787TIP3    H162852   4.954   6.262   2.545  0.1676  1.5634 -1.2593
13787TIP3    H262853   5.104   6.270   2.558  0.1698  0.8801 -0.8019
13788TIP3   OH262854   2.979   3.542  16.812 -0.2286 -0.4395 -0.3015
13788TIP3    H162855   3.035   3.605  16.768 -1.6944 -0.3065 -2.0863
13788TIP3    H262856   3.003   3.457  16.775  0.7018 -0.7752  0.9979
13789TIP3   OH262857   0.801   2.173  14.274  0.0677 -0.4031  0.0695
13789TIP3    H162858   0.812   2.097  14.331  2.5983 -0.0541  0.1269
13789TIP3    H262859   0.721   2.215  14.306 -0.2032 -1.8596  1.4032
13790TIP3   OH262860   6.504   4.747  14.521 -0.4316  0.5874  0.2285
13790TIP3    H162861   6.595   4.737  14.494  0.8351  4.5448  2.2651
13790TIP3    H262862   6.500   4.707  14.608 -0.8778 -0.1984 -0.1423
13791TIP3   OH262863   2.834   2.264   0.153  0.6465  0.6390 -0.1135
13791TIP3    H162864   2.825   2.358   0.135 -0.9489  0.8666  1.5842
13791TIP3    H262865   2.817   2.256   0.247  0.0343 -1.4483 -0.3588
13792TIP3   OH262866   5.409   3.356   0.388  0.5920 -0.1180 -0.0220
13792TIP3    H162867   5.477   3.358   0.321 -0.6429  0.2042 -1.2952
13792TIP3    H262868   5.329   3.336   0.341 -0.3223  0.1125  1.3702
13793TIP3   OH262869   6.526   0.696  16.280  0.1335 -0.2358  0.6894
13793TIP3    H162870   6.602   0.665  16.231 -0.2073  2.3751 -1.7257
13793TIP3    H262871   6.551   0.781  16.315 -0.8702 -0.4628  2.0963
13794TIP3   OH262872   5.433   5.156   4.089  0.1526  0.4062 -0.0091
13794TIP3    H162873   5.349   5.127   4.054 -0.2299  1.6907 -0.1998
13794TIP3    H262874   5.495   5.089   4.061 -0.8818 -0.8233  0.5640
13795TIP3   OH262875   4.370   4.548  13.174  0.6161 -0.3713  0.0580
13795TIP3    H162876   4.335   4.476  13.122 -0.2826 -0.5665  0.8934
13795TIP3    H262877   4.448   4.513  13.217 -0.6869 -1.3804  1.7004
13796TIP3   OH262878   0.045   5.855  13.415 -0.5534 -0.3261 -0.2093
13796TIP3    H162879  -0.021   5.786  13.427 -0.7228 -0.1177  0.0745
13796TIP3    H262880   0.121   5.824  13.464 -0.6574 -0.2766 -0.0138
13797TIP3   OH262881   3.082   4.439   0.948 -0.1262  0.0512  0.1624
13797TIP3    H162882   3.154   4.391   0.907 -0.2432 -1.5251  1.6973
13797TIP3    H262883   3.113   4.456   1.037 -1.3048  0.1507  0.5649
13798TIP3   OH262884   1.467   4.883  16.562 -0.0861 -0.3000  0.3708
13798TIP3    H162885   1.487   4.861  16.471 -1.4100  0.0768 -0.0471
13798TIP3    H262886   1.526   4.829  16.614  1.3169  0.1242 -0.7117
13799TIP3   OH262887   6.070   1.635  16.315  0.5746 -0.1335 -0.5541
13799TIP3    H162888   6.118   1.584  16.249  0.6943  0.5947 -1.0323
13799TIP3    H262889   6.138   1.669  16.373  0.4729 -0.7311 -0.0762
13800TIP3   OH262890   3.893   1.385  11.551 -0.5055 -0.0193  0.0693
13800TIP3    H162891   3.802   1.362  11.570 -0.8339  0.4466 -0.8754
13800TIP3    H262892   3.907   1.354  11.461 -0.7032  2.6297 -0.9415
13801TIP3   OH262893   6.689   3.615   1.597  0.0305  0.2278  0.1901
13801TIP3    H162894   6.682   3.659   1.513  2.1363  1.8639  0.7666
13801TIP3    H262895   6.751   3.668   1.647 -1.3291 -0.4997  2.8999
13802TIP3   OH262896   1.422   4.811  16.075  0.1665 -0.1058  0.2126
13802TIP3    H162897   1.454   4.841  15.989 -0.9233 -0.1642 -0.2366
13802TIP3    H262898   1.346   4.868  16.092 -0.6360 -1.1857  0.3486
13803TIP3   OH262899   1.300   4.775  13.403 -0.1950  0.2167 -0.4512
13803TIP3    H162900   1.355   4.760  13.480  1.8479 -0.7575 -1.9740
13803TIP3    H262901   1.295   4.870  13.395  0.4509  0.3263  0.3210
13804TIP3   OH262902   4.704   0.863   0.823 -0.2796 -1.1124  0.1230
13804TIP3    H162903   4.791   0.823   0.813  0.0827 -0.2478 -0.2860
13804TIP3    H262904   4.668   0.862   0.734  0.0119  0.0642 -0.0226
13805TIP3   OH262905   2.724   2.513   5.350  0.2100 -0.3436  0.0599
13805TIP3    H162906   2.665   2.464   5.407  1.2915  0.0834  1.6064
13805TIP3    H262907   2.763   2.579   5.406 -1.0258  2.2231 -1.9160
13806TIP3   OH262908   5.242   3.222  16.046  0.7590  0.5308  0.2872
13806TIP3    H162909   5.263   3.315  16.039  1.9040  0.3224  0.7689
13806TIP3    H262910   5.223   3.194  15.956 -0.3795  1.3907  0.2386
13807TIP3   OH262911   4.574   3.259   4.029 -0.1327 -0.5001 -0.3180
13807TIP3    H162912   4.627   3.338   4.024 -3.0459  1.6332 -0.0264
13807TIP3    H262913   4.559   3.234   3.938 -1.0641  0.6798 -0.5070
13808TIP3   OH262914   6.307   0.781   4.537  0.4016 -0.3729 -0.0898
13808TIP3    H162915   6.269   0.859   4.577 -0.7696 -1.2084  0.4693
13808TIP3    H262916   6.289   0.791   4.444  2.1453  1.0299 -0.3337
13809TIP3   OH262917   4.770   1.274  15.091  0.3360  0.0431  0.6030
13809TIP3    H162918   4.699   1.321  15.048 -0.4029 -1.4095  0.1571
13809TIP3    H262919   4.840   1.271  15.025 -0.2857 -0.9954 -0.0369
13810TIP3   OH262920   4.711   4.882   4.938 -0.1027  0.1248 -0.1011
13810TIP3    H162921   4.703   4.948   4.869 -1.3530  2.1704  1.8565
13810TIP3    H262922   4.630   4.830   4.932 -1.0482  1.4223  0.8391
13811TIP3   OH262923   3.783   5.783   2.773  0.7480  0.2393 -0.2104
13811TIP3    H162924   3.858   5.724   2.775  1.1625  0.6709 -1.5552
13811TIP3    H262925   3.803   5.850   2.838 -0.6852 -2.1039  2.9022
13812TIP3   OH262926   2.188   5.562   5.339 -0.0775  0.0210 -0.1580
13812TIP3    H162927   2.190   5.613   5.259 -0.7111  1.0380  0.4488
13812TIP3    H262928   2.212   5.473   5.312 -0.6243  0.2646 -1.5132
13813TIP3   OH262929   6.266   5.512  14.141  0.5467 -0.1071 -0.1896
13813TIP3    H162930   6.230   5.527  14.228  2.1311  2.5407  0.1191
13813TIP3    H262931   6.255   5.596  14.096 -0.3414 -1.4334 -2.6363
13814TIP3   OH262932   0.318   1.283  13.480 -0.5576  0.2036 -0.3146
13814TIP3    H162933   0.382   1.227  13.523 -1.5477 -0.5912  0.1817
13814TIP3    H262934   0.313   1.248  13.390  0.4964  0.9758 -0.6830
13815TIP3   OH262935   2.003   3.846   5.014 -0.2978  0.0275  0.1596
13815TIP3    H162936   2.056   3.926   5.009 -0.1637 -0.0433  0.4343
13815TIP3    H262937   1.921   3.874   5.055 -2.2046  1.0329 -3.7708
13816TIP3   OH262938   4.989   2.503  15.190 -0.0570  0.0618 -0.3567
13816TIP3    H162939   5.080   2.478  15.202 -0.5115 -0.8565  1.5516
13816TIP3    H262940   4.940   2.449  15.252 -1.9293  0.4090 -1.4347
13817TIP3   OH262941   6.670   1.021  13.190 -0.0657  0.4203 -0.1767
13817TIP3    H162942   6.679   1.083  13.117  0.5082 -0.4280 -0.8478
13817TIP3    H262943   6.702   0.938  13.155 -1.7171 -0.5120  0.3780
13818TIP3   OH262944   3.517   0.737  16.353 -0.0617  0.1255 -0.4828
13818TIP3    H162945   3.505   0.656  16.403 -1.7865  0.5496 -0.1749
13818TIP3    H262946   3.525   0.707  16.262 -0.0161 -0.4239 -0.3055
13819TIP3   OH262947   2.006   5.523   1.522 -0.1219  0.3631  0.1100
13819TIP3    H162948   2.050   5.584   1.581  2.1574 -1.2283  0.2194
13819TIP3    H262949   2.026   5.436   1.559 -0.8973 -0.5586 -1.5172
13820TIP3   OH262950   3.555   2.353  13.830  0.2957  0.4582 -0.5973
13820TIP3    H162951   3.604   2.386  13.755 -1.3421 -0.8346 -2.3412
13820TIP3    H262952   3.466   2.342  13.796 -0.2220 -1.3090  1.2071
13821TIP3   OH262953   4.178   4.526  12.942 -0.4387 -0.0618  0.0402
13821TIP3    H162954   4.161   4.479  12.860  0.4305 -1.9423  0.8554
13821TIP3    H262955   4.216   4.459  13.000  0.5582  1.6016  1.4136
13822TIP3   OH262956   5.253   3.969  10.948 -0.0251  0.2239  0.4142
13822TIP3    H162957   5.281   3.878  10.953  3.3347  1.1357  0.2062
13822TIP3    H262958   5.273   3.995  10.858 -1.8983  0.9653  0.1577
13823TIP3   OH262959   0.319   1.553   0.285  0.3416  0.1410 -0.0703
13823TIP3    H162960   0.264   1.544   0.207 -1.6113 -0.7415  1.3285
13823TIP3    H262961   0.287   1.485   0.345  0.6772  1.7878  2.1055
13824TIP3   OH262962   0.719   1.095  14.864  0.3788  0.6445  0.0291
13824TIP3    H162963   0.812   1.080  14.879 -0.1756 -1.4379  1.7278
13824TIP3    H262964   0.708   1.190  14.874  2.3363  0.9565 -0.4884
13825TIP3   OH262965   2.544   3.784   1.445  0.4877  0.1074  0.5469
13825TIP3    H162966   2.484   3.719   1.409  1.7307 -0.5970 -0.3472
13825TIP3    H262967   2.570   3.750   1.530  1.4671 -0.8305 -0.0994
13826TIP3   OH262968   2.488   3.322  14.958  0.2920  0.4887 -0.1814
13826TIP3    H162969   2.465   3.410  14.928 -1.3993  0.0170 -0.3415
13826TIP3    H262970   2.410   3.290  15.003  0.5109 -1.2969 -0.9665
13827TIP3   OH262971   2.807   6.239  14.592  0.4284  0.7013  0.4646
13827TIP3    H162972   2.785   6.181  14.520  0.9691  2.4945 -1.2338
13827TIP3    H262973   2.899   6.218  14.612  0.7398  1.1851 -0.3938
13828TIP3   OH262974   3.749   2.991   5.766  0.0933 -0.0671 -0.1550
13828TIP3    H162975   3.837   2.964   5.795 -0.4131 -0.9016  0.6538
13828TIP3    H262976   3.690   2.953   5.831 -0.7531  2.1745  0.4585
13829TIP3   OH262977   5.868   5.272   1.828  0.3017  0.5495  0.6267
13829TIP3    H162978   5.893   5.193   1.876  0.7107  0.4518  0.2666
13829TIP3    H262979   5.927   5.339   1.862  2.2333 -0.0273 -1.3359
13830TIP3   OH262980   0.584   3.887  12.278  0.1099 -0.2664  0.6236
13830TIP3    H162981   0.624   3.910  12.362 -0.5858  1.0779  0.6164
13830TIP3    H262982   0.649   3.914  12.213  1.1206 -2.3050  0.7235
13831TIP3   OH262983   3.955   6.182  16.139  0.7654 -0.0973 -0.5243
13831TIP3    H162984   3.925   6.133  16.216  1.6143  1.5750  0.9563
13831TIP3    H262985   3.945   6.121  16.066  2.9387 -2.9555  1.3407
13832TIP3   OH262986   6.171   3.430  15.373  0.1850 -0.2709 -0.3684
13832TIP3    H162987   6.100   3.445  15.311  0.2424  0.6097 -0.2341
13832TIP3    H262988   6.250   3.455  15.326  0.2024  0.6823  0.1298
13833TIP3   OH262989   1.369   4.735  16.949  0.2815  0.2681 -0.2189
13833TIP3    H162990   1.362   4.643  16.925  1.9212 -0.0331  0.3572
13833TIP3    H262991   1.424   4.773  16.880 -0.0447  0.7352 -0.2240
13834TIP3   OH262992   2.664   0.989  11.171  0.3015  0.7085  0.0291
13834TIP3    H162993   2.694   0.902  11.199 -0.8660  0.2956  0.0847
13834TIP3    H262994   2.621   1.025  11.249  2.2874  2.0915  0.5455
13835TIP3   OH262995   3.844   2.106   0.238  0.8562 -0.2178  0.0438
13835TIP3    H162996   3.781   2.037   0.260  0.8649 -0.4104 -0.5197
13835TIP3    H262997   3.904   2.108   0.313  1.4011 -1.4660 -0.3310
13836TIP3   OH262998   6.733   5.937  13.656 -0.1760  0.0089  0.3648
13836TIP3    H162999   6.747   5.911  13.747  0.2890  0.9381  0.5746
13836TIP3    H263000   6.801   5.889  13.607 -1.4683 -1.8050  0.2356
13837TIP3   OH263001   0.870   0.060   5.449 -0.0242  0.1991 -0.0556
13837TIP3    H163002   0.800   0.021   5.502  0.7373 -0.8064  0.2562
13837TIP3    H263003   0.845   0.041   5.359 -1.1039  1.5278 -0.0699
13838TIP3   OH263004   5.293   5.472   5.163  0.2223 -0.3074  1.4515
13838TIP3    H163005   5.328   5.561   5.169 -1.4329  0.5344 -0.4587
13838TIP3    H263006   5.263   5.453   5.252 -0.8659  1.6992  1.5753
13839TIP3   OH263007   6.838   6.233   4.376 -0.0508  0.2236 -0.1067
13839TIP3    H163008   6.786   6.272   4.446 -0.2538  1.8065 -1.0926
13839TIP3    H263009   6.927   6.231   4.411 -0.1696  0.8764  0.2379
13840TIP3   OH263010   3.447   3.498  12.380  0.2158 -0.5355 -0.4566
13840TIP3    H163011   3.425   3.410  12.350  0.0213 -0.3049 -1.0016
13840TIP3    H263012   3.367   3.531  12.422  0.1909 -0.5004 -0.5319
13841TIP3   OH263013   5.674   3.905  10.852  0.2848  0.0421 -0.0376
13841TIP3    H163014   5.627   3.926  10.772  1.2215  0.7182 -0.4326
13841TIP3    H263015   5.717   3.987  10.877  2.3154 -0.8422 -0.4412
13842TIP3   OH263016   1.588   5.543   3.267 -0.4767 -0.5566 -0.4962
13842TIP3    H163017   1.553   5.632   3.258  0.3805 -0.2319 -0.6796
13842TIP3    H263018   1.546   5.494   3.197  0.1136  0.0519 -1.2944
13843TIP3   OH263019   4.710   5.000   0.562 -0.0182  0.4189 -0.0642
13843TIP3    H163020   4.648   4.963   0.500 -0.7584  3.2602 -1.1662
13843TIP3    H263021   4.656   5.045   0.627  0.8509  0.2383  0.8197
13844TIP3   OH263022   2.931   4.465   5.054 -0.3003  0.0422  0.0308
13844TIP3    H163023   2.951   4.528   4.985 -0.4030 -0.7922 -0.7726
13844TIP3    H263024   2.896   4.518   5.126 -1.3359  0.8105 -1.0064
13845TIP3   OH263025   1.299   3.064   2.065 -0.7549 -0.1107  0.1161
13845TIP3    H163026   1.260   3.151   2.073  0.6056  0.6309 -0.9330
13845TIP3    H263027   1.392   3.080   2.048 -0.2472 -1.7963  1.0824
13846TIP3   OH263028   2.537   2.915  16.113 -0.6313 -0.6358  0.2026
13846TIP3    H163029   2.538   2.922  16.209  0.5113  0.2237  0.1549
13846TIP3    H263030   2.448   2.938  16.088 -0.2574  1.8962  0.9204
13847TIP3   OH263031   3.523   0.563   4.342  0.4738 -0.1035 -0.5266
13847TIP3    H163032   3.600   0.510   4.363  0.0456 -0.1873  0.9720
13847TIP3    H263033   3.527   0.575   4.247  2.2976 -0.1500 -0.4952
13848TIP3   OH263034   2.029   6.308  16.776 -0.4215  0.6369 -0.1361
13848TIP3    H163035   2.053   6.308  16.683 -0.3033 -0.6830 -0.1264
13848TIP3    H263036   1.965   6.237  16.783 -0.2953  0.6182  0.8282
13849TIP3   OH263037   2.629   4.440   4.139  0.3439  0.0862  0.3297
13849TIP3    H163038   2.671   4.453   4.224 -0.3206 -2.1056  1.0783
13849TIP3    H263039   2.690   4.385   4.091 -0.3278 -0.6833  0.3275
13850TIP3   OH263040   2.700   1.955   2.647 -0.3906 -0.2816  0.0737
13850TIP3    H163041   2.724   1.966   2.739  0.6547 -1.6600  0.0040
13850TIP3    H263042   2.628   1.892   2.649 -1.2472  0.6675  0.0057
13851TIP3   OH263043   1.731   5.570   1.366 -0.5613  0.2644 -0.0409
13851TIP3    H163044   1.733   5.487   1.320 -0.5763  0.5349 -0.5407
13851TIP3    H263045   1.770   5.552   1.451 -0.9811 -0.3536  0.0262
13852TIP3   OH263046   2.800   6.146   3.489  0.2019 -0.3989 -0.3383
13852TIP3    H163047   2.826   6.236   3.470  0.5446 -0.4676 -0.2043
13852TIP3    H263048   2.883   6.098   3.494 -0.0643 -1.2978 -3.1552
13853TIP3   OH263049   4.295   6.118   2.977  0.1526 -0.3967 -0.1015
13853TIP3    H163050   4.319   6.060   3.049 -0.8130 -0.3768  0.2515
13853TIP3    H263051   4.267   6.059   2.907 -2.8194 -0.4133  0.9528
13854TIP3   OH263052   4.489   6.197  11.357  0.2407  0.1035 -0.3971
13854TIP3    H163053   4.507   6.291  11.361 -0.2791  0.2200 -0.6133
13854TIP3    H263054   4.524   6.169  11.273  1.3436 -0.1151  0.1234
13855TIP3   OH263055   3.926   1.414  11.830  0.4505 -0.5122  0.2945
13855TIP3    H163056   3.963   1.374  11.909 -0.1249  0.4494  1.0755
13855TIP3    H263057   3.911   1.341  11.771  2.2353 -1.1004  0.5008
13856TIP3   OH263058   1.748   5.861  13.135 -0.2451  0.5501 -0.0569
13856TIP3    H163059   1.830   5.911  13.133  1.0363 -1.1458  3.2934
13856TIP3    H263060   1.681   5.926  13.155  0.8722  1.4482  0.9391
13857TIP3   OH263061   3.761   6.339   0.912 -0.0341 -0.5494 -0.5464
13857TIP3    H163062   3.732   6.421   0.872 -1.2586 -1.1634 -0.9895
13857TIP3    H263063   3.680   6.302   0.949  0.1168 -2.4661 -2.0320
13858TIP3   OH263064   4.819   3.339  14.863 -0.1502  0.4212 -0.3406
13858TIP3    H163065   4.818   3.352  14.958  0.1732 -2.1948  0.0885
13858TIP3    H263066   4.802   3.426  14.827 -2.7429  1.0823  2.1274
13859TIP3   OH263067   4.861   1.730   0.898 -0.4313 -0.2688  0.0568
13859TIP3    H163068   4.795   1.778   0.847 -0.4876  1.4021  1.5934
13859TIP3    H263069   4.813   1.699   0.975  0.3134 -0.0389  0.6233
13860TIP3   OH263070   3.780   0.239  11.880  0.5285  0.1747  0.5210
13860TIP3    H163071   3.689   0.239  11.908  1.0240 -2.0490  2.4216
13860TIP3    H263072   3.817   0.319  11.918 -0.5248  0.9633 -0.0561
13861TIP3   OH263073   4.534   1.415   2.960 -0.1178  0.1400 -0.8519
13861TIP3    H163074   4.547   1.359   3.037 -1.4224  0.2534 -0.5362
13861TIP3    H263075   4.595   1.380   2.895  0.1396 -0.7224 -0.1707
13862TIP3   OH263076   0.919   5.756   2.444 -0.0664 -0.1111  0.2155
13862TIP3    H163077   0.989   5.707   2.401 -0.0469  0.7035 -0.7309
13862TIP3    H263078   0.961   5.798   2.519  0.2624 -0.3121  0.1454
13863TIP3   OH263079   1.255   0.479   5.371 -0.8067  0.3758 -0.3348
13863TIP3    H163080   1.341   0.437   5.379 -1.2327 -0.2874  1.0053
13863TIP3    H263081   1.196   0.422   5.419 -1.9031  1.1227 -0.7608
13864TIP3   OH263082   0.944   0.848   5.089 -0.4596  0.4811 -0.4554
13864TIP3    H163083   1.011   0.905   5.126 -0.8460  0.8454 -0.3064
13864TIP3    H263084   0.979   0.822   5.004 -0.2145  0.8270 -0.4627
13865TIP3   OH263085   6.087   3.740   1.802  0.4273 -0.4715  0.1185
13865TIP3    H163086   6.096   3.687   1.881  1.4436 -1.3841 -0.5786
13865TIP3    H263087   6.177   3.761   1.777  0.0782  0.8165 -0.1481
13866TIP3   OH263088   1.805   5.487  12.702  0.2150 -0.0786 -0.4075
13866TIP3    H163089   1.885   5.498  12.753  0.4853 -0.6290 -0.7010
13866TIP3    H263090   1.747   5.557  12.732  0.5185 -0.1462  0.3547
13867TIP3   OH263091   3.536   5.610  12.836  0.0099 -0.1673 -0.0108
13867TIP3    H163092   3.517   5.704  12.836 -0.7143 -0.3055 -0.4122
13867TIP3    H263093   3.494   5.578  12.916 -1.9405 -0.5468 -1.1180
13868TIP3   OH263094   3.452   6.609  12.382  0.2166  0.1795 -0.1594
13868TIP3    H163095   3.546   6.622  12.366 -0.0579 -0.2281 -2.4970
13868TIP3    H263096   3.439   6.515  12.371 -0.3121  0.0686  1.2671
13869TIP3   OH263097   3.910   0.844   1.202 -0.2794 -0.5805  0.0845
13869TIP3    H163098   3.906   0.887   1.288  1.7493  0.5729 -0.3287
13869TIP3    H263099   3.990   0.791   1.206 -0.0906 -0.4036 -1.1333
13870TIP3   OH263100   0.654   1.866  15.434 -0.1953 -0.0406  0.1973
13870TIP3    H163101   0.619   1.784  15.401 -0.0789  0.3341 -0.9291
13870TIP3    H263102   0.694   1.844  15.518 -2.3326 -0.6361  1.1192
13871TIP3   OH263103   6.122   0.723   3.985 -0.1840  0.3124 -0.4399
13871TIP3    H163104   6.117   0.684   3.897 -1.4813 -0.5888  0.0003
13871TIP3    H263105   6.178   0.663   4.035 -0.8192 -0.1070 -0.2147
13872TIP3   OH263106   2.543   5.038   1.979 -0.3270 -0.7101  0.5665
13872TIP3    H163107   2.607   4.990   1.928 -0.9395 -1.5773  0.5924
13872TIP3    H263108   2.560   5.130   1.959  1.5277 -0.8501  1.3078
13873TIP3   OH263109   5.910   6.703   3.141 -0.6714  0.6235  0.1005
13873TIP3    H163110   5.913   6.789   3.183 -2.6115  1.7229 -1.7724
13873TIP3    H263111   5.837   6.658   3.185  1.8568 -1.1934  2.8031
13874TIP3   OH263112   5.781   4.707   3.232  0.3138 -0.2774  0.5368
13874TIP3    H163113   5.790   4.802   3.228  3.5251 -0.4952 -1.9187
13874TIP3    H263114   5.833   4.681   3.308  0.9802 -0.1705  0.1193
13875TIP3   OH263115   4.372   1.204   2.722 -0.7185  0.1867  0.4335
13875TIP3    H163116   4.358   1.256   2.643 -1.7532  0.0588  0.5090
13875TIP3    H263117   4.323   1.123   2.706  0.2486 -0.4505  0.6258
13876TIP3   OH263118   0.894   3.109  12.088 -0.2194  0.2206  0.3364
13876TIP3    H163119   0.898   3.028  12.039 -2.1125  0.5970 -0.4943
13876TIP3    H263120   0.858   3.173  12.027 -0.1834  1.3349  1.4359
13877TIP3   OH263121   0.129   5.224  12.855 -0.5082  0.1398 -0.5897
13877TIP3    H163122   0.120   5.132  12.880 -0.3186  0.1746 -0.3912
13877TIP3    H263123   0.167   5.220  12.767 -1.3350  0.0160 -0.9493
13878TIP3   OH263124   4.581   0.892   0.293  0.6804  0.0668  0.2707
13878TIP3    H163125   4.555   0.889   0.201  0.6115 -0.6588  0.3052
13878TIP3    H263126   4.505   0.927   0.339  0.4954 -0.1476  0.1270
13879TIP3   OH263127   3.562   4.793  16.383  0.3362  0.5624 -0.3599
13879TIP3    H163128   3.545   4.887  16.376  0.6211  0.6170 -0.3169
13879TIP3    H263129   3.650   4.781  16.348 -0.2506  0.0995 -1.7379
13880TIP3   OH263130   1.147   1.418   4.175 -0.0546 -0.2055  0.1353
13880TIP3    H163131   1.193   1.499   4.195  0.0635 -0.0804 -0.5924
13880TIP3    H263132   1.145   1.370   4.257  2.0283 -0.5228  0.0569
13881TIP3   OH263133   6.377   2.797  14.168 -0.5635 -0.1338 -0.6087
13881TIP3    H163134   6.413   2.774  14.253 -0.8505  0.5319 -0.3049
13881TIP3    H263135   6.454   2.805  14.111 -0.2329  0.9710 -0.0363
13882TIP3   OH263136   2.321   3.979  11.803 -0.1329 -0.1401  0.0385
13882TIP3    H163137   2.280   3.894  11.790 -1.4882  0.6218 -0.8946
13882TIP3    H263138   2.275   4.017  11.878 -0.0028  0.0495  0.0230
13883TIP3   OH263139   5.717   3.019   6.427  0.3465  0.3301  0.4547
13883TIP3    H163140   5.634   3.060   6.407  0.7160  1.3301  0.9176
13883TIP3    H263141   5.756   3.075   6.494  2.7009  1.5618 -1.7723
13884TIP3   OH263142   4.793   4.162   0.925 -0.1364 -0.2912  0.0089
13884TIP3    H163143   4.885   4.158   0.898  0.5022  1.6432  1.6412
13884TIP3    H263144   4.797   4.163   1.020 -1.9959 -1.7902  0.1566
13885TIP3   OH263145   1.222   4.595  13.238 -0.3067  0.6996  0.1041
13885TIP3    H163146   1.230   4.659  13.309  1.2943 -0.0648  0.6397
13885TIP3    H263147   1.263   4.638  13.163  1.3175  0.0935  0.6221
13886TIP3   OH263148   4.616   4.717   1.311 -0.1440 -0.2395  0.1013
13886TIP3    H163149   4.645   4.670   1.233 -2.6285 -0.7415 -0.6017
13886TIP3    H263150   4.596   4.648   1.374  0.4645  0.1007  0.6746
13887TIP3   OH263151   0.912   2.803  15.842  0.4586 -0.5543  0.1366
13887TIP3    H163152   0.925   2.728  15.784 -1.8132  0.3414 -1.6608
13887TIP3    H263153   0.885   2.874  15.784  2.7357  1.7994  1.7253
13888TIP3   OH263154   4.057   5.677  12.805  0.2910  0.2265 -1.1317
13888TIP3    H163155   4.121   5.742  12.831  1.3094 -0.5988 -1.5224
13888TIP3    H263156   4.065   5.607  12.870 -3.0083  1.7589  1.2424
13889TIP3   OH263157   6.687   5.062   0.542 -0.6798 -0.0572 -0.2778
13889TIP3    H163158   6.666   5.089   0.631 -0.3930 -0.6259 -0.0309
13889TIP3    H263159   6.742   5.133   0.508 -0.1473 -0.1970  0.2704
13890TIP3   OH263160   0.967   6.732  14.697 -0.0264  0.3739  0.0724
13890TIP3    H163161   0.922   6.800  14.648 -0.8314 -0.4730 -0.4059
13890TIP3    H263162   1.056   6.765  14.709 -0.1804  1.1493 -0.8522
13891TIP3   OH263163   0.313   0.697  14.947  0.4415  0.6584 -0.1283
13891TIP3    H163164   0.399   0.739  14.951  0.9033 -0.1615 -1.0373
13891TIP3    H263165   0.259   0.749  15.006  0.4819  3.6236 -2.4271
13892TIP3   OH263166   4.447   6.517  15.521  0.1313 -0.3649 -0.5336
13892TIP3    H163167   4.512   6.487  15.457 -0.1498 -3.2124  0.3588
13892TIP3    H263168   4.496   6.529  15.602 -0.2963 -2.0369  0.0166
13893TIP3   OH263169   6.174   6.732   4.451  0.0333  0.3086 -0.0159
13893TIP3    H163170   6.190   6.662   4.387 -1.1551  0.4716 -0.5193
13893TIP3    H263171   6.228   6.804   4.420  0.3193  0.0204 -0.2005
13894TIP3   OH263172   5.241   5.873  16.264 -0.5008 -0.2476  0.3764
13894TIP3    H163173   5.283   5.946  16.216 -2.1336  1.2384  1.1049
13894TIP3    H263174   5.218   5.811  16.195  2.6352 -1.0913 -0.0948
13895TIP3   OH263175   5.637   5.730  14.023 -0.0857  0.2053  0.4633
13895TIP3    H163176   5.693   5.760  14.095  1.1703  0.5372 -0.5981
13895TIP3    H263177   5.695   5.729  13.947 -1.5160  0.4684 -0.6785
13896TIP3   OH263178   4.913   4.869  14.326  0.0179  0.5811 -0.2635
13896TIP3    H163179   4.904   4.926  14.402  0.5915 -0.7190  0.8182
13896TIP3    H263180   4.886   4.924  14.252 -1.7667  1.5190  0.9851
13897TIP3   OH263181   1.325   4.755   4.790  0.2418 -0.2740 -0.0079
13897TIP3    H163182   1.321   4.815   4.864  0.1243  1.2608 -1.1964
13897TIP3    H263183   1.241   4.765   4.746  0.2827 -1.2130 -0.3198
13898TIP3   OH263184   5.089   1.296   1.536 -0.1006  0.1820  0.0220
13898TIP3    H163185   5.177   1.322   1.559 -0.4795  0.0097  1.7765
13898TIP3    H263186   5.057   1.246   1.611 -1.4690 -0.3139 -0.8311
13899TIP3   OH263187   6.722   2.729  11.784  0.2114  0.5235  0.6711
13899TIP3    H163188   6.755   2.642  11.809 -0.9973 -0.4989 -1.0848
13899TIP3    H263189   6.800   2.778  11.761  0.9073 -0.1408  1.5092
13900TIP3   OH263190   6.175   2.949   3.570  0.1121  0.4472 -0.2134
13900TIP3    H163191   6.144   3.039   3.557 -0.1592  0.6069  1.3152
13900TIP3    H263192   6.248   2.940   3.508  1.6673  2.5212  1.1380
13901TIP3   OH263193   5.299   4.461  15.704  0.1090 -0.5340 -0.1696
13901TIP3    H163194   5.263   4.386  15.751  1.5116 -1.3489 -0.3525
13901TIP3    H263195   5.284   4.441  15.611  2.5440 -1.7744 -0.3767
13902TIP3   OH263196   3.963   6.212   1.024 -0.1359 -0.5241  0.2890
13902TIP3    H163197   3.896   6.264   0.981 -0.5824 -0.4572  1.0570
13902TIP3    H263198   3.935   6.121   1.011  0.2752 -0.5619 -0.4374
13903TIP3   OH263199   5.391   3.158   5.886 -0.2169 -0.3360  0.3510
13903TIP3    H163200   5.362   3.219   5.818  0.6252 -1.1376 -0.7779
13903TIP3    H263201   5.310   3.122   5.922 -0.6913  0.4722  0.1202
13904TIP3   OH263202   4.389   4.695  16.076 -0.7302 -0.0201 -0.1603
13904TIP3    H163203   4.380   4.779  16.122  0.5599 -0.0460  0.1940
13904TIP3    H263204   4.305   4.681  16.033 -0.0095  3.0389 -2.9317
13905TIP3   OH263205   6.244   0.580  13.713 -0.2831  0.4910  0.3760
13905TIP3    H163206   6.178   0.590  13.780 -0.0653 -0.1485  0.6989
13905TIP3    H263207   6.301   0.510  13.746 -0.8883 -0.7279 -1.0240
13906TIP3   OH263208   3.367   5.547   3.867  0.0569  0.1921 -0.3337
13906TIP3    H163209   3.374   5.607   3.792  1.1212  0.0409 -0.3598
13906TIP3    H263210   3.305   5.591   3.926  0.2414  0.9562 -0.6933
13907TIP3   OH263211   6.606   3.442  10.883 -0.8609 -0.7364 -0.1518
13907TIP3    H163212   6.661   3.364  10.885 -0.4556 -0.4319  0.9327
13907TIP3    H263213   6.626   3.483  10.799 -0.5965 -1.4470 -0.4437
13908TIP3   OH263214   5.355   4.007   0.901  0.4184 -0.4653  0.4613
13908TIP3    H163215   5.315   4.045   0.823 -0.0013 -1.5037  0.1559
13908TIP3    H263216   5.433   4.060   0.915  0.4505 -0.1892 -0.6113
13909TIP3   OH263217   1.185   3.989  12.873  0.2859  0.1126 -0.1194
13909TIP3    H163218   1.091   3.990  12.894  0.1129  0.6636 -0.8717
13909TIP3    H263219   1.188   3.979  12.778  0.9962  0.1247 -0.1024
13910TIP3   OH263220   5.437   3.437  14.503  0.1389 -0.1694  0.1416
13910TIP3    H163221   5.486   3.436  14.420 -1.4521 -0.4954 -0.8305
13910TIP3    H263222   5.360   3.383  14.486 -1.5412  1.8593  1.0185
13911TIP3   OH263223   5.462   5.265   6.501  0.7173 -0.6914  0.2657
13911TIP3    H163224   5.461   5.347   6.453  0.0482 -0.3724  0.7983
13911TIP3    H263225   5.415   5.203   6.445  1.6584 -0.8494 -0.3597
13912TIP3   OH263226   5.064   6.009  15.928 -0.4212 -0.5397  0.2480
13912TIP3    H163227   5.130   6.039  15.866 -0.2166 -2.2642 -0.4408
13912TIP3    H263228   5.042   6.086  15.980  1.8738  0.1822  0.2601
13913TIP3   OH263229   3.312   3.068  13.649 -0.3100 -0.2396 -0.0741
13913TIP3    H163230   3.379   3.066  13.581 -0.9369  0.1280 -0.7202
13913TIP3    H263231   3.250   3.000  13.624 -0.7663  0.1846 -0.1154
13914TIP3   OH263232   2.870   0.901  13.822  0.1627 -0.0671  0.2893
13914TIP3    H163233   2.885   0.898  13.917 -0.5841 -0.0517  0.4168
13914TIP3    H263234   2.933   0.965  13.790 -0.4586  0.9057  0.9621
13915TIP3   OH263235   2.604   1.432  15.262  0.0760 -0.3123  0.2256
13915TIP3    H163236   2.546   1.473  15.325  0.4821 -3.5459  2.9651
13915TIP3    H263237   2.567   1.345  15.247  1.1945 -0.4582 -2.4003
13916TIP3   OH263238   3.737   1.568   2.350  0.2713  0.7219 -0.5295
13916TIP3    H163239   3.788   1.490   2.370  0.7026  0.8017 -1.2904
13916TIP3    H263240   3.646   1.539   2.356  0.4273  0.1359 -0.8781
13917TIP3   OH263241   5.458   3.471  16.977 -0.1335  0.4638  0.3160
13917TIP3    H163242   5.380   3.419  16.995  0.0831 -0.0846 -0.2838
13917TIP3    H263243   5.443   3.508  16.890 -0.4221  1.6775  0.8649
13918TIP3   OH263244   5.372   4.414   2.740 -0.4163 -0.2429  0.6145
13918TIP3    H163245   5.379   4.335   2.793 -2.0257  0.1750  1.5050
13918TIP3    H263246   5.287   4.408   2.698 -0.1391  0.5458 -0.1019
13919TIP3   OH263247   3.370   5.447   6.139  0.4685 -0.4052  0.4847
13919TIP3    H163248   3.389   5.442   6.045 -0.1452 -2.9091  0.4216
13919TIP3    H263249   3.455   5.432   6.181  0.5225 -0.6259  0.3005
13920TIP3   OH263250   2.856   3.049  14.852  0.7066  0.1533 -0.7381
13920TIP3    H163251   2.832   2.965  14.813  1.1868  0.2374 -1.2298
13920TIP3    H263252   2.815   3.049  14.938  1.0606 -0.7631 -0.5657
13921TIP3   OH263253   3.042   3.663   2.599 -0.1922  0.4009  0.7302
13921TIP3    H163254   3.054   3.575   2.635 -2.5028 -0.1181  0.3790
13921TIP3    H263255   2.977   3.704   2.657  0.5136  1.7402  0.6206
13922TIP3   OH263256   1.841   3.616   1.285  0.1155 -0.1231 -0.3045
13922TIP3    H163257   1.855   3.603   1.191  0.8363 -2.2581  0.0318
13922TIP3    H263258   1.787   3.695   1.291  0.1129  0.1063 -2.4891
13923TIP3   OH263259   2.975   6.560   3.934 -0.2176  0.2089 -0.4977
13923TIP3    H163260   3.024   6.620   3.879 -0.4016 -0.1709 -1.0793
13923TIP3    H263261   2.941   6.493   3.874  1.4807 -1.4921  0.3066
13924TIP3   OH263262   3.004   3.648   3.958 -0.2734 -0.2713  0.1389
13924TIP3    H163263   2.956   3.636   4.040 -0.2140  0.6100  0.3039
13924TIP3    H263264   3.034   3.560   3.935  1.4953 -0.2634  2.1269
13925TIP3   OH263265   1.018   1.796   0.873 -0.3659 -0.2765  0.8150
13925TIP3    H163266   1.079   1.761   0.938 -0.2855 -0.8263  0.4420
13925TIP3    H263267   0.969   1.721   0.842  1.1628 -0.4397 -1.4374
13926TIP3   OH263268   3.825   4.866   2.203 -0.2401  0.4487 -0.1335
13926TIP3    H163269   3.812   4.809   2.279 -0.0025  1.4843  0.7123
13926TIP3    H263270   3.782   4.948   2.228  0.6990  1.1336 -0.7177
13927TIP3   OH263271   1.695   4.699   1.010  0.3452 -0.4485  0.0264
13927TIP3    H163272   1.671   4.766   0.947 -0.4067  1.1075  1.8647
13927TIP3    H263273   1.618   4.642   1.015 -0.7398  1.0575  1.5233
13928TIP3   OH263274   5.138   1.501  14.414 -0.2492 -0.3109  0.3518
13928TIP3    H163275   5.062   1.443  14.404 -0.0580 -0.2045 -2.3579
13928TIP3    H263276   5.104   1.589  14.400 -0.0466  0.0036  1.7124
13929TIP3   OH263277   0.948   1.227  15.981  0.1569 -0.7544 -0.8173
13929TIP3    H163278   1.009   1.216  16.055 -0.4097 -1.9176 -0.5031
13929TIP3    H263279   0.965   1.315  15.949  1.2030 -0.6413 -0.0013
13930TIP3   OH263280   5.298   4.449  12.603 -0.5299 -0.0475  0.1045
13930TIP3    H163281   5.235   4.391  12.647 -1.1136 -0.0316 -0.6919
13930TIP3    H263282   5.371   4.454  12.664 -1.1855 -0.2769  0.9389
13931TIP3   OH263283   4.203   5.332   6.360  0.4794  0.1843  0.6154
13931TIP3    H163284   4.122   5.352   6.408 -1.0471 -0.9293 -1.3623
13931TIP3    H263285   4.200   5.237   6.347  0.7921  0.4326 -1.6614
13932TIP3   OH263286   2.269   5.760   0.313  0.0745  0.1134  0.4728
13932TIP3    H163287   2.243   5.791   0.226 -0.7814  0.0312  0.6891
13932TIP3    H263288   2.356   5.798   0.327 -0.3386  1.2350  0.1346
13933TIP3   OH263289   3.137   5.236  15.060 -0.2170  0.4415  0.4648
13933TIP3    H163290   3.078   5.277  14.996 -0.2635  2.1700  1.5398
13933TIP3    H263291   3.224   5.247  15.023 -0.4091 -0.7039 -0.3860
13934TIP3   OH263292   2.295   2.026   0.818 -0.0224 -0.4046  0.5287
13934TIP3    H163293   2.375   2.078   0.809 -1.1484  1.3990  0.4014
13934TIP3    H263294   2.299   1.992   0.907  1.0971 -0.7067  0.3728
13935TIP3   OH263295   2.665   1.401   5.466  0.1510 -0.3170 -0.0657
13935TIP3    H163296   2.576   1.374   5.487  0.0944  0.1939  0.3725
13935TIP3    H263297   2.656   1.490   5.432  0.2944 -0.9343 -1.8262
13936TIP3   OH263298   4.083   0.108  11.864 -0.4642  0.1543  0.0128
13936TIP3    H163299   4.069   0.115  11.769 -0.1473  1.8284  0.0513
13936TIP3    H263300   3.999   0.132  11.902 -0.4843 -0.1465  0.1563
13937TIP3   OH263301   1.482   6.191   5.696  0.4722 -0.3114 -0.3690
13937TIP3    H163302   1.423   6.208   5.623  0.4559 -0.1595 -0.3203
13937TIP3    H263303   1.513   6.278   5.723 -0.6834 -0.2164  0.7762
13938TIP3   OH263304   4.568   2.691  13.036  0.2878  0.5204 -0.1640
13938TIP3    H163305   4.653   2.735  13.042  0.7377 -0.5146  1.8927
13938TIP3    H263306   4.578   2.627  12.965  0.4298  1.9239 -1.4733
13939TIP3   OH263307   2.569   5.838   0.235 -0.0623 -0.2066  0.3029
13939TIP3    H163308   2.616   5.835   0.152 -0.8698 -0.5019 -0.1503
13939TIP3    H263309   2.588   5.925   0.270 -1.6655  0.8839 -1.3684
13940TIP3   OH263310   4.522   5.299   1.945  0.3359 -0.8645  0.6155
13940TIP3    H163311   4.489   5.209   1.953  0.1046 -0.8264  0.1240
13940TIP3    H263312   4.606   5.290   1.899 -0.3909 -0.7102 -0.7952
13941TIP3   OH263313   0.276   0.730   2.498  0.1196 -0.1095 -0.3958
13941TIP3    H163314   0.195   0.696   2.460 -1.2930  0.6245  1.8001
13941TIP3    H263315   0.258   0.823   2.515  1.5576  0.1592 -0.2074
13942TIP3   OH263316   4.392   4.727   2.587  0.5595 -0.0744 -1.0854
13942TIP3    H163317   4.442   4.647   2.572  0.7378 -0.2011  0.1274
13942TIP3    H263318   4.302   4.697   2.597  0.6387 -0.1356 -0.5444
13943TIP3   OH263319   6.855   4.530   1.426  0.1209  0.6372  0.6955
13943TIP3    H163320   6.904   4.454   1.394 -1.7027  0.0109 -0.7852
13943TIP3    H263321   6.907   4.605   1.397  0.7426 -0.0066  0.0835
13944TIP3   OH263322   4.604   6.507   0.664  0.3132 -0.5992 -0.0541
13944TIP3    H163323   4.567   6.594   0.683  0.8233  0.4999 -3.3587
13944TIP3    H263324   4.530   6.447   0.675 -0.0474  0.1521  2.3258
13945TIP3   OH263325   0.271   2.658  17.097 -0.6062  0.7227 -0.3547
13945TIP3    H163326   0.313   2.666  17.012 -0.6471  1.9588 -0.2722
13945TIP3    H263327   0.216   2.736  17.104 -0.1477  0.9474  1.0519
13946TIP3   OH263328   5.828   1.626  14.545  0.4393  0.5761 -0.5589
13946TIP3    H163329   5.854   1.534  14.543 -0.9239  0.1580  0.0314
13946TIP3    H263330   5.749   1.628  14.599  0.2614  2.0565 -0.8213
13947TIP3   OH263331   1.922   3.477  13.104 -0.2052 -0.3658 -0.7824
13947TIP3    H163332   1.906   3.506  13.194 -0.7265  0.3352 -1.0917
13947TIP3    H263333   2.008   3.436  13.108 -0.1860 -0.2751  0.0249
13948TIP3   OH263334   4.430   6.020  14.038  0.3174  0.7170 -0.0452
13948TIP3    H163335   4.511   6.065  14.061  1.8284 -2.2247  0.9276
13948TIP3    H263336   4.416   6.041  13.945  2.4961  0.9186 -0.3806
13949TIP3   OH263337   0.549   6.663  14.015  0.0149  0.5723  0.4610
13949TIP3    H163338   0.535   6.587  13.958 -0.9771  0.6655  0.5481
13949TIP3    H263339   0.497   6.733  13.975  1.5106  1.4476 -0.0355
13950TIP3   OH263340   5.107   1.745  16.237  0.0367  0.2009  0.4978
13950TIP3    H163341   5.058   1.764  16.317  1.2709  0.8764  1.1042
13950TIP3    H263342   5.198   1.736  16.265  0.3845 -0.3239 -0.7211
13951TIP3   OH263343   0.728   1.411  13.900 -0.3874 -0.1094  0.1412
13951TIP3    H163344   0.652   1.447  13.946 -0.7392  1.7088 -1.7079
13951TIP3    H263345   0.802   1.465  13.930 -0.2103 -0.4121  0.2575
13952TIP3   OH263346   3.081   5.784  16.573 -0.5023  0.4328 -0.4709
13952TIP3    H163347   3.150   5.825  16.520 -0.3616 -0.5888 -1.1203
13952TIP3    H263348   3.064   5.701  16.529 -0.8250 -0.1741  0.7585
13953TIP3   OH263349   3.331   3.589  14.111 -0.5992  0.0140  0.6694
13953TIP3    H163350   3.355   3.513  14.164 -0.0161 -1.4852 -1.6114
13953TIP3    H263351   3.248   3.565  14.070 -1.3501  1.3938  1.3028
13954TIP3   OH263352   0.770   1.388  15.730 -0.3280  0.1942 -0.3515
13954TIP3    H163353   0.754   1.367  15.822  1.9190 -1.2517 -0.1977
13954TIP3    H263354   0.775   1.483  15.727 -1.4171  0.3048  0.8231
13955TIP3   OH263355   5.062   0.454  15.379  0.7537  0.3318 -0.2658
13955TIP3    H163356   4.988   0.482  15.326  0.2672 -0.7935 -0.2130
13955TIP3    H263357   5.058   0.509  15.457  0.6369  1.0301 -0.7574
13956TIP3   OH263358   4.148   2.348  14.664 -0.2071  0.3319  0.2485
13956TIP3    H163359   4.165   2.323  14.573 -1.1368  1.2567 -0.1950
13956TIP3    H263360   4.233   2.380  14.696  0.8736 -2.5681  0.6380
13957TIP3   OH263361   2.267   6.357  12.649  0.5195  0.4059 -0.1916
13957TIP3    H163362   2.324   6.434  12.652  2.5070 -0.9760 -0.6965
13957TIP3    H263363   2.294   6.304  12.724 -0.5338 -0.0229 -0.0889
13958TIP3   OH263364   2.538   6.743  14.625  0.2650 -0.0577  0.7170
13958TIP3    H163365   2.531   6.808  14.555 -2.0580  1.2477  2.0190
13958TIP3    H263366   2.604   6.780  14.684  1.0411 -0.3474  0.0463
13959TIP3   OH263367   0.410   3.692  13.302 -0.5010  0.1695  0.2893
13959TIP3    H163368   0.386   3.637  13.228  0.7292  0.4893 -0.3719
13959TIP3    H263369   0.489   3.738  13.274 -0.7353  1.2781  1.3190
13960TIP3   OH263370   1.366   0.690   2.687  0.1814  0.2889 -0.6727
13960TIP3    H163371   1.307   0.634   2.736 -0.6945  2.1046  0.4809
13960TIP3    H263372   1.452   0.648   2.694 -0.6323 -1.4702 -0.8641
13961TIP3   OH263373   3.355   5.181  14.703  0.5635  0.7497  0.7360
13961TIP3    H163374   3.293   5.193  14.630  0.9956  0.4468  0.3181
13961TIP3    H263375   3.393   5.268  14.716 -1.2249  1.3998  2.1848
13962TIP3   OH263376   5.873   6.411  13.409  0.6860 -0.1159  0.8718
13962TIP3    H163377   5.894   6.427  13.502 -1.0598  2.3331  0.9559
13962TIP3    H263378   5.921   6.479  13.363  0.0528 -0.1228  0.1879
13963TIP3   OH263379   3.062   0.836   5.445  0.2583  0.2653 -0.3570
13963TIP3    H163380   3.095   0.747   5.455  0.7301  0.6346  2.4233
13963TIP3    H263381   2.975   0.834   5.485 -0.5444  0.6775 -2.0052
13964TIP3   OH263382   2.981   3.714   5.261 -0.7804 -0.1693 -0.0275
13964TIP3    H163383   3.064   3.695   5.304 -0.2142  2.0638 -0.0438
13964TIP3    H263384   2.933   3.631   5.265  1.3266 -1.4528  0.1758
13965TIP3   OH263385   3.316   5.515  12.668 -0.1481  0.4126 -0.1927
13965TIP3    H163386   3.389   5.537  12.725 -0.1438  2.6904 -0.9809
13965TIP3    H263387   3.254   5.587  12.680 -1.1204 -0.1896 -1.4176
13966TIP3   OH263388   5.345   3.034   5.284  0.2032  0.3304  0.2203
13966TIP3    H163389   5.308   3.119   5.307 -1.4392 -0.4442  0.6123
13966TIP3    H263390   5.343   3.032   5.188  1.4796  1.2180  0.1509
13967TIP3   OH263391   4.663   3.504  12.510  0.2262  0.2950  0.9605
13967TIP3    H163392   4.610   3.584  12.512  0.9181  0.7483  1.8982
13967TIP3    H263393   4.674   3.484  12.417 -2.5537 -0.4704  0.6886
13968TIP3   OH263394   4.085   3.377  16.847 -0.3128 -0.3397 -0.1232
13968TIP3    H163395   4.015   3.372  16.782 -0.0755  0.2688 -0.4300
13968TIP3    H263396   4.114   3.286  16.858  0.5737 -0.3113 -1.8842
13969TIP3   OH263397   5.789   5.499   6.142 -0.5983 -0.7206  0.1937
13969TIP3    H163398   5.819   5.510   6.232  1.5839 -0.7885 -0.4699
13969TIP3    H263399   5.862   5.456   6.097 -1.0289  0.6304 -1.9532
13970TIP3   OH263400   1.303   5.617  16.422 -0.2839 -0.8579  0.0935
13970TIP3    H163401   1.382   5.642  16.374  1.0642  0.0786  2.6071
13970TIP3    H263402   1.323   5.637  16.513 -3.0021 -1.7638  0.9908
13971TIP3   OH263403   1.626   5.155  13.618  0.3365 -0.4704  0.3594
13971TIP3    H163404   1.698   5.135  13.678  1.0421 -0.6736 -0.5252
13971TIP3    H263405   1.669   5.165  13.533 -0.4755  1.0383  0.0970
13972TIP3   OH263406   5.942   4.878  15.540  0.1108  0.0528  0.2323
13972TIP3    H163407   6.021   4.833  15.571 -0.2207 -1.5326 -1.0739
13972TIP3    H263408   5.956   4.889  15.446 -0.2209  1.9555  0.3639
13973TIP3   OH263409   2.378   4.983  14.030 -0.2294  0.4068  0.4426
13973TIP3    H163410   2.400   4.890  14.028  1.3388  0.7516 -0.0343
13973TIP3    H263411   2.295   4.989  13.982  0.3574 -0.5900 -0.7492
13974TIP3   OH263412   1.909   3.750  16.732  0.1492 -0.3072 -0.0446
13974TIP3    H163413   1.968   3.729  16.805 -1.4660 -0.6108  1.2501
13974TIP3    H263414   1.966   3.783  16.663  2.1124 -2.8036  0.2281
13975TIP3   OH263415   4.690   0.153  13.296  0.9038 -0.0397 -0.1162
13975TIP3    H163416   4.734   0.215  13.238 -1.0185  1.0247 -0.5324
13975TIP3    H263417   4.655   0.207  13.367 -1.6677 -0.3933 -0.9936
13976TIP3   OH263418   5.130   1.100   4.661 -0.6490  0.4287 -0.6334
13976TIP3    H163419   5.182   1.150   4.598 -0.5625  0.0687 -0.8472
13976TIP3    H263420   5.165   1.011   4.657  0.0739  0.6310  0.7145
13977TIP3   OH263421   5.208   6.520   5.092  0.0525 -0.0961  0.1921
13977TIP3    H163422   5.162   6.591   5.046  0.3775 -0.1820 -0.2730
13977TIP3    H263423   5.197   6.444   5.034  0.3494 -0.2406  0.3251
13978TIP3   OH263424   2.031   1.464  10.659  0.5189 -0.0157 -0.2931
13978TIP3    H163425   2.038   1.369  10.667  1.3144  0.1454  1.5268
13978TIP3    H263426   2.023   1.480  10.565 -1.3222 -1.9570 -0.5322
13979TIP3   OH263427   0.581   2.193  16.479  0.8840  0.3264  0.1747
13979TIP3    H163428   0.595   2.184  16.385  0.0546 -0.5560  0.1197
13979TIP3    H263429   0.615   2.112  16.516 -0.6252 -0.2346  0.4079
13980TIP3   OH263430   0.544   0.457   4.083 -0.1144 -0.0214 -0.0248
13980TIP3    H163431   0.537   0.460   4.178  1.4948 -0.4597  0.1256
13980TIP3    H263432   0.637   0.471   4.065 -0.4652  0.5298 -1.5575
13981TIP3   OH263433   6.403   1.726  14.842 -0.1245  0.0261 -0.6116
13981TIP3    H163434   6.462   1.666  14.888 -1.1500 -1.5060 -1.1946
13981TIP3    H263435   6.434   1.726  14.752 -0.7866 -0.5381 -0.8524
13982TIP3   OH263436   4.515   2.012  16.569 -0.6440  0.0377  0.0875
13982TIP3    H163437   4.565   1.941  16.530 -1.7602 -0.5807 -0.2498
13982TIP3    H263438   4.466   1.970  16.640  0.3739  0.9003  1.3557
13983TIP3   OH263439   4.814   0.723  15.344 -0.2571 -0.0799  0.0629
13983TIP3    H163440   4.722   0.698  15.343 -0.5331  0.8862 -0.5588
13983TIP3    H263441   4.849   0.683  15.424 -1.1881 -0.5338  0.2580
13984TIP3   OH263442   0.285   3.294  15.314  0.0253  0.0155 -0.4494
13984TIP3    H163443   0.360   3.311  15.258 -0.0686  1.6084 -0.1467
13984TIP3    H263444   0.211   3.336  15.269 -0.0054  1.5398  0.9359
13985TIP3   OH263445   1.324   3.790  15.473 -0.4403  0.9365  0.0132
13985TIP3    H163446   1.291   3.777  15.562  1.2777  1.8549  0.8300
13985TIP3    H263447   1.325   3.702  15.435 -1.5500  0.5854  0.7571
13986TIP3   OH263448   2.530   3.994   2.777  0.5575 -0.0130 -0.0386
13986TIP3    H163449   2.449   4.042   2.793  1.2209  0.3603  2.9277
13986TIP3    H263450   2.585   4.055   2.729  0.8868  1.8609  2.4795
13987TIP3   OH263451   2.648   5.712  11.185 -0.8121 -0.8523 -0.4325
13987TIP3    H163452   2.614   5.632  11.145 -0.2730 -1.7832  0.8721
13987TIP3    H263453   2.676   5.684  11.273 -1.0384  0.8760  0.2203
13988TIP3   OH263454   0.963   1.573   5.184 -0.3181 -0.1484 -0.0008
13988TIP3    H163455   0.892   1.619   5.229 -0.0205  0.3199  0.0051
13988TIP3    H263456   0.986   1.631   5.111  1.1375  0.5173  0.9279
13989TIP3   OH263457   3.913   0.283  16.907  0.4260  0.0525 -0.5265
13989TIP3    H163458   3.905   0.261  16.815  2.0628  1.0373 -0.9590
13989TIP3    H263459   3.936   0.377  16.908 -0.2105  0.2256  0.9042
13990TIP3   OH263460   5.677   6.302   4.571 -0.1675 -0.6686 -0.6908
13990TIP3    H163461   5.697   6.254   4.491 -1.5932  1.6708 -2.5848
13990TIP3    H263462   5.586   6.331   4.559  1.3162  4.8140 -1.1119
13991TIP3   OH263463   1.984   5.870  13.769 -0.4625  0.6618 -0.3287
13991TIP3    H163464   1.993   5.777  13.750 -0.4904  0.2790  1.3736
13991TIP3    H263465   1.917   5.874  13.838  0.8283  1.7589  0.9222
13992TIP3   OH263466   3.474   6.501  16.527  0.1114  0.8110  0.4219
13992TIP3    H163467   3.480   6.448  16.607  2.9277 -0.6145 -0.6071
13992TIP3    H263468   3.439   6.585  16.557  3.2878  1.2112  3.7027
13993TIP3   OH263469   3.827   6.396   0.348 -0.1667  0.3150  0.0831
13993TIP3    H163470   3.922   6.393   0.337 -0.1366 -0.2594  0.4675
13993TIP3    H263471   3.792   6.406   0.259  0.2243 -0.1953 -0.1281
13994TIP3   OH263472   3.256   3.613  16.515 -0.3156  0.6240 -0.2053
13994TIP3    H163473   3.292   3.697  16.544  1.5403  0.3454 -1.4803
13994TIP3    H263474   3.333   3.557  16.504 -1.4983 -1.1984  0.4210
13995TIP3   OH263475   4.615   5.411  17.018 -0.1415 -0.2886 -0.2476
13995TIP3    H163476   4.668   5.476  17.065 -0.5306  0.4341 -0.7756
13995TIP3    H263477   4.592   5.346  17.084  0.8397 -0.2567  0.1371
13996TIP3   OH263478   2.219   5.665  16.027 -0.5751  0.3004 -0.1257
13996TIP3    H163479   2.291   5.614  15.988 -0.4577 -0.1233  0.6286
13996TIP3    H263480   2.151   5.600  16.045 -1.1246  0.6862 -0.7401
13997TIP3   OH263481   5.022   0.860  14.908  0.0307 -0.3122  0.2129
13997TIP3    H163482   5.102   0.891  14.866 -0.0466 -1.2093 -0.6275
13997TIP3    H263483   4.955   0.924  14.881  0.4236  0.3502  0.7902
13998TIP3   OH263484   6.257   5.579  12.044 -0.4298  0.5979  0.6412
13998TIP3    H163485   6.169   5.559  12.013  0.3832 -1.6437 -0.4705
13998TIP3    H263486   6.301   5.618  11.968 -0.1469  0.6550  0.8338
13999TIP3   OH263487   3.759   0.152   0.532 -0.3923 -0.2398 -0.3969
13999TIP3    H163488   3.670   0.177   0.556  0.5176  1.5235  1.5286
13999TIP3    H263489   3.752   0.061   0.503 -3.1069  0.5219 -2.5269
14000TIP3   OH263490   6.826   0.310   3.623  0.1900  0.4241  0.3263
14000TIP3    H163491   6.819   0.217   3.600  2.7083  0.6177 -1.7149
14000TIP3    H263492   6.916   0.321   3.653 -0.1576  2.1715  0.8503
14001TIP3   OH263493   2.303   0.621   1.602 -0.1824  0.1829  0.1656
14001TIP3    H163494   2.216   0.596   1.570  0.5681 -2.1181 -0.3085
14001TIP3    H263495   2.362   0.596   1.531  1.0157  0.0963  1.1615
14002TIP3   OH263496   6.754   1.541  12.587 -0.0035  0.4201  0.3195
14002TIP3    H163497   6.665   1.569  12.567  0.2774  0.7630 -0.5201
14002TIP3    H263498   6.804   1.563  12.508  0.6258 -0.6761  0.3960
14003TIP3   OH263499   4.658   2.661   0.370  0.0711  0.5060  0.2361
14003TIP3    H163500   4.703   2.742   0.346  0.4885  0.6230  1.3732
14003TIP3    H263501   4.699   2.634   0.452 -1.3223  0.1356  0.8425
14004TIP3   OH263502   3.462   6.039  12.647 -0.4922  0.1736  0.6503
14004TIP3    H163503   3.536   6.010  12.701 -0.5991 -1.2777  0.0776
14004TIP3    H263504   3.436   6.123  12.685  2.2398  1.4033  0.0744
14005TIP3   OH263505   5.574   1.531   4.461 -0.4330 -0.1646  0.1891
14005TIP3    H163506   5.637   1.593   4.426 -0.0528 -1.6580 -1.9565
14005TIP3    H263507   5.627   1.471   4.514 -0.4725  0.0434  0.4704
14006TIP3   OH263508   0.672   3.587   5.648 -0.5942  0.7379  0.4230
14006TIP3    H163509   0.611   3.559   5.716 -1.6222  0.4389 -0.5990
14006TIP3    H263510   0.750   3.533   5.662 -2.0673 -1.8733 -0.7409
14007TIP3   OH263511   6.417   5.758  15.110 -0.2399  0.2928  0.0037
14007TIP3    H163512   6.416   5.851  15.133  1.1276  0.1353  0.8144
14007TIP3    H263513   6.393   5.713  15.191 -2.1975 -0.0442 -0.7172
14008TIP3   OH263514   6.602   1.912   5.730 -0.1483 -0.2276  0.2477
14008TIP3    H163515   6.618   1.938   5.639  1.2634 -0.7272  0.3285
14008TIP3    H263516   6.527   1.852   5.726  0.2636 -0.6947 -0.6674
14009TIP3   OH263517   6.147   5.464  12.781  0.4716 -0.5676  0.0466
14009TIP3    H163518   6.172   5.502  12.865 -0.1037 -0.7431  0.3016
14009TIP3    H263519   6.182   5.524  12.715  0.6443 -0.2616  0.4167
14010TIP3   OH263520   2.649   5.920  12.631  0.5867 -0.1782 -0.1184
14010TIP3    H163521   2.733   5.874  12.633 -0.8200 -3.0349 -0.5574
14010TIP3    H263522   2.646   5.969  12.713  2.2008 -0.9541  0.4404
14011TIP3   OH263523   2.166   5.276   5.309  0.2561 -0.3113 -0.8269
14011TIP3    H163524   2.080   5.295   5.270  0.1093 -1.8721 -1.3307
14011TIP3    H263525   2.217   5.238   5.237  1.2174  0.1508 -0.4056
14012TIP3   OH263526   5.744   6.680   1.625  0.3974 -0.2825 -0.0866
14012TIP3    H163527   5.715   6.620   1.693  0.2080 -0.6730 -0.5035
14012TIP3    H263528   5.687   6.756   1.634  1.2550  0.2566  1.0528
14013TIP3   OH263529   4.231   6.138   0.879  0.6572  0.0490  0.5816
14013TIP3    H163530   4.295   6.127   0.950  2.3507  2.9730 -0.3123
14013TIP3    H263531   4.157   6.182   0.920  1.4888  1.4253  0.6522
14014TIP3   OH263532   0.915   4.797   1.699 -0.5894 -0.2901 -0.7841
14014TIP3    H163533   0.935   4.860   1.767 -3.7668  1.0187 -0.9129
14014TIP3    H263534   0.917   4.848   1.618 -0.4579 -1.0043 -1.2396
14015TIP3   OH263535   4.065   6.357   0.714  0.4570 -0.0453  0.5007
14015TIP3    H163536   4.051   6.262   0.717 -0.6277  0.1279  2.1608
14015TIP3    H263537   3.980   6.393   0.689  0.8344  0.5091 -0.0138
14016TIP3   OH263538   2.083   1.544  11.303  0.2672  0.7872  0.5201
14016TIP3    H163539   2.119   1.479  11.364  0.7741 -0.3847 -0.9464
14016TIP3    H263540   2.040   1.491  11.236 -0.5607  2.0469  0.0384
14017TIP3   OH263541   3.358   5.206  14.144  0.8354  0.1835 -0.0082
14017TIP3    H163542   3.446   5.192  14.110  0.8291 -2.1829  0.7119
14017TIP3    H263543   3.371   5.239  14.233  1.0205 -0.3530  0.1684
14018TIP3   OH263544   6.577   5.499  11.945 -0.0434 -0.5335  0.4305
14018TIP3    H163545   6.554   5.433  12.011 -0.9746 -0.9969 -0.3366
14018TIP3    H263546   6.670   5.515  11.960  0.3375 -2.3908  0.3418
14019TIP3   OH263547   5.109   5.172   2.994 -0.0972  0.0418 -0.1561
14019TIP3    H163548   5.114   5.175   2.898 -1.7115 -3.0316 -0.4705
14019TIP3    H263549   5.197   5.193   3.023  1.1453 -1.4203 -2.4898
14020TIP3   OH263550   1.880   4.669   1.196 -0.2995 -0.5136 -0.8314
14020TIP3    H163551   1.954   4.641   1.141  1.1374  1.5913 -0.1015
14020TIP3    H263552   1.806   4.674   1.135  0.4191 -1.5074 -1.8441
14021TIP3   OH263553   1.808   0.221   6.039 -0.0836  0.2822  0.0082
14021TIP3    H163554   1.766   0.191   6.119 -0.6712 -0.3864 -0.5300
14021TIP3    H263555   1.750   0.290   6.006 -0.9262 -0.7862 -0.8471
14022TIP3   OH263556   4.712   3.700  12.803 -0.2015 -0.0412  0.6016
14022TIP3    H163557   4.806   3.716  12.812  0.3421 -2.2647 -0.5695
14022TIP3    H263558   4.676   3.723  12.889  1.4062  0.6907  1.1239
14023TIP3   OH263559   0.949   6.041  13.898 -0.2962 -0.3196  0.1897
14023TIP3    H163560   1.010   5.970  13.876 -1.3207 -0.7297 -1.5880
14023TIP3    H263561   0.917   6.071  13.813  0.5107  2.6974  0.8377
14024TIP3   OH263562   4.939   0.069   5.380  0.0654 -0.2477  0.0585
14024TIP3    H163563   4.847   0.064   5.357  0.2451  1.0201 -1.0706
14024TIP3    H263564   4.940   0.119   5.462 -0.2182  0.4645 -0.3596
14025TIP3   OH263565   6.800   6.100  13.993 -0.2843 -0.1522  0.0070
14025TIP3    H163566   6.726   6.039  13.996  0.2978 -0.8334  0.9843
14025TIP3    H263567   6.877   6.044  13.996  0.2827  0.5757 -0.5569
14026TIP3   OH263568   5.032   4.134  13.554  0.3248 -0.1273  0.0163
14026TIP3    H163569   5.050   4.099  13.467  0.9126  1.0989 -0.3655
14026TIP3    H263570   4.969   4.204  13.539  0.2911 -0.0319  0.5942
14027TIP3   OH263571   5.855   3.831   1.331  0.2647  0.3588 -0.1862
14027TIP3    H163572   5.870   3.830   1.426  1.8470  1.9990 -0.3703
14027TIP3    H263573   5.919   3.893   1.297 -1.7757  1.5549 -2.0981
14028TIP3   OH263574   1.781   3.261  12.953  1.0891  0.5498  0.1049
14028TIP3    H163575   1.847   3.314  12.997  2.1809 -1.0651  0.4955
14028TIP3    H263576   1.831   3.202  12.895  0.0203 -0.6996  0.3878
14029TIP3   OH263577   4.911   5.027  14.551 -0.4816  0.4181  0.0226
14029TIP3    H163578   4.856   5.011  14.627 -0.3333  1.7048  0.4185
14029TIP3    H263579   4.989   5.071  14.585 -0.4345  1.0599 -0.8632
14030TIP3   OH263580   4.085   2.851   4.251  0.3188  0.1618 -0.0016
14030TIP3    H163581   4.028   2.781   4.282  1.5231 -2.2525 -2.8154
14030TIP3    H263582   4.029   2.903   4.194  0.2877 -0.7424 -0.8186
14031TIP3   OH263583   4.394   5.289  14.278  1.0962 -0.5412  0.0884
14031TIP3    H163584   4.436   5.254  14.200  0.7543 -2.3168  0.6517
14031TIP3    H263585   4.411   5.223  14.346  0.4400  0.4217  1.2376
14032TIP3   OH263586   1.269   6.094  12.321  0.1569 -0.0947 -0.2194
14032TIP3    H163587   1.265   6.072  12.228 -1.1416  1.1731 -0.5117
14032TIP3    H263588   1.232   6.183  12.326  0.9960  0.1999  1.4031
14033TIP3   OH263589   3.142   2.418   1.571  0.3820  0.2028 -0.3646
14033TIP3    H163590   3.086   2.391   1.498  0.0667 -0.7275  0.1963
14033TIP3    H263591   3.100   2.495   1.607  0.2607  0.3657 -0.8505
14034TIP3   OH263592   2.895   3.116   2.942  0.1621 -1.1853  0.2186
14034TIP3    H163593   2.865   3.171   3.015 -0.9201  0.2939 -1.2677
14034TIP3    H263594   2.987   3.097   2.963  0.6140  1.2566  0.8170
14035TIP3   OH263595   2.080   0.499  15.379 -0.3002 -0.2170  0.4718
14035TIP3    H163596   2.133   0.419  15.376 -0.6336 -0.4128 -1.3273
14035TIP3    H263597   2.030   0.498  15.297  0.2347  2.2114  0.0403
14036TIP3   OH263598   3.106   5.331  12.097 -0.1954 -0.7371 -0.1430
14036TIP3    H163599   3.131   5.285  12.017 -3.2634  1.5060 -2.6493
14036TIP3    H263600   3.013   5.311  12.109 -0.6071  1.5122  1.0112
14037TIP3   OH263601   6.526   0.451  12.177 -0.4181  0.1146 -0.2281
14037TIP3    H163602   6.605   0.495  12.146  1.8384 -0.6731  3.7537
14037TIP3    H263603   6.492   0.508  12.246 -0.8087 -1.5359  1.0152
14038TIP3   OH263604   5.990   0.535  17.018 -0.1223 -0.3193 -0.6191
14038TIP3    H163605   5.978   0.482  16.940  2.9814 -0.2678 -1.2555
14038TIP3    H263606   6.056   0.600  16.994 -1.9892  2.3417  0.8756
14039TIP3   OH263607   5.523   6.761   3.740 -0.0144  0.1319  0.1966
14039TIP3    H163608   5.455   6.787   3.802  0.2829 -0.6779  0.8711
14039TIP3    H263609   5.524   6.665   3.743 -0.4691  0.0259 -1.5661
14040TIP3   OH263610   4.303   6.587  15.271  0.1012  0.0321  0.6095
14040TIP3    H163611   4.218   6.578  15.313 -0.7282 -0.6179 -1.1340
14040TIP3    H263612   4.339   6.498  15.271  1.0900  0.4056  1.9000
14041TIP3   OH263613   0.203   5.408   2.779  0.5034 -0.0111  0.7057
14041TIP3    H163614   0.196   5.445   2.691 -0.9369 -0.1702  0.7281
14041TIP3    H263615   0.296   5.387   2.789  0.6513 -0.2136 -0.8570
14042TIP3   OH263616   0.212   4.340  12.945 -0.8687 -0.2377  0.3902
14042TIP3    H163617   0.184   4.262  12.993 -1.2442  0.2394  0.9749
14042TIP3    H263618   0.303   4.354  12.971 -1.3342  0.5280  1.6938
14043TIP3   OH263619   5.922   5.076  12.917 -0.3508  0.1181 -0.1996
14043TIP3    H163620   5.939   5.138  12.846 -0.8830 -0.2326 -0.6434
14043TIP3    H263621   5.857   5.120  12.972  0.0661  0.3923  0.0806
14044TIP3   OH263622   2.619   5.160  10.805 -0.1145 -0.4362  0.0907
14044TIP3    H163623   2.572   5.154  10.888 -0.3879  0.7276  0.0368
14044TIP3    H263624   2.712   5.157  10.829 -0.2017 -0.9342  0.3612
14045TIP3   OH263625   2.064   0.980  13.004  0.2280 -0.3706  0.4505
14045TIP3    H163626   1.991   0.966  12.944  0.3976  2.7447 -0.6546
14045TIP3    H263627   2.027   0.964  13.091 -1.3803 -0.1858 -0.1604
14046TIP3   OH263628   5.283   6.096   1.034  0.4347 -0.0946 -0.3060
14046TIP3    H163629   5.306   6.049   1.114 -0.1899  0.2212  0.0681
14046TIP3    H263630   5.365   6.102   0.985  0.6069 -1.2020 -0.1724
14047TIP3   OH263631   3.401   2.585   0.933  0.0248  0.5749  0.0089
14047TIP3    H163632   3.473   2.522   0.925  0.1359  0.7725 -0.5813
14047TIP3    H263633   3.379   2.608   0.843 -2.5553 -1.4593  0.0248
14048TIP3   OH263634   0.708   0.308   4.776 -0.0144 -0.7259  0.4414
14048TIP3    H163635   0.617   0.305   4.747  0.3552 -2.4286 -0.7066
14048TIP3    H263636   0.725   0.401   4.791 -2.2047 -0.4501  1.6807
14049TIP3   OH263637   5.026   4.891  13.994 -0.4318 -0.0091 -0.4951
14049TIP3    H163638   5.059   4.861  14.079 -1.1202 -0.6105 -0.4327
14049TIP3    H263639   4.935   4.864  13.993 -0.8761  1.4159 -0.7644
14050TIP3   OH263640   1.578   1.139   5.397 -0.8450 -0.6678 -0.5206
14050TIP3    H163641   1.582   1.114   5.490 -0.7420  1.2837  0.0625
14050TIP3    H263642   1.492   1.108   5.368 -0.7525 -1.5830  0.1295
14051TIP3   OH263643   4.139   3.435  13.011 -0.1065 -0.3240  0.0207
14051TIP3    H163644   4.104   3.466  12.928  1.0671  0.1639 -0.3098
14051TIP3    H263645   4.154   3.515  13.062 -0.3023 -0.5840  0.4969
14052TIP3   OH263646   1.812   4.168  13.099  0.6747 -0.3625 -0.0859
14052TIP3    H163647   1.905   4.191  13.105  0.2430  1.8147 -0.8969
14052TIP3    H263648   1.799   4.104  13.169  2.5768 -0.0364  0.6425
14053TIP3   OH263649   4.140   3.973   2.573 -0.0098 -0.7718 -0.7899
14053TIP3    H163650   4.044   3.980   2.569 -0.1477  1.8582  2.6991
14053TIP3    H263651   4.171   4.037   2.509 -0.4070 -2.8528 -3.2235
14054TIP3   OH263652   0.389   5.967   1.509 -0.6206 -0.4401 -0.0623
14054TIP3    H163653   0.395   6.015   1.426  1.0181 -0.8268 -0.2020
14054TIP3    H263654   0.336   6.023   1.565  2.1060  2.1871  0.1613
14055TIP3   OH263655   3.878   1.530  12.982 -0.0962  0.8797 -0.3963
14055TIP3    H163656   3.835   1.469  12.922 -2.0814  2.4759 -0.7459
14055TIP3    H263657   3.960   1.552  12.940  0.9411 -1.8605 -0.0070
14056TIP3   OH263658   5.660   0.558  15.974 -0.5986 -0.5371 -0.0696
14056TIP3    H163659   5.650   0.521  15.887 -0.1623 -0.6916 -0.0551
14056TIP3    H263660   5.753   0.579  15.981 -0.2088 -2.4006  1.1106
14057TIP3   OH263661   3.091   0.352   5.132  0.8599 -0.5005  0.0966
14057TIP3    H163662   3.063   0.388   5.048 -0.0043 -0.6377  0.3189
14057TIP3    H263663   3.103   0.259   5.116 -0.7010 -0.7833  0.4573
14058TIP3   OH263664   0.282   0.641  11.080  0.3764 -0.5028 -0.5192
14058TIP3    H163665   0.194   0.607  11.063 -1.1516  1.8853  1.8363
14058TIP3    H263666   0.284   0.726  11.036  1.5377 -0.5301 -0.5536
14059TIP3   OH263667   3.547   1.855  15.411 -0.4080 -0.2874  0.3132
14059TIP3    H163668   3.469   1.845  15.465 -0.2087  0.5925  0.7918
14059TIP3    H263669   3.615   1.883  15.472 -0.0133  0.1114 -0.2942
14060TIP3   OH263670   1.420   0.446  10.563 -0.5829 -0.2807  0.0326
14060TIP3    H163671   1.419   0.510  10.634  1.4896  0.0933 -0.1994
14060TIP3    H263672   1.414   0.361  10.606  0.5234 -0.0513  0.6721
14061TIP3   OH263673   3.755   5.196   4.118 -0.2294  0.0494 -0.3960
14061TIP3    H163674   3.736   5.273   4.065 -1.7157  0.5615  0.8054
14061TIP3    H263675   3.706   5.125   4.078  0.1907 -0.0116 -0.8095
14062TIP3   OH263676   4.770   0.066  11.638  0.1112  0.0635 -0.0543
14062TIP3    H163677   4.756   0.097  11.728 -1.9661  0.8640 -0.5955
14062TIP3    H263678   4.786   0.146  11.588 -0.7839 -0.1482 -0.7073
14063TIP3   OH263679   4.680   3.900   0.944 -0.0952 -0.4312 -0.1276
14063TIP3    H163680   4.704   3.984   0.905 -2.9953  0.2893 -0.5705
14063TIP3    H263681   4.752   3.881   1.005  2.0440  0.9039 -2.0807
14064TIP3   OH263682   6.679   3.565  14.873  0.0400  0.0476 -0.0246
14064TIP3    H163683   6.619   3.533  14.805 -0.5250  0.0051  0.4859
14064TIP3    H263684   6.717   3.486  14.910  0.7549  0.0909 -0.6450
14065TIP3   OH263685   3.397   0.596  11.867  0.5149  0.1750  0.0930
14065TIP3    H163686   3.362   0.612  11.779 -2.0814 -0.3538  0.9284
14065TIP3    H263687   3.319   0.585  11.921  2.0363  1.1890  2.6187
14066TIP3   OH263688   1.890   4.520   5.956 -0.0079  0.0779  0.2051
14066TIP3    H163689   1.945   4.453   5.915  0.0169  0.2069  0.0270
14066TIP3    H263690   1.948   4.595   5.969 -0.0175  0.0427  0.4688
14067TIP3   OH263691   5.447   5.164  15.434 -0.0502  0.1930  0.4389
14067TIP3    H163692   5.409   5.111  15.364 -0.4913  0.7771  0.2230
14067TIP3    H263693   5.372   5.186  15.490  0.7152 -3.6042  3.4739
14068TIP3   OH263694   6.291   5.685  16.794  0.7618 -0.2106  0.2620
14068TIP3    H163695   6.385   5.671  16.803  1.1372  1.2424 -0.9010
14068TIP3    H263696   6.278   5.776  16.819  0.0836  0.3607 -1.9030
14069TIP3   OH263697   3.129   2.568  15.514 -0.5862  0.0545 -0.4642
14069TIP3    H163698   3.055   2.607  15.467 -0.5763  1.6971  0.8236
14069TIP3    H263699   3.206   2.595  15.463 -0.7663 -0.8023 -1.2269
14070TIP3   OH263700   3.111   3.651   1.517 -0.6259  0.7827 -0.1415
14070TIP3    H163701   3.106   3.630   1.424 -1.1721  2.1333 -0.4321
14070TIP3    H263702   3.154   3.736   1.521 -0.5897  0.7344  0.8432
14071TIP3   OH263703   1.816   3.846  13.673 -0.1002  0.5933  0.3863
14071TIP3    H163704   1.764   3.780  13.627 -0.5464  1.0605  0.2086
14071TIP3    H263705   1.899   3.803  13.692 -0.9910 -0.5721  1.7728
14072TIP3   OH263706   5.972   6.690   4.783  0.3884  0.2592 -0.3254
14072TIP3    H163707   5.918   6.696   4.862 -1.8252  0.3404 -1.7691
14072TIP3    H263708   6.042   6.628   4.806 -1.6461 -1.7059  0.9363
14073TIP3   OH263709   5.001   1.617  12.890 -0.4316 -0.8590 -0.7079
14073TIP3    H163710   5.005   1.548  12.823  1.1727 -0.9539 -0.5359
14073TIP3    H263711   5.091   1.648  12.899 -0.9973  0.7358 -0.2063
14074TIP3   OH263712   5.934   4.572   4.926  0.0758  0.4342 -0.3067
14074TIP3    H163713   5.863   4.599   4.985 -1.3646 -0.9238 -1.3429
14074TIP3    H263714   5.925   4.630   4.851  0.9967  1.1870  0.1284
14075TIP3   OH263715   2.103   3.339  10.966 -0.0060  0.1127 -0.9296
14075TIP3    H163716   2.067   3.295  10.890 -0.2636 -0.8369 -0.2738
14075TIP3    H263717   2.041   3.321  11.037 -1.0926  3.0144 -1.0017
14076TIP3   OH263718   6.586   4.801  11.987  0.4013  0.2936  0.2074
14076TIP3    H163719   6.640   4.860  11.934  2.2768 -1.0554  0.5479
14076TIP3    H263720   6.605   4.826  12.077  0.7784 -0.4688  0.3409
14077TIP3   OH263721   3.861   3.360  16.698  0.2799 -0.2655 -0.2715
14077TIP3    H163722   3.880   3.442  16.653 -1.6703 -0.1309 -0.9655
14077TIP3    H263723   3.773   3.336  16.668  0.0638 -1.6675  1.3186
14078TIP3   OH263724   2.909   0.303  14.418  0.7098 -0.8069  0.1401
14078TIP3    H163725   2.899   0.333  14.327  0.7894 -1.6446 -0.1566
14078TIP3    H263726   2.995   0.336  14.444 -0.1222  1.1375  0.6086
14079TIP3   OH263727   5.464   0.375   1.717 -0.0456  0.2575 -0.4312
14079TIP3    H163728   5.544   0.391   1.666 -0.2764 -1.1232 -1.3103
14079TIP3    H263729   5.492   0.381   1.808  0.9303  0.3934 -0.7242
14080TIP3   OH263730   1.386   4.800  15.206  0.1801 -0.5856  0.2199
14080TIP3    H163731   1.317   4.735  15.194 -1.3456  0.9645  0.2098
14080TIP3    H263732   1.419   4.817  15.117 -1.6459  0.9101 -0.2553
14081TIP3   OH263733   4.781   6.351   3.390  0.8926 -0.3415  0.7833
14081TIP3    H163734   4.786   6.339   3.485  0.1120  2.7349  1.3195
14081TIP3    H263735   4.714   6.418   3.378  0.2601 -1.3303 -2.0606
14082TIP3   OH263736   3.739   2.510   3.077  0.0887  0.5241  0.0359
14082TIP3    H163737   3.763   2.423   3.045  1.1655  0.9360 -0.2999
14082TIP3    H263738   3.648   2.500   3.106  0.4934 -0.9460  0.8894
14083TIP3   OH263739   4.035   0.873   4.672 -0.1716  0.1903  0.3123
14083TIP3    H163740   4.075   0.834   4.750  0.2399  1.5316  0.7964
14083TIP3    H263741   3.960   0.922   4.705  1.6673  3.2397  0.3725
14084TIP3   OH263742   1.649   3.854  16.859 -0.0061  0.6758 -0.2846
14084TIP3    H163743   1.636   3.867  16.953  0.1262 -0.6836 -0.0496
14084TIP3    H263744   1.744   3.847  16.849 -0.0768 -1.5255 -0.1111
14085TIP3   OH263745   2.247   3.429  11.509 -0.0640  0.1570  0.0935
14085TIP3    H163746   2.285   3.451  11.594  0.4816  1.5378 -0.4738
14085TIP3    H263747   2.285   3.344  11.487 -0.2534 -0.2416  1.2395
14086TIP3   OH263748   5.311   5.012  16.610  0.2332  0.9402  0.1562
14086TIP3    H163749   5.355   5.094  16.587 -1.6060  1.8920 -0.1302
14086TIP3    H263750   5.269   5.029  16.694  0.8443 -0.1409  0.7051
14087TIP3   OH263751   4.426   2.313  14.581 -0.1658  0.0952  0.3499
14087TIP3    H163752   4.457   2.223  14.582 -0.1356  0.1037  0.1432
14087TIP3    H263753   4.493   2.361  14.533 -0.2464  0.2051  0.3468
14088TIP3   OH263754   6.660   2.730   3.355  0.3480 -0.4930  0.2033
14088TIP3    H163755   6.604   2.764   3.286 -1.0372 -0.9030  1.0839
14088TIP3    H263756   6.669   2.637   3.335  1.3447 -0.2958 -0.3347
14089TIP3   OH263757   6.000   0.621  12.299  0.5428  0.4708  0.5062
14089TIP3    H163758   5.965   0.653  12.382 -0.4945  0.1826  0.1907
14089TIP3    H263759   5.957   0.674  12.232 -1.4924 -1.6922 -0.0618
14090TIP3   OH263760   0.762   3.396   5.849 -0.3955 -0.1372 -0.1604
14090TIP3    H163761   0.829   3.368   5.910 -0.7931  0.8833  0.7838
14090TIP3    H263762   0.682   3.352   5.879 -0.2459 -1.0626 -1.0604
14091TIP3   OH263763   2.014   4.345   1.278 -0.0262 -0.5035 -0.2376
14091TIP3    H163764   2.008   4.285   1.353 -2.2813  0.3520  0.3586
14091TIP3    H263765   1.934   4.328   1.228 -1.1592  2.4085  0.3424
14092TIP3   OH263766   2.007   2.843  14.994  0.2820 -0.3683 -0.5270
14092TIP3    H163767   2.073   2.895  14.948  1.4002 -0.9571  0.3387
14092TIP3    H263768   1.972   2.901  15.060  1.6963 -0.7304  0.5945
14093TIP3   OH263769   5.172   0.487   1.377  0.0107  0.0361  0.5476
14093TIP3    H163770   5.159   0.416   1.440  2.2303  0.3831  1.5152
14093TIP3    H263771   5.111   0.556   1.406  0.2122 -0.2312  1.6517
14094TIP3   OH263772   4.354   1.785   0.160  0.6254  0.0983 -0.4890
14094TIP3    H163773   4.423   1.719   0.167 -0.3951 -1.1466 -1.7046
14094TIP3    H263774   4.379   1.851   0.224  1.5642 -1.5718  0.9739
14095TIP3   OH263775   3.608   2.871   1.020 -0.1059  0.2394 -0.1205
14095TIP3    H163776   3.596   2.787   0.975 -0.2072 -0.8046  1.7690
14095TIP3    H263777   3.702   2.889   1.011  0.2570 -0.9789  0.9063
14096TIP3   OH263778   6.215   1.526  15.474  0.0013  0.4477  0.2732
14096TIP3    H163779   6.246   1.616  15.486  0.9696 -0.0383  1.5470
14096TIP3    H263780   6.187   1.523  15.383  0.6505  1.8394  0.0012
14097TIP3   OH263781   3.654   0.216   6.203  0.4686 -0.5922 -0.3989
14097TIP3    H163782   3.679   0.124   6.200  0.4867 -0.5754 -0.8140
14097TIP3    H263783   3.730   0.260   6.240  0.3058 -0.7952  0.1858
14098TIP3   OH263784   1.689   6.715  12.221  0.6263 -0.3736 -0.7272
14098TIP3    H163785   1.656   6.690  12.307 -0.1337 -1.3353 -1.2726
14098TIP3    H263786   1.650   6.651  12.161  2.4659 -0.7484 -1.5787
14099TIP3   OH263787   3.384   6.510   4.977  0.2334 -0.4658  0.3760
14099TIP3    H163788   3.299   6.501   5.019  1.2260  0.6823  2.7939
14099TIP3    H263789   3.417   6.421   4.971 -0.5091 -0.7814  0.8119
14100TIP3   OH263790   3.749   3.923  16.203 -0.0014 -0.0777 -0.5747
14100TIP3    H163791   3.783   4.005  16.239 -1.2657 -0.1462  0.9212
14100TIP3    H263792   3.796   3.855  16.251  0.6396 -0.2375 -1.4109
14101TIP3   OH263793   3.047   3.142   0.825 -0.0162  0.1587  0.1966
14101TIP3    H163794   3.128   3.191   0.836  0.2893 -0.3661  0.3100
14101TIP3    H263795   3.052   3.072   0.889 -0.4890  0.0285  0.0969
14102TIP3   OH263796   3.461   3.284   0.084 -0.7115  0.6176  0.0175
14102TIP3    H163797   3.485   3.349   0.150  1.5495 -1.8218  1.8286
14102TIP3    H263798   3.370   3.262   0.105 -0.3903  0.6980  1.6649
14103TIP3   OH263799   4.886   1.213  14.237  0.0115  0.2511  0.0037
14103TIP3    H163800   4.956   1.164  14.194  0.4263  2.4820 -2.0634
14103TIP3    H263801   4.807   1.161  14.223  0.5775 -0.2992 -1.2468
14104TIP3   OH263802   3.748   1.604  14.758 -0.2062  0.3982 -0.0775
14104TIP3    H163803   3.817   1.666  14.780  1.7125 -1.6319  0.0045
14104TIP3    H263804   3.737   1.552  14.837 -3.2061  1.7918  0.5382
14105TIP3   OH263805   1.317   3.369   2.815 -0.2672 -0.2949  0.9413
14105TIP3    H163806   1.225   3.395   2.813 -0.3922 -0.5367  2.5684
14105TIP3    H263807   1.322   3.300   2.882  1.0690 -0.3883  0.7818
14106TIP3   OH263808   2.155   4.895  17.106  0.3627  0.5463  0.1830
14106TIP3    H163809   2.083   4.937  17.059  0.2805 -1.4010 -1.5922
14106TIP3    H263810   2.137   4.913  17.198 -3.3275 -1.1595 -0.0271
14107TIP3   OH263811   0.241   3.638   1.685 -0.8648 -0.5596  0.3416
14107TIP3    H163812   0.164   3.696   1.688 -1.2190 -1.0582  1.0917
14107TIP3    H263813   0.252   3.608   1.775  1.5585  1.2309  0.7536
14108TIP3   OH263814   0.770   4.082  15.263  0.5472  0.0314  0.1128
14108TIP3    H163815   0.770   4.040  15.349 -1.1420 -1.9477 -0.7431
14108TIP3    H263816   0.677   4.098  15.245  0.8896  0.6335 -1.2215
14109TIP3   OH263817   2.537   6.592  15.601  0.1849  0.6705 -0.3390
14109TIP3    H163818   2.455   6.563  15.562  0.2028  3.0997 -2.4248
14109TIP3    H263819   2.512   6.623  15.688 -0.9942  0.7596 -0.6924
14110TIP3   OH263820   0.784   3.697   2.809  0.1542 -0.3596 -0.2430
14110TIP3    H163821   0.818   3.753   2.879  5.0605 -2.5548 -0.4701
14110TIP3    H263822   0.801   3.746   2.729 -0.9830  0.1372 -0.2019
14111TIP3   OH263823   0.861   2.385   5.830 -0.4880  0.0609  0.0890
14111TIP3    H163824   0.878   2.458   5.889  0.2302  0.3548 -0.4735
14111TIP3    H263825   0.942   2.373   5.782 -0.1068 -1.9813  1.0937
14112TIP3   OH263826   1.771   1.664   5.320  0.1322  0.2912 -0.0168
14112TIP3    H163827   1.843   1.727   5.318  0.0205  0.4120 -0.9004
14112TIP3    H263828   1.782   1.613   5.239 -1.7000  1.3929 -1.0473
14113TIP3   OH263829   5.603   5.869   3.610  0.5030 -0.0383 -0.0658
14113TIP3    H163830   5.565   5.952   3.581  0.7039 -0.1343 -0.6257
14113TIP3    H263831   5.610   5.877   3.705 -0.3431  0.2203 -0.0182
14114TIP3   OH263832   1.202   0.715   4.337  0.1220 -0.0933 -0.7192
14114TIP3    H163833   1.259   0.663   4.280 -0.2582  0.6123 -1.7659
14114TIP3    H263834   1.252   0.796   4.352 -0.7742  0.7524 -2.0696
14115TIP3   OH263835   0.133   1.997   3.861 -0.0718  0.2157  0.5100
14115TIP3    H163836   0.216   2.042   3.845 -0.3163  0.8283  0.9032
14115TIP3    H263837   0.144   1.959   3.949 -0.8097  1.7554  1.3094
14116TIP3   OH263838   2.257   5.150  10.287  0.2268 -0.3069  0.5612
14116TIP3    H163839   2.238   5.099  10.208 -0.2116 -0.8774  1.0185
14116TIP3    H263840   2.170   5.171  10.323  0.4009  0.8838  0.3145
14117TIP3   OH263841   0.246   1.260   1.883  0.1444 -0.5101 -1.3115
14117TIP3    H163842   0.237   1.355   1.872 -0.1003 -0.1665  1.2324
14117TIP3    H263843   0.190   1.222   1.814  0.3495  1.1532 -2.4596
14118TIP3   OH263844   4.140   3.783   4.954 -0.3244 -0.0153 -0.3320
14118TIP3    H163845   4.084   3.843   4.905 -0.2271  0.5994  0.2891
14118TIP3    H263846   4.219   3.776   4.900 -0.0651  0.9517 -0.1013
14119TIP3   OH263847   2.345   5.048   0.329 -0.2601 -0.6643 -0.1745
14119TIP3    H163848   2.395   5.069   0.408  2.0328  0.2038 -1.7452
14119TIP3    H263849   2.399   4.984   0.282 -1.9055 -1.7056 -0.7469
14120TIP3   OH263850   6.804   2.989   4.210  0.2859  0.1040 -0.3608
14120TIP3    H163851   6.752   2.993   4.130 -0.0506 -0.9605 -0.2146
14120TIP3    H263852   6.795   3.076   4.249 -0.2717  0.3547 -1.0358
14121TIP3   OH263853   1.263   2.087  12.337  0.0417 -0.8104 -0.2873
14121TIP3    H163854   1.225   2.043  12.413  0.7998  0.8552  1.1215
14121TIP3    H263855   1.277   2.017  12.273  2.2991 -2.9221  2.2594
14122TIP3   OH263856   1.308   4.995  17.047  0.3422 -0.3839  0.0796
14122TIP3    H163857   1.381   5.051  17.021  0.1371  0.9020  2.0401
14122TIP3    H263858   1.338   4.906  17.029  0.3019  0.2541 -4.0638
14123TIP3   OH263859   4.017   1.007  12.771  0.2659 -0.3226  0.0250
14123TIP3    H163860   3.999   0.989  12.678  1.0146 -2.3767  0.2062
14123TIP3    H263861   3.997   1.099  12.782 -0.1681 -0.0974 -2.1122
14124TIP3   OH263862   2.474   2.648   3.885  0.3365  0.1423  0.2871
14124TIP3    H163863   2.446   2.586   3.952  1.9337 -0.3195  0.5620
14124TIP3    H263864   2.562   2.674   3.912  1.2698 -0.5027 -1.9307
14125TIP3   OH263865   0.344   3.612   0.112  0.0520  0.5799 -0.0409
14125TIP3    H163866   0.322   3.541   0.052  0.2587  0.6281 -0.1718
14125TIP3    H263867   0.439   3.612   0.117  0.0281  0.4259  0.4685
14126TIP3   OH263868   2.044   5.252   1.633  0.0069 -0.2592 -0.4947
14126TIP3    H163869   1.952   5.246   1.656 -0.0363  0.5923 -0.3835
14126TIP3    H263870   2.061   5.175   1.579 -1.3362  0.6949 -2.3948
14127TIP3   OH263871   1.780   2.782   5.050  0.8936  0.0636  0.4301
14127TIP3    H163872   1.832   2.704   5.030 -0.4239 -0.8179  0.3641
14127TIP3    H263873   1.799   2.800   5.142 -0.1201 -1.3816  0.9383
14128TIP3   OH263874   5.824   5.646  11.990 -0.1391 -0.3881 -0.3523
14128TIP3    H163875   5.864   5.607  12.068  0.0395 -0.1029 -0.2983
14128TIP3    H263876   5.797   5.571  11.936  1.0274 -0.5988 -0.6703
14129TIP3   OH263877   2.876   5.160  10.904 -0.9861  0.5069 -0.1307
14129TIP3    H163878   2.910   5.207  10.981  1.9669 -0.8910 -0.4615
14129TIP3    H263879   2.914   5.205  10.829 -2.5921  0.8906 -0.7587
14130TIP3   OH263880   3.811   0.134   1.491  0.0743  0.2111  0.2161
14130TIP3    H163881   3.891   0.180   1.517 -0.6860  0.9762  1.3114
14130TIP3    H263882   3.828   0.042   1.510  0.4073  0.4719  1.2321
14131TIP3   OH263883   4.687   6.032  17.028 -0.0563 -0.0969  0.1861
14131TIP3    H163884   4.760   6.034  16.966 -0.5241 -1.5508 -0.4688
14131TIP3    H263885   4.713   5.968  17.094 -1.0662 -1.3300 -0.5497
14132TIP3   OH263886   4.508   4.861  13.187  0.0678  0.2514 -0.0340
14132TIP3    H163887   4.491   4.843  13.095  2.1896  1.0652 -0.6307
14132TIP3    H263888   4.463   4.790  13.233  0.6401 -1.3561 -1.8008
14133TIP3   OH263889   2.729   4.615   4.351  0.2360  0.0962  0.1968
14133TIP3    H163890   2.780   4.538   4.375  0.5435 -0.0784 -0.9916
14133TIP3    H263891   2.639   4.593   4.374  0.2728 -0.7502 -0.4269
14134TIP3   OH263892   2.121   4.118   5.054 -0.3153 -0.3621 -1.5130
14134TIP3    H163893   2.211   4.088   5.053 -0.7690 -1.8655 -0.4602
14134TIP3    H263894   2.125   4.209   5.024  1.9304  0.6855  1.5528
14135TIP3   OH263895   4.201   1.542   1.739 -0.4057 -0.0584 -0.3764
14135TIP3    H163896   4.237   1.579   1.820  1.1989 -2.4416  0.0784
14135TIP3    H263897   4.134   1.606   1.712 -1.1647  0.7441  2.9150
14136TIP3   OH263898   4.512   2.662   1.264 -0.0375 -0.6591 -0.5147
14136TIP3    H163899   4.538   2.747   1.300 -0.7880 -1.0468  0.9924
14136TIP3    H263900   4.419   2.672   1.243 -0.3903 -1.4046  0.6254
14137TIP3   OH263901   5.425   6.819   5.202 -0.2780  0.5410  0.6218
14137TIP3    H163902   5.395   6.837   5.113  0.8993 -0.0996  0.0651
14137TIP3    H263903   5.360   6.860   5.259 -1.9552 -0.4464 -0.5067
14138TIP3   OH263904   1.572   4.554  12.067 -0.4141 -0.5687 -0.0855
14138TIP3    H163905   1.635   4.600  12.012 -3.1470  3.2699 -0.3958
14138TIP3    H263906   1.546   4.477  12.015  2.5564 -1.2886 -0.6638
14139TIP3   OH263907   3.068   4.303  10.841  0.2357  0.0465  0.3004
14139TIP3    H163908   3.019   4.225  10.868  0.0350  0.4277  1.0406
14139TIP3    H263909   3.063   4.301  10.745  1.6848 -1.7666  0.2059
14140TIP3   OH263910   2.114   3.690  13.266  0.5564  0.0858 -0.0931
14140TIP3    H163911   2.158   3.772  13.289  1.3644  0.0568 -1.3946
14140TIP3    H263912   2.184   3.635  13.231 -0.3192 -0.4011 -1.1205
14141TIP3   OH263913   4.359   4.431   0.599  0.0940  0.3272  0.7010
14141TIP3    H163914   4.410   4.494   0.651 -0.4918 -0.2352  2.0020
14141TIP3    H263915   4.425   4.372   0.562  0.6092  1.3873 -0.1329
14142TIP3   OH263916   1.308   5.086  15.920 -0.2524 -0.0117 -0.0042
14142TIP3    H163917   1.374   5.028  15.882  1.3653  2.4053 -1.1719
14142TIP3    H263918   1.268   5.129  15.844 -0.4019  1.4078  0.8451
14143TIP3   OH263919   4.427   1.477   0.021  0.2086 -1.0543 -0.1157
14143TIP3    H163920   4.486   1.531   0.074  1.3600 -2.6191  0.2593
14143TIP3    H263921   4.383   1.420   0.085 -0.5689 -0.9624 -0.5565
14144TIP3   OH263922   0.283   2.572   5.332  0.0696  0.3954 -1.0345
14144TIP3    H163923   0.301   2.492   5.382 -1.9456  0.8249  0.5372
14144TIP3    H263924   0.253   2.540   5.246 -0.5502 -0.5624 -0.4825
14145TIP3   OH263925   5.129   4.314  12.779  0.2795 -0.0678  0.3463
14145TIP3    H163926   5.137   4.269  12.863  0.5525 -1.2172 -0.2676
14145TIP3    H263927   5.100   4.246  12.718 -2.3158  1.2607 -0.0426
14146TIP3   OH263928   1.535   3.521   2.255  0.1756  0.3734 -0.0052
14146TIP3    H163929   1.562   3.580   2.185  0.8560 -2.0016 -1.8685
14146TIP3    H263930   1.606   3.457   2.262 -0.6858 -0.4753  1.6289
14147TIP3   OH263931   6.454   3.951   4.194 -0.6543 -0.1170  0.2660
14147TIP3    H163932   6.374   3.961   4.247 -1.2483 -2.4137 -0.1236
14147TIP3    H263933   6.452   4.026   4.134 -0.2343  2.3025  2.9991
14148TIP3   OH263934   3.109   6.799   1.651 -0.1762  0.2355  0.4605
14148TIP3    H163935   3.187   6.850   1.670  0.4434 -0.1232 -0.9872
14148TIP3    H263936   3.135   6.708   1.666 -0.8413  0.2035  1.6003
14149TIP3   OH263937   1.561   2.841  15.305 -0.1429  0.5632 -0.3833
14149TIP3    H163938   1.566   2.771  15.370  1.2968  0.7502 -0.2591
14149TIP3    H263939   1.495   2.901  15.339 -1.7365 -0.9342 -0.7160
14150TIP3   OH263940   6.265   0.881   2.657  0.0936 -0.0007  0.5396
14150TIP3    H163941   6.269   0.880   2.561  0.5428  0.0459  0.5556
14150TIP3    H263942   6.210   0.806   2.679 -0.4860  0.3234  0.2256
14151TIP3   OH263943   2.001   5.762  11.478 -0.1473  0.1165 -0.0538
14151TIP3    H163944   1.948   5.730  11.551 -0.5698  0.2638 -0.2904
14151TIP3    H263945   2.090   5.736  11.500 -0.5592 -1.9987 -0.6303
14152TIP3   OH263946   1.858   1.181  12.267  0.0056  0.2289 -0.1627
14152TIP3    H163947   1.880   1.268  12.299  0.1560  0.7253 -1.5617
14152TIP3    H263948   1.794   1.148  12.330  1.5226  0.4732  1.5761
14153TIP3   OH263949   0.838   1.693   1.806  0.3402  1.3437 -0.3139
14153TIP3    H163950   0.752   1.716   1.840  0.6724  0.8320  0.9484
14153TIP3    H263951   0.835   1.598   1.794 -0.0016  1.5879 -2.4716
14154TIP3   OH263952   2.601   2.801  13.845  0.4433 -0.4657 -0.1103
14154TIP3    H163953   2.562   2.714  13.835  1.7845 -0.9850 -1.3269
14154TIP3    H263954   2.631   2.824  13.757  1.9067  0.3369  0.5602
14155TIP3   OH263955   2.430   3.153  11.763  0.0075  0.5038 -0.3992
14155TIP3    H163956   2.409   3.191  11.848  0.7119 -0.4998  0.2461
14155TIP3    H263957   2.511   3.195  11.736  0.4044  0.0008 -0.0183
14156TIP3   OH263958   1.956   4.816   2.388 -0.0761 -0.4377 -0.1144
14156TIP3    H163959   1.999   4.775   2.463  0.6479  1.3531  0.4990
14156TIP3    H263960   1.895   4.879   2.427  0.6556  0.8576 -0.9947
14157TIP3   OH263961   3.137   3.244  14.395 -0.9567  0.2307  0.4027
14157TIP3    H163962   3.148   3.304  14.468 -1.8828 -0.4462  1.1154
14157TIP3    H263963   3.101   3.165  14.434 -0.2332 -0.6165 -0.5980
14158TIP3   OH263964   5.960   2.972   6.288 -0.0639 -0.6738 -0.4250
14158TIP3    H163965   6.013   2.936   6.359  0.1019 -1.3015 -0.8462
14158TIP3    H263966   5.889   3.019   6.331  1.9837  2.0380  0.1913
14159TIP3   OH263967   1.664   6.023   5.170  0.0282 -0.4326 -0.4868
14159TIP3    H163968   1.575   6.059   5.175  1.0613  2.6849 -2.1262
14159TIP3    H263969   1.662   5.965   5.094 -0.5431 -0.1180 -0.7171
14160TIP3   OH263970   4.588   2.211   0.357 -0.5482  0.0084  0.4408
14160TIP3    H163971   4.596   2.116   0.363 -1.5379 -0.0695  0.7470
14160TIP3    H263972   4.616   2.243   0.442  0.9760  0.0960 -0.0700
14161TIP3   OH263973   5.053   4.359  13.816 -0.3499 -0.2529  0.2528
14161TIP3    H163974   5.120   4.382  13.881 -0.4222  2.6889 -0.5704
14161TIP3    H263975   5.078   4.272  13.786  2.2851  0.1332  1.0410
14162TIP3   OH263976   2.178   5.876   1.814 -0.2304 -0.1493 -0.4051
14162TIP3    H163977   2.206   5.962   1.783 -0.1637 -0.3673 -0.9762
14162TIP3    H263978   2.228   5.814   1.759  1.2507 -0.5821  1.3446
14163TIP3   OH263979   4.136   1.954   2.368  0.2678 -0.1477  0.3411
14163TIP3    H163980   4.068   1.901   2.410  0.0122  0.5053  0.7536
14163TIP3    H263981   4.185   1.992   2.441 -0.2848  1.1314  0.0548
14164TIP3   OH263982   6.307   2.723  15.283 -0.0912 -0.3842  0.1987
14164TIP3    H163983   6.341   2.781  15.351  0.9567  0.4326 -0.9630
14164TIP3    H263984   6.240   2.775  15.238  2.0161  0.7017 -1.9397
14165TIP3   OH263985   3.162   4.220   4.597  0.5529 -0.1471  0.4459
14165TIP3    H163986   3.150   4.236   4.691 -0.6190  1.9545  0.0020
14165TIP3    H263987   3.166   4.125   4.589 -1.2798 -0.4538  2.4226
14166TIP3   OH263988   1.875   0.555  11.852 -0.4368 -0.1752  0.0626
14166TIP3    H163989   1.832   0.578  11.934 -2.0730 -0.3196 -0.7058
14166TIP3    H263990   1.853   0.462  11.839  0.8722 -0.5006  0.0688
14167TIP3   OH263991   6.268   2.069   3.437  0.1415  0.6909  0.0017
14167TIP3    H163992   6.179   2.062   3.471  0.2060 -0.7797 -0.1028
14167TIP3    H263993   6.323   2.024   3.502  0.4305 -0.9525 -1.3154
14168TIP3   OH263994   5.476   6.523   0.383  0.4816  0.0648 -0.0650
14168TIP3    H163995   5.412   6.528   0.454 -1.0533 -1.5384 -1.2675
14168TIP3    H263996   5.432   6.564   0.308  1.5735  0.5522 -0.4599
14169TIP3   OH263997   4.757   1.254  13.018 -0.3069  0.3844 -0.7172
14169TIP3    H163998   4.753   1.337  13.066  1.4195  0.3534 -0.4401
14169TIP3    H263999   4.705   1.269  12.939 -3.0230  0.5236  0.9626
14170TIP3   OH264000   0.272   2.713  16.585 -0.2761 -0.6773  0.1945
14170TIP3    H164001   0.212   2.758  16.525 -1.6292  0.4250  2.2589
14170TIP3    H264002   0.285   2.627  16.545 -1.5314 -0.1777 -1.4054
14171TIP3   OH264003   4.504   4.815   5.960  0.1968  0.0017 -0.9699
14171TIP3    H164004   4.485   4.802   5.867  1.0600 -0.3627 -1.1146
14171TIP3    H264005   4.514   4.909   5.969 -2.6091  0.3456 -0.6545
14172TIP3   OH264006   2.109   3.955   5.967 -0.1691 -0.6037 -0.0866
14172TIP3    H164007   2.154   3.987   6.046 -0.9161  1.8347 -0.5752
14172TIP3    H264008   2.049   3.888   5.999 -0.6104  0.4845  1.4760
14173TIP3   OH264009   3.747   4.178  13.783 -0.3952  0.5320  0.0005
14173TIP3    H164010   3.732   4.169  13.689 -1.1783 -1.2225  0.2544
14173TIP3    H264011   3.786   4.265  13.793 -0.1204  0.6745 -1.9546
14174TIP3   OH264012   3.070   4.209   4.110 -0.2635 -0.0029 -0.4684
14174TIP3    H164013   3.124   4.273   4.156  1.7191 -1.5196 -0.5803
14174TIP3    H264014   3.081   4.128   4.159 -0.7323 -0.8654 -1.7429
14175TIP3   OH264015   2.655   4.200  14.307 -0.3942  0.1069  0.2763
14175TIP3    H164016   2.576   4.194  14.254 -0.8079 -0.7736  0.9657
14175TIP3    H264017   2.710   4.265  14.262 -0.7938 -0.5025 -1.1200
14176TIP3   OH264018   3.833   5.988   1.086  0.1294  0.1789  0.0051
14176TIP3    H164019   3.811   5.932   1.012 -0.7734  3.2295 -2.2057
14176TIP3    H264020   3.750   6.001   1.132  0.7736 -2.1495  2.0634
14177TIP3   OH264021   1.341   3.758   0.511  0.2103  0.5053  0.5131
14177TIP3    H164022   1.435   3.765   0.497  0.1998 -1.0920 -0.6954
14177TIP3    H264023   1.329   3.674   0.556 -0.6735  0.4240  0.1611
14178TIP3   OH264024   3.254   1.313   4.989 -0.1583  0.0950  0.9040
14178TIP3    H164025   3.285   1.375   5.055  1.1893  0.1550  0.2483
14178TIP3    H264026   3.314   1.324   4.915 -0.6280 -1.1380  0.3070
14179TIP3   OH264027   2.569   3.279   5.489  0.6994  0.8339 -0.5542
14179TIP3    H164028   2.583   3.370   5.516  1.3001  0.2450  1.2460
14179TIP3    H264029   2.569   3.229   5.571  0.4714 -0.8140 -1.5106
14180TIP3   OH264030   0.551   4.655  15.058 -0.8070 -0.6690 -0.0337
14180TIP3    H164031   0.479   4.700  15.102 -0.6173 -2.5755  2.4868
14180TIP3    H264032   0.509   4.609  14.985 -1.8350 -0.3737  0.3544
14181TIP3   OH264033   2.741   5.034   4.842  0.1149  0.2097  0.4822
14181TIP3    H164034   2.747   4.999   4.931 -0.4949  1.2391  0.9472
14181TIP3    H264035   2.811   4.990   4.794  0.1638 -0.7016  1.3485
14182TIP3   OH264036   0.007   3.546  12.412  0.2987  0.1956  0.3014
14182TIP3    H164037   0.069   3.501  12.355  0.6883  0.3852  0.5699
14182TIP3    H264038   0.008   3.495  12.493 -0.2425 -0.0652  0.1498
14183TIP3   OH264039   1.323   0.830   4.055  0.3683 -0.6512 -0.3351
14183TIP3    H164040   1.357   0.741   4.063  0.4255 -0.7449 -1.3647
14183TIP3    H264041   1.275   0.846   4.136 -1.5736 -2.4685 -1.0138
14184TIP3   OH264042   5.401   0.559  11.293  0.1459 -0.2348  0.0848
14184TIP3    H164043   5.312   0.538  11.322 -0.6613 -0.5280 -2.3517
14184TIP3    H264044   5.418   0.497  11.222  1.9532  0.4172 -0.1006
14185TIP3   OH264045   6.130   5.108  12.539 -0.0728 -0.1183 -0.0843
14185TIP3    H164046   6.146   5.108  12.444 -1.0217  0.8222 -0.2619
14185TIP3    H264047   6.202   5.159  12.576  0.6133 -0.9644 -0.2295
14186TIP3   OH264048   3.478   2.034   5.234  0.0709  0.1991 -0.3197
14186TIP3    H164049   3.487   2.113   5.180 -1.4370  0.0068 -0.9008
14186TIP3    H264050   3.467   2.068   5.323 -0.2095  0.6314 -0.5155
14187TIP3   OH264051   2.336   3.857  13.725  0.0377  0.3682  0.1210
14187TIP3    H164052   2.363   3.943  13.757  0.3652  1.0178 -1.7641
14187TIP3    H264053   2.416   3.804  13.726 -0.1250  0.1261  1.1012
14188TIP3   OH264054   2.589   0.481   4.225 -0.1546  0.1066  0.1968
14188TIP3    H164055   2.673   0.489   4.270 -0.8218  2.1705  1.2345
14188TIP3    H264056   2.579   0.565   4.179 -1.8810  0.1094  0.5341
14189TIP3   OH264057   3.591   2.205  16.369  0.4376  0.1789  0.2531
14189TIP3    H164058   3.564   2.140  16.304  3.0453 -0.4254 -0.3261
14189TIP3    H264059   3.653   2.261  16.323 -1.2376  2.7340  0.9373
14190TIP3   OH264060   4.055   4.886  12.627  0.0340  0.2984  0.6256
14190TIP3    H164061   3.992   4.870  12.697 -0.1414  1.5162  0.7621
14190TIP3    H264062   4.103   4.964  12.655  1.9417 -0.8606  0.7533
14191TIP3   OH264063   5.072   1.125  15.101 -0.6058 -0.2904 -0.0302
14191TIP3    H164064   5.110   1.039  15.117 -0.7187 -0.3275  0.0342
14191TIP3    H264065   5.011   1.139  15.173  0.1282  0.2612  0.5004
14192TIP3   OH264066   1.734   4.523  14.337  0.4324 -0.1889 -0.7748
14192TIP3    H164067   1.675   4.590  14.370 -0.8115 -0.6425 -1.9764
14192TIP3    H264068   1.812   4.571  14.309  0.0650  0.5915 -0.4870
14193TIP3   OH264069   6.843   1.321  16.807  0.3056  0.3553 -0.6872
14193TIP3    H164070   6.917   1.259  16.809 -0.5980 -0.7477  0.3454
14193TIP3    H264071   6.790   1.291  16.733  0.8525  1.1255 -1.4061
14194TIP3   OH264072   0.063   4.157   3.808  0.6066 -0.8846  0.0215
14194TIP3    H164073  -0.003   4.123   3.868 -0.0217  1.6791  0.9036
14194TIP3    H264074   0.125   4.204   3.864  0.8642  0.2613 -1.1679
14195TIP3   OH264075   6.355   6.723   1.746 -0.3882  0.1199 -0.0267
14195TIP3    H164076   6.321   6.810   1.726 -0.8964 -0.1874 -0.5362
14195TIP3    H264077   6.380   6.728   1.838 -1.1103  0.5862  0.1567
14196TIP3   OH264078   3.330   0.114   1.093 -0.2179 -0.4601 -0.3194
14196TIP3    H164079   3.380   0.033   1.102 -0.0571 -0.2724  0.5918
14196TIP3    H264080   3.370   0.159   1.019 -1.7609 -2.2253 -2.3709
14197TIP3   OH264081   4.305   3.585  14.406 -0.6191 -0.3095  0.2303
14197TIP3    H164082   4.305   3.678  14.428  1.2826  0.1069 -1.2225
14197TIP3    H264083   4.329   3.540  14.488 -0.9169  0.5182  0.7798
14198TIP3   OH264084   4.447   1.055   3.375 -0.7168 -0.7355  0.0627
14198TIP3    H164085   4.398   1.078   3.454 -2.3827 -1.1731 -0.8158
14198TIP3    H264086   4.435   0.961   3.365 -0.2855 -0.7303 -0.5759
14199TIP3   OH264087   0.063   1.927  14.390 -0.0592  0.3305  0.0237
14199TIP3    H164088   0.018   2.010  14.401 -0.1732  0.1860  0.6561
14199TIP3    H264089   0.020   1.868  14.452 -1.7753 -0.9310 -2.1729
14200TIP3   OH264090   4.872   1.214  11.381  0.1674 -0.3237 -0.7061
14200TIP3    H164091   4.779   1.238  11.374  0.4712  1.2764  0.2955
14200TIP3    H264092   4.897   1.241  11.469  1.9890  0.7758 -1.5099
14201TIP3   OH264093   4.096   2.596  13.283  0.0730 -0.2838 -0.1593
14201TIP3    H164094   4.072   2.612  13.192 -0.1104 -0.0231 -0.0638
14201TIP3    H264095   4.016   2.612  13.333  0.2210 -0.2448  0.0685
14202TIP3   OH264096   3.674   1.541  11.750 -0.3478 -0.0658 -0.4101
14202TIP3    H164097   3.659   1.463  11.697  0.6972 -0.5120 -0.0603
14202TIP3    H264098   3.768   1.540  11.769 -0.7183 -0.0438  1.6432
14203TIP3   OH264099   4.346   6.757  16.977  0.5427  0.0498  0.0838
14203TIP3    H164100   4.314   6.797  17.058  0.6957 -1.6179  1.0154
14203TIP3    H264101   4.406   6.688  17.007  2.6078  1.0534 -1.5283
14204TIP3   OH264102   6.354   3.757  15.888 -0.6071  0.2109  0.4834
14204TIP3    H164103   6.274   3.704  15.891 -0.8714  0.3923 -1.7060
14204TIP3    H264104   6.329   3.840  15.929 -1.1698 -0.1583  0.9112
14205TIP3   OH264105   6.492   2.910   3.727  0.4230 -0.1634 -0.1461
14205TIP3    H164106   6.416   2.938   3.777  0.7472  2.0270 -0.7918
14205TIP3    H264107   6.457   2.856   3.656 -0.4728  0.4731 -0.1908
14206TIP3   OH264108   4.297   6.490  12.718 -0.1782  0.1869  0.2152
14206TIP3    H164109   4.210   6.530  12.718 -0.2197  0.0959  0.1191
14206TIP3    H264110   4.319   6.481  12.626 -1.1867 -2.2358  0.1500
14207TIP3   OH264111   3.567   4.966   1.748  0.1210 -0.4869  0.1793
14207TIP3    H164112   3.575   5.056   1.780  1.8959 -1.2765  2.1294
14207TIP3    H264113   3.646   4.952   1.696 -0.8350 -0.5124 -1.3367
14208TIP3   OH264114   1.906   0.553  16.420  0.7533 -0.3013 -0.4276
14208TIP3    H164115   1.932   0.623  16.361 -1.4414  2.1461  1.2778
14208TIP3    H264116   1.988   0.510  16.445  1.9908  0.4201 -2.9110
14209TIP3   OH264117   1.344   6.681  15.870 -0.0137 -0.1768  0.3267
14209TIP3    H164118   1.284   6.609  15.852 -1.5064  0.4770  2.4046
14209TIP3    H264119   1.288   6.758  15.879  1.4401  1.0669 -0.6872
14210TIP3   OH264120   5.178   4.604  13.119 -0.1381 -0.3739 -0.4609
14210TIP3    H164121   5.189   4.626  13.211  0.4149 -0.3479 -0.5298
14210TIP3    H264122   5.163   4.509  13.119 -2.3647 -0.0745 -0.1789
14211TIP3   OH264123   1.807   0.901   3.321 -0.6472 -0.2112  0.2980
14211TIP3    H164124   1.810   0.981   3.374 -1.3731  1.2191 -1.7044
14211TIP3    H264125   1.874   0.913   3.255 -1.9006 -0.4581 -1.0679
14212TIP3   OH264126   5.503   3.320  14.775  0.1868 -0.3346  0.0048
14212TIP3    H164127   5.463   3.339  14.691 -1.3519 -2.6959  0.1153
14212TIP3    H264128   5.477   3.393  14.832 -1.4370 -0.2966 -0.7456
14213TIP3   OH264129   5.285   0.309   4.876 -0.3359  0.0348  0.6865
14213TIP3    H164130   5.217   0.303   4.809 -0.2825  0.0810  0.6289
14213TIP3    H264131   5.293   0.220   4.910  0.8867 -0.3809 -0.6023
14214TIP3   OH264132   1.705   3.191  14.139 -0.0869  0.1322 -0.6001
14214TIP3    H164133   1.621   3.235  14.127 -0.1452  0.3742  0.5943
14214TIP3    H264134   1.765   3.240  14.081 -0.6159  0.3742 -0.9570
14215TIP3   OH264135   0.332   2.786  14.288  0.3764 -0.4652 -0.2473
14215TIP3    H164136   0.397   2.842  14.247 -1.4173  0.5862 -1.8048
14215TIP3    H264137   0.248   2.828  14.268 -0.9711 -3.1072 -0.5252
14216TIP3   OH264138   2.541   0.907   1.530  0.2935  0.1272 -0.3188
14216TIP3    H164139   2.466   0.946   1.575  1.6725  0.6632  1.6032
14216TIP3    H264140   2.517   0.911   1.437 -1.1356  2.2518  0.0729
14217TIP3   OH264141   2.733   3.552   6.317 -0.2508  0.2877  0.5691
14217TIP3    H164142   2.783   3.512   6.245 -0.5714 -0.3991  0.7170
14217TIP3    H264143   2.786   3.535   6.395  0.4365  1.6280  0.4288
14218TIP3   OH264144   2.766   5.617  15.114  0.2996 -0.3781  0.1437
14218TIP3    H164145   2.694   5.677  15.132 -1.0574 -1.6011 -1.0448
14218TIP3    H264146   2.845   5.671  15.125 -0.8557  1.6131 -0.8705
14219TIP3   OH264147   4.642   2.776   5.488 -0.0724 -0.5465  0.0478
14219TIP3    H164148   4.715   2.715   5.501 -0.1618 -1.0647 -1.6585
14219TIP3    H264149   4.569   2.735   5.533  0.4851 -0.4034  1.1179
14220TIP3   OH264150   0.619   6.775   4.865  0.7903 -0.0269  0.4267
14220TIP3    H164151   0.580   6.690   4.846 -0.4685  0.9679 -1.8784
14220TIP3    H264152   0.703   6.774   4.819  0.8414 -0.0671  0.5200
14221TIP3   OH264153   4.153   6.019   5.238 -0.0878 -0.0508  0.8122
14221TIP3    H164154   4.092   5.947   5.221  1.0452 -0.9578  0.4811
14221TIP3    H264155   4.225   5.979   5.287  0.9073  0.6854 -0.0032
14222TIP3   OH264156   5.114   3.259  11.637 -0.2727  0.0073  0.5029
14222TIP3    H164157   5.094   3.254  11.730 -0.0649 -2.2989  0.4990
14222TIP3    H264158   5.030   3.282  11.596  0.2961  4.4712  1.3618
14223TIP3   OH264159   3.666   5.638   2.346 -0.2920 -0.3427 -0.0338
14223TIP3    H164160   3.728   5.693   2.298  0.7542 -2.6757 -1.5880
14223TIP3    H264161   3.716   5.606   2.422  0.3459 -1.8244 -1.0183
14224TIP3   OH264162   2.665   1.397   1.788 -0.0535  0.3331  0.1297
14224TIP3    H164163   2.590   1.359   1.741 -0.9095  1.4608  0.5540
14224TIP3    H264164   2.719   1.435   1.719 -1.1542  1.7244 -0.0095
14225TIP3   OH264165   2.977   4.999   4.592 -0.2520  0.2517 -0.7217
14225TIP3    H164166   2.987   4.998   4.496  1.5636 -3.4671 -0.6804
14225TIP3    H264167   3.066   5.016   4.624 -0.2385 -1.4539  0.2186
14226TIP3   OH264168   5.474   0.018  14.452 -0.2507  1.1361 -0.2835
14226TIP3    H164169   5.399   0.076  14.440  0.2243  1.4737 -1.9182
14226TIP3    H264170   5.453  -0.059  14.399  1.2960  2.0137 -2.3041
14227TIP3   OH264171   0.875   5.208  10.170  0.0099  0.1631 -0.0256
14227TIP3    H164172   0.782   5.212  10.147  0.6315  1.3194 -2.7219
14227TIP3    H264173   0.880   5.246  10.257 -2.1466 -0.8514  0.6014
14228TIP3   OH264174   4.365   5.214   3.510  0.1064  0.1831  0.5736
14228TIP3    H164175   4.305   5.202   3.435  3.7801  0.6198 -2.7763
14228TIP3    H264176   4.403   5.127   3.524  1.1577  0.5844  0.2823
14229TIP3   OH264177   2.169   2.413   3.803 -0.0913  0.2886  0.4538
14229TIP3    H164178   2.175   2.509   3.803  0.2457  0.2722  1.0626
14229TIP3    H264179   2.255   2.384   3.834  0.4657 -0.2677 -1.4801
14230TIP3   OH264180   2.090   5.745  11.930 -0.3421 -0.1602 -0.0418
14230TIP3    H164181   2.008   5.759  11.976 -0.1846 -0.9376  0.4915
14230TIP3    H264182   2.155   5.793  11.981 -0.6778  1.7846 -1.3270
14231TIP3   OH264183   4.559   3.501  11.594  0.7022 -0.2160  0.6981
14231TIP3    H164184   4.581   3.593  11.608  1.5676 -0.7244  2.9812
14231TIP3    H264185   4.618   3.453  11.651  1.3628 -2.3505 -1.6043
14232TIP3   OH264186   5.121   6.133  16.298 -0.2811 -0.2156 -0.1521
14232TIP3    H164187   5.119   6.209  16.356 -2.1668 -0.5752  0.3281
14232TIP3    H264188   5.136   6.058  16.356  2.0191 -0.2289 -0.6710
14233TIP3   OH264189   5.821   1.439   1.433  0.3608  0.0061  0.0811
14233TIP3    H164190   5.779   1.385   1.366  1.5554  0.7826 -1.3570
14233TIP3    H264191   5.875   1.501   1.384  2.1727 -0.1097  1.7781
14234TIP3   OH264192   4.048   1.205  12.452 -0.1119  0.4368 -0.3240
14234TIP3    H164193   4.023   1.281  12.400 -0.9145 -0.1091 -0.7498
14234TIP3    H264194   3.974   1.191  12.511 -1.1048 -1.4654 -1.8925
14235TIP3   OH264195   2.281   0.727   3.730 -0.0757 -0.4041  0.2080
14235TIP3    H164196   2.321   0.814   3.729  1.2094 -0.9785 -0.3473
14235TIP3    H264197   2.207   0.735   3.790  0.2027  0.9893  0.3904
14236TIP3   OH264198   4.810   6.730   0.463 -0.0755  0.1073 -0.7213
14236TIP3    H164199   4.826   6.732   0.369  1.4954 -1.1510 -0.5181
14236TIP3    H264200   4.867   6.660   0.496 -0.9586  0.1840  1.0976
14237TIP3   OH264201   2.407   3.947   4.277  0.4233  0.2270  0.1124
14237TIP3    H164202   2.371   3.867   4.240  1.9226 -1.2235  1.6235
14237TIP3    H264203   2.338   4.013   4.263 -0.5624 -1.1189 -1.7712
14238TIP3   OH264204   0.069   4.512  14.091  0.0273 -0.4284 -0.2074
14238TIP3    H164205   0.120   4.433  14.106  2.2552  1.1600  1.3182
14238TIP3    H264206  -0.009   4.501  14.146  1.2404 -0.7881  1.5139
14239TIP3   OH264207   5.833   1.358  16.458  0.0191  0.1180 -0.1360
14239TIP3    H164208   5.886   1.292  16.413 -0.1365 -0.3284  0.3287
14239TIP3    H264209   5.745   1.321  16.459  0.2266 -0.4171  1.5514
14240TIP3   OH264210   4.568   1.984  13.225  0.5590 -0.9829 -0.2751
14240TIP3    H164211   4.583   2.032  13.307 -1.9574 -1.2557  0.4186
14240TIP3    H264212   4.516   2.044  13.172  2.2968 -0.7473 -1.8201
14241TIP3   OH264213   1.856   4.146   6.375  0.1223  0.0206  0.3983
14241TIP3    H164214   1.778   4.199   6.358 -0.0239 -0.5931 -0.9807
14241TIP3    H264215   1.924   4.209   6.397 -0.3878  0.6725  0.1376
14242TIP3   OH264216   4.124   4.542  13.863 -0.4871 -0.7978 -0.2679
14242TIP3    H164217   4.145   4.505  13.948  1.3120  0.8236  0.0714
14242TIP3    H264218   4.174   4.490  13.800  1.0463  0.1881  0.0796
14243TIP3   OH264219   0.430   5.441   5.427  0.3198  0.8621 -0.5276
14243TIP3    H164220   0.381   5.362   5.452  0.8105  0.6254 -0.2923
14243TIP3    H264221   0.411   5.504   5.497 -0.4579  1.1251 -0.9636
14244TIP3   OH264222   2.435   4.848   2.835 -0.0817  0.2425 -0.0565
14244TIP3    H164223   2.359   4.816   2.785 -0.3909 -1.1939  1.2354
14244TIP3    H264224   2.457   4.931   2.795 -2.4550  0.7802 -0.3951
14245TIP3   OH264225   5.726   1.736  16.495  0.2804 -0.0399 -0.2811
14245TIP3    H164226   5.722   1.807  16.431 -0.9395  0.1870  0.0225
14245TIP3    H264227   5.726   1.656  16.442 -0.6537  0.1465 -0.5819
14246TIP3   OH264228   3.123   6.221  10.257 -0.8442  0.1474  0.0314
14246TIP3    H164229   3.164   6.137  10.238 -1.9022  0.0758 -2.2642
14246TIP3    H264230   3.196   6.283  10.258 -0.0195 -0.7678  1.9861
14247TIP3   OH264231   4.413   4.243   1.073  0.4230 -0.2764 -0.7277
14247TIP3    H164232   4.386   4.269   1.162  0.8688  0.1231 -0.7049
14247TIP3    H264233   4.452   4.157   1.084 -1.9940 -1.4979 -0.9509
14248TIP3   OH264234   0.243   4.874   1.987 -0.3572  0.4337 -0.1317
14248TIP3    H164235   0.204   4.794   2.022 -0.6342  0.7617  0.3157
14248TIP3    H264236   0.298   4.844   1.915  0.0594 -0.2261  0.4521
14249TIP3   OH264237   3.541   3.588  14.371  0.5462 -0.2241  0.2768
14249TIP3    H164238   3.521   3.667  14.320 -0.3984  0.7419  2.0490
14249TIP3    H264239   3.624   3.557  14.335  0.3937  0.9528 -1.1924
14250TIP3   OH264240   2.008   5.126   3.764 -0.2941  0.2419  0.2515
14250TIP3    H164241   1.959   5.189   3.712 -0.0946  0.9606  0.9155
14250TIP3    H264242   2.094   5.121   3.722  0.0186  1.1548  0.7403
14251TIP3   OH264243   0.085   1.716  11.126 -0.4008  0.1789 -0.4887
14251TIP3    H164244   0.082   1.713  11.221  1.7991 -0.3409 -0.4003
14251TIP3    H264245   0.062   1.807  11.104  1.1859  0.8947  0.6724
14252TIP3   OH264246   1.306   5.490   5.444  0.6074  0.1652  0.2030
14252TIP3    H164247   1.333   5.559   5.505  0.6466  0.0597  0.3067
14252TIP3    H264248   1.313   5.530   5.358 -0.6802  0.7337  0.3420
14253TIP3   OH264249   2.094   6.469  14.199 -0.4650  0.0283  0.4150
14253TIP3    H164250   2.185   6.462  14.226 -0.4461 -0.7025  0.1715
14253TIP3    H264251   2.044   6.421  14.265 -0.3469 -2.4338 -1.1679
14254TIP3   OH264252   6.274   0.835  13.583 -0.2709 -0.0976  0.0725
14254TIP3    H164253   6.266   0.744  13.610 -2.3100  0.4314  1.5195
14254TIP3    H264254   6.336   0.833  13.511 -1.4383 -2.8554 -1.0027
14255TIP3   OH264255   0.273   1.935   5.063 -0.2829  0.1414 -0.0570
14255TIP3    H164256   0.337   1.887   5.009 -0.4153  0.2034 -0.2725
14255TIP3    H264257   0.297   1.913   5.153  1.8066  2.3604  0.0341
14256TIP3   OH264258   2.875   0.884  15.955  0.8562 -0.0396  0.1631
14256TIP3    H164259   2.808   0.816  15.956  0.6936  0.1123  1.3614
14256TIP3    H264260   2.942   0.852  15.894 -0.0971 -0.3849 -0.7258
14257TIP3   OH264261   5.012   3.560   5.688  0.2597  0.8223  0.0915
14257TIP3    H164262   4.996   3.624   5.757  0.0095  1.5738 -0.6424
14257TIP3    H264263   5.107   3.562   5.676  0.3365  0.4721  0.6064
14258TIP3   OH264264   0.547   1.338  15.451 -0.2795  0.4316 -0.1558
14258TIP3    H164265   0.586   1.365  15.534  1.2868  2.5607 -1.4758
14258TIP3    H264266   0.454   1.355  15.461 -0.1199  0.5936  1.1800
14259TIP3   OH264267   2.346   4.638  11.208  0.5210 -0.2027 -0.5117
14259TIP3    H164268   2.394   4.569  11.163  1.5436  0.3183 -0.2508
14259TIP3    H264269   2.390   4.646  11.293 -2.2777 -2.2292  1.3122
14260TIP3   OH264270   1.335   0.000  16.881  0.3660 -0.6100 -0.0658
14260TIP3    H164271   1.288  -0.011  16.798  0.0793 -0.2384  0.0434
14260TIP3    H264272   1.348   0.095  16.888  0.6510 -0.6662  0.1701
14261TIP3   OH264273   5.957   4.188  15.627  0.2412  0.6512 -0.1461
14261TIP3    H164274   5.998   4.240  15.558  0.1119 -1.4702 -1.9419
14261TIP3    H264275   6.030   4.154  15.678  0.3562  1.8777  0.5571
14262TIP3   OH264276   0.711   1.890  14.771 -0.8357 -0.3939  0.0571
14262TIP3    H164277   0.769   1.826  14.813 -1.2514 -0.1619  1.0119
14262TIP3    H264278   0.668   1.841  14.702 -0.4382 -0.8997  0.1609
14263TIP3   OH264279   4.242   5.485  14.968  0.2112 -0.0332  0.2916
14263TIP3    H164280   4.201   5.444  14.892  1.1331 -0.8062  0.2008
14263TIP3    H264281   4.305   5.547  14.931  1.2576 -1.0124  0.4123
14264TIP3   OH264282   5.278   3.957   3.794 -0.5520 -0.4398 -0.1284
14264TIP3    H164283   5.237   4.010   3.727 -0.1174 -0.0450 -0.0870
14264TIP3    H264284   5.246   3.992   3.877 -0.2009 -0.1829 -0.0986
14265TIP3   OH264285   0.390   3.720  15.866  0.2182 -0.3840  0.2551
14265TIP3    H164286   0.385   3.625  15.877 -0.7942 -0.4901 -0.8731
14265TIP3    H264287   0.458   3.733  15.800 -1.8763 -0.6036 -2.0790
14266TIP3   OH264288   6.055   5.911  10.477  0.2742  0.0106 -0.2974
14266TIP3    H164289   5.960   5.908  10.489  0.2029 -0.2212 -0.8992
14266TIP3    H264290   6.090   5.880  10.561 -0.1632  0.7438  0.1677
14267TIP3   OH264291   1.792   6.133   4.382  0.0763  0.7871 -0.3234
14267TIP3    H164292   1.861   6.075   4.349 -0.2231  1.1160 -1.5940
14267TIP3    H264293   1.836   6.188   4.446  0.0253 -1.9449  2.2878
14268TIP3   OH264294   3.227   2.594   5.058  0.7379  0.1859  0.2935
14268TIP3    H164295   3.178   2.670   5.029 -0.7454 -0.5375  0.8116
14268TIP3    H264296   3.300   2.630   5.109  0.5093  1.2665 -0.1150
14269TIP3   OH264297   1.557   0.440   1.222 -0.4578 -0.1528  0.3169
14269TIP3    H164298   1.469   0.428   1.186 -0.7145 -3.2963  1.6633
14269TIP3    H264299   1.543   0.493   1.301 -0.8248  0.8933 -0.4172
14270TIP3   OH264300   0.592   0.418  14.137 -0.1129  0.2191 -0.4154
14270TIP3    H164301   0.514   0.363  14.133  1.1234 -1.6237 -0.4942
14270TIP3    H264302   0.569   0.496  14.087 -1.5483 -0.7413 -1.3446
14271TIP3   OH264303   1.906   2.960   3.164 -0.0705  0.1699 -0.0858
14271TIP3    H164304   1.901   2.873   3.204  0.0197  0.7768  1.3204
14271TIP3    H264305   1.972   2.952   3.096 -1.6566 -1.4267 -1.5407
14272TIP3   OH264306   5.153   4.698  12.629  0.1619 -0.0952  0.5908
14272TIP3    H164307   5.104   4.718  12.549  0.4941 -1.5343 -0.0045
14272TIP3    H264308   5.201   4.618  12.608 -1.0678 -1.4914  2.7874
14273TIP3   OH264309   2.891   3.933   1.561 -0.0024  0.1905  0.4978
14273TIP3    H164310   2.813   3.983   1.587  0.3239  0.5871  0.7333
14273TIP3    H264311   2.963   3.979   1.604  0.6216  1.1243 -1.4321
14274TIP3   OH264312   3.640   1.821   1.014  0.6087 -0.4473  0.0438
14274TIP3    H164313   3.631   1.780   1.100 -1.6471  0.7546  0.4514
14274TIP3    H264314   3.685   1.755   0.961  2.6078 -0.9741  2.2683
14275TIP3   OH264315   5.669   6.304  15.459 -0.2671  0.0249 -1.0076
14275TIP3    H164316   5.726   6.254  15.518 -0.2712 -1.7673 -2.4058
14275TIP3    H264317   5.710   6.390  15.453  0.1844 -0.0066  0.9238
14276TIP3   OH264318   4.964   6.456   5.271  0.1097 -0.1787 -0.5138
14276TIP3    H164319   4.928   6.525   5.216  1.1854  1.0323  0.2591
14276TIP3    H264320   5.059   6.465   5.263  0.3711 -3.1140 -2.2642
14277TIP3   OH264321   5.182   5.291   1.530  0.2618 -0.0989 -0.3110
14277TIP3    H164322   5.186   5.337   1.614  1.1191 -0.5162 -0.1131
14277TIP3    H264323   5.177   5.198   1.554  2.5289 -0.3786 -0.6901
14278TIP3   OH264324   3.148   2.910  12.638  0.5647 -0.0097  0.0077
14278TIP3    H164325   3.139   2.926  12.544 -2.0591 -0.4440  0.1035
14278TIP3    H264326   3.152   2.814  12.646  0.8907  0.0285  0.3376
14279TIP3   OH264327   2.682   3.411   0.337  0.0771  0.2661 -0.1838
14279TIP3    H164328   2.749   3.444   0.397  0.1124  0.4910 -0.3449
14279TIP3    H264329   2.599   3.433   0.381  0.1058  0.0636 -0.0248
14280TIP3   OH264330   4.958   6.392  13.574  0.0687 -0.0408 -0.2009
14280TIP3    H164331   4.966   6.317  13.516  0.8950 -0.6877  0.7049
14280TIP3    H264332   4.962   6.469  13.516  1.7398 -0.6345 -0.9235
14281TIP3   OH264333   0.681   4.642  12.056  0.3398 -0.0619 -0.1965
14281TIP3    H164334   0.716   4.731  12.051  0.2895 -0.0346 -0.0729
14281TIP3    H264335   0.712   4.599  11.976  1.7915 -0.4528  0.5326
14282TIP3   OH264336   2.013   1.792   5.292 -0.4946  0.3160 -0.9296
14282TIP3    H164337   2.104   1.798   5.321 -0.2645 -0.0787 -1.5632
14282TIP3    H264338   2.010   1.839   5.209 -1.1641  1.4783 -0.2751
14283TIP3   OH264339   4.502   0.381  10.475 -0.5024 -0.1113 -0.4099
14283TIP3    H164340   4.454   0.419  10.401 -0.2395 -0.7388 -0.9171
14283TIP3    H264341   4.528   0.456  10.528  2.6825  0.8288 -2.9576
14284TIP3   OH264342   4.284   3.605   0.415  0.1701 -0.4620  0.5047
14284TIP3    H164343   4.347   3.579   0.483  0.1206  6.1490  3.8679
14284TIP3    H264344   4.200   3.610   0.461 -0.6380  0.7232 -1.0136
14285TIP3   OH264345   4.890   5.540  10.908 -0.1279 -0.4513 -0.7890
14285TIP3    H164346   4.862   5.450  10.926 -1.2857  0.1112  0.4312
14285TIP3    H264347   4.980   5.544  10.938 -0.6251 -0.7637  0.8611
14286TIP3   OH264348   2.699   2.491   1.038  0.1499  0.4742 -0.3979
14286TIP3    H164349   2.652   2.470   1.119  0.6048 -2.4246 -0.7944
14286TIP3    H264350   2.704   2.587   1.039 -0.2686  0.6000  2.7421
14287TIP3   OH264351   5.629   1.113  12.963  0.4864 -1.0310 -0.5763
14287TIP3    H164352   5.719   1.131  12.989  0.2742  0.0195 -0.5164
14287TIP3    H264353   5.623   1.017  12.963  1.7055 -1.1281 -0.9653
14288TIP3   OH264354   5.330   3.029  14.005 -0.7863  0.3516 -0.3665
14288TIP3    H164355   5.346   3.035  13.910 -0.8978 -1.4326 -0.5508
14288TIP3    H264356   5.238   3.053  14.015 -0.6022  1.1841 -0.6171
14289TIP3   OH264357   4.911   6.184  14.108 -0.0407 -0.7519  0.1008
14289TIP3    H164358   4.904   6.279  14.114  1.3828 -0.5716 -0.7107
14289TIP3    H264359   4.965   6.158  14.183  0.3268 -0.8139 -0.1830
14290TIP3   OH264360   5.225   6.745  11.960 -0.7779  0.4090 -0.6641
14290TIP3    H164361   5.262   6.660  11.933 -0.8988  0.7496 -1.9776
14290TIP3    H264362   5.181   6.726  12.042 -0.4327 -0.7148 -0.7072
14291TIP3   OH264363   6.440   4.547   0.144 -0.2074 -0.2379  0.4900
14291TIP3    H164364   6.393   4.597   0.077  0.8970 -1.3531 -1.1691
14291TIP3    H264365   6.526   4.587   0.149 -0.0845 -0.5360  0.8294
14292TIP3   OH264366   0.364   0.643  14.593  0.5334 -0.1675 -0.7657
14292TIP3    H164367   0.292   0.699  14.622  1.2423 -0.7218  2.3649
14292TIP3    H264368   0.403   0.692  14.520 -1.4560  1.3001 -0.9526
14293TIP3   OH264369   2.379   2.568   2.025  0.1430 -0.1147  0.9387
14293TIP3    H164370   2.290   2.552   2.059  0.1146 -1.4684  0.2933
14293TIP3    H264371   2.396   2.493   1.967  0.6545  1.5008 -1.0945
14294TIP3   OH264372   0.903   0.851   5.401 -0.1574  0.3075  0.4408
14294TIP3    H164373   0.899   0.901   5.482 -0.3550 -1.7142  1.7701
14294TIP3    H264374   0.823   0.799   5.400 -0.6379  0.9769 -1.5793
14295TIP3   OH264375   1.255   1.487  13.597 -0.1273 -0.0225 -0.1095
14295TIP3    H164376   1.247   1.437  13.516  1.9206  1.4842 -1.3500
14295TIP3    H264377   1.349   1.496  13.611 -0.4097 -0.0126  2.3518
14296TIP3   OH264378   2.249   5.520   2.581 -0.2357 -0.1926  0.1153
14296TIP3    H164379   2.234   5.599   2.632  2.3601  0.1071  0.5644
14296TIP3    H264380   2.228   5.544   2.491 -2.4981  0.0033  0.6463
14297TIP3   OH264381   3.396   6.342  12.376 -0.0179  0.1201 -0.0632
14297TIP3    H164382   3.473   6.291  12.348 -0.7107 -0.0305 -1.7857
14297TIP3    H264383   3.369   6.300  12.458 -0.8276 -2.6966 -1.6139
14298TIP3   OH264384   2.697   3.909   2.319 -0.6736 -0.0889 -0.9229
14298TIP3    H164385   2.696   3.840   2.385 -1.3130 -0.3271 -1.1820
14298TIP3    H264386   2.605   3.931   2.305 -0.4591  1.2575 -0.3887
14299TIP3   OH264387   6.004   3.982   0.371  0.5969  0.3401 -0.0950
14299TIP3    H164388   6.011   3.917   0.301  2.5868 -0.9398  1.2010
14299TIP3    H264389   6.061   4.053   0.342 -0.3177  0.8336 -0.7550
14300TIP3   OH264390   0.874   0.172   5.948 -0.8551 -0.0717 -0.1349
14300TIP3    H164391   0.890   0.174   6.043 -0.8153 -0.0766 -0.1416
14300TIP3    H264392   0.800   0.113   5.938  0.1220 -1.3444 -0.2377
14301TIP3   OH264393   3.111   3.580   4.826 -0.0229 -0.1163  0.2386
14301TIP3    H164394   3.060   3.650   4.867 -2.1112 -0.1433 -2.0735
14301TIP3    H264395   3.084   3.501   4.873 -1.1917  0.0569 -0.0934
14302TIP3   OH264396   1.182   0.072   5.078 -0.5083  0.1310  0.2558
14302TIP3    H164397   1.244   0.003   5.055 -0.9658  0.0446 -0.7682
14302TIP3    H264398   1.212   0.149   5.031 -1.3056  0.0205 -0.4759
14303TIP3   OH264399   0.541   2.076  12.564  0.0122 -0.0997  0.5486
14303TIP3    H164400   0.486   2.035  12.631 -1.1978 -0.6039 -0.7259
14303TIP3    H264401   0.513   2.037  12.482  2.2040 -0.2982 -0.1874
14304TIP3   OH264402   3.408   1.306   0.697  0.2236 -0.1609 -0.3516
14304TIP3    H164403   3.436   1.297   0.606 -0.6552 -1.6157 -0.5196
14304TIP3    H264404   3.429   1.221   0.737 -1.0377 -0.1871  0.3047
14305TIP3   OH264405   2.095   5.617   0.836  0.3111  0.2786  0.4359
14305TIP3    H164406   2.018   5.672   0.821  1.0273  1.2087  0.0247
14305TIP3    H264407   2.137   5.612   0.751  0.5635 -0.4470  0.6010
14306TIP3   OH264408   3.259   6.118   0.777  0.0599  0.8674 -0.5801
14306TIP3    H164409   3.168   6.139   0.799 -0.3865 -0.7879 -0.7216
14306TIP3    H264410   3.260   6.023   0.764  2.0024  0.6941  0.3296
14307TIP3   OH264411   3.661   3.569   1.307 -0.3581 -0.4826 -0.0864
14307TIP3    H164412   3.748   3.610   1.308  0.1550 -1.5147  1.6957
14307TIP3    H264413   3.678   3.476   1.321 -1.6990 -0.9248 -1.1106
14308TIP3   OH264414   1.596   6.196  10.986  0.8002 -0.0280  0.2275
14308TIP3    H164415   1.565   6.106  10.994 -1.1635  0.3361 -2.1100
14308TIP3    H264416   1.684   6.188  10.949  0.3051 -0.9685 -0.7845
14309TIP3   OH264417   0.131   5.029   5.004 -0.0738 -0.2013 -0.0030
14309TIP3    H164418   0.213   5.055   5.046 -0.4220 -0.5219  0.8822
14309TIP3    H264419   0.142   5.057   4.913  1.8676 -2.0409 -0.4110
14310TIP3   OH264420   0.661   3.255  12.011 -0.1853 -0.3374  0.4144
14310TIP3    H164421   0.637   3.348  12.007  0.7229 -0.0470  1.2106
14310TIP3    H264422   0.579   3.208  11.996 -1.2222  0.6031  2.6969
14311TIP3   OH264423   1.348   4.378  13.775  0.1383 -0.1074  0.6307
14311TIP3    H164424   1.366   4.454  13.830  0.6407 -0.4216  0.9042
14311TIP3    H264425   1.369   4.408  13.686  1.8833 -0.3931  0.9041
14312TIP3   OH264426   1.506   6.804  10.977 -0.1965 -0.1589 -0.3973
14312TIP3    H164427   1.597   6.787  11.001 -0.0885 -2.6496 -2.1590
14312TIP3    H264428   1.472   6.858  11.048  1.2099 -3.5168  3.1777
14313TIP3   OH264429   3.767   1.262   6.337 -0.4553  0.5586 -0.0865
14313TIP3    H164430   3.713   1.242   6.260 -2.7731 -0.6449  1.7155
14313TIP3    H264431   3.775   1.177   6.382  2.2812  0.8869  0.1881
14314TIP3   OH264432   5.449   6.041   2.488 -0.1519  0.3374  0.2380
14314TIP3    H164433   5.387   5.991   2.433  0.6684 -0.4851  0.0389
14314TIP3    H264434   5.531   6.038   2.440  0.2814  0.6238  0.9491
14315TIP3   OH264435   0.688   4.190   6.334  0.0725 -0.0998 -0.3342
14315TIP3    H164436   0.713   4.161   6.421  0.8768 -1.0341 -0.8502
14315TIP3    H264437   0.698   4.285   6.336 -0.0616 -0.1017  0.6317
14316TIP3   OH264438   5.033   4.507   2.381 -0.0539 -0.4908  0.3381
14316TIP3    H164439   5.021   4.456   2.300 -2.2991  1.1712 -0.4796
14316TIP3    H264440   4.967   4.471   2.441  0.6608 -0.7826  0.9546
14317TIP3   OH264441   1.855   5.331   0.684  0.5360  0.5042  0.4913
14317TIP3    H164442   1.894   5.346   0.598 -1.5169  1.7213 -0.2782
14317TIP3    H264443   1.890   5.246   0.711  0.0854 -0.6321 -2.2123
14318TIP3   OH264444   4.099   6.493  15.450 -0.3407 -0.4944 -0.3975
14318TIP3    H164445   4.028   6.534  15.500  1.7416  1.2163  1.3391
14318TIP3    H264446   4.151   6.446  15.515  0.6510 -0.9396 -1.4733
14319TIP3   OH264447   0.796   1.489  16.894 -0.2969 -0.2003 -0.0513
14319TIP3    H164448   0.785   1.400  16.927  0.8459 -0.1129  0.6232
14319TIP3    H264449   0.766   1.545  16.965 -0.4999 -0.0435 -0.2622
14320TIP3   OH264450   2.704   2.717   6.568  0.2067 -0.5029 -0.1303
14320TIP3    H164451   2.769   2.785   6.550  0.5142 -0.2049  1.8715
14320TIP3    H264452   2.638   2.762   6.621 -0.3406 -1.4166 -0.0347
14321TIP3   OH264453   4.090   0.291  15.077  0.6747  0.9078 -0.3282
14321TIP3    H164454   4.055   0.208  15.111  0.8981  0.6740 -0.6723
14321TIP3    H264455   4.159   0.266  15.016  0.3835  1.3335 -0.8410
14322TIP3   OH264456   0.383   4.494   1.076 -0.0696  0.0773  1.0622
14322TIP3    H164457   0.389   4.494   0.981  1.6794 -0.1645  1.1405
14322TIP3    H264458   0.300   4.539   1.095  0.2620  1.4638 -0.5346
14323TIP3   OH264459   3.283   5.933  14.398  0.8066 -0.0413  0.2639
14323TIP3    H164460   3.329   5.871  14.340 -0.5736 -1.6217  0.7697
14323TIP3    H264461   3.231   5.986  14.338 -0.4107 -1.4917 -0.0378
14324TIP3   OH264462   3.184   1.161  10.913  0.8463 -0.4931  0.0473
14324TIP3    H164463   3.251   1.176  10.846 -2.3101  1.4713 -3.0340
14324TIP3    H264464   3.114   1.224  10.892 -2.1730 -2.5726  2.7538
14325TIP3   OH264465   1.019   1.944  11.706 -0.3842 -0.1578 -0.1684
14325TIP3    H164466   0.925   1.960  11.698 -0.0122  4.1936  1.6720
14325TIP3    H264467   1.056   1.975  11.623 -0.4278 -1.2533 -0.6241
14326TIP3   OH264468   6.152   2.542   3.037  0.3200  0.0930  0.5351
14326TIP3    H164469   6.197   2.598   2.974  0.7515  1.5724  2.0802
14326TIP3    H264470   6.217   2.527   3.106 -0.7852  0.2874  1.6535
14327TIP3   OH264471   1.032   4.456   4.208 -0.1154 -0.5924  0.3787
14327TIP3    H164472   0.964   4.388   4.209 -1.0291  0.3055  1.4848
14327TIP3    H264473   1.082   4.438   4.128 -1.2359 -1.6788 -0.1147
14328TIP3   OH264474   1.323   2.222  11.949 -0.1148 -0.2189 -0.3611
14328TIP3    H164475   1.376   2.159  11.900 -1.0366 -1.8365  0.6118
14328TIP3    H264476   1.233   2.195  11.931 -0.4908 -0.1190  1.2325
14329TIP3   OH264477   1.593   1.905  14.487 -0.1871 -0.1606  0.2124
14329TIP3    H164478   1.544   1.865  14.558 -3.1085  1.6813 -0.5958
14329TIP3    H264479   1.680   1.921  14.524 -1.3621  0.0667  3.1272
14330TIP3   OH264480   0.601   1.481   1.875 -0.0848  0.3956 -0.2659
14330TIP3    H164481   0.664   1.435   1.819 -0.8330 -1.1141  0.0588
14330TIP3    H264482   0.561   1.546   1.818  0.3946  0.0558 -1.0141
14331TIP3   OH264483   3.355   0.282  11.649 -0.5525  0.0457  0.4404
14331TIP3    H164484   3.315   0.196  11.661  0.3625 -0.3988  0.3301
14331TIP3    H264485   3.290   0.331  11.599  0.0285 -1.4664 -1.9398
14332TIP3   OH264486   4.817   3.946   0.295 -0.4913  0.1927 -0.2450
14332TIP3    H164487   4.830   4.040   0.304 -0.2429  0.5737 -3.4637
14332TIP3    H264488   4.722   3.933   0.301 -0.6734  0.9006 -1.4422
14333TIP3   OH264489   0.753   3.234   1.103  0.2758 -0.0408  0.4377
14333TIP3    H164490   0.690   3.181   1.054 -0.7618  2.0210 -0.5886
14333TIP3    H264491   0.700   3.285   1.165  0.9391  1.3365 -0.0770
14334TIP3   OH264492   0.429   0.364   4.646  0.2063 -0.4203  0.2236
14334TIP3    H164493   0.338   0.384   4.669 -0.1269 -0.5142 -0.9032
14334TIP3    H264494   0.442   0.274   4.673  0.1381 -0.2384  0.8738
14335TIP3   OH264495   3.960   2.181   2.063 -0.1986 -0.0585 -0.2747
14335TIP3    H164496   3.935   2.102   2.110  0.7428 -0.7571 -0.9001
14335TIP3    H264497   4.003   2.236   2.128 -0.6619 -0.1556  0.1152
14336TIP3   OH264498   1.084   4.486  10.630 -0.2474 -0.7649  0.3473
14336TIP3    H164499   1.145   4.536  10.576  1.2871 -0.7512  1.9955
14336TIP3    H264500   1.068   4.406  10.579  0.2040 -0.2365 -0.6533
14337TIP3   OH264501   5.642   4.675  15.204  0.2573  0.1963 -0.3828
14337TIP3    H164502   5.629   4.689  15.297 -0.4720 -0.7212 -0.3332
14337TIP3    H264503   5.597   4.749  15.162  2.2798  1.7239  0.0098
14338TIP3   OH264504   2.128   1.208   2.903 -0.2333  0.5123  0.6012
14338TIP3    H164505   2.037   1.179   2.907 -0.1797  0.3437  0.5694
14338TIP3    H264506   2.163   1.170   2.823 -0.2644  0.9502  0.3747
14339TIP3   OH264507   3.154   3.602   2.853  0.0441  0.5841 -1.1349
14339TIP3    H164508   3.075   3.652   2.874  0.3829  0.7731 -0.2980
14339TIP3    H264509   3.146   3.522   2.904  1.1848  1.3346  0.3080
14340TIP3   OH264510   1.331   0.444  12.158  0.2126 -0.2774 -0.0246
14340TIP3    H164511   1.281   0.376  12.113 -1.8016  0.5285  0.8467
14340TIP3    H264512   1.278   0.465  12.235  3.0638 -0.9740  2.3025
14341TIP3   OH264513   5.040   2.081   0.478  0.0229  0.0420 -0.3770
14341TIP3    H164514   5.094   2.062   0.401 -0.2919 -1.3739 -0.2732
14341TIP3    H264515   5.009   1.996   0.507  1.2288  0.3851  2.1509
14342TIP3   OH264516   2.456   6.717  13.251 -0.0245  0.5017 -0.2349
14342TIP3    H164517   2.409   6.770  13.316  2.3892 -0.2322  2.2643
14342TIP3    H264518   2.523   6.776  13.217 -0.3516  0.4306 -1.0270
14343TIP3   OH264519   3.375   1.060   5.093  0.3543 -0.1344 -0.6485
14343TIP3    H164520   3.308   0.991   5.090  1.6367 -1.4032 -2.6808
14343TIP3    H264521   3.335   1.135   5.050  0.2557 -0.9659 -2.0778
14344TIP3   OH264522   1.622   3.704   4.168 -0.4114  0.1833  0.3630
14344TIP3    H164523   1.649   3.627   4.118 -0.8650  1.2352 -1.5592
14344TIP3    H264524   1.547   3.675   4.220 -2.8800  0.1171 -2.9799
14345TIP3   OH264525   5.428   1.826  11.220 -0.4956 -0.1859  0.5743
14345TIP3    H164526   5.348   1.785  11.186 -0.0171  0.4977 -1.5057
14345TIP3    H264527   5.496   1.759  11.210 -0.0355  0.5132 -1.3754
14346TIP3   OH264528   5.204   1.586   3.343  0.2753 -0.3759  0.3788
14346TIP3    H164529   5.180   1.554   3.255 -1.4706 -0.7880  0.9682
14346TIP3    H264530   5.299   1.578   3.345  0.4249  0.1345 -1.6626
14347TIP3   OH264531   2.128   5.820  14.632 -0.0973 -0.4237 -0.0140
14347TIP3    H164532   2.119   5.729  14.601 -1.6017  0.3163 -1.9979
14347TIP3    H264533   2.083   5.820  14.717 -1.7155 -1.1817 -0.8224
14348TIP3   OH264534   5.556   0.177   2.710  0.2847 -0.1425 -0.0369
14348TIP3    H164535   5.588   0.200   2.797  0.5423 -1.4799  0.2344
14348TIP3    H264536   5.556   0.082   2.708  0.8175 -0.1432 -1.6986
14349TIP3   OH264537   5.220   0.379   6.268  0.5163 -0.4797  0.7254
14349TIP3    H164538   5.241   0.286   6.254 -1.0158 -1.1453  2.4415
14349TIP3    H264539   5.287   0.409   6.330  1.8031 -0.0314 -0.8196
14350TIP3   OH264540   4.405   1.626   5.132  0.4687 -0.3267  0.0011
14350TIP3    H164541   4.454   1.588   5.205 -0.0977 -0.8202  0.1390
14350TIP3    H264542   4.315   1.629   5.163  0.2266 -0.4938 -0.6569
14351TIP3   OH264543   2.962   3.060   1.956  0.3454 -0.2354  0.2350
14351TIP3    H164544   2.998   3.148   1.951 -1.7594  0.7070  0.6790
14351TIP3    H264545   3.028   3.010   2.005  2.0495  0.7763 -0.9065
14352TIP3   OH264546   5.413   6.338   5.662 -1.4570 -0.2701  0.1485
14352TIP3    H164547   5.469   6.414   5.681 -3.8851  1.1137  2.4618
14352TIP3    H264548   5.328   6.377   5.639 -1.6831 -2.2805 -2.9090
14353TIP3   OH264549   6.592   5.675   2.333 -0.1428  0.3927 -0.6042
14353TIP3    H164550   6.629   5.749   2.382  0.2824 -0.5636  0.5656
14353TIP3    H264551   6.662   5.647   2.275  0.6495 -0.7366  0.8419
14354TIP3   OH264552   6.090   6.268   5.418 -0.0040  0.4732  0.2573
14354TIP3    H164553   6.124   6.200   5.359 -0.4780  0.1894  0.3087
14354TIP3    H264554   6.164   6.328   5.430  0.7041 -0.5173  0.9352
14355TIP3   OH264555   4.465   4.766  12.597  0.3076 -0.3954 -0.3546
14355TIP3    H164556   4.383   4.739  12.637 -0.5067  0.1744 -1.5819
14355TIP3    H264557   4.453   4.859  12.577  0.1990 -0.8850 -2.9331
14356TIP3   OH264558   3.267   5.360   0.195 -0.0652  0.3256  0.2630
14356TIP3    H164559   3.361   5.345   0.205  0.0835  0.9937 -0.0621
14356TIP3    H264560   3.227   5.303   0.260  0.6166  0.8268  1.1534
14357TIP3   OH264561   3.988   4.962   4.758  0.2854 -0.3943 -0.3315
14357TIP3    H164562   4.067   5.015   4.769 -0.5143  0.5784  1.0434
14357TIP3    H264563   3.943   5.001   4.684  1.4379 -1.4339 -1.6197
14358TIP3   OH264564   0.202   4.615   1.987  0.0377 -0.0253 -0.0738
14358TIP3    H164565   0.249   4.549   1.936  0.0167 -0.1180  0.0287
14358TIP3    H264566   0.112   4.610   1.954  0.1400  0.2871 -0.4081
14359TIP3   OH264567   3.496   2.929  15.321 -0.3634  0.0862  0.5013
14359TIP3    H164568   3.450   2.854  15.360  1.1079 -0.2706  1.6261
14359TIP3    H264569   3.568   2.947  15.380 -1.4184  3.3068  1.0088
14360TIP3   OH264570   5.938   6.507   4.232 -0.0046 -0.2403  0.4489
14360TIP3    H164571   5.967   6.573   4.170 -0.5408 -0.6819 -0.2889
14360TIP3    H264572   5.916   6.556   4.311  0.2115  0.3878  0.1274
14361TIP3   OH264573   5.537   5.267  14.499 -0.5054  0.7107 -0.2027
14361TIP3    H164574   5.447   5.280  14.529 -0.5126  0.6232 -0.1864
14361TIP3    H264575   5.529   5.259  14.404 -0.5429  0.4630 -0.1791
14362TIP3   OH264576   3.906   0.556   5.174  0.0612  0.1340  0.2446
14362TIP3    H164577   3.824   0.530   5.217 -0.5105 -0.1766 -1.0010
14362TIP3    H264578   3.882   0.570   5.083  1.3537  0.3279 -0.0838
14363TIP3   OH264579   2.621   3.850  17.067  0.1564  0.5083  0.5095
14363TIP3    H164580   2.545   3.829  17.013 -0.4498  1.6546  0.8736
14363TIP3    H264581   2.690   3.791  17.036 -0.3185  0.7681 -1.1432
14364TIP3   OH264582   4.988   0.930   0.912 -0.7332 -0.0428 -0.0043
14364TIP3    H164583   4.959   1.021   0.920  0.2249  0.2434  0.2938
14364TIP3    H264584   4.982   0.895   1.001 -1.0942 -0.2761 -0.1173
14365TIP3   OH264585   0.399   5.064  11.603  0.2177  0.4164  0.5024
14365TIP3    H164586   0.321   5.009  11.607  1.6718 -1.9040 -0.4205
14365TIP3    H264587   0.420   5.069  11.509  1.5811  0.2789  0.7695
14366TIP3   OH264588   2.841   3.308  12.434 -0.0590  0.2299  0.6777
14366TIP3    H164589   2.833   3.363  12.512 -1.1934  0.8661  0.1365
14366TIP3    H264590   2.812   3.221  12.463  0.6075  0.1795  1.2327
14367TIP3   OH264591   2.787   5.928   5.194  0.2674 -0.2357 -0.1982
14367TIP3    H164592   2.846   5.856   5.175  0.2334 -0.1845 -0.5024
14367TIP3    H264593   2.707   5.886   5.226  0.1666 -0.3427 -0.5903
14368TIP3   OH264594   2.385   2.170   2.954 -0.1285 -0.2083 -0.8942
14368TIP3    H164595   2.383   2.182   2.859  4.1189  0.2710 -1.0969
14368TIP3    H264596   2.420   2.082   2.966 -1.6161 -0.6698  0.2988
14369TIP3   OH264597   4.163   3.074   0.718  0.1073 -0.2803 -0.5618
14369TIP3    H164598   4.148   3.119   0.635 -0.1485 -0.3998 -0.5785
14369TIP3    H264599   4.163   2.981   0.696  0.6102 -0.2943 -0.5220
14370TIP3   OH264600   1.222   6.826   4.777 -0.1671  0.3343  0.3223
14370TIP3    H164601   1.269   6.853   4.698  0.0307 -0.7141  0.0635
14370TIP3    H264602   1.153   6.891   4.787  1.2115  1.8162  0.6241
14371TIP3   OH264603   2.839   0.223  15.817  0.0867  0.4578  0.1816
14371TIP3    H164604   2.921   0.178  15.837 -0.5344 -0.6034  0.4528
14371TIP3    H264605   2.774   0.152  15.810 -1.4398  1.4019  3.0474
14372TIP3   OH264606   2.871   0.426  14.176 -0.1278  0.1952  0.3129
14372TIP3    H164607   2.786   0.444  14.215  0.1101  0.5020  0.7006
14372TIP3    H264608   2.853   0.363  14.106 -0.7067  0.4909  0.1957
14373TIP3   OH264609   0.834   5.062  12.785 -0.3883 -0.8263 -0.0538
14373TIP3    H164610   0.788   5.144  12.766  1.9730  0.6671  0.3472
14373TIP3    H264611   0.808   5.004  12.714 -1.4659  0.5179 -0.8219
14374TIP3   OH264612   5.360   2.770   0.717  0.2145 -0.1071 -0.4765
14374TIP3    H164613   5.322   2.839   0.771 -2.3139  2.1931 -4.5895
14374TIP3    H264614   5.452   2.793   0.709  0.3043  0.3655  1.4332
14375TIP3   OH264615   5.582   0.715   0.493  0.1883 -0.4199 -0.4074
14375TIP3    H164616   5.562   0.800   0.453 -0.0492 -0.9581 -1.4575
14375TIP3    H264617   5.512   0.657   0.462  0.3216 -0.9947  0.3418
14376TIP3   OH264618   4.435   3.644   0.915 -0.0608 -0.1846 -0.6386
14376TIP3    H164619   4.473   3.604   0.994 -2.1082 -0.3721  0.3021
14376TIP3    H264620   4.502   3.706   0.886  0.8693 -0.3078  1.0803
14377TIP3   OH264621   3.085   3.333   4.929  0.4316 -0.3580 -0.1254
14377TIP3    H164622   3.147   3.337   5.001  0.6288  0.9677 -0.3504
14377TIP3    H264623   3.128   3.279   4.863  0.7621 -0.5730  0.2614
14378TIP3   OH264624   3.917   3.570  12.668 -0.5925 -0.0994 -0.6454
14378TIP3    H164625   3.902   3.655  12.710  1.9118  0.9828 -1.7820
14378TIP3    H264626   3.829   3.532  12.662 -1.9542  2.7803 -0.9122
14379TIP3   OH264627   2.764   4.319  13.057  0.4952 -0.2385 -0.4304
14379TIP3    H164628   2.749   4.294  12.966  0.6520 -0.6841 -0.3365
14379TIP3    H264629   2.716   4.254  13.108 -1.2156  1.1161 -0.2127
14380TIP3   OH264630   0.205   5.150   2.021 -0.3556 -0.2746 -0.2278
14380TIP3    H164631   0.254   5.154   2.103 -1.2222 -1.7403  0.4087
14380TIP3    H264632   0.236   5.071   1.977 -0.4417  0.0831 -0.9461
14381TIP3   OH264633   3.096   1.632   5.572 -0.1806 -0.2733  0.1093
14381TIP3    H164634   3.163   1.642   5.640 -1.4298 -1.5787  1.6165
14381TIP3    H264635   3.015   1.660   5.614 -1.2897 -2.7535 -0.1588
14382TIP3   OH264636   3.038   2.146  11.105  0.1879  0.4233  0.2777
14382TIP3    H164637   3.092   2.098  11.167 -1.8690  0.1936  1.9927
14382TIP3    H264638   3.030   2.088  11.030 -0.5069 -1.0365  1.4437
14383TIP3   OH264639   2.657   1.140  14.490 -0.1916  0.1477 -0.1379
14383TIP3    H164640   2.651   1.095  14.406  0.7062 -0.8897  0.3207
14383TIP3    H264641   2.663   1.233  14.468  0.0142 -0.1073 -1.2192
14384TIP3   OH264642   1.168   5.253   4.226  0.5035 -0.4911 -1.0521
14384TIP3    H164643   1.110   5.325   4.204  1.4784  0.5309 -0.4043
14384TIP3    H264644   1.124   5.175   4.193 -2.6050 -0.1789  1.7816
14385TIP3   OH264645   3.670   5.171   6.130  0.1527  0.1848 -0.1210
14385TIP3    H164646   3.655   5.079   6.151  2.4677 -0.0746  0.6308
14385TIP3    H264647   3.600   5.193   6.068  1.2872 -2.9758 -2.7912
14386TIP3   OH264648   0.027   0.110   5.715 -0.1772  0.0481 -0.2056
14386TIP3    H164649   0.109   0.157   5.730 -0.4067  0.2907  0.3197
14386TIP3    H264650   0.042   0.024   5.753 -0.1087  0.0347 -0.2617
14387TIP3   OH264651   5.837   5.831   0.749  0.8307  0.1530  0.0313
14387TIP3    H164652   5.758   5.807   0.701  1.0511  0.6697 -0.6000
14387TIP3    H264653   5.901   5.850   0.681  1.0711  1.1609  0.5264
14388TIP3   OH264654   0.592   3.309   0.232 -0.1020 -0.3672  0.1670
14388TIP3    H164655   0.584   3.404   0.224  0.2070 -0.3816 -0.4022
14388TIP3    H264656   0.668   3.287   0.178 -0.8182 -1.0459 -0.6069
14389TIP3   OH264657   1.584   5.736  10.515 -0.6060  0.2809 -0.2551
14389TIP3    H164658   1.496   5.746  10.479 -0.1223 -0.2741 -1.6906
14389TIP3    H264659   1.617   5.656  10.475  0.5232  0.4356  0.3241
14390TIP3   OH264660   1.383   5.649  13.702 -0.3855  0.0633 -0.1825
14390TIP3    H164661   1.291   5.664  13.683 -0.7109  1.7891  2.3266
14390TIP3    H264662   1.384   5.616  13.792  1.4444 -0.3832 -0.3256
14391TIP3   OH264663   5.816   5.802  15.126  0.2697  0.6326  0.2414
14391TIP3    H164664   5.745   5.826  15.066 -0.2465 -0.4910  0.3771
14391TIP3    H264665   5.803   5.708  15.142  1.3690  0.5689  0.8288
14392TIP3   OH264666   4.467   3.555   2.328  0.2678  0.8656  0.9088
14392TIP3    H164667   4.464   3.604   2.411  1.2506  1.2176  0.7489
14392TIP3    H264668   4.409   3.480   2.343  0.6448  0.7686  2.0160
14393TIP3   OH264669   1.734   6.073  16.892 -0.3361  0.0336 -0.9935
14393TIP3    H164670   1.648   6.070  16.934 -0.6718 -1.3016 -1.6926
14393TIP3    H264671   1.751   5.982  16.866  1.3902  0.2331 -0.6898
14394TIP3   OH264672   4.809   4.087  15.845 -0.5096 -0.4423 -0.2473
14394TIP3    H164673   4.751   4.112  15.917  1.1508  0.5790  0.7913
14394TIP3    H264674   4.751   4.080  15.769 -1.9531  0.8724  0.6767
14395TIP3   OH264675   0.489   3.017  13.182 -0.0354 -0.0526 -0.1237
14395TIP3    H164676   0.403   3.041  13.147  0.1390  0.3538 -0.2693
14395TIP3    H264677   0.539   2.988  13.105  0.2531  0.5646 -0.1727
14396TIP3   OH264678   0.220   2.235  12.538 -0.4026 -0.1037 -0.8645
14396TIP3    H164679   0.150   2.256  12.477  0.0493 -1.3255 -1.8456
14396TIP3    H264680   0.183   2.166  12.594 -0.5914  0.5515 -0.1618
14397TIP3   OH264681   4.596   6.214   5.596  0.5294  0.0320 -0.0394
14397TIP3    H164682   4.503   6.236   5.600  0.7175  0.8083  0.2156
14397TIP3    H264683   4.622   6.235   5.506  0.7856  1.1909  0.2991
14398TIP3   OH264684   0.078   3.680  12.124  0.3520  0.0701 -0.0990
14398TIP3    H164685  -0.005   3.649  12.087  0.3650  1.0335 -0.9614
14398TIP3    H264686   0.110   3.606  12.175 -1.2628 -0.1730  0.6397
14399TIP3   OH264687   2.194   5.783   5.520 -0.4128  0.0332  0.1622
14399TIP3    H164688   2.184   5.717   5.451 -3.6483 -0.7287  1.1927
14399TIP3    H264689   2.194   5.732   5.601 -1.4792  1.1884  0.9195
14400TIP3   OH264690   4.670   2.357  11.446  0.5220  0.0721 -1.0275
14400TIP3    H164691   4.690   2.378  11.354  2.6578 -0.6500 -0.7773
14400TIP3    H264692   4.755   2.359  11.490 -0.6850  2.9496  1.5367
14401TIP3   OH264693   3.728   2.059  11.032 -0.2687  0.0083  0.1028
14401TIP3    H164694   3.664   2.128  11.048 -0.1334 -0.1668  1.5670
14401TIP3    H264695   3.809   2.105  11.013 -1.0718  0.2547 -3.2837
14402TIP3   OH264696   2.007   2.916   2.597 -0.1411 -0.3634  0.5663
14402TIP3    H164697   2.009   2.836   2.546  2.4458  1.7149 -3.0627
14402TIP3    H264698   2.095   2.925   2.632 -0.0302  1.3711 -0.0490
14403TIP3   OH264699   3.126   4.534  13.907  0.0743 -0.4248 -0.7176
14403TIP3    H164700   3.041   4.516  13.867 -0.9111 -0.6942  1.3441
14403TIP3    H264701   3.150   4.621  13.876 -0.8928 -0.3950 -1.4149
14404TIP3   OH264702   5.989   0.513   2.998 -0.2708  0.2854  0.0340
14404TIP3    H164703   6.038   0.436   3.027  0.1351  0.6082  0.2121
14404TIP3    H264704   6.045   0.587   3.020 -0.4492  0.6076 -0.5579
14405TIP3   OH264705   0.560   2.056   6.379  0.4910 -0.2550 -0.5407
14405TIP3    H164706   0.599   1.971   6.360  1.0992 -1.0221  3.3665
14405TIP3    H264707   0.478   2.036   6.423  1.8328  0.9496  2.8066
14406TIP3   OH264708   5.665   6.480  17.020 -1.0396  0.8987  0.2440
14406TIP3    H164709   5.651   6.559  17.073  0.7261  1.3844  0.0644
14406TIP3    H264710   5.679   6.513  16.931  1.2741  0.5742  0.4307
14407TIP3   OH264711   0.820   6.472  14.427 -0.1504  0.3963  0.0571
14407TIP3    H164712   0.899   6.522  14.413 -0.1947  0.5400  0.3098
14407TIP3    H264713   0.749   6.536  14.421 -0.2046  0.3741  0.4098
14408TIP3   OH264714   3.619   3.939  12.911 -0.1154  0.2127  0.4117
14408TIP3    H164715   3.535   3.894  12.905  0.5034 -0.8786 -0.2857
14408TIP3    H264716   3.595   4.031  12.924 -1.3976 -0.2393  1.4608
14409TIP3   OH264717   0.122   2.578  11.532 -0.5107 -0.3530 -0.3206
14409TIP3    H164718   0.195   2.628  11.494  0.6942 -1.9865 -0.2460
14409TIP3    H264719   0.044   2.614  11.489  0.1836  2.0835  0.2833
14410TIP3   OH264720   4.607   3.417  14.323 -0.2291 -0.5666  0.1099
14410TIP3    H164721   4.578   3.493  14.273  3.8920  0.8062 -0.6300
14410TIP3    H264722   4.614   3.449  14.413  1.2362 -0.0512 -0.1544
14411TIP3   OH264723   3.794   6.325  11.405  0.8277  0.0151  0.5064
14411TIP3    H164724   3.703   6.301  11.421  1.0571 -2.2575 -1.2341
14411TIP3    H264725   3.792   6.378  11.325  0.9232  1.4310  1.3898
14412TIP3   OH264726   3.187   4.656   1.971  0.0522 -0.0357  0.2374
14412TIP3    H164727   3.204   4.747   1.948 -0.9163  0.1550  0.2510
14412TIP3    H264728   3.092   4.651   1.984  0.0323 -1.1513 -0.2271
14413TIP3   OH264729   4.541   3.809   2.448 -0.6263  0.4278  0.4305
14413TIP3    H164730   4.503   3.833   2.364 -0.2382 -1.6625 -0.4063
14413TIP3    H264731   4.531   3.887   2.502 -1.0476  1.7658 -1.4788
14414TIP3   OH264732   2.891   2.090   5.836 -0.2133 -0.0064  0.2274
14414TIP3    H164733   2.847   2.098   5.752 -0.4883 -0.9438  0.2636
14414TIP3    H264734   2.829   2.125   5.899 -0.0209  0.6659  0.0495
14415TIP3   OH264735   5.971   4.863   0.287  0.2839 -0.0198 -0.4586
14415TIP3    H164736   6.019   4.946   0.297 -1.9444  1.2162  0.9041
14415TIP3    H264737   6.039   4.796   0.286  2.1526  1.7671 -1.1251
14416TIP3   OH264738   2.901   3.840   0.833  0.0233  0.3152  0.1306
14416TIP3    H164739   2.880   3.826   0.925 -1.3219  1.9582  0.1152
14416TIP3    H264740   2.833   3.790   0.786  2.9632 -3.9329 -0.1638
14417TIP3   OH264741   6.409   5.602  13.775  0.4918  0.1264  0.7857
14417TIP3    H164742   6.429   5.614  13.682  2.7677 -2.0077  0.8747
14417TIP3    H264743   6.486   5.556  13.810 -1.4928 -1.7156  3.0992
14418TIP3   OH264744   1.459   2.677  16.932 -1.0113  0.3562 -0.3864
14418TIP3    H164745   1.431   2.728  17.007  0.4125  0.7109 -0.0600
14418TIP3    H264746   1.474   2.589  16.967 -0.6483  0.4440 -0.3199
14419TIP3   OH264747   3.254   4.928  17.050 -0.3544  0.3613  0.7391
14419TIP3    H164748   3.273   4.847  17.098 -0.7107 -0.8176 -1.0053
14419TIP3    H264749   3.166   4.953  17.078 -0.8386 -0.6980  0.1804
14420TIP3   OH264750   2.877   5.900  11.395 -0.6692  0.3866 -1.0458
14420TIP3    H164751   2.841   5.815  11.418 -3.1024  1.1161 -1.8187
14420TIP3    H264752   2.801   5.952  11.368  0.4611  3.3368  0.9078
14421TIP3   OH264753   2.639   3.316  11.663 -0.4713 -0.0175 -0.6236
14421TIP3    H164754   2.678   3.303  11.577  0.2202  0.1027 -0.3372
14421TIP3    H264755   2.696   3.381  11.705  0.1037 -1.1836  0.4782
14422TIP3   OH264756   3.816   6.195   2.885  0.0374  0.5799  0.0313
14422TIP3    H164757   3.863   6.147   2.953 -0.0286 -2.6985 -1.9830
14422TIP3    H264758   3.883   6.251   2.845  1.4886 -1.4954 -0.6038
14423TIP3   OH264759   1.971   3.388   4.363 -0.5675 -0.0228 -0.3816
14423TIP3    H164760   2.024   3.325   4.412 -0.2617  0.0875 -0.5665
14423TIP3    H264761   1.896   3.406   4.420 -0.4017 -0.1767 -0.1138
14424TIP3   OH264762   4.653   3.107  13.449  0.0588 -0.1445 -0.4143
14424TIP3    H164763   4.667   3.015  13.475  1.7603  0.9886  3.3491
14424TIP3    H264764   4.571   3.106  13.401 -0.6202 -3.4890  0.5523
14425TIP3   OH264765   3.071   2.497   3.196  0.1497  0.4067 -0.0430
14425TIP3    H164766   3.162   2.486   3.169  0.3150  1.3571  0.0931
14425TIP3    H264767   3.060   2.592   3.205 -0.8715  0.3034 -0.1227
14426TIP3   OH264768   4.142   5.626  16.070 -0.7803  0.0118 -0.4584
14426TIP3    H164769   4.136   5.692  16.139 -0.8599 -1.4155  0.9520
14426TIP3    H264770   4.086   5.555  16.100  1.0774 -1.6700 -0.8025
14427TIP3   OH264771   4.041   0.531  13.629  0.4280  0.1463 -0.0393
14427TIP3    H164772   3.999   0.594  13.570 -1.1254 -3.3144 -3.0309
14427TIP3    H264773   4.125   0.511  13.588  0.4886 -0.4552  0.3626
14428TIP3   OH264774   5.711   4.080  15.705  0.2422  0.1818  0.0076
14428TIP3    H164775   5.795   4.124  15.694 -0.4183  2.0929  1.8467
14428TIP3    H264776   5.676   4.116  15.787 -1.5940 -1.8467  0.1997
14429TIP3   OH264777   4.917   0.863  16.791 -0.7926 -0.6254  0.3899
14429TIP3    H164778   4.907   0.945  16.839  1.7003  1.1464 -1.8496
14429TIP3    H264779   4.832   0.851  16.747 -1.0261  1.0994  0.3034
14430TIP3   OH264780   3.454   5.534  11.388  0.5056  0.3115  0.1165
14430TIP3    H164781   3.392   5.532  11.315 -0.3261 -0.1545  0.8219
14430TIP3    H264782   3.457   5.626  11.414  0.0044  0.3220  0.1556
14431TIP3   OH264783   3.456   5.191   1.500  0.3081  0.5803  1.0889
14431TIP3    H164784   3.539   5.147   1.517  0.5490  0.0091 -1.2719
14431TIP3    H264785   3.467   5.232   1.414 -0.9933  2.7002  1.8499
14432TIP3   OH264786   2.457   5.639  12.168  0.5725  0.2580 -0.1017
14432TIP3    H164787   2.527   5.574  12.163 -1.1815 -2.0037  1.9854
14432TIP3    H264788   2.482   5.696  12.241 -0.8604 -2.2778  2.6006
14433TIP3   OH264789   0.877   3.691  12.159 -0.4602 -0.4452 -0.1593
14433TIP3    H164790   0.844   3.762  12.104  0.7294  1.2802  1.2726
14433TIP3    H264791   0.891   3.730  12.245  1.7293 -2.0011  0.2940
14434TIP3   OH264792   6.350   1.000  11.582  0.3805  0.2486  0.0056
14434TIP3    H164793   6.437   1.040  11.583 -0.1939  1.5675 -0.2166
14434TIP3    H264794   6.328   0.986  11.674  0.1413  1.5232  0.1605
14435TIP3   OH264795   5.584   5.976  15.063 -0.3031  0.1771 -0.3735
14435TIP3    H164796   5.634   6.027  15.126 -1.9103  3.3423 -1.4635
14435TIP3    H264797   5.508   5.944  15.112  0.1928 -0.3559  0.0668
14436TIP3   OH264798   6.279   1.317  16.857  0.5384 -0.3697  0.7571
14436TIP3    H164799   6.332   1.397  16.860 -2.3038  1.6870  1.8577
14436TIP3    H264800   6.255   1.301  16.949 -1.2231 -0.7793  0.2730
14437TIP3   OH264801   3.793   2.522  15.158  0.5306  0.5030  0.6981
14437TIP3    H164802   3.847   2.598  15.180  0.8331  0.2621  0.7855
14437TIP3    H264803   3.813   2.504  15.066 -0.3976  1.2316  0.3340
14438TIP3   OH264804   6.634   4.410   3.451 -0.0864 -0.0171  0.4391
14438TIP3    H164805   6.700   4.341   3.459 -0.8011 -0.9413 -1.1284
14438TIP3    H264806   6.605   4.405   3.360 -1.8144  0.8113  0.9001
14439TIP3   OH264807   1.217   3.294   0.495 -0.3398  0.3818 -0.0108
14439TIP3    H164808   1.242   3.211   0.456 -1.3273  0.9404 -1.9537
14439TIP3    H264809   1.262   3.296   0.579  0.2060 -1.8145 -0.2056
14440TIP3   OH264810   5.829   2.424   2.575  0.1264  0.4781  0.7262
14440TIP3    H164811   5.788   2.382   2.650 -0.2324  2.0913  1.4807
14440TIP3    H264812   5.804   2.370   2.500 -2.2864  0.6440  1.3320
14441TIP3   OH264813   2.149   4.183   0.153 -0.0677  0.0673 -0.5867
14441TIP3    H164814   2.226   4.220   0.196  1.3803 -3.0583 -0.2281
14441TIP3    H264815   2.078   4.196   0.217  0.7397  0.6538  0.2272
14442TIP3   OH264816   1.742   3.460   3.942 -0.3062  0.0675  0.4624
14442TIP3    H164817   1.774   3.424   4.024  0.9831  0.5753  0.2106
14442TIP3    H264818   1.797   3.420   3.875 -1.7396 -0.8196 -0.2517
14443TIP3   OH264819   0.927   0.921  11.115  0.2600  0.4176 -0.6311
14443TIP3    H164820   0.838   0.937  11.084 -0.1420  0.8472  0.6875
14443TIP3    H264821   0.916   0.865  11.193  1.1694  0.1644 -0.6705
14444TIP3   OH264822   5.050   2.498   5.693 -0.1275  0.2137  0.3382
14444TIP3    H164823   5.052   2.585   5.653 -0.5397 -1.0052 -2.5982
14444TIP3    H264824   5.141   2.470   5.695 -0.0406  0.5140  0.8936
14445TIP3   OH264825   3.216   3.705   4.299  0.0458  0.0166 -0.4191
14445TIP3    H164826   3.221   3.799   4.314 -1.4514  0.3632 -1.7624
14445TIP3    H264827   3.243   3.666   4.382 -1.1782  1.6627  0.8253
14446TIP3   OH264828   6.628   4.218  14.098 -0.0112  0.2383 -0.5129
14446TIP3    H164829   6.555   4.164  14.069 -0.1955  1.5611 -2.7471
14446TIP3    H264830   6.688   4.219  14.024  2.2650 -0.6590  1.1759
14447TIP3   OH264831   0.293   5.996   2.216 -0.0874  0.0807  0.0616
14447TIP3    H164832   0.298   6.089   2.241 -1.7662 -0.3463  2.3392
14447TIP3    H264833   0.338   5.951   2.288  2.1459 -0.8625 -1.8036
14448TIP3   OH264834   1.239   5.806   5.701 -0.0192 -0.5863  0.7048
14448TIP3    H164835   1.210   5.785   5.789 -0.7718  1.4435  1.0045
14448TIP3    H264836   1.317   5.860   5.713 -1.6397  2.0596  0.3642
14449TIP3   OH264837   1.982   3.101  12.278 -0.4206 -0.3241 -0.4152
14449TIP3    H164838   1.937   3.182  12.254  0.7415  0.6487  0.5202
14449TIP3    H264839   2.075   3.123  12.270 -0.0911 -1.5397 -0.0505
14450TIP3   OH264840   5.099   6.590   0.802  0.0052  0.8666 -0.3384
14450TIP3    H164841   5.028   6.596   0.865  0.1983  0.4702 -0.0843
14450TIP3    H264842   5.166   6.650   0.836 -0.3203  1.4689 -0.7351
14451TIP3   OH264843   1.717   1.215  11.734 -0.1205 -0.2388 -0.2261
14451TIP3    H164844   1.641   1.272  11.744 -0.2723 -0.4247 -0.3113
14451TIP3    H264845   1.762   1.219  11.818  0.8754  1.4507 -0.8010
14452TIP3   OH264846   1.457   2.265  12.367 -0.1368  0.2867  0.0170
14452TIP3    H164847   1.543   2.222  12.371  0.0139  0.4397 -1.3275
14452TIP3    H264848   1.394   2.193  12.359 -0.0141  0.2461 -0.5721
14453TIP3   OH264849   4.721   3.668   2.829  0.5804 -0.2675  0.1996
14453TIP3    H164850   4.642   3.626   2.796 -0.0795  1.5208 -0.6680
14453TIP3    H264851   4.774   3.684   2.751  0.4403  1.1504  0.3548
14454TIP3   OH264852   1.308   4.188  13.319 -0.3030  0.0846 -0.1882
14454TIP3    H164853   1.274   4.157  13.235  1.2189  0.8483 -1.1510
14454TIP3    H264854   1.310   4.111  13.375 -0.7812 -0.5741 -1.0521
14455TIP3   OH264855   0.117   3.407   3.951  0.1317  0.0927 -0.3936
14455TIP3    H164856   0.177   3.446   4.014  0.0765 -0.7818  0.2077
14455TIP3    H264857   0.030   3.433   3.980  0.0903 -0.5137  0.0503
14456TIP3   OH264858   3.626   1.499   0.767  0.3337  0.2907 -0.3899
14456TIP3    H164859   3.598   1.421   0.717  0.0877  1.2527 -1.8090
14456TIP3    H264860   3.545   1.546   0.785  0.6716  1.3355 -1.4918
14457TIP3   OH264861   3.359   0.500   5.115  0.6599  0.2698 -0.3712
14457TIP3    H164862   3.280   0.446   5.119  0.5006  0.4998 -0.4260
14457TIP3    H264863   3.334   0.576   5.063  0.1066  1.7044  1.8397
14458TIP3   OH264864   4.726   4.314   1.415 -0.3133  0.3639 -0.5365
14458TIP3    H164865   4.779   4.352   1.345  2.7512 -0.7790  0.9715
14458TIP3    H264866   4.699   4.228   1.381 -2.9345  1.6399 -1.9952
14459TIP3   OH264867   4.177   1.327  11.612  0.0210  0.2658  0.5887
14459TIP3    H164868   4.187   1.371  11.696  1.0158  0.7060  0.2530
14459TIP3    H264869   4.093   1.359  11.579  0.5423  1.6488  0.5322
14460TIP3   OH264870   3.417   4.059   1.138 -0.1486  0.1097  0.0301
14460TIP3    H164871   3.475   4.054   1.214 -1.5935  1.1945  1.2455
14460TIP3    H264872   3.454   4.130   1.085 -1.2106  1.9705  1.6311
14461TIP3   OH264873   0.506   4.368   1.294 -0.4794  0.1081  0.4070
14461TIP3    H164874   0.469   4.280   1.296  1.3549 -0.8383 -2.4307
14461TIP3    H264875   0.485   4.401   1.206  0.4090  1.8026  0.7833
14462TIP3   OH264876   0.125   4.570   3.788  0.5815  0.3520 -0.4675
14462TIP3    H164877   0.030   4.558   3.790  0.6730 -0.2705  0.3890
14462TIP3    H264878   0.140   4.625   3.711 -0.4303  0.0851 -0.8714
14463TIP3   OH264879   0.828   2.822   0.443  0.4984 -0.2807 -0.1770
14463TIP3    H164880   0.742   2.860   0.459  0.6855  0.5937 -1.1530
14463TIP3    H264881   0.889   2.880   0.487  0.6288 -0.6759  0.1708
14464TIP3   OH264882   3.704   4.427   2.924 -0.6310 -0.3264  0.0357
14464TIP3    H164883   3.648   4.479   2.867 -0.4580  0.2991  0.4251
14464TIP3    H264884   3.649   4.406   3.000 -0.4317  0.0446  0.2860
14465TIP3   OH264885   1.690   4.550  16.037 -0.1991  0.3527  0.0854
14465TIP3    H164886   1.715   4.642  16.026 -2.7358  1.1380  0.2465
14465TIP3    H264887   1.668   4.542  16.130 -0.8647 -0.1821 -0.1121
14466TIP3   OH264888   3.896   2.183   4.687 -0.4448  0.3471 -0.3001
14466TIP3    H164889   3.807   2.152   4.666 -0.1485 -0.3727 -0.5531
14466TIP3    H264890   3.919   2.135   4.767 -0.3147  0.5906 -0.1935
14467TIP3   OH264891   1.833   5.310   4.352  0.2293  0.0154 -0.9179
14467TIP3    H164892   1.808   5.361   4.275  0.9384  1.9244  0.0668
14467TIP3    H264893   1.818   5.369   4.426 -0.3802 -1.7463  0.4289
14468TIP3   OH264894   5.496   1.178  15.786 -0.2465 -0.1982  0.7787
14468TIP3    H164895   5.414   1.128  15.790 -1.1958  0.9865 -1.8916
14468TIP3    H264896   5.471   1.265  15.819 -0.0900  0.1715 -0.0660
14469TIP3   OH264897   2.709   5.036   1.169 -0.1650  0.0546  0.6904
14469TIP3    H164898   2.685   5.128   1.157 -1.5662 -0.2232  1.1646
14469TIP3    H264899   2.717   5.001   1.080  0.8394  0.7262  0.4964
14470TIP3   OH264900   1.231   5.106   4.451  0.2502  0.1897  0.1298
14470TIP3    H164901   1.211   5.150   4.369  0.5782 -2.1646 -1.2990
14470TIP3    H264902   1.149   5.108   4.500 -0.5069 -0.0504 -1.1004
14471TIP3   OH264903   5.739   5.778  10.784 -0.9064 -0.1771  0.4237
14471TIP3    H164904   5.808   5.728  10.828  0.4779  1.3531  0.0793
14471TIP3    H264905   5.747   5.753  10.692  0.1525  1.0312  0.1638
14472TIP3   OH264906   5.767   3.035  14.006  0.3225 -0.4094 -0.7822
14472TIP3    H164907   5.835   3.029  14.073  1.7108 -2.8622 -2.2693
14472TIP3    H264908   5.700   2.972  14.034 -0.0032 -0.0493 -0.7453
14473TIP3   OH264909   6.715   3.007   4.562 -0.3526  0.2797 -0.0810
14473TIP3    H164910   6.629   2.969   4.544  0.1783 -0.3479 -1.3929
14473TIP3    H264911   6.774   2.932   4.564 -0.1697  0.3084  3.6428
14474TIP3   OH264912   2.806   2.557  14.206 -0.2180  0.0908 -0.3533
14474TIP3    H164913   2.712   2.578  14.208 -0.6493 -1.6211 -1.2706
14474TIP3    H264914   2.825   2.527  14.295 -0.5216  0.4400 -0.1634
14475TIP3   OH264915   1.920   0.829  15.434 -0.1288 -0.0487 -0.4417
14475TIP3    H164916   1.953   0.759  15.490  0.3988 -0.3191 -1.0751
14475TIP3    H264917   1.926   0.908  15.488  0.3961 -0.3014 -0.1231
14476TIP3   OH264918   6.044   6.841   2.878  0.3206  0.2841  0.2027
14476TIP3    H164919   6.115   6.835   2.814  0.8063 -0.1577  0.7620
14476TIP3    H264920   6.044   6.755   2.921 -0.4093  0.3611  0.3602
14477TIP3   OH264921   3.265   1.394   5.289  0.6943 -0.4574 -0.3647
14477TIP3    H164922   3.349   1.362   5.323 -0.0804 -0.8751  1.3037
14477TIP3    H264923   3.200   1.351   5.345 -0.6390 -0.2048 -1.6729
14478TIP3   OH264924   6.801   0.077   3.106 -0.0394  0.4044  0.1908
14478TIP3    H164925   6.708   0.087   3.127 -0.1179 -2.2877  1.6521
14478TIP3    H264926   6.837   0.165   3.110 -2.0329  1.2250  2.2752
14479TIP3   OH264927   0.281   6.497  17.035  0.0307  0.2521  0.6386
14479TIP3    H164928   0.248   6.424  17.087 -1.3755  2.5690  3.3187
14479TIP3    H264929   0.376   6.484  17.033 -0.2456 -2.2009 -0.0496
14480TIP3   OH264930   2.788   4.845   3.659 -0.0303 -0.2413 -0.1954
14480TIP3    H164931   2.804   4.774   3.596 -1.2375 -2.4805  1.8517
14480TIP3    H264932   2.712   4.815   3.709  1.2126  1.1232  2.6971
14481TIP3   OH264933   0.480   0.744   1.063 -0.7909  0.5138  0.1672
14481TIP3    H164934   0.563   0.759   1.109  0.0589 -0.7673 -0.8842
14481TIP3    H264935   0.505   0.719   0.975 -2.3117  0.1013 -0.1780
14482TIP3   OH264936   5.847   4.825  16.197 -0.2761  0.0328 -0.3343
14482TIP3    H164937   5.933   4.854  16.166  0.0985 -2.2282 -1.5608
14482TIP3    H264938   5.789   4.899  16.178  1.0148  0.8449 -1.3043
14483TIP3   OH264939   0.123   0.932  11.737 -0.4688 -0.3978 -0.2196
14483TIP3    H164940   0.074   0.943  11.819 -0.6804  0.0922 -0.4056
14483TIP3    H264941   0.149   0.840  11.737  0.7434 -0.0911  1.0795
14484TIP3   OH264942   5.697   6.107   2.751  0.1415 -0.1663  0.3406
14484TIP3    H164943   5.633   6.095   2.822  1.9055  1.1431  2.2781
14484TIP3    H264944   5.732   6.020   2.735 -3.3612 -1.3744 -2.2252
14485TIP3   OH264945   6.649   3.743   4.566  0.3979 -0.3110 -0.2385
14485TIP3    H164946   6.568   3.771   4.525 -0.0366 -0.7437  0.3178
14485TIP3    H264947   6.718   3.788   4.516 -0.2312  1.0728  0.1058
14486TIP3   OH264948   3.167   3.381  15.072  0.0034  0.2382  0.4315
14486TIP3    H164949   3.104   3.387  15.000  0.9356  3.2207 -0.2570
14486TIP3    H264950   3.197   3.290  15.070  1.0950  0.5205 -3.9395
14487TIP3   OH264951   3.332   0.088   2.294  0.2526  0.4523  0.3394
14487TIP3    H164952   3.327   0.068   2.200  0.3455  1.1688  0.1699
14487TIP3    H264953   3.262   0.036   2.334 -1.8685  2.4300 -0.5536
14488TIP3   OH264954   0.943   6.445  11.396  0.2041 -0.0416 -0.3161
14488TIP3    H164955   0.901   6.361  11.378  2.5636 -1.4053  0.1032
14488TIP3    H264956   1.035   6.431  11.372  0.9816  1.9190  1.2340
14489TIP3   OH264957   0.190   4.826   2.714  0.4872  0.0414 -0.3646
14489TIP3    H164958   0.259   4.873   2.667  0.3922 -0.3541 -0.9092
14489TIP3    H264959   0.232   4.797   2.795  0.7329  0.4857 -0.3307
14490TIP3   OH264960   3.991   5.799   5.216  0.4235  0.1687  0.8685
14490TIP3    H164961   3.907   5.757   5.235  2.2610 -2.6350  3.8529
14490TIP3    H264962   4.026   5.748   5.142 -1.6831  3.5393 -2.8543
14491TIP3   OH264963   6.675   2.874   1.809  0.3972  0.5238  0.1412
14491TIP3    H164964   6.603   2.903   1.864  0.3383  1.1845 -0.2842
14491TIP3    H264965   6.658   2.912   1.723  1.0301  0.3468 -0.0734
14492TIP3   OH264966   6.027   3.375   2.790  0.2063  0.2473 -0.1382
14492TIP3    H164967   6.038   3.470   2.797  1.8456  0.2156 -1.5093
14492TIP3    H264968   6.112   3.339   2.817  1.0212 -0.5435 -3.2415
14493TIP3   OH264969   0.873   0.860  12.155 -0.2957  0.3349  0.0848
14493TIP3    H164970   0.923   0.830  12.079 -0.6095  1.7288 -0.6827
14493TIP3    H264971   0.793   0.808  12.153 -0.5755  0.7878 -0.9007
14494TIP3   OH264972   4.413   1.688   1.463 -0.4856  0.6070  0.4231
14494TIP3    H164973   4.320   1.675   1.484 -1.0961  2.9345 -0.5127
14494TIP3    H264974   4.460   1.646   1.535 -2.0845 -3.4756 -0.6056
14495TIP3   OH264975   4.071   0.051  15.297  0.4461  0.3703  0.2073
14495TIP3    H164976   4.062   0.085  15.386 -1.6318  0.7324 -0.0853
14495TIP3    H264977   4.163   0.062  15.276  0.6040  2.0951  1.5994
14496TIP3   OH264978   1.915   6.066  12.341 -0.1769 -0.5458 -0.8188
14496TIP3    H164979   1.914   5.974  12.364 -0.7596 -0.2409  0.4714
14496TIP3    H264980   1.914   6.112  12.425 -1.3641  0.6287 -1.4407
14497TIP3   OH264981   0.520   1.579   1.633 -0.5335 -0.0217 -0.1930
14497TIP3    H164982   0.563   1.581   1.548 -2.1354  0.7737 -1.0366
14497TIP3    H264983   0.439   1.531   1.617 -1.4641  1.2493  0.5563
14498TIP3   OH264984   4.008   2.695  11.240 -0.2434  0.2503 -0.3051
14498TIP3    H164985   3.940   2.760  11.221 -0.3733  0.2965  0.2976
14498TIP3    H264986   4.001   2.680  11.334  1.0682  0.8077 -0.0989
14499TIP3   OH264987   1.963   2.054  13.419 -0.4821  0.6658 -0.4210
14499TIP3    H164988   2.009   2.093  13.344 -1.3639  0.5412 -1.0417
14499TIP3    H264989   2.019   1.980  13.444  0.6494  1.6592  0.0840
14500TIP3   OH264990   2.181   5.746  14.276 -0.3219  0.0739  0.4329
14500TIP3    H164991   2.225   5.784  14.200 -0.9100  1.3829  0.7251
14500TIP3    H264992   2.235   5.771  14.350 -0.7063  0.3195  0.6305
14501TIP3   OH264993   4.637   3.005   2.028  0.0864  0.5970 -0.6521
14501TIP3    H164994   4.700   3.061   2.074 -0.0021 -0.7088  1.1529
14501TIP3    H264995   4.552   3.030   2.064 -0.4125  1.7540 -2.4669
14502TIP3   OH264996   2.786   6.006   0.568 -0.2604  0.2150 -0.3602
14502TIP3    H164997   2.816   5.978   0.654  0.2453 -5.2183 -1.9351
14502TIP3    H264998   2.691   6.002   0.573 -0.2925  1.2861  0.2291
14503TIP3   OH264999   0.266   5.218   5.534 -0.4121  0.5556 -0.5318
14503TIP3    H165000   0.281   5.287   5.599 -0.6069  1.6330 -1.5743
14503TIP3    H265001   0.293   5.138   5.576  0.3657  1.3579  0.5359
14504TIP3   OH265002   0.879   0.930  13.147 -0.1125  0.0503  0.0227
14504TIP3    H165003   0.822   0.992  13.100  0.4712  1.2278  0.8016
14504TIP3    H265004   0.947   0.908  13.084  1.8241  3.1841  0.7702
14505TIP3   OH265005   0.239   4.397  16.588 -0.7462 -0.3761 -0.0702
14505TIP3    H165006   0.255   4.382  16.682 -1.1329  0.9094  0.2303
14505TIP3    H265007   0.155   4.355  16.571  0.0970 -2.0515 -0.2544
14506TIP3   OH265008   4.457   0.074  14.600  0.8090  0.1352 -0.4420
14506TIP3    H165009   4.479   0.058  14.692 -1.7741 -2.6344 -0.1604
14506TIP3    H265010   4.420   0.163  14.599  1.8319  0.6127  0.9506
14507TIP3   OH265011   2.168   1.356  15.745  0.5521 -0.5352 -0.5469
14507TIP3    H165012   2.202   1.445  15.741  0.3837 -0.5175 -1.9550
14507TIP3    H265013   2.127   1.341  15.660 -2.1257 -0.9123  0.7075
14508TIP3   OH265014   2.279   5.985   4.815  0.4422  0.6326 -0.3523
14508TIP3    H165015   2.311   6.030   4.893  2.0363  0.7994 -1.0625
14508TIP3    H265016   2.354   5.935   4.783 -1.0409 -1.9230 -0.0624
14509TIP3   OH265017   1.737   5.776   3.678 -0.6305  0.3570  0.7087
14509TIP3    H165018   1.703   5.714   3.614  0.7342  2.4006 -2.2246
14509TIP3    H265019   1.795   5.724   3.734 -0.4770 -1.2319 -0.8364
14510TIP3   OH265020   3.373   1.696   2.536 -0.0360  0.0866 -0.0260
14510TIP3    H165021   3.311   1.760   2.502 -0.0259  0.2446  0.2498
14510TIP3    H265022   3.354   1.616   2.488  1.6152  0.9251 -2.2351
14511TIP3   OH265023   4.175   2.374  15.633  0.3157 -0.4119  1.0090
14511TIP3    H165024   4.163   2.452  15.578  1.2671 -1.0637 -0.1760
14511TIP3    H265025   4.265   2.379  15.663  1.4069 -2.4722 -1.5104
14512TIP3   OH265026   3.138   2.309   3.706 -0.4606 -0.6883 -0.8631
14512TIP3    H165027   3.125   2.392   3.659  0.1037  0.1563  0.4345
14512TIP3    H265028   3.213   2.269   3.663 -0.5797 -0.4151 -1.3404
14513TIP3   OH265029   3.973   5.988  15.951 -0.0679 -0.3194  0.1105
14513TIP3    H165030   3.890   5.946  15.925  1.1243 -1.8630 -1.4848
14513TIP3    H265031   4.021   5.998  15.868  0.9196  1.5558  0.8625
14514TIP3   OH265032   4.023   2.687   5.999  0.2416  0.3939 -0.1136
14514TIP3    H165033   4.056   2.654   5.916  1.5675  1.2215  0.0548
14514TIP3    H265034   4.088   2.751   6.027  0.8967 -1.2824  2.5446
14515TIP3   OH265035   1.749   0.585   2.451 -0.4205  0.3145 -0.4338
14515TIP3    H165036   1.770   0.678   2.460  0.1606  0.1244  0.3222
14515TIP3    H265037   1.699   0.564   2.530  1.2474 -0.4756  0.4729
14516TIP3   OH265038   6.612   2.289  15.173  0.1550  0.5407 -0.1240
14516TIP3    H165039   6.529   2.242  15.185 -0.0437  0.8448 -0.2758
14516TIP3    H265040   6.591   2.380  15.198  0.6316  0.4778  0.5400
14517TIP3   OH265041   0.190   4.965  12.620 -0.2157  0.2324  0.1831
14517TIP3    H165042   0.217   4.873  12.610  0.4229  0.5776 -1.7343
14517TIP3    H265043   0.269   5.010  12.649  0.1800  0.5416 -1.2771
14518TIP3   OH265044   0.532   0.825  15.398  0.1355  0.6772  0.4331
14518TIP3    H165045   0.581   0.853  15.320 -0.4345  0.5183  0.0084
14518TIP3    H265046   0.451   0.788  15.363  0.1220  0.0809  1.0792
14519TIP3   OH265047   1.537   0.027   0.195 -0.6302  0.0011  0.0626
14519TIP3    H165048   1.621   0.072   0.184 -1.2727  0.8864 -1.5599
14519TIP3    H265049   1.490   0.079   0.260 -0.2277 -0.0596  0.4076
14520TIP3   OH265050   3.138   2.375  12.913 -0.2246 -0.3373  0.1798
14520TIP3    H165051   3.146   2.450  12.972  1.9283 -1.4979  1.5215
14520TIP3    H265052   3.062   2.326  12.945  0.4732 -0.5527  1.5747
14521TIP3   OH265053   3.944   4.331   3.049 -0.6083 -0.2582 -0.0651
14521TIP3    H165054   3.857   4.327   3.009  0.1733  2.1416 -2.3428
14521TIP3    H265055   3.938   4.403   3.112 -0.4368 -0.4709  0.1934
14522TIP3   OH265056   4.601   6.262  16.034 -0.7359  0.1614 -0.2082
14522TIP3    H165057   4.660   6.264  16.109 -0.0211  2.1685 -0.7634
14522TIP3    H265058   4.522   6.218  16.066 -0.5704  1.2425  1.7986
14523TIP3   OH265059   3.620   4.562   4.838  0.3761  0.1818  0.3047
14523TIP3    H165060   3.641   4.496   4.905 -2.3713 -2.3035 -1.0246
14523TIP3    H265061   3.633   4.516   4.755 -1.4640  1.3678 -0.7013
14524TIP3   OH265062   1.483   4.094   3.980  0.7758 -0.4753  0.2343
14524TIP3    H165063   1.421   4.022   3.987  0.8381 -0.7425 -1.4904
14524TIP3    H265064   1.435   4.162   3.932  1.3096 -0.0848  0.2410
14525TIP3   OH265065   4.765   4.706  11.550 -0.1072  0.1496  0.3349
14525TIP3    H165066   4.684   4.741  11.513 -0.7873 -0.2340  1.3964
14525TIP3    H265067   4.745   4.614  11.568 -0.0119  0.4344  2.1025
14526TIP3   OH265068   1.552   4.851   0.250 -0.0665  0.4419 -0.5934
14526TIP3    H165069   1.566   4.927   0.194 -0.8324 -0.2819 -1.8115
14526TIP3    H265070   1.469   4.814   0.221  0.5654 -1.1945 -0.4648
14527TIP3   OH265071   2.198   4.260   0.632 -0.4073 -0.0703  0.7380
14527TIP3    H165072   2.233   4.319   0.698  0.6495 -1.9553  1.9626
14527TIP3    H265073   2.274   4.214   0.598 -0.9677  0.5586 -1.5865
14528TIP3   OH265074   3.502   0.483  12.933  0.0314 -0.1309 -0.3316
14528TIP3    H165075   3.570   0.551  12.927 -0.0149  0.1092  1.2614
14528TIP3    H265076   3.430   0.526  12.979 -0.6343 -0.8058 -0.7334
14529TIP3   OH265077   0.573   5.360   3.707  0.4253 -0.7523 -0.5627
14529TIP3    H165078   0.608   5.291   3.651  0.4501  0.5167 -2.1544
14529TIP3    H265079   0.537   5.313   3.782 -0.0701 -2.5480 -1.8601
14530TIP3   OH265080   0.355   5.336  14.380  0.3240 -1.0838  0.3350
14530TIP3    H165081   0.300   5.371  14.310 -0.6990  2.6109  2.6461
14530TIP3    H265082   0.425   5.401  14.389 -0.0446 -0.9376  3.1428
14531TIP3   OH265083   2.516   6.553   4.943 -0.0174  0.2257  0.3658
14531TIP3    H165084   2.506   6.527   5.035 -4.2581  1.4985  0.4867
14531TIP3    H265085   2.512   6.648   4.945  1.6895  0.3722 -1.0802
14532TIP3   OH265086   2.260   1.542   3.996 -0.1739  0.0310 -0.2734
14532TIP3    H165087   2.271   1.485   4.072 -1.6685  1.6205  1.2341
14532TIP3    H265088   2.332   1.518   3.937  2.3430  0.0947  2.5219
14533TIP3   OH265089   0.627   0.266  17.008 -0.2401  0.3626  0.1418
14533TIP3    H165090   0.613   0.171  17.004 -0.3026  0.3748 -4.0065
14533TIP3    H265091   0.714   0.275  17.046  0.4742 -1.5075 -0.9052
14534TIP3   OH265092   5.431   0.790   4.298  0.0865  0.1615  0.3177
14534TIP3    H165093   5.465   0.850   4.232  0.1855 -1.0558 -0.7947
14534TIP3    H265094   5.510   0.753   4.339  0.1696 -1.4726 -1.1629
14535TIP3   OH265095   2.481   3.011  12.978  0.5944 -0.1102  0.9701
14535TIP3    H165096   2.433   2.970  13.050  0.2088  0.4020  1.0065
14535TIP3    H265097   2.566   3.034  13.016  1.7824 -2.9934  0.3514
14536TIP3   OH265098   5.364   5.029  16.032  0.2399  0.1439  0.2128
14536TIP3    H165099   5.432   4.972  15.996 -0.8632 -0.1733 -1.5009
14536TIP3    H265100   5.397   5.117  16.019  0.7571 -0.0311  0.3255
14537TIP3   OH265101   3.237   1.862   3.551 -0.1314  0.9401 -0.8835
14537TIP3    H165102   3.223   1.918   3.474  0.5870  1.3032 -0.7634
14537TIP3    H265103   3.167   1.885   3.611  0.4627  2.1306 -0.6100
14538TIP3   OH265104   6.142   6.220   1.831 -0.2762  0.7210  0.2220
14538TIP3    H165105   6.066   6.198   1.777  0.3050 -1.2100  0.1049
14538TIP3    H265106   6.212   6.236   1.768  0.1099 -0.3757  0.3509
14539TIP3   OH265107   2.716   2.031  11.144 -0.2155 -0.3942 -0.0715
14539TIP3    H165108   2.753   2.116  11.167  0.2239 -0.4341 -0.6164
14539TIP3    H265109   2.792   1.973  11.135 -0.5868 -1.3423  2.1791
14540TIP3   OH265110   4.505   1.937   2.677 -0.1036 -0.7528 -0.1257
14540TIP3    H165111   4.495   1.846   2.649  2.6635 -2.3802  3.4436
14540TIP3    H265112   4.590   1.963   2.643 -0.6843  0.4433 -0.7408
14541TIP3   OH265113   4.696   3.273  13.225  0.0747 -0.1420 -0.5295
14541TIP3    H165114   4.782   3.232  13.221  0.1376 -0.7046  2.9794
14541TIP3    H265115   4.651   3.225  13.295 -2.1301  1.8161 -0.4889
14542TIP3   OH265116   3.006   4.817  12.766 -0.5280 -0.3173 -0.5494
14542TIP3    H165117   2.932   4.876  12.755 -2.1199 -2.0176  0.5260
14542TIP3    H265118   2.972   4.744  12.816  2.6975  0.4295  3.2836
14543TIP3   OH265119   3.686   3.382  12.605  0.2787 -0.1497 -0.5533
14543TIP3    H165120   3.729   3.339  12.531  1.6232 -0.1196  0.1714
14543TIP3    H265121   3.677   3.313  12.671 -0.2370 -0.0007 -0.4625
14544TIP3   OH265122   4.566   2.550  12.578 -0.0771  0.2165 -0.1493
14544TIP3    H165123   4.596   2.641  12.576  3.4061 -0.7514  0.6732
14544TIP3    H265124   4.524   2.537  12.493 -0.2057  2.4112 -0.4924
14545TIP3   OH265125   0.075   3.108   4.984  0.1606  0.0848 -0.1889
14545TIP3    H165126   0.090   3.026   4.937  0.0746 -0.0558  0.0266
14545TIP3    H265127   0.033   3.165   4.920  0.9484  0.2371 -0.5795
14546TIP3   OH265128   5.944   5.172   5.579  0.4501  1.1989  0.0058
14546TIP3    H165129   6.025   5.135   5.544  1.2839  2.1046  0.9348
14546TIP3    H265130   5.885   5.096   5.586  1.5622  0.3311  0.3044
14547TIP3   OH265131   3.943   5.071  13.620 -0.1251  0.2749  0.6987
14547TIP3    H165132   4.012   5.045  13.559 -1.1521 -0.3347 -0.2548
14547TIP3    H265133   3.931   4.995  13.677 -0.3889  0.1566  0.4899
14548TIP3   OH265134   6.669   4.338  11.064  0.1773 -0.2873  0.3325
14548TIP3    H165135   6.748   4.372  11.104  0.3958  0.3887 -0.6286
14548TIP3    H265136   6.697   4.307  10.978 -0.7711  0.9399 -0.4524
14549TIP3   OH265137   3.527   5.672   5.055 -0.3825 -0.1350  0.1145
14549TIP3    H165138   3.609   5.623   5.059 -0.2044  0.1977  0.7126
14549TIP3    H265139   3.498   5.676   5.147 -1.5082 -0.9861 -0.1782
14550TIP3   OH265140   3.138   4.291   5.111 -0.0123  0.1223 -0.0015
14550TIP3    H165141   3.082   4.357   5.070 -0.2684  0.3099  0.6314
14550TIP3    H265142   3.168   4.332   5.192  1.3151  0.1389 -0.4956
14551TIP3   OH265143   1.200   0.528   5.106  0.3243 -0.1520 -0.3342
14551TIP3    H165144   1.243   0.481   5.177  0.5878  0.3216 -0.1737
14551TIP3    H265145   1.108   0.533   5.134  0.3880 -0.1418 -0.1198
14552TIP3   OH265146   3.344   2.533   6.126 -0.4248 -0.1665 -0.1402
14552TIP3    H165147   3.299   2.529   6.210 -0.3530  0.0885 -0.0887
14552TIP3    H265148   3.370   2.625   6.117 -1.1175 -0.0332 -0.7990
14553TIP3   OH265149   3.540   2.349   1.099 -0.7057 -0.1336  0.0888
14553TIP3    H165150   3.600   2.406   1.147  0.1128 -1.9306  1.2992
14553TIP3    H265151   3.456   2.357   1.145 -0.8894  0.8678 -0.3980
14554TIP3   OH265152   4.430   5.240  16.817  0.1979  0.5498 -0.4906
14554TIP3    H165153   4.452   5.251  16.909 -0.2526  0.4814 -0.3699
14554TIP3    H265154   4.471   5.315  16.774 -0.3769  1.1068 -0.0913
14555TIP3   OH265155   6.758   0.800  11.198  0.2134  0.5969 -0.1291
14555TIP3    H165156   6.672   0.825  11.231  0.4258  0.9428  0.1664
14555TIP3    H265157   6.772   0.857  11.122  0.1770  0.5255 -0.1905
14556TIP3   OH265158   4.192   4.819  11.410  0.2382  0.7451  0.0507
14556TIP3    H165159   4.261   4.803  11.345  0.6248 -0.5312  0.7549
14556TIP3    H265160   4.111   4.809  11.361  0.5264  1.1925 -0.5431
14557TIP3   OH265161   6.725   4.191   4.097 -0.1640  0.3181  0.3226
14557TIP3    H165162   6.694   4.119   4.043  0.7591  1.9576 -2.6043
14557TIP3    H265163   6.655   4.204   4.161 -0.8215 -2.4274  0.2907
14558TIP3   OH265164   6.759   5.008  11.209  0.2165 -0.5362  0.6536
14558TIP3    H165165   6.711   5.091  11.205  0.6751 -0.2560  0.9195
14558TIP3    H265166   6.804   5.003  11.125  1.1892  0.0990  1.1199
14559TIP3   OH265167   1.753   4.718   4.343 -0.2895  0.0575 -0.3496
14559TIP3    H165168   1.710   4.634   4.328 -2.8729  1.2819 -0.2382
14559TIP3    H265169   1.763   4.756   4.255 -0.3101  0.1873 -0.2964
14560TIP3   OH265170   6.650   2.548   0.592  0.4229 -0.2730 -0.8897
14560TIP3    H165171   6.731   2.498   0.588  0.1427 -0.7210 -0.9991
14560TIP3    H265172   6.592   2.505   0.530 -0.7181 -1.4285  0.8779
14561TIP3   OH265173   5.813   2.598   0.125 -0.5825  0.2012 -0.0318
14561TIP3    H165174   5.782   2.522   0.174 -0.9864  0.8274  0.7091
14561TIP3    H265175   5.754   2.669   0.151  0.5488  1.0653  0.2272
14562TIP3   OH265176   3.386   5.066   5.290 -0.0098  0.1885  0.0162
14562TIP3    H165177   3.383   5.092   5.198  0.8565  0.6618  0.1141
14562TIP3    H265178   3.311   5.008   5.301 -1.3779  1.8037 -0.4680
14563TIP3   OH265179   4.941   4.816   3.227  0.6963  0.0325 -0.4606
14563TIP3    H165180   5.020   4.773   3.261  0.8374  0.7411  0.1569
14563TIP3    H265181   4.974   4.879   3.163  0.5841 -0.1024 -0.6483
14564TIP3   OH265182   1.433   1.851  14.753 -0.2918  0.3982  0.7715
14564TIP3    H165183   1.402   1.840  14.843 -0.1967 -3.8836  0.4901
14564TIP3    H265184   1.357   1.831  14.698  0.4172 -0.1624 -0.0417
14565TIP3   OH265185   2.969   2.563  14.919 -0.3779 -0.3549  0.4624
14565TIP3    H165186   3.037   2.627  14.938 -1.9549  1.2030  1.1025
14565TIP3    H265187   2.985   2.492  14.980 -0.8389  1.1917  2.4840
14566TIP3   OH265188   2.581   3.840  11.223  0.4199  0.0773 -0.2722
14566TIP3    H165189   2.566   3.808  11.312  3.2644  2.2757  1.1887
14566TIP3    H265190   2.621   3.765  11.177 -1.8015 -1.3278 -0.0355
14567TIP3   OH265191   5.344   1.419   4.227  0.1224  0.4821  0.1367
14567TIP3    H165192   5.398   1.396   4.150  2.5463 -0.6756  2.0391
14567TIP3    H265193   5.407   1.452   4.291 -2.0704  3.2625  1.0294
14568TIP3   OH265194   2.279   2.107   2.382  0.0377 -0.2092 -0.0558
14568TIP3    H165195   2.183   2.103   2.390  0.1158  0.7489  2.2281
14568TIP3    H265196   2.304   2.019   2.354 -1.4182 -1.0200  0.9980
14569TIP3   OH265197   3.184   4.135  13.734  1.0012  0.0259  0.1551
14569TIP3    H165198   3.110   4.118  13.793  0.9638 -0.4378 -0.0272
14569TIP3    H265199   3.225   4.050  13.722  0.5460 -0.0346 -1.1238
14570TIP3   OH265200   2.649   3.944  15.857  0.0202  0.3501 -0.7619
14570TIP3    H165201   2.609   3.865  15.820 -1.3672  0.7228 -0.1338
14570TIP3    H265202   2.605   4.017  15.814 -0.7506  0.7810  0.6643
14571TIP3   OH265203   3.648   5.234   2.776 -0.3707  1.1796 -0.3906
14571TIP3    H165204   3.624   5.201   2.863 -0.4243 -0.9340 -1.1680
14571TIP3    H265205   3.675   5.324   2.792  0.4397  0.5919  1.9658
14572TIP3   OH265206   3.055   3.652   0.117  0.0542 -0.0546  0.0350
14572TIP3    H165207   3.054   3.558   0.098 -2.4608  0.1356 -1.3507
14572TIP3    H265208   3.030   3.658   0.209 -1.3847 -0.7691 -0.2683
14573TIP3   OH265209   1.853   2.151   0.709 -0.0679 -0.0245  0.1898
14573TIP3    H165210   1.941   2.121   0.688 -0.2047 -1.1616  1.1350
14573TIP3    H265211   1.795   2.085   0.671 -0.5442  0.8689 -0.6846
14574TIP3   OH265212   5.676   5.177  13.746  0.4132  0.8419  0.3316
14574TIP3    H165213   5.671   5.188  13.841  0.3309 -0.7731  0.5352
14574TIP3    H265214   5.726   5.096  13.734  0.1452  0.8535 -0.9951
14575TIP3   OH265215   0.302   2.992   5.452  0.0828 -0.3858 -0.6255
14575TIP3    H165216   0.228   3.011   5.394 -0.3071 -1.1160 -0.3822
14575TIP3    H265217   0.362   3.065   5.440 -0.6895  0.2246 -0.8177
14576TIP3   OH265218   4.783   3.717  16.596  1.0502  0.4251 -0.7148
14576TIP3    H165219   4.713   3.772  16.560 -0.3568 -1.5002 -1.0770
14576TIP3    H265220   4.838   3.697  16.520  0.1988 -0.5863 -1.0889
14577TIP3   OH265221   2.472   5.575   3.190  0.0077  0.1968 -0.1215
14577TIP3    H165222   2.498   5.491   3.153  0.8999  0.3070  0.2158
14577TIP3    H265223   2.487   5.566   3.284 -1.3914  0.2156  0.1302
14578TIP3   OH265224   0.478   5.596   5.202 -0.7513  0.1523  0.1911
14578TIP3    H165225   0.459   5.525   5.264  0.4440 -1.1284 -0.8352
14578TIP3    H265226   0.504   5.669   5.257 -2.2485 -0.0855  1.2957
14579TIP3   OH265227   0.795   5.869   4.305  0.1360 -0.2232 -0.1290
14579TIP3    H165228   0.786   5.953   4.261  0.7650 -0.1317 -0.0935
14579TIP3    H265229   0.882   5.838   4.280  0.5445 -0.1336  1.1019
14580TIP3   OH265230   3.697   0.188  14.819  0.3123 -0.3579 -0.2113
14580TIP3    H165231   3.653   0.110  14.784  0.4756 -0.7434  0.4167
14580TIP3    H265232   3.630   0.256  14.820  0.5200 -0.0831 -2.0531
14581TIP3   OH265233   0.440   5.526   0.834 -0.1422 -0.0374 -0.1101
14581TIP3    H165234   0.454   5.434   0.855  0.4761  0.1745  0.4720
14581TIP3    H265235   0.371   5.554   0.894  0.1513  0.0405  0.1992
14582TIP3   OH265236   5.782   0.702  14.453  0.1996  0.2441 -0.1709
14582TIP3    H165237   5.857   0.679  14.398  0.4431 -4.4315  1.6677
14582TIP3    H265238   5.819   0.756  14.523  1.9313 -1.7331  0.5433
14583TIP3   OH265239   2.099   1.339  10.927 -0.1068 -0.2219  0.1206
14583TIP3    H165240   2.077   1.281  11.000 -0.3723 -0.5677 -0.2280
14583TIP3    H265241   2.067   1.293  10.850 -1.7948  1.1314 -0.0389
14584TIP3   OH265242   2.847   0.474  11.816 -0.5329 -0.5052 -0.1214
14584TIP3    H165243   2.942   0.482  11.822 -0.6321  0.9881  0.0158
14584TIP3    H265244   2.821   0.546  11.758 -1.7834  0.8080  1.9368
14585TIP3   OH265245   2.050   6.818   2.731 -0.1013 -0.2697 -0.5940
14585TIP3    H165246   2.000   6.738   2.714  2.7650 -2.4605  0.4297
14585TIP3    H265247   2.070   6.853   2.644 -3.0055  0.5827 -1.0459
14586TIP3   OH265248   2.458   3.068   5.633 -0.1543  0.0825 -0.0516
14586TIP3    H165249   2.436   3.050   5.724  0.0959  0.0314 -0.0003
14586TIP3    H265250   2.488   2.984   5.597  0.5111  0.2662  0.0443
14587TIP3   OH265251   3.316   0.612  11.610 -0.4867 -0.0047 -0.2740
14587TIP3    H165252   3.404   0.641  11.583  0.6392 -1.4072  1.6128
14587TIP3    H265253   3.297   0.539  11.551 -1.1097  1.2647 -1.7021
14588TIP3   OH265254   4.400   2.125  11.879  0.3919 -0.5786 -0.2607
14588TIP3    H165255   4.489   2.115  11.910  0.0455 -0.8677  0.6600
14588TIP3    H265256   4.358   2.183  11.942 -0.6330 -2.0637  0.5016
14589TIP3   OH265257   3.439   2.226  10.227  0.3274 -0.0145  0.3963
14589TIP3    H165258   3.388   2.283  10.284 -0.4917 -0.4626  0.1311
14589TIP3    H265259   3.429   2.139  10.265  1.3730 -0.0338  0.6625
14590TIP3   OH265260   5.685   1.760   0.479  0.2063 -0.0690 -0.6785
14590TIP3    H165261   5.770   1.790   0.450 -0.1821 -0.6242 -2.5320
14590TIP3    H265262   5.704   1.699   0.550  1.2494  0.7987 -0.1871
14591TIP3   OH265263   2.689   0.889   2.022  0.1066 -0.1604  0.8449
14591TIP3    H165264   2.684   0.980   2.053 -0.5822 -0.4462  1.6152
14591TIP3    H265265   2.646   0.891   1.937 -0.7198  0.0864  1.2468
14592TIP3   OH265266   1.327   0.231   4.868 -0.2722  0.3258  0.6391
14592TIP3    H165267   1.407   0.248   4.918  0.0953  0.1135  0.1320
14592TIP3    H265268   1.354   0.169   4.800 -0.1082  2.5599 -1.4722
14593TIP3   OH265269   2.112   5.266   4.318 -0.2667  0.1676 -0.3124
14593TIP3    H165270   2.024   5.271   4.356 -0.5499 -3.3903 -0.2218
14593TIP3    H265271   2.170   5.252   4.393  0.3823  1.9330 -0.4324
14594TIP3   OH265272   4.801   0.449  12.174 -0.4428  0.0344  0.3615
14594TIP3    H165273   4.842   0.519  12.123 -0.5246 -2.2783 -3.1879
14594TIP3    H265274   4.761   0.494  12.248  3.3568  3.1422  0.8567
14595TIP3   OH265275   6.353   5.701   0.950 -0.3934 -0.1871 -0.4248
14595TIP3    H165276   6.337   5.778   0.895 -0.4070  0.1277  0.0145
14595TIP3    H265277   6.443   5.676   0.931 -0.1736  0.3379 -0.0804
14596TIP3   OH265278   0.253   3.135  14.478  0.3133  0.0529  0.3201
14596TIP3    H165279   0.316   3.180  14.534  0.0425  0.5671  0.2242
14596TIP3    H265280   0.179   3.117  14.535  0.0138  0.6264  0.1321
14597TIP3   OH265281   3.864   2.632  13.465 -0.3306  0.5324 -1.3289
14597TIP3    H165282   3.809   2.606  13.538 -0.1482  3.8763  0.1972
14597TIP3    H265283   3.818   2.600  13.387 -1.3322 -1.7854  0.0963
14598TIP3   OH265284   0.921   2.716  13.102  0.1391 -0.3166 -0.0281
14598TIP3    H165285   0.952   2.773  13.031 -0.3529  0.3611  0.2820
14598TIP3    H265286   0.901   2.776  13.174 -1.1074 -0.7966  0.0534
14599TIP3   OH265287   4.377   0.421  16.851  0.6023 -0.2831  0.2392
14599TIP3    H165288   4.325   0.489  16.807  2.0165 -0.0944 -1.2677
14599TIP3    H265289   4.398   0.458  16.936 -3.6795 -1.3454  2.0207
14600TIP3   OH265290   0.991   4.330  12.667  0.3400  0.3371  0.0421
14600TIP3    H165291   0.964   4.396  12.603 -1.1809  0.6504  0.9654
14600TIP3    H265292   1.035   4.380  12.735 -0.0877  0.3103  0.3436
14601TIP3   OH265293   1.996   5.374  13.082 -0.1210 -0.3510  0.1928
14601TIP3    H165294   2.017   5.378  12.989 -2.2946 -1.8190 -0.4416
14601TIP3    H265295   1.938   5.448  13.097  1.1814  0.6022  0.7121
14602TIP3   OH265296   4.718   0.465   0.775 -0.0276 -0.1787  0.1011
14602TIP3    H165297   4.764   0.528   0.831  1.5389 -1.1862  0.0043
14602TIP3    H265298   4.721   0.383   0.825 -0.8722 -0.5031 -0.3606
14603TIP3   OH265299   1.608   3.040  13.752  0.1804 -0.2651  0.2776
14603TIP3    H165300   1.628   3.124  13.792  1.0034 -0.4794  0.3294
14603TIP3    H265301   1.514   3.028  13.767  0.2074  0.2841  0.9332
14604TIP3   OH265302   3.812   1.478  10.898  0.2135  0.8904  0.1588
14604TIP3    H165303   3.867   1.539  10.848 -1.2917 -0.1392 -2.9921
14604TIP3    H265304   3.868   1.401  10.910  0.5412  1.0836 -0.0923
14605TIP3   OH265305   4.133   1.706   0.751 -0.1499  0.6095 -0.1771
14605TIP3    H165306   4.088   1.705   0.835  1.4368  1.2423  0.7394
14605TIP3    H265307   4.100   1.629   0.704  1.0911 -1.5768  2.2494
14606TIP3   OH265308   4.613   4.969  11.170  0.2857 -0.1214  0.8648
14606TIP3    H165309   4.520   4.991  11.161  0.2377  0.5570  2.6537
14606TIP3    H265310   4.623   4.945  11.262  2.0141  0.4986  0.8660
14607TIP3   OH265311   5.631   2.685  12.305  0.0639  0.4390  0.5059
14607TIP3    H165312   5.579   2.765  12.312  0.9947  1.2215 -0.9916
14607TIP3    H265313   5.573   2.616  12.337 -0.7235  1.7065  1.9379
14608TIP3   OH265314   0.875   6.168   1.458 -0.3498  0.3150 -0.2397
14608TIP3    H165315   0.829   6.206   1.533 -2.2109  0.0842 -1.2043
14608TIP3    H265316   0.899   6.243   1.404 -2.0465  0.3038 -1.0547
14609TIP3   OH265317   4.894   5.732   3.070 -0.2881  0.0759 -0.3249
14609TIP3    H165318   4.975   5.706   3.114  0.0585 -0.4547 -1.2347
14609TIP3    H265319   4.841   5.653   3.069 -0.3779  0.1370 -0.6622
14610TIP3   OH265320   1.618   2.699  14.977 -0.2152 -0.2161  0.2764
14610TIP3    H165321   1.579   2.633  14.919  1.5846 -0.0092 -1.2579
14610TIP3    H265322   1.565   2.778  14.962 -0.3301 -0.4140 -0.3995
14611TIP3   OH265323   1.136   1.390  13.062  0.0754 -0.5578 -0.6762
14611TIP3    H165324   1.066   1.401  12.997  0.9591  0.1949 -1.5361
14611TIP3    H265325   1.125   1.300  13.094 -1.9758 -0.0753  0.0703
14612TIP3   OH265326   5.411   5.310  12.110 -0.1908 -0.0520  0.3509
14612TIP3    H165327   5.427   5.224  12.071 -1.1266  0.7836 -2.0256
14612TIP3    H265328   5.316   5.314  12.120 -0.0790  0.3501  1.3715
14613TIP3   OH265329   5.554   3.835  15.714  0.1864 -0.1093  0.4981
14613TIP3    H165330   5.608   3.818  15.791  1.5733  0.1424 -0.3851
14613TIP3    H265331   5.612   3.880  15.653 -0.5643 -1.1875 -1.0979
14614TIP3   OH265332   0.050   1.347  16.388  0.0311 -0.1119 -0.4816
14614TIP3    H165333   0.095   1.429  16.368 -0.3746  0.0879 -0.5748
14614TIP3    H265334   0.104   1.306  16.456 -1.0971  1.4565  1.4791
14615TIP3   OH265335   3.730   2.535  12.959 -0.1067 -0.6391  0.4300
14615TIP3    H165336   3.693   2.482  12.888  1.5035 -0.7884 -0.3578
14615TIP3    H265337   3.803   2.582  12.918 -0.8337  1.4040  1.3580
14616TIP3   OH265338   2.767   3.565  13.143 -0.1283 -0.1393  0.0201
14616TIP3    H165339   2.842   3.622  13.163  1.4363 -1.5675 -1.4046
14616TIP3    H265340   2.791   3.480  13.181 -0.6124 -0.8340 -1.1662
14617TIP3   OH265341   4.500   0.795   5.430  0.4146  0.5090  0.2502
14617TIP3    H165342   4.484   0.837   5.345 -1.7129 -0.3537  0.1638
14617TIP3    H265343   4.438   0.838   5.490 -0.0727 -0.7931  0.7110
14618TIP3   OH265344   1.644   0.358  13.445  0.0088 -0.1732  0.3707
14618TIP3    H165345   1.599   0.436  13.412 -1.2800 -1.2320 -0.4949
14618TIP3    H265346   1.611   0.346  13.533 -0.3731 -0.1691  0.2292
14619TIP3   OH265347   0.009   3.107  13.595 -0.0179 -0.2816 -0.6221
14619TIP3    H165348   0.031   3.071  13.508  0.6652 -0.3563 -0.4224
14619TIP3    H265349   0.091   3.106  13.643  0.3961  3.0127 -1.0916
14620TIP3   OH265350   0.659   4.108  10.290 -0.1762  0.0282 -0.3009
14620TIP3    H165351   0.696   4.179  10.341 -0.1630  0.7376 -1.2911
14620TIP3    H265352   0.672   4.030  10.345  0.4410  0.6637  0.4736
14621TIP3   OH265353   0.440   3.023   4.577 -0.2224  0.1741  0.3165
14621TIP3    H165354   0.436   3.106   4.529 -0.0162  0.7211  1.2031
14621TIP3    H265355   0.376   2.967   4.534  0.1031  0.5659 -0.7164
14622TIP3   OH265356   2.629   4.974   5.776 -0.7620 -0.2513  0.1061
14622TIP3    H165357   2.707   4.925   5.750 -0.4951 -0.6032  1.4891
14622TIP3    H265358   2.649   5.065   5.754  1.6549  0.2880  3.7518
14623TIP3   OH265359   2.663   5.473   2.985 -0.0893 -0.1655  0.8725
14623TIP3    H165360   2.619   5.390   3.005  0.8642 -0.8842  0.1462
14623TIP3    H265361   2.751   5.446   2.958 -0.1585  0.9954 -0.6002
14624TIP3   OH265362   4.155   6.733   3.401 -0.1757 -0.2610 -0.0530
14624TIP3    H165363   4.087   6.714   3.336  0.5487  0.3324 -1.0012
14624TIP3    H265364   4.136   6.823   3.430 -0.4972 -0.5233  0.5799
14625TIP3   OH265365   4.776   1.839   3.840  0.5147 -0.1889  0.0961
14625TIP3    H165366   4.774   1.886   3.757 -0.2844  3.2087  1.8611
14625TIP3    H265367   4.721   1.762   3.825 -1.0025  1.2079 -2.0651
14626TIP3   OH265368   4.034   2.525  11.483 -0.2491 -0.1688 -0.2313
14626TIP3    H165369   4.010   2.595  11.544 -0.0775 -0.0817 -0.2634
14626TIP3    H265370   4.091   2.467  11.533 -2.9215 -2.0688  0.8297
14627TIP3   OH265371   1.073   5.514  15.060  0.1854  0.0591  0.4444
14627TIP3    H165372   0.985   5.484  15.083 -0.1407 -0.1413 -1.0131
14627TIP3    H265373   1.112   5.441  15.013  0.5936  0.6838 -0.2052
14628TIP3   OH265374   5.724   6.707   4.922  0.1036  0.4772  0.4767
14628TIP3    H165375   5.694   6.797   4.909 -0.6418  0.2938  0.8542
14628TIP3    H265376   5.720   6.668   4.835 -1.2389  0.3207  0.5950
14629TIP3   OH265377   2.711   5.346   3.709  0.2501  0.3844 -0.1479
14629TIP3    H165378   2.789   5.336   3.764  0.9034  1.8961 -0.7487
14629TIP3    H265379   2.746   5.365   3.622 -0.7915 -0.2641 -0.7229
14630TIP3   OH265380   3.897   6.687   1.369 -0.0667  0.2366  0.2410
14630TIP3    H165381   3.965   6.702   1.303  1.2111 -1.6368  1.0438
14630TIP3    H265382   3.938   6.709   1.452 -1.5669  2.2742  0.5153
14631TIP3   OH265383   5.416   2.105  11.195  0.1955 -0.3979 -0.4656
14631TIP3    H165384   5.330   2.126  11.160 -0.4294 -1.8022  0.1982
14631TIP3    H265385   5.414   2.011  11.212  1.4627 -0.2514  0.6543
14632TIP3   OH265386   1.208   6.592  11.170  0.6103  0.1472 -0.0955
14632TIP3    H165387   1.129   6.539  11.158  0.8599 -0.0367 -0.9649
14632TIP3    H265388   1.279   6.528  11.172  0.8645  0.4085 -0.6606
14633TIP3   OH265389   3.949   5.457   5.238  0.1101 -0.7124  0.0685
14633TIP3    H165390   3.917   5.502   5.317  1.9943  1.8485 -0.5059
14633TIP3    H265391   4.042   5.441   5.255  0.2459 -1.3418 -1.1323
14634TIP3   OH265392   3.712   4.663   1.547 -0.6905  0.2194 -0.4383
14634TIP3    H165393   3.702   4.585   1.601  1.1890 -0.4117 -0.9334
14634TIP3    H265394   3.625   4.703   1.546 -1.4984 -1.4263  0.4825
14635TIP3   OH265395   2.376   1.626  11.630 -0.2358  0.2215  0.6283
14635TIP3    H165396   2.300   1.645  11.575 -1.0639 -0.7977  1.3762
14635TIP3    H265397   2.363   1.681  11.708 -0.5956 -0.4698  1.0669
14636TIP3   OH265398   5.345   2.170  12.940 -0.3911  0.5115 -0.3530
14636TIP3    H165399   5.394   2.094  12.970 -1.4034  0.0206  0.1176
14636TIP3    H265400   5.350   2.166  12.845  0.9556  0.8055 -0.3099
14637TIP3   OH265401   1.789   3.829   4.353  0.2073  0.2915 -0.1605
14637TIP3    H165402   1.741   3.784   4.283  1.7864 -0.2530 -0.9488
14637TIP3    H265403   1.768   3.921   4.341 -2.7278 -0.0900  1.2025
14638TIP3   OH265404   5.259   0.179  15.047 -0.0259  0.8297 -0.1520
14638TIP3    H165405   5.318   0.171  14.972 -0.0100  1.1222 -0.1759
14638TIP3    H265406   5.281   0.265  15.085 -0.1456  0.7553  0.0884
14639TIP3   OH265407   2.756   3.396  14.973 -0.1231 -0.5023  0.3936
14639TIP3    H165408   2.761   3.435  15.060 -0.7601  0.8521 -0.1502
14639TIP3    H265409   2.669   3.356  14.969 -0.6876  0.7290 -0.1169
14640TIP3   OH265410   6.476   4.057   1.039  0.4266  0.2571  0.3618
14640TIP3    H165411   6.481   3.968   1.075 -1.0538 -0.2004 -0.4689
14640TIP3    H265412   6.446   4.110   1.113 -0.7140 -0.3304  0.3533
14641TIP3   OH265413   4.931   2.973  14.582  0.0778  0.9910  0.8378
14641TIP3    H165414   4.918   3.063  14.612 -0.4093  1.1695  0.1214
14641TIP3    H265415   5.026   2.965  14.570  0.2817  0.9146  2.3857
14642TIP3   OH265416   3.365   2.073  11.564 -0.0841  0.0802  0.3013
14642TIP3    H165417   3.340   1.987  11.595  2.1914 -0.6787  0.1955
14642TIP3    H265418   3.394   2.120  11.642  3.2776 -0.9943 -0.1062
14643TIP3   OH265419   5.649   0.822  12.764  0.6812 -0.7191 -0.4479
14643TIP3    H165420   5.554   0.828  12.757  0.7019  0.3704  0.0408
14643TIP3    H265421   5.681   0.837  12.675  0.3984 -1.4266 -0.6807
14644TIP3   OH265422   0.359   3.543   0.571 -0.2978  0.2849 -0.4400
14644TIP3    H165423   0.404   3.554   0.655 -3.0503  0.0734  1.1767
14644TIP3    H265424   0.411   3.479   0.523  1.4844  0.6142  0.9675
14645TIP3   OH265425   5.836   0.758   0.305  0.0061  0.7378  0.3812
14645TIP3    H165426   5.895   0.687   0.279  0.0532  0.3122  1.5719
14645TIP3    H265427   5.806   0.796   0.223  0.8847  0.0803 -0.2594
14646TIP3   OH265428   1.002   0.806   4.822  0.4440 -0.3553 -0.3148
14646TIP3    H165429   1.049   0.877   4.780 -0.4401  0.5883  0.2426
14646TIP3    H265430   1.048   0.727   4.795  3.7050  0.5997  1.8903
14647TIP3   OH265431   5.668   1.512   6.090  0.5065 -0.0853 -0.2721
14647TIP3    H165432   5.603   1.570   6.051 -0.3392  0.0689  1.2716
14647TIP3    H265433   5.673   1.539   6.182  0.0136 -2.4543  0.5333
14648TIP3   OH265434   1.994   4.847   3.440  0.0489 -0.2388  0.0866
14648TIP3    H165435   2.049   4.917   3.407  0.5708  0.7267  2.7612
14648TIP3    H265436   2.052   4.795   3.496 -0.7579 -1.7676 -0.4465
14649TIP3   OH265437   0.713   5.768  15.318  0.5750  0.0361 -0.6945
14649TIP3    H165438   0.681   5.821  15.391  1.6939  0.6297 -0.6111
14649TIP3    H265439   0.804   5.750  15.339  0.9622  0.3472 -2.0128
14650TIP3   OH265440   4.031   6.789   1.612  0.1822 -0.2235 -0.0484
14650TIP3    H165441   4.030   6.875   1.655 -2.5894 -0.2634  0.1344
14650TIP3    H265442   4.019   6.727   1.683  0.7048 -0.6725 -0.3492
14651TIP3   OH265443   3.662   6.364   3.985 -0.2023 -0.0328  0.5800
14651TIP3    H165444   3.647   6.296   4.051 -0.7558  0.4500  0.9638
14651TIP3    H265445   3.622   6.442   4.022 -2.3800 -0.2148 -1.2283
14652TIP3   OH265446   2.302   5.289  13.867 -0.2269 -0.0331 -0.2670
14652TIP3    H165447   2.385   5.250  13.840  0.3089  0.3492  0.7670
14652TIP3    H265448   2.269   5.333  13.789 -0.1980 -1.4234 -1.1030
14653TIP3   OH265449   2.799   3.993   5.182  0.2891  0.0858  0.5308
14653TIP3    H165450   2.829   4.001   5.092 -1.2607 -0.8197 -0.1210
14653TIP3    H265451   2.829   3.906   5.210  0.7743  0.3681  0.9025
14654TIP3   OH265452   6.762   6.851  16.653  0.3024 -0.1189  0.2123
14654TIP3    H165453   6.842   6.844  16.705 -0.8531  0.6528  2.2057
14654TIP3    H265454   6.692   6.854  16.717 -1.1971  1.2977 -1.3832
14655TIP3   OH265455   6.441   4.978   2.742  0.0117  0.5383  0.0874
14655TIP3    H165456   6.497   5.016   2.810 -0.4042  0.4774  0.4766
14655TIP3    H265457   6.352   4.994   2.774 -0.1714 -0.5445  0.1393
14656TIP3   OH265458   2.979   6.723   5.711  0.0709 -1.1835 -0.4615
14656TIP3    H165459   2.916   6.790   5.736  0.2458 -1.2546  0.1967
14656TIP3    H265460   2.929   6.660   5.660 -0.1717 -0.7326 -0.7757
14657TIP3   OH265461   5.282   3.588  12.309  0.4010  0.0030 -0.0310
14657TIP3    H165462   5.335   3.522  12.265  0.5885 -0.1146  0.3742
14657TIP3    H265463   5.243   3.542  12.384  1.8533  0.7614  1.2347
14658TIP3   OH265464   2.561   5.210   5.922  0.1396  0.1851  0.4636
14658TIP3    H165465   2.607   5.126   5.930  0.4685  0.2663 -0.5463
14658TIP3    H265466   2.616   5.271   5.972 -0.0082 -0.1545  1.0564
14659TIP3   OH265467   4.220   5.984  11.626  0.7033  0.4302  0.3400
14659TIP3    H165468   4.228   5.979  11.531  0.0941  2.1015  0.1637
14659TIP3    H265469   4.250   5.899  11.657 -0.9576 -0.8963 -1.4449
14660TIP3   OH265470   6.454   6.474   1.693 -0.0169 -0.2633  0.1652
14660TIP3    H165471   6.454   6.497   1.600  0.1635 -0.5539  0.0912
14660TIP3    H265472   6.416   6.550   1.737 -0.8220 -0.4364 -0.2211
14661TIP3   OH265473   5.386   1.728  16.284  0.0787 -0.2158  0.0213
14661TIP3    H165474   5.473   1.719  16.245 -0.0762 -1.3565 -0.0703
14661TIP3    H265475   5.392   1.681  16.367 -0.5490 -0.5566 -0.1268
14662TIP3   OH265476   2.597   3.217  15.721 -0.1099  0.0166 -0.7185
14662TIP3    H165477   2.689   3.195  15.712 -0.4615 -1.2979 -1.2941
14662TIP3    H265478   2.579   3.275  15.647  0.2063  0.1081 -0.7239
14663TIP3   OH265479   4.623   3.227  16.745 -0.5159  0.7907 -0.2333
14663TIP3    H165480   4.533   3.206  16.722 -0.3647 -0.6526  0.4034
14663TIP3    H265481   4.671   3.145  16.735  0.4952  1.2545  0.5508
14664TIP3   OH265482   0.884   4.243  14.201 -0.1410 -0.0395 -0.5630
14664TIP3    H165483   0.887   4.263  14.107 -1.5147 -0.1528 -0.6560
14664TIP3    H265484   0.800   4.278  14.230 -0.3660 -1.2485  0.3316
14665TIP3   OH265485   0.270   1.344   0.763 -0.2120  0.0234 -0.4212
14665TIP3    H165486   0.251   1.435   0.743 -1.9553  0.0103  0.8986
14665TIP3    H265487   0.365   1.341   0.774 -0.0985  1.6133 -0.7624
14666TIP3   OH265488   5.595   5.842   1.334  0.0308 -0.1939 -0.1312
14666TIP3    H165489   5.507   5.812   1.313  0.0858 -0.9271  0.6735
14666TIP3    H265490   5.649   5.763   1.334  0.9174  0.3585 -1.6318
14667TIP3   OH265491   6.276   6.480  14.640 -0.0008  0.9512  0.3024
14667TIP3    H165492   6.361   6.440  14.662 -0.9908 -0.4452  1.9219
14667TIP3    H265493   6.252   6.440  14.556  0.7341  1.0150  0.0541
14668TIP3   OH265494   0.243   1.486  14.390  0.2799 -0.1998  0.0301
14668TIP3    H165495   0.177   1.518  14.452  1.3785  1.0836  0.6084
14668TIP3    H265496   0.297   1.563  14.372  0.3477 -0.6966 -2.0919
14669TIP3   OH265497   0.803   5.992   1.276 -0.2953 -0.0212  0.0842
14669TIP3    H165498   0.710   6.008   1.257 -0.0530  1.0281 -0.3301
14669TIP3    H265499   0.825   6.056   1.343  0.6172  1.1827 -1.2944
14670TIP3   OH265500   0.644   6.663  15.370 -0.1882 -0.0854 -0.7417
14670TIP3    H165501   0.677   6.738  15.419 -0.8314  0.4316 -1.0797
14670TIP3    H265502   0.552   6.657  15.395 -0.1983 -0.6093 -0.9039
14671TIP3   OH265503   2.105   5.000   0.561  0.2126  0.3160  1.1245
14671TIP3    H165504   2.166   5.061   0.603 -1.3733  2.4197  0.5282
14671TIP3    H265505   2.018   5.033   0.583 -0.7282  0.8276 -2.6641
14672TIP3   OH265506   3.722   0.846   3.217 -0.1237  0.3908 -0.1194
14672TIP3    H165507   3.735   0.841   3.312  0.4360 -0.4549 -0.2295
14672TIP3    H265508   3.706   0.938   3.200  0.0159  0.5887  0.7728
14673TIP3   OH265509   6.268   6.352   1.332  0.5517 -0.5006  0.2203
14673TIP3    H165510   6.310   6.268   1.315  1.0529 -0.2544  0.2021
14673TIP3    H265511   6.233   6.378   1.247  0.1237 -0.8353  0.2939
14674TIP3   OH265512   1.620   4.183   5.945  0.3031 -0.3331 -0.0832
14674TIP3    H165513   1.715   4.175   5.954  0.2976  0.1579  0.4575
14674TIP3    H265514   1.588   4.094   5.956  0.6740 -0.4507  0.0668
14675TIP3   OH265515   3.870   1.735   4.092  0.1433  0.2939 -0.6081
14675TIP3    H165516   3.832   1.678   4.025  0.1458 -0.3157 -0.1072
14675TIP3    H265517   3.950   1.690   4.119  0.3915  0.7758 -0.5332
14676TIP3   OH265518   1.834   3.447   5.167 -0.1477  0.0336  0.0922
14676TIP3    H165519   1.872   3.414   5.249 -0.7463  0.0208  0.3663
14676TIP3    H265520   1.910   3.471   5.114  0.2590 -0.5299  0.4108
14677TIP3   OH265521   0.772   1.982   1.068  0.3434  0.4618  0.3445
14677TIP3    H165522   0.801   1.958   0.979 -0.3471 -0.3903  0.3321
14677TIP3    H265523   0.740   2.072   1.059  0.5944  0.5048 -0.2003
14678TIP3   OH265524   1.816   1.537  10.841 -0.5056 -0.3745  0.2927
14678TIP3    H165525   1.756   1.466  10.815 -1.6120  0.6508 -0.0348
14678TIP3    H265526   1.897   1.518  10.794 -0.9505 -1.1418 -0.1958
14679TIP3   OH265527   1.858   0.227   3.259 -0.2457  0.0779 -0.4502
14679TIP3    H165528   1.933   0.168   3.256  0.0949  0.5046 -0.4100
14679TIP3    H265529   1.811   0.203   3.339 -0.5350 -0.6450 -0.8205
14680TIP3   OH265530   5.719   0.960  12.522 -0.0248 -0.0470 -0.9304
14680TIP3    H165531   5.668   1.041  12.515 -1.2969 -0.9175 -2.0934
14680TIP3    H265532   5.810   0.988  12.505 -0.3428  1.2213 -0.6759
14681TIP3   OH265533   2.320   1.608   0.522  0.4185  0.1673  0.2301
14681TIP3    H165534   2.335   1.702   0.527 -0.7387  0.5546 -2.3208
14681TIP3    H265535   2.226   1.597   0.536  0.2325 -0.3731 -1.2373
14682TIP3   OH265536   0.614   1.098   3.365 -0.2941  0.0870  0.2168
14682TIP3    H165537   0.674   1.098   3.440 -1.1108 -0.6739  0.9007
14682TIP3    H265538   0.564   1.016   3.375 -1.6640  0.8516 -0.1344
14683TIP3   OH265539   0.820   6.022  11.906  0.1585 -0.4160 -0.1447
14683TIP3    H165540   0.765   5.943  11.902 -0.6169  0.0979  0.0639
14683TIP3    H265541   0.908   5.990  11.890 -0.2007 -1.2661 -0.5308
14684TIP3   OH265542   1.654   4.283   0.462 -0.9481 -0.1042 -0.6890
14684TIP3    H165543   1.622   4.310   0.376 -2.4900  0.8588  0.1464
14684TIP3    H265544   1.666   4.364   0.511 -1.5079 -0.6947  0.4870
14685TIP3   OH265545   3.763   6.640  14.797  0.0358 -0.1769  0.0951
14685TIP3    H165546   3.692   6.575  14.800  0.1689 -0.3005  0.6764
14685TIP3    H265547   3.818   6.612  14.724 -0.3990 -0.2018 -0.2251
14686TIP3   OH265548   3.005   1.563   3.623  0.1949  0.0837 -0.1045
14686TIP3    H165549   3.080   1.623   3.621 -0.4355  0.8604 -1.6654
14686TIP3    H265550   2.958   1.579   3.541  0.2720 -2.9288 -0.8659
14687TIP3   OH265551   0.885   1.689   1.325  0.5378  0.5320 -0.4048
14687TIP3    H165552   0.797   1.726   1.317  0.1627  0.0729  1.1504
14687TIP3    H265553   0.876   1.599   1.294 -0.2063 -0.3219  2.0177
14688TIP3   OH265554   3.602   4.763  10.714 -0.5207 -0.3259 -0.0378
14688TIP3    H165555   3.667   4.693  10.727 -0.8698 -0.8854 -1.1603
14688TIP3    H265556   3.590   4.801  10.801  3.0371  1.3780 -0.1020
14689TIP3   OH265557   1.857   6.624  12.678 -0.4642 -0.0025  0.7746
14689TIP3    H165558   1.777   6.582  12.647  0.1073 -0.3398 -0.2968
14689TIP3    H265559   1.836   6.653  12.767 -1.7374 -0.1657  0.5472
14690TIP3   OH265560   2.804   2.564  11.108  0.4385 -0.3666 -0.2772
14690TIP3    H165561   2.880   2.618  11.087  1.8911 -2.0222  0.4713
14690TIP3    H265562   2.729   2.617  11.082  1.8047  1.6252 -0.3707
14691TIP3   OH265563   2.623   4.517  13.429  0.1711  0.2168 -0.4600
14691TIP3    H165564   2.531   4.491  13.425  0.4874 -1.9497  2.5604
14691TIP3    H265565   2.667   4.440  13.466  2.5766  2.4165  1.6115
14692TIP3   OH265566   2.370   2.813   0.371 -0.3747 -0.2099  0.3816
14692TIP3    H165567   2.325   2.892   0.342 -1.2741 -1.4738 -2.0066
14692TIP3    H265568   2.354   2.808   0.465 -1.4282  1.7205  0.3410
14693TIP3   OH265569   2.332   4.795   1.123 -0.3729  0.2627 -0.0338
14693TIP3    H165570   2.285   4.714   1.144  0.3559  0.2670  1.7547
14693TIP3    H265571   2.415   4.766   1.087 -0.6456  0.2492 -0.6764
14694TIP3   OH265572   3.390   4.660  14.379  0.5936 -0.5257 -0.5537
14694TIP3    H165573   3.298   4.664  14.355  0.0578  1.1601  1.4371
14694TIP3    H265574   3.429   4.597  14.318 -1.7081 -0.7537 -1.8872
14695TIP3   OH265575   5.739   5.656   0.971 -0.0652  0.6416  0.1558
14695TIP3    H165576   5.785   5.712   0.909 -0.3610  0.6811 -0.0293
14695TIP3    H265577   5.809   5.614   1.021  0.2268 -0.3743 -1.0548
14696TIP3   OH265578   4.456   0.802  13.094  0.1074 -0.1498 -0.1202
14696TIP3    H165579   4.375   0.793  13.045  0.8765 -0.3806 -1.3857
14696TIP3    H265580   4.497   0.716  13.089  0.8142  0.1838 -0.2004
14697TIP3   OH265581   5.223   1.665   6.667  0.2633 -0.6182 -0.1668
14697TIP3    H165582   5.208   1.739   6.608  1.2167 -0.0363  0.3038
14697TIP3    H265583   5.234   1.590   6.609 -0.4847 -0.3613 -0.6553
14698TIP3   OH265584   0.233   1.574   6.070  0.2831 -0.3033 -0.0400
14698TIP3    H165585   0.299   1.540   6.009  1.1237 -1.2017  1.3219
14698TIP3    H265586   0.165   1.507   6.072 -1.1695  0.9681 -2.0465
14699TIP3   OH265587   4.071   2.759  13.695  0.2004 -0.3329 -0.1546
14699TIP3    H165588   3.976   2.759  13.705  0.2002 -2.8677  0.6219
14699TIP3    H265589   4.099   2.678  13.737  2.6986  0.2376 -0.5783
14700TIP3   OH265590   6.153   0.816   5.619  0.0074 -0.1906  0.2351
14700TIP3    H165591   6.111   0.746   5.669 -0.4594 -0.5761 -0.6675
14700TIP3    H265592   6.247   0.794   5.622 -0.1540 -0.9830 -0.2076
14701TIP3   OH265593   0.443   4.440  14.901  0.2132 -0.2247  0.1676
14701TIP3    H165594   0.531   4.421  14.934  0.2546  0.5153  0.5122
14701TIP3    H265595   0.386   4.377  14.946  0.3118  0.5684  1.4551
14702TIP3   OH265596   1.569   3.486  10.715 -0.1468 -0.7175 -0.4942
14702TIP3    H165597   1.563   3.391  10.704  0.1747 -0.5995 -1.9617
14702TIP3    H265598   1.631   3.514  10.648 -0.6705  0.5898 -0.4646
14703TIP3   OH265599   3.190   0.131  11.055 -0.0933 -0.2425 -0.3707
14703TIP3    H165600   3.272   0.180  11.062 -0.2549 -0.1729  1.5813
14703TIP3    H265601   3.189   0.099  10.964  1.1649  1.3207 -0.9896
14704TIP3   OH265602   2.023   3.747   4.725  0.0076 -0.3215 -0.2360
14704TIP3    H165603   1.954   3.772   4.787 -0.1154  0.0820 -0.5322
14704TIP3    H265604   2.105   3.768   4.770 -0.0565 -0.9728  0.1900
14705TIP3   OH265605   0.356   6.117  12.186  0.1859 -0.1573  0.5325
14705TIP3    H165606   0.383   6.053  12.252  1.0814 -0.3656 -0.0046
14705TIP3    H265607   0.361   6.069  12.103  0.2628  0.4365  0.1868
14706TIP3   OH265608   6.469   0.272  11.935  0.2399  0.1533  0.4897
14706TIP3    H165609   6.445   0.327  12.010 -0.9542 -1.0813  1.0537
14706TIP3    H265610   6.447   0.183  11.963  0.5381 -0.4247 -1.0350
14707TIP3   OH265611   4.997   6.748   3.428 -0.1404  0.4660  0.3577
14707TIP3    H165612   5.085   6.775   3.400  0.9844 -1.3505  1.8532
14707TIP3    H265613   5.002   6.652   3.433 -0.5445  0.4776  5.2873
14708TIP3   OH265614   3.570   3.593  16.407  0.2326  0.0423  0.1297
14708TIP3    H165615   3.609   3.515  16.447 -0.5468 -0.3231  0.2017
14708TIP3    H265616   3.580   3.579  16.313  2.3077  1.0277  0.1617
14709TIP3   OH265617   4.172   1.383  15.493  0.3368 -0.6916  0.4289
14709TIP3    H165618   4.117   1.444  15.445  0.4863 -1.7250 -1.1039
14709TIP3    H265619   4.168   1.414  15.584 -0.0776  1.2012 -0.1976
14710TIP3   OH265620   5.429   6.590  13.963  0.9349 -0.2469 -0.2071
14710TIP3    H165621   5.374   6.668  13.952  0.0191 -1.1376 -2.6146
14710TIP3    H265622   5.367   6.517  13.967  1.8004 -0.9345  1.5921
14711TIP3   OH265623   6.364   1.817  13.254 -0.0478  0.6848  0.5214
14711TIP3    H165624   6.277   1.820  13.293 -0.3708 -0.1401 -0.0972
14711TIP3    H265625   6.416   1.766  13.316  0.3095  2.1558  1.4545
14712TIP3   OH265626   6.697   0.661  11.642 -0.3115  0.4105 -0.0969
14712TIP3    H165627   6.631   0.595  11.662  1.1991 -0.4536  2.5115
14712TIP3    H265628   6.763   0.614  11.591  0.2516  0.1213  0.8625
14713TIP3   OH265629   0.307   0.755   0.773 -0.1989 -0.1603 -0.5123
14713TIP3    H165630   0.394   0.720   0.791  0.5072  2.4192  1.8256
14713TIP3    H265631   0.323   0.831   0.718 -1.3193 -1.2350 -2.4189
14714TIP3   OH265632   3.766   6.645  14.171 -0.0199 -0.2832  0.4068
14714TIP3    H165633   3.861   6.642  14.160  0.1154  0.2810  1.2534
14714TIP3    H265634   3.751   6.727  14.218 -0.7708 -1.0634  1.5823
14715TIP3   OH265635   6.777   3.677   3.945 -0.1522 -0.0655  0.1955
14715TIP3    H165636   6.767   3.617   4.019  1.8328 -0.3927  0.2788
14715TIP3    H265637   6.856   3.727   3.967  0.0608  0.3247 -1.3618
14716TIP3   OH265638   0.879   3.667  12.652 -0.0449  0.8860  0.0840
14716TIP3    H165639   0.845   3.583  12.621 -0.1207  1.5120 -1.6468
14716TIP3    H265640   0.802   3.713  12.686 -0.2775  0.8355 -0.3638
14717TIP3   OH265641   3.520   2.752  15.045  0.0714  0.0734  0.1683
14717TIP3    H165642   3.545   2.706  14.965 -1.2125 -2.6199  1.1805
14717TIP3    H265643   3.507   2.683  15.109 -1.2204  1.9514  2.0795
14718TIP3   OH265644   6.252   3.343   2.107 -0.1542  0.0663 -1.0800
14718TIP3    H165645   6.200   3.316   2.183  0.5462  1.3596 -0.1012
14718TIP3    H265646   6.248   3.268   2.048  2.3799 -2.6262  1.8143
14719TIP3   OH265647   4.406   1.323   4.166  0.5945  0.4818  0.1644
14719TIP3    H165648   4.394   1.418   4.159  0.3054  0.4031 -0.4550
14719TIP3    H265649   4.489   1.313   4.213  0.7025  1.0431  0.1061
14720TIP3   OH265650   6.334   5.629   4.651  0.2268 -0.6673 -0.5501
14720TIP3    H165651   6.281   5.591   4.722 -1.2338  0.5836 -0.9233
14720TIP3    H265652   6.424   5.619   4.681 -0.2657 -1.6830  0.7109
14721TIP3   OH265653   6.352   6.600   3.055  0.2106  0.2174  0.2763
14721TIP3    H165654   6.404   6.652   2.993 -0.9799 -0.7362 -1.6196
14721TIP3    H265655   6.401   6.519   3.065  0.0490  0.0877  0.0172
14722TIP3   OH265656   2.911   6.140  11.971 -0.0040 -0.0229 -0.1382
14722TIP3    H165657   2.995   6.106  11.940 -0.5903 -0.9956 -0.7079
14722TIP3    H265658   2.890   6.087  12.047  0.0352  0.4206  0.1865
14723TIP3   OH265659   2.085   6.541  12.294 -0.5505 -0.1707 -0.2180
14723TIP3    H165660   2.044   6.526  12.379  0.8690  1.4613  0.8315
14723TIP3    H265661   2.043   6.621  12.261 -2.5970 -1.8742 -2.1392
14724TIP3   OH265662   0.467   1.841  13.520  0.0015  0.3588  0.3477
14724TIP3    H165663   0.497   1.842  13.610 -0.2760  0.2676  0.4417
14724TIP3    H265664   0.547   1.833  13.468  0.1013 -0.4934  0.6128
14725TIP3   OH265665   1.787   5.659  13.615 -0.3274  0.0725  0.2421
14725TIP3    H165666   1.736   5.731  13.652 -0.7608 -0.2496  0.2807
14725TIP3    H265667   1.838   5.625  13.688 -2.9234 -2.0895  1.2035
14726TIP3   OH265668   1.800   5.956  13.984  0.3994  0.0993 -0.4266
14726TIP3    H165669   1.772   5.946  14.075  1.2025 -0.4157 -0.2341
14726TIP3    H265670   1.788   6.050  13.966  2.0168  0.5768  0.8069
14727TIP3   OH265671   1.562   2.051   5.610  0.9794 -0.1386  0.0721
14727TIP3    H165672   1.622   2.082   5.678 -1.6398  0.4188  2.3001
14727TIP3    H265673   1.528   1.968   5.644 -0.8613  0.4642 -0.1769
14728TIP3   OH265674   0.580   3.902  11.277 -0.0774  0.2320 -0.0078
14728TIP3    H165675   0.575   3.979  11.333 -0.1007  1.9647 -2.2270
14728TIP3    H265676   0.640   3.842  11.322  0.3559  1.7695  1.5291
14729TIP3   OH265677   6.655   0.072   4.660  0.3347  0.4404 -0.1951
14729TIP3    H165678   6.663  -0.004   4.603 -0.6838  0.7239 -0.7443
14729TIP3    H265679   6.744   0.106   4.668  0.4568  0.6201 -1.9487
14730TIP3   OH265680   2.464   2.456   3.669 -0.2336 -0.0657 -0.0827
14730TIP3    H165681   2.519   2.528   3.701  0.0253 -0.6602  0.8416
14730TIP3    H265682   2.492   2.380   3.719  1.7247 -1.6021 -3.2149
14731TIP3   OH265683   2.755   2.448  12.691  0.4194 -0.0913 -0.3193
14731TIP3    H165684   2.771   2.361  12.727 -0.2886  0.0100  0.2723
14731TIP3    H265685   2.687   2.485  12.748  0.6544  0.8135 -0.6132
14732TIP3   OH265686   5.237   3.748  12.660 -0.3742 -0.4768 -0.1383
14732TIP3    H165687   5.238   3.809  12.587 -0.3654 -1.3451 -0.8745
14732TIP3    H265688   5.267   3.800  12.735 -0.6638  0.4931 -0.6761
14733TIP3   OH265689   4.297   2.843  16.289  0.2517 -0.0735  0.1398
14733TIP3    H165690   4.348   2.762  16.283  0.7196  0.1684  0.7676
14733TIP3    H265691   4.361   2.913  16.282 -0.0754  0.2407  0.2548
14734TIP3   OH265692   1.258   6.801   1.733  0.5166  0.3188  0.3191
14734TIP3    H165693   1.337   6.783   1.783 -0.1837  1.2109  1.8196
14734TIP3    H265694   1.274   6.885   1.692 -0.1916  1.2527  1.8721
14735TIP3   OH265695   3.110   4.408  13.188  0.2594 -0.9330  0.1712
14735TIP3    H165696   3.079   4.498  13.187  2.9808  0.0783 -0.6891
14735TIP3    H265697   3.090   4.375  13.100 -1.1626 -1.3841  0.6338
14736TIP3   OH265698   1.994   1.265  14.466  0.1536  0.1454  0.1462
14736TIP3    H165699   1.976   1.265  14.371  1.9868 -2.7154 -0.3466
14736TIP3    H265700   2.013   1.356  14.487  0.8366  0.7292 -2.5316
14737TIP3   OH265701   6.156   1.100  12.707  0.2491 -0.9616  0.6406
14737TIP3    H165702   6.174   1.145  12.789  1.1394 -0.4726  0.1960
14737TIP3    H265703   6.232   1.042  12.695  0.0920 -1.0789  0.2004
14738TIP3   OH265704   5.494   4.811  11.770 -0.3566 -0.0514  0.3739
14738TIP3    H165705   5.495   4.781  11.861 -1.2348 -0.5419  0.2446
14738TIP3    H265706   5.579   4.784  11.735 -0.7301 -1.5800  0.5433
14739TIP3   OH265707   4.473   0.654   0.645 -0.4826  0.4819 -0.6067
14739TIP3    H165708   4.499   0.602   0.721  0.4467 -2.0481 -2.4848
14739TIP3    H265709   4.556   0.690   0.612 -0.0229 -2.3375 -2.9678
14740TIP3   OH265710   2.845   1.002  11.789  0.8324  0.0545 -0.1074
14740TIP3    H165711   2.765   1.053  11.806 -1.1272 -2.0296 -2.2301
14740TIP3    H265712   2.858   0.951  11.868  0.2441  0.6808  0.4077
14741TIP3   OH265713   2.729   4.303   5.582  0.0841  0.0453  0.5330
14741TIP3    H165714   2.783   4.316   5.660  1.6714 -2.2459 -0.0848
14741TIP3    H265715   2.665   4.236   5.607 -0.3355  0.3485  0.2891
14742TIP3   OH265716   4.666   0.757   4.156 -0.1898  0.5187 -0.5462
14742TIP3    H165717   4.686   0.848   4.179 -0.0700  0.3938 -0.1479
14742TIP3    H265718   4.648   0.715   4.240  0.1178  0.0867 -0.6959
14743TIP3   OH265719   0.412   5.321   6.254  0.2845 -0.4376 -0.3424
14743TIP3    H165720   0.496   5.354   6.223 -0.2480  0.9903 -0.3467
14743TIP3    H265721   0.349   5.349   6.187 -0.3366 -0.5967  0.1601
14744TIP3   OH265722   4.621   1.808   5.904  0.1830  0.2650  0.1140
14744TIP3    H165723   4.539   1.857   5.899 -0.0078 -0.1224 -1.0407
14744TIP3    H265724   4.595   1.721   5.934 -0.0281 -0.1971 -1.2958
14745TIP3   OH265725   3.999   5.415   4.362  0.4615  0.8245 -0.5578
14745TIP3    H165726   3.977   5.478   4.293 -0.2422  0.0939 -1.0308
14745TIP3    H265727   3.920   5.361   4.370  2.2967 -2.6374 -3.0845
14746TIP3   OH265728   2.832   0.078   1.000  0.4857  0.0746  0.0620
14746TIP3    H165729   2.786  -0.005   1.014 -1.2068  1.2000  1.8043
14746TIP3    H265730   2.812   0.130   1.078  0.5972  2.5044 -1.3964
14747TIP3   OH265731   4.632   5.061   1.387 -0.4719  0.6129  0.1263
14747TIP3    H165732   4.553   5.007   1.382 -0.6341  0.8994 -0.5735
14747TIP3    H265733   4.650   5.085   1.296  0.9894 -0.2331  0.1698
14748TIP3   OH265734   6.695   3.921  13.236 -0.2480 -0.3462 -0.4336
14748TIP3    H165735   6.776   3.872  13.223 -0.7974 -0.9607 -1.7029
14748TIP3    H265736   6.654   3.923  13.149  0.2865  3.3541 -0.7745
14749TIP3   OH265737   3.172   0.662   3.966  0.1441  0.3831 -0.3374
14749TIP3    H165738   3.186   0.571   3.991  1.2897  0.6755  0.1330
14749TIP3    H265739   3.206   0.668   3.877 -0.4217  0.2387 -0.5695
14750TIP3   OH265740   2.775   6.836   2.427 -0.2874  0.1767 -0.5529
14750TIP3    H165741   2.715   6.911   2.430 -1.4539 -0.6684 -1.8229
14750TIP3    H265742   2.730   6.771   2.374  2.4024  0.1004 -3.0237
14751TIP3   OH265743   3.520   1.975  12.896  0.1183 -0.3525 -0.0203
14751TIP3    H165744   3.588   1.987  12.962 -1.2388  0.0674  1.3686
14751TIP3    H265745   3.505   1.881  12.892  0.7176 -0.4381 -0.2784
14752TIP3   OH265746   1.754   4.831   1.953  0.3907 -0.3040  0.7663
14752TIP3    H165747   1.718   4.776   1.882  2.6591 -0.4583 -0.3596
14752TIP3    H265748   1.723   4.919   1.933  0.0087 -0.5431  0.2722
14753TIP3   OH265749   4.800   1.142  12.388 -0.5999  0.1071  0.2441
14753TIP3    H165750   4.875   1.108  12.437 -1.1027 -0.5697  0.5721
14753TIP3    H265751   4.825   1.134  12.296  0.2081  1.0467  0.3692
14754TIP3   OH265752   1.165   0.440  13.463  1.1277 -0.2787 -0.7705
14754TIP3    H165753   1.118   0.514  13.425  2.2841  0.2719 -1.2060
14754TIP3    H265754   1.170   0.376  13.392 -0.9849 -1.3563 -0.0113
14755TIP3   OH265755   2.437   4.149  13.808  0.4325  0.2118 -0.1417
14755TIP3    H165756   2.411   4.188  13.891 -0.9036 -1.1059  0.0964
14755TIP3    H265757   2.514   4.096  13.830  0.7387  0.7162  0.0226
14756TIP3   OH265758   3.450   6.379   3.500 -0.2213 -0.6101 -0.9345
14756TIP3    H165759   3.518   6.382   3.433 -0.6652  0.3762 -1.3666
14756TIP3    H265760   3.497   6.382   3.583  0.2839 -0.6471 -1.2201
14757TIP3   OH265761   0.342   4.681   5.610  0.5963 -0.3093  0.3281
14757TIP3    H165762   0.329   4.651   5.520  2.1551 -0.0909  0.0032
14757TIP3    H265763   0.324   4.604   5.664 -2.4727  0.0759  0.0497
14758TIP3   OH265764   1.419   1.985   2.076  0.0860  0.3466  0.1646
14758TIP3    H165765   1.415   2.031   1.992 -0.1255  0.8353  0.4377
14758TIP3    H265766   1.495   1.927   2.067 -1.0240 -1.0030 -1.0493
14759TIP3   OH265767   6.235   5.268  10.683 -0.0286 -0.3063  0.0819
14759TIP3    H165768   6.328   5.272  10.705 -0.3884  1.7689  1.5855
14759TIP3    H265769   6.230   5.206  10.611  2.6192  0.0618 -0.5377
14760TIP3   OH265770   0.258   0.609   4.098 -0.6054  0.1908 -0.2161
14760TIP3    H165771   0.320   0.569   4.038  0.2523 -1.3098  1.5661
14760TIP3    H265772   0.250   0.699   4.067 -0.4280 -0.5642 -2.6939
14761TIP3   OH265773   2.239   0.327   3.039 -0.2479  0.2663 -0.2881
14761TIP3    H165774   2.209   0.237   3.024 -1.2172  0.2776  1.3600
14761TIP3    H265775   2.319   0.334   2.987  0.8827 -2.1399  0.9599
14762TIP3   OH265776   0.461   2.674  13.889 -0.1015  0.1319 -0.3262
14762TIP3    H165777   0.507   2.758  13.887 -0.6605  0.5497  2.0735
14762TIP3    H265778   0.481   2.637  13.975 -1.3407 -1.3676 -0.6399
14763TIP3   OH265779   2.535   4.622   3.138  0.6923  0.2836  0.1727
14763TIP3    H165780   2.448   4.582   3.145  1.1209 -0.7098 -0.0869
14763TIP3    H265781   2.555   4.649   3.228 -0.3516  1.5601  0.0492
14764TIP3   OH265782   2.784   1.073  12.212  0.0776 -0.8514  0.0497
14764TIP3    H165783   2.742   1.069  12.126 -1.3985 -0.5258  0.7296
14764TIP3    H265784   2.863   1.019  12.203  0.6971  0.2721 -1.8925
14765TIP3   OH265785   1.331   5.720  13.382  0.0171 -0.3055 -0.3532
14765TIP3    H165786   1.379   5.685  13.458  2.7297 -2.6202 -2.8579
14765TIP3    H265787   1.326   5.814  13.399  0.5135 -0.7012  2.6488
14766TIP3   OH265788   6.051   4.766   6.143  0.4633 -0.9696 -0.1160
14766TIP3    H165789   6.143   4.766   6.116 -0.1681 -1.4068 -2.5117
14766TIP3    H265790   6.047   4.828   6.216  2.8676 -1.9865  0.9789
14767TIP3   OH265791   6.797   5.581   2.149  0.1829 -0.2969  0.0760
14767TIP3    H165792   6.779   5.611   2.060  2.1428 -0.6902 -0.4897
14767TIP3    H265793   6.776   5.487   2.148 -1.2585 -0.0159  0.5004
14768TIP3   OH265794   2.891   5.434   5.245  0.5807 -0.2789 -0.2873
14768TIP3    H165795   2.924   5.440   5.335  0.4140  1.1551 -0.2985
14768TIP3    H265796   2.840   5.354   5.243  2.5901 -1.6525  0.2092
14769TIP3   OH265797   5.861   3.278   0.061 -0.1520 -0.3716 -0.6767
14769TIP3    H165798   5.911   3.340   0.114  1.5873 -2.0370 -0.2725
14769TIP3    H265799   5.824   3.216   0.125  1.0074 -1.7259 -1.2563
14770TIP3   OH265800   3.067   3.439  11.904  0.1968 -0.0585  0.0326
14770TIP3    H165801   3.128   3.367  11.921  0.8720  0.7487  1.1681
14770TIP3    H265802   3.056   3.482  11.989 -1.0651  0.5177 -0.3896
14771TIP3   OH265803   1.917   0.686   3.855  0.1390 -0.0526  0.0623
14771TIP3    H165804   1.974   0.625   3.808 -1.6388 -1.0672 -0.8919
14771TIP3    H265805   1.840   0.694   3.799 -1.3123  0.0807  1.9898
14772TIP3   OH265806   5.268   0.965   1.167  0.0631 -0.2373 -0.1739
14772TIP3    H165807   5.189   1.012   1.138 -0.2955 -0.3575  0.5959
14772TIP3    H265808   5.318   1.030   1.215 -0.7406 -0.7750  1.4585
14773TIP3   OH265809   2.120   5.020   4.565 -0.1882 -0.6088 -0.0152
14773TIP3    H165810   2.026   5.010   4.580 -0.4674  0.6203 -0.7502
14773TIP3    H265811   2.140   5.107   4.598  1.1346 -1.5791  1.9396
14774TIP3   OH265812   4.071   1.485   0.640 -0.0080  0.0184 -0.1768
14774TIP3    H165813   3.998   1.453   0.586 -1.2230 -1.4874  2.1817
14774TIP3    H265814   4.057   1.444   0.725  3.2992  0.1866  0.5648
14775TIP3   OH265815   3.760   5.210  11.686  0.4726  0.2690 -0.7804
14775TIP3    H165816   3.774   5.185  11.778  3.8224 -0.5768 -1.3726
14775TIP3    H265817   3.711   5.292  11.691 -1.6078 -0.9799  1.6257
14776TIP3   OH265818   1.560   4.419  15.432  0.8796 -0.1758 -0.8110
14776TIP3    H165819   1.652   4.441  15.417  1.0943 -0.8086 -0.4715
14776TIP3    H265820   1.554   4.326  15.410  0.3957 -0.2181 -0.5053
14777TIP3   OH265821   2.796   4.474  11.930 -0.2109 -0.1746 -0.6579
14777TIP3    H165822   2.778   4.556  11.976  0.4970 -0.2920 -0.1620
14777TIP3    H265823   2.807   4.410  12.000 -0.3928 -0.6211 -1.0342
14778TIP3   OH265824   0.801   3.505  16.117 -0.0157 -0.4803  0.3641
14778TIP3    H165825   0.876   3.451  16.091 -0.0365 -0.0099 -0.7446
14778TIP3    H265826   0.729   3.473  16.062  0.0708  0.9101 -0.5965
14779TIP3   OH265827   2.097   4.106   1.433  0.2705 -0.2926 -0.1895
14779TIP3    H165828   2.164   4.146   1.380  0.2712 -1.9289 -1.5077
14779TIP3    H265829   2.144   4.070   1.508  0.4115  1.1223  0.4317
14780TIP3   OH265830   5.211   4.405  10.230 -0.0686 -0.7164  0.0358
14780TIP3    H165831   5.156   4.343  10.182 -0.5162  0.6617 -1.2864
14780TIP3    H265832   5.266   4.445  10.163 -0.6208  1.1711  0.6581
14781TIP3   OH265833   1.556   1.860   5.301 -0.1318  0.1646 -0.2369
14781TIP3    H165834   1.610   1.783   5.315  1.7193  1.1800 -1.3553
14781TIP3    H265835   1.508   1.841   5.221  0.0780  0.0375 -0.3337
14782TIP3   OH265836   1.126   1.772   2.183 -0.2264 -0.0345  0.1751
14782TIP3    H165837   1.121   1.787   2.089 -0.8429 -0.5359  0.1204
14782TIP3    H265838   1.053   1.821   2.220  0.2967  0.5514  0.4510
14783TIP3   OH265839   5.520   4.022  16.177  0.6596  0.4222  0.2227
14783TIP3    H165840   5.592   4.061  16.227  1.8546  0.1813 -1.2513
14783TIP3    H265841   5.483   4.095  16.126  0.2814  0.4093  0.4703
14784TIP3   OH265842   3.950   3.694  14.181  0.2792 -0.0374 -0.5247
14784TIP3    H165843   3.869   3.649  14.156 -0.9147  1.3564  0.6707
14784TIP3    H265844   3.931   3.787  14.166  1.9089  0.2622 -0.8689
14785TIP3   OH265845   1.561   6.143  14.012 -0.0221  0.0038 -0.1242
14785TIP3    H165846   1.579   6.129  14.105 -1.8048 -1.3245  0.0581
14785TIP3    H265847   1.632   6.201  13.983  1.9258 -1.4384  1.4882
14786TIP3   OH265848   6.737   6.810   1.430 -0.0467 -0.2739  0.1316
14786TIP3    H165849   6.675   6.878   1.405 -1.4465 -1.8391 -0.8916
14786TIP3    H265850   6.811   6.823   1.370 -1.5324 -1.3189 -2.0847
14787TIP3   OH265851   2.186   6.286   2.567  0.2468  0.0742 -0.1729
14787TIP3    H165852   2.172   6.214   2.506 -1.2036 -0.1741  0.3970
14787TIP3    H265853   2.259   6.257   2.622 -0.1663 -0.8676 -0.1034
14788TIP3   OH265854   0.165   0.009  12.663  0.1153  0.6663  0.2429
14788TIP3    H165855   0.180  -0.029  12.749 -0.6463 -2.1615 -0.7443
14788TIP3    H265856   0.076   0.043  12.666 -0.4279 -0.6714  0.2339
14789TIP3   OH265857   5.696   6.840  15.460 -0.3449  0.3832  0.0963
14789TIP3    H165858   5.662   6.804  15.378  1.4374  1.1615 -1.0447
14789TIP3    H265859   5.775   6.790  15.478  1.5426  2.7925 -0.9063
14790TIP3   OH265860   0.081   3.873   5.468 -0.3134  0.4089 -0.1091
14790TIP3    H165861   0.051   3.817   5.396  1.9026  0.5561 -1.2370
14790TIP3    H265862   0.033   3.955   5.456 -0.9613 -0.0302 -0.5929
14791TIP3   OH265863   4.389   0.532   4.463 -0.0759 -0.4688  0.3958
14791TIP3    H165864   4.324   0.582   4.513 -2.4391 -1.3212 -1.6179
14791TIP3    H265865   4.431   0.597   4.407 -0.7235 -0.2065  0.2020
14792TIP3   OH265866   4.214   3.689  16.452 -0.2424  0.0565  0.5015
14792TIP3    H165867   4.244   3.609  16.407  1.3847  0.8687  0.1065
14792TIP3    H265868   4.194   3.660  16.541 -0.2643 -0.9100  0.1969
14793TIP3   OH265869   6.762   0.961  16.033 -0.4789  0.1354  0.0752
14793TIP3    H165870   6.774   1.029  16.099  0.4426 -0.5264  0.6125
14793TIP3    H265871   6.849   0.923  16.021 -0.4438  0.7290 -2.0961
14794TIP3   OH265872   2.420   0.216   0.830  0.6402 -0.1650 -0.1474
14794TIP3    H165873   2.428   0.245   0.921  1.0358 -1.7878  0.3679
14794TIP3    H265874   2.426   0.296   0.778  2.9903  0.5547  1.1121
14795TIP3   OH265875   4.642   2.966   3.004 -0.1010 -0.4685 -0.1877
14795TIP3    H165876   4.732   2.996   3.018 -1.4931  3.2694  2.0942
14795TIP3    H265877   4.634   2.960   2.909  1.4385  3.6317 -0.7871
14796TIP3   OH265878   5.689   0.872   1.276  0.3425 -0.4555  0.2196
14796TIP3    H165879   5.633   0.876   1.198 -0.6886 -1.1896  0.8863
14796TIP3    H265880   5.698   0.778   1.294  2.1793 -0.3698 -0.1185
14797TIP3   OH265881   4.919   5.820  12.642  0.1692 -0.5998 -0.0509
14797TIP3    H165882   4.963   5.801  12.559 -1.1141  1.6392 -1.3775
14797TIP3    H265883   4.990   5.836  12.704  1.1823 -3.8199 -0.2090
14798TIP3   OH265884   2.988   1.181   5.101  0.0478  0.5900  0.6228
14798TIP3    H165885   2.935   1.245   5.148 -1.7770 -0.7231  0.4550
14798TIP3    H265886   3.063   1.232   5.069 -2.2365  3.1620 -1.1925
14799TIP3   OH265887   5.868   1.028   2.676  0.2857 -0.3409 -0.3300
14799TIP3    H165888   5.918   1.047   2.755 -2.8176 -0.4495  1.8193
14799TIP3    H265889   5.869   0.932   2.669 -1.6250 -0.5347  1.2403
14800TIP3   OH265890   2.928   5.358  14.078  0.4407 -0.0250 -0.0891
14800TIP3    H165891   2.909   5.451  14.070 -2.8692 -0.3871  1.7209
14800TIP3    H265892   3.015   5.354  14.117  1.0285  2.2424 -1.0417
14801TIP3   OH265893   6.307   4.845  14.808 -0.0301  0.0180 -0.3091
14801TIP3    H165894   6.234   4.876  14.755  0.5202  4.5763  1.1332
14801TIP3    H265895   6.370   4.811  14.745 -1.9179 -0.7212 -1.8952
14802TIP3   OH265896   2.447   2.364  15.877  0.6694  0.2653  0.3084
14802TIP3    H165897   2.380   2.432  15.882 -0.8066 -1.1396  0.3552
14802TIP3    H265898   2.513   2.400  15.817 -0.1510  1.6519  0.2004
14803TIP3   OH265899   6.083   4.884  16.384 -0.0038 -0.3883 -0.0579
14803TIP3    H165900   6.017   4.940  16.425  0.1692  0.5876 -1.0682
14803TIP3    H265901   6.071   4.897  16.290  2.7808  1.2306 -0.3010
14804TIP3   OH265902   3.977   2.526  15.784 -0.2692  0.0799  0.3855
14804TIP3    H165903   4.000   2.472  15.708 -1.3786 -1.4823  1.1053
14804TIP3    H265904   3.943   2.607  15.747  0.3619 -0.1447 -0.7456
14805TIP3   OH265905   1.784   0.335  12.251 -0.8512  0.3704  0.1972
14805TIP3    H165906   1.689   0.347  12.254 -1.0044 -0.8534  1.3206
14805TIP3    H265907   1.801   0.268  12.317  0.9089  1.1933  0.6274
14806TIP3   OH265908   5.622   4.684   6.451  0.5244  0.5871 -0.4377
14806TIP3    H165909   5.621   4.610   6.512  0.3982  1.3882  0.5451
14806TIP3    H265910   5.546   4.736   6.475  0.7856  1.2054 -0.9190
14807TIP3   OH265911   4.933   0.302  14.961  0.3264 -0.6535 -0.1028
14807TIP3    H165912   4.982   0.356  14.900  0.4146 -0.9029 -0.2528
14807TIP3    H265913   4.843   0.335  14.957  0.5283 -0.0016  0.3868
14808TIP3   OH265914   4.058   2.397   4.601 -0.5224 -0.1334 -0.4209
14808TIP3    H165915   3.986   2.336   4.612 -0.6223  0.2300  1.4011
14808TIP3    H265916   4.070   2.435   4.689  1.2557  0.5021 -0.8928
14809TIP3   OH265917   2.349   4.495   0.731  0.9198  0.6034  0.3177
14809TIP3    H165918   2.422   4.498   0.793  0.7479 -2.1641  0.7910
14809TIP3    H265919   2.375   4.430   0.666  0.0749  1.7210 -1.1957
14810TIP3   OH265920   1.134   2.138  16.736 -0.3834 -0.1172 -0.0014
14810TIP3    H165921   1.139   2.221  16.690  2.6772 -0.1064  0.1777
14810TIP3    H265922   1.135   2.162  16.829  1.2862 -0.3103  0.0610
14811TIP3   OH265923   5.445   5.873  11.895 -0.1011  0.1199  0.5412
14811TIP3    H165924   5.510   5.828  11.840  0.0768  0.6315  0.3231
14811TIP3    H265925   5.361   5.840  11.864 -0.1231  1.6825 -1.2807
14812TIP3   OH265926   4.418   2.870  11.610  0.2288  0.3049  0.0917
14812TIP3    H165927   4.404   2.925  11.532  3.4979  0.9153 -0.2159
14812TIP3    H265928   4.456   2.930  11.675  1.6824 -1.0554  0.5596
14813TIP3   OH265929   0.259   5.118  12.082  0.2953 -0.3294 -0.0170
14813TIP3    H165930   0.317   5.117  12.158  2.1006  0.8551 -1.2843
14813TIP3    H265931   0.198   5.190  12.100 -0.9176 -1.6537  1.3778
14814TIP3   OH265932   2.269   4.044  17.043  0.2909  0.5796 -0.2284
14814TIP3    H165933   2.220   4.099  17.104 -0.6660  0.1804 -0.6284
14814TIP3    H265934   2.217   4.044  16.963  2.3794  2.5972 -1.7490
14815TIP3   OH265935   6.132   4.346   0.919 -0.0295  1.1774  0.3376
14815TIP3    H165936   6.214   4.395   0.928  0.1770  1.0550 -0.7468
14815TIP3    H265937   6.091   4.381   0.840  1.4914 -2.2219 -2.1940
14816TIP3   OH265938   1.440   0.290   1.971  0.2738 -0.5428  0.6039
14816TIP3    H165939   1.464   0.382   1.969 -0.2294 -0.4143 -0.1394
14816TIP3    H265940   1.514   0.245   1.930 -0.6911 -0.1384 -1.7678
14817TIP3   OH265941   2.334   0.684   5.288 -0.0335  0.0616  0.3864
14817TIP3    H165942   2.246   0.648   5.288  0.2008 -0.5446  1.5571
14817TIP3    H265943   2.321   0.778   5.275 -0.7200 -0.2222 -1.2813
14818TIP3   OH265944   4.527   2.931  12.007  0.0149 -0.4085 -0.3638
14818TIP3    H165945   4.621   2.928  12.026 -0.2810 -1.4729  1.0481
14818TIP3    H265946   4.502   2.840  11.996 -1.1801 -0.2634  1.0068
14819TIP3   OH265947   3.161   5.729  12.145  0.5090 -0.4856 -0.4531
14819TIP3    H165948   3.177   5.657  12.206  2.4038  0.5953  0.4143
14819TIP3    H265949   3.203   5.700  12.063  2.3364  0.0474  0.2343
14820TIP3   OH265950   5.825   6.400  14.971 -0.3807  0.1312 -0.1711
14820TIP3    H165951   5.867   6.428  14.889 -1.8587  0.5761 -0.8216
14820TIP3    H265952   5.818   6.305  14.964 -1.8275  0.2768 -1.2898
14821TIP3   OH265953   3.786   3.128  10.812  0.3687 -0.3174 -0.3212
14821TIP3    H165954   3.738   3.054  10.776 -0.1244 -0.5137  0.6902
14821TIP3    H265955   3.780   3.196  10.745 -1.4557 -0.2908 -0.1847
14822TIP3   OH265956   4.612   5.416  13.959  0.6741  0.2840 -0.0681
14822TIP3    H165957   4.612   5.336  14.012 -0.6706 -0.1196 -0.6493
14822TIP3    H265958   4.568   5.391  13.878  0.7012  1.4934 -0.4696
14823TIP3   OH265959   4.312   5.040   4.305  0.0510  0.6231 -0.2043
14823TIP3    H165960   4.233   5.062   4.353  0.9688 -0.1286  1.7468
14823TIP3    H265961   4.341   5.123   4.267 -1.2211  1.0510 -0.2766
14824TIP3   OH265962   6.708   3.977   0.003 -0.5147 -0.0804 -0.0569
14824TIP3    H165963   6.750   3.997   0.087 -0.9406  1.8326 -0.2494
14824TIP3    H265964   6.637   3.917   0.026 -1.6147  1.6099  1.2289
14825TIP3   OH265965   3.444   0.846   0.606 -0.0854 -0.0344 -0.4105
14825TIP3    H165966   3.411   0.872   0.520 -0.5901  1.0039  0.0797
14825TIP3    H265967   3.435   0.750   0.608  2.3373 -0.4154 -2.4818
14826TIP3   OH265968   0.024   1.608   3.877  0.3907 -0.5325 -0.0200
14826TIP3    H165969   0.113   1.641   3.889 -0.4668  1.9400  0.1522
14826TIP3    H265970   0.019   1.584   3.785  1.2131 -0.7008 -0.0302
14827TIP3   OH265971   3.964   1.439  14.300  0.0594  0.3671  0.3432
14827TIP3    H165972   3.955   1.463  14.393  2.5609 -1.4671  1.1517
14827TIP3    H265973   3.987   1.521  14.257  1.1744  0.8404  1.7592
14828TIP3   OH265974   3.248   2.175   5.101  0.5698  0.2844  0.3934
14828TIP3    H165975   3.213   2.244   5.157  2.9409  0.5627  1.6383
14828TIP3    H265976   3.245   2.096   5.154  0.1014 -0.0910 -0.1725
14829TIP3   OH265977   6.295   6.003  15.241  0.0494 -0.4814  0.1870
14829TIP3    H165978   6.237   6.076  15.263 -2.2429 -1.3565 -2.2914
14829TIP3    H265979   6.273   5.935  15.305 -1.3866 -0.6261 -0.4258
14830TIP3   OH265980   5.352   6.710  16.530 -0.3386 -0.0990  0.4906
14830TIP3    H165981   5.273   6.752  16.564 -0.4797 -0.6938  0.9167
14830TIP3    H265982   5.393   6.670  16.607 -0.2680 -0.8315  0.0894
14831TIP3   OH265983   0.993   2.353  13.371  0.4132 -0.2588  0.2579
14831TIP3    H165984   1.023   2.262  13.367 -1.3359 -0.9830  1.8215
14831TIP3    H265985   0.917   2.350  13.429 -0.7188  1.9519 -0.9810
14832TIP3   OH265986   1.943   0.127   3.753 -0.3431  0.0941  0.0456
14832TIP3    H165987   1.976   0.131   3.842  2.0072 -1.5962 -0.6546
14832TIP3    H265988   2.016   0.155   3.698 -1.9235  1.6928 -1.3624
14833TIP3   OH265989   6.803   1.744  13.496  0.2382  0.2554 -0.3117
14833TIP3    H165990   6.758   1.660  13.505 -2.1903  1.6353  1.4445
14833TIP3    H265991   6.864   1.746  13.570  1.6057 -0.6224 -1.3579
14834TIP3   OH265992   1.427   0.262  16.783  0.0980  0.2381 -0.8004
14834TIP3    H165993   1.378   0.337  16.750  1.4826  1.0322 -1.1472
14834TIP3    H265994   1.451   0.286  16.873 -0.7736 -0.4715 -0.3646
14835TIP3   OH265995   4.512   5.759  16.499  0.2424  0.5298  0.0196
14835TIP3    H165996   4.490   5.727  16.411 -1.1825 -2.3687  1.2789
14835TIP3    H265997   4.430   5.794  16.532  0.1168 -0.6162  0.9979
14836TIP3   OH265998   1.923   1.633  16.052 -0.1400  0.4388 -0.4516
14836TIP3    H165999   1.942   1.547  16.091  1.1048  1.1538  0.6099
14836TIP3    H266000   1.830   1.647  16.069  0.0362  0.0487  0.9685
14837TIP3   OH266001   2.510   4.960  15.083 -0.1946 -0.0963  0.1883
14837TIP3    H166002   2.443   5.026  15.066  0.6098  0.3807 -1.3013
14837TIP3    H266003   2.504   4.900  15.008  2.2196  0.9913 -0.9748
14838TIP3   OH266004   0.848   4.106   5.542  0.0693 -0.0092 -0.0481
14838TIP3    H166005   0.897   4.027   5.568 -1.3366 -0.9698 -0.2316
14838TIP3    H266006   0.868   4.170   5.611  2.4008  0.0049 -0.6619
14839TIP3   OH266007   0.908   0.522   4.835 -0.0158  0.1565 -0.3837
14839TIP3    H166008   0.974   0.453   4.837 -0.1557 -0.0950 -2.1243
14839TIP3    H266009   0.940   0.584   4.769  0.1241  1.8029  1.1662
14840TIP3   OH266010   5.217   2.670   2.942 -1.0520  0.0102  0.0787
14840TIP3    H166011   5.308   2.691   2.921 -0.7123 -1.5734 -0.1413
14840TIP3    H266012   5.221   2.624   3.026 -1.7142  0.4562  0.3600
14841TIP3   OH266013   4.904   2.264  16.431  0.1239  0.1880  0.6700
14841TIP3    H166014   4.925   2.172  16.416  1.9665  0.3890  1.6892
14841TIP3    H266015   4.821   2.278  16.384  0.9621 -1.3882 -1.4700
14842TIP3   OH266016   6.433   1.110   4.548  0.0856  0.1510  0.0103
14842TIP3    H166017   6.503   1.108   4.483 -0.0294 -1.7569 -0.0973
14842TIP3    H266018   6.390   1.195   4.534  0.9308  0.3772 -1.4546
14843TIP3   OH266019   6.279   0.805  17.088 -0.7125  0.7272 -0.1009
14843TIP3    H166020   6.340   0.876  17.065  0.5850 -0.3213 -0.0037
14843TIP3    H266021   6.304   0.781  17.177  2.1735 -3.0366 -1.6796
14844TIP3   OH266022   5.265   1.694  12.969 -0.0597  0.2263 -0.3825
14844TIP3    H166023   5.324   1.712  12.896 -1.1347  0.6352 -1.1847
14844TIP3    H266024   5.265   1.599  12.978  1.7060  0.2758  0.4948
14845TIP3   OH266025   3.738   5.492  16.907 -0.7816  0.0607  0.1627
14845TIP3    H166026   3.682   5.523  16.978  0.1851  0.1913  0.8827
14845TIP3    H266027   3.786   5.418  16.944  1.0717  1.2490  0.2598
14846TIP3   OH266028   6.806   1.973  13.906  0.1578  0.0732  0.0305
14846TIP3    H166029   6.813   2.049  13.964  0.2055 -1.4462  2.1498
14846TIP3    H266030   6.728   1.990  13.853 -1.0912  0.6800  1.9488
14847TIP3   OH266031   4.648   6.506  12.568  0.4161 -0.1671  0.2757
14847TIP3    H166032   4.679   6.578  12.512 -0.2773 -0.3253 -0.3248
14847TIP3    H266033   4.720   6.443  12.569  1.3370  0.8315  1.3939
14848TIP3   OH266034   2.445   2.810  15.302 -0.3103  0.3299 -0.0799
14848TIP3    H166035   2.406   2.730  15.265  1.0797 -0.3084 -0.2513
14848TIP3    H266036   2.513   2.778  15.361 -0.7134  1.3914  0.9754
14849TIP3   OH266037   4.903   6.130  14.633  0.4083 -0.3305  0.0431
14849TIP3    H166038   4.900   6.134  14.538 -3.2380 -0.1605  0.0220
14849TIP3    H266039   4.881   6.039  14.654 -0.8917  0.0862  0.6443
14850TIP3   OH266040   5.290   0.713  14.917 -0.7984 -0.1634  0.1482
14850TIP3    H166041   5.227   0.712  14.989  0.5569 -1.1309  1.3727
14850TIP3    H266042   5.242   0.674  14.843 -1.8437 -0.2560  0.8447
14851TIP3   OH266043   3.280   5.897  12.465  0.1650 -0.7727 -0.5787
14851TIP3    H166044   3.345   5.844  12.420 -0.4910 -2.3708  0.2561
14851TIP3    H266045   3.331   5.958  12.518  0.9625 -1.1739 -0.8714
14852TIP3   OH266046   4.630   3.811  11.902  0.4913 -0.1394 -0.2042
14852TIP3    H166047   4.555   3.869  11.912  0.1424 -0.5654 -0.2867
14852TIP3    H266048   4.634   3.790  11.809 -0.0843 -1.1399 -0.0212
14853TIP3   OH266049   6.407   5.517  13.463  0.2916  0.0104  0.9201
14853TIP3    H166050   6.381   5.433  13.424  1.1679 -1.3243  2.9832
14853TIP3    H266051   6.362   5.583  13.411  1.0800 -1.5976 -2.0214
14854TIP3   OH266052   5.946   1.083  13.779  0.0183  0.4458 -0.0124
14854TIP3    H166053   6.005   1.106  13.708 -0.7166  0.7182 -0.5497
14854TIP3    H266054   5.998   1.028  13.838  0.6304  0.2154 -0.7590
14855TIP3   OH266055   6.550   3.485   4.282  0.2349 -0.1906  0.0391
14855TIP3    H166056   6.523   3.576   4.275  2.8726  0.7086  0.6091
14855TIP3    H266057   6.488   3.438   4.227 -2.8509  1.5085  1.8146
14856TIP3   OH266058   0.298   0.262  12.665 -0.4543  0.1804  0.1192
14856TIP3    H166059   0.223   0.311  12.633 -1.6577 -2.6519 -1.8070
14856TIP3    H266060   0.261   0.179  12.696  1.6304 -0.2719  1.6186
14857TIP3   OH266061   0.828   0.210   2.935 -0.0579  0.0090  0.2145
14857TIP3    H166062   0.781   0.206   3.018 -0.6845  2.5211  0.0634
14857TIP3    H266063   0.829   0.119   2.904 -1.7811 -0.6561  1.8811
14858TIP3   OH266064   0.344   0.416   5.491 -0.4724  0.0400  0.3098
14858TIP3    H166065   0.395   0.356   5.545 -1.8835 -2.8808 -1.3410
14858TIP3    H266066   0.404   0.443   5.421 -0.4609 -1.5383 -0.3333
14859TIP3   OH266067   2.097   1.853   1.539 -0.2607  0.2187  0.0705
14859TIP3    H166068   2.124   1.802   1.615  0.6679  1.6833  0.7669
14859TIP3    H266069   2.042   1.923   1.575 -1.6928 -0.3674 -0.8844
14860TIP3   OH266070   5.160   5.291  12.231 -0.5952  0.0280 -0.1218
14860TIP3    H166071   5.077   5.338  12.236 -0.9206 -0.5971  0.4817
14860TIP3    H266072   5.207   5.318  12.310 -0.0443  0.6929 -0.6612
14861TIP3   OH266073   0.653   0.176  15.255  0.1588  0.3331  0.0804
14861TIP3    H166074   0.693   0.092  15.233  0.0779  0.5409 -0.9017
14861TIP3    H266075   0.713   0.214  15.320  0.1483 -0.5078  0.5984
14862TIP3   OH266076   3.868   1.275   1.246  0.2149  0.3611 -0.1168
14862TIP3    H166077   3.828   1.312   1.325 -1.0015  0.9490 -0.9567
14862TIP3    H266078   3.809   1.203   1.221 -0.5999  1.4589 -1.5703
14863TIP3   OH266079   2.530   2.317  11.698 -0.1226  0.1326  0.0336
14863TIP3    H166080   2.577   2.359  11.626  0.4568 -0.6321 -0.0565
14863TIP3    H266081   2.600   2.283  11.754 -0.5745 -0.7736  0.0535
14864TIP3   OH266082   4.801   0.334   4.899 -0.2237  0.0585 -0.6568
14864TIP3    H166083   4.791   0.339   4.804 -0.1742 -0.7692 -0.7106
14864TIP3    H266084   4.830   0.422   4.925  0.2609  0.1438 -1.4662
14865TIP3   OH266085   5.326   5.095  13.397 -0.1328  0.4321 -0.6136
14865TIP3    H166086   5.297   5.095  13.306  1.1072  0.5082 -1.0267
14865TIP3    H266087   5.302   5.181  13.430 -1.6978 -0.0161 -0.4662
14866TIP3   OH266088   5.087   3.004  15.429 -0.1341  0.1076  0.2642
14866TIP3    H166089   5.099   2.909  15.433 -1.0459 -0.0120  0.4509
14866TIP3    H266090   5.143   3.033  15.357  1.1414 -0.3950  1.0294
14867TIP3   OH266091   4.785   4.587  12.707 -0.1288 -0.2547  0.6068
14867TIP3    H166092   4.704   4.599  12.657 -0.0413  0.1086  0.5427
14867TIP3    H266093   4.853   4.623  12.650 -0.0675  0.4657  1.1116
14868TIP3   OH266094   5.214   2.437  13.555 -0.3727 -0.1042  0.4456
14868TIP3    H166095   5.166   2.515  13.582 -0.6137 -0.2323  0.3868
14868TIP3    H266096   5.151   2.366  13.563 -0.7298 -0.0253 -1.2994
14869TIP3   OH266097   1.961   3.498   0.412  0.1735  0.1285  0.2464
14869TIP3    H166098   1.891   3.515   0.476 -0.4128 -1.8593  0.1749
14869TIP3    H266099   2.039   3.484   0.466 -0.2089 -1.0070  0.5346
14870TIP3   OH266100   4.800   6.383  12.129 -0.1747 -0.4945 -0.3196
14870TIP3    H166101   4.892   6.374  12.156 -0.3633  0.6491  0.8216
14870TIP3    H266102   4.804   6.434  12.048  0.2793 -2.0347 -1.3063
14871TIP3   OH266103   1.566   0.670  13.145  0.6819 -0.2097 -0.3044
14871TIP3    H166104   1.536   0.668  13.236  0.6513 -0.6802 -0.3252
14871TIP3    H266105   1.647   0.620  13.145  0.0590 -1.2435 -0.7609
14872TIP3   OH266106   2.167   4.644  11.977  0.5227  0.2397 -0.1559
14872TIP3    H166107   2.245   4.693  11.952  1.1288 -0.6591 -0.0795
14872TIP3    H266108   2.138   4.601  11.896  0.1373  0.5286 -0.1731
14873TIP3   OH266109   5.922   6.437  15.727  0.0840  0.4117  0.2022
14873TIP3    H166110   6.006   6.393  15.740  0.0761  0.1662 -0.5010
14873TIP3    H266111   5.892   6.459  15.815  1.2056  1.1141  0.4296
14874TIP3   OH266112   0.695   0.006   2.390  0.5787 -0.4644  0.3582
14874TIP3    H166113   0.723   0.078   2.446  0.7901  1.4487 -2.0745
14874TIP3    H266114   0.604   0.026   2.368  0.3938 -1.3694  0.2399
14875TIP3   OH266115   6.077   2.513  12.440  0.1498 -0.4524 -0.1629
14875TIP3    H166116   5.982   2.511  12.428  0.2368 -1.1007 -0.8524
14875TIP3    H266117   6.102   2.600  12.411 -0.0646 -0.8290 -1.6013
14876TIP3   OH266118   4.915   3.445  15.409 -0.2209  0.4317 -0.5736
14876TIP3    H166119   4.878   3.412  15.491 -3.0374 -0.6073 -2.1341
14876TIP3    H266120   4.874   3.392  15.341 -0.4035  3.2531 -2.8543
14877TIP3   OH266121   0.262   1.550   5.535 -0.0125 -0.5068  0.5443
14877TIP3    H166122   0.181   1.519   5.494 -0.7560 -0.0844  1.6400
14877TIP3    H266123   0.300   1.472   5.575 -0.0183 -0.6495  0.2792
14878TIP3   OH266124   6.381   3.482  16.637 -0.3768  0.1428  0.0738
14878TIP3    H166125   6.354   3.472  16.545  1.3946 -1.1827 -0.3582
14878TIP3    H266126   6.331   3.416  16.684 -0.2737 -0.1167 -0.1790
14879TIP3   OH266127   4.335   1.596  12.879 -0.0862  0.0829 -0.1620
14879TIP3    H166128   4.316   1.506  12.904  2.0185 -0.0571  1.2211
14879TIP3    H266129   4.388   1.630  12.951  1.1901  1.6318 -1.7324
14880TIP3   OH266130   1.684   5.860  11.597  0.3894  0.0994  0.1795
14880TIP3    H166131   1.734   5.899  11.668 -0.1769  0.6270  0.2997
14880TIP3    H266132   1.737   5.786  11.568 -0.3306 -1.4904  2.5922
14881TIP3   OH266133   3.099   5.399   1.359 -0.1497 -0.2035 -0.1685
14881TIP3    H166134   3.099   5.314   1.403  1.7520 -2.2489 -3.6636
14881TIP3    H266135   3.183   5.438   1.381 -0.0777 -0.2748 -0.3136
14882TIP3   OH266136   5.664   4.324   1.470  0.4254  0.2727 -0.3323
14882TIP3    H166137   5.647   4.247   1.416 -0.0760 -0.7418  1.2127
14882TIP3    H266138   5.605   4.314   1.545  1.4301  1.3890  0.6434
14883TIP3   OH266139   4.224   3.032  14.483  0.2319 -0.1907 -0.2417
14883TIP3    H166140   4.178   2.982  14.415 -0.4652  0.1146  0.0005
14883TIP3    H266141   4.295   3.076  14.436 -0.7592  0.7001 -0.9296
14884TIP3   OH266142   2.577   6.077   3.669  0.0336 -0.1733  0.3065
14884TIP3    H166143   2.648   6.089   3.606 -0.5066  0.0119 -0.2735
14884TIP3    H266144   2.548   5.987   3.655 -0.1548 -0.0990  0.2126
14885TIP3   OH266145   1.760   1.618  16.888  0.4451 -0.0732  0.1849
14885TIP3    H166146   1.668   1.593  16.895  1.1526 -3.0348  0.0002
14885TIP3    H266147   1.794   1.564  16.817  2.5711  0.2278  0.9196
14886TIP3   OH266148   0.548   4.773   1.820 -0.5410 -0.4611  0.2411
14886TIP3    H166149   0.521   4.682   1.829 -0.1379 -0.5184  0.9738
14886TIP3    H266150   0.624   4.781   1.878 -1.2483  0.6241  1.0637
14887TIP3   OH266151   2.738   1.754   2.378  0.2792 -0.9055  0.2639
14887TIP3    H166152   2.813   1.793   2.423  0.9314  0.1219 -1.6207
14887TIP3    H266153   2.675   1.826   2.369 -0.6883 -1.5960  1.2422
14888TIP3   OH266154   6.753   2.678   0.022  0.1718 -0.2822 -0.0904
14888TIP3    H166155   6.817   2.744   0.050 -1.4510  0.6796  1.5637
14888TIP3    H266156   6.693   2.726  -0.035 -1.6793  0.0587  2.0206
14889TIP3   OH266157   0.089   5.700  16.058 -0.3271 -0.3487  0.1961
14889TIP3    H166158   0.092   5.635  15.987 -0.8723 -0.2505  0.0812
14889TIP3    H266159   0.017   5.758  16.034 -0.5897 -0.3869  0.8942
14890TIP3   OH266160   1.641   6.549  13.889  0.0195  0.4740  0.1826
14890TIP3    H166161   1.674   6.530  13.976 -0.8824  1.2076  0.7122
14890TIP3    H266162   1.645   6.645  13.882 -0.2108  0.4449 -0.4566
14891TIP3   OH266163   4.085   3.589  17.046 -0.6131  0.4788  0.2358
14891TIP3    H166164   4.064   3.544  17.128 -1.0204  1.6963  0.8161
14891TIP3    H266165   4.039   3.539  16.979 -0.2100 -0.5776  0.7171
14892TIP3   OH266166   0.694   4.696   4.845 -0.0600  0.8421 -0.3421
14892TIP3    H166167   0.657   4.684   4.758  0.8079 -0.1865 -0.5857
14892TIP3    H266168   0.711   4.608   4.877 -2.2445  1.0820  1.7367
14893TIP3   OH266169   5.833   6.580  11.352 -0.4036  0.2407  0.1832
14893TIP3    H166170   5.923   6.576  11.385 -0.3370  0.3938  0.0215
14893TIP3    H266171   5.779   6.558  11.428 -0.2695  0.9008  0.4835
14894TIP3   OH266172   2.067   0.653  13.026  0.4205  0.0409  0.1089
14894TIP3    H166173   2.030   0.741  13.016  1.9858  0.9658  1.8645
14894TIP3    H266174   1.993   0.598  13.050 -0.0120  1.7288  3.0826
14895TIP3   OH266175   6.735   6.243   0.638 -0.1008  0.2471  0.0026
14895TIP3    H166176   6.666   6.301   0.605 -0.2550  0.2377  0.3073
14895TIP3    H266177   6.746   6.268   0.729 -0.0223 -0.0653  0.0799
14896TIP3   OH266178   3.020   6.252  13.811  1.0475  0.2462 -0.1186
14896TIP3    H166179   2.957   6.183  13.792  0.6630  0.5436  0.0530
14896TIP3    H266180   2.995   6.285  13.897  0.0690  1.8120 -0.9314
14897TIP3   OH266181   3.000   6.119   0.792 -0.0173  0.2866  0.3084
14897TIP3    H166182   2.980   6.026   0.799 -0.2194  0.4279  2.3479
14897TIP3    H266183   2.919   6.163   0.817 -0.6289  1.1294 -2.7227
14898TIP3   OH266184   1.376   6.248  15.327 -0.6352  0.1436 -0.0688
14898TIP3    H166185   1.284   6.266  15.307 -0.8006  0.5605  0.9813
14898TIP3    H266186   1.418   6.334  15.328 -0.0102 -0.1218 -1.4851
14899TIP3   OH266187   4.056   5.678   2.756 -0.1885  0.1230 -0.1114
14899TIP3    H166188   4.105   5.696   2.836 -1.4741  0.8455  0.5510
14899TIP3    H266189   4.066   5.583   2.742  0.4870  0.0825  0.6068
14900TIP3   OH266190   4.438   3.237   5.131  0.5242 -0.2243 -0.0869
14900TIP3    H166191   4.407   3.317   5.088  2.5997  1.2261  0.9577
14900TIP3    H266192   4.370   3.215   5.194 -0.0975  0.6835 -0.4329
14901TIP3   OH266193   1.453   0.385   0.874 -0.0265 -0.1625 -0.2463
14901TIP3    H166194   1.361   0.400   0.852  0.1261 -0.1690 -0.9134
14901TIP3    H266195   1.451   0.315   0.939 -0.5745  0.8067  0.8056
14902TIP3   OH266196   0.275   3.576   2.960 -0.2382 -0.1338  0.3086
14902TIP3    H166197   0.319   3.491   2.967  0.8858  0.4452  0.3074
14902TIP3    H266198   0.190   3.555   2.921 -0.1355 -1.3092  0.6814
14903TIP3   OH266199   6.096   4.705  14.302  0.6975 -0.0929 -0.1552
14903TIP3    H166200   6.006   4.721  14.274  0.4997  0.1182  0.5854
14903TIP3    H266201   6.149   4.741  14.231  0.2038 -0.5685 -0.7823
14904TIP3   OH266202   2.240   3.035   6.701  0.5397  0.0464 -0.0635
14904TIP3    H166203   2.268   3.061   6.613  0.8823 -2.0324 -0.6180
14904TIP3    H266204   2.170   3.096   6.722  1.6584  1.7595 -0.9940
14905TIP3   OH266205   5.088   2.027  14.432 -0.1196 -0.3455 -0.1418
14905TIP3    H166206   5.085   2.014  14.338  1.1914  2.2803 -0.6384
14905TIP3    H266207   5.176   2.059  14.450  0.0536 -1.8347  2.1844
14906TIP3   OH266208   2.228   1.700  11.122  0.1062  0.1031  0.1572
14906TIP3    H166209   2.157   1.650  11.162 -0.7479  0.9529 -0.2380
14906TIP3    H266210   2.235   1.664  11.033  0.7052 -0.5049  0.4488
14907TIP3   OH266211   2.761   2.210  15.087  0.1525 -0.0853 -0.3854
14907TIP3    H166212   2.753   2.128  15.040  2.4080 -0.3942 -0.3248
14907TIP3    H266213   2.727   2.276  15.026 -1.3826 -0.9767 -0.5524
14908TIP3   OH266214   3.575   5.390   0.427  0.5942 -0.5166  0.0557
14908TIP3    H166215   3.520   5.468   0.431  1.0639 -0.1082 -1.1097
14908TIP3    H266216   3.559   5.345   0.510 -1.4193 -0.3558 -0.1947
14909TIP3   OH266217   4.115   4.257   2.460 -0.2530 -1.4393 -0.0683
14909TIP3    H166218   4.178   4.267   2.532  0.6621  0.0538 -1.0365
14909TIP3    H266219   4.033   4.290   2.496  0.5232  0.6701 -0.1148
14910TIP3   OH266220   3.040   0.934  12.181 -0.7394  0.0300  0.3605
14910TIP3    H166221   3.019   0.889  12.099  2.1769  0.8182 -0.9522
14910TIP3    H266222   3.081   0.866  12.236 -0.7708 -0.0226  0.3194
14911TIP3   OH266223   4.666   0.150  15.378 -0.9660  0.0031 -0.6469
14911TIP3    H166224   4.675   0.238  15.414 -2.2162  0.0302 -0.3478
14911TIP3    H266225   4.730   0.097  15.425 -1.2919  0.4335  0.3081
14912TIP3   OH266226   0.782   5.792  14.550  0.0450  0.2505 -0.0411
14912TIP3    H166227   0.831   5.794  14.632  0.9530  4.7016 -0.4018
14912TIP3    H266228   0.693   5.768  14.575  1.0210 -1.9873  1.5836
14913TIP3   OH266229   4.503   3.046  16.229  0.0403 -0.7201 -0.5254
14913TIP3    H166230   4.509   3.139  16.250  0.4116 -0.3528 -2.1317
14913TIP3    H266231   4.594   3.017  16.225 -0.0698 -1.7476  2.2005
14914TIP3   OH266232   6.643   6.770   5.567  1.0174  0.3707  0.1300
14914TIP3    H166233   6.711   6.702   5.566 -0.1251 -1.0173  3.2990
14914TIP3    H266234   6.678   6.839   5.623  0.7461  0.7345 -0.1417
14915TIP3   OH266235   4.634   3.423  12.785  0.2368  0.2495  0.1334
14915TIP3    H166236   4.646   3.517  12.799 -0.2932  0.2601  0.5047
14915TIP3    H266237   4.621   3.415  12.691  2.1091  0.3478 -0.1817
14916TIP3   OH266238   6.492   1.465   4.368  0.6811 -0.2170  0.3418
14916TIP3    H166239   6.403   1.436   4.386  0.4045 -0.4492 -1.2561
14916TIP3    H266240   6.487   1.510   4.283  2.1086 -0.3947  0.1259
14917TIP3   OH266241   5.925   6.562  10.939 -0.7469  0.3079 -0.0748
14917TIP3    H166242   5.918   6.501  10.866 -0.4459  0.0088  0.1436
14917TIP3    H266243   5.981   6.633  10.907 -2.1436  1.1472 -0.7786
14918TIP3   OH266244   1.232   3.355   5.320 -0.0324  0.2161  0.0977
14918TIP3    H166245   1.276   3.361   5.235 -1.7887  1.4672 -0.7811
14918TIP3    H266246   1.250   3.439   5.362 -0.6112  0.2891  0.2062
14919TIP3   OH266247   6.764   1.120  12.616 -0.0707  0.0102 -0.5197
14919TIP3    H166248   6.730   1.049  12.670 -0.8709  0.0872 -0.9109
14919TIP3    H266249   6.815   1.174  12.677  0.6503 -0.9527 -0.2440
14920TIP3   OH266250   4.326   6.479  14.401 -0.6363 -0.2062  0.0890
14920TIP3    H166251   4.325   6.562  14.354  0.3268 -0.6236 -0.7014
14920TIP3    H266252   4.410   6.479  14.448  0.1369 -1.3789 -1.1836
14921TIP3   OH266253   3.378   3.149   0.570 -0.6608 -0.4016  0.2688
14921TIP3    H166254   3.472   3.133   0.560 -0.7277 -0.7557  0.2091
14921TIP3    H266255   3.360   3.133   0.663 -0.8028 -1.0592  0.1277
14922TIP3   OH266256   6.655   1.529  14.250 -0.3080  0.3327 -0.9203
14922TIP3    H166257   6.619   1.456  14.200 -3.9809  1.7425 -0.5978
14922TIP3    H266258   6.600   1.533  14.329  2.7530  0.6510  1.3911
14923TIP3   OH266259   4.924   2.484  14.253 -0.5525 -0.3150  0.1340
14923TIP3    H166260   4.964   2.509  14.336  0.3199 -0.2629 -0.2890
14923TIP3    H266261   4.839   2.529  14.253 -0.3437  0.0984  0.7697
14924TIP3   OH266262   1.914   3.465  14.208 -0.1130  0.1356 -0.2484
14924TIP3    H166263   1.989   3.523  14.221 -0.6958  1.1030 -1.0403
14924TIP3    H266264   1.851   3.491  14.276 -0.2332  0.1973 -0.3816
14925TIP3   OH266265   3.364   1.678  14.492  0.4689  0.0078 -0.6278
14925TIP3    H166266   3.367   1.754  14.433 -0.9583 -0.3028 -1.1308
14925TIP3    H266267   3.439   1.624  14.464  0.1412  0.1341 -1.8043
14926TIP3   OH266268   1.448   3.568   3.818  0.3739  0.0263  0.5751
14926TIP3    H166269   1.410   3.482   3.838 -0.2836  0.0642 -0.4188
14926TIP3    H266270   1.520   3.578   3.880  0.4168 -1.2136  0.7408
14927TIP3   OH266271   1.963   1.823  10.410 -0.3931 -0.1653  0.1257
14927TIP3    H166272   1.881   1.821  10.459  0.0909  1.8206  1.1274
14927TIP3    H266273   2.017   1.888  10.457  1.6674 -1.2584 -0.6201
14928TIP3   OH266274   3.325   0.540  16.254 -0.1646 -0.0094 -0.5768
14928TIP3    H166275   3.328   0.593  16.175 -1.1723 -0.2343 -0.7779
14928TIP3    H266276   3.247   0.485  16.243  0.2043 -0.7019  0.1514
14929TIP3   OH266277   6.009   0.701  16.342  0.5093  0.4573  0.2358
14929TIP3    H166278   6.050   0.728  16.260  0.1109  0.6532  0.0976
14929TIP3    H266279   5.957   0.624  16.320 -0.7626  1.3639 -0.0132
14930TIP3   OH266280   2.866   5.408   3.486  0.7889  0.2941  0.7826
14930TIP3    H166281   2.956   5.378   3.470 -0.2786 -3.1257  0.4052
14930TIP3    H266282   2.840   5.449   3.403  1.5382  0.0319  0.4059
14931TIP3   OH266283   2.487   3.947  14.685 -0.7206 -0.4550 -0.1640
14931TIP3    H166284   2.396   3.916  14.681 -1.3983  1.3870  0.0503
14931TIP3    H266285   2.482   4.039  14.661  1.0699 -0.2460  0.1331
14932TIP3   OH266286   6.549   3.249  16.298 -0.4113 -0.2063 -0.3003
14932TIP3    H166287   6.461   3.211  16.306 -0.8190  0.7376 -0.2082
14932TIP3    H266288   6.590   3.198  16.229 -0.6914 -1.2818  0.2920
14933TIP3   OH266289   1.338   3.937   2.188  0.4128 -0.2734  0.1091
14933TIP3    H166290   1.315   3.995   2.261 -0.7146  2.7159 -2.3986
14933TIP3    H266291   1.255   3.899   2.160  0.9941 -2.3220  0.9967
14934TIP3   OH266292   1.453   2.897  12.573  0.1797  0.1317 -0.3654
14934TIP3    H166293   1.369   2.933  12.544  0.9916  1.7384 -0.8762
14934TIP3    H266294   1.435   2.805  12.593 -2.2261  0.9817  1.8688
14935TIP3   OH266295   2.859   1.597  11.249 -0.8834 -0.1382  0.0421
14935TIP3    H166296   2.842   1.602  11.343  0.8232  0.3238  0.3559
14935TIP3    H266297   2.911   1.517  11.238  0.1984  0.5730 -0.2639
14936TIP3   OH266298   0.361   0.324  12.131  0.2954  0.1241 -0.0646
14936TIP3    H166299   0.435   0.309  12.191  1.8587 -0.7181 -2.0691
14936TIP3    H266300   0.286   0.340  12.188  1.6816 -0.6871  2.1001
14937TIP3   OH266301   5.520   4.402   2.261 -0.1516 -0.5980 -0.3568
14937TIP3    H166302   5.527   4.451   2.343  1.1422 -0.1113 -0.7328
14937TIP3    H266303   5.513   4.310   2.288  1.0463 -0.5182  0.3012
14938TIP3   OH266304   6.572   3.409   2.517  0.4117 -0.6383 -0.1371
14938TIP3    H166305   6.639   3.419   2.449  0.8703 -0.5913  0.3245
14938TIP3    H266306   6.496   3.375   2.469  0.7434 -0.6505 -0.6709
14939TIP3   OH266307   3.042   6.380   2.243  0.4539  0.3630  0.2281
14939TIP3    H166308   3.035   6.287   2.219  0.3174  0.4379 -0.0310
14939TIP3    H266309   3.021   6.382   2.336  0.7572  0.0946  0.3029
14940TIP3   OH266310   1.234   2.674   4.592 -0.3251 -0.3339  0.2661
14940TIP3    H166311   1.153   2.635   4.558  0.2232 -0.3736 -1.0326
14940TIP3    H266312   1.205   2.758   4.628 -0.8626 -0.0159 -0.8430
14941TIP3   OH266313   6.749   6.364  14.905 -0.5362  0.1504 -0.0847
14941TIP3    H166314   6.765   6.456  14.924  1.3622 -0.0017 -0.7587
14941TIP3    H266315   6.830   6.319  14.930 -1.4689 -1.3747  0.3692
14942TIP3   OH266316   4.320   4.713  14.292 -0.2156 -0.3161  0.7128
14942TIP3    H166317   4.225   4.717  14.281 -0.3563 -2.2497  0.9192
14942TIP3    H266318   4.335   4.736  14.383 -0.5986 -1.1171  0.9832
14943TIP3   OH266319   5.446   6.597   2.378 -0.1289  0.3387 -0.2315
14943TIP3    H166320   5.369   6.602   2.435 -0.6440  1.1088 -0.9547
14943TIP3    H266321   5.519   6.625   2.433  0.1033 -2.6842  1.1782
14944TIP3   OH266322   2.438   3.469   0.442 -0.3088  0.0571  0.0251
14944TIP3    H166323   2.404   3.534   0.504 -1.9468 -0.2830 -0.4616
14944TIP3    H266324   2.379   3.394   0.451  0.0558 -0.3995 -1.2115
14945TIP3   OH266325   6.350   5.093  11.612 -0.2541 -0.5072 -0.6031
14945TIP3    H166326   6.404   5.024  11.576  0.4422 -0.7114  0.7658
14945TIP3    H266327   6.411   5.163  11.634 -0.4989 -0.7311  0.9405
14946TIP3   OH266328   4.380   1.039  16.732  0.3786  0.1021 -1.0470
14946TIP3    H166329   4.370   1.062  16.824 -1.0523  0.4689 -1.2720
14946TIP3    H266330   4.474   1.030  16.720  0.5010 -2.1140  0.9496
14947TIP3   OH266331   6.113   1.187  11.823 -0.3227 -0.0255  0.1441
14947TIP3    H166332   6.141   1.228  11.741 -1.6296  0.9570  0.1458
14947TIP3    H266333   6.194   1.157  11.864  0.8033  2.8034  0.2399
14948TIP3   OH266334   3.035   2.292  15.310 -0.0797  1.0092  0.1277
14948TIP3    H166335   3.006   2.271  15.399 -0.5816  0.4098 -0.1668
14948TIP3    H266336   3.044   2.207  15.267  2.5365  1.1281  0.3038
14949TIP3   OH266337   2.901   0.235  13.692 -0.6601 -0.2462  0.0356
14949TIP3    H166338   2.916   0.159  13.635  0.6259  0.0005  0.0277
14949TIP3    H266339   2.879   0.306  13.631 -1.0727 -0.4189 -0.0177
14950TIP3   OH266340   3.697   1.625   1.630  0.3704 -0.1810  0.1582
14950TIP3    H166341   3.701   1.644   1.724  0.0736 -0.3365  0.2026
14950TIP3    H266342   3.774   1.669   1.594  0.0642  0.5259  0.3620
14951TIP3   OH266343   0.019   3.980  13.615 -0.3690  0.2443 -0.0350
14951TIP3    H166344  -0.064   4.021  13.641  0.2517  0.7483  1.2057
14951TIP3    H266345   0.079   4.053  13.601  0.5230 -0.1884  1.4083
14952TIP3   OH266346   3.850   2.258   1.124  0.6860 -0.1970  0.6497
14952TIP3    H166347   3.769   2.306   1.134  0.8377 -0.0997  1.4787
14952TIP3    H266348   3.832   2.193   1.056  0.3758  0.7854 -0.2365
14953TIP3   OH266349   3.797   1.654  15.722 -0.1411  0.1184 -0.0989
14953TIP3    H166350   3.887   1.622  15.710  0.3062  1.7747 -1.5276
14953TIP3    H266351   3.792   1.675  15.816  0.5598 -1.0510  0.2286
14954TIP3   OH266352   6.116   5.319   1.689 -0.2807  0.6572 -0.6503
14954TIP3    H166353   6.028   5.298   1.719  0.2329 -1.6429 -0.4940
14954TIP3    H266354   6.155   5.368   1.762 -0.9909  0.4740 -0.1348
14955TIP3   OH266355   2.866   5.764  16.956  0.6805 -0.4146 -0.0826
14955TIP3    H166356   2.818   5.822  16.897  0.4745 -0.2948  0.2008
14955TIP3    H266357   2.951   5.752  16.914  1.3319  1.3924  0.6383
14956TIP3   OH266358   1.725   2.990   1.168  0.1033 -0.0743  0.4101
14956TIP3    H166359   1.718   3.010   1.261  1.2808 -0.5857  0.6290
14956TIP3    H266360   1.648   3.032   1.128  0.0205  0.8445  1.4891
14957TIP3   OH266361   2.348   5.458  11.200 -0.0375  0.6129  0.4611
14957TIP3    H166362   2.350   5.532  11.260  1.0883  0.9449  0.0447
14957TIP3    H266363   2.391   5.491  11.121  1.8620 -0.9065  0.7917
14958TIP3   OH266364   0.322   4.058   0.682 -0.0348  0.3375 -0.1515
14958TIP3    H166365   0.242   4.012   0.706  0.7363 -0.6297  0.6282
14958TIP3    H266366   0.378   4.052   0.760 -0.0352  2.9409  0.1498
14959TIP3   OH266367   6.802   2.385  13.838 -0.2317  0.2045 -0.0260
14959TIP3    H166368   6.759   2.462  13.802 -0.8574  0.5044  1.3100
14959TIP3    H266369   6.795   2.319  13.768 -0.0462  1.2148 -1.0203
14960TIP3   OH266370   0.273   2.023   1.909  0.6296  0.1727 -0.0374
14960TIP3    H166371   0.289   2.097   1.850  0.8309  0.4090  0.3099
14960TIP3    H266372   0.217   2.059   1.978  1.2717  0.1815  0.4900
14961TIP3   OH266373   5.861   0.622   2.411  0.0402 -0.2244 -0.0414
14961TIP3    H166374   5.794   0.564   2.375 -1.7472  1.3928  0.5277
14961TIP3    H266375   5.891   0.674   2.337  0.4474 -0.7161 -0.2292
14962TIP3   OH266376   2.453   5.333  10.434  0.2743 -0.4655 -0.2249
14962TIP3    H166377   2.441   5.418  10.393 -1.8167  0.0966  1.3848
14962TIP3    H266378   2.388   5.277  10.391 -0.5009 -0.3991  0.8108
14963TIP3   OH266379   3.744   1.044   2.169  0.3216 -0.3133 -0.0750
14963TIP3    H166380   3.687   1.107   2.125  0.9619 -0.4452 -1.1629
14963TIP3    H266381   3.833   1.073   2.146  0.6519 -0.8824  0.4564
14964TIP3   OH266382   3.572   3.943   3.158 -0.4168  0.9304 -0.0634
14964TIP3    H166383   3.631   3.944   3.233 -2.7157 -0.8269  1.9096
14964TIP3    H266384   3.492   3.901   3.190 -0.9353 -1.5661 -3.9468
14965TIP3   OH266385   1.136   4.420  15.626  0.0933 -0.9910  0.1027
14965TIP3    H166386   1.049   4.422  15.666 -0.0802  1.6310 -0.2782
14965TIP3    H266387   1.127   4.360  15.552 -0.9238 -1.9570  0.9682
14966TIP3   OH266388   2.400   0.104  16.665  0.2947 -0.0015  0.3796
14966TIP3    H166389   2.449   0.039  16.715  1.2113  0.3761  0.0138
14966TIP3    H266390   2.330   0.055  16.623 -0.2804 -0.3912  1.7245
14967TIP3   OH266391   1.010   1.753  15.214  1.1687  0.0448 -0.0829
14967TIP3    H166392   0.928   1.705  15.229  0.9073  0.5111  0.0024
14967TIP3    H266393   1.079   1.689  15.234  0.8330 -0.5351 -0.7333
14968TIP3   OH266394   4.301   1.316  11.160  0.0964  0.3754 -0.0651
14968TIP3    H166395   4.312   1.294  11.068 -1.9682  1.2851 -0.5786
14968TIP3    H266396   4.275   1.233  11.201 -0.3929  0.2688 -0.5813
14969TIP3   OH266397   3.377   1.278   0.377  0.1868  0.3346  0.4530
14969TIP3    H166398   3.325   1.309   0.303 -1.4953 -1.6210  0.7251
14969TIP3    H266399   3.327   1.205   0.413  2.8698 -1.3130  1.1199
14970TIP3   OH266400   5.360   2.071  16.920  0.1890 -0.0606  0.0336
14970TIP3    H166401   5.316   2.047  17.002 -0.1106 -1.3454 -0.4858
14970TIP3    H266402   5.290   2.100  16.862  0.5733  2.7342  0.7864
14971TIP3   OH266403   4.097   0.124   3.458  0.1442  0.1529 -0.1063
14971TIP3    H166404   4.042   0.201   3.440 -0.4265 -0.3638 -0.6320
14971TIP3    H266405   4.186   0.153   3.439 -0.1610  0.4158 -1.2194
14972TIP3   OH266406   0.785   0.340   5.352  0.0174 -0.0556 -0.9995
14972TIP3    H166407   0.753   0.250   5.350  1.1140 -0.4993  0.1299
14972TIP3    H266408   0.837   0.348   5.272  0.1063 -0.5009 -0.9918
14973TIP3   OH266409   0.964   2.474  13.772  0.4807 -0.0684 -0.2018
14973TIP3    H166410   0.893   2.524  13.813 -0.2201 -0.4118 -0.9696
14973TIP3    H266411   0.997   2.418  13.843  0.3335  0.4643  0.2984
14974TIP3   OH266412   4.221   1.238  16.122 -0.4628  0.2289  0.1773
14974TIP3    H166413   4.189   1.150  16.103 -0.6315  0.7092 -2.0495
14974TIP3    H266414   4.166   1.296  16.070  1.1592  1.4419 -0.2889
14975TIP3   OH266415   1.549   0.274   4.302 -0.0232 -0.5602 -0.0453
14975TIP3    H166416   1.557   0.364   4.335 -0.2606 -0.4769 -0.2111
14975TIP3    H266417   1.567   0.219   4.378 -0.1838 -0.3695  0.1315
14976TIP3   OH266418   1.772   3.507   4.823  0.0981 -0.2026  0.2125
14976TIP3    H166419   1.726   3.490   4.741 -0.9876  1.0857  0.5179
14976TIP3    H266420   1.803   3.597   4.815 -0.7911  0.2534  1.5424
14977TIP3   OH266421   4.187   1.562  15.172  0.3458 -0.9490  0.5444
14977TIP3    H166422   4.182   1.598  15.260 -0.8517  0.5028 -0.0578
14977TIP3    H266423   4.122   1.613  15.122  0.6062 -2.0918 -1.0374
14978TIP3   OH266424   1.068   1.839  16.795  0.0298 -0.2164  0.4650
14978TIP3    H166425   1.024   1.819  16.877  0.1000 -0.3432  0.4730
14978TIP3    H266426   1.086   1.933  16.799 -1.9770  0.2457 -0.3833
14979TIP3   OH266427   6.359   6.063  15.542  0.0579  0.1329 -0.6463
14979TIP3    H166428   6.333   6.139  15.489  1.5529  0.9795 -0.2083
14979TIP3    H266429   6.403   6.100  15.618 -0.2933 -1.1517  0.2185
14980TIP3   OH266430   2.795   1.059   0.375  0.6237 -0.5240 -0.5615
14980TIP3    H166431   2.802   0.968   0.406 -0.8678 -0.7258 -0.7363
14980TIP3    H266432   2.871   1.103   0.413  0.4825 -1.4688  0.9207
14981TIP3   OH266433   3.696   0.126  15.238  0.5214 -0.4683 -0.2252
14981TIP3    H166434   3.760   0.086  15.296  0.3620  0.2756  0.4774
14981TIP3    H266435   3.719   0.219  15.238 -0.4267 -0.2279 -0.1331
14982TIP3   OH266436   1.558   1.778  12.409  0.2972 -0.5710 -0.2173
14982TIP3    H166437   1.563   1.717  12.482  0.3764 -0.1007  0.1755
14982TIP3    H266438   1.649   1.799  12.388  0.2573  1.0645  1.0645
14983TIP3   OH266439   5.767   0.963   1.534 -0.6305  0.3159 -0.3699
14983TIP3    H166440   5.724   0.947   1.450 -1.0431  1.8520 -0.4837
14983TIP3    H266441   5.860   0.957   1.514 -0.7217 -1.4275 -0.4594
14984TIP3   OH266442   1.997   5.506   2.505  0.2926  0.2362 -0.1354
14984TIP3    H166443   1.952   5.587   2.530  0.5056 -0.1984  1.8282
14984TIP3    H266444   2.020   5.465   2.588  2.3246 -0.6719 -1.0763
14985TIP3   OH266445   2.464   5.651   5.550 -0.3992  0.3682 -0.2324
14985TIP3    H166446   2.508   5.623   5.470 -0.3168 -1.2640  0.3479
14985TIP3    H266447   2.371   5.640   5.531 -0.3385 -1.7769  0.4470
14986TIP3   OH266448   2.757   0.904  14.878 -1.0417 -0.4957 -0.0260
14986TIP3    H166449   2.706   0.852  14.941 -0.6024 -1.5168 -0.4804
14986TIP3    H266450   2.773   0.987  14.923  0.5450 -1.7212  1.8678
14987TIP3   OH266451   0.265   5.416   2.476 -0.3793 -0.2782  0.4406
14987TIP3    H166452   0.359   5.395   2.480 -0.7750 -1.9433  2.3552
14987TIP3    H266453   0.225   5.339   2.436 -1.1281 -0.3833  1.3712
14988TIP3   OH266454   6.304   3.296  13.818  0.0432 -0.0155 -0.1103
14988TIP3    H166455   6.328   3.302  13.725 -0.4407 -0.5023 -0.2717
14988TIP3    H266456   6.320   3.384  13.852  1.0067 -0.0372 -0.4592
14989TIP3   OH266457   1.771   0.696  13.452 -0.5193  0.6418 -0.3067
14989TIP3    H166458   1.690   0.735  13.417  0.6441  2.2401 -1.3610
14989TIP3    H266459   1.839   0.758  13.427  0.6527  1.1206  3.4449
14990TIP3   OH266460   4.578   1.622   0.209 -0.4468 -0.0195  0.0225
14990TIP3    H166461   4.669   1.642   0.189 -0.6695  1.4422  0.3588
14990TIP3    H266462   4.577   1.601   0.302 -0.8390  3.1417  0.8804
14991TIP3   OH266463   3.354   0.965   1.784 -0.0266 -0.1365 -0.3791
14991TIP3    H166464   3.440   0.976   1.826 -0.6817 -1.3136  1.4107
14991TIP3    H266465   3.297   1.025   1.831 -0.2021  0.6524 -1.5799
14992TIP3   OH266466   4.486   1.707  14.004 -0.0650  0.4343 -0.2310
14992TIP3    H166467   4.523   1.772  14.063 -0.5618  1.5230 -1.0715
14992TIP3    H266468   4.556   1.691  13.940  0.4230 -0.6406  0.5452
14993TIP3   OH266469   5.274   6.516   3.123 -0.2853 -0.1093  0.2788
14993TIP3    H166470   5.360   6.557   3.111  0.8624 -2.0152  1.5229
14993TIP3    H266471   5.263   6.461   3.045 -0.9126  0.9298 -0.4002
14994TIP3   OH266472   3.053   5.046  13.431 -0.2955  0.0044 -0.7495
14994TIP3    H166473   3.104   4.984  13.378  0.1082  1.1934 -1.7744
14994TIP3    H266474   3.026   4.994  13.508  1.8474 -0.8623 -0.5147
14995TIP3   OH266475   1.484   3.507   5.664 -0.0217  0.3676  0.4531
14995TIP3    H166476   1.458   3.547   5.581 -2.6289 -0.9163  0.5171
14995TIP3    H266477   1.551   3.443   5.640  1.4991  2.0945 -0.1520
14996TIP3   OH266478   2.662   5.617   5.077 -0.2251 -0.2540  0.0502
14996TIP3    H166479   2.708   5.565   5.012  1.1966  0.6208  0.3289
14996TIP3    H266480   2.598   5.668   5.027 -0.3192 -0.8445 -0.4376
14997TIP3   OH266481   0.015   1.392   5.033 -0.3289  0.8430  0.4135
14997TIP3    H166482  -0.024   1.479   5.043 -1.2385  0.5760 -0.6007
14997TIP3    H266483  -0.006   1.368   4.943 -0.7627 -0.7523  0.9214
14998TIP3   OH266484   6.087   0.167  13.291  0.0988  0.6048  0.6151
14998TIP3    H166485   6.087   0.170  13.387 -0.1317  1.0531  0.5994
14998TIP3    H266486   6.166   0.117  13.270 -0.1739 -0.0333  1.0515
14999TIP3   OH266487   1.692   2.150  12.452 -0.0842  0.4935 -0.7743
14999TIP3    H166488   1.720   2.160  12.543 -2.7822  2.2193 -0.0173
14999TIP3    H266489   1.707   2.058  12.433  1.4727  0.2996  1.0821
15000TIP3   OH266490   0.905   6.589  12.131 -0.1590 -0.4768 -0.5393
15000TIP3    H166491   0.832   6.533  12.158 -1.5918  1.7902  0.6374
15000TIP3    H266492   0.983   6.536  12.146 -1.3350 -1.7497  1.6903
15001TIP3   OH266493   3.154   0.344   2.222 -0.3329 -0.3894  0.0326
15001TIP3    H166494   3.231   0.401   2.218 -0.6964  0.1911  1.1226
15001TIP3    H266495   3.147   0.307   2.133  0.1578  0.9151 -0.5694
15002TIP3   OH266496   6.548   5.324  16.306  0.2700 -0.3366  0.5162
15002TIP3    H166497   6.569   5.388  16.238 -2.3731  0.6706  0.4969
15002TIP3    H266498   6.631   5.282  16.327  1.6584  1.3192 -1.3005
15003TIP3   OH266499   6.265   2.376   4.224 -0.0833 -0.0820 -0.1885
15003TIP3    H166500   6.189   2.366   4.167  0.5825 -3.0687 -0.6955
15003TIP3    H266501   6.334   2.324   4.182  1.4527  0.4189  1.5885
15004TIP3   OH266502   1.577   4.137  16.569 -1.1080 -1.0478  0.2604
15004TIP3    H166503   1.607   4.140  16.659  0.5753  1.7807 -0.2682
15004TIP3    H266504   1.617   4.058  16.533  3.8303  1.0116  0.3904
15005TIP3   OH266505   0.198   3.453  12.249 -0.1653 -0.2375  0.1478
15005TIP3    H166506   0.230   3.370  12.215 -0.6466  0.2436 -1.6106
15005TIP3    H266507   0.276   3.499  12.278  0.4816 -0.1168 -1.6720
15006TIP3   OH266508   2.345   6.261  17.103  0.2748 -0.3832  0.0987
15006TIP3    H166509   2.291   6.337  17.080  1.9025  1.2840  1.5273
15006TIP3    H266510   2.292   6.212  17.166 -1.1208 -0.9574 -1.4389
15007TIP3   OH266511   2.586   5.118  13.760  0.3829 -0.0460 -0.5308
15007TIP3    H166512   2.620   5.163  13.838 -1.3712 -0.2612  0.3984
15007TIP3    H266513   2.550   5.036  13.793  1.6970 -1.2409 -1.9317
15008TIP3   OH266514   5.067   4.203   3.285  0.1719  0.2338 -0.1040
15008TIP3    H166515   5.078   4.280   3.340 -1.2253  2.0025 -2.1245
15008TIP3    H266516   4.977   4.175   3.299  0.3049 -0.3073 -0.2796
15009TIP3   OH266517   0.847   2.960   2.250  0.4903  0.3666 -0.0320
15009TIP3    H166518   0.795   3.019   2.195  0.5947  0.3512 -0.1479
15009TIP3    H266519   0.848   3.002   2.336 -0.2092  0.0717  0.1263
15010TIP3   OH266520   0.680   5.917  13.417  0.7105 -0.1071  0.6813
15010TIP3    H166521   0.661   5.907  13.511  0.6106 -0.1412  0.6576
15010TIP3    H266522   0.675   5.828  13.383  0.7277 -0.0922  0.6402
15011TIP3   OH266523   5.895   5.596  16.400 -0.2792  0.3376  0.2370
15011TIP3    H166524   5.836   5.671  16.391  0.2262  0.6254 -0.9324
15011TIP3    H266525   5.873   5.557  16.485 -1.4811  1.0034  0.2506
15012TIP3   OH266526   1.648   3.632  11.776  0.1087  0.2487  0.2742
15012TIP3    H166527   1.552   3.631  11.775  0.0453 -0.9890  2.4273
15012TIP3    H266528   1.673   3.540  11.782  1.4944  0.5016 -0.9522
15013TIP3   OH266529   1.913   5.790   5.187  0.1305 -0.1101  0.1490
15013TIP3    H166530   1.944   5.828   5.105 -1.0098 -0.7502 -0.5967
15013TIP3    H266531   1.926   5.860   5.251  1.4697  0.2383 -0.4626
15014TIP3   OH266532   0.883   0.340  13.473  0.7392  0.1174 -0.2365
15014TIP3    H166533   0.929   0.256  13.485 -1.1617 -0.8736  0.5847
15014TIP3    H266534   0.873   0.374  13.562  0.3274  0.5490 -0.4447
15015TIP3   OH266535   5.962   3.041  13.199  0.3784  0.4068 -0.2850
15015TIP3    H166536   5.978   2.951  13.171  0.9629  0.8841 -1.5573
15015TIP3    H266537   5.877   3.064  13.163 -0.2940  0.0236  0.9838
15016TIP3   OH266538   6.272   4.344   0.500 -0.5274  0.2411  0.5172
15016TIP3    H166539   6.359   4.378   0.481 -0.9676 -0.6295 -4.4415
15016TIP3    H266540   6.286   4.275   0.565  2.4696  0.0775 -0.1801
15017TIP3   OH266541   2.910   5.891  14.596 -0.0375  0.8790 -0.0571
15017TIP3    H166542   2.986   5.934  14.634  0.5809 -0.3643  0.1816
15017TIP3    H266543   2.931   5.883  14.503  0.2535  0.3201  0.0489
15018TIP3   OH266544   6.698   2.213   0.156  0.1539  0.2032  0.4034
15018TIP3    H166545   6.669   2.219   0.065  1.3146 -0.1676 -0.0073
15018TIP3    H266546   6.734   2.299   0.176 -2.2213  1.0651  1.3060
15019TIP3   OH266547   4.065   2.695  16.886  0.4154 -0.2353 -0.3273
15019TIP3    H166548   4.128   2.753  16.930  1.5571 -1.2009 -0.6410
15019TIP3    H266549   4.042   2.630  16.952 -0.1647  0.0266 -0.2593
15020TIP3   OH266550   3.770   1.173  12.256  0.3828 -0.6690  0.0070
15020TIP3    H166551   3.835   1.115  12.297  0.0425 -2.3761 -1.7515
15020TIP3    H266552   3.805   1.261  12.271  2.1862 -1.4407  0.6674
15021TIP3   OH266553   6.078   1.901   5.139 -0.5174  0.3269 -0.1517
15021TIP3    H166554   6.106   1.989   5.116 -1.0969  1.4864  3.0386
15021TIP3    H266555   5.983   1.904   5.139 -0.5457 -0.2285  0.2004
15022TIP3   OH266556   6.489   4.589  15.571  0.6021 -0.4367 -0.4786
15022TIP3    H166557   6.512   4.507  15.616  2.4104  0.6566  0.7028
15022TIP3    H266558   6.461   4.561  15.483 -2.3946 -2.5818  0.9674
15023TIP3   OH266559   3.340   2.892  14.243  0.2355  0.0332  0.0096
15023TIP3    H166560   3.385   2.867  14.162  1.4484  0.0220  0.6631
15023TIP3    H266561   3.247   2.891  14.220  0.5279 -0.4818 -1.2382
15024TIP3   OH266562   3.194   3.291   4.250 -0.5731  0.3324 -0.0390
15024TIP3    H166563   3.158   3.323   4.333  1.8986  0.1126  1.1955
15024TIP3    H266564   3.258   3.357   4.224  0.0025 -0.5052 -0.7996
15025TIP3   OH266565   3.217   0.745   6.305  0.0810  0.2002 -0.4493
15025TIP3    H166566   3.305   0.778   6.288  0.0693 -0.3495 -1.6614
15025TIP3    H266567   3.160   0.819   6.286  0.1964  0.1566 -0.9683
15026TIP3   OH266568   1.872   5.276   5.259  0.0508  0.3187  0.4071
15026TIP3    H166569   1.828   5.210   5.205 -1.5005  1.6052  0.0411
15026TIP3    H266570   1.895   5.346   5.199  1.6649  0.1800  0.8041
15027TIP3   OH266571   6.307   3.528  15.631  0.0202 -0.3262  0.0648
15027TIP3    H166572   6.294   3.462  15.699 -0.6666 -0.3516 -0.0880
15027TIP3    H266573   6.248   3.501  15.560  1.3002 -0.7721 -0.8934
15028TIP3   OH266574   0.549   1.711  16.056  0.4415 -0.0274  0.4521
15028TIP3    H166575   0.584   1.706  15.967  0.9480  0.8558  0.5945
15028TIP3    H266576   0.462   1.671  16.049  0.2490  0.5182 -0.5639
15029TIP3   OH266577   2.826   0.900   3.331  0.2555 -0.3747  0.0699
15029TIP3    H166578   2.769   0.847   3.386 -0.3719 -0.0241 -0.2371
15029TIP3    H266579   2.773   0.975   3.306  1.3859  0.8360  1.1606
15030TIP3   OH266580   6.379   1.109  16.698  0.0894 -0.9221  0.0085
15030TIP3    H166581   6.469   1.122  16.668 -0.0267 -2.4373 -1.1060
15030TIP3    H266582   6.353   1.194  16.733  1.0995  0.2657 -1.9531
15031TIP3   OH266583   6.536   1.802  15.634  0.6278 -0.1045  0.2435
15031TIP3    H166584   6.609   1.857  15.662 -1.0476  0.9188  3.0304
15031TIP3    H266585   6.577   1.718  15.610  2.7038  0.3517  1.8780
15032TIP3   OH266586   3.992   0.002  12.913  0.5112 -0.3965 -0.2637
15032TIP3    H166587   3.992  -0.040  12.827  0.3215  0.6084 -0.7775
15032TIP3    H266588   4.038  -0.059  12.970  2.0946 -0.3838 -1.4547
15033TIP3   OH266589   2.615   6.321  11.062 -0.1247  0.1089  0.4474
15033TIP3    H166590   2.679   6.363  11.120  0.8422 -0.1355 -0.4230
15033TIP3    H266591   2.530   6.342  11.101  0.5064 -0.2159  2.0711
15034TIP3   OH266592   1.016   6.781   1.121  0.1081  0.5621 -0.3940
15034TIP3    H166593   0.982   6.742   1.041 -0.5204  0.3673 -0.0349
15034TIP3    H266594   0.946   6.838   1.152 -0.1398 -0.2665  0.6422
15035TIP3   OH266595   3.025   4.975  16.390 -0.4900  0.2304 -0.4402
15035TIP3    H166596   2.996   5.060  16.358 -0.6650  1.0611  1.7210
15035TIP3    H266597   3.000   4.974  16.483  0.0914 -1.9177 -0.2333
15036TIP3   OH266598   3.368   1.422  11.186 -0.0984  0.2138 -0.2488
15036TIP3    H166599   3.425   1.449  11.258 -0.2127 -0.0409 -0.0619
15036TIP3    H266600   3.418   1.355  11.140  0.1347  0.6478 -0.6394
15037TIP3   OH266601   4.390   4.727   5.729  0.8344 -0.3081 -0.1674
15037TIP3    H166602   4.344   4.748   5.648  2.2552 -0.0602 -0.9625
15037TIP3    H266603   4.346   4.650   5.764 -1.2586  0.9329  0.0622
15038TIP3   OH266604   2.286   2.323  15.330  0.2724  0.2650  0.5083
15038TIP3    H166605   2.254   2.342  15.418  1.2483  0.5178  0.8290
15038TIP3    H266606   2.321   2.406  15.298 -2.2997  0.8300 -1.1500
15039TIP3   OH266607   5.633   1.324   4.164 -0.7344  0.6239  0.7628
15039TIP3    H166608   5.726   1.315   4.185 -1.0138 -1.8277  1.2784
15039TIP3    H266609   5.625   1.288   4.076 -0.8298  3.5152 -0.5316
15040TIP3   OH266610   2.783   1.415   0.530 -0.0789  0.2776 -0.2104
15040TIP3    H166611   2.766   1.509   0.540 -1.0724  0.1443 -0.5726
15040TIP3    H266612   2.812   1.406   0.439  1.6384  0.4458  0.2868
15041TIP3   OH266613   2.785   0.525  11.413  0.0872 -0.1209  0.3831
15041TIP3    H166614   2.800   0.432  11.394  1.3404  0.4209 -1.6816
15041TIP3    H266615   2.865   0.568  11.383 -0.5358  1.6442  1.1544
15042TIP3   OH266616   1.779   1.420  16.496 -0.1060  0.4564  0.3430
15042TIP3    H166617   1.776   1.465  16.412 -0.2714  0.7533  0.5104
15042TIP3    H266618   1.772   1.327  16.473 -3.0531  0.6346  0.1894
15043TIP3   OH266619   5.594   0.296  16.928 -0.1592 -0.3871  0.0949
15043TIP3    H166620   5.534   0.280  17.001  0.6716  0.0739  0.8922
15043TIP3    H266621   5.538   0.293  16.850 -0.7494 -2.9634  0.5202
15044TIP3   OH266622   6.432   3.510  15.175  0.3310 -0.2342  0.3954
15044TIP3    H166623   6.437   3.523  15.270 -0.2424  0.9294  0.2865
15044TIP3    H266624   6.507   3.454  15.155  0.9813  0.2329  1.4153
15045TIP3   OH266625   1.892   5.181   0.407 -0.7396  0.1226  0.2658
15045TIP3    H166626   1.818   5.129   0.441 -0.2935 -0.2585  0.6733
15045TIP3    H266627   1.851   5.250   0.356 -1.3637 -0.4044  0.0367
15046TIP3   OH266628   0.166   0.475   2.157  0.0102 -0.4494  0.3808
15046TIP3    H166629   0.230   0.404   2.164 -0.3303 -0.9060 -0.8177
15046TIP3    H266630   0.213   0.545   2.111 -0.0015 -0.3375  0.5380
15047TIP3   OH266631   6.443   4.580  15.078 -0.2629  0.2978 -0.3052
15047TIP3    H166632   6.469   4.672  15.069 -1.0525  0.3736 -2.1530
15047TIP3    H266633   6.390   4.562  15.001 -0.5995 -1.5702  0.3107
15048TIP3   OH266634   1.748   0.733  16.591 -1.1484  0.0055 -0.0030
15048TIP3    H166635   1.793   0.662  16.545 -0.9089 -0.3457  0.7597
15048TIP3    H266636   1.801   0.749  16.669 -2.5017 -0.6550  1.1021
15049TIP3   OH266637   4.635   2.687  12.133  0.2977 -0.3815 -0.4323
15049TIP3    H166638   4.683   2.617  12.090 -0.4369 -1.6591  0.7531
15049TIP3    H266639   4.560   2.644  12.173 -0.5142  1.1871 -0.1751
15050TIP3   OH266640   2.116   1.737   4.554 -0.6937 -0.6830  0.1766
15050TIP3    H166641   2.048   1.755   4.489 -0.1859  0.8441  0.0273
15050TIP3    H266642   2.075   1.758   4.638 -0.1698  1.1765  0.0190
15051TIP3   OH266643   2.543   5.230   2.711  0.3571  0.0443  0.0783
15051TIP3    H166644   2.550   5.316   2.669 -1.3113 -0.3385 -1.0664
15051TIP3    H266645   2.469   5.239   2.771  0.5983 -0.4135  0.4480
15052TIP3   OH266646   5.144   0.670   0.823 -0.1438  0.1148  0.1998
15052TIP3    H166647   5.165   0.620   0.902  1.6476  0.0318 -0.2858
15052TIP3    H266648   5.165   0.761   0.846 -0.0343  0.1497 -0.0333
15053TIP3   OH266649   2.031   6.688   1.348 -0.1953  0.6444  0.4076
15053TIP3    H166650   2.070   6.719   1.266  1.7834  0.4580  1.2310
15053TIP3    H266651   2.016   6.595   1.334  1.9053  0.1891  0.8392
15054TIP3   OH266652   1.183   5.168  14.622  0.2636 -0.2697  0.3631
15054TIP3    H166653   1.187   5.076  14.648  1.0280 -0.8385 -1.5753
15054TIP3    H266654   1.130   5.169  14.542 -0.7529  1.1621  1.0058
15055TIP3   OH266655   3.228   1.396   0.167  0.3774  0.3117 -0.3498
15055TIP3    H166656   3.161   1.462   0.180  0.1286 -0.1847  1.1559
15055TIP3    H266657   3.182   1.321   0.130 -0.1056 -0.3258  1.4585
15056TIP3   OH266658   0.819   6.760  15.891 -0.3730 -0.2748 -0.3637
15056TIP3    H166659   0.897   6.812  15.873 -1.3089  1.3189 -0.0554
15056TIP3    H266660   0.852   6.678  15.928  1.1139  1.2656  1.9635
15057TIP3   OH266661   3.674   6.730   0.452 -0.1456 -0.0842 -0.2024
15057TIP3    H166662   3.768   6.714   0.448  0.3494  0.7574  3.9109
15057TIP3    H266663   3.635   6.642   0.458  0.5198 -0.3750 -0.0997
15058TIP3   OH266664   1.585   2.750  12.011  0.2973  0.1524 -0.0862
15058TIP3    H166665   1.497   2.777  12.039  0.7718  0.6017  1.0174
15058TIP3    H266666   1.605   2.808  11.937 -0.9845 -1.0722 -1.4641
15059TIP3   OH266667   0.345   4.594   5.355  0.0189 -0.1205  0.1921
15059TIP3    H166668   0.377   4.510   5.324 -0.7004 -0.4559  0.3282
15059TIP3    H266669   0.293   4.628   5.282  1.2112  0.7403 -0.2949
15060TIP3   OH266670   3.174   2.566  14.493  0.5116  0.4155 -0.3051
15060TIP3    H166671   3.101   2.507  14.475  0.0941  0.4525  1.1216
15060TIP3    H266672   3.235   2.513  14.544  0.7011  0.8633 -0.0624
15061TIP3   OH266673   1.134   4.090  11.807 -0.6952  0.2531  0.2247
15061TIP3    H166674   1.120   4.151  11.735 -0.6369  2.1157  1.7277
15061TIP3    H266675   1.051   4.088  11.854 -0.4231 -0.1527  0.6960
15062TIP3   OH266676   5.121   3.183   5.913 -0.0199  0.0930  0.2470
15062TIP3    H166677   5.077   3.268   5.904  0.9784  0.6017 -0.0475
15062TIP3    H266678   5.074   3.138   5.983 -0.5864  0.8806  0.3834
15063TIP3   OH266679   5.082   3.264   1.925  0.2622 -0.1751 -0.3481
15063TIP3    H166680   5.128   3.343   1.954  0.7792 -0.1430 -1.2370
15063TIP3    H266681   5.002   3.262   1.978  0.3231  0.8522 -0.2052
15064TIP3   OH266682   6.531   1.378  10.680 -0.1128 -0.8640 -1.3404
15064TIP3    H166683   6.491   1.359  10.595 -1.6610 -0.7617 -0.6635
15064TIP3    H266684   6.458   1.377  10.742  1.1369 -2.1512  0.2047
15065TIP3   OH266685   5.030   5.635  14.908  0.3175  0.3738  0.0075
15065TIP3    H166686   4.981   5.601  14.833  1.5514 -0.6296 -0.3913
15065TIP3    H266687   5.023   5.730  14.900 -0.5383  0.2626 -0.7240
15066TIP3   OH266688   6.736   4.696   3.910  0.2483  0.0474  0.4183
15066TIP3    H166689   6.762   4.772   3.962  0.5017  0.5520 -0.4246
15066TIP3    H266690   6.662   4.727   3.858 -0.7762 -0.7932  1.3031
15067TIP3   OH266691   4.206   5.109   3.306 -0.3198  0.0031 -0.2859
15067TIP3    H166692   4.272   5.060   3.257 -1.3239 -0.8339 -0.8517
15067TIP3    H266693   4.144   5.139   3.239 -1.9135 -1.4732  0.4565
15068TIP3   OH266694   0.010   4.696   5.284 -0.2121  0.1700 -0.3079
15068TIP3    H166695   0.085   4.676   5.227  0.9221 -0.1338  1.2199
15068TIP3    H266696  -0.011   4.613   5.326 -0.2632  0.6275  0.5922
15069TIP3   OH266697   5.382   3.988   2.372 -0.1898  0.6305  0.1301
15069TIP3    H166698   5.456   4.043   2.347 -0.0180 -0.0143 -0.8526
15069TIP3    H266699   5.314   4.049   2.401  0.6874  1.2323  0.9727
15070TIP3   OH266700   4.991   0.126  15.162  0.3361 -0.1302 -0.1543
15070TIP3    H166701   5.073   0.169  15.183  0.6757 -0.8690  0.0844
15070TIP3    H266702   4.960   0.168  15.082  0.6118  0.5945  0.1142
15071TIP3   OH266703   5.193   0.214  16.908 -0.0844  0.0615  0.0920
15071TIP3    H166704   5.110   0.240  16.867 -0.1426  1.1615  0.8708
15071TIP3    H266705   5.242   0.296  16.916  2.4659 -0.8794 -3.2303
15072TIP3   OH266706   0.475   3.903   1.834  0.0129 -0.0307 -0.8519
15072TIP3    H166707   0.388   3.912   1.793  0.5863  2.3826 -1.6846
15072TIP3    H266708   0.461   3.929   1.925 -0.2512 -0.3846 -0.7849
15073TIP3   OH266709   4.730   6.074   4.954 -0.1182 -0.2126  0.7517
15073TIP3    H166710   4.689   6.130   4.889  0.9523  0.0164  0.2446
15073TIP3    H266711   4.673   6.080   5.031 -0.6595  0.6036  0.3010
15074TIP3   OH266712   4.167   0.662   4.255 -0.2514  0.1184 -0.2994
15074TIP3    H166713   4.216   0.729   4.207  0.9055  0.4952  1.3387
15074TIP3    H266714   4.198   0.580   4.218 -0.1894  0.4233 -0.9456
15075TIP3   OH266715   3.593   1.998  14.792  0.0499  0.0827 -0.2430
15075TIP3    H166716   3.629   1.957  14.871  1.3213  0.6273 -0.5195
15075TIP3    H266717   3.537   1.931  14.753 -0.2830 -0.3333  0.8956
15076TIP3   OH266718   1.395   0.229   0.359 -0.0212  0.4580 -0.4291
15076TIP3    H166719   1.358   0.235   0.447  0.7305  0.0393 -0.0726
15076TIP3    H266720   1.321   0.244   0.300 -0.4085  1.3947  0.2762
15077TIP3   OH266721   3.177   2.982  15.575  0.0488 -0.0674 -0.8759
15077TIP3    H166722   3.269   3.008  15.565 -0.1272  0.7059 -0.5881
15077TIP3    H266723   3.131   3.034  15.508 -0.0634 -1.1926 -1.6967
15078TIP3   OH266724   5.792   4.179   5.398 -0.4044 -0.3285 -0.2879
15078TIP3    H166725   5.773   4.085   5.406 -1.2926 -0.0358  1.5119
15078TIP3    H266726   5.864   4.194   5.458 -0.6128  0.2332 -0.1732
15079TIP3   OH266727   3.111   1.299   4.141 -0.8663  0.0658 -0.0758
15079TIP3    H166728   3.048   1.318   4.071 -2.4934 -0.4348  1.1757
15079TIP3    H266729   3.189   1.349   4.118 -1.8370  0.9712 -1.5360
15080TIP3   OH266730   2.230   5.074   5.075  0.3378 -0.4925 -0.0701
15080TIP3    H166731   2.259   5.003   5.133  0.9330  0.2613  0.5879
15080TIP3    H266732   2.242   5.040   4.987  2.1589 -0.6401  0.2055
15081TIP3   OH266733   3.711   6.358   3.217  0.3949 -0.5950  0.0181
15081TIP3    H166734   3.787   6.389   3.167 -0.2164  0.0960 -0.5000
15081TIP3    H266735   3.749   6.310   3.291  1.3298 -1.7559 -1.1514
15082TIP3   OH266736   1.415   3.563  14.978  0.5528 -0.1112  0.2846
15082TIP3    H166737   1.480   3.588  15.043 -0.1429 -0.5999  1.1851
15082TIP3    H266738   1.437   3.616  14.901  3.0855 -1.5245 -0.0577
15083TIP3   OH266739   2.549   0.305  12.514  0.1593 -0.4736 -0.2269
15083TIP3    H166740   2.610   0.233  12.527  0.1390 -0.8498 -2.0052
15083TIP3    H266741   2.597   0.368  12.460 -0.9827 -0.7850 -1.6842
15084TIP3   OH266742   2.759   6.724   1.647 -0.3373  0.3150 -0.3075
15084TIP3    H166743   2.697   6.794   1.667 -0.0185  0.6231 -0.4027
15084TIP3    H266744   2.839   6.769   1.620  0.2556 -0.0553  0.7635
15085TIP3   OH266745   2.931   3.388   2.745  0.0168 -0.4861 -0.2871
15085TIP3    H166746   2.905   3.456   2.806  1.4226  0.1054 -0.3072
15085TIP3    H266747   2.858   3.326   2.745 -0.6654  0.2878  0.8123
15086TIP3   OH266748   5.623   1.712  14.722 -0.4600  0.4213  0.2673
15086TIP3    H166749   5.589   1.733  14.635 -2.4738 -0.9175  0.6520
15086TIP3    H266750   5.549   1.671  14.767  1.3608 -1.6368  1.6071
15087TIP3   OH266751   3.016   0.019  15.855 -0.0643 -0.0922  0.7845
15087TIP3    H166752   3.019   0.031  15.950 -0.8518  0.2576  0.7743
15087TIP3    H266753   3.015  -0.076  15.843  1.4641 -0.1566  1.0629
15088TIP3   OH266754   0.036   6.546   2.478  0.5131  0.2064  0.1370
15088TIP3    H166755   0.081   6.551   2.394 -0.5739  0.7271 -0.4258
15088TIP3    H266756   0.043   6.454   2.504  1.3951  0.1680 -0.2072
15089TIP3   OH266757   5.455   5.168  12.388 -0.2737  0.8445 -0.3717
15089TIP3    H166758   5.443   5.180  12.293 -0.6407 -0.5048 -0.5186
15089TIP3    H266759   5.523   5.101  12.395 -3.6791 -2.9755  0.1156
15090TIP3   OH266760   6.159   5.543   3.472  0.7432  1.1762  0.1397
15090TIP3    H166761   6.246   5.521   3.507  1.0961 -0.5474 -1.6686
15090TIP3    H266762   6.172   5.625   3.424  2.0064 -0.2383 -2.1073
15091TIP3   OH266763   3.927   1.658   3.322  0.2738  0.2245  0.8593
15091TIP3    H166764   3.980   1.696   3.392  1.8305 -0.6264  0.1958
15091TIP3    H266765   3.991   1.626   3.258 -1.0602 -0.6208 -0.1041
15092TIP3   OH266766   4.898   5.604   1.223 -0.1678 -0.4665  0.4503
15092TIP3    H166767   4.819   5.636   1.268 -0.5518 -1.2352  0.3326
15092TIP3    H266768   4.873   5.519   1.188  0.3293 -0.1677 -0.6663
15093TIP3   OH266769   1.711   3.809   0.037 -0.2352 -0.2965 -0.4058
15093TIP3    H166770   1.637   3.794   0.096 -0.5889  0.5195 -0.6223
15093TIP3    H266771   1.788   3.783   0.087 -0.6035 -0.4375  0.0997
15094TIP3   OH266772   4.657   2.953  16.873 -0.2290  0.3640  0.3289
15094TIP3    H166773   4.594   3.000  16.928  0.6496  0.3753  1.3499
15094TIP3    H266774   4.603   2.908  16.808 -1.3574 -0.2590  1.6498
15095TIP3   OH266775   0.524   1.794  15.750  0.3763 -0.2671  0.4529
15095TIP3    H166776   0.456   1.861  15.758  0.6478  0.2601 -1.2742
15095TIP3    H266777   0.606   1.841  15.769  0.7813  0.4570 -2.5327
15096TIP3   OH266778   3.001   4.656  12.092 -0.2388  0.0155 -0.1206
15096TIP3    H166779   3.060   4.706  12.036 -0.3851  0.2232 -0.0942
15096TIP3    H266780   2.921   4.710  12.096 -0.4928 -0.3445 -0.3022
15097TIP3   OH266781   5.925   0.172   4.374 -0.5491 -1.1013 -0.3647
15097TIP3    H166782   6.015   0.161   4.404  0.2664  1.1232 -1.7117
15097TIP3    H266783   5.886   0.233   4.437 -0.4284 -0.4444 -0.9067
15098TIP3   OH266784   1.581   1.051   4.017 -0.5021  0.7547  0.4265
15098TIP3    H166785   1.600   1.078   3.927  0.6261 -1.5659 -0.1173
15098TIP3    H266786   1.666   1.057   4.061 -0.6404  0.0707  0.7979
15099TIP3   OH266787   3.858   5.725   1.414 -0.2283  0.4913  0.3046
15099TIP3    H166788   3.895   5.810   1.391 -1.3149  0.2973 -2.5178
15099TIP3    H266789   3.785   5.746   1.473  0.6241  1.3206  1.1091
15100TIP3   OH266790   4.702   5.711   2.830  0.1120 -0.5802  0.2635
15100TIP3    H166791   4.714   5.794   2.784  0.6849 -1.7019 -1.7745
15100TIP3    H266792   4.779   5.702   2.885 -0.5216  0.7472  1.4317
15101TIP3   OH266793   1.544   0.411   2.382 -0.0414 -0.1647 -1.0026
15101TIP3    H166794   1.587   0.325   2.377 -0.4579 -0.3559 -1.4331
15101TIP3    H266795   1.614   0.474   2.365 -0.1369 -0.5301 -3.1018
15102TIP3   OH266796   3.671   6.423  13.616  0.4702  0.0765  0.1054
15102TIP3    H166797   3.753   6.431  13.664  0.0037 -1.5664  1.2672
15102TIP3    H266798   3.697   6.419  13.524  1.6496  0.1960  0.4194
15103TIP3   OH266799   0.403   0.404  14.916  0.0807 -0.1156 -0.3790
15103TIP3    H166800   0.373   0.491  14.943  1.0253 -0.3064  1.4118
15103TIP3    H266801   0.334   0.344  14.946 -1.4613  0.0824 -3.1758
15104TIP3   OH266802   6.333   2.718   3.584  0.0411  0.2885 -0.1240
15104TIP3    H166803   6.308   2.631   3.552 -0.7380  0.8522 -1.1128
15104TIP3    H266804   6.253   2.770   3.579  0.7601  1.3993 -0.7566
15105TIP3   OH266805   2.977   6.776  12.965 -0.1994  0.0501  0.4861
15105TIP3    H166806   2.976   6.728  12.883  3.1083 -1.6478  1.2573
15105TIP3    H266807   2.885   6.784  12.990 -1.1459 -1.6314 -2.0898
15106TIP3   OH266808   1.554   1.501   6.269 -0.2813  0.8649  0.8106
15106TIP3    H166809   1.525   1.528   6.182  0.6753  1.0170  0.5200
15106TIP3    H266810   1.484   1.528   6.328 -0.5347  1.5724  0.1976
15107TIP3   OH266811   1.261   3.328  11.410 -0.9404  1.2605 -0.1459
15107TIP3    H166812   1.273   3.422  11.422  1.7784  0.8744  0.9653
15107TIP3    H266813   1.341   3.299  11.366 -1.7574 -0.5147 -0.5340
15108TIP3   OH266814   4.280   6.759  14.367 -0.2348 -0.1035  0.0378
15108TIP3    H166815   4.338   6.763  14.291 -0.4214 -0.7528 -0.1512
15108TIP3    H266816   4.327   6.806  14.436  0.3905 -0.3697 -0.1954
15109TIP3   OH266817   0.165   5.319  15.488 -0.2074 -0.2713  0.0235
15109TIP3    H166818   0.131   5.340  15.401 -1.2802  2.3431  0.9593
15109TIP3    H266819   0.087   5.297  15.539  0.0655  0.8521  0.9596
15110TIP3   OH266820   6.358   3.762   1.744  0.2433 -0.4100  0.0591
15110TIP3    H166821   6.327   3.850   1.761  0.5848 -0.4815  1.1921
15110TIP3    H266822   6.439   3.755   1.796  0.9208 -0.9632 -1.0327
15111TIP3   OH266823   3.823   1.052   4.747 -0.3568  0.1229  0.6300
15111TIP3    H166824   3.783   1.116   4.688  0.6990  1.7235  1.5798
15111TIP3    H266825   3.778   1.065   4.831 -0.2709 -0.5312  0.7815
15112TIP3   OH266826   1.780   6.432  11.075  0.4383 -0.6468 -0.3382
15112TIP3    H166827   1.734   6.465  10.998 -0.0373 -0.6131 -0.0512
15112TIP3    H266828   1.868   6.468  11.069  0.2113 -0.1180 -0.5321
15113TIP3   OH266829   5.233   5.670   2.127  0.0268  0.7960 -0.2677
15113TIP3    H166830   5.197   5.620   2.200  0.0899 -0.0687 -0.8214
15113TIP3    H266831   5.328   5.667   2.141  0.0452  0.5356 -0.4426
15114TIP3   OH266832   4.996   1.947   4.805  0.4262  0.0475  0.2383
15114TIP3    H166833   5.079   1.994   4.796  0.5721 -0.3196 -0.4431
15114TIP3    H266834   4.970   1.960   4.896 -0.1852  2.5112 -0.1901
15115TIP3   OH266835   6.786   6.647   0.238  0.2153  0.4657 -0.0731
15115TIP3    H166836   6.847   6.605   0.299 -0.1591 -0.0306 -0.0321
15115TIP3    H266837   6.835   6.720   0.201  0.4604  0.7511  0.7966
15116TIP3   OH266838   5.178   0.849  13.906  0.0523  0.0444 -0.6610
15116TIP3    H166839   5.183   0.856  14.001  0.3815 -1.4601 -0.5422
15116TIP3    H266840   5.269   0.852  13.877 -0.1362  2.6534 -1.1460
15117TIP3   OH266841   4.980   2.024   3.485  0.7032 -0.4233  0.1433
15117TIP3    H166842   5.060   1.984   3.450  2.3670 -0.5774  3.6132
15117TIP3    H266843   5.005   2.114   3.506 -0.1839 -0.3062  0.7763
15118TIP3   OH266844   1.905   6.080  14.862 -0.3352  0.1733  0.0892
15118TIP3    H166845   1.821   6.062  14.905  0.5278  2.1109  2.8854
15118TIP3    H266846   1.962   6.007  14.889 -1.0532 -1.2503 -1.9716
15119TIP3   OH266847   6.012   2.819   4.971 -0.7287  0.8314  0.2726
15119TIP3    H166848   6.004   2.881   5.044  3.3395 -0.9437  2.5623
15119TIP3    H266849   6.086   2.850   4.920  0.6649 -1.4216  0.8177
15120TIP3   OH266850   6.582   4.876   1.775  0.1820  0.0337 -0.3086
15120TIP3    H166851   6.553   4.789   1.747  0.8308 -0.3197  0.0875
15120TIP3    H266852   6.641   4.905   1.706 -0.7592  0.5706 -0.9047
15121TIP3   OH266853   1.006   1.998  14.567  0.5010  0.2507 -0.2920
15121TIP3    H166854   0.913   1.983  14.551  0.5246  0.6005 -0.7741
15121TIP3    H266855   1.040   1.914  14.596  0.6855 -0.7344 -3.0934
15122TIP3   OH266856   4.206   0.488   2.336 -0.2242 -0.0340  0.2015
15122TIP3    H166857   4.243   0.411   2.379 -0.5220 -0.8840 -1.0072
15122TIP3    H266858   4.280   0.532   2.294 -0.3624 -1.0762 -1.2139
15123TIP3   OH266859   3.524   6.734   5.705  0.3499 -0.4860  0.0588
15123TIP3    H166860   3.544   6.764   5.794  0.9850 -0.6990 -0.0076
15123TIP3    H266861   3.492   6.812   5.660  0.7700 -0.1977  0.2522
15124TIP3   OH266862   2.706   6.841   3.396  0.2293  0.1809 -0.4412
15124TIP3    H166863   2.764   6.915   3.383  0.8479 -0.3257 -0.6222
15124TIP3    H266864   2.684   6.810   3.308 -0.0248  0.1444 -0.3685
15125TIP3   OH266865   0.069   1.738  11.687  0.1983 -0.1106  0.0650
15125TIP3    H166866   0.141   1.704  11.741  0.6636  0.8623  0.0797
15125TIP3    H266867  -0.009   1.695  11.721  0.3830  0.9746  1.9882
15126TIP3   OH266868   1.693   0.370  16.363 -0.0681 -0.2278  0.1296
15126TIP3    H166869   1.779   0.412  16.368 -0.1761 -0.0547  0.5373
15126TIP3    H266870   1.682   0.326  16.447 -0.0507 -0.9018 -0.2115
15127TIP3   OH266871   2.791   6.557   4.883  0.4394 -0.0781  0.0803
15127TIP3    H166872   2.813   6.623   4.817 -0.1408  0.1064  0.0621
15127TIP3    H266873   2.698   6.539   4.868  1.1607 -3.0470 -1.8397
15128TIP3   OH266874   3.464   2.620   1.799  0.3878 -0.1439  0.4098
15128TIP3    H166875   3.426   2.707   1.815 -0.0911 -0.4987  1.2500
15128TIP3    H266876   3.541   2.617   1.856 -0.8753 -1.1075  2.1580
15129TIP3   OH266877   0.049   5.576  13.824  0.1962 -0.0094 -0.2790
15129TIP3    H166878   0.080   5.508  13.765 -0.2393 -0.0323 -0.4897
15129TIP3    H266879   0.032   5.532  13.906 -0.5417 -0.2574 -0.5525
15130TIP3   OH266880   1.830   0.808  13.707  0.2897 -0.0261  0.2722
15130TIP3    H166881   1.780   0.872  13.656 -0.7104 -0.2409  0.9551
15130TIP3    H266882   1.911   0.796  13.657  0.0708  1.0374 -0.3655
15131TIP3   OH266883   5.161   5.260  13.716  0.3782  0.3312  0.4532
15131TIP3    H166884   5.247   5.294  13.693  0.6575  1.3034  2.7205
15131TIP3    H266885   5.152   5.180  13.664  1.8780  1.1432 -1.1323
15132TIP3   OH266886   3.942   2.652  12.821  0.4492 -0.3975 -0.1772
15132TIP3    H166887   3.913   2.700  12.744 -0.5519 -1.9535 -0.8147
15132TIP3    H266888   4.037   2.666  12.825  0.6295 -0.8243 -2.0906
15133TIP3   OH266889   0.137   2.562  13.913 -0.0719  0.1823  0.1894
15133TIP3    H166890   0.097   2.476  13.898  2.1394 -0.8496 -0.1054
15133TIP3    H266891   0.211   2.565  13.852 -0.8221  2.8544 -0.7309
15134TIP3   OH266892   4.394   0.285  14.153  0.2949 -0.4177 -0.2502
15134TIP3    H166893   4.443   0.365  14.132  0.5085 -0.6246 -0.5637
15134TIP3    H266894   4.462   0.223  14.179  0.1426 -0.5327 -0.1333
15135TIP3   OH266895   2.718   0.059   2.010  0.7491 -0.7505  0.9251
15135TIP3    H166896   2.793   0.027   1.959  0.3400 -2.0765  1.0996
15135TIP3    H266897   2.757   0.098   2.089  1.3763  1.1354 -0.2576
15136TIP3   OH266898   5.218   0.140   0.670 -0.2375 -0.3922 -0.3435
15136TIP3    H166899   5.149   0.098   0.618 -0.1267 -1.4742  0.3521
15136TIP3    H266900   5.176   0.159   0.754 -0.2280  0.7440 -0.5780
15137TIP3   OH266901   0.412   1.269  12.782 -0.7725 -0.8062  0.2198
15137TIP3    H166902   0.496   1.306  12.754 -0.7023 -2.6061 -2.2765
15137TIP3    H266903   0.376   1.230  12.703 -1.5061 -4.6931  2.2129
15138TIP3   OH266904   4.064   2.856  14.028  0.1038  0.3091 -0.1720
15138TIP3    H166905   4.144   2.870  13.977  0.1594  0.3347 -0.0784
15138TIP3    H266906   4.095   2.836  14.116  0.0320 -0.7381 -0.3815
15139TIP3   OH266907   2.050   2.593   2.756  0.0840  0.4908 -0.0535
15139TIP3    H166908   2.068   2.500   2.742 -0.3275  0.0955  1.8195
15139TIP3    H266909   2.058   2.632   2.669  0.5408 -1.2408 -0.8303
15140TIP3   OH266910   0.527   4.989   6.186  0.2244  0.1910 -0.2567
15140TIP3    H166911   0.604   5.045   6.178 -0.5391  1.5171  1.0944
15140TIP3    H266912   0.554   4.904   6.152  1.0587  1.6744 -3.6785
15141TIP3   OH266913   0.575   2.847   5.857  0.4590 -0.7510 -0.4679
15141TIP3    H166914   0.567   2.909   5.784  0.0595  0.9677  0.9689
15141TIP3    H266915   0.652   2.878   5.905 -1.4515  0.5903  1.9655
15142TIP3   OH266916   2.642   0.243  15.152  0.2738 -0.1192  0.3066
15142TIP3    H166917   2.549   0.235  15.176  0.2255  0.5195  0.3592
15142TIP3    H266918   2.689   0.213  15.230  0.1080  0.8405  0.7986
15143TIP3   OH266919   3.707   1.910  14.518  0.1564 -0.2375 -0.0927
15143TIP3    H166920   3.677   1.947  14.602  2.0300  1.1078  0.0420
15143TIP3    H266921   3.642   1.940  14.455 -0.1723  0.4758  0.5641
15144TIP3   OH266922   3.167   5.713   2.745  0.2858 -0.1246 -0.2247
15144TIP3    H166923   3.188   5.764   2.823 -2.9638 -0.3034  0.9076
15144TIP3    H266924   3.171   5.622   2.775 -3.6526 -0.1773  0.7581
15145TIP3   OH266925   5.893   1.404  11.772  0.1525  0.0078 -0.5881
15145TIP3    H166926   5.873   1.372  11.684 -2.9216  0.5648 -0.1995
15145TIP3    H266927   5.949   1.336  11.809 -0.2875 -1.3325 -2.2316
15146TIP3   OH266928   5.211   5.560  15.396  0.3336 -0.3436  0.4160
15146TIP3    H166929   5.205   5.630  15.332 -0.1537 -2.6373 -2.2327
15146TIP3    H266930   5.124   5.553  15.434  0.0523 -0.2751 -0.2085
15147TIP3   OH266931   5.809   3.294   3.540  0.9576  0.3933  0.6330
15147TIP3    H166932   5.786   3.346   3.617 -0.4539  0.6772  0.0533
15147TIP3    H266933   5.781   3.205   3.561 -1.5915  0.8570 -0.3380
15148TIP3   OH266934   1.013   0.940   1.986 -0.1543  0.2985  0.4583
15148TIP3    H166935   0.978   0.979   1.906 -0.9003  0.8671  1.0535
15148TIP3    H266936   1.049   0.855   1.957 -0.2164  0.5853 -0.5069
15149TIP3   OH266937   1.324   3.384  14.619  0.4111  0.1585  0.1270
15149TIP3    H166938   1.399   3.342  14.661  0.5818  1.3283  1.0533
15149TIP3    H266939   1.363   3.447  14.558  0.1785 -2.0151 -2.4516
15150TIP3   OH266940   0.198   1.270   4.579 -0.0168 -0.6957 -0.7746
15150TIP3    H166941   0.221   1.207   4.647 -0.1889 -0.2494 -0.2997
15150TIP3    H266942   0.281   1.292   4.537 -0.0396 -1.7986 -1.4513
15151TIP3   OH266943   6.768   6.470  13.104 -0.0160  0.1691  0.5749
15151TIP3    H166944   6.734   6.461  13.193 -1.1098 -0.5426  0.1058
15151TIP3    H266945   6.788   6.380  13.077 -1.4493  0.1543 -0.5531
15152TIP3   OH266946   5.057   2.755   6.073 -0.2470  0.0412 -0.9298
15152TIP3    H166947   5.136   2.701   6.076 -1.2442 -1.5253 -1.7293
15152TIP3    H266948   5.048   2.790   6.162  0.3785 -1.2106 -0.3611
15153TIP3   OH266949   1.898   3.518  15.437  0.2883  0.1601  0.0628
15153TIP3    H166950   1.978   3.481  15.400 -0.1040 -0.5211 -0.1199
15153TIP3    H266951   1.858   3.445  15.484  0.0321  0.6319  0.5869
15154TIP3   OH266952   3.695   3.303   1.334  0.2882  0.0914  0.3395
15154TIP3    H166953   3.780   3.273   1.302  0.0592  2.2049 -2.6371
15154TIP3    H266954   3.656   3.225   1.375  2.2271 -1.8823 -1.3298
15155TIP3   OH266955   5.143   4.313  13.197  0.3823  0.3241 -0.1220
15155TIP3    H166956   5.147   4.246  13.129  1.0122  0.1937  0.0350
15155TIP3    H266957   5.214   4.290  13.257 -0.7630 -0.1199  1.1059
15156TIP3   OH266958   6.265   6.334   0.276  0.2756  0.3067 -0.2726
15156TIP3    H166959   6.267   6.271   0.204 -0.8552 -1.3405  1.0701
15156TIP3    H266960   6.355   6.335   0.309  0.1294 -1.2674  0.2233
15157TIP3   OH266961   1.522   5.903  12.184 -0.4746 -0.2054 -0.0800
15157TIP3    H166962   1.587   5.852  12.232  0.2278  0.2065 -0.5773
15157TIP3    H266963   1.551   5.993  12.193 -1.2275  0.0263  0.0597
15158TIP3   OH266964   4.064   1.600  15.678  0.2206  0.1693 -0.2142
15158TIP3    H166965   4.107   1.671  15.725 -1.9369  0.4283  1.5655
15158TIP3    H266966   4.104   1.520  15.711  0.0059  0.4364  0.7132
15159TIP3   OH266967   6.762   5.104  15.968 -0.0160 -0.3122  0.2664
15159TIP3    H166968   6.793   5.181  16.016 -1.0608 -0.6980  1.6180
15159TIP3    H266969   6.782   5.123  15.876  1.3928  0.7620  0.7548
15160TIP3   OH266970   4.570   4.622  11.235 -0.6622  0.1002  0.2677
15160TIP3    H166971   4.511   4.596  11.164 -1.1906  1.3110  0.2414
15160TIP3    H266972   4.516   4.675  11.293  0.4533  1.5814  0.0372
15161TIP3   OH266973   6.717   3.263  14.435 -0.0052  0.7167 -0.2975
15161TIP3    H166974   6.801   3.243  14.476  1.2104 -0.1066 -2.9727
15161TIP3    H266975   6.661   3.188  14.454  0.4019  0.5364  0.1729
15162TIP3   OH266976   2.859   3.522   0.552 -0.7276 -0.1080  0.3229
15162TIP3    H166977   2.926   3.576   0.510 -1.3402  0.7267  0.3952
15162TIP3    H266978   2.904   3.440   0.574 -0.4092 -0.6433 -2.0651
15163TIP3   OH266979   2.262   4.442   3.385 -0.1310  0.6973 -0.3136
15163TIP3    H166980   2.175   4.443   3.344 -0.3552 -1.4369 -0.0054
15163TIP3    H266981   2.310   4.373   3.339  1.6469  2.2269 -0.8776
15164TIP3   OH266982   0.973   5.419   5.834 -0.4550  0.6984 -0.1889
15164TIP3    H166983   0.903   5.372   5.878  1.8272  1.3661  4.9167
15164TIP3    H266984   1.026   5.350   5.793 -0.0819 -0.7886  2.5395
15165TIP3   OH266985   1.354   2.404  12.997  0.6611  0.4678 -0.3777
15165TIP3    H166986   1.337   2.373  13.086  0.9779  2.0647  0.2786
15165TIP3    H266987   1.275   2.381  12.948  0.1126  0.3490  0.5450
15166TIP3   OH266988   6.589   2.004  10.808 -0.0916  0.4092  0.0823
15166TIP3    H166989   6.636   2.044  10.734 -0.4353  2.2063  0.7642
15166TIP3    H266990   6.512   1.963  10.768  1.3386 -1.4232 -0.8856
15167TIP3   OH266991   4.630   5.093  11.456  0.3569  0.2689 -0.0238
15167TIP3    H166992   4.565   5.163  11.456  0.5248  0.4412 -0.6693
15167TIP3    H266993   4.616   5.045  11.537  0.0448  0.8760  0.2825
15168TIP3   OH266994   6.275   6.173  14.497 -0.5252 -0.2920 -0.1380
15168TIP3    H166995   6.339   6.146  14.563 -3.3613 -1.9214  2.1882
15168TIP3    H266996   6.328   6.192  14.419  2.9657  0.8933  2.2477
15169TIP3   OH266997   3.601   1.639   1.245  0.3648 -0.2326  0.2491
15169TIP3    H166998   3.524   1.607   1.292 -0.8643  1.5337 -0.4803
15169TIP3    H266999   3.671   1.636   1.311 -0.4743 -1.1579  1.1464
15170TIP3   OH267000   6.176   0.700  11.810 -0.0479  0.2364 -0.2187
15170TIP3    H167001   6.249   0.762  11.816 -0.4843  0.6366  1.4269
15170TIP3    H267002   6.098   0.754  11.818 -0.4631 -0.4397  0.3854
15171TIP3   OH267003   1.442   3.028   0.477 -0.4027 -0.2441  0.0081
15171TIP3    H167004   1.364   2.983   0.509 -1.4853  0.6473 -1.2553
15171TIP3    H267005   1.454   2.995   0.388  0.6977 -0.3865  0.1928
15172TIP3   OH267006   0.919   3.025   5.778  0.5194 -0.1524  0.3403
15172TIP3    H167007   1.014   3.022   5.785  0.5172 -3.0675  0.3461
15172TIP3    H267008   0.888   3.004   5.866 -0.1990  1.8537  0.6132
15173TIP3   OH267009   2.939   4.582   3.509 -0.1690  0.1365 -0.0769
15173TIP3    H167010   2.894   4.498   3.497  1.2004 -0.2435 -4.2249
15173TIP3    H267011   3.015   4.560   3.563 -0.9054 -0.8018  0.6225
15174TIP3   OH267012   3.198   4.699   0.926  0.3297 -0.0452  0.1828
15174TIP3    H167013   3.134   4.761   0.962  0.3448  0.2694 -0.3212
15174TIP3    H267014   3.147   4.620   0.908  0.1340  0.1151  0.0236
15175TIP3   OH267015   5.905   2.532  15.663 -0.4081  0.1693  0.4861
15175TIP3    H167016   5.855   2.493  15.591 -0.1866  1.7091 -0.5476
15175TIP3    H267017   5.849   2.521  15.740 -0.7700 -1.2605  0.0474
15176TIP3   OH267018   0.400   0.864  13.400  0.0050 -0.2044 -0.4548
15176TIP3    H167019   0.409   0.828  13.489 -1.2973 -1.2360 -0.7034
15176TIP3    H267020   0.472   0.825  13.351 -0.4748 -1.2884 -0.3291
15177TIP3   OH267021   1.528   3.763   2.099  0.1395  0.3268  0.3785
15177TIP3    H167022   1.488   3.844   2.131  0.9209  0.7178  0.3934
15177TIP3    H267023   1.466   3.728   2.035  1.2181  2.6314 -2.0998
15178TIP3   OH267024   5.802   4.239  11.417 -0.5018 -0.1337 -0.4654
15178TIP3    H167025   5.779   4.295  11.492  0.6820  0.7071 -0.6972
15178TIP3    H267026   5.737   4.260  11.351 -1.4309 -0.7245  0.2357
15179TIP3   OH267027   3.567   0.675  11.522 -0.6851 -0.2297  0.1690
15179TIP3    H167028   3.661   0.689  11.528 -0.4381 -2.2376  3.2400
15179TIP3    H267029   3.558   0.589  11.481 -1.0527 -0.7408  1.2704
15180TIP3   OH267030   1.832   6.547  15.019 -0.4231 -0.9492  0.2147
15180TIP3    H167031   1.745   6.532  15.055 -0.4840 -0.7658  0.1434
15180TIP3    H267032   1.879   6.465  15.034 -0.6737 -1.1208  0.0651
15181TIP3   OH267033   1.071   5.787   4.244  0.4800  0.4247  0.1547
15181TIP3    H167034   1.142   5.844   4.216 -0.1467  1.5972  0.8564
15181TIP3    H267035   1.100   5.750   4.327  0.3995  0.6575  0.2866
15182TIP3   OH267036   5.316   2.129   0.787 -0.2814 -0.5222 -0.7355
15182TIP3    H167037   5.244   2.113   0.848  0.2985 -0.9125 -0.1548
15182TIP3    H267038   5.350   2.043   0.766  0.2265 -0.3212 -0.7559
15183TIP3   OH267039   5.042   1.243   4.120  0.5209  0.1857 -0.0342
15183TIP3    H167040   4.967   1.240   4.179  0.8320 -1.8232  0.3348
15183TIP3    H267041   5.097   1.169   4.147  1.5657  0.3012 -1.6912
15184TIP3   OH267042   2.809   4.198  13.454  0.3431 -0.0064  0.4978
15184TIP3    H167043   2.856   4.276  13.482 -1.9182  1.5503  0.1984
15184TIP3    H267044   2.737   4.189  13.516  1.0183 -2.4059  1.0487
15185TIP3   OH267045   0.989   0.858  16.570 -0.2627 -0.6724 -1.0112
15185TIP3    H167046   1.047   0.784  16.587 -0.0100  0.0192  1.6043
15185TIP3    H267047   1.037   0.934  16.602 -2.5317 -0.0812  1.3241
15186TIP3   OH267048   5.857   6.291   3.607  0.1503  0.4079 -0.0392
15186TIP3    H167049   5.838   6.370   3.557  1.5440 -0.0662 -1.4285
15186TIP3    H267050   5.833   6.219   3.547 -1.0984 -0.2372  1.1919
15187TIP3   OH267051   5.579   3.683  14.132  0.1234 -0.0632  0.0193
15187TIP3    H167052   5.560   3.754  14.194  1.1602 -0.0891  0.3874
15187TIP3    H267053   5.660   3.711  14.089  0.0006 -0.5649 -0.5425
15188TIP3   OH267054   4.084   3.787  14.429 -0.0902  0.3053 -0.7013
15188TIP3    H167055   4.040   3.751  14.352 -1.0957  1.9683 -0.9608
15188TIP3    H267056   4.073   3.882  14.420  0.8435  0.5930  0.8762
15189TIP3   OH267057   4.712   3.711   1.330 -0.5055  0.3754  0.0519
15189TIP3    H167058   4.727   3.802   1.354  0.9212  0.2981 -0.4407
15189TIP3    H267059   4.798   3.679   1.301 -1.2377 -0.7516 -1.0043
15190TIP3   OH267060   4.521   1.179  16.431 -0.6281 -0.0345  0.0811
15190TIP3    H167061   4.457   1.125  16.385 -0.1607 -1.9748  1.5821
15190TIP3    H267062   4.600   1.175  16.377 -0.8057 -0.2956 -0.1595
15191TIP3   OH267063   2.676   1.936  16.294  0.1922  0.3790  0.1496
15191TIP3    H167064   2.629   1.985  16.361  2.5619  0.2547  2.0545
15191TIP3    H267065   2.751   1.990  16.272  1.0769 -0.9172 -0.1629
15192TIP3   OH267066   2.277   6.841  14.524  0.1206  0.4468  0.2734
15192TIP3    H167067   2.309   6.931  14.527  1.4673  0.0588 -1.1972
15192TIP3    H267068   2.223   6.832  14.603 -0.9700  2.8525 -0.1116
15193TIP3   OH267069   3.385   3.104  10.738  0.2434  0.3170 -0.3125
15193TIP3    H167070   3.322   3.111  10.666 -0.4757  1.8614  0.4047
15193TIP3    H267071   3.463   3.067  10.698 -0.9520 -1.2096 -1.3401
15194TIP3   OH267072   6.242   2.743  11.582  1.0817  0.4690  0.1234
15194TIP3    H167073   6.169   2.804  11.568 -0.7086 -1.4897  0.3079
15194TIP3    H267074   6.315   2.782  11.535 -0.5535  1.7290 -1.5684
15195TIP3   OH267075   3.106   2.342   2.621 -0.0365 -0.2033 -0.2499
15195TIP3    H167076   3.027   2.305   2.582 -0.5777 -0.4139  1.0083
15195TIP3    H267077   3.152   2.267   2.658 -0.5373  0.2042  1.2523
15196TIP3   OH267078   3.670   1.618  14.024 -0.2773 -0.3728 -0.1974
15196TIP3    H167079   3.575   1.613  14.038 -0.2534  1.0856  0.6236
15196TIP3    H267080   3.697   1.697  14.070  1.3571 -0.7784 -0.4023
15197TIP3   OH267081   1.056   1.192  15.359 -0.2468  0.0807  0.2914
15197TIP3    H167082   1.027   1.117  15.411 -0.8550  0.1870  0.1091
15197TIP3    H267083   1.005   1.265  15.393  1.9392  0.8923  2.0270
15198TIP3   OH267084   4.172   5.913  14.065  0.7622  0.7230 -0.2827
15198TIP3    H167085   4.256   5.957  14.049  1.5847  0.5613  2.9368
15198TIP3    H267086   4.162   5.854  13.991  3.8705  0.2426 -0.4485
15199TIP3   OH267087   2.673   5.652   1.159 -0.5699  0.9045 -0.2607
15199TIP3    H167088   2.714   5.583   1.211  0.3898  1.7475  0.1278
15199TIP3    H267089   2.675   5.730   1.215 -0.3671  1.5951 -1.2007
15200TIP3   OH267090   0.869   5.966   6.113  0.5187  0.0643 -0.5302
15200TIP3    H167091   0.951   5.944   6.069  1.0963  1.4775 -0.2139
15200TIP3    H267092   0.885   6.051   6.153 -0.8322 -0.0249  0.2659
15201TIP3   OH267093   6.536   4.812   3.431  0.2758 -0.3752 -0.0873
15201TIP3    H167094   6.488   4.775   3.506 -0.3658 -0.7076 -0.6537
15201TIP3    H267095   6.471   4.817   3.361  1.2631 -1.5845 -1.1331
15202TIP3   OH267096   5.368   2.735  16.137  0.2394  0.5763  0.1799
15202TIP3    H167097   5.277   2.752  16.163  0.3141  0.4540  0.5215
15202TIP3    H267098   5.406   2.823  16.125 -0.1456  0.6276 -0.7632
15203TIP3   OH267099   0.733   3.204   6.681  0.2514 -0.1781 -0.1173
15203TIP3    H167100   0.715   3.278   6.623 -0.9184  0.5582  1.1233
15203TIP3    H267101   0.825   3.214   6.705 -0.1149  1.4159  0.7293
15204TIP3   OH267102   1.385   4.479   1.488 -0.2710  0.1025  0.5074
15204TIP3    H167103   1.377   4.575   1.484 -0.1659  0.1136  0.5572
15204TIP3    H267104   1.304   4.447   1.448  0.9268  0.2056 -2.1749
15205TIP3   OH267105   0.529   1.052   3.934 -0.9378  0.3208  0.3321
15205TIP3    H167106   0.520   1.105   3.855 -0.2108  0.0989  0.0913
15205TIP3    H267107   0.599   1.095   3.984 -2.9964  1.9057  2.0472
15206TIP3   OH267108   2.940   1.254   1.858 -0.0438  0.5874 -0.0635
15206TIP3    H167109   2.917   1.192   1.788  0.9902  0.9370 -0.7474
15206TIP3    H267110   2.865   1.252   1.917 -0.8529  0.0945 -1.0588
15207TIP3   OH267111   0.381   0.128  15.673 -0.7224  0.5185 -0.5891
15207TIP3    H167112   0.361   0.044  15.715 -1.3643  0.7136 -0.4845
15207TIP3    H267113   0.438   0.173  15.735  0.8776 -0.4360 -1.3041
15208TIP3   OH267114   2.344   0.648  11.774  0.0612  0.5906  0.4193
15208TIP3    H167115   2.396   0.719  11.810  1.5356  0.6875 -1.6827
15208TIP3    H267116   2.364   0.573  11.830  3.2982  0.3974 -0.7822
15209TIP3   OH267117   5.248   5.308   0.398 -0.5127  0.1092  0.3956
15209TIP3    H167118   5.296   5.386   0.372 -1.7736  0.4727 -0.9181
15209TIP3    H267119   5.159   5.337   0.414 -0.5622 -0.7273  1.8908
15210TIP3   OH267120   0.541   1.009  14.531 -0.1857 -0.3413  0.3594
15210TIP3    H167121   0.568   0.989  14.441  0.6449  0.0863  0.5106
15210TIP3    H267122   0.527   1.104  14.532 -2.1922 -0.5810  0.1659
15211TIP3   OH267123   5.851   6.187  15.612  0.1664  0.5318 -0.1604
15211TIP3    H167124   5.868   6.258  15.673 -0.4216  0.0053  0.6355
15211TIP3    H267125   5.835   6.110  15.667  1.1976 -0.3321 -1.0101
15212TIP3   OH267126   5.253   0.996   5.189  0.0353 -0.4138 -0.2559
15212TIP3    H167127   5.263   0.904   5.212  2.1676 -0.8300 -2.4133
15212TIP3    H267128   5.339   1.034   5.208 -0.9281  1.2687  0.9707
15213TIP3   OH267129   3.567   0.111  16.603 -0.4656 -0.6481  0.2307
15213TIP3    H167130   3.637   0.048  16.624 -0.4365 -0.4957  0.6109
15213TIP3    H267131   3.605   0.167  16.535 -1.0736 -2.0455 -1.3012
15214TIP3   OH267132   3.205   6.200  16.037  0.0484 -0.2225 -0.0263
15214TIP3    H167133   3.271   6.235  15.978 -0.1627  0.1969 -0.0168
15214TIP3    H267134   3.142   6.271  16.048  1.1452  0.5019  2.3397
15215TIP3   OH267135   5.734   0.415   3.057  0.1986  0.0315  0.9575
15215TIP3    H167136   5.654   0.454   3.022  0.7176 -0.9946 -1.5567
15215TIP3    H267137   5.803   0.477   3.033  0.5015 -0.4537  0.5456
15216TIP3   OH267138   2.611   5.206  13.482 -0.0936 -0.0606  0.2291
15216TIP3    H167139   2.528   5.163  13.464  0.2458 -1.4139  1.6951
15216TIP3    H267140   2.630   5.183  13.573  2.4598 -0.7789 -0.4179
15217TIP3   OH267141   6.596   5.606  14.960 -0.7892  0.4986 -0.0057
15217TIP3    H167142   6.571   5.514  14.955  1.8252 -0.4143  1.4025
15217TIP3    H267143   6.532   5.646  15.018 -2.5654 -0.1258 -1.4474
15218TIP3   OH267144   0.078   4.306   2.409  0.1046  0.6449 -0.1341
15218TIP3    H167145   0.145   4.239   2.408  0.1854  0.7142 -1.4103
15218TIP3    H267146   0.002   4.265   2.450  0.4938  0.1303  0.0690
15219TIP3   OH267147   5.737   4.430  12.812  0.5700  0.3900  0.5869
15219TIP3    H167148   5.823   4.471  12.808  0.6918  0.1304  0.4719
15219TIP3    H267149   5.749   4.357  12.874  0.4763  0.2586  0.4510
15220TIP3   OH267150   2.353   6.051  10.030 -0.0362  0.0616 -1.3603
15220TIP3    H167151   2.411   6.019   9.962  0.4022 -0.7801 -0.6047
15220TIP3    H267152   2.266   6.022  10.003  0.3293 -1.6727 -0.7681
15221TIP3   OH267153   3.795   1.180   5.390  0.4781 -0.1537 -0.0935
15221TIP3    H167154   3.782   1.094   5.349  2.3829  0.9452 -3.3932
15221TIP3    H267155   3.738   1.239   5.340  2.1691  1.0933 -0.6359
15222TIP3   OH267156   1.855   6.166  10.839 -0.0444  0.6342  0.1019
15222TIP3    H167157   1.786   6.151  10.775 -1.6620  3.3422  1.0452
15222TIP3    H267158   1.905   6.239  10.804 -1.2943  2.5398  2.0252
15223TIP3   OH267159   3.590   4.354   6.393 -0.2742  0.3087  0.0285
15223TIP3    H167160   3.557   4.307   6.317  2.7437 -0.1862 -1.1214
15223TIP3    H267161   3.638   4.289   6.444  0.8724  1.3868  0.3743
15224TIP3   OH267162   1.633   3.927  11.792 -0.5394 -0.3756  0.7391
15224TIP3    H167163   1.669   3.840  11.774  0.4373  0.0043  0.7822
15224TIP3    H267164   1.539   3.913  11.797 -0.8069 -0.8401 -2.8716
15225TIP3   OH267165   0.768   6.176  14.955  0.1232  0.3027  0.7347
15225TIP3    H167166   0.859   6.146  14.959  0.0813 -0.1252 -0.8674
15225TIP3    H267167   0.717   6.096  14.943 -0.4791  0.5479  1.5565
15226TIP3   OH267168   6.379   4.344  13.202  0.2535  0.0171 -0.2027
15226TIP3    H167169   6.468   4.375  13.220  1.4908 -3.6800  0.8959
15226TIP3    H267170   6.337   4.341  13.287  0.2439 -1.3239 -0.2311
15227TIP3   OH267171   6.439   5.041   1.144  0.5641 -0.6021 -0.2269
15227TIP3    H167172   6.514   5.090   1.111  1.9643 -2.7806 -0.4325
15227TIP3    H267173   6.380   5.033   1.069 -0.4316  1.9471  0.1755
15228TIP3   OH267174   6.753   1.472  13.565  0.4215 -0.2629 -0.0356
15228TIP3    H167175   6.677   1.439  13.613  0.5459  2.0013  1.8954
15228TIP3    H267176   6.793   1.394  13.527 -2.5182 -1.6094 -0.7024
15229TIP3   OH267177   1.279   2.388   2.609  0.1643 -0.5523 -0.5329
15229TIP3    H167178   1.288   2.424   2.521  1.4925 -1.6259 -0.8608
15229TIP3    H267179   1.368   2.371   2.638 -0.1705  0.8243  1.5067
15230TIP3   OH267180   6.352   1.404  12.624  0.0240 -0.4600 -0.5816
15230TIP3    H167181   6.379   1.318  12.657  0.2608 -0.2718 -0.2798
15230TIP3    H267182   6.258   1.397  12.613  0.2399 -1.3089 -2.1717
15231TIP3   OH267183   3.799   3.096  16.956  0.2112  0.3067  0.5038
15231TIP3    H167184   3.749   3.082  16.876 -0.8322  3.1066  0.5356
15231TIP3    H267185   3.885   3.125  16.925 -0.1666  1.3137  0.3436
15232TIP3   OH267186   4.515   4.765  10.204  0.5425  0.1120  0.2758
15232TIP3    H167187   4.435   4.751  10.255  1.2322 -0.9933  1.0959
15232TIP3    H267188   4.532   4.859  10.212 -1.1904  0.5457 -0.7318
15233TIP3   OH267189   1.730   3.918   3.285  0.0626  0.3400  0.5687
15233TIP3    H167190   1.743   3.961   3.370 -0.3955  0.4691  0.5771
15233TIP3    H267191   1.724   3.825   3.307 -2.2965  0.5210  0.9820
15234TIP3   OH267192   5.949   4.693   4.667 -0.1215  0.1249  0.1970
15234TIP3    H167193   5.867   4.677   4.620  0.3079  0.8808 -0.8553
15234TIP3    H267194   5.942   4.784   4.696  0.7967  0.5819 -0.9099
15235TIP3   OH267195   4.714   3.781   5.000 -0.6342  0.3290 -0.2304
15235TIP3    H167196   4.767   3.860   4.987 -0.1939 -0.0355 -0.7850
15235TIP3    H267197   4.669   3.794   5.082  0.3878  0.6364  0.2997
15236TIP3   OH267198   0.470   3.155   3.830  0.3683 -0.7431 -0.6583
15236TIP3    H167199   0.452   3.248   3.843  0.6722 -0.7561 -0.0846
15236TIP3    H267200   0.556   3.152   3.788  0.6988 -0.7706 -0.0099
15237TIP3   OH267201   3.295   0.394  12.361  0.1440  0.0643 -0.0410
15237TIP3    H167202   3.234   0.320  12.355  0.0937  0.1316 -0.3562
15237TIP3    H267203   3.261   0.446  12.434 -1.4457  1.2346 -1.5438
15238TIP3   OH267204   1.873   1.421   0.010 -0.6070 -0.0104  0.2062
15238TIP3    H167205   1.946   1.458   0.060  0.8505 -0.1160 -1.7601
15238TIP3    H267206   1.889   1.448  -0.080 -0.8170 -3.3585 -0.9423
15239TIP3   OH267207   0.641   5.210  16.822 -0.6033 -0.3576 -0.4574
15239TIP3    H167208   0.590   5.167  16.753  1.3544  0.4905 -2.5556
15239TIP3    H267209   0.664   5.295  16.785 -1.7504  1.3263  2.3646
15240TIP3   OH267210   6.250   3.480  14.248  0.2643 -0.8026  0.1905
15240TIP3    H167211   6.177   3.420  14.267  0.2427 -1.2607 -1.1948
15240TIP3    H267212   6.324   3.442  14.295 -0.3493 -0.3669  1.5641
15241TIP3   OH267213   1.423   3.445  14.337 -0.0711 -0.2970  0.0790
15241TIP3    H167214   1.342   3.418  14.294 -0.1993  0.2795 -0.0566
15241TIP3    H267215   1.468   3.363  14.359 -0.7504 -0.6234  0.2743
15242TIP3   OH267216   4.599   0.579   6.032  0.4914  0.1858 -0.3734
15242TIP3    H167217   4.528   0.639   6.010 -0.3739 -1.1351 -1.3274
15242TIP3    H267218   4.585   0.557   6.124  0.1585  0.5618 -0.3317
15243TIP3   OH267219   1.638   3.631  16.415 -0.4614 -0.0686  0.6892
15243TIP3    H167220   1.587   3.551  16.419 -0.6927  0.1162  1.4522
15243TIP3    H267221   1.653   3.645  16.321 -2.6443  0.3963  0.3551
15244TIP3   OH267222   1.955   3.315  11.210  0.2143  0.1041 -0.4686
15244TIP3    H167223   1.861   3.325  11.224  0.2172 -0.6058  0.1291
15244TIP3    H267224   1.979   3.239  11.264  1.1699  0.4268 -0.4265
15245TIP3   OH267225   3.388   6.011  16.617 -0.1116 -0.1495  0.1535
15245TIP3    H167226   3.325   6.001  16.546  1.2759 -1.6450 -0.9292
15245TIP3    H267227   3.403   5.922  16.649  0.4003  0.3389  1.3300
15246TIP3   OH267228   3.358   2.009  15.851  0.0421 -0.1003 -0.2071
15246TIP3    H167229   3.341   1.951  15.777 -1.0242  0.5866 -0.5228
15246TIP3    H267230   3.417   2.076  15.816 -0.2389  0.0685 -0.3576
15247TIP3   OH267231   0.689   6.027   2.400 -0.1342 -0.0339  0.2283
15247TIP3    H167232   0.634   5.950   2.390 -1.1839  0.4267  1.9599
15247TIP3    H267233   0.659   6.068   2.481  0.9782  1.7236 -0.1793
15248TIP3   OH267234   4.980   4.666  15.160 -0.2151 -0.0663  0.1720
15248TIP3    H167235   4.959   4.710  15.243  0.3494 -0.3583  0.4771
15248TIP3    H267236   5.072   4.641  15.169  0.5419  1.9485 -1.4824
15249TIP3   OH267237   5.966   6.630   6.717  0.0751 -0.0715 -0.3024
15249TIP3    H167238   5.910   6.571   6.667 -0.2165  0.4461 -0.5942
15249TIP3    H267239   6.013   6.573   6.778  0.2361 -0.6791 -0.9808
15250TIP3   OH267240   5.689   5.019  11.782  0.5104 -0.5329 -0.1707
15250TIP3    H167241   5.671   4.926  11.772 -2.4239 -0.0956  0.0995
15250TIP3    H267242   5.663   5.058  11.699  0.6342  0.1847  0.1215
15251TIP3   OH267243   5.252   3.782   4.444  0.3713  0.5228  0.6131
15251TIP3    H167244   5.255   3.877   4.428 -0.6241  0.4264 -0.2335
15251TIP3    H267245   5.344   3.757   4.455  0.7142  1.4491 -0.0152
15252TIP3   OH267246   5.121   3.919   1.885 -0.0695  0.3039 -0.1436
15252TIP3    H167247   5.084   3.865   1.815 -0.9365  1.4519 -0.6130
15252TIP3    H267248   5.123   4.007   1.848  0.1406  0.8119  1.0353
15253TIP3   OH267249   4.662   5.055  10.928  0.3982 -0.7204 -0.0401
15253TIP3    H167250   4.669   5.023  11.017  1.9546  0.8981  0.4740
15253TIP3    H267251   4.572   5.089  10.922 -0.1358 -1.9879  0.4682
15254TIP3   OH267252   0.926   0.261  15.735 -0.0233 -0.3951 -0.2519
15254TIP3    H167253   0.980   0.196  15.780  0.1868 -1.7636 -2.3301
15254TIP3    H267254   0.974   0.343  15.742  1.1058 -1.0651  0.0184
15255TIP3   OH267255   0.561   3.429  11.028  0.1263  0.0737  0.4846
15255TIP3    H167256   0.630   3.479  10.985  0.9215 -1.6016 -0.2894
15255TIP3    H267257   0.502   3.495  11.064  2.7511  1.6106  2.2941
15256TIP3   OH267258   4.094   6.403  16.216  0.0014 -0.1445 -0.2052
15256TIP3    H167259   4.012   6.452  16.223 -0.2148 -0.6803  1.9376
15256TIP3    H267260   4.068   6.318  16.180  0.0702  0.5925 -2.0614
15257TIP3   OH267261   3.674   3.116  12.744  0.0263 -0.7314 -0.3654
15257TIP3    H167262   3.579   3.101  12.743  0.2845 -2.9522 -2.8170
15257TIP3    H267263   3.707   3.057  12.812 -0.2474 -0.8466 -0.3312
15258TIP3   OH267264   6.477   6.238   5.705 -0.3598  0.0610  0.0252
15258TIP3    H167265   6.518   6.282   5.779  0.0779 -0.8661  0.3470
15258TIP3    H267266   6.524   6.155   5.697 -1.5193 -0.5990 -0.2136
15259TIP3   OH267267   4.638   2.407  12.116  0.3112  0.0912  0.1930
15259TIP3    H167268   4.554   2.426  12.074 -0.2043 -0.4858  0.9353
15259TIP3    H267269   4.698   2.393  12.042 -0.4204 -0.2548 -0.3550
15260TIP3   OH267270   4.718   2.716  13.641 -0.2040  0.1646 -0.7213
15260TIP3    H167271   4.660   2.740  13.713 -1.2586 -1.7755 -0.8513
15260TIP3    H267272   4.669   2.739  13.562  0.9259  2.2347 -0.8989
15261TIP3   OH267273   5.958   0.006   6.533 -0.2231 -0.2819 -0.2666
15261TIP3    H167274   6.053   0.001   6.536 -0.2929 -2.9779  0.5092
15261TIP3    H267275   5.929  -0.057   6.600 -2.5081 -2.0270 -2.7125
15262TIP3   OH267276   4.908   1.374  14.856  0.0086  0.0639  0.2533
15262TIP3    H167277   4.840   1.404  14.796 -0.3351 -0.8262  0.1772
15262TIP3    H267278   4.970   1.327  14.800  1.2140  1.6600  0.1646
15263TIP3   OH267279   4.519   5.940  11.080 -0.2792  0.6792  0.2634
15263TIP3    H167280   4.520   5.906  11.169  0.9062  4.2745  1.8253
15263TIP3    H267281   4.428   5.966  11.066 -1.1715 -2.6100 -0.9080
15264TIP3   OH267282   6.525   1.419   4.849  0.0965  0.2708  0.3876
15264TIP3    H167283   6.466   1.440   4.777 -0.1582 -0.3718  0.3980
15264TIP3    H267284   6.469   1.378   4.915  0.4985 -0.0822  0.5158
15265TIP3   OH267285   0.622   5.791   5.385  0.2252 -0.4032  0.1342
15265TIP3    H167286   0.700   5.750   5.348 -0.0798 -1.4054  0.5876
15265TIP3    H267287   0.636   5.788   5.480 -0.3305 -0.5158  0.2140
15266TIP3   OH267288   0.994   2.950  11.435 -0.2891 -0.1866  0.2426
15266TIP3    H167289   1.010   2.953  11.341 -0.2249 -0.0701  0.2569
15266TIP3    H267290   1.054   2.882  11.468  0.2684  0.3276  0.3119
15267TIP3   OH267291   5.928   0.117   4.703 -0.3020  0.8121  0.2828
15267TIP3    H167292   6.004   0.137   4.649 -0.5854 -0.2687 -0.5261
15267TIP3    H267293   5.940   0.026   4.729 -0.4982  1.1192  1.5286
15268TIP3   OH267294   4.219   1.744  12.669  0.4917 -0.2188  0.3141
15268TIP3    H167295   4.277   1.761  12.594  0.5096  0.0980  0.3962
15268TIP3    H267296   4.277   1.706  12.735  1.1611  2.2031  1.2599
15269TIP3   OH267297   5.898   4.986   0.036  0.1473 -0.0447 -0.4454
15269TIP3    H167298   5.971   5.006  -0.023  0.4473 -0.3049 -0.1641
15269TIP3    H267299   5.918   4.899   0.071 -1.6434 -1.3509 -2.4169
15270TIP3   OH267300   1.116   2.879  12.687  0.2233 -0.0423 -0.3547
15270TIP3    H167301   1.161   2.932  12.621  0.9346 -0.1783  0.0044
15270TIP3    H267302   1.068   2.814  12.637 -1.1230  1.2634 -0.8308
15271TIP3   OH267303   3.200   1.840   3.152  0.1031 -0.2336  0.4023
15271TIP3    H167304   3.247   1.865   3.073  1.7591 -1.3912  0.9428
15271TIP3    H267305   3.125   1.790   3.121 -0.4137  1.0513 -0.4732
15272TIP3   OH267306   3.498   5.102   0.052  0.4506  0.3030  0.1202
15272TIP3    H167307   3.463   5.094  -0.037  1.7569  0.5171 -0.4255
15272TIP3    H267308   3.493   5.195   0.072 -1.8433  0.0325  1.1403
15273TIP3   OH267309   5.049   1.102   5.037 -0.0627  0.3531  0.1532
15273TIP3    H167310   4.987   1.030   5.022 -0.5950  0.4388  1.7177
15273TIP3    H267311   5.133   1.059   5.049 -0.3187 -0.0019  0.7527
15274TIP3   OH267312   5.189   0.117   5.248 -0.6295 -0.2717 -0.4648
15274TIP3    H167313   5.217   0.203   5.279 -1.0250  0.2013 -1.4051
15274TIP3    H267314   5.121   0.091   5.310 -0.3110 -0.0397 -0.0115
15275TIP3   OH267315   4.268   4.837   4.720 -0.0287 -0.4643  0.1591
15275TIP3    H167316   4.282   4.926   4.754  1.1576 -0.5810  0.0059
15275TIP3    H267317   4.287   4.780   4.794 -1.9563 -0.5877  0.6178
15276TIP3   OH267318   0.005   4.526  13.663  0.1560  0.1832 -0.1943
15276TIP3    H167319  -0.049   4.516  13.741  0.8776  1.4814  0.5219
15276TIP3    H267320   0.086   4.565  13.696  0.5977  0.4615 -1.5571
15277TIP3   OH267321   3.886   1.889  10.834 -0.3512  0.3139  0.1326
15277TIP3    H167322   3.920   1.891  10.923 -0.7453  0.5627  0.2769
15277TIP3    H267323   3.894   1.979  10.803 -0.1422  0.2117 -0.1096
15278TIP3   OH267324   4.389   3.538  15.333  0.3000 -0.1164  0.0334
15278TIP3    H167325   4.483   3.533  15.316  0.0606 -0.0930 -1.4646
15278TIP3    H267326   4.370   3.632  15.335  0.4259 -0.1090  1.1002
15279TIP3   OH267327   3.892   2.537  13.853  0.0155 -0.0065  0.0806
15279TIP3    H167328   3.896   2.443  13.837  0.7936 -0.0441  0.4290
15279TIP3    H267329   3.972   2.556  13.902  0.1782  0.9376 -0.5262
15280TIP3   OH267330   5.703   5.203   0.872 -0.5015 -1.0979  0.1316
15280TIP3    H167331   5.710   5.293   0.841 -2.9634 -0.4043  1.2581
15280TIP3    H267332   5.674   5.212   0.963 -0.1835 -3.0305  0.4659
15281TIP3   OH267333   3.598   3.902   2.236  0.5121  0.0387  0.4782
15281TIP3    H167334   3.648   3.980   2.215 -0.5064  0.7204  0.5069
15281TIP3    H267335   3.566   3.869   2.152  0.1145  0.2325  0.5496
15282TIP3   OH267336   4.570   5.101  16.449  0.0699 -0.2764  0.0782
15282TIP3    H167337   4.571   5.021  16.501  0.5014 -0.3274 -0.0019
15282TIP3    H267338   4.637   5.157  16.489  1.6571 -0.9974 -1.4482
15283TIP3   OH267339   2.188   2.961   2.834 -0.3174 -0.0425  0.0155
15283TIP3    H167340   2.207   2.936   2.924 -0.2157 -1.2976 -0.3432
15283TIP3    H267341   2.225   3.049   2.826  2.8739 -1.2236  0.2073
15284TIP3   OH267342   6.111   4.936  12.770 -0.4821 -0.2161 -0.7332
15284TIP3    H167343   6.105   4.998  12.697 -1.9260 -0.7345 -1.0803
15284TIP3    H267344   6.076   4.983  12.845 -1.1710 -0.4516 -0.9006
15285TIP3   OH267345   5.115   4.039   3.557 -0.0598 -0.1507  0.1707
15285TIP3    H167346   5.025   4.070   3.573  0.3380 -0.0503  2.4798
15285TIP3    H267347   5.160   4.116   3.522 -0.6609  0.0377 -0.2130
15286TIP3   OH267348   6.455   5.076  17.011  0.1552 -0.5994 -0.3392
15286TIP3    H167349   6.476   4.984  16.997 -0.7022 -0.8446 -0.0753
15286TIP3    H267350   6.538   5.116  17.038  0.1990 -1.6439  1.2112
15287TIP3   OH267351   5.391   3.774   1.074  0.2485  0.2898 -0.5365
15287TIP3    H167352   5.391   3.840   1.005  1.8546 -0.9532 -1.8160
15287TIP3    H267353   5.362   3.694   1.031  0.7524 -0.3978  0.3585
15288TIP3   OH267354   3.231   5.576  13.286  0.2001  0.2851 -0.4238
15288TIP3    H167355   3.198   5.570  13.375  0.4315  0.2546 -0.3406
15288TIP3    H267356   3.309   5.631  13.292  0.1226  0.4225 -0.6328
15289TIP3   OH267357   3.851   0.074   5.482  0.1410  0.0487  0.1226
15289TIP3    H167358   3.929   0.091   5.430  2.7377 -1.4566  3.1394
15289TIP3    H267359   3.837  -0.020   5.476 -2.6219  0.4596 -1.6926
15290TIP3   OH267360   5.124   5.080  14.713 -0.2114  0.1343  0.3647
15290TIP3    H167361   5.135   5.154  14.773  1.7168  0.0865  0.1267
15290TIP3    H267362   5.149   5.003  14.764 -0.9034 -0.2019  0.2079
15291TIP3   OH267363   0.577   2.479   4.693  0.2359 -0.1671 -0.4140
15291TIP3    H167364   0.603   2.441   4.777  1.3927  2.6601  0.6465
15291TIP3    H267365   0.641   2.549   4.677 -0.9768  0.5165 -2.7982
15292TIP3   OH267366   3.518   0.785  13.186 -0.4094 -0.1311 -0.0039
15292TIP3    H167367   3.551   0.782  13.275 -0.2578  1.5133  0.0191
15292TIP3    H267368   3.512   0.878  13.165 -0.6134 -0.4772 -1.6500
15293TIP3   OH267369   6.641   1.984  16.019 -0.3745 -0.6836 -0.0821
15293TIP3    H167370   6.559   1.966  16.064 -0.6735 -1.6327 -0.9653
15293TIP3    H267371   6.660   2.076  16.038 -2.6382  0.1224 -1.4193
15294TIP3   OH267372   2.573   5.285  15.639 -0.4740  0.0906  0.4884
15294TIP3    H167373   2.525   5.216  15.595 -0.0428  0.0351  0.1055
15294TIP3    H267374   2.650   5.301  15.584 -0.8650  1.2779  0.2533
15295TIP3   OH267375   0.800   2.858   2.802  0.4098  0.4722  0.7631
15295TIP3    H167376   0.880   2.808   2.787  0.5475  1.3816 -2.1643
15295TIP3    H267377   0.729   2.801   2.771 -0.6294 -1.3689  5.5368
15296TIP3   OH267378   6.541   3.793  12.727  0.0265 -0.2375 -0.1042
15296TIP3    H167379   6.476   3.744  12.776  0.1389 -0.5335 -0.2465
15296TIP3    H267380   6.619   3.737  12.727 -0.3087 -0.7483 -1.5436
15297TIP3   OH267381   4.571   3.240  15.163  0.7806 -0.4026 -0.4491
15297TIP3    H167382   4.484   3.273  15.140  0.4969 -1.0363 -0.2997
15297TIP3    H267383   4.583   3.163  15.108  0.5223 -1.3301  0.7677
15298TIP3   OH267384   4.159   5.351   5.360  0.2508 -0.5332 -0.1013
15298TIP3    H167385   4.234   5.341   5.419  1.6470  1.0581 -1.4705
15298TIP3    H267386   4.169   5.279   5.297 -0.4732 -1.4287  0.7770
15299TIP3   OH267387   4.480   3.413  10.679  0.0405  0.1145  0.0750
15299TIP3    H167388   4.498   3.507  10.681 -1.6206  0.4840 -0.6178
15299TIP3    H267389   4.479   3.390  10.586  0.2661 -0.5523  0.2318
15300TIP3   OH267390   0.886   1.240  16.609 -0.3368 -0.1734  0.5841
15300TIP3    H167391   0.894   1.160  16.660  0.0074 -0.4644  0.0706
15300TIP3    H267392   0.897   1.213  16.518 -1.3100  0.2922  0.3151
15301TIP3   OH267393   3.163   0.343   1.604 -0.0576  0.1274  0.4944
15301TIP3    H167394   3.213   0.321   1.682  1.4894  0.3067 -0.4145
15301TIP3    H267395   3.228   0.348   1.534 -1.3701  0.1936 -0.7721
15302TIP3   OH267396   4.361   1.954  16.344  0.0904 -0.3848 -0.4657
15302TIP3    H167397   4.361   1.864  16.377  1.5240 -0.4933 -0.7239
15302TIP3    H267398   4.391   2.007  16.418  0.2690 -0.2417 -0.6411
15303TIP3   OH267399   5.552   2.306   2.595  0.4538 -0.4104 -0.6063
15303TIP3    H167400   5.463   2.281   2.570 -0.4990  0.9386  1.2267
15303TIP3    H267401   5.548   2.319   2.690  2.1964  1.2242 -0.6912
15304TIP3   OH267402   2.048   4.273  13.105 -0.6550  0.4518 -0.2553
15304TIP3    H167403   2.127   4.289  13.157 -0.8600 -1.5117  0.7478
15304TIP3    H267404   2.014   4.361  13.087  1.9372  1.3913 -1.0763
15305TIP3   OH267405   0.717   4.970   2.836  0.1287  0.2501 -0.2183
15305TIP3    H167406   0.664   5.010   2.905  0.4239 -1.0454  0.8042
15305TIP3    H267407   0.769   5.042   2.801 -0.3845  1.0288  0.5836
15306TIP3   OH267408   4.437   4.424  12.569  0.2669 -0.7594 -0.0427
15306TIP3    H167409   4.376   4.465  12.629 -1.6153  0.1023 -2.3944
15306TIP3    H267410   4.387   4.356  12.525  1.2416 -0.6371 -1.4167
15307TIP3   OH267411   0.389   2.918   2.630  0.0503  0.1558  0.1810
15307TIP3    H167412   0.327   2.844   2.631 -0.2244  0.3549  1.7699
15307TIP3    H267413   0.446   2.900   2.556  0.0058 -1.6912  0.5240
15308TIP3   OH267414   5.572   0.743   2.996  0.2643 -0.5603  0.1823
15308TIP3    H167415   5.591   0.689   2.919  1.0349  0.5666 -0.4367
15308TIP3    H267416   5.655   0.748   3.043  0.6936  1.4915 -0.6876
15309TIP3   OH267417   4.931   1.085   2.994  0.2516 -0.2361  0.0725
15309TIP3    H167418   4.933   1.020   3.065 -1.5836  0.7125  1.0569
15309TIP3    H267419   4.860   1.056   2.937 -0.2643  0.6365  0.2610
15310TIP3   OH267420   4.544   6.604  13.491  0.2956 -0.0583  0.2011
15310TIP3    H167421   4.598   6.571  13.563 -0.2659 -1.5116 -0.0117
15310TIP3    H267422   4.542   6.533  13.428  0.5776  1.1058 -1.1734
15311TIP3   OH267423   6.171   6.677  14.875  0.6346  0.5727 -0.0812
15311TIP3    H167424   6.146   6.712  14.790  0.7920 -0.1538 -0.4380
15311TIP3    H267425   6.257   6.716  14.893  0.2813  1.2875  0.0869
15312TIP3   OH267426   4.010   2.097  13.897  0.1598  0.6488  0.3439
15312TIP3    H167427   3.919   2.127  13.908  0.2641  1.4633 -0.8155
15312TIP3    H267428   4.057   2.176  13.869  1.0453  0.0201  0.0444
15313TIP3   OH267429   4.680   5.800   4.366  0.0622  0.1806  0.1461
15313TIP3    H167430   4.696   5.722   4.420  1.4577  0.7236  0.5695
15313TIP3    H267431   4.712   5.873   4.419  1.8193  0.7038 -1.5283
15314TIP3   OH267432   5.186   0.639  15.575 -0.0342 -0.1316 -0.7561
15314TIP3    H167433   5.258   0.702  15.577  0.5206 -0.7590 -0.7098
15314TIP3    H267434   5.179   0.608  15.665  0.6984 -1.2549 -1.0766
15315TIP3   OH267435   4.029   2.661   3.247 -0.4229  0.0896  0.1670
15315TIP3    H167436   3.942   2.700   3.262 -0.2758  0.4802  0.0269
15315TIP3    H267437   4.088   2.736   3.240  0.4043 -0.2086  2.9472
15316TIP3   OH267438   1.692   4.091   2.835  0.5793  0.4588  0.5952
15316TIP3    H167439   1.768   4.088   2.777 -0.5631  1.3307 -1.0252
15316TIP3    H267440   1.727   4.121   2.919  1.7321  3.0368 -0.7048
15317TIP3   OH267441   3.307   1.209  13.965  0.5604 -0.3585 -0.4269
15317TIP3    H167442   3.251   1.267  14.017 -0.0233 -0.4269 -0.9612
15317TIP3    H267443   3.384   1.195  14.020 -1.0395 -2.3605  1.5596
15318TIP3   OH267444   0.233   0.363   3.701  0.2436  0.1684 -0.0717
15318TIP3    H167445   0.289   0.379   3.626 -0.4392 -2.1822 -1.1722
15318TIP3    H267446   0.294   0.342   3.772  0.8181  0.2384 -0.5390
15319TIP3   OH267447   1.874   5.960   4.732  0.8166  0.1820  0.2235
15319TIP3    H167448   1.888   6.044   4.776  1.9391  0.0867  0.0814
15319TIP3    H267449   1.786   5.967   4.695  0.7293  1.1296  0.5765
15320TIP3   OH267450   1.098   0.492  12.328 -0.6144  0.1883  0.0849
15320TIP3    H167451   1.044   0.468  12.252 -0.4157 -0.7673  0.2436
15320TIP3    H267452   1.069   0.434  12.398  2.2586 -2.1495 -0.4713
15321TIP3   OH267453   3.001   1.917   5.434  0.1331  0.4736  1.0165
15321TIP3    H167454   2.961   2.004   5.436  0.0125  0.4541 -0.1271
15321TIP3    H267455   2.953   1.869   5.367  1.1182 -0.0153  0.6273
15322TIP3   OH267456   3.188   4.067   0.141 -0.3636  0.2612  0.6912
15322TIP3    H167457   3.180   3.996   0.077  0.7191  0.4943  0.2913
15322TIP3    H267458   3.137   4.139   0.104  0.8063  0.6331 -0.2731
15323TIP3   OH267459   3.699   5.210   2.506 -0.1600 -0.1872 -0.2349
15323TIP3    H167460   3.785   5.252   2.508 -0.8158  1.2090  1.4422
15323TIP3    H267461   3.678   5.195   2.599 -1.8556 -0.1841 -0.5877
15324TIP3   OH267462   2.177   2.783   3.353  0.0127  0.1116 -0.0549
15324TIP3    H167463   2.137   2.715   3.407  0.2451 -0.1812 -0.2448
15324TIP3    H267464   2.199   2.738   3.271 -2.1667  0.9785 -1.2127
15325TIP3   OH267465   2.072   3.964  10.543 -0.1477 -0.6212  0.4608
15325TIP3    H167466   2.080   3.871  10.524 -1.2674 -0.2606 -2.3418
15325TIP3    H267467   2.157   4.001  10.517 -0.1312 -0.7228  0.3684
15326TIP3   OH267468   2.785   2.681  11.547 -0.0171  0.5441  0.0955
15326TIP3    H167469   2.811   2.704  11.636 -1.5302  0.5678  0.5697
15326TIP3    H267470   2.723   2.750  11.521 -0.2026  0.1079 -0.6681
15327TIP3   OH267471   5.807   2.265   3.964  0.0231 -0.1021 -0.3973
15327TIP3    H167472   5.782   2.308   3.882  1.2504  1.8603  0.1748
15327TIP3    H267473   5.725   2.253   4.010 -0.7649 -1.7522 -2.0854
15328TIP3   OH267474   3.137   4.151  12.097 -0.5917  0.3533 -0.1704
15328TIP3    H167475   3.110   4.218  12.160 -1.8497 -1.2203  1.0593
15328TIP3    H267476   3.075   4.160  12.024 -0.1495  1.1276 -0.4588
15329TIP3   OH267477   2.715   5.978   3.893  0.1082 -0.9906  0.3174
15329TIP3    H167478   2.669   5.901   3.926  0.9155 -1.0154  1.4605
15329TIP3    H267479   2.657   6.013   3.825 -1.0701 -1.6199  0.9555
15330TIP3   OH267480   0.314   5.077  14.434  0.2350  0.0242  0.2849
15330TIP3    H167481   0.219   5.069  14.428  0.1773  0.1654  1.0136
15330TIP3    H267482   0.332   5.168  14.411  0.5833 -0.9292 -4.1951
15331TIP3   OH267483   5.658   2.238   2.222 -0.2117 -0.3418 -0.3578
15331TIP3    H167484   5.729   2.281   2.175  1.2052 -0.8882  1.1771
15331TIP3    H267485   5.631   2.166   2.164 -0.0013  0.2670 -1.2379
15332TIP3   OH267486   6.525   3.825   5.635  0.2498  0.3074 -0.5060
15332TIP3    H167487   6.565   3.738   5.633 -1.1910 -0.3786 -0.8046
15332TIP3    H267488   6.571   3.870   5.706 -0.4161 -1.4494  1.1458
15333TIP3   OH267489   5.249   5.959  14.282 -0.2883  0.0055  0.1619
15333TIP3    H167490   5.197   5.882  14.306 -0.6715  0.0380 -0.5086
15333TIP3    H267491   5.326   5.923  14.239 -0.6857 -0.0056 -0.5628
15334TIP3   OH267492   4.235   4.903  15.927 -0.0533 -0.0757  0.9545
15334TIP3    H167493   4.294   4.951  15.986 -1.1889 -0.1256  2.1923
15334TIP3    H267494   4.166   4.872  15.985 -0.3543 -1.5503 -0.1663
15335TIP3   OH267495   4.650   2.866   3.878 -1.0584 -0.1430 -0.4049
15335TIP3    H167496   4.649   2.856   3.973  1.5511 -1.1195 -0.4160
15335TIP3    H267497   4.722   2.926   3.860  0.3483 -2.1348 -1.8559
15336TIP3   OH267498   0.346   6.549  14.934 -0.4177  0.0402  0.5651
15336TIP3    H167499   0.396   6.570  14.856  0.0747 -1.4459  0.4386
15336TIP3    H267500   0.412   6.525  15.000 -0.8789 -0.0590  1.0031
15337TIP3   OH267501   3.756   2.798   6.011 -0.0257  0.4450 -0.3563
15337TIP3    H167502   3.850   2.777   6.014 -0.0678  0.1956 -0.7797
15337TIP3    H267503   3.722   2.764   6.094  0.2157  0.3276 -0.3044
15338TIP3   OH267504   4.378   0.300  15.825  0.2500 -0.1856  0.0612
15338TIP3    H167505   4.400   0.384  15.865 -0.1950 -0.0062 -0.0575
15338TIP3    H267506   4.357   0.322  15.734  3.0097 -0.8112 -0.8203
15339TIP3   OH267507   3.827   4.064  11.441 -0.1875  0.3093  0.1237
15339TIP3    H167508   3.873   4.004  11.499 -0.3614 -0.1178 -0.1750
15339TIP3    H267509   3.895   4.124  11.408  0.2182 -0.4999 -0.5458
15340TIP3   OH267510   6.229   2.101   2.851  0.8831 -0.3702  0.1851
15340TIP3    H167511   6.191   2.013   2.845 -3.7838  1.3077  0.7604
15340TIP3    H267512   6.224   2.123   2.945 -0.1066  1.2067 -0.1967
15341TIP3   OH267513   3.018   4.517  14.729 -0.1404  0.0575 -0.2316
15341TIP3    H167514   2.995   4.499  14.638 -0.7330  1.2110 -0.3250
15341TIP3    H267515   2.935   4.535  14.772  0.2725  1.0865  0.1653
15342TIP3   OH267516   2.562   1.821   0.345 -0.6435 -0.0147 -0.1357
15342TIP3    H167517   2.523   1.839   0.430 -0.6739  1.0539 -0.3594
15342TIP3    H267518   2.656   1.828   0.359 -0.5243 -1.9749  0.2658
15343TIP3   OH267519   5.049   5.351   3.308 -0.2538  0.3328 -0.6330
15343TIP3    H167520   5.056   5.433   3.260  0.2152  1.0660  0.6315
15343TIP3    H267521   5.125   5.350   3.366 -0.2952 -0.9583 -0.5731
15344TIP3   OH267522   3.891   0.963   1.446  0.5351  0.1184 -0.5455
15344TIP3    H167523   3.801   0.947   1.475  0.0562  0.1506 -1.9513
15344TIP3    H267524   3.921   1.036   1.501 -0.7446  0.9573 -0.9220
15345TIP3   OH267525   1.350   5.860  15.748  0.3315 -0.3155 -0.2678
15345TIP3    H167526   1.271   5.878  15.800  1.1002 -0.3721  0.9560
15345TIP3    H267527   1.327   5.785  15.694 -1.2114  1.0668 -1.6450
15346TIP3   OH267528   1.444   5.047   4.000 -0.6173 -0.6492 -0.2017
15346TIP3    H167529   1.517   5.037   4.063 -1.2641 -2.8844  0.3056
15346TIP3    H267530   1.397   5.125   4.030  1.6980  1.0477 -0.7284
15347TIP3   OH267531   6.755   3.700   3.090  0.5115 -0.3584 -0.5330
15347TIP3    H167532   6.664   3.672   3.098  0.5036 -0.2932 -0.3937
15347TIP3    H267533   6.753   3.775   3.032  0.4123 -0.0293 -0.1089
15348TIP3   OH267534   3.518   1.459   6.023 -0.4262  0.0602 -0.0113
15348TIP3    H167535   3.518   1.369   5.989  2.9882  0.5166 -1.5646
15348TIP3    H267536   3.522   1.449   6.118  1.3906 -1.4958 -0.2061
15349TIP3   OH267537   2.927   6.660  16.083 -0.3063  0.7285 -0.3911
15349TIP3    H167538   2.866   6.681  16.153  0.2137  0.5594  0.1149
15349TIP3    H267539   2.995   6.726  16.089  0.7451 -0.3912  0.4946
15350TIP3   OH267540   1.109   5.942   1.894 -0.1568 -0.7451  0.6168
15350TIP3    H167541   1.045   6.005   1.927 -1.0958 -2.0939  1.4542
15350TIP3    H267542   1.165   5.993   1.836 -0.9995  0.8159  1.1268
15351TIP3   OH267543   3.929   2.470   4.841 -0.0481 -0.1408  0.4779
15351TIP3    H167544   3.896   2.508   4.760  1.9564 -0.1341 -0.3942
15351TIP3    H267545   3.851   2.453   4.893 -1.5918 -1.7790 -2.1375
15352TIP3   OH267546   2.059   4.295   6.517  0.3631 -0.0023 -0.1711
15352TIP3    H167547   2.139   4.281   6.465 -0.1629  0.4685 -1.1411
15352TIP3    H267548   2.081   4.369   6.574  0.2785  0.8612 -1.2241
15353TIP3   OH267549   5.573   2.517  11.158 -0.6204 -0.2662 -0.0783
15353TIP3    H167550   5.571   2.584  11.227  0.0476 -0.1296 -0.1899
15353TIP3    H267551   5.632   2.552  11.092  0.8309 -1.5682  0.4848
15354TIP3   OH267552   5.651   0.908  11.726 -0.4629 -0.1646  0.1124
15354TIP3    H167553   5.638   0.815  11.707  0.0228 -0.5539  1.6145
15354TIP3    H267554   5.636   0.952  11.641 -2.0354 -1.4654 -0.3334
15355TIP3   OH267555   4.712   4.792   0.914 -0.9060 -0.0199 -0.0367
15355TIP3    H167556   4.638   4.742   0.878 -1.8554  1.7843 -0.7228
15355TIP3    H267557   4.680   4.882   0.918  2.0567  1.3530 -2.7810
15356TIP3   OH267558   4.368   2.230   4.002 -0.6639 -0.4230  0.0400
15356TIP3    H167559   4.303   2.226   3.932  1.2076 -0.8092 -1.7926
15356TIP3    H267560   4.421   2.151   3.990  0.8983  0.4696  0.6335
15357TIP3   OH267561   6.566   3.903   3.488  0.3555  0.4542  0.0110
15357TIP3    H167562   6.630   3.886   3.557 -0.7043 -0.5947  0.7793
15357TIP3    H267563   6.567   3.824   3.434 -1.8396 -0.5959  1.3483
15358TIP3   OH267564   6.704   5.413   3.610 -0.1638 -0.1021 -0.1141
15358TIP3    H167565   6.643   5.449   3.675 -0.3848 -0.6246 -0.0308
15358TIP3    H267566   6.784   5.394   3.660 -0.6012 -1.2513  0.1809
15359TIP3   OH267567   2.438   2.831  13.216 -0.2033 -0.5662 -0.0751
15359TIP3    H167568   2.396   2.762  13.267 -0.1581  0.4394  1.3554
15359TIP3    H267569   2.417   2.912  13.261  1.8384  0.1382 -0.2686
15360TIP3   OH267570   6.170   1.029   4.550  0.0743  0.5161 -0.1490
15360TIP3    H167571   6.122   1.008   4.471 -0.4110  2.3134 -0.3899
15360TIP3    H267572   6.252   1.066   4.520 -0.8726  3.0082  0.0340
15361TIP3   OH267573   3.551   5.907  16.172 -0.2154  0.7114 -0.1948
15361TIP3    H167574   3.556   5.993  16.214  0.9700  0.6512 -0.1860
15361TIP3    H267575   3.504   5.923  16.090 -0.5155  1.2503  0.0727
15362TIP3   OH267576   5.462   1.575   2.084 -0.1434  0.9482  0.4321
15362TIP3    H167577   5.382   1.617   2.116  0.6913  1.3821  2.0589
15362TIP3    H267578   5.510   1.645   2.040  0.0304  1.0535  0.7889
15363TIP3   OH267579   6.155   3.928   4.494  0.3642 -0.7351 -0.6144
15363TIP3    H167580   6.083   3.865   4.487 -1.3013  0.9519  0.3603
15363TIP3    H267581   6.200   3.904   4.575 -1.2687  0.2376  0.6385
15364TIP3   OH267582   5.551   1.450  14.073 -0.1767 -0.6669 -0.0897
15364TIP3    H167583   5.458   1.439  14.055 -0.0416 -1.0827 -0.5704
15364TIP3    H267584   5.590   1.466  13.987  0.2173 -0.6848  0.0834
15365TIP3   OH267585   4.263   5.461   3.123  0.5287  0.4345 -0.2969
15365TIP3    H167586   4.333   5.462   3.188  0.2533 -1.4260  0.0962
15365TIP3    H267587   4.183   5.468   3.174  0.3253 -0.6940 -0.4296
15366TIP3   OH267588   6.362   4.031  14.241 -0.0623  0.5460 -0.1636
15366TIP3    H167589   6.343   3.938  14.238  0.4079  0.4831 -1.4755
15366TIP3    H267590   6.372   4.057  14.150 -2.9922  2.4740 -0.0689
15367TIP3   OH267591   3.341   6.111   5.044  0.0894 -0.5383  0.1959
15367TIP3    H167592   3.385   6.190   5.073  1.8033 -1.9303  1.5375
15367TIP3    H267593   3.411   6.054   5.013 -1.2312 -1.0537 -2.1078
15368TIP3   OH267594   3.418   1.305   1.483 -0.2800 -0.1026  0.0979
15368TIP3    H167595   3.356   1.232   1.489 -0.4919  0.1945  3.0126
15368TIP3    H267596   3.369   1.374   1.438 -1.5932 -0.3994  1.0042
15369TIP3   OH267597   0.890   4.956  13.475  0.2693 -0.2008 -0.7594
15369TIP3    H167598   0.887   4.874  13.525  1.3944 -1.0374 -1.9870
15369TIP3    H267599   0.939   5.016  13.532 -0.1884 -0.4946 -0.0311
15370TIP3   OH267600   3.128   3.928   4.620 -0.5047  0.2912 -0.2371
15370TIP3    H167601   3.056   3.959   4.675 -1.4681 -2.5469  0.2590
15370TIP3    H267602   3.160   3.849   4.664 -0.7271 -1.6339 -3.2316
15371TIP3   OH267603   6.578   1.749   3.077  0.6926  0.2514  0.5620
15371TIP3    H167604   6.642   1.689   3.116  0.7044 -0.2192 -0.1694
15371TIP3    H267605   6.511   1.759   3.145  0.6560 -0.6491  0.6822
15372TIP3   OH267606   2.902   5.479   1.689 -0.2882  0.3141 -0.3900
15372TIP3    H167607   2.811   5.488   1.663 -0.3356  1.2430  0.0698
15372TIP3    H267608   2.939   5.567   1.680 -0.2353  0.6744  2.4086
15373TIP3   OH267609   2.142   2.281   0.629 -0.0608  0.0466 -0.1860
15373TIP3    H167610   2.238   2.288   0.622  0.0444  0.6406  1.4160
15373TIP3    H267611   2.126   2.189   0.650  0.2476  0.1481  0.5275
15374TIP3   OH267612   3.425   1.852   4.285  0.0072  0.1084 -0.1968
15374TIP3    H167613   3.339   1.873   4.320  0.0773 -0.7009  0.5065
15374TIP3    H267614   3.477   1.931   4.300 -0.3775  0.2943  0.1689
15375TIP3   OH267615   0.723   5.090   4.584 -0.0761 -0.1494  0.3117
15375TIP3    H167616   0.705   5.180   4.556  0.9062 -0.0395  0.0097
15375TIP3    H267617   0.640   5.060   4.621  0.1579  1.6398  2.4809
15376TIP3   OH267618   3.720   4.144   3.030  0.0155  0.1405  0.1956
15376TIP3    H167619   3.652   4.084   3.061  1.3044 -0.9942  0.9571
15376TIP3    H267620   3.706   4.149   2.936 -2.1396  1.2953  0.4956
15377TIP3   OH267621   2.220   6.829   3.444 -0.5919 -0.4039  0.6036
15377TIP3    H167622   2.194   6.775   3.519 -3.2406  0.4894  0.3988
15377TIP3    H267623   2.297   6.783   3.408 -2.1428 -3.5805  0.9491
15378TIP3   OH267624   2.732   0.915   5.000  0.5423 -0.0063 -0.4040
15378TIP3    H167625   2.672   0.989   5.011  0.6849  0.3125 -1.6869
15378TIP3    H267626   2.814   0.954   4.970 -0.0924 -0.8343 -3.5699
15379TIP3   OH267627   2.270   1.868  11.404 -0.3354 -0.9606  0.1350
15379TIP3    H167628   2.303   1.818  11.329  0.0146 -0.1937 -0.2339
15379TIP3    H267629   2.288   1.959  11.381 -0.1277 -0.7257  1.1986
15380TIP3   OH267630   2.253   6.009  13.258  0.0674  0.1111 -0.6548
15380TIP3    H167631   2.247   6.017  13.163 -2.0254  2.3232 -0.4504
15380TIP3    H267632   2.162   6.008  13.288  0.6409 -1.9674  1.3010
15381TIP3   OH267633   1.961   1.442  15.207  0.0762  0.0012 -0.7659
15381TIP3    H167634   2.051   1.412  15.198  0.6761  1.0148  1.2109
15381TIP3    H267635   1.959   1.526  15.160  0.1134 -0.0942 -0.9398
15382TIP3   OH267636   3.137   4.508   4.021  0.5569 -0.0179  0.1341
15382TIP3    H167637   3.204   4.576   4.020  1.5341 -0.9515 -0.5329
15382TIP3    H267638   3.055   4.554   4.006  1.1443  1.0519  0.1302
15383TIP3   OH267639   0.988   5.835   1.560 -0.7337 -0.3267  0.3885
15383TIP3    H167640   0.935   5.866   1.633 -1.0374 -0.1932  0.1132
15383TIP3    H267641   0.943   5.867   1.482 -0.1538 -0.0593  0.1553
15384TIP3   OH267642   4.871   2.851   0.300  0.1849 -0.8458 -0.3748
15384TIP3    H167643   4.903   2.767   0.267  1.4853 -1.0772  1.3791
15384TIP3    H267644   4.946   2.891   0.345 -0.6485  0.8625 -0.3907
15385TIP3   OH267645   0.938   4.845  15.913  0.4243  0.1754  0.2067
15385TIP3    H167646   0.874   4.879  15.851 -0.6379 -1.3570  0.4153
15385TIP3    H267647   1.000   4.795  15.858 -0.0772 -0.5400  0.2836
15386TIP3   OH267648   0.192   6.032   0.181  0.3730 -0.2282  0.2080
15386TIP3    H167649   0.282   6.044   0.211 -0.0530 -0.3964  1.6358
15386TIP3    H267650   0.188   5.941   0.153  0.3506 -0.5596  1.2636
15387TIP3   OH267651   4.176   1.534  12.394 -0.7696  0.3509  0.3071
15387TIP3    H167652   4.256   1.588  12.400  0.0986 -0.8027 -0.4674
15387TIP3    H267653   4.105   1.594  12.416  0.1881  1.7576 -0.2764
15388TIP3   OH267654   6.329   2.618  13.359  0.8310 -0.1604  0.1907
15388TIP3    H167655   6.345   2.665  13.277  2.5943  0.2217  0.6994
15388TIP3    H267656   6.318   2.687  13.425  2.6092 -0.3948  0.7953
15389TIP3   OH267657   0.500   5.642  11.451 -0.3178  0.2405 -0.3003
15389TIP3    H167658   0.442   5.592  11.395 -1.1423 -1.6443  2.0886
15389TIP3    H267659   0.466   5.732  11.447  0.0169  0.3398 -3.1357
15390TIP3   OH267660   3.213   5.848   5.347  0.2751  0.3223 -0.1541
15390TIP3    H167661   3.121   5.856   5.372  0.1974 -0.3331 -0.2310
15390TIP3    H267662   3.256   5.919   5.394 -0.2031  0.3891  0.1939
15391TIP3   OH267663   4.875   5.051   3.461 -0.2570  0.2474 -0.4410
15391TIP3    H167664   4.828   5.079   3.382 -0.0203  0.9339 -0.3468
15391TIP3    H267665   4.882   5.131   3.514 -1.7079 -0.4780  0.9500
15392TIP3   OH267666   3.103   3.780   3.524 -0.3102 -0.8915  0.3840
15392TIP3    H167667   3.194   3.760   3.546  1.9090  3.9770 -2.6058
15392TIP3    H267668   3.080   3.854   3.581 -1.0993  0.1284 -1.1920
15393TIP3   OH267669   5.644   0.147  13.811  0.9373  0.4343 -0.3732
15393TIP3    H167670   5.655   0.165  13.718 -4.1448  1.4470 -1.0666
15393TIP3    H267671   5.598   0.063  13.815  0.7077  0.6000  1.1887
15394TIP3   OH267672   3.194   1.448   5.977  0.2473 -0.3528  0.2593
15394TIP3    H167673   3.279   1.486   5.959 -0.2447  0.5757 -0.1935
15394TIP3    H267674   3.197   1.422   6.069  0.2861  1.7056  0.8819
15395TIP3   OH267675   1.783   0.749  11.417  0.0117 -0.3647 -0.0041
15395TIP3    H167676   1.707   0.742  11.359 -0.9984  0.5320  1.1633
15395TIP3    H267677   1.857   0.720  11.363 -1.1074 -1.0262 -1.2442
15396TIP3   OH267678   0.651   4.547   1.079  0.4166 -0.5044  0.0272
15396TIP3    H167679   0.680   4.573   0.991  0.3530 -3.8309 -1.0977
15396TIP3    H267680   0.577   4.489   1.064  0.2928 -1.0294  2.3044
15397TIP3   OH267681   1.334   0.975  11.990  0.3021 -0.5052 -0.0689
15397TIP3    H167682   1.314   1.033  12.063  1.5509 -1.0587  0.7469
15397TIP3    H267683   1.296   0.891  12.014 -1.4878 -0.0908 -1.2429
15398TIP3   OH267684   2.552   2.300  14.017 -0.1356 -0.2583 -0.8014
15398TIP3    H167685   2.645   2.309  13.995  0.6725 -3.0376  0.9489
15398TIP3    H267686   2.509   2.284  13.932  1.2575 -0.5595 -1.4863
15399TIP3   OH267687   1.902   2.501   0.278 -0.3219  0.5702 -0.5251
15399TIP3    H167688   1.901   2.567   0.347  0.1312  0.1411 -0.0971
15399TIP3    H267689   1.927   2.420   0.323  1.9552  0.6564 -1.4633
15400TIP3   OH267690   5.324   5.216   2.206  0.2187  0.5975  0.3800
15400TIP3    H167691   5.375   5.146   2.165  0.1732  1.4210 -1.1497
15400TIP3    H267692   5.343   5.208   2.299  1.7142 -0.2487  0.0326
15401TIP3   OH267693   4.165   4.072   6.322 -0.4193  0.0066  0.3599
15401TIP3    H167694   4.180   3.987   6.363  2.2309 -0.5448 -1.4187
15401TIP3    H267695   4.108   4.053   6.247 -0.7008 -0.0146  0.5805
15402TIP3   OH267696   3.911   5.402   3.045  0.1615 -0.0929  0.7643
15402TIP3    H167697   3.893   5.460   2.971  0.3334  1.7397  2.1070
15402TIP3    H267698   3.877   5.448   3.121 -0.4714 -2.1697  1.7976
15403TIP3   OH267699   5.995   3.891   0.644 -0.3159  0.2542  0.4558
15403TIP3    H167700   6.046   3.811   0.653  0.5088  0.6800 -0.2355
15403TIP3    H267701   6.019   3.925   0.558 -0.3460  1.4317  0.8890
15404TIP3   OH267702   5.777   3.755  14.481  0.0847  1.1089 -0.0804
15404TIP3    H167703   5.746   3.806  14.556 -0.9435  1.6175 -0.8404
15404TIP3    H267704   5.702   3.750  14.422  0.4504 -0.4900 -0.4522
15405TIP3   OH267705   0.679   1.892   4.418  0.2485  0.3059  0.1965
15405TIP3    H167706   0.709   1.895   4.509  0.3998  1.2750  0.1207
15405TIP3    H267707   0.715   1.809   4.384  0.9118  0.3456  0.7681
15406TIP3   OH267708   6.335   1.076  11.919  0.3735  0.6237  0.2273
15406TIP3    H167709   6.384   1.138  11.973  1.2206  1.1418 -1.0864
15406TIP3    H267710   6.381   0.993  11.930 -0.9386  0.0669  2.2287
15407TIP3   OH267711   3.594   2.909  12.499 -0.2340 -0.8848 -0.1971
15407TIP3    H167712   3.596   2.976  12.566 -0.8194  0.6224 -1.6158
15407TIP3    H267713   3.684   2.903  12.468 -0.6341  1.5179 -2.1267
15408TIP3   OH267714   6.369   2.584  13.701 -0.5684  0.0408  0.3763
15408TIP3    H167715   6.383   2.671  13.663 -0.6180 -1.0570 -2.3671
15408TIP3    H267716   6.277   2.565  13.684 -0.6191 -0.4649  1.1651
15409TIP3   OH267717   5.307   0.345   5.359  0.3975  0.1618 -0.1612
15409TIP3    H167718   5.303   0.395   5.441 -0.1617  1.0369 -0.6912
15409TIP3    H267719   5.312   0.413   5.291  0.2121 -0.5349 -0.8768
15410TIP3   OH267720   6.646   2.417   5.034  0.0182  0.0038 -0.0315
15410TIP3    H167721   6.731   2.372   5.036  0.0162 -0.1421 -1.6422
15410TIP3    H267722   6.642   2.456   4.947 -1.1023  0.9551  0.4232
15411TIP3   OH267723   1.875   2.886  12.789  0.3167 -0.4758 -0.2164
15411TIP3    H167724   1.841   2.923  12.708  0.8409 -0.3268 -0.3749
15411TIP3    H267725   1.960   2.929  12.802  1.1858 -1.9362 -0.6684
15412TIP3   OH267726   6.092   5.321   0.949  0.1563  0.4698 -0.2934
15412TIP3    H167727   6.175   5.292   0.911 -0.3007 -0.7185 -0.4145
15412TIP3    H267728   6.090   5.279   1.035 -0.9678 -0.7068 -0.8622
15413TIP3   OH267729   1.273   4.297  14.499  0.0257  0.0758 -0.0676
15413TIP3    H167730   1.263   4.213  14.455  3.1161  0.8656 -2.6318
15413TIP3    H267731   1.204   4.352  14.461  0.0378 -0.4097 -0.8241
15414TIP3   OH267732   0.869   4.324  10.866  0.0980 -0.0844 -0.6442
15414TIP3    H167733   0.887   4.274  10.786 -1.8136 -0.3329 -0.9783
15414TIP3    H267734   0.789   4.373  10.846  0.5283  1.1552  0.5577
15415TIP3   OH267735   4.660   0.147  15.097  0.0351  0.3092  0.3217
15415TIP3    H167736   4.623   0.172  15.181 -2.2039  1.2143 -0.8631
15415TIP3    H267737   4.751   0.123  15.117 -0.4255  0.5042  2.9575
15416TIP3   OH267738   4.320   4.122   0.028 -0.5203  0.1095  0.1818
15416TIP3    H167739   4.283   4.194  -0.022  0.5741 -0.7013 -1.9312
15416TIP3    H267740   4.249   4.058   0.036 -0.5177 -0.0565 -1.0169
15417TIP3   OH267741   6.454   2.502  16.557  0.1922  0.3637 -1.1172
15417TIP3    H167742   6.496   2.555  16.489  0.1069  0.0760 -1.3959
15417TIP3    H267743   6.361   2.510  16.539  0.1396  0.6943 -0.7277
15418TIP3   OH267744   5.069   5.881  14.646  0.3510  0.7401 -0.0430
15418TIP3    H167745   4.988   5.873  14.596  0.8246  0.1899 -0.7448
15418TIP3    H267746   5.108   5.963  14.614 -0.2045  1.3131  0.7208
15419TIP3   OH267747   1.758   0.365   2.839  0.1507 -0.3637  0.0045
15419TIP3    H167748   1.811   0.396   2.912 -0.1850  0.9836 -0.2993
15419TIP3    H267749   1.821   0.322   2.781  0.5322 -0.7862  0.7135
15420TIP3   OH267750   3.841   2.650   4.661  0.0529 -0.3593 -0.2310
15420TIP3    H167751   3.794   2.728   4.631  0.3123 -0.5114 -1.0408
15420TIP3    H267752   3.933   2.674   4.657  0.1093 -0.5181  0.0630
15421TIP3   OH267753   6.305   2.933  17.028 -0.0754  0.5517  0.1600
15421TIP3    H167754   6.282   2.960  16.940 -0.0938  0.1154  0.0301
15421TIP3    H267755   6.269   3.002  17.084 -0.6974  0.4658 -0.1212
15422TIP3   OH267756   0.920   3.814  12.414 -0.7258  0.2879  0.3374
15422TIP3    H167757   0.904   3.770  12.498 -1.9605  1.8766  0.9869
15422TIP3    H267758   0.938   3.905  12.438  2.7362  0.0485 -0.9030
15423TIP3   OH267759   2.346   3.102  12.717  0.0027  0.3684  0.0001
15423TIP3    H167760   2.413   3.121  12.782  0.7543  1.5186 -1.0613
15423TIP3    H267761   2.292   3.181  12.715  0.5913  0.7537 -1.4668
15424TIP3   OH267762   1.431   1.356  11.002  0.1986 -0.0240  0.3279
15424TIP3    H167763   1.347   1.394  11.025 -0.0169  0.5350 -1.2827
15424TIP3    H267764   1.482   1.361  11.083 -0.7885  1.0433  0.9209
15425TIP3   OH267765   4.223   2.826  12.978 -0.1876 -0.5058  0.0056
15425TIP3    H167766   4.187   2.912  12.957 -0.5632 -0.2959  1.3944
15425TIP3    H267767   4.252   2.834  13.068  1.7618 -1.2194 -0.5187
15426TIP3   OH267768   5.590   5.777  16.668  0.5168  0.5500 -0.9388
15426TIP3    H167769   5.553   5.849  16.618 -1.8003  0.7776  0.9148
15426TIP3    H267770   5.645   5.730  16.606 -2.2164  0.7449 -3.7626
15427TIP3   OH267771   2.250   0.814  14.655 -0.0385 -0.1691  0.0500
15427TIP3    H167772   2.329   0.864  14.634 -1.4300  1.1924 -2.3369
15427TIP3    H267773   2.178   0.874  14.637 -1.7043 -1.7919  0.9241
15428TIP3   OH267774   4.761   2.041   0.136  0.0850 -0.5342 -0.6384
15428TIP3    H167775   4.797   2.128   0.153  2.0721 -1.5911  1.0826
15428TIP3    H267776   4.734   2.010   0.223 -1.1993 -1.3947 -1.3279
15429TIP3   OH267777   4.680   4.865  16.561 -0.2383  0.4187  0.1331
15429TIP3    H167778   4.733   4.871  16.640  1.5962 -2.2038 -0.7600
15429TIP3    H267779   4.674   4.771  16.543 -4.7665  0.5197 -0.2192
15430TIP3   OH267780   0.018   1.309  14.350 -0.2133  0.4958  0.4708
15430TIP3    H167781   0.092   1.363  14.321 -0.1277 -0.1557 -0.5604
15430TIP3    H267782  -0.057   1.368  14.345  0.0199  0.7779  0.2315
15431TIP3   OH267783   0.632   2.908   4.953  0.4503  0.8331 -0.3272
15431TIP3    H167784   0.574   2.979   4.924  1.4457  1.7176 -0.2291
15431TIP3    H267785   0.632   2.915   5.049 -0.3430 -0.0445 -0.2561
15432TIP3   OH267786   2.096   5.064  14.826  0.1119 -0.0013 -0.1301
15432TIP3    H167787   2.076   5.008  14.900  0.4917 -0.5798 -0.4565
15432TIP3    H267788   2.149   5.010  14.768  0.1019  0.5476 -0.6700
15433TIP3   OH267789   3.166   4.288   3.569 -0.7026 -0.1450 -0.0773
15433TIP3    H167790   3.155   4.383   3.559  0.3001 -0.1316 -1.2299
15433TIP3    H267791   3.188   4.276   3.661  0.4993  0.8909 -0.2130
15434TIP3   OH267792   0.611   6.539  15.055 -0.2577 -0.3993 -0.3202
15434TIP3    H167793   0.674   6.520  14.986 -1.2583 -0.8915 -1.1327
15434TIP3    H267794   0.661   6.532  15.136  1.1099  0.9205 -1.0115
15435TIP3   OH267795   2.281   5.068  12.550  0.2728  0.6017  0.0004
15435TIP3    H167796   2.194   5.035  12.571  0.1618  0.8200 -0.1215
15435TIP3    H267797   2.268   5.158  12.523  0.3227  0.1511 -1.6309
15436TIP3   OH267798   2.569   0.772   4.154  0.0377 -0.6292 -0.4077
15436TIP3    H167799   2.644   0.823   4.124  0.8388 -0.6706  1.3830
15436TIP3    H267800   2.540   0.816   4.234 -3.1075  0.5178 -1.9765
15437TIP3   OH267801   6.666   4.242  11.887 -0.1042  0.0601 -0.0033
15437TIP3    H167802   6.599   4.302  11.854  0.0802 -0.0470 -0.5802
15437TIP3    H267803   6.729   4.298  11.933  0.5004  0.4259 -1.2389
15438TIP3   OH267804   0.040   0.409   5.626  0.3953 -0.5063  0.0154
15438TIP3    H167805  -0.022   0.359   5.680 -0.2457 -0.3839 -0.5920
15438TIP3    H267806   0.065   0.348   5.556  1.2680 -0.6851  0.4634
15439TIP3   OH267807   1.432   1.382   4.106  0.4901  0.1643  0.1848
15439TIP3    H167808   1.453   1.473   4.085 -1.2556  0.3886 -0.8124
15439TIP3    H267809   1.418   1.341   4.021  0.1066 -0.7250  0.6626
15440TIP3   OH267810   6.284   3.415   2.604  0.0997 -0.5669  0.7649
15440TIP3    H167811   6.280   3.381   2.694 -1.4830 -0.0769  0.9073
15440TIP3    H267812   6.195   3.405   2.570  0.4458  0.1395 -0.4207
15441TIP3   OH267813   2.931   0.813  17.039  0.3200  0.4673  0.2424
15441TIP3    H167814   2.847   0.845  17.008  0.7877  0.6347 -0.9002
15441TIP3    H267815   2.938   0.846  17.129 -1.0528 -0.0073  0.5395
15442TIP3   OH267816   0.926   3.737   5.466 -1.1134 -0.1956  0.2520
15442TIP3    H167817   0.930   3.642   5.465 -1.8772 -0.3383  3.2623
15442TIP3    H267818   0.856   3.759   5.527 -2.1023  2.3405 -1.5969
15443TIP3   OH267819   1.564   1.675  13.320 -0.2358 -0.0439 -0.4322
15443TIP3    H167820   1.535   1.694  13.410 -0.4605  2.1677 -0.9148
15443TIP3    H267821   1.650   1.716  13.314  0.2698 -1.1393 -0.9291
15444TIP3   OH267822   1.863   2.817  12.222  0.1282 -0.1888 -0.4578
15444TIP3    H167823   1.837   2.904  12.252 -0.8019  0.0234 -1.7939
15444TIP3    H267824   1.959   2.817  12.228  0.0241 -0.1276  2.2689
15445TIP3   OH267825   0.817   1.720   3.990  0.9292  0.1506 -0.1173
15445TIP3    H167826   0.825   1.626   4.009 -0.7585  0.0537  0.2469
15445TIP3    H267827   0.882   1.761   4.047 -0.3917 -0.5768  2.0491
15446TIP3   OH267828   6.642   1.097  13.451 -0.3443 -0.5031  0.5278
15446TIP3    H167829   6.627   1.057  13.366 -1.6560  1.7641 -0.4038
15446TIP3    H267830   6.729   1.136  13.445 -1.1876  1.3429 -0.5824
15447TIP3   OH267831   3.944   0.291  13.945 -0.5148  0.0366 -0.4547
15447TIP3    H167832   3.926   0.227  14.014  0.3369 -0.4150 -0.6252
15447TIP3    H267833   3.923   0.245  13.864  0.1392 -0.0565 -0.5812
15448TIP3   OH267834   1.983   1.370   4.289  0.5329 -0.6254  0.0999
15448TIP3    H167835   1.984   1.292   4.344 -0.3876  0.0414  1.1169
15448TIP3    H267836   1.891   1.382   4.265  0.5814  0.4104  0.3827
15449TIP3   OH267837   1.196   3.385  14.242 -0.9367 -0.2007  0.5337
15449TIP3    H167838   1.172   3.476  14.256 -1.2941 -0.0323 -1.0312
15449TIP3    H267839   1.124   3.349  14.189 -0.6687 -1.3232  0.9033
15450TIP3   OH267840   0.385   2.463  12.047 -0.1055  0.1666  0.1628
15450TIP3    H167841   0.371   2.478  12.140  3.1601  1.9588  0.5168
15450TIP3    H267842   0.328   2.525  12.003 -0.8554  0.0796  0.9941
15451TIP3   OH267843   3.122   3.093  15.258 -0.0303 -0.1282 -0.1657
15451TIP3    H167844   3.105   3.117  15.167 -0.9410  3.1003  0.7112
15451TIP3    H267845   3.072   3.013  15.272  1.0287 -1.3448 -2.7418
15452TIP3   OH267846   5.581   0.223  11.809 -0.3418  0.6873 -0.1953
15452TIP3    H167847   5.608   0.168  11.882 -1.9169 -0.1406 -0.1840
15452TIP3    H267848   5.502   0.180  11.775  0.4265  0.9418 -2.4981
15453TIP3   OH267849   6.312   0.618   5.942  0.7037 -0.0705 -0.5408
15453TIP3    H167850   6.390   0.563   5.932  0.5367 -0.4372  0.0980
15453TIP3    H267851   6.239   0.556   5.947  0.5413  0.1791  0.4519
15454TIP3   OH267852   0.496   4.245   3.212 -0.7562 -0.2108  0.2495
15454TIP3    H167853   0.578   4.294   3.214 -1.6669  1.3788 -0.2803
15454TIP3    H267854   0.450   4.270   3.292 -0.9097 -0.8104  0.3597
15455TIP3   OH267855   3.501   5.793   5.612  0.7050 -0.2798  0.1625
15455TIP3    H167856   3.409   5.766   5.615  0.2687  0.8276 -1.6154
15455TIP3    H267857   3.549   5.716   5.643 -0.6837 -1.8074 -1.2420
15456TIP3   OH267858   6.606   2.406  13.447 -0.0011  0.3637 -0.3994
15456TIP3    H167859   6.594   2.311  13.441  1.5968  0.0551  0.8464
15456TIP3    H267860   6.568   2.440  13.365 -0.2168 -1.3740 -1.0569
15457TIP3   OH267861   4.367   4.637   1.619  0.2298  0.2124 -0.1876
15457TIP3    H167862   4.446   4.589   1.595  0.4162  0.8016 -0.7884
15457TIP3    H267863   4.372   4.645   1.714  0.8854  0.2236 -0.2150
15458TIP3   OH267864   5.275   3.320  14.155  0.2157 -0.3472  0.1540
15458TIP3    H167865   5.245   3.386  14.218 -0.4966 -1.4383  0.9963
15458TIP3    H267866   5.199   3.264  14.142  0.6914 -0.7644 -0.8737
15459TIP3   OH267867   5.368   6.798  15.540 -0.4451 -0.5914  0.1447
15459TIP3    H167868   5.341   6.799  15.632 -0.1637 -1.0463  0.2380
15459TIP3    H267869   5.380   6.705  15.520  2.8457 -0.3982  0.6580
15460TIP3   OH267870   3.355   6.458  13.896 -0.1608  0.5375 -0.4248
15460TIP3    H167871   3.413   6.481  13.969 -0.6744  2.5702 -0.6161
15460TIP3    H267872   3.397   6.494  13.819  0.1734 -1.2634 -1.1492
15461TIP3   OH267873   6.169   1.494   0.646  0.1705  0.5926  0.4448
15461TIP3    H167874   6.150   1.403   0.623 -0.8581  0.2769  2.3519
15461TIP3    H267875   6.256   1.491   0.687 -0.0769  0.3805  0.9588
15462TIP3   OH267876   4.906   3.966  16.270  0.0548 -0.2668  0.0676
15462TIP3    H167877   4.843   3.908  16.314  0.1263 -0.5953 -0.2571
15462TIP3    H267878   4.956   3.907  16.214  1.2802 -0.1630  1.0152
15463TIP3   OH267879   1.694   3.985  10.438 -0.1066 -0.0527  0.3402
15463TIP3    H167880   1.657   3.919  10.497  0.2184  1.0654  1.8504
15463TIP3    H267881   1.634   3.987  10.363 -0.3063 -1.7885  0.4254
15464TIP3   OH267882   5.174   0.129   0.946 -0.5599  0.1570 -0.2341
15464TIP3    H167883   5.238   0.066   0.980 -0.8735 -0.4879 -0.8381
15464TIP3    H267884   5.149   0.181   1.023  1.0063  0.7128 -0.0550
15465TIP3   OH267885   3.551   1.402   0.046 -0.0311 -0.4781 -0.0834
15465TIP3    H167886   3.532   1.411   0.139 -2.2123  1.3547 -0.6290
15465TIP3    H267887   3.496   1.329   0.017 -0.5738 -0.0259 -0.2136
15466TIP3   OH267888   5.268   6.689  10.720  0.1641 -0.2756 -0.1420
15466TIP3    H167889   5.325   6.747  10.670 -0.2919  0.8671  0.6383
15466TIP3    H267890   5.327   6.622  10.755  0.7407 -0.1361 -0.8262
15467TIP3   OH267891   2.989   2.463  13.604  0.1543  0.0417 -0.6218
15467TIP3    H167892   3.037   2.490  13.526  0.9750  0.4493  0.0068
15467TIP3    H267893   3.052   2.471  13.675 -1.2708  2.1731  0.5074
15468TIP3   OH267894   6.155   2.593   0.226 -0.0757 -0.0577  0.0280
15468TIP3    H167895   6.178   2.630   0.141  1.4292 -1.6697 -0.3115
15468TIP3    H267896   6.165   2.499   0.215  0.3285 -0.2972  2.0541
15469TIP3   OH267897   3.067   2.199  16.757  0.1762 -0.1356  0.3186
15469TIP3    H167898   3.114   2.221  16.838 -2.0307  3.8521  0.7477
15469TIP3    H267899   2.979   2.175  16.787 -0.2442 -0.0518 -0.8147
15470TIP3   OH267900   0.224   3.685  15.161 -0.0762 -0.5126 -0.1065
15470TIP3    H167901   0.217   3.779  15.178 -1.0074 -0.3857 -1.0682
15470TIP3    H267902   0.248   3.679  15.068 -2.4612 -1.2113 -0.7525
15471TIP3   OH267903   2.059   6.185  15.423  0.0256 -0.2372  0.0039
15471TIP3    H167904   1.980   6.134  15.440  0.7633 -1.2276  0.5787
15471TIP3    H267905   2.081   6.166  15.332 -1.6927  1.9353 -0.9743
15472TIP3   OH267906   4.689   2.961  15.977 -0.3750 -0.7618 -0.7461
15472TIP3    H167907   4.614   2.903  15.993 -0.8298 -0.2119 -0.8580
15472TIP3    H267908   4.664   3.013  15.901 -0.1824 -0.0707 -0.3461
15473TIP3   OH267909   3.099   6.101  13.517 -0.1172  0.3868 -0.6748
15473TIP3    H167910   3.102   6.059  13.431 -1.3658 -0.4896 -0.3234
15473TIP3    H267911   3.053   6.184  13.502 -1.0839 -0.1510 -0.7150
15474TIP3   OH267912   6.585   0.264   0.873  0.0708  0.3070  0.3897
15474TIP3    H167913   6.594   0.335   0.810  0.0538 -0.4500 -0.4968
15474TIP3    H267914   6.674   0.245   0.901  0.7097 -2.1698 -2.6879
15475TIP3   OH267915   2.682   1.303  14.033 -0.4619 -0.3199 -0.6855
15475TIP3    H167916   2.634   1.385  14.022  1.6234  1.1299  0.2741
15475TIP3    H267917   2.615   1.239  14.056 -1.9873  1.4707  0.1181
15476TIP3   OH267918   2.983   0.344  15.323  0.2071 -0.0998  0.1472
15476TIP3    H167919   2.992   0.321  15.416  0.3989  0.2263  0.2098
15476TIP3    H267920   2.978   0.259  15.279 -1.3085 -0.2724  0.5853
15477TIP3   OH267921   4.536   1.625   2.688  0.0787  0.5604 -0.2726
15477TIP3    H167922   4.617   1.589   2.652  1.0777  1.3423  1.1046
15477TIP3    H267923   4.542   1.609   2.782 -0.8760  1.5543 -0.0169
15478TIP3   OH267924   3.694   2.428  10.390  0.2557 -0.6037  0.0024
15478TIP3    H167925   3.653   2.402  10.307 -0.6415  1.3703 -0.2322
15478TIP3    H267926   3.784   2.396  10.382  0.5633  0.5570 -2.3192
15479TIP3   OH267927   5.212   3.490  12.559 -0.2219 -0.5562 -0.0700
15479TIP3    H167928   5.117   3.474  12.555 -0.3597  0.3804 -1.4530
15479TIP3    H267929   5.219   3.577  12.598  0.1778 -1.2989  1.5680
15480TIP3   OH267930   1.274   3.226  13.867 -0.0917  0.2513 -0.1209
15480TIP3    H167931   1.309   3.210  13.779  0.0928 -0.6201  0.0968
15480TIP3    H267932   1.179   3.223  13.856 -0.0983 -1.7746 -0.0088
15481TIP3   OH267933   2.515   5.955  11.054  0.0520  1.1859 -0.2263
15481TIP3    H167934   2.436   5.931  11.005  0.2207  1.9291 -0.8866
15481TIP3    H267935   2.555   5.871  11.077 -0.6016  0.8116 -0.4315
15482TIP3   OH267936   3.363   2.464   0.554  0.5232  0.0663  0.3081
15482TIP3    H167937   3.284   2.427   0.594 -0.2980  1.7933  0.3855
15482TIP3    H267938   3.366   2.554   0.587  0.7320  1.0455 -2.1913
15483TIP3   OH267939   5.826   3.046  15.967  0.2922  0.0192  0.1669
15483TIP3    H167940   5.831   2.996  16.049 -0.3574 -0.4351 -0.0595
15483TIP3    H267941   5.732   3.060  15.954  0.4720  1.7616  0.4939
15484TIP3   OH267942   3.712   3.689  12.817 -0.1864 -0.5563  0.3146
15484TIP3    H167943   3.631   3.639  12.821  0.3296 -1.3541  2.3557
15484TIP3    H267944   3.694   3.769  12.867 -0.0050 -0.2635 -0.0787
15485TIP3   OH267945   0.348   3.148   5.094  0.6768 -0.2612  0.1646
15485TIP3    H167946   0.256   3.127   5.109  0.5910 -0.0657 -0.0725
15485TIP3    H267947   0.363   3.126   5.002  0.6927  0.3136  0.0248
15486TIP3   OH267948   5.291   2.580   4.443  0.1314  0.1146  1.1721
15486TIP3    H167949   5.375   2.542   4.420  0.1111  0.3089  0.7701
15486TIP3    H267950   5.236   2.505   4.467  0.3015 -0.0459  1.0581
15487TIP3   OH267951   6.835   5.230   3.202  0.1276  0.0668 -0.0955
15487TIP3    H167952   6.752   5.257   3.239 -0.8616 -2.1362 -0.5524
15487TIP3    H267953   6.881   5.188   3.275  0.1089 -0.2147 -0.2435
15488TIP3   OH267954   6.389   0.995   5.717  0.1575 -0.7943  0.2584
15488TIP3    H167955   6.412   1.006   5.809 -1.1827  0.0017  0.5260
15488TIP3    H267956   6.401   0.902   5.700  1.0511 -0.8397  1.0459
15489TIP3   OH267957   1.545   1.938  13.808  0.1859  0.2273 -0.6215
15489TIP3    H167958   1.450   1.938  13.822  0.3892 -0.7701  0.9454
15489TIP3    H267959   1.574   2.022  13.845  0.1112 -0.2215  0.4775
15490TIP3   OH267960   2.491   3.952   4.875 -0.4418 -0.5693  0.1847
15490TIP3    H167961   2.520   4.039   4.850  0.4373 -0.4117  1.6276
15490TIP3    H267962   2.563   3.894   4.849 -1.4427 -1.0370 -1.6774
15491TIP3   OH267963   0.660   6.301   1.111  0.3345  0.4006 -0.1454
15491TIP3    H167964   0.649   6.391   1.079  0.3533  1.5632  2.8243
15491TIP3    H267965   0.651   6.308   1.206 -1.3705 -3.0323  0.0999
15492TIP3   OH267966   3.332   0.945  14.154 -0.1372 -0.4535  0.3250
15492TIP3    H167967   3.277   0.919  14.081 -0.8266 -1.2792  1.1209
15492TIP3    H267968   3.279   1.007  14.204  0.2086 -0.1364  0.3020
15493TIP3   OH267969   1.287   1.283   5.246 -0.0091 -0.2531  0.2825
15493TIP3    H167970   1.271   1.270   5.153  0.6959  1.3525 -0.1014
15493TIP3    H267971   1.320   1.199   5.277  2.4390 -0.0751 -1.5394
15494TIP3   OH267972   5.213   0.365   3.865  0.1346 -0.7771 -0.4208
15494TIP3    H167973   5.270   0.405   3.800 -0.3625  0.5152 -0.0839
15494TIP3    H267974   5.132   0.345   3.818 -0.1668  0.0126 -0.2533
15495TIP3   OH267975   2.576   6.057   0.406  0.7279 -1.1156  0.2174
15495TIP3    H167976   2.670   6.062   0.391  0.7305 -0.9446  0.2966
15495TIP3    H267977   2.541   6.139   0.371  0.6217 -1.1287  0.2918
15496TIP3   OH267978   3.995   4.923  11.794 -0.1064 -0.4321 -0.1454
15496TIP3    H167979   4.048   4.969  11.729  0.1072 -0.4706  0.0025
15496TIP3    H267980   3.905   4.937  11.765 -0.1995  1.8513  0.9917
15497TIP3   OH267981   6.670   2.787  12.430 -0.0793  0.2484  0.6757
15497TIP3    H167982   6.591   2.740  12.454 -1.0902  0.2042 -2.2671
15497TIP3    H267983   6.727   2.720  12.391 -0.2479  0.8886 -0.7341
15498TIP3   OH267984   2.122   5.366  11.081  0.2544  0.9932 -0.0282
15498TIP3    H167985   2.200   5.411  11.115  0.8386 -0.1855  0.2456
15498TIP3    H267986   2.155   5.280  11.054 -0.7623  0.8667 -0.8967
15499TIP3   OH267987   0.173   2.059  16.663 -0.2657 -0.3392  0.1798
15499TIP3    H167988   0.109   2.123  16.695  0.9078 -0.7660  3.7840
15499TIP3    H267989   0.254   2.080  16.709  1.4177 -1.7013 -1.9486
15500TIP3   OH267990   2.242   4.084  15.355  0.4950  0.0869  0.3839
15500TIP3    H167991   2.152   4.053  15.355  0.0322  1.3650  0.6495
15500TIP3    H267992   2.257   4.116  15.266 -0.4748  2.9503  1.1417
15501TIP3   OH267993   5.484   5.511   2.306  0.4789 -0.0582 -0.6943
15501TIP3    H167994   5.523   5.442   2.252  1.7054 -0.1325  0.2558
15501TIP3    H267995   5.507   5.592   2.260  1.6192 -0.1125 -0.2420
15502TIP3   OH267996   6.748   1.250   3.854 -0.2854  0.0753  0.0460
15502TIP3    H167997   6.752   1.344   3.837 -1.4871  0.4619  1.6199
15502TIP3    H267998   6.772   1.209   3.771  2.2467  1.7295 -0.1713
15503TIP3   OH267999   1.120   6.053   0.979  0.4136  0.0573  0.1793
15503TIP3    H168000   1.111   6.141   0.943 -0.9814 -0.4324 -0.7767
15503TIP3    H268001   1.180   6.009   0.919  0.4520  0.1156  0.1747
15504TIP3   OH268002   1.271   5.861   2.441  0.3850 -0.1663  0.0880
15504TIP3    H168003   1.277   5.947   2.399  0.7280  0.3347  1.1337
15504TIP3    H268004   1.361   5.836   2.459  0.2708 -0.6091  0.0586
15505TIP3   OH268005   1.452   0.247  13.119 -0.0582 -0.4178 -0.5930
15505TIP3    H168006   1.547   0.258  13.109  0.1208 -1.4365 -0.1445
15505TIP3    H268007   1.439   0.238  13.214 -0.3366 -2.4131 -0.7837
15506TIP3   OH268008   6.427   1.810   2.269 -0.5763  0.5397  0.0206
15506TIP3    H168009   6.443   1.905   2.273  0.5255  0.3785 -0.3095
15506TIP3    H268010   6.513   1.771   2.282 -0.9571 -0.4147 -0.2749
15507TIP3   OH268011   2.008   6.216  16.271 -0.3387 -0.0313  0.4758
15507TIP3    H168012   2.090   6.232  16.318 -0.5429  0.6408  0.6239
15507TIP3    H268013   2.035   6.176  16.188  0.2158  0.9704  0.1494
15508TIP3   OH268014   3.994   1.840  13.884  0.3702 -0.1364 -0.3211
15508TIP3    H168015   3.974   1.934  13.887  0.3357 -0.1644  0.2883
15508TIP3    H268016   4.007   1.815  13.975 -1.2715 -1.0851 -0.3097
15509TIP3   OH268017   4.751   0.103   5.084  0.3219 -0.9529  0.3109
15509TIP3    H168018   4.728   0.185   5.040 -0.0575 -1.5342 -0.5870
15509TIP3    H268019   4.761   0.039   5.013  0.9418 -1.6150  0.9734
15510TIP3   OH268020   5.814   0.243   3.248  0.2744 -0.1121  0.1488
15510TIP3    H168021   5.769   0.305   3.191  1.6274  0.8585  0.0954
15510TIP3    H268022   5.875   0.197   3.190  0.5303 -0.2448  0.5196
15511TIP3   OH268023   3.422   3.688   3.607 -0.1557  0.0669  0.4123
15511TIP3    H168024   3.485   3.748   3.567 -0.4990  1.2049  1.5401
15511TIP3    H268025   3.430   3.703   3.701 -0.7104 -1.2039  0.6816
15512TIP3   OH268026   3.302   6.604   1.699 -0.1532  0.6137  0.2099
15512TIP3    H168027   3.311   6.650   1.616 -1.2290 -1.2306 -0.9822
15512TIP3    H268028   3.391   6.574   1.720 -0.2393 -1.0490 -1.5929
15513TIP3   OH268029   2.309   4.705  15.911  0.2074  0.3536 -0.0917
15513TIP3    H168030   2.244   4.753  15.860  0.0150  0.2769  0.0794
15513TIP3    H268031   2.266   4.690  15.996  0.2616 -0.1240 -0.1461
15514TIP3   OH268032   0.146   4.182   4.110 -0.7693  0.2311 -0.1744
15514TIP3    H168033   0.051   4.186   4.124 -0.7671 -1.5768  0.6157
15514TIP3    H268034   0.179   4.260   4.154 -1.9499  1.5129 -1.4350
15515TIP3   OH268035   1.042   2.732   2.842  0.0996  0.0152 -0.0329
15515TIP3    H168036   1.062   2.640   2.825  1.6803 -0.0101  1.6665
15515TIP3    H268037   1.060   2.744   2.936  0.2487  2.1187 -0.2753
15516TIP3   OH268038   5.720   4.393  15.503  0.1313 -0.1596 -0.4160
15516TIP3    H168039   5.730   4.468  15.444 -1.6177 -0.6541 -1.4073
15516TIP3    H268040   5.650   4.340  15.463  0.6083 -1.7838  0.8121
15517TIP3   OH268041   5.350   4.337   1.922 -0.1967  0.3034  0.0169
15517TIP3    H168042   5.442   4.348   1.946  0.2006 -1.9212 -0.2151
15517TIP3    H268043   5.307   4.311   2.003  0.2164 -2.5138 -0.5590
15518TIP3   OH268044   3.300   3.525   0.741 -0.4199  0.6940 -0.3741
15518TIP3    H168045   3.393   3.508   0.728  0.4236  2.7478  2.0496
15518TIP3    H268046   3.270   3.562   0.658  0.7738 -0.3893 -1.3370
15519TIP3   OH268047   1.448   3.743  15.906  0.2835 -0.0623 -0.0341
15519TIP3    H168048   1.382   3.718  15.970 -0.4180  0.7937 -0.4099
15519TIP3    H268049   1.518   3.678  15.917 -0.2619 -0.5056  0.9078
15520TIP3   OH268050   3.261   3.608  12.092 -0.0431  0.1555  0.0954
15520TIP3    H168051   3.331   3.561  12.136 -0.8664  0.1139  1.4308
15520TIP3    H268052   3.198   3.629  12.162 -0.6308  1.5225 -0.7838
15521TIP3   OH268053   5.013   3.334  12.392 -0.4966 -0.0138  0.2464
15521TIP3    H168054   4.986   3.335  12.484 -0.1768  0.0437  0.3410
15521TIP3    H268055   5.080   3.264  12.387  1.8447  2.0489  0.7472
15522TIP3   OH268056   2.860   5.976   4.903  0.4819 -0.0063  0.0404
15522TIP3    H168057   2.884   5.884   4.891  0.0590 -0.2881  1.1673
15522TIP3    H268058   2.819   6.001   4.821 -2.7195 -1.9331  0.8635
15523TIP3   OH268059   5.197   6.257  13.815 -0.4204  0.4424 -0.3052
15523TIP3    H168060   5.143   6.331  13.842 -3.0313 -0.7384 -1.8896
15523TIP3    H268061   5.213   6.208  13.896 -1.2189  1.1417  0.2961
15524TIP3   OH268062   5.841   1.747   1.942 -0.4541  0.7732 -0.4546
15524TIP3    H168063   5.851   1.760   1.848  0.8375  1.6437 -0.2267
15524TIP3    H268064   5.927   1.718   1.972 -1.4386 -1.7883  0.1556
15525TIP3   OH268065   5.976   5.352  13.665  0.3319  0.5414  0.3105
15525TIP3    H168066   5.984   5.264  13.701  0.3616  0.4510  0.0872
15525TIP3    H268067   5.898   5.389  13.707  0.7501  0.6876  0.9710
15526TIP3   OH268068   4.282   5.493   5.697  0.3143 -0.6174  0.5613
15526TIP3    H168069   4.341   5.561   5.730  1.3599 -0.0043 -2.2529
15526TIP3    H268070   4.262   5.438   5.774 -0.8384  2.9337  3.0430
15527TIP3   OH268071   0.335   3.435  14.798 -0.4120  0.0893  0.4276
15527TIP3    H168072   0.313   3.371  14.866 -0.3024 -0.9358 -0.4789
15527TIP3    H268073   0.256   3.488  14.788 -0.2298  0.6393  1.7604
15528TIP3   OH268074   3.620   4.821  14.342 -0.6087  0.0634  0.3267
15528TIP3    H168075   3.560   4.753  14.371 -1.4799  0.2226 -0.9877
15528TIP3    H268076   3.568   4.901  14.340  0.0614  0.5193  0.6489
15529TIP3   OH268077   1.953   1.666   4.214  0.1660  0.0100 -0.5143
15529TIP3    H168078   1.943   1.584   4.262  2.3787 -0.1620 -0.2599
15529TIP3    H268079   1.924   1.733   4.276  1.1764 -0.3665  0.4006
15530TIP3   OH268080   0.475   0.977  16.798 -0.3060  0.0564 -0.5462
15530TIP3    H168081   0.549   0.952  16.743 -0.2713  1.7770 -1.3191
15530TIP3    H268082   0.450   0.895  16.842  0.3101 -1.1533 -2.3282
15531TIP3   OH268083   6.229   0.934  14.630  0.0547 -0.1078  0.1761
15531TIP3    H168084   6.202   0.998  14.564 -0.6677 -1.3800 -0.8018
15531TIP3    H268085   6.319   0.911  14.605 -0.8061 -1.9240 -1.5325
15532TIP3   OH268086   4.264   0.845   1.501  0.3386  0.1860 -0.4254
15532TIP3    H168087   4.338   0.812   1.450  0.3775 -1.0164  0.3971
15532TIP3    H268088   4.187   0.819   1.450  0.4011 -0.5161 -0.1713
15533TIP3   OH268089   0.442   3.444   5.770  0.0567  0.6164  0.1889
15533TIP3    H168090   0.421   3.352   5.785  3.0890 -0.2898 -0.2880
15533TIP3    H268091   0.422   3.488   5.852 -0.6976 -0.6210  0.6800
15534TIP3   OH268092   0.050   3.006   2.419  0.5100 -0.3005  0.2354
15534TIP3    H168093  -0.017   3.041   2.361  0.4915  0.6407  0.8015
15534TIP3    H268094   0.075   2.923   2.379 -0.7914 -0.5418 -0.1330
15535TIP3   OH268095   1.626   3.042   5.671 -0.3371 -0.5804  0.1062
15535TIP3    H168096   1.599   2.968   5.726 -0.7852 -0.7838 -0.3776
15535TIP3    H268097   1.544   3.074   5.633 -0.1010 -0.0570  0.0327
15536TIP3   OH268098   5.973   2.880  13.625 -0.1271  0.2898  0.5206
15536TIP3    H168099   6.055   2.897  13.579 -0.9590  1.5833 -0.5391
15536TIP3    H268100   5.947   2.792  13.597  0.3802  0.2860  0.0555
15537TIP3   OH268101   3.416   1.261  14.459 -0.3968  0.1851 -0.0190
15537TIP3    H168102   3.407   1.169  14.482 -0.9502  0.2535  0.0389
15537TIP3    H268103   3.429   1.306  14.543 -1.0760  0.2717  0.0439
15538TIP3   OH268104   1.476   5.729   5.447 -0.3868  0.0576  0.3396
15538TIP3    H168105   1.540   5.790   5.486 -0.4870  1.6443 -1.7920
15538TIP3    H268106   1.524   5.687   5.376 -1.5900  1.0827 -1.1279
15539TIP3   OH268107   5.017   3.414  16.441  0.6532  0.4840  0.0642
15539TIP3    H168108   5.082   3.368  16.388 -0.3643 -1.0112  0.0529
15539TIP3    H268109   5.024   3.372  16.528 -0.6778 -0.1342 -0.0991
15540TIP3   OH268110   2.874   0.013   2.698  0.1626 -0.1309 -0.2061
15540TIP3    H168111   2.873  -0.003   2.604  1.0077 -0.6601 -0.1352
15540TIP3    H268112   2.949   0.070   2.711 -0.1029  0.1463  0.1195
15541TIP3   OH268113   3.399   4.677   5.151  0.3823  0.6145  0.1628
15541TIP3    H168114   3.450   4.603   5.184 -1.0897  0.2193  1.6999
15541TIP3    H268115   3.436   4.753   5.195  1.0450  0.6412 -0.4183
15542TIP3   OH268116   4.347   0.026  13.336  0.8902 -0.1721 -0.0886
15542TIP3    H168117   4.355   0.027  13.241  2.5039 -0.5624  0.0217
15542TIP3    H268118   4.410  -0.039  13.366 -0.5107 -1.0122  1.1949
15543TIP3   OH268119   0.979   5.470   0.590  0.9795  0.0194  0.4240
15543TIP3    H168120   0.937   5.521   0.659  0.6467  0.6214 -0.2129
15543TIP3    H268121   1.050   5.424   0.634  1.5397  1.3399  0.9290
15544TIP3   OH268122   2.062   3.377  10.520 -0.3164 -0.5457 -0.6693
15544TIP3    H168123   2.102   3.331  10.447 -1.0682 -1.3265 -0.6045
15544TIP3    H268124   2.126   3.371  10.591  0.7844  0.9563 -1.4953
15545TIP3   OH268125   2.641   2.531   4.871 -0.3483  0.2115  0.1614
15545TIP3    H168126   2.546   2.535   4.880 -0.3406 -1.3235  1.3828
15545TIP3    H268127   2.674   2.542   4.960  0.8134  3.3337 -0.5113
15546TIP3   OH268128   2.954   0.431  11.009  0.8115 -0.3200 -0.4149
15546TIP3    H168129   2.936   0.525  11.013  0.1800 -0.4044 -1.0268
15546TIP3    H268130   3.010   0.421  10.932  1.3302 -0.3886 -0.0375
15547TIP3   OH268131   5.857   1.980  14.311 -0.0799 -0.5428 -0.3699
15547TIP3    H168132   5.899   2.004  14.229  1.7493 -0.4937  0.5431
15547TIP3    H268133   5.924   1.934  14.361 -1.1493 -0.5948  1.1086
15548TIP3   OH268134   2.771   5.510  13.038  0.2535 -0.3776  0.0103
15548TIP3    H168135   2.750   5.601  13.017 -0.6515 -0.5389  0.1792
15548TIP3    H268136   2.718   5.458  12.978  0.9192 -0.8021 -0.2263
15549TIP3   OH268137   3.010   1.514  13.356  0.7429 -0.9981 -0.3255
15549TIP3    H168138   2.982   1.423  13.343  0.9112 -0.9488 -1.0941
15549TIP3    H268139   3.106   1.511  13.347  1.2504 -1.3756  3.4936
15550TIP3   OH268140   1.243   6.246  14.687 -0.1646 -0.1461 -0.5803
15550TIP3    H168141   1.289   6.330  14.680 -1.1166  0.9601  3.5631
15550TIP3    H268142   1.152   6.268  14.667 -0.5148  0.0413  1.0583
15551TIP3   OH268143   0.341   3.290   0.376 -0.5637  0.1457  0.4066
15551TIP3    H168144   0.430   3.297   0.342 -0.5534 -1.0046  0.1352
15551TIP3    H268145   0.304   3.214   0.330 -1.2561 -0.1550  1.4241
15552TIP3   OH268146   2.954   6.840   1.885 -0.7029  0.2025  0.0330
15552TIP3    H168147   2.975   6.756   1.926  0.4652  1.1443  1.4511
15552TIP3    H268148   2.986   6.833   1.795 -1.2192 -1.0762 -0.0700
15553TIP3   OH268149   1.110   4.091   0.638 -0.0539 -0.4141 -1.2333
15553TIP3    H168150   1.062   4.174   0.629  0.1122 -0.1026  0.3141
15553TIP3    H268151   1.196   4.118   0.669 -0.1915 -1.1854 -0.1336
15554TIP3   OH268152   2.869   3.784   3.732  0.0675  0.3131  0.4301
15554TIP3    H168153   2.933   3.744   3.792 -0.6120  1.3240  1.8953
15554TIP3    H268154   2.910   3.776   3.646  1.6854 -0.0383  1.1736
15555TIP3   OH268155   1.720   2.521  11.812  0.4277  0.6498  0.9887
15555TIP3    H168156   1.769   2.508  11.893  1.9397  0.6700  0.1254
15555TIP3    H268157   1.637   2.475  11.826  0.8887  0.1728  2.3251
15556TIP3   OH268158   5.499   0.888   0.835  0.1287 -0.0646 -0.1685
15556TIP3    H168159   5.569   0.845   0.786  0.5616 -0.0935  0.4787
15556TIP3    H268160   5.516   0.867   0.926 -0.2748  0.5846  0.0629
15557TIP3   OH268161   4.270   4.697   3.313  0.1622 -0.1235  0.2099
15557TIP3    H168162   4.343   4.728   3.366  1.5854  0.0909 -1.7472
15557TIP3    H268163   4.208   4.659   3.376  2.1375 -0.6956  1.9017
15558TIP3   OH268164   4.316   6.662  14.089 -0.3686 -0.6136  0.1282
15558TIP3    H168165   4.348   6.583  14.047 -0.1380 -1.1584  1.2924
15558TIP3    H268166   4.358   6.734  14.042 -1.1006 -1.1324 -1.3755
15559TIP3   OH268167   5.656   1.328   0.353 -0.3187  0.3490  0.3684
15559TIP3    H168168   5.740   1.373   0.349 -0.0056 -0.3250 -1.7664
15559TIP3    H268169   5.605   1.365   0.281 -1.3610 -0.2498  0.7621
15560TIP3   OH268170   6.007   2.971  10.978  0.2589 -0.4358  0.5191
15560TIP3    H168171   5.919   2.961  10.941  0.0637  0.2161  0.7892
15560TIP3    H268172   6.007   2.916  11.056  0.0615 -0.3663  0.5681
15561TIP3   OH268173   1.713   6.057  14.244 -0.1760  0.4056  0.1469
15561TIP3    H168174   1.668   6.019  14.319 -0.7762  1.2554  0.2318
15561TIP3    H268175   1.806   6.040  14.261 -0.2453  1.1873  1.4349
15562TIP3   OH268176   3.893   1.805  14.878  0.0881 -0.1563  0.3634
15562TIP3    H168177   3.820   1.807  14.940  0.9152 -0.1515  1.3551
15562TIP3    H268178   3.879   1.882  14.822 -1.2201 -0.7178 -0.1314
15563TIP3   OH268179   1.193   4.949  16.218 -0.0408  0.1064  0.6566
15563TIP3    H168180   1.194   4.942  16.313 -1.0127  0.6628  0.7197
15563TIP3    H268181   1.124   4.889  16.190  1.7633 -1.8614  0.0949
15564TIP3   OH268182   3.812   3.905   1.747  0.5448 -0.3652  0.3536
15564TIP3    H168183   3.828   3.996   1.722 -0.2658 -0.3752 -0.2736
15564TIP3    H268184   3.836   3.901   1.839  0.8423  0.4181  0.3214
15565TIP3   OH268185   4.080   3.793   6.360  0.0550 -0.0994  0.4247
15565TIP3    H168186   4.148   3.732   6.331 -0.9554 -0.4496 -1.3921
15565TIP3    H268187   4.003   3.738   6.376 -0.6565  0.5700 -0.5283
15566TIP3   OH268188   5.651   2.947  12.000 -0.3201  0.5294 -0.3751
15566TIP3    H168189   5.744   2.945  11.975 -0.2568 -0.3567 -0.1167
15566TIP3    H268190   5.617   2.862  11.973 -0.8732  0.5533  0.2200
15567TIP3   OH268191   2.625   1.998  12.655 -0.2182  0.1832  0.8084
15567TIP3    H168192   2.626   2.061  12.583  1.1951  1.4349  1.8776
15567TIP3    H268193   2.665   1.919  12.617  1.7464  1.2495  0.5378
15568TIP3   OH268194   4.601   6.118   5.223  0.0402  0.0507  0.3497
15568TIP3    H168195   4.506   6.121   5.235  0.2506  0.3686  2.3904
15568TIP3    H268196   4.626   6.031   5.256  0.2694 -1.0652 -2.4468
15569TIP3   OH268197   1.175   5.150   4.859 -0.6156 -0.2826 -0.6412
15569TIP3    H168198   1.172   5.221   4.923  0.2560 -0.7544 -0.0655
15569TIP3    H268199   1.221   5.079   4.903  0.9001 -0.2808 -2.1088
15570TIP3   OH268200   2.346   6.606  11.265 -0.0633  0.3608  0.6165
15570TIP3    H168201   2.407   6.566  11.328  1.1423  2.0035  0.5472
15570TIP3    H268202   2.285   6.655  11.320  1.1862  2.0670  0.5794
15571TIP3   OH268203   6.582   0.950   1.688  0.2110  0.3178  0.0475
15571TIP3    H168204   6.526   1.006   1.741  0.7821  1.3877 -0.4490
15571TIP3    H268205   6.522   0.886   1.649 -0.0927 -1.2907  2.8500
15572TIP3   OH268206   4.052   4.450  12.430 -0.2438  0.0543  0.2981
15572TIP3    H168207   4.057   4.546  12.425  0.9530 -0.0372 -1.0166
15572TIP3    H268208   4.042   4.422  12.339  0.2461 -1.0881  0.5796
15573TIP3   OH268209   6.850   3.960  11.061 -0.3206 -0.1253 -0.3845
15573TIP3    H168210   6.870   3.950  10.968 -1.1948  3.2316 -1.0758
15573TIP3    H268211   6.921   4.014  11.096 -1.6954  1.4915  0.0412
15574TIP3   OH268212   1.290   4.247  15.248  0.1845 -0.4886  0.0710
15574TIP3    H168213   1.253   4.162  15.268  3.2403 -1.3639  3.0937
15574TIP3    H268214   1.250   4.307  15.311  0.2938 -0.3819  0.0419
15575TIP3   OH268215   4.895   6.298  15.752  0.0639 -0.2875  0.3685
15575TIP3    H168216   4.837   6.373  15.740  0.2422 -0.2201 -0.0837
15575TIP3    H268217   4.983   6.335  15.749  0.1964 -0.6664 -1.0837
15576TIP3   OH268218   3.258   0.497  16.545 -0.0478 -0.2004 -0.8735
15576TIP3    H168219   3.169   0.531  16.550  0.1808  0.2775  1.3953
15576TIP3    H268220   3.295   0.537  16.466 -1.5689  0.2418 -1.3934
15577TIP3   OH268221   2.202   1.953  15.900  0.4900 -0.4562 -0.4576
15577TIP3    H168222   2.134   1.961  15.967  1.7399 -0.6835  0.8664
15577TIP3    H268223   2.182   2.024  15.838 -0.7839 -0.3529  0.0424
15578TIP3   OH268224   1.507   2.960  15.066 -0.2676 -0.2409  0.0474
15578TIP3    H168225   1.528   2.903  15.140  1.4805  0.7014  0.3151
15578TIP3    H268226   1.411   2.966  15.068 -0.2666  0.3626  2.7209
15579TIP3   OH268227   0.198   6.049  12.892  0.3500  0.5601  0.2636
15579TIP3    H168228   0.259   6.067  12.963  0.5382  1.0351 -0.0119
15579TIP3    H268229   0.247   6.070  12.812  0.1889 -0.1043 -0.0168
15580TIP3   OH268230   2.335   2.182   2.661  0.4743  0.5631 -0.0984
15580TIP3    H168231   2.345   2.223   2.575  3.7650  0.1449 -0.0308
15580TIP3    H268232   2.370   2.093   2.649 -0.6261 -0.1046  1.3023
15581TIP3   OH268233   2.431   5.429   4.600  0.4483  0.1965  0.4678
15581TIP3    H168234   2.466   5.518   4.600  2.1337 -0.4197 -0.6841
15581TIP3    H268235   2.487   5.382   4.539 -2.7749 -0.7523 -1.9651
15582TIP3   OH268236   2.213   4.783  12.839 -0.2496 -0.4247 -0.8099
15582TIP3    H168237   2.269   4.742  12.772 -0.1891 -1.4717 -0.1347
15582TIP3    H268238   2.152   4.714  12.864  0.4330 -0.4095  1.0069
15583TIP3   OH268239   0.494   3.579   3.419 -0.0415 -0.3222  1.0454
15583TIP3    H168240   0.404   3.588   3.448 -0.2472 -0.6766  0.5357
15583TIP3    H268241   0.511   3.657   3.367  0.4331  0.4747  2.3600
15584TIP3   OH268242   3.157   2.423  16.561  0.1779 -0.6669 -0.4808
15584TIP3    H168243   3.133   2.366  16.634 -0.0228 -0.9018 -0.7286
15584TIP3    H268244   3.163   2.364  16.486 -0.4021 -0.3090 -0.8160
15585TIP3   OH268245   6.118   5.934  13.068  0.1300 -0.2948  0.2943
15585TIP3    H168246   6.087   6.021  13.045 -0.1530 -0.2015  1.0062
15585TIP3    H268247   6.211   5.934  13.046  0.1065  0.1460  0.1977
15586TIP3   OH268248   3.597   4.605   3.751  0.0771 -0.2665  0.3759
15586TIP3    H168249   3.593   4.520   3.707  2.2926 -1.1817  1.7890
15586TIP3    H268250   3.636   4.586   3.836  2.6845  2.4423 -0.0823
15587TIP3   OH268251   6.319   1.723   0.434 -0.2362 -0.4994 -0.1400
15587TIP3    H168252   6.364   1.649   0.475 -1.7934 -1.1472  0.4966
15587TIP3    H268253   6.233   1.726   0.477 -0.4057  1.3740 -0.5171
15588TIP3   OH268254   4.135   0.843  12.297  0.0469  0.0160 -0.7472
15588TIP3    H168255   4.171   0.932  12.303  2.2671 -0.6817 -2.6731
15588TIP3    H268256   4.048   0.856  12.259  0.1820  1.3941 -0.6532
15589TIP3   OH268257   6.526   3.982  14.704  0.0875 -0.1674 -0.1776
15589TIP3    H168258   6.459   3.917  14.681 -0.5204  0.4683 -0.2465
15589TIP3    H268259   6.557   3.955  14.790  0.8200 -1.3274 -0.7860
15590TIP3   OH268260   6.237   0.598   1.601  0.7488  0.0043  0.4128
15590TIP3    H168261   6.162   0.628   1.651  0.9830  0.8328  0.2817
15590TIP3    H268262   6.204   0.525   1.549  0.4444 -0.7097  1.5698
15591TIP3   OH268263   1.470   1.679  17.052  0.1001 -0.1684 -0.1591
15591TIP3    H168264   1.397   1.741  17.051  1.1115  1.0822 -0.9359
15591TIP3    H268265   1.482   1.655  16.960 -0.6930 -2.0803  0.2058
15592TIP3   OH268266   3.881   1.523  14.553  0.2120  0.4438 -0.3684
15592TIP3    H168267   3.881   1.615  14.527  0.2191  0.3598 -0.6658
15592TIP3    H268268   3.826   1.520  14.632 -0.1300  0.6370 -0.5997
15593TIP3   OH268269   4.502   1.686   4.482  0.3942  0.1902  0.1657
15593TIP3    H168270   4.497   1.591   4.498  1.7037 -0.1163 -1.0206
15593TIP3    H268271   4.594   1.707   4.492  0.0911  1.3962  0.5692
15594TIP3   OH268272   5.682   4.579   0.613 -0.2897  0.5597  0.1266
15594TIP3    H168273   5.692   4.623   0.698  1.3158  0.6475 -0.0608
15594TIP3    H268274   5.688   4.650   0.549  0.0739  0.3256 -0.1029
15595TIP3   OH268275   1.211   0.538  13.723 -0.4541 -0.2679  0.5768
15595TIP3    H168276   1.205   0.497  13.636  1.6586 -0.0453  0.2891
15595TIP3    H268277   1.165   0.621  13.713 -1.4220 -0.8382  0.0811
15596TIP3   OH268278   6.273   0.183  10.898  0.2021 -0.6931 -0.7591
15596TIP3    H168279   6.318   0.225  10.826  0.5499 -0.3306 -0.3329
15596TIP3    H268280   6.237   0.103  10.860  0.4297 -0.5351 -1.3170
15597TIP3   OH268281   1.117   0.317  13.143 -0.0229  0.3293 -0.2008
15597TIP3    H168282   1.133   0.240  13.197 -0.7875  0.7882  0.7154
15597TIP3    H268283   1.203   0.360  13.136 -0.3143  1.7809  3.0866
15598TIP3   OH268284   0.774   4.931  12.156 -0.0213  0.0826 -0.3251
15598TIP3    H168285   0.776   4.966  12.067  0.0861  0.9109 -0.0083
15598TIP3    H268286   0.835   4.987  12.204  1.0305 -1.2587 -0.0459
15599TIP3   OH268287   4.406   2.127  14.328  0.6039 -0.4528 -0.3444
15599TIP3    H168288   4.448   2.108  14.411  1.9350  0.1270 -0.8537
15599TIP3    H268289   4.368   2.043  14.300 -0.1765 -0.5616  1.0010
15600TIP3   OH268290   5.029   5.627  16.565 -0.0152 -0.3997 -0.1061
15600TIP3    H168291   5.019   5.532  16.559  0.9366 -0.7170  2.1073
15600TIP3    H268292   4.945   5.662  16.539 -0.7897 -1.9202  0.2225
15601TIP3   OH268293   2.044   2.621  13.044 -0.2873  0.7540  0.1509
15601TIP3    H168294   2.042   2.622  12.948 -0.8498  1.1392  0.1676
15601TIP3    H268295   2.076   2.707  13.068  3.0077 -0.3536  0.2610
15602TIP3   OH268296   5.374   6.129  14.793  0.8678  0.6450 -0.4125
15602TIP3    H168297   5.469   6.138  14.787  0.9499  1.3419  1.2633
15602TIP3    H268298   5.353   6.158  14.882 -0.7590 -0.9077 -0.2275
15603TIP3   OH268299   4.063   1.729  11.857  0.1072  0.0847  0.5271
15603TIP3    H168300   4.003   1.688  11.795 -1.2097  0.8828  1.2377
15603TIP3    H268301   4.117   1.787  11.803 -2.1146  2.0264  0.2636
15604TIP3   OH268302   2.424   2.122  15.984 -0.2315  0.6206  0.3462
15604TIP3    H168303   2.349   2.086  15.938  0.5499  0.0019 -0.4711
15604TIP3    H268304   2.427   2.214  15.958 -0.4091  0.5260 -0.0095
15605TIP3   OH268305   0.529   2.127  15.458 -0.2407  0.1957 -0.8009
15605TIP3    H168306   0.622   2.148  15.464 -0.1410 -0.3223 -0.5274
15605TIP3    H268307   0.527   2.035  15.431 -0.6440 -0.7230  2.0234
15606TIP3   OH268308   0.252   3.817  14.363 -0.5714  0.2215  0.3432
15606TIP3    H168309   0.321   3.813  14.430  1.5868  0.4023 -1.7327
15606TIP3    H268310   0.261   3.734  14.315  0.2943  1.4925 -1.8321
15607TIP3   OH268311   5.483   2.295  16.544 -0.2010 -0.2757  0.0717
15607TIP3    H168312   5.505   2.366  16.604 -0.6098  0.5489 -0.7416
15607TIP3    H268313   5.565   2.245  16.535  1.5077  2.6699 -2.8172
15608TIP3   OH268314   2.590   0.816  12.013  0.5150 -0.1992 -0.1228
15608TIP3    H168315   2.495   0.807  12.016  0.3848  1.0509  1.4839
15608TIP3    H268316   2.605   0.895  11.961  0.7410 -0.9204 -1.1691
15609TIP3   OH268317   0.098   6.403  13.347  0.3276 -0.1400  0.0432
15609TIP3    H168318   0.116   6.476  13.407 -0.0983 -0.3389  0.4120
15609TIP3    H268319   0.011   6.372  13.372  0.2040 -0.3120 -0.5889
15610TIP3   OH268320   5.112   0.324   1.132  0.7731  0.2193 -0.7221
15610TIP3    H168321   5.161   0.380   1.192  0.9956  0.5575 -1.2142
15610TIP3    H268322   5.020   0.340   1.154  0.8118  1.1947 -1.2187
15611TIP3   OH268323   2.814   2.778  14.819 -0.2731  0.3140  0.1384
15611TIP3    H168324   2.726   2.744  14.805 -0.2592 -0.3327  1.3806
15611TIP3    H268325   2.863   2.703  14.854  0.7887  0.6458 -0.5640
15612TIP3   OH268326   3.981   0.151  15.748 -0.0362  0.0027 -0.5685
15612TIP3    H168327   3.986   0.055  15.747 -2.0519 -0.1322 -0.6685
15612TIP3    H268328   4.026   0.176  15.829 -0.1361 -1.0717 -0.1601
15613TIP3   OH268329   2.030   3.876   0.216 -0.5758  0.1199  0.3669
15613TIP3    H168330   2.119   3.874   0.252  0.2643 -1.1355 -1.6445
15613TIP3    H268331   2.000   3.966   0.230  0.3812  0.1627  2.4698
15614TIP3   OH268332   0.598   3.409   0.500 -0.0726 -0.2709  0.2316
15614TIP3    H168333   0.670   3.371   0.449  0.5231 -1.0836  1.6288
15614TIP3    H268334   0.634   3.421   0.587 -1.0579  1.1604  0.4683
15615TIP3   OH268335   5.704   2.620  13.068  0.1770 -0.2911 -0.3477
15615TIP3    H168336   5.702   2.532  13.107  0.0129 -0.1511 -0.0339
15615TIP3    H268337   5.742   2.607  12.981  0.0491 -0.6886 -0.3460
15616TIP3   OH268338   6.263   1.376   4.703  0.4412  0.1031 -0.5505
15616TIP3    H168339   6.172   1.353   4.724  0.6929 -0.8452 -0.4263
15616TIP3    H268340   6.270   1.359   4.609  1.1112 -2.1877 -0.1546
15617TIP3   OH268341   1.709   1.002  15.738  0.1531 -0.6300 -0.1464
15617TIP3    H168342   1.779   1.027  15.798  1.0445 -2.2728 -0.4410
15617TIP3    H268343   1.735   1.039  15.653 -0.2086  0.1840  0.0886
15618TIP3   OH268344   4.098   1.276  10.882 -0.3418 -0.1187 -0.3568
15618TIP3    H168345   4.146   1.197  10.906  1.1222  1.5675  2.8527
15618TIP3    H268346   4.163   1.331  10.839 -1.0273 -0.1159 -1.4230
15619TIP3   OH268347   3.327   6.615   0.644 -0.6727 -0.4428  0.4642
15619TIP3    H168348   3.253   6.591   0.700 -2.9165  0.3371 -1.9641
15619TIP3    H268349   3.353   6.702   0.675 -0.5204 -0.8766  1.5795
15620TIP3   OH268350   4.062   6.701  15.738 -0.2780  0.6038 -0.1298
15620TIP3    H168351   4.113   6.721  15.660 -0.8792 -1.0036 -0.9690
15620TIP3    H268352   4.127   6.692  15.808  0.2433  2.2883 -0.3487
15621TIP3   OH268353   6.595   3.473   4.554  0.3766  0.1182 -0.0373
15621TIP3    H168354   6.565   3.461   4.463  0.1129 -0.0988  0.0769
15621TIP3    H268355   6.635   3.560   4.554 -0.2688  0.4225 -0.1975
15622TIP3   OH268356   6.765   0.208  12.244  0.0502  0.1313 -0.5539
15622TIP3    H168357   6.747   0.151  12.170 -2.0347 -0.0613  0.0279
15622TIP3    H268358   6.738   0.295  12.214 -1.1340 -0.0074  0.0626
15623TIP3   OH268359   2.241   2.314   1.679 -0.3572 -0.2356  0.0210
15623TIP3    H168360   2.177   2.246   1.698  1.3500 -2.1040 -0.4741
15623TIP3    H268361   2.210   2.356   1.599 -2.3762  0.8541  1.3098
15624TIP3   OH268362   3.223   0.015  15.117  0.0597 -0.4845 -0.9016
15624TIP3    H168363   3.242  -0.052  15.183 -1.6545 -0.8989 -0.7791
15624TIP3    H268364   3.285  -0.003  15.047  1.9165 -0.0300  0.5541
15625TIP3   OH268365   1.194   4.286   6.490 -0.4915  0.4988 -0.1085
15625TIP3    H168366   1.141   4.306   6.567 -0.5725  1.6932 -0.4604
15625TIP3    H268367   1.283   4.277   6.524 -0.5671  0.7663  0.1632
15626TIP3   OH268368   6.044   1.685   3.272  0.2924 -0.1281 -0.0846
15626TIP3    H168369   5.979   1.627   3.310 -0.2170 -1.0810 -2.3066
15626TIP3    H268370   6.117   1.684   3.335 -0.8671 -0.8621  1.2939
15627TIP3   OH268371   1.731   0.695  12.683 -0.0531 -0.8090 -0.5248
15627TIP3    H168372   1.687   0.671  12.602 -1.2273  2.0368 -0.8533
15627TIP3    H268373   1.667   0.674  12.752 -0.4667 -0.0999 -0.6785
15628TIP3   OH268374   6.770   4.148   4.382  0.4476  0.2107 -0.6117
15628TIP3    H168375   6.810   4.090   4.447  0.2187  0.4034 -0.2964
15628TIP3    H268376   6.684   4.170   4.419  0.7240  1.1511 -0.4909
15629TIP3   OH268377   1.375   0.191  16.413  0.0924 -0.1931  0.1639
15629TIP3    H168378   1.425   0.179  16.332  2.2125  1.3221  1.1405
15629TIP3    H268379   1.419   0.134  16.477  0.0757  0.5444  0.8552
15630TIP3   OH268380   4.677   0.779   5.665 -0.4459 -0.0367  0.3815
15630TIP3    H168381   4.717   0.863   5.643  0.1032 -0.4875 -0.4013
15630TIP3    H268382   4.627   0.755   5.588  0.8912 -1.2811 -0.1530
15631TIP3   OH268383   2.420   1.869   0.573 -0.1258 -0.0251  0.0165
15631TIP3    H168384   2.370   1.910   0.643  0.7682 -0.1202  0.7304
15631TIP3    H268385   2.510   1.901   0.585  0.1672 -0.5340 -0.7013
15632TIP3   OH268386   3.008   1.148  13.686  0.0733 -0.0577  0.1889
15632TIP3    H168387   3.062   1.219  13.650  0.1499  0.6242  1.5854
15632TIP3    H268388   2.937   1.137  13.622 -0.8684  2.4250  0.6982
15633TIP3   OH268389   3.097   5.717   1.770  0.1259 -0.0126 -0.7611
15633TIP3    H168390   3.137   5.642   1.815  0.8667  0.9594  0.2516
15633TIP3    H268391   3.139   5.793   1.809 -3.0518  1.1452  0.7930
15634TIP3   OH268392   3.934   5.159  15.469 -0.5362 -0.2291  0.2405
15634TIP3    H168393   3.901   5.090  15.412 -2.2346 -0.9935  2.0524
15634TIP3    H268394   3.859   5.185  15.522  0.7770  0.9871  1.5944
15635TIP3   OH268395   2.953   5.904   3.730  0.2011  0.1675  0.0640
15635TIP3    H168396   2.929   5.966   3.798  1.0594 -0.5839  1.0860
15635TIP3    H268397   2.923   5.819   3.763  2.9520 -0.6288  0.8214
15636TIP3   OH268398   4.818   4.202   0.378 -0.0247 -0.0930 -0.3093
15636TIP3    H168399   4.878   4.258   0.329 -0.3315  0.1309 -0.4264
15636TIP3    H268400   4.739   4.254   0.388 -0.4574 -0.6530 -0.7680
15637TIP3   OH268401   1.602   1.815  15.044  0.4950 -0.1891 -0.2644
15637TIP3    H168402   1.595   1.721  15.059  1.0499 -0.1773  0.0650
15637TIP3    H268403   1.512   1.847  15.052  0.4531 -0.5249  0.7425
15638TIP3   OH268404   2.776   6.714  11.691 -0.0532 -0.3300  0.3241
15638TIP3    H168405   2.818   6.628  11.694  0.5215 -0.0721 -0.2124
15638TIP3    H268406   2.760   6.736  11.783  1.1083 -0.3699  0.5428
15639TIP3   OH268407   3.380   6.281   3.809 -0.7010 -0.5724 -0.0076
15639TIP3    H168408   3.446   6.214   3.792 -1.2900 -1.2897  0.5092
15639TIP3    H268409   3.385   6.298   3.903  0.9666  1.7409 -0.4244
15640TIP3   OH268410   0.185   1.601  15.628 -0.1401 -0.3920  0.3921
15640TIP3    H168411   0.116   1.587  15.692  0.8535  0.4998  1.7025
15640TIP3    H268412   0.188   1.696  15.616 -0.2067 -0.5263 -0.8947
15641TIP3   OH268413   1.538   0.935  14.864  0.5373 -0.0805  0.4002
15641TIP3    H168414   1.599   0.981  14.806 -0.5051  2.1903  0.9872
15641TIP3    H268415   1.544   0.983  14.947 -2.2208  0.4400  0.3859
15642TIP3   OH268416   3.189   6.398   3.375  0.1377  0.0215 -0.2832
15642TIP3    H168417   3.150   6.429   3.457 -0.1968 -3.2026  0.9267
15642TIP3    H268418   3.276   6.365   3.402  0.5789  0.1729 -1.4907
15643TIP3   OH268419   5.804   2.490  11.781  0.2212  0.0464  0.2414
15643TIP3    H168420   5.878   2.477  11.722  0.1071  1.2243 -0.1935
15643TIP3    H268421   5.727   2.469  11.729  0.2520 -2.0633  0.9597
15644TIP3   OH268422   0.765   1.477   0.409 -0.3634 -0.2648  0.4095
15644TIP3    H168423   0.720   1.511   0.487  0.3319 -0.9877  1.1477
15644TIP3    H268424   0.695   1.445   0.353 -0.8943  0.4621  0.6302
15645TIP3   OH268425   4.455   3.316   3.040  0.4105 -0.1111  0.0723
15645TIP3    H168426   4.535   3.342   2.995  1.0770 -1.3652  0.5078
15645TIP3    H268427   4.473   3.332   3.133 -0.4844  1.2190  0.0520
15646TIP3   OH268428   2.443   4.709   0.171  0.2285 -0.3574  0.6667
15646TIP3    H168429   2.442   4.725   0.076 -0.1446 -1.6187  0.4406
15646TIP3    H268430   2.510   4.768   0.205  1.7732 -1.2914 -0.6463
15647TIP3   OH268431   3.685   1.258   1.721  0.3066  0.0328  0.0187
15647TIP3    H168432   3.604   1.308   1.708  0.7243  0.9557  0.8297
15647TIP3    H268433   3.702   1.264   1.815  1.2010 -0.3339 -0.1095
15648TIP3   OH268434   5.614   6.210   1.868  0.2649  0.6755 -0.0223
15648TIP3    H168435   5.551   6.139   1.868  0.4147  0.5053 -1.4920
15648TIP3    H268436   5.585   6.269   1.938 -0.9650  0.1334 -0.0594
15649TIP3   OH268437   2.078   0.400  13.964  0.0335  0.2243  0.0379
15649TIP3    H168438   2.062   0.382  14.057  0.2368  0.3165  0.0913
15649TIP3    H268439   1.990   0.405  13.925 -0.0425 -0.5783  0.0762
15650TIP3   OH268440   2.038   0.561   1.587  0.0503 -0.9945 -0.2492
15650TIP3    H168441   1.984   0.539   1.511 -1.5948  0.8929  0.2627
15650TIP3    H268442   1.974   0.580   1.656  1.2586  1.9164  0.2325
15651TIP3   OH268443   2.082   4.008   5.304 -0.2351 -0.4908  0.0510
15651TIP3    H168444   1.994   4.002   5.342 -0.6292  0.3765 -0.6717
15651TIP3    H268445   2.067   4.029   5.212  0.7119 -2.0496 -0.4952
15652TIP3   OH268446   5.381   4.957  10.966  0.3171  0.0050  0.3127
15652TIP3    H168447   5.321   4.931  10.896  1.2848 -2.3259  0.2622
15652TIP3    H268448   5.444   5.015  10.923  1.4068 -2.0653 -1.0270
15653TIP3   OH268449   4.625   6.241  12.321  0.6961 -0.1648  0.3798
15653TIP3    H168450   4.575   6.199  12.251 -0.3773  0.4842  0.7356
15653TIP3    H268451   4.666   6.317  12.279  0.3999 -0.0171  0.3554
15654TIP3   OH268452   1.641   4.163   0.024 -0.3498  0.2200 -0.2720
15654TIP3    H168453   1.728   4.154  -0.013 -0.5328  1.5461 -1.0545
15654TIP3    H268454   1.582   4.165  -0.052 -0.8988  1.0975  0.1642
15655TIP3   OH268455   4.295   2.239  12.542 -0.2309 -0.0143  0.0317
15655TIP3    H168456   4.345   2.235  12.623 -0.7125  0.8678  0.3899
15655TIP3    H268457   4.349   2.293  12.484 -0.6949  0.8588  0.3871
15656TIP3   OH268458   5.565   4.022  11.075 -0.2807 -0.4909 -0.3468
15656TIP3    H168459   5.627   4.091  11.055 -0.6499 -0.2447 -0.6559
15656TIP3    H268460   5.569   3.964  10.999  0.8169 -1.4038  0.3729
15657TIP3   OH268461   3.229   2.064   5.593 -0.1822  0.1893 -0.1766
15657TIP3    H168462   3.247   1.971   5.605 -0.7541  0.1833  0.7416
15657TIP3    H268463   3.153   2.066   5.535 -1.8684 -0.0337  1.9114
15658TIP3   OH268464   4.852   3.301  16.092  0.4059 -0.1923  0.5292
15658TIP3    H168465   4.895   3.220  16.117  0.3986 -0.4985 -0.4217
15658TIP3    H268466   4.883   3.366  16.156  1.7628 -0.5535  0.2524
15659TIP3   OH268467   5.755   1.601  13.702  0.3291  0.5405 -0.1967
15659TIP3    H168468   5.805   1.596  13.783 -1.2884 -0.7812  0.7835
15659TIP3    H268469   5.675   1.648  13.727  0.6146  1.7679 -1.4874
15660TIP3   OH268470   5.611   0.076   1.140 -0.5761 -0.0569 -0.3180
15660TIP3    H168471   5.608   0.007   1.074  3.5783 -0.5694 -0.2534
15660TIP3    H268472   5.639   0.154   1.091 -0.6765  0.3992  0.3392
15661TIP3   OH268473   5.282   6.366   2.897 -0.3604  0.0353  0.0461
15661TIP3    H168474   5.291   6.277   2.931 -0.1849  0.3152  0.7510
15661TIP3    H268475   5.191   6.372   2.870 -0.4995 -0.2126  0.4402
15662TIP3   OH268476   2.030   3.773  17.002  0.0897  0.1085  0.0386
15662TIP3    H168477   2.034   3.738  17.092 -0.3611  1.2325  0.5152
15662TIP3    H268478   2.121   3.777  16.973  0.2066 -0.6764  0.2770
15663TIP3   OH268479   0.060   4.075  14.760  0.2842  0.6891 -0.0149
15663TIP3    H168480   0.062   3.992  14.807 -0.1764  1.7405  1.9467
15663TIP3    H268481   0.075   4.051  14.668  0.0173 -1.5556  0.4786
15664TIP3   OH268482   4.694   1.813  15.854  0.0628  0.5422 -0.4899
15664TIP3    H168483   4.753   1.761  15.908  0.1924 -0.3911 -1.4995
15664TIP3    H268484   4.744   1.891  15.831  0.7577 -0.0332 -0.9681
15665TIP3   OH268485   3.228   3.405  13.570 -0.0831  0.4512  0.4323
15665TIP3    H168486   3.219   3.410  13.665 -0.8941  4.2093  0.3184
15665TIP3    H268487   3.144   3.436  13.536 -0.6867 -2.9410 -1.7058
15666TIP3   OH268488   5.433   0.687   1.859 -0.2014  0.0176  0.2102
15666TIP3    H168489   5.506   0.695   1.797  1.2593 -2.3926  1.4999
15666TIP3    H268490   5.471   0.709   1.944 -1.5551  0.7823  0.6538
15667TIP3   OH268491   4.374   4.980   2.755 -0.1884 -0.0635  0.6013
15667TIP3    H168492   4.423   5.041   2.698  0.5897  0.2370  1.5683
15667TIP3    H268493   4.392   4.894   2.718 -1.5826  0.2622 -1.0020
15668TIP3   OH268494   6.612   6.669  10.522 -0.0982  0.7947 -0.4306
15668TIP3    H168495   6.657   6.711  10.596  1.0096 -0.5553 -0.2997
15668TIP3    H268496   6.667   6.688  10.447 -0.4154  0.8800 -0.6412
15669TIP3   OH268497   1.188   2.772  16.434  0.4395 -0.0501 -0.4597
15669TIP3    H168498   1.174   2.823  16.514  0.5174 -0.7268  0.0062
15669TIP3    H268499   1.271   2.726  16.450  0.0388 -0.8395 -0.5652
15670TIP3   OH268500   2.417   3.034   5.268  0.1638 -0.4089  0.4441
15670TIP3    H168501   2.408   2.994   5.181  0.7450 -0.4638  0.4053
15670TIP3    H268502   2.461   3.118   5.252  1.4492 -0.9838  0.8028
15671TIP3   OH268503   1.998   1.089  10.398  0.2411  0.4199 -0.0208
15671TIP3    H168504   1.965   1.038  10.472  0.9265  1.7450  1.2229
15671TIP3    H268505   2.010   1.024  10.328  0.2273 -0.9681  1.2289
15672TIP3   OH268506   5.041   2.021   3.985 -0.9824  0.8616  0.1579
15672TIP3    H168507   4.980   1.989   4.052 -1.0799 -3.0183 -1.5157
15672TIP3    H268508   5.005   1.989   3.902  1.9935  0.5991 -1.1761
15673TIP3   OH268509   3.581   5.349   4.911 -0.0616 -0.1261  0.1506
15673TIP3    H168510   3.576   5.374   4.819  0.3837  0.0928  0.1836
15673TIP3    H268511   3.634   5.418   4.952 -1.5916  0.6534  0.8908
15674TIP3   OH268512   3.998   0.714  15.278  0.0004 -0.0148  0.5264
15674TIP3    H168513   3.941   0.676  15.211 -0.6651  1.1102  0.4103
15674TIP3    H268514   4.063   0.764  15.228  0.1671 -0.0627  0.6946
15675TIP3   OH268515   2.513   2.762   2.119  0.5424 -0.0201  0.2356
15675TIP3    H168516   2.481   2.793   2.204  0.0309  1.0068 -0.3190
15675TIP3    H268517   2.456   2.688   2.098 -0.1330  0.5042  0.2108
15676TIP3   OH268518   5.271   0.532  13.274 -0.1336  0.2057  0.6012
15676TIP3    H168519   5.337   0.518  13.342 -1.3317 -1.7892  1.4398
15676TIP3    H268520   5.263   0.447  13.231  0.2197  1.2854 -1.7465
15677TIP3   OH268521   1.866   6.448  15.284  0.6186  0.2851 -0.2411
15677TIP3    H168522   1.867   6.397  15.365  1.0492  0.7935  0.0811
15677TIP3    H268523   1.958   6.452  15.257  0.8132  2.2012  0.5887
15678TIP3   OH268524   6.750   6.358  11.684  0.5706  0.1042  0.2164
15678TIP3    H168525   6.780   6.280  11.638  2.5006  1.4245 -0.9107
15678TIP3    H268526   6.797   6.430  11.642 -1.8137  2.0054  0.6073
15679TIP3   OH268527   4.417   2.374   2.303 -0.2022  0.9283 -0.2686
15679TIP3    H168528   4.505   2.371   2.266 -0.0316 -0.5022  0.1789
15679TIP3    H268529   4.430   2.405   2.393 -0.5049  3.4094 -1.0036
15680TIP3   OH268530   2.717   4.412   2.539 -0.0718  0.3979  0.7192
15680TIP3    H168531   2.732   4.349   2.609 -0.8062 -0.9159 -0.2565
15680TIP3    H268532   2.647   4.374   2.487  0.2587  1.4689 -0.5734
15681TIP3   OH268533   6.692   1.921  11.993 -0.2773  0.4295  0.2258
15681TIP3    H168534   6.759   1.853  11.998  0.3676  1.0238 -0.0610
15681TIP3    H268535   6.740   2.000  11.967 -0.9556  1.0777  0.9016
15682TIP3   OH268536   3.433   0.689   4.546 -0.7625  0.0305  0.0825
15682TIP3    H168537   3.372   0.753   4.510 -0.8367  0.6374  1.2511
15682TIP3    H268538   3.477   0.653   4.469 -1.6732  0.5069 -0.6876
15683TIP3   OH268539   5.024   1.466  16.226  0.0618  0.0442 -0.1311
15683TIP3    H168540   5.041   1.465  16.320 -2.4398  2.4095  0.4502
15683TIP3    H268541   5.051   1.553  16.197  2.2747 -1.1439 -2.0370
15684TIP3   OH268542   1.821   1.543  13.572 -0.4320  0.4347  0.3455
15684TIP3    H168543   1.817   1.560  13.478 -0.3865  1.4432  0.5147
15684TIP3    H268544   1.836   1.629  13.612 -0.3345  0.0074  1.2694
15685TIP3   OH268545   0.127   0.137  14.531 -0.2759 -0.2772 -0.5081
15685TIP3    H168546   0.209   0.133  14.580  0.8847 -0.5267 -2.3758
15685TIP3    H268547   0.153   0.129  14.439 -2.0784  2.6478 -1.4428
15686TIP3   OH268548   2.160   0.419   3.296 -0.0843  0.1970  0.4782
15686TIP3    H168549   2.179   0.405   3.203  0.2021  1.3221  0.3427
15686TIP3    H268550   2.236   0.382   3.342 -0.5568 -1.0025  0.3184
15687TIP3   OH268551   1.907   4.608   3.752  0.6512 -0.4053  0.0714
15687TIP3    H168552   1.964   4.627   3.826 -1.6554 -2.0515  2.4513
15687TIP3    H268553   1.942   4.526   3.716  0.7388 -0.5653  0.5072
15688TIP3   OH268554   6.366   4.307   1.623 -0.1573 -0.0472  0.1676
15688TIP3    H168555   6.312   4.383   1.647 -0.2552  0.0891 -0.4620
15688TIP3    H268556   6.440   4.311   1.683 -0.3213  0.3746  0.3481
15689TIP3   OH268557   0.041   0.047   6.444 -0.0475  0.3969 -0.0270
15689TIP3    H168558   0.047   0.119   6.381 -0.9791 -0.5468 -1.2543
15689TIP3    H268559   0.084  -0.027   6.401 -0.5262 -0.2169  0.5177
15690TIP3   OH268560   1.399   4.564   0.071  0.6745  0.2085  0.3580
15690TIP3    H168561   1.347   4.584   0.149  2.5030  0.7847  1.4906
15690TIP3    H268562   1.365   4.624   0.004  1.1657  2.0116  1.6402
15691TIP3   OH268563   5.793   2.983   0.800 -0.4287 -0.2587 -0.3776
15691TIP3    H168564   5.829   3.064   0.765  0.6914 -0.9939 -0.9976
15691TIP3    H268565   5.866   2.921   0.796 -1.1977 -1.2394  0.2873
15692TIP3   OH268566   0.326   5.568  17.000  0.2760  0.2136  0.5213
15692TIP3    H168567   0.258   5.501  16.995  1.4133 -0.9840  0.4301
15692TIP3    H268568   0.404   5.526  16.963  1.3956  1.1018  1.7734
15693TIP3   OH268569   3.245   2.133   2.755  0.6361 -0.1353 -0.6464
15693TIP3    H168570   3.336   2.109   2.737 -0.1675 -2.2778 -2.1844
15693TIP3    H268571   3.198   2.050   2.762 -1.3732  0.9231 -0.7253
15694TIP3   OH268572   1.231   4.541  16.356  0.0035 -0.1068 -0.0046
15694TIP3    H168573   1.251   4.523  16.265 -1.2884 -0.9958 -0.1473
15694TIP3    H268574   1.147   4.587  16.354 -0.2014 -0.4162  0.7381
15695TIP3   OH268575   6.686   1.433  11.563 -0.2940 -0.8507  1.1895
15695TIP3    H168576   6.660   1.430  11.655 -0.9462  1.5415  1.1282
15695TIP3    H268577   6.604   1.438  11.515  0.0770 -1.0526  0.5308
15696TIP3   OH268578   2.539   6.747  16.795  0.4703  0.2252  0.4713
15696TIP3    H168579   2.526   6.652  16.802  1.7131  0.0340  0.3999
15696TIP3    H268580   2.548   6.777  16.885  0.2171  0.2567  0.4873
15697TIP3   OH268581   1.906   1.332  13.136  0.6060  0.4430 -0.0352
15697TIP3    H168582   1.927   1.304  13.225 -0.7225  1.8088  0.7384
15697TIP3    H268583   1.973   1.290  13.082  1.6026 -0.1995  1.6228
15698TIP3   OH268584   4.458   3.488   1.629 -0.2468 -0.6589  0.1630
15698TIP3    H168585   4.366   3.461   1.626 -0.0984 -1.1196 -1.6172
15698TIP3    H268586   4.497   3.433   1.697 -0.6891 -2.6328 -1.0875
15699TIP3   OH268587   5.493   4.851   5.527  0.3779  0.1365  0.4498
15699TIP3    H168588   5.443   4.805   5.595 -2.4049 -0.1832 -1.6088
15699TIP3    H268589   5.444   4.931   5.511  0.2882 -0.2898 -1.8275
15700TIP3   OH268590   4.018   0.143   5.724 -0.5096 -0.9229  0.0274
15700TIP3    H168591   3.923   0.150   5.718 -0.3585  0.9085 -1.0581
15700TIP3    H268592   4.035   0.050   5.734 -2.3442 -1.4905 -1.5736
15701TIP3   OH268593   2.761   4.384  15.401 -0.7279 -0.2057  0.3888
15701TIP3    H168594   2.819   4.381  15.325 -0.1754  0.3011  0.7772
15701TIP3    H268595   2.820   4.390  15.476 -1.2717 -0.4328  0.8430
15702TIP3   OH268596   2.506   1.440  12.915 -0.2868  0.5405 -0.0853
15702TIP3    H168597   2.485   1.348  12.926  0.1323  0.5161  0.5503
15702TIP3    H268598   2.428   1.487  12.943 -0.5040  0.3825 -0.4208
15703TIP3   OH268599   4.777   6.522  13.196 -0.2365  0.1050  0.2634
15703TIP3    H168600   4.792   6.546  13.105  0.1735  0.3259  0.3837
15703TIP3    H268601   4.691   6.481  13.197  0.1136 -0.6721 -0.3612
15704TIP3   OH268602   5.017   0.766   3.196  0.5471 -0.3671 -0.0304
15704TIP3    H168603   4.921   0.766   3.188  0.5689 -0.8353 -0.2887
15704TIP3    H268604   5.032   0.766   3.291  0.2736 -1.9097  0.0476
15705TIP3   OH268605   0.115   3.855   0.742 -0.5338  0.0435  0.7277
15705TIP3    H168606   0.048   3.789   0.725 -0.3525 -0.3520  1.4996
15705TIP3    H268607   0.147   3.835   0.830  0.4568  0.3403  0.4554
15706TIP3   OH268608   5.158   2.262   3.192 -0.7880  0.1935 -0.1890
15706TIP3    H168609   5.184   2.181   3.237 -0.7832  1.0496  1.4119
15706TIP3    H268610   5.158   2.239   3.099 -1.4834 -1.8417  0.2713
15707TIP3   OH268611   6.657   3.113   6.551  0.3850 -0.4700 -0.2356
15707TIP3    H168612   6.683   3.172   6.480 -1.8313  0.2407 -0.5209
15707TIP3    H268613   6.727   3.122   6.616  1.0304  1.0526 -1.0830
15708TIP3   OH268614   6.218   1.533  16.113 -0.4279  0.1655  0.2585
15708TIP3    H168615   6.303   1.572  16.093 -1.2625  1.3817 -1.2098
15708TIP3    H268616   6.235   1.440  16.124  0.6107 -0.3747 -4.1109
15709TIP3   OH268617   3.160   6.761  16.962 -0.1736  0.2449 -0.9501
15709TIP3    H168618   3.129   6.702  16.893  1.2444 -1.2909 -0.3145
15709TIP3    H268619   3.084   6.771  17.019 -0.9558  0.4485 -1.9850
15710TIP3   OH268620   2.311   5.887  16.528  0.1117 -0.6794 -0.4787
15710TIP3    H168621   2.341   5.798  16.545  0.8700 -0.5444 -1.0382
15710TIP3    H268622   2.298   5.890  16.433  0.1130 -0.1948 -0.4654
15711TIP3   OH268623   3.266   4.911   1.797  0.2879  0.5405 -0.3922
15711TIP3    H168624   3.356   4.938   1.817  0.4013  0.4108 -0.7258
15711TIP3    H268625   3.273   4.865   1.714  0.1722 -0.9537  0.4011
15712TIP3   OH268626   4.713   5.722  15.017  0.6898  0.0669  0.4674
15712TIP3    H168627   4.690   5.790  14.953 -1.1488  1.5602  2.5934
15712TIP3    H268628   4.634   5.710  15.069  2.1498 -0.9888  2.5532
15713TIP3   OH268629   1.599   1.406   0.100  0.6023 -0.8300 -0.8952
15713TIP3    H168630   1.555   1.373   0.022  0.0073  0.2882 -1.0558
15713TIP3    H268631   1.689   1.422   0.072  0.3240 -0.1756 -1.4456
15714TIP3   OH268632   5.590   6.541   5.681  0.3000 -0.1565  0.0779
15714TIP3    H168633   5.636   6.509   5.604  0.0210 -0.6493  0.1133
15714TIP3    H268634   5.582   6.636   5.666  0.3058 -0.2381 -0.4645
15715TIP3   OH268635   1.887   2.715  14.781  0.1364  0.7564 -0.5414
15715TIP3    H168636   1.846   2.640  14.824 -1.6098  1.6021 -0.6254
15715TIP3    H268637   1.927   2.765  14.852  2.5649 -0.9116 -0.6285
15716TIP3   OH268638   2.511   2.413   0.078  0.3317 -0.1773 -0.4439
15716TIP3    H168639   2.565   2.453   0.147  0.5684 -2.2482  0.6278
15716TIP3    H268640   2.427   2.458   0.085  1.0169  1.1627 -0.3127
15717TIP3   OH268641   4.245   3.415  16.360  0.6529 -0.1243  0.3247
15717TIP3    H168642   4.224   3.321  16.362  0.1853 -0.0659 -1.0811
15717TIP3    H268643   4.309   3.424  16.290  0.1887  0.6940 -0.0117
15718TIP3   OH268644   0.528   4.778   2.701  0.5053 -0.0705  0.1561
15718TIP3    H168645   0.465   4.742   2.763 -0.7330 -3.1583 -2.6312
15718TIP3    H268646   0.600   4.810   2.757 -1.3381 -0.8036  3.2055
15719TIP3   OH268647   6.477   4.677   4.824  0.6163  0.0618 -0.6976
15719TIP3    H168648   6.530   4.746   4.784  0.4328  1.9826  2.0297
15719TIP3    H268649   6.425   4.641   4.753  2.0655  1.4779 -2.5649
15720TIP3   OH268650   3.992   1.654  10.724 -0.1449  0.7719 -0.2721
15720TIP3    H168651   3.980   1.662  10.629 -2.2789 -2.5734 -0.4563
15720TIP3    H268652   3.932   1.720  10.761  0.1039  1.5494 -1.2060
15721TIP3   OH268653   3.636   1.458  15.423 -0.2010  0.1500  0.0529
15721TIP3    H168654   3.628   1.431  15.514  0.6457 -1.1004 -0.2243
15721TIP3    H268655   3.729   1.475  15.410 -0.5061  1.7444 -0.2086
15722TIP3   OH268656   1.601   3.786   1.328  0.0967 -0.3584  0.2461
15722TIP3    H168657   1.507   3.794   1.313 -0.5548  0.8012  3.9250
15722TIP3    H268658   1.641   3.841   1.260 -1.9472  0.0374 -0.7059
15723TIP3   OH268659   6.834   6.677   4.859  0.1162  0.4210  0.6596
15723TIP3    H168660   6.922   6.664   4.823  0.4047  0.9129  1.1668
15723TIP3    H268661   6.828   6.772   4.873 -1.1230  0.6324 -0.9540
15724TIP3   OH268662   6.003   6.468   5.670 -0.0285  0.4751  0.3438
15724TIP3    H168663   6.088   6.513   5.676  0.5221 -0.5276  0.3153
15724TIP3    H268664   5.939   6.538   5.663  0.7913  1.2578  0.5162
15725TIP3   OH268665   6.636   5.707   4.412  0.0532 -0.4298 -0.0883
15725TIP3    H168666   6.611   5.795   4.441 -0.0956 -0.1651 -0.9724
15725TIP3    H268667   6.568   5.650   4.446 -0.8898  0.0639 -1.0651
15726TIP3   OH268668   2.943   3.584  14.333  0.0588  0.0835  0.0207
15726TIP3    H168669   2.879   3.517  14.354 -0.5158  0.8485  0.7740
15726TIP3    H268670   3.017   3.536  14.295 -0.1356 -1.0274  1.0008
15727TIP3   OH268671   5.582   0.781  12.366  1.0138 -0.2133 -0.2154
15727TIP3    H168672   5.624   0.864  12.384  2.7494 -0.6276 -2.0111
15727TIP3    H268673   5.640   0.715  12.405  1.0021 -0.7016 -1.0012
15728TIP3   OH268674   5.073   3.691   5.965  0.2871 -0.5763  0.3007
15728TIP3    H168675   5.104   3.627   6.030 -0.9886  0.8155  2.4159
15728TIP3    H268676   5.149   3.748   5.950  0.9953 -1.6909 -0.5103
15729TIP3   OH268677   6.698   2.066   5.213 -0.1539 -0.0631  0.6283
15729TIP3    H168678   6.628   2.060   5.148 -0.8640  0.9236  1.2751
15729TIP3    H268679   6.749   2.142   5.187 -1.2959  1.2250  1.9952
15730TIP3   OH268680   6.253   2.521   3.799 -0.2315 -0.5751 -0.1869
15730TIP3    H168681   6.191   2.541   3.869 -1.0468 -1.2668 -0.6933
15730TIP3    H268682   6.335   2.560   3.828 -0.6904 -0.3839  0.8967
15731TIP3   OH268683   1.065   2.612  14.389 -0.3753 -0.0312 -0.0744
15731TIP3    H168684   1.004   2.587  14.458  0.4129  1.3839  1.1911
15731TIP3    H268685   1.031   2.694  14.354  0.4466  0.4443  0.2185
15732TIP3   OH268686   3.333   1.442  15.394 -0.1583  0.7605  0.2883
15732TIP3    H168687   3.331   1.476  15.484  0.6715 -1.6836  1.3063
15732TIP3    H268688   3.427   1.439  15.372 -0.0126 -2.4837  0.9751
15733TIP3   OH268689   1.754   3.077   0.091  0.0960 -0.3003 -0.1569
15733TIP3    H168690   1.766   3.123   0.174  0.2513  0.6510 -0.6901
15733TIP3    H268691   1.780   3.141   0.024 -0.2895 -0.9546 -0.9521
15734TIP3   OH268692   4.860   3.178   1.448  0.2922  0.1931  0.2053
15734TIP3    H168693   4.817   3.258   1.479  0.4626 -0.9047  3.7206
15734TIP3    H268694   4.936   3.167   1.506  0.6915 -2.1371 -0.6286
15735TIP3   OH268695   1.300   3.587  12.541  0.2312 -0.5510  0.4061
15735TIP3    H168696   1.236   3.582  12.612 -0.1569 -0.9786  0.0310
15735TIP3    H268697   1.329   3.678  12.541  1.0369 -0.7772  1.8075
15736TIP3   OH268698   6.245   4.261  15.890  0.7688  0.2677 -0.0209
15736TIP3    H168699   6.226   4.249  15.797  0.3437  0.2343  0.0689
15736TIP3    H268700   6.262   4.355  15.899  0.6533  0.2965 -0.1050
15737TIP3   OH268701   0.859   4.688   2.803  0.2137 -0.1615  0.1303
15737TIP3    H168702   0.813   4.760   2.845  0.0809 -0.6320  0.8119
15737TIP3    H268703   0.935   4.728   2.761 -0.1405  0.4423  0.0681
15738TIP3   OH268704   1.788   4.422  12.974  0.0378  0.4086  0.2797
15738TIP3    H168705   1.746   4.449  13.056  0.6909  0.7219  0.5153
15738TIP3    H268706   1.800   4.328  12.984 -0.0579  0.4150  0.4632
15739TIP3   OH268707   3.504   2.109  13.495  0.0650  0.0442 -0.2540
15739TIP3    H168708   3.484   2.032  13.549  1.0337  1.1899  1.8564
15739TIP3    H268709   3.457   2.181  13.538  1.2748  1.0942 -0.6391
15740TIP3   OH268710   2.743   5.042   0.503  0.3181  0.0773 -0.1919
15740TIP3    H168711   2.834   5.022   0.526  0.3919 -0.1326 -0.6659
15740TIP3    H268712   2.741   5.138   0.495  0.3317  0.1464  0.4908
15741TIP3   OH268713   2.513   6.346   4.082  0.4690 -0.0362  0.3110
15741TIP3    H168714   2.564   6.332   4.003 -0.2139 -0.7085 -0.0348
15741TIP3    H268715   2.450   6.414   4.058 -0.5410 -1.0902 -0.1438
15742TIP3   OH268716   0.892   4.002   1.061  0.3299  0.0365  0.0947
15742TIP3    H168717   0.975   4.042   1.037  0.5000 -0.6961 -0.5590
15742TIP3    H268718   0.900   3.911   1.033  0.4389 -0.8216  2.6623
15743TIP3   OH268719   3.990   2.136  12.974 -0.5648 -0.7299  0.2725
15743TIP3    H168720   4.012   2.051  12.938 -0.4373 -0.4735 -0.2553
15743TIP3    H268721   4.057   2.195  12.941 -0.2652 -0.5442  1.1677
15744TIP3   OH268722   0.778   3.104  14.092  0.1217  0.2049  0.2579
15744TIP3    H168723   0.698   3.157  14.098 -0.0199  0.0815 -0.4472
15744TIP3    H268724   0.826   3.124  14.173 -0.2049  0.9529  0.2767
15745TIP3   OH268725   0.827   5.400  11.173  0.4849 -0.3443 -0.4474
15745TIP3    H168726   0.798   5.333  11.111 -2.1229  1.1342 -1.0091
15745TIP3    H268727   0.793   5.371  11.257 -1.3409  0.5545 -0.8216
15746TIP3   OH268728   4.834   2.637   2.353  0.6984  0.6705 -0.2016
15746TIP3    H168729   4.828   2.545   2.380 -0.5160  1.1938  1.4756
15746TIP3    H268730   4.762   2.648   2.290 -1.6900  1.3153  2.4590
15747TIP3   OH268731   4.461   4.106  16.563 -0.3856  0.0538  0.3694
15747TIP3    H168732   4.383   4.127  16.512  0.6808  0.9967 -0.9645
15747TIP3    H268733   4.509   4.189  16.568  1.4583 -0.8949 -0.5424
15748TIP3   OH268734   2.387   1.627  16.602  0.0444  0.2591  0.7332
15748TIP3    H168735   2.362   1.630  16.510 -1.6827 -0.4405  1.1228
15748TIP3    H268736   2.462   1.568  16.605 -0.2893 -0.2276 -0.1518
15749TIP3   OH268737   0.588   2.875   4.337 -0.0539 -0.4700 -0.0071
15749TIP3    H168738   0.634   2.817   4.276 -0.0221 -0.3828 -0.0657
15749TIP3    H268739   0.505   2.831   4.354 -1.2615  0.8302 -2.2478
15750TIP3   OH268740   1.048   5.014   2.587 -0.1673  0.5642 -0.2858
15750TIP3    H168741   1.074   5.070   2.660  1.1045  0.9952 -1.0464
15750TIP3    H268742   1.050   4.925   2.623  1.9795  0.6193 -0.1842
15751TIP3   OH268743   1.784   3.301  15.594  0.3429  0.0927  0.2961
15751TIP3    H168744   1.722   3.245  15.641 -0.1926 -0.1525 -0.6719
15751TIP3    H268745   1.816   3.362  15.661 -0.2464 -0.3687  1.0205
15752TIP3   OH268746   2.263   4.056  16.205 -0.0573 -0.4584 -0.4527
15752TIP3    H168747   2.246   4.116  16.278  1.9037 -0.0746 -0.2647
15752TIP3    H268748   2.325   4.103  16.149  2.1139 -2.5253  0.0800
15753TIP3   OH268749   4.774   1.778  13.221 -0.2849  0.2748  0.3266
15753TIP3    H168750   4.738   1.862  13.193 -0.6388  0.1397  0.3828
15753TIP3    H268751   4.828   1.800  13.297  0.8303  0.6718 -0.5505
15754TIP3   OH268752   5.053   3.322   3.375  0.0526 -0.3011 -0.0946
15754TIP3    H168753   5.110   3.246   3.388  1.1721  0.4517 -0.3881
15754TIP3    H268754   5.113   3.397   3.378 -0.8085  0.4615 -1.2828
15755TIP3   OH268755   1.261   4.700   2.333 -0.0060 -0.2041 -0.0474
15755TIP3    H168756   1.190   4.636   2.343 -0.4802  0.5265  1.7102
15755TIP3    H268757   1.218   4.777   2.296  0.2037 -0.2936 -0.4817
15756TIP3   OH268758   5.228   5.923  15.606  0.2403 -0.6273  0.0535
15756TIP3    H168759   5.250   5.998  15.660 -2.1677 -1.6503  2.7028
15756TIP3    H268760   5.168   5.957  15.540 -0.0526 -0.0363  0.6185
15757TIP3   OH268761   5.022   4.417  14.349  0.3167 -0.2946 -0.2182
15757TIP3    H168762   4.944   4.438  14.298  0.1709 -0.0538  0.0968
15757TIP3    H268763   5.093   4.463  14.305 -0.1734  1.8581  1.1036
15758TIP3   OH268764   4.865   5.191  16.153  0.2698 -0.8534  0.2640
15758TIP3    H168765   4.887   5.105  16.190  1.9244  0.4680  2.6420
15758TIP3    H268766   4.926   5.202  16.081  1.6239 -0.8258  1.3621
15759TIP3   OH268767   3.445   4.012  16.507  0.2920  0.2355  0.0888
15759TIP3    H168768   3.504   4.087  16.502 -0.2835  0.6481 -0.8921
15759TIP3    H268769   3.360   4.050  16.530  0.6769 -0.5172  3.1629
15760TIP3   OH268770   0.477   2.712  13.409 -0.4520 -0.0946 -0.2113
15760TIP3    H168771   0.440   2.710  13.497  0.5139 -0.0705  0.2066
15760TIP3    H268772   0.542   2.782  13.412 -0.6597  0.1542 -1.0545
15761TIP3   OH268773   3.138   4.254   3.838  0.3897 -0.2304 -0.8599
15761TIP3    H168774   3.115   4.191   3.906  1.6406 -1.0516 -1.1666
15761TIP3    H268775   3.122   4.339   3.878 -3.0933 -0.6508 -1.0198
15762TIP3   OH268776   0.086   6.848  14.939  0.3666  0.4980 -0.2776
15762TIP3    H168777   0.159   6.831  14.999 -0.2826  1.5593  0.8605
15762TIP3    H268778   0.107   6.932  14.899  0.2946  0.2851 -0.7591
15763TIP3   OH268779   0.114   2.186  15.810  0.3952 -0.4123 -0.2816
15763TIP3    H168780   0.177   2.246  15.771  1.0706 -0.3481  0.8891
15763TIP3    H268781   0.146   2.170  15.898 -0.0669 -2.0625 -0.3656
15764TIP3   OH268782   6.192   2.995  11.790 -0.1637  0.4819  0.3978
15764TIP3    H168783   6.271   3.040  11.821 -0.0078  0.4519  0.0432
15764TIP3    H268784   6.197   3.000  11.695 -0.1648 -0.2438  0.3517
15765TIP3   OH268785   0.018   3.056   6.224  0.1335 -0.3158 -0.1045
15765TIP3    H168786   0.089   3.064   6.287  0.4252 -0.1001 -0.4560
15765TIP3    H268787  -0.019   2.969   6.240  1.9499 -1.4103 -1.4305
15766TIP3   OH268788   1.905   3.858   2.474  0.2234  0.6626  0.0172
15766TIP3    H168789   1.831   3.907   2.437 -0.3200  0.2677  0.5681
15766TIP3    H268790   1.980   3.917   2.463 -0.0708  0.8599 -1.0081
15767TIP3   OH268791   4.329   5.969   3.343  0.2179 -0.4266  0.2572
15767TIP3    H168792   4.366   5.940   3.259 -1.4689 -0.4454 -0.5399
15767TIP3    H268793   4.288   6.053   3.323  0.2741 -0.1654  1.2127
15768TIP3   OH268794   5.389   4.840  10.047  0.1397 -0.2728 -0.4372
15768TIP3    H168795   5.327   4.774  10.015 -0.3904 -0.1326  0.2553
15768TIP3    H268796   5.451   4.790  10.101 -3.1218  0.1696  4.4024
15769TIP3   OH268797   1.296   5.903  12.558 -0.1871 -0.1483 -0.2129
15769TIP3    H168798   1.277   5.921  12.466  0.6779 -1.5907 -0.7162
15769TIP3    H268799   1.345   5.979  12.588  1.8361 -0.7525 -1.7404
15770TIP3   OH268800   4.379   1.993   1.609 -0.3812 -0.2678 -0.4024
15770TIP3    H168801   4.444   1.973   1.675 -1.1319 -0.5669  0.2653
15770TIP3    H268802   4.427   1.994   1.526  0.5159 -0.1389  0.1163
15771TIP3   OH268803   1.146   1.188  16.179  0.4970  0.1069  0.4050
15771TIP3    H168804   1.183   1.107  16.214  1.4589  0.1210 -0.5458
15771TIP3    H268805   1.214   1.224  16.122 -0.8346  0.3103 -1.1354
15772TIP3   OH268806   2.986   3.065   4.904  0.1756  0.5531  0.0359
15772TIP3    H168807   2.969   3.034   4.993 -0.4642 -0.2493 -0.3532
15772TIP3    H268808   2.961   3.157   4.905 -0.0208  0.4958  0.6397
15773TIP3   OH268809   5.962   1.977  11.925 -0.2338  0.3048  0.3898
15773TIP3    H168810   6.023   2.044  11.955  0.8559  0.3036 -1.6298
15773TIP3    H268811   5.906   1.960  12.000  0.6780  2.0986  1.5462
15774TIP3   OH268812   3.295   4.251   2.473 -0.2142  0.4777 -0.0462
15774TIP3    H168813   3.361   4.210   2.528 -0.4397  0.0362 -0.1034
15774TIP3    H268814   3.229   4.283   2.534  0.7405  2.2349  0.1419
15775TIP3   OH268815   1.283   1.886   4.461 -0.1524  0.2254  0.0731
15775TIP3    H168816   1.193   1.919   4.463 -0.3325 -0.2864  0.5359
15775TIP3    H268817   1.313   1.902   4.371 -0.3140  1.4284  0.2234
15776TIP3   OH268818   4.325   4.519   3.604  0.4255  0.2307 -0.2709
15776TIP3    H168819   4.256   4.509   3.538  0.9305 -1.2246 -0.6252
15776TIP3    H268820   4.403   4.481   3.562  0.7332 -0.8287  1.1843
15777TIP3   OH268821   1.009   3.729   1.020 -0.4158 -0.0799 -0.2651
15777TIP3    H168822   1.005   3.633   1.027  0.2162 -0.1135 -0.3206
15777TIP3    H268823   1.055   3.745   0.937  0.1441  0.2609  0.1052
15778TIP3   OH268824   6.743   3.692  15.111  0.3744  0.1107  0.3904
15778TIP3    H168825   6.735   3.666  15.019 -0.4855  2.1188 -0.1565
15778TIP3    H268826   6.690   3.628  15.159  0.6807 -0.8488 -0.5089
15779TIP3   OH268827   6.578   2.513   4.127  0.0628  0.1193 -0.1247
15779TIP3    H168828   6.536   2.564   4.058 -1.2638 -3.7732 -2.5746
15779TIP3    H268829   6.595   2.428   4.085  0.8303 -1.9335  3.9167
15780TIP3   OH268830   0.614   3.179   5.851  0.1731 -0.1349 -0.6328
15780TIP3    H168831   0.568   3.148   5.929  1.1274 -2.7651 -1.0320
15780TIP3    H268832   0.602   3.110   5.787  2.2404  0.4153 -1.7043
15781TIP3   OH268833   1.563   6.340  13.039 -0.0178  0.4659 -0.0058
15781TIP3    H168834   1.519   6.256  13.055 -1.6555  1.1866 -0.5476
15781TIP3    H268835   1.497   6.406  13.058  2.2310  1.8851  3.9515
15782TIP3   OH268836   4.070   4.117   0.248  0.3960  0.2097  0.0858
15782TIP3    H168837   4.089   4.034   0.203  2.1234  0.8139 -0.3712
15782TIP3    H268838   3.987   4.146   0.210 -0.9170 -1.8865  1.1542
15783TIP3   OH268839   1.495   1.362  13.460  0.1423  0.1590  0.4422
15783TIP3    H168840   1.481   1.417  13.383  0.9176  0.4554  0.5068
15783TIP3    H268841   1.486   1.273  13.428  0.1376  0.2890  0.0811
15784TIP3   OH268842   2.656   3.726  12.150 -0.1166 -0.0739  0.3762
15784TIP3    H168843   2.717   3.773  12.092  0.5114  3.3098  3.3768
15784TIP3    H268844   2.581   3.785  12.157 -0.0098 -0.1421  3.1339
15785TIP3   OH268845   1.625   3.982   3.784  0.5311 -0.0483  0.0932
15785TIP3    H168846   1.558   4.019   3.726  1.4967  0.0286 -1.0041
15785TIP3    H268847   1.599   4.012   3.872 -0.4591  0.5920 -0.3957
15786TIP3   OH268848   5.939   6.464   5.298  0.2164 -0.6138 -0.0928
15786TIP3    H168849   5.977   6.390   5.345  1.0177 -0.8831 -1.1148
15786TIP3    H268850   5.971   6.541   5.344  0.4771 -0.8799  0.1745
15787TIP3   OH268851   2.572   2.585   0.572  0.0062 -0.2912 -0.0965
15787TIP3    H168852   2.626   2.632   0.508 -0.3348 -0.5665 -0.5950
15787TIP3    H268853   2.509   2.536   0.519  0.0266 -0.9077  0.4355
15788TIP3   OH268854   0.540   4.205  10.599 -0.9286  0.9070 -0.0729
15788TIP3    H168855   0.625   4.227  10.562  0.4789 -0.9970  1.7715
15788TIP3    H268856   0.509   4.286  10.639  1.4179  1.0460  1.6796
15789TIP3   OH268857   5.662   2.856   4.546  0.4639 -0.0844  0.1140
15789TIP3    H168858   5.600   2.855   4.618 -0.0239 -1.3061 -0.2869
15789TIP3    H268859   5.744   2.826   4.584 -0.0234 -1.6476 -0.0012
15790TIP3   OH268860   4.004   6.316   1.283 -0.3175  0.1981 -0.1729
15790TIP3    H168861   3.929   6.278   1.330 -0.6709  1.1773  0.0864
15790TIP3    H268862   3.995   6.284   1.194 -1.0298  0.2509 -0.1278
15791TIP3   OH268863   1.992   1.885   3.749  0.1723  0.1868 -0.6979
15791TIP3    H168864   1.940   1.960   3.777 -2.0537 -1.1695 -0.9740
15791TIP3    H268865   1.990   1.825   3.823 -0.5740 -0.8094 -1.4817
15792TIP3   OH268866   5.917   2.656  12.055  0.2361 -0.2872  0.1716
15792TIP3    H168867   5.988   2.658  12.119 -0.8008  0.3116  1.3348
15792TIP3    H268868   5.849   2.712  12.092 -0.3724  0.1426 -1.5005
15793TIP3   OH268869   1.842   4.056   6.107 -0.0859 -0.4968 -0.0270
15793TIP3    H168870   1.869   4.096   6.190 -0.4160 -0.1345 -0.0942
15793TIP3    H268871   1.793   3.978   6.134  1.6143 -1.5692  0.0884
15794TIP3   OH268872   5.796   1.221  11.582 -0.4057  0.0087 -0.3224
15794TIP3    H168873   5.883   1.202  11.546  0.6429  0.8464  1.6290
15794TIP3    H268874   5.741   1.148  11.551  1.6059 -1.9797  0.5177
15795TIP3   OH268875   1.362   4.861  11.830  0.1759 -0.1541  0.0395
15795TIP3    H168876   1.334   4.879  11.920 -2.0582 -0.5890 -0.5302
15795TIP3    H268877   1.439   4.804  11.840 -0.6703 -1.0805  1.6916
15796TIP3   OH268878   1.720   0.456  11.324  0.0367 -0.0051  0.4470
15796TIP3    H168879   1.791   0.436  11.386 -0.6492  0.3292  1.3730
15796TIP3    H268880   1.747   0.538  11.283  1.2883 -1.0598 -0.9521
15797TIP3   OH268881   0.049   5.144  14.428 -0.4748 -0.3525  0.0615
15797TIP3    H168882  -0.032   5.101  14.454 -0.9825  0.2171 -0.5177
15797TIP3    H268883   0.027   5.238  14.427 -0.6916 -0.3410 -2.8703
15798TIP3   OH268884   5.613   1.878  11.016 -0.4225 -0.2710 -0.5777
15798TIP3    H168885   5.535   1.910  10.969  0.0533  1.3735 -0.3020
15798TIP3    H268886   5.579   1.848  11.100 -0.8167  0.0959 -0.6027
15799TIP3   OH268887   1.760   2.080  13.951  0.2779 -0.1310 -0.2467
15799TIP3    H168888   1.815   2.025  14.006  1.3086  1.1546  0.0771
15799TIP3    H268889   1.700   2.123  14.012 -0.9604 -1.3521 -0.5728
15800TIP3   OH268890   6.639   5.969   6.455  0.3450 -0.2296  0.4819
15800TIP3    H168891   6.556   5.994   6.415  0.6226 -2.0000 -1.3563
15800TIP3    H268892   6.629   5.876   6.476  1.8875 -0.5337  0.0278
15801TIP3   OH268893   4.842   5.441   5.224  0.2090  0.4465  0.1427
15801TIP3    H168894   4.896   5.368   5.193  1.6367  1.0425  1.0728
15801TIP3    H268895   4.866   5.514   5.168  1.1707  0.9644  1.1647
15802TIP3   OH268896   1.420   4.981   6.167  0.5176  0.1725  0.0563
15802TIP3    H168897   1.353   4.942   6.111  1.2236  0.1852 -0.8099
15802TIP3    H268898   1.411   5.075   6.154  2.5439  0.1454 -2.3423
15803TIP3   OH268899   4.377   3.213  16.606 -0.2584  0.0531  0.5828
15803TIP3    H168900   4.282   3.207  16.597 -0.0362  0.0272 -2.6963
15803TIP3    H268901   4.401   3.293  16.560  1.4924 -1.2613 -0.9358
15804TIP3   OH268902   2.121   1.473   5.186 -0.0022 -0.2255  0.2944
15804TIP3    H168903   2.216   1.466   5.198  0.3331  3.0099  0.3939
15804TIP3    H268904   2.090   1.512   5.268 -0.9678  1.3729 -0.7824
15805TIP3   OH268905   4.147   3.973   0.803  1.0420 -0.2348 -0.1820
15805TIP3    H168906   4.190   3.978   0.717 -0.6137  0.8533 -1.0100
15805TIP3    H268907   4.199   4.030   0.859  1.2282  0.3497 -0.9197
15806TIP3   OH268908   6.683   4.364   4.582 -0.0669 -0.1584 -0.3153
15806TIP3    H168909   6.684   4.458   4.566 -0.0512 -0.0502  0.3030
15806TIP3    H268910   6.591   4.343   4.597  0.0183 -0.1008  0.3241
15807TIP3   OH268911   5.700   6.301   2.550 -0.0813 -0.0040  0.2234
15807TIP3    H168912   5.733   6.241   2.617  0.8862  2.1320  1.7624
15807TIP3    H268913   5.637   6.357   2.597 -0.0788  0.9467 -0.8739
15808TIP3   OH268914   0.299   0.034   4.144  0.0689 -0.2511 -0.2082
15808TIP3    H168915   0.249  -0.042   4.175  0.8530 -0.3366  0.9272
15808TIP3    H268916   0.314   0.086   4.224  1.3829  0.0054 -0.6113
15809TIP3   OH268917   0.121   1.462  15.099  1.3892  0.3488 -0.1833
15809TIP3    H168918   0.058   1.527  15.131 -0.3320 -1.4778  0.3737
15809TIP3    H268919   0.105   1.385  15.154  3.8273 -0.3511 -0.3505
15810TIP3   OH268920   3.157   0.214   4.598 -0.3994  0.2782 -0.6488
15810TIP3    H168921   3.193   0.300   4.619  1.5383 -0.0739 -2.2114
15810TIP3    H268922   3.219   0.152   4.638 -0.9701 -0.3768 -0.7666
15811TIP3   OH268923   3.171   0.583  15.241  0.4982 -0.1658 -0.1584
15811TIP3    H168924   3.230   0.647  15.281 -1.0616  1.7434 -0.7825
15811TIP3    H268925   3.183   0.504  15.294  1.6141  0.9730  1.3917
15812TIP3   OH268926   5.999   2.270   1.590 -0.2734 -0.3419  0.6579
15812TIP3    H168927   5.911   2.240   1.566 -0.0919 -0.5260  0.2095
15812TIP3    H268928   6.032   2.312   1.510 -0.2104  0.3297  1.0285
15813TIP3   OH268929   1.431   2.810   3.148 -0.6881 -0.2047 -0.0547
15813TIP3    H168930   1.399   2.767   3.069  0.3462 -2.6583  0.7899
15813TIP3    H268931   1.353   2.821   3.202 -0.9641 -1.2048 -0.2285
15814TIP3   OH268932   1.381   1.536   4.914  0.3697  0.5230 -0.1792
15814TIP3    H168933   1.360   1.442   4.917 -1.9191  0.9891  0.4132
15814TIP3    H268934   1.364   1.562   4.824  0.2622  0.5135 -0.1621
15815TIP3   OH268935   0.079   0.399   3.357  0.1697  0.2741  0.3986
15815TIP3    H168936   0.015   0.411   3.426 -0.2139  0.3972  0.0226
15815TIP3    H268937   0.131   0.324   3.386 -0.0199  0.2926  0.7936
15816TIP3   OH268938   3.581   4.965  11.940 -0.2598  0.0058 -0.3350
15816TIP3    H168939   3.539   4.996  11.860 -1.2415 -0.3611  0.0154
15816TIP3    H268940   3.671   4.996  11.934 -0.8943  1.8936 -0.5384
15817TIP3   OH268941   1.356   2.275   4.232  0.2385  0.3588 -0.3098
15817TIP3    H168942   1.315   2.292   4.317  0.1191 -0.3993 -0.2030
15817TIP3    H268943   1.346   2.357   4.183 -4.1746 -0.5415 -1.4283
15818TIP3   OH268944   0.899   3.806  14.412  0.0651 -0.2095  0.3000
15818TIP3    H168945   0.962   3.765  14.353 -0.8081 -1.8057  0.4144
15818TIP3    H268946   0.896   3.897  14.385  0.2868 -0.7251 -1.6028
15819TIP3   OH268947   2.179   3.154   4.835 -0.4274 -0.2015 -0.3045
15819TIP3    H168948   2.099   3.206   4.834  0.4488  1.1862 -0.7833
15819TIP3    H268949   2.245   3.212   4.874  0.3989 -1.2325 -0.1231
15820TIP3   OH268950   4.623   3.331   0.548  0.3284  0.3404 -0.6488
15820TIP3    H168951   4.581   3.288   0.473  1.0750 -0.8708 -0.3921
15820TIP3    H268952   4.554   3.386   0.586 -0.2161  0.5364 -1.8845
15821TIP3   OH268953   5.170   1.556   3.058  0.4775 -0.3128  0.2078
15821TIP3    H168954   5.257   1.519   3.044  1.1588  0.3808  2.2248
15821TIP3    H268955   5.110   1.481   3.053  1.2482 -0.8854 -0.6381
15822TIP3   OH268956   1.384   0.439  16.001 -0.1480 -0.1988 -0.2935
15822TIP3    H168957   1.300   0.481  16.018 -0.9571 -1.8638  0.0295
15822TIP3    H268958   1.407   0.465  15.912 -0.0433  1.7688  0.2479
15823TIP3   OH268959   2.870   6.143  17.003 -0.8061  0.0225  0.0143
15823TIP3    H168960   2.814   6.171  16.930 -1.1159  0.7363  0.5108
15823TIP3    H268961   2.809   6.103  17.065 -0.4006 -1.6151 -0.5846
15824TIP3   OH268962   0.318   3.931   4.827  0.4548  0.8704  0.5962
15824TIP3    H168963   0.294   4.019   4.796  0.1503  0.4243 -0.4916
15824TIP3    H268964   0.337   3.882   4.747  0.3867 -0.1237  1.1740
15825TIP3   OH268965   5.611   1.527  13.012  0.2409 -0.1654  0.4808
15825TIP3    H168966   5.542   1.463  13.030  1.1907 -0.3972  3.8510
15825TIP3    H268967   5.671   1.481  12.954 -0.5533 -1.2616  0.4828
15826TIP3   OH268968   0.858   4.889   3.828  0.1022 -0.1756  0.2535
15826TIP3    H168969   0.920   4.817   3.832 -1.2799 -1.3894  0.9087
15826TIP3    H268970   0.773   4.847   3.816 -0.7227  1.3557  0.4410
15827TIP3   OH268971   2.067   3.336   0.924 -0.0882  0.0340  0.0783
15827TIP3    H168972   2.031   3.252   0.953  1.2206 -1.1374 -1.5251
15827TIP3    H268973   1.990   3.387   0.898 -0.8224 -1.1879 -0.2277
15828TIP3   OH268974   4.348   1.765  15.037  0.2671 -0.0666  0.5871
15828TIP3    H168975   4.304   1.753  14.952 -2.2815  1.4688  1.5834
15828TIP3    H268976   4.286   1.729  15.101  1.4012  0.3291  1.9492
15829TIP3   OH268977   0.723   3.947  12.757  0.2030 -0.3194  0.3824
15829TIP3    H168978   0.799   3.976  12.807  0.9408 -3.0106  0.9920
15829TIP3    H268979   0.662   3.914  12.823 -0.5752 -0.1677 -0.2460
15830TIP3   OH268980   2.274   5.300  15.306  0.0162 -0.2379 -0.4397
15830TIP3    H168981   2.366   5.299  15.279  0.5267  2.7818  0.7721
15830TIP3    H268982   2.229   5.245  15.242  2.4754 -0.6926 -1.8730
15831TIP3   OH268983   4.804   6.737   1.450  0.3507 -0.6470  0.7655
15831TIP3    H168984   4.717   6.709   1.477 -0.2263  0.1320 -0.2529
15831TIP3    H268985   4.851   6.655   1.432 -0.7195 -1.0375 -0.3504
15832TIP3   OH268986   2.163   1.863   6.100  0.4398 -0.1247  0.0940
15832TIP3    H168987   2.077   1.888   6.133  0.8097  0.1804  0.8351
15832TIP3    H268988   2.162   1.888   6.007  0.1068  0.8361  0.3553
15833TIP3   OH268989   0.853   0.556   2.333 -0.3505  0.7322  0.2935
15833TIP3    H168990   0.913   0.507   2.277 -2.0768  1.9113 -2.8296
15833TIP3    H268991   0.777   0.498   2.342 -0.8486  1.3002 -0.2107
15834TIP3   OH268992   6.720   6.678  14.946 -0.5451  0.0690  0.4952
15834TIP3    H168993   6.654   6.689  14.877 -2.5674  3.4287  2.6311
15834TIP3    H268994   6.785   6.746  14.927 -0.3167  0.0075  1.0447
15835TIP3   OH268995   5.680   5.981  10.984  0.0126 -0.0193  0.1479
15835TIP3    H168996   5.664   5.898  10.939 -1.1237  0.0304  0.4214
15835TIP3    H268997   5.592   6.017  10.999  0.2693 -0.2726  2.8213
15836TIP3   OH268998   4.870   6.177   5.243 -0.1114 -0.6267  0.1012
15836TIP3    H168999   4.863   6.272   5.231  0.8125 -0.7162 -1.3219
15836TIP3    H269000   4.781   6.145   5.232 -0.6165  0.1505  1.5751
15837TIP3   OH269001   4.894   2.163  11.612  0.4248 -0.1847  0.4468
15837TIP3    H169002   4.862   2.093  11.555  1.6048 -1.9326  1.8329
15837TIP3    H269003   4.989   2.147  11.618  0.3085 -0.1924  3.0361
15838TIP3   OH269004   3.255   0.487   4.331 -0.3095  0.2211  0.0248
15838TIP3    H169005   3.344   0.522   4.334 -0.5539  0.8821 -0.3836
15838TIP3    H269006   3.268   0.393   4.316  0.3348  0.1756  0.7686
15839TIP3   OH269007   5.338   0.582   3.124  0.2355  0.0535  0.7693
15839TIP3    H169008   5.391   0.660   3.134 -0.4243  0.3699  2.1222
15839TIP3    H269009   5.289   0.595   3.043  1.5382  0.1455 -0.0248
15840TIP3   OH269010   0.127   2.220  13.391  0.0355  0.6640  0.0036
15840TIP3    H169011   0.063   2.197  13.323  0.3657  1.8653 -0.7519
15840TIP3    H269012   0.204   2.248  13.342 -0.0405  2.4824  0.8364
15841TIP3   OH269013   3.795   6.053  13.321  0.8002  0.1881 -0.1431
15841TIP3    H169014   3.756   6.126  13.272 -0.2194 -0.1583  0.1347
15841TIP3    H269015   3.830   6.094  13.400  0.2046  0.3714  0.0273
15842TIP3   OH269016   0.746   4.390   5.635 -0.3947 -0.3110 -0.4112
15842TIP3    H169017   0.664   4.341   5.640 -0.1541 -0.7642 -0.8126
15842TIP3    H269018   0.734   4.462   5.696 -1.2474 -0.1382 -0.7621
15843TIP3   OH269019   6.348   3.813  11.200  0.6395 -1.0499  0.4880
15843TIP3    H169020   6.349   3.866  11.120  2.1992 -0.4347  0.8778
15843TIP3    H269021   6.366   3.724  11.171  0.8035 -0.8937  0.1107
15844TIP3   OH269022   0.291   5.081   3.120  0.1135 -0.3981  0.1346
15844TIP3    H169023   0.344   5.155   3.148 -1.2813  0.1837  1.3568
15844TIP3    H269024   0.313   5.070   3.027 -0.9669  2.7423 -0.6141
15845TIP3   OH269025   0.469   0.399   5.236 -0.2037  0.2217  0.5740
15845TIP3    H169026   0.498   0.486   5.210  0.6498 -0.6656 -1.6668
15845TIP3    H269027   0.550   0.348   5.246 -0.7273 -1.2119 -1.7386
15846TIP3   OH269028   3.151   0.524  15.593 -0.5082  0.2136  0.0508
15846TIP3    H169029   3.073   0.468  15.599 -0.5653  0.4643  2.5781
15846TIP3    H269030   3.224   0.462  15.592 -0.6728  0.0189 -0.0897
15847TIP3   OH269031   3.747   4.487  16.571 -0.3604  0.1800  0.1194
15847TIP3    H169032   3.673   4.537  16.607 -0.5248  0.5339 -0.6824
15847TIP3    H269033   3.799   4.462  16.648 -0.2785  1.5702  0.5466
15848TIP3   OH269034   3.569   3.910   4.323  0.4891 -0.1582 -0.0420
15848TIP3    H169035   3.506   3.926   4.393  0.5627  2.0896 -0.4363
15848TIP3    H269036   3.655   3.925   4.364  0.6624 -0.9733 -0.0875
15849TIP3   OH269037   5.654   2.455   4.784 -0.3260  0.3204  0.0353
15849TIP3    H169038   5.667   2.383   4.845  0.3648  1.4986  1.3108
15849TIP3    H269039   5.561   2.450   4.761 -0.6171 -0.1056  1.2348
15850TIP3   OH269040   4.840   3.291  15.156  0.4668  0.0361 -0.7053
15850TIP3    H169041   4.866   3.199  15.151  2.3778  0.3673  1.3619
15850TIP3    H269042   4.745   3.289  15.166  0.5584 -1.7890  0.1591
15851TIP3   OH269043   4.852   1.027   4.603 -0.2129  0.0142 -0.4201
15851TIP3    H169044   4.868   0.940   4.567 -0.0406 -0.9385  1.7748
15851TIP3    H269045   4.939   1.065   4.613 -0.0523 -0.6535  1.0325
15852TIP3   OH269046   0.503   4.251   4.060  0.4628  0.0217  0.3214
15852TIP3    H169047   0.457   4.311   4.117  3.1568  1.1874  1.4319
15852TIP3    H269048   0.474   4.274   3.972 -1.0922  0.6111  0.9668
15853TIP3   OH269049   1.245   3.717  15.728  0.1908 -0.1860 -0.0392
15853TIP3    H169050   1.322   3.738  15.780  0.3431 -0.2541 -0.2371
15853TIP3    H269051   1.173   3.713  15.792 -0.0152  1.7829 -0.0951
15854TIP3   OH269052   5.377   1.679  12.209 -0.0326 -0.0302  0.0609
15854TIP3    H169053   5.357   1.586  12.219  1.8017 -0.5545 -0.7981
15854TIP3    H269054   5.378   1.694  12.115  0.8142  0.6016  0.1578
15855TIP3   OH269055   0.622   5.097   3.584 -0.7980  0.3916  0.0421
15855TIP3    H169056   0.553   5.039   3.552 -0.8620  0.4001  0.1652
15855TIP3    H269057   0.678   5.042   3.639 -0.0172  0.0936 -1.0108
15856TIP3   OH269058   5.360   5.701  12.667  0.0137  0.8043  0.1899
15856TIP3    H169059   5.433   5.681  12.609 -0.1804  0.6249  0.0054
15856TIP3    H269060   5.399   5.709  12.754  0.2866  0.9502  0.0546
15857TIP3   OH269061   0.783   4.851  14.725  0.0347  0.7026 -0.5280
15857TIP3    H169062   0.751   4.941  14.714  1.0479  1.2402  0.6515
15857TIP3    H269063   0.878   4.861  14.733  0.0828 -0.3816  0.4327
15858TIP3   OH269064   5.405   5.124  10.437 -0.2178  0.1837  0.2124
15858TIP3    H169065   5.463   5.142  10.511 -0.9834  0.1405  0.8393
15858TIP3    H269066   5.405   5.205  10.386 -0.3192  0.5016  0.7084
15859TIP3   OH269067   2.968   5.747  13.927  0.3882 -0.3951  0.2173
15859TIP3    H169068   3.038   5.689  13.898  0.4096 -0.5689  0.6206
15859TIP3    H269069   2.930   5.780  13.845  0.8211 -0.4376 -0.0066
15860TIP3   OH269070   2.145   2.299  12.593 -0.2562 -0.2322 -0.1629
15860TIP3    H169071   2.093   2.236  12.542 -1.2139  0.8522 -0.5739
15860TIP3    H269072   2.220   2.318  12.537 -0.6995  0.0598 -0.6705
15861TIP3   OH269073   4.646   4.712   0.328 -0.3491 -0.0798  0.0398
15861TIP3    H169074   4.559   4.674   0.329 -1.6287  2.5810  2.4435
15861TIP3    H269075   4.632   4.806   0.327  2.4795  0.4575  1.1022
15862TIP3   OH269076   3.747   0.484   5.400 -0.0654 -0.0378 -0.8620
15862TIP3    H169077   3.673   0.529   5.359  0.7195 -0.0485 -2.3481
15862TIP3    H269078   3.706   0.411   5.447 -1.2234  1.4277  0.5234
15863TIP3   OH269079   2.085   6.099  13.834  0.3561  0.4138  0.1888
15863TIP3    H169080   1.997   6.131  13.853  0.4460  0.0072  1.4219
15863TIP3    H269081   2.071   6.019  13.783  0.0745  1.2074 -1.0091
15864TIP3   OH269082   3.314   0.984   2.518 -0.0800 -0.2830  0.3947
15864TIP3    H169083   3.228   0.946   2.501  0.5781 -1.0335 -1.4949
15864TIP3    H269084   3.371   0.945   2.452  1.1829  2.1038 -0.0384
15865TIP3   OH269085   5.044   1.531  15.388 -0.3906 -0.1315  0.4521
15865TIP3    H169086   4.961   1.483  15.394  0.0275 -0.7671  1.4804
15865TIP3    H269087   5.018   1.622  15.372 -1.2327 -0.5267 -0.5139
15866TIP3   OH269088   0.081   6.476   0.426  0.5766  0.9813  0.1048
15866TIP3    H169089   0.152   6.423   0.389 -0.5856 -1.4137  1.0635
15866TIP3    H269090   0.003   6.422   0.414 -0.7822  2.7119  0.7904
15867TIP3   OH269091   4.113   5.400   0.994  0.4130  0.4469  0.1526
15867TIP3    H169092   4.094   5.326   1.052  0.1354  0.1810 -0.2712
15867TIP3    H269093   4.090   5.369   0.907  1.0869  0.7519 -0.1402
15868TIP3   OH269094   5.036   5.786   2.841  0.6960 -0.4819 -0.3514
15868TIP3    H169095   4.978   5.795   2.917  0.3799 -1.6314 -0.4320
15868TIP3    H269096   5.121   5.814   2.873  0.2514  0.5342 -0.0188
15869TIP3   OH269097   6.144   2.351   0.627 -0.3418  0.1611 -0.0503
15869TIP3    H169098   6.229   2.359   0.672  0.0624  1.0192 -0.9326
15869TIP3    H269099   6.139   2.259   0.603  0.6904  0.2305 -0.6166
15870TIP3   OH269100   1.934   1.218   1.565  0.2773 -0.0091 -0.1370
15870TIP3    H169101   1.848   1.214   1.606  0.0509  0.8970 -0.4907
15870TIP3    H269102   1.935   1.144   1.504  0.7296 -1.5405  1.6440
15871TIP3   OH269103   2.974   1.998  15.280 -0.0201 -0.7626 -0.5571
15871TIP3    H169104   2.999   1.979  15.189 -0.0873 -0.3164 -0.6723
15871TIP3    H269105   2.904   1.935  15.299  0.5948 -1.4445 -0.5149
15872TIP3   OH269106   5.698   3.557   4.687  0.1387 -0.0976 -0.2375
15872TIP3    H169107   5.781   3.543   4.641  0.5177  0.9004  0.1186
15872TIP3    H269108   5.714   3.524   4.775 -0.3754 -1.4002 -0.6166
15873TIP3   OH269109   1.307   2.146  14.542  0.4600  0.6158  0.1633
15873TIP3    H169110   1.232   2.203  14.559 -1.3933 -1.0883 -1.6428
15873TIP3    H269111   1.268   2.062  14.519  3.0340 -1.0695  1.5038
15874TIP3   OH269112   4.843   2.337  12.393 -0.1151  0.0617  0.6509
15874TIP3    H169113   4.845   2.428  12.366 -0.3492 -0.2694 -0.5542
15874TIP3    H269114   4.820   2.289  12.314 -1.9950 -0.8644  1.6764
15875TIP3   OH269115   0.677   4.188  16.770 -0.2237 -0.1501  0.2417
15875TIP3    H169116   0.608   4.144  16.720  0.6189 -1.7800  0.4168
15875TIP3    H269117   0.718   4.247  16.707  1.3731 -2.7683 -1.4169
15876TIP3   OH269118   2.378   6.207   2.750 -0.7308 -0.7111 -0.1681
15876TIP3    H169119   2.389   6.216   2.845  0.0883  1.7069 -0.4281
15876TIP3    H269120   2.466   6.188   2.717 -0.3634  1.4766 -0.6496
15877TIP3   OH269121   2.193   0.160  11.087  0.0834  0.3740  0.1462
15877TIP3    H169122   2.191   0.160  11.183  1.7478  0.5941  0.2198
15877TIP3    H269123   2.148   0.080  11.061 -0.7194  0.5011  1.0923
15878TIP3   OH269124   3.674   6.426   3.665 -0.2623  0.1507 -0.3417
15878TIP3    H169125   3.669   6.378   3.747 -0.0772 -0.1298 -0.4958
15878TIP3    H269126   3.700   6.515   3.691 -1.2146  0.3510  0.0048
15879TIP3   OH269127   5.824   1.138  11.875  0.0796  0.1737 -0.0390
15879TIP3    H169128   5.919   1.147  11.872  0.2188 -1.2702 -0.7810
15879TIP3    H269129   5.795   1.164  11.787 -0.2058  0.5197  0.1553
15880TIP3   OH269130   4.539   5.826  11.924  0.3193  0.1418  0.2048
15880TIP3    H169131   4.551   5.775  12.004 -0.9782  1.5003  1.3387
15880TIP3    H269132   4.604   5.896  11.930 -0.1042  0.5337  0.3571
15881TIP3   OH269133   3.977   5.264   5.963  0.0382  0.3275  0.3435
15881TIP3    H169134   3.944   5.279   6.051  1.8254  0.1599  1.0974
15881TIP3    H269135   3.984   5.169   5.956  0.0836  0.3479  0.1096
15882TIP3   OH269136   6.846   5.490   5.813 -0.5154  0.6191 -0.3490
15882TIP3    H169137   6.918   5.445   5.769  0.1963  0.2673  1.1290
15882TIP3    H269138   6.875   5.581   5.819 -0.7194  0.7189 -0.7878
15883TIP3   OH269139   5.931   6.111  16.156 -0.2689  0.0062 -0.0369
15883TIP3    H169140   5.836   6.098  16.166 -0.2679 -0.3367 -0.4004
15883TIP3    H269141   5.960   6.031  16.111  0.0574  0.4693 -0.6606
15884TIP3   OH269142   3.896   5.681  15.838  0.2478 -0.2717  0.0441
15884TIP3    H169143   3.982   5.721  15.843 -0.2706  0.8359  0.4485
15884TIP3    H269144   3.913   5.588  15.823  1.5069 -0.1052  0.3558
15885TIP3   OH269145   3.948   2.143   3.657  0.5613 -0.3157 -0.3175
15885TIP3    H169146   3.964   2.077   3.725 -0.9719  0.6643  1.0777
15885TIP3    H269147   3.983   2.224   3.695 -0.1783  0.2162 -0.7558
15886TIP3   OH269148   5.885   1.088   5.643  0.1268 -0.6538  0.6182
15886TIP3    H169149   5.837   1.013   5.678 -2.0423 -0.3228 -1.4279
15886TIP3    H269150   5.903   1.064   5.552  0.8122  0.6768  0.3916
15887TIP3   OH269151   6.661   1.189   3.043  0.5776  0.1109  0.0043
15887TIP3    H169152   6.749   1.207   3.011  1.4856 -0.7419  1.9034
15887TIP3    H269153   6.612   1.269   3.022  2.2006  1.2306  0.2653
15888TIP3   OH269154   4.522   5.854   3.706 -0.1384  0.1713 -0.6042
15888TIP3    H169155   4.465   5.931   3.699 -1.7375 -1.0133 -1.3047
15888TIP3    H269156   4.502   5.816   3.791  1.4612  1.0852  0.2317
15889TIP3   OH269157   5.651   2.613   5.330  0.3794 -0.2597  0.1192
15889TIP3    H169158   5.577   2.554   5.342 -0.0127  0.2501  0.1980
15889TIP3    H269159   5.680   2.596   5.240  0.6465 -1.0004  0.3375
15890TIP3   OH269160   1.043   1.309  11.858 -0.0619 -0.8782 -0.8641
15890TIP3    H169161   1.036   1.399  11.828 -3.5926 -0.8543 -0.3178
15890TIP3    H269162   0.976   1.300  11.926  2.0694 -3.1921  1.1548
15891TIP3   OH269163   1.319   5.951  16.390 -0.0849 -0.0647 -0.2234
15891TIP3    H169164   1.248   5.940  16.326  1.6085 -1.5560 -1.9638
15891TIP3    H269165   1.381   5.881  16.370  1.4537  0.5958  1.8503
15892TIP3   OH269166   3.515   0.725   3.079  0.0800 -0.0312 -0.1960
15892TIP3    H169167   3.586   0.779   3.114  0.6426 -0.4757 -0.6371
15892TIP3    H269168   3.444   0.787   3.062 -0.5605  0.1194  2.5423
15893TIP3   OH269169   4.065   0.575  14.764  0.3157 -0.3944  0.7705
15893TIP3    H169170   3.977   0.611  14.753  0.7223  0.1538 -1.0427
15893TIP3    H269171   4.108   0.634  14.826  0.8800  2.3083 -1.9185
15894TIP3   OH269172   0.986   1.622  13.937  0.5539 -0.9686 -0.4471
15894TIP3    H169173   1.016   1.659  13.854  1.3537  1.1349  0.6879
15894TIP3    H269174   0.895   1.649  13.944  0.0096 -2.5073 -1.3297
15895TIP3   OH269175   2.742   2.253  11.853  0.1865  0.3513 -0.3678
15895TIP3    H169176   2.754   2.176  11.908 -1.7233 -0.3825 -0.9209
15895TIP3    H269177   2.830   2.272  11.820  0.7366 -1.4956 -0.0889
15896TIP3   OH269178   5.460   5.797  10.776  0.3416 -0.4932 -0.1913
15896TIP3    H169179   5.550   5.762  10.774  0.7641 -0.2070  4.0780
15896TIP3    H269180   5.467   5.880  10.730  1.5999 -1.5558 -2.1033
15897TIP3   OH269181   2.343   6.504  10.055 -0.3335  0.4160  0.5599
15897TIP3    H169182   2.422   6.546  10.022  0.4569 -1.8467 -0.6405
15897TIP3    H269183   2.374   6.424  10.098 -1.7820  0.7800  2.4215
15898TIP3   OH269184   6.174   3.914  15.039  0.5976 -0.1676  0.1133
15898TIP3    H169185   6.160   3.839  14.981 -1.0436 -1.0552  1.5313
15898TIP3    H269186   6.260   3.898  15.079  0.2195 -1.4007  0.4838
15899TIP3   OH269187   6.007   4.430   4.480 -0.1829 -0.1592  0.4837
15899TIP3    H169188   6.005   4.476   4.565  0.9551  1.8576 -0.4897
15899TIP3    H269189   5.972   4.343   4.499 -1.2623  0.6737  2.7344
15900TIP3   OH269190   1.858   6.094  15.616 -0.2804 -0.2621 -0.1570
15900TIP3    H169191   1.795   6.090  15.689  0.8558  1.9450  1.0750
15900TIP3    H269192   1.917   6.020  15.631 -0.7853 -0.5499  0.4665
15901TIP3   OH269193   0.861   3.629   3.974  0.4378  0.0741 -0.2531
15901TIP3    H169194   0.935   3.598   4.026  0.7114  0.7312 -0.2294
15901TIP3    H269195   0.864   3.577   3.893 -0.4797 -1.5264  0.7022
15902TIP3   OH269196   0.026   5.091  13.732  0.2104  0.3124  0.8449
15902TIP3    H169197   0.001   5.034  13.659  0.3412  1.1897  0.1048
15902TIP3    H269198   0.115   5.064  13.754  0.3874  0.4376  0.2894
15903TIP3   OH269199   3.878   4.352   4.623  0.2782 -0.5492 -0.2534
15903TIP3    H169200   3.909   4.290   4.689  1.4251  0.4684  0.1944
15903TIP3    H269201   3.785   4.363   4.642 -0.1841 -2.7808 -0.8906
15904TIP3   OH269202   6.312   3.662  12.854 -0.2628 -0.1744  0.2922
15904TIP3    H169203   6.302   3.574  12.888  0.2301  0.1726  1.3736
15904TIP3    H269204   6.263   3.718  12.914  0.7631  0.4722  0.5555
15905TIP3   OH269205   2.289   6.204  10.895 -0.3200 -0.8894  0.1414
15905TIP3    H169206   2.342   6.128  10.873 -1.0618 -1.3653 -0.0296
15905TIP3    H269207   2.293   6.260  10.818  0.0703 -0.8430  0.1946
15906TIP3   OH269208   1.942   0.662  12.215  0.1505 -0.2024  0.3980
15906TIP3    H169209   1.850   0.649  12.190 -0.0099  1.3447  0.0837
15906TIP3    H269210   1.941   0.657  12.310 -0.5374  1.2554  0.4900
15907TIP3   OH269211   2.234   2.055   0.005 -0.3528  0.1812  0.5845
15907TIP3    H169212   2.222   1.965  -0.023 -0.9512 -0.0265  1.4761
15907TIP3    H269213   2.327   2.073  -0.010 -0.8384  0.4933 -2.6313
15908TIP3   OH269214   6.707   3.901  11.470  0.4284  0.1877 -0.4535
15908TIP3    H169215   6.688   3.985  11.513 -1.1257  0.7341 -2.0873
15908TIP3    H269216   6.802   3.891  11.479  0.6799  2.1994 -0.3495
15909TIP3   OH269217   3.638   0.063   4.003  0.0485 -0.2897  0.3946
15909TIP3    H169218   3.730   0.040   4.019  0.0982 -0.5603 -0.2291
15909TIP3    H269219   3.619   0.133   4.066  0.5349 -0.5728  0.8627
15910TIP3   OH269220   3.865   5.498  12.694  0.4974  0.4069  0.3359
15910TIP3    H169221   3.926   5.556  12.740 -0.1688  1.3065  0.1237
15910TIP3    H269222   3.911   5.472  12.615  0.0432  2.4126 -0.6608
15911TIP3   OH269223   6.609   0.233   5.149  0.6568  0.6579  0.6889
15911TIP3    H169224   6.650   0.236   5.062 -0.7943  0.7396 -0.0256
15911TIP3    H269225   6.588   0.324   5.169 -0.5235  0.4727  0.3554
15912TIP3   OH269226   6.601   6.716  11.641 -0.2403 -0.0780  0.2550
15912TIP3    H169227   6.574   6.626  11.623 -0.9494  0.1770  0.0136
15912TIP3    H269228   6.632   6.749  11.557 -0.9937  0.2379  0.0869
15913TIP3   OH269229   1.041   6.069   3.324 -0.1750 -0.1598  0.1236
15913TIP3    H169230   1.069   6.146   3.275  0.1575  0.5290  1.3639
15913TIP3    H269231   1.038   6.097   3.415 -1.6568 -1.1578  0.4336
15914TIP3   OH269232   2.057   1.373   1.861 -0.3008  0.0454  0.2382
15914TIP3    H169233   1.994   1.440   1.886  1.0261  1.5772 -0.3407
15914TIP3    H269234   2.068   1.384   1.767  0.2291 -0.7499  0.1939
15915TIP3   OH269235   6.252   6.129  10.459  0.3025 -0.1782 -0.1931
15915TIP3    H169236   6.184   6.074  10.420  0.0243 -0.3421  0.5205
15915TIP3    H269237   6.207   6.211  10.479 -0.0826 -0.8123  1.6837
15916TIP3   OH269238   2.464   3.310  16.967 -0.2915 -0.3171 -0.2079
15916TIP3    H169239   2.454   3.272  17.054 -0.7940 -2.8097 -1.2566
15916TIP3    H269240   2.548   3.357  16.971  2.2260 -4.3354  0.4046
15917TIP3   OH269241   1.090   6.343  13.817 -0.0567  0.0813 -0.6266
15917TIP3    H169242   1.059   6.399  13.888 -1.7812 -1.3505 -0.1803
15917TIP3    H269243   1.145   6.278  13.859 -0.5754 -0.3932 -0.6617
15918TIP3   OH269244   2.474   0.434  11.088  0.1088  0.0955 -0.0708
15918TIP3    H169245   2.518   0.504  11.039  0.1235 -0.1397 -0.3989
15918TIP3    H269246   2.381   0.453  11.078 -0.0788 -1.6108 -2.8018
15919TIP3   OH269247   4.911   5.653  12.052 -0.2046  0.2431  0.5846
15919TIP3    H169248   4.993   5.675  12.009 -1.2984  2.5125 -0.5181
15919TIP3    H269249   4.850   5.635  11.980 -1.2104  0.7023  1.3042
15920TIP3   OH269250   1.300   4.318   2.175 -0.0612  0.2264 -0.5562
15920TIP3    H169251   1.327   4.327   2.267 -0.6320  0.1477 -0.3800
15920TIP3    H269252   1.380   4.288   2.130  0.2989  0.5398 -0.1398
15921TIP3   OH269253   4.730   3.700   3.385  0.3807  0.1149 -0.2089
15921TIP3    H169254   4.777   3.672   3.306 -2.2046 -0.7685 -1.5542
15921TIP3    H269255   4.705   3.791   3.366  3.3565  1.4630  1.5140
15922TIP3   OH269256   2.247   4.834  16.749  0.3550 -0.0783  0.0304
15922TIP3    H169257   2.153   4.819  16.745  0.4647 -0.7634 -0.2138
15922TIP3    H269258   2.285   4.746  16.745  1.0076  0.2044 -0.1048
15923TIP3   OH269259   1.465   4.994   3.720 -0.4238 -0.2563 -0.3301
15923TIP3    H169260   1.544   4.939   3.714 -0.7154 -0.7498  0.2125
15923TIP3    H269261   1.457   5.013   3.813 -1.6124 -1.2191 -0.2116
15924TIP3   OH269262   1.535   0.229   5.068  0.0279  0.2128  0.4456
15924TIP3    H169263   1.521   0.165   5.137 -0.3149 -1.1807 -0.8424
15924TIP3    H269264   1.630   0.242   5.066  0.1715 -0.7623  0.3247
15925TIP3   OH269265   2.282   6.678   5.448 -0.4003  0.6514  0.0255
15925TIP3    H169266   2.275   6.583   5.453  0.8600  0.5770  0.7184
15925TIP3    H269267   2.200   6.711   5.485 -0.7621 -0.1592 -0.0460
15926TIP3   OH269268   3.622   6.293  16.480  0.2768 -0.6704  0.1369
15926TIP3    H169269   3.707   6.316  16.519  0.3049 -0.2214 -0.1802
15926TIP3    H269270   3.570   6.373  16.486  0.6422 -0.2411 -1.6882
15927TIP3   OH269271   0.320   4.360   0.462 -0.3321  0.4436  0.2494
15927TIP3    H169272   0.408   4.359   0.424  0.1947  1.7214  1.3503
15927TIP3    H269273   0.326   4.304   0.540 -0.5398  0.4218  0.2509
15928TIP3   OH269274   0.938   5.337   3.160  0.1666 -0.2994  0.3242
15928TIP3    H169275   0.916   5.430   3.161  1.6055  0.1299 -1.8221
15928TIP3    H269276   0.873   5.296   3.217 -0.9900  1.8979  0.6706
15929TIP3   OH269277   1.287   4.365  14.138 -0.0717  0.5386  0.1018
15929TIP3    H169278   1.234   4.445  14.135  0.1051  0.6931  0.7148
15929TIP3    H269279   1.377   4.397  14.148 -0.1388  0.2698  1.9166
15930TIP3   OH269280   5.295   1.413   1.625 -0.2888 -0.0523  0.7886
15930TIP3    H169281   5.378   1.444   1.587 -2.7579  2.1624 -3.5729
15930TIP3    H269282   5.275   1.476   1.694  0.9908  0.1286  1.0252
15931TIP3   OH269283   4.648   5.801  13.843 -0.0974  0.5001  0.4175
15931TIP3    H169284   4.728   5.756  13.871 -0.0117 -0.0655 -0.6681
15931TIP3    H269285   4.650   5.884  13.889  1.6651  0.9472 -0.3629
15932TIP3   OH269286   4.343   5.123   2.243  0.2627  0.0564  0.1140
15932TIP3    H169287   4.378   5.083   2.163 -0.7574  3.3311 -2.2061
15932TIP3    H269288   4.250   5.104   2.241  0.3883 -0.7428  1.1570
15933TIP3   OH269289   0.286   1.353   4.284 -0.2525  0.5550 -0.6419
15933TIP3    H169290   0.217   1.286   4.287  0.3367 -0.1151 -1.6336
15933TIP3    H269291   0.245   1.426   4.237 -1.2084  1.2996  1.2542
15934TIP3   OH269292   1.509   1.061   3.502 -0.2249  0.4501 -0.2877
15934TIP3    H169293   1.578   1.103   3.451  0.9649 -1.7584 -0.6373
15934TIP3    H269294   1.480   0.988   3.447 -0.8763 -0.3253  1.0365
15935TIP3   OH269295   2.445   1.452   3.832 -0.0254 -0.2480 -0.6089
15935TIP3    H169296   2.498   1.374   3.816  0.1023  0.2960 -3.1759
15935TIP3    H269297   2.499   1.524   3.801 -1.0257  0.6593 -0.2959
15936TIP3   OH269298   3.064   5.838  13.210 -0.1366 -0.3664 -0.1546
15936TIP3    H169299   3.125   5.764  13.209  0.2013 -0.0997  0.5181
15936TIP3    H269300   3.032   5.844  13.120  0.0017 -1.1934 -0.2656
15937TIP3   OH269301   2.741   3.653   1.944  0.6895  0.3421 -0.4285
15937TIP3    H169302   2.825   3.685   1.912  0.7273 -0.7512 -1.5075
15937TIP3    H269303   2.758   3.563   1.973  0.1847  0.5874  0.6956
15938TIP3   OH269304   0.904   2.045  13.922 -0.3810 -0.4225  0.0468
15938TIP3    H169305   0.877   2.023  14.011 -1.3777  3.2886  0.8482
15938TIP3    H269306   0.953   2.127  13.932  2.7578 -1.7736 -2.5013
15939TIP3   OH269307   2.271   5.015   6.187 -0.6351 -0.2088  0.4339
15939TIP3    H169308   2.194   4.961   6.200 -1.6699  0.8866 -0.8184
15939TIP3    H269309   2.239   5.105   6.191  0.1855  0.2689 -1.9110
15940TIP3   OH269310   3.098   6.727   2.973 -0.3723 -0.0710  0.6539
15940TIP3    H169311   3.150   6.652   3.001 -0.0239 -0.3935 -0.7567
15940TIP3    H269312   3.110   6.730   2.878  0.2802  2.2446  0.7278
15941TIP3   OH269313   6.181   1.992   5.531  0.3711 -0.2059  0.1708
15941TIP3    H169314   6.116   1.922   5.530  1.2378 -1.0256 -0.7536
15941TIP3    H269315   6.181   2.025   5.621  1.2772 -2.6425  1.1353
15942TIP3   OH269316   5.089   2.180  13.197 -0.4016  0.3336 -0.4228
15942TIP3    H169317   5.174   2.200  13.237 -0.7229  0.1078  0.3950
15942TIP3    H269318   5.056   2.266  13.170 -0.1308  0.4837 -0.2898
15943TIP3   OH269319   6.296   2.121   2.366 -0.2861  0.2908  0.4482
15943TIP3    H169320   6.365   2.105   2.430  1.7233 -1.6376 -2.0136
15943TIP3    H269321   6.335   2.177   2.300 -1.5299  0.3304 -0.3008
15944TIP3   OH269322   0.561   2.527   1.074 -0.5738  0.0608 -0.2902
15944TIP3    H169323   0.615   2.488   1.005 -0.6348 -1.1236  0.3093
15944TIP3    H269324   0.608   2.508   1.155 -0.0010  2.2778 -0.0347
15945TIP3   OH269325   0.108   4.133  11.635  0.4685  0.1346 -0.1539
15945TIP3    H169326   0.174   4.143  11.566  1.0009 -0.6354  0.2346
15945TIP3    H269327   0.047   4.067  11.601  0.5208  0.0291 -0.0441
15946TIP3   OH269328   1.699   3.116   1.683  0.3069  0.1065 -0.2379
15946TIP3    H169329   1.743   3.113   1.768  0.9489  0.3984 -0.5520
15946TIP3    H269330   1.736   3.193   1.640  0.5934 -0.4943 -1.1011
15947TIP3   OH269331   2.491   3.889   4.526 -0.2791 -0.2290 -0.1660
15947TIP3    H169332   2.472   3.928   4.440  1.2129  0.5934 -0.1581
15947TIP3    H269333   2.455   3.952   4.589 -0.5547 -0.3705 -0.1832
15948TIP3   OH269334   3.349   5.339   0.990  0.3626  0.1490 -0.2465
15948TIP3    H169335   3.382   5.357   0.902 -1.4594  0.4761 -0.9123
15948TIP3    H269336   3.304   5.420   1.015 -0.1790 -0.3590  0.4626
15949TIP3   OH269337   4.395   5.780   5.864 -0.0597  0.4983 -0.3653
15949TIP3    H169338   4.373   5.721   5.936 -0.7283  0.2147 -0.7864
15949TIP3    H269339   4.489   5.770   5.853  0.0012  0.3179  0.2669
15950TIP3   OH269340   5.164   5.607   0.167  0.0691  0.0699 -0.4479
15950TIP3    H169341   5.156   5.692   0.211  0.6205 -0.1545  0.0978
15950TIP3    H269342   5.244   5.615   0.115 -1.4020  0.9227 -2.7790
15951TIP3   OH269343   2.028   5.889  15.654 -0.1048  0.2624 -0.1738
15951TIP3    H169344   1.995   5.826  15.719 -1.1593  0.5013 -0.4499
15951TIP3    H269345   2.057   5.835  15.580 -1.7993  0.1003 -0.7635
15952TIP3   OH269346   3.249   0.312   3.760  0.3371 -0.7235  0.1131
15952TIP3    H169347   3.160   0.342   3.743  0.7588  0.8185  0.5187
15952TIP3    H269348   3.299   0.342   3.684  0.1769 -3.3825 -1.1579
15953TIP3   OH269349   0.118   3.979  10.811 -0.1318  0.3213 -0.3572
15953TIP3    H169350   0.137   3.937  10.727 -1.6759 -1.1178 -0.0379
15953TIP3    H269351   0.199   4.024  10.834  1.3503 -1.8032 -1.1448
15954TIP3   OH269352   4.237   2.017   5.074 -0.1297 -0.5945 -0.5857
15954TIP3    H169353   4.305   1.955   5.100  0.1783 -0.0878 -0.1446
15954TIP3    H269354   4.263   2.099   5.116 -2.6849 -1.0940  2.2936
15955TIP3   OH269355   3.676   4.532  15.020  0.0221 -0.1743  0.2423
15955TIP3    H169356   3.583   4.526  15.042  0.3003 -0.7006  1.3777
15955TIP3    H269357   3.690   4.465  14.954 -0.3258 -0.3612  0.3547
15956TIP3   OH269358   3.809   1.154   2.469  0.7125 -0.2634 -0.1378
15956TIP3    H169359   3.809   1.077   2.526  0.8092  0.1964  0.4947
15956TIP3    H269360   3.734   1.205   2.499  0.9051  0.0977 -0.2671
15957TIP3   OH269361   3.903   4.755   0.828  1.0590  0.0266  0.0230
15957TIP3    H169362   3.889   4.673   0.780 -0.4361 -1.6055  3.0082
15957TIP3    H269363   3.817   4.796   0.831  1.4975  0.9843 -0.1461
15958TIP3   OH269364   2.160   2.394  16.209  0.2918  0.8870  0.6130
15958TIP3    H169365   2.103   2.368  16.282  0.6978  0.0970  0.6525
15958TIP3    H269366   2.225   2.325  16.203  0.2823  0.9608 -0.4980
15959TIP3   OH269367   5.378   6.140  15.239 -0.5107  0.6330 -0.2731
15959TIP3    H169368   5.397   6.231  15.261 -2.2041  0.4430  2.4554
15959TIP3    H269369   5.316   6.146  15.166 -0.0922  1.6177 -0.5705
15960TIP3   OH269370   2.603   4.569  11.752  0.3918 -0.0524  0.1506
15960TIP3    H169371   2.522   4.526  11.778 -0.5314  0.5437 -1.5905
15960TIP3    H269372   2.671   4.526  11.805 -0.9748 -0.8533  1.3354
15961TIP3   OH269373   0.872   5.565   0.330  0.3632  0.6112 -0.0141
15961TIP3    H169374   0.817   5.494   0.296 -0.1624  1.6469 -1.4135
15961TIP3    H269375   0.895   5.536   0.419 -0.7637 -0.7798 -0.1263
15962TIP3   OH269376   0.959   1.752  16.552 -0.0514 -0.1290 -0.6621
15962TIP3    H169377   0.909   1.673  16.573 -1.6395  1.1280  0.5319
15962TIP3    H269378   0.974   1.794  16.636 -1.8428  2.3214 -1.4574
15963TIP3   OH269379   1.270   5.357  12.889 -0.9115 -0.0649  0.2196
15963TIP3    H169380   1.259   5.313  12.805 -1.0909 -1.6191  1.0132
15963TIP3    H269381   1.183   5.355  12.928 -1.2849  2.4392 -0.3521
15964TIP3   OH269382   1.806   0.735  15.807  0.4453  0.2246 -0.4639
15964TIP3    H169383   1.789   0.813  15.755  0.5752  0.5312 -0.0459
15964TIP3    H269384   1.885   0.697  15.770  0.7333  0.6343 -0.2653
15965TIP3   OH269385   4.341   4.561   3.037  0.5562 -0.5139  0.0872
15965TIP3    H169386   4.388   4.612   3.104 -1.9812 -1.0313  2.4600
15965TIP3    H269387   4.249   4.584   3.050 -0.0683 -0.1306 -3.8135
15966TIP3   OH269388   4.269   3.209  11.157 -0.3947 -0.2635 -0.2070
15966TIP3    H169389   4.331   3.233  11.226 -0.4758 -0.6669  0.0061
15966TIP3    H269390   4.313   3.232  11.075 -0.4759  0.6288 -0.0066
15967TIP3   OH269391   6.658   2.535   4.799  0.3366 -0.2843  0.2059
15967TIP3    H169392   6.584   2.512   4.742 -0.3373  1.9659  0.0821
15967TIP3    H269393   6.735   2.526   4.743 -0.1043 -0.1677 -0.4244
15968TIP3   OH269394   4.261   1.249   5.982  0.5050 -0.2565  0.5680
15968TIP3    H169395   4.333   1.301   5.946 -1.0829  0.9049 -1.1150
15968TIP3    H269396   4.252   1.281   6.072  0.3469  1.6140 -0.0603
15969TIP3   OH269397   4.704   2.573  15.467  0.1816 -0.1834 -0.6450
15969TIP3    H169398   4.770   2.629  15.507  0.6681 -0.5316 -0.9450
15969TIP3    H269399   4.712   2.589  15.373  1.0386 -1.4721 -0.8343
15970TIP3   OH269400   5.711   6.463  11.940  0.1766  0.6608 -0.2818
15970TIP3    H169401   5.773   6.389  11.944  0.3077  0.6215 -1.9538
15970TIP3    H269402   5.681   6.475  12.030  1.9945  0.1439  0.4435
15971TIP3   OH269403   2.321   2.070  13.545  0.0898  0.1858 -0.3714
15971TIP3    H169404   2.378   2.007  13.589 -0.5344 -0.8002 -0.9340
15971TIP3    H269405   2.341   2.154  13.586  2.3147 -0.0255 -0.8988
15972TIP3   OH269406   5.271   5.784  16.776  0.6645 -0.1824  0.1699
15972TIP3    H169407   5.267   5.879  16.786 -2.0137 -0.0250 -1.6055
15972TIP3    H269408   5.329   5.770  16.701 -0.6163  0.2050 -0.9103
15973TIP3   OH269409   5.316   0.862   0.257 -0.0102 -0.2305 -0.3434
15973TIP3    H169410   5.311   0.901   0.345  1.3600  0.3795 -0.5036
15973TIP3    H269411   5.254   0.912   0.205  0.4436  0.5825 -0.1219
15974TIP3   OH269412   3.648   4.241  12.756  0.5854  0.1159 -0.5598
15974TIP3    H169413   3.565   4.209  12.793  0.7973 -1.2134 -1.1658
15974TIP3    H269414   3.625   4.272  12.669  0.2302  2.5138  0.3154
15975TIP3   OH269415   5.206   5.044   0.967  0.5744 -0.2856 -0.4087
15975TIP3    H169416   5.147   4.969   0.966  2.0089 -1.4523 -1.6986
15975TIP3    H269417   5.231   5.057   0.875  0.7349  1.4992 -0.1649
15976TIP3   OH269418   2.162   5.369   4.963 -0.0036 -0.2831  0.2517
15976TIP3    H169419   2.252   5.344   4.984 -1.3213 -2.5341  4.1640
15976TIP3    H269420   2.119   5.287   4.938 -2.0411 -0.3625  3.4509
15977TIP3   OH269421   6.547   5.760   1.826 -0.5702 -0.2587  0.2472
15977TIP3    H169422   6.539   5.690   1.891  0.4795 -0.4337  0.2129
15977TIP3    H269423   6.486   5.827   1.855  0.3864 -0.0199  1.8560
15978TIP3   OH269424   0.545   2.249  15.132 -0.9578 -0.0761 -0.0562
15978TIP3    H169425   0.630   2.291  15.119 -1.0544 -0.5303 -2.6261
15978TIP3    H269426   0.566   2.165  15.173 -0.4636  0.8598  1.7376
15979TIP3   OH269427   0.438   5.161   0.474  0.1065 -0.5734  0.2806
15979TIP3    H169428   0.430   5.195   0.385 -2.0372 -1.5892  0.0384
15979TIP3    H269429   0.352   5.176   0.513 -0.0377 -3.0982  1.0762
15980TIP3   OH269430   0.861   4.436  12.937  0.3832  0.2519 -0.4705
15980TIP3    H169431   0.941   4.427  12.989 -0.1859 -0.6209  0.2910
15980TIP3    H269432   0.806   4.495  12.988 -0.3017 -0.8534  0.1028
15981TIP3   OH269433   5.772   4.753  13.757  0.1661 -0.1872 -0.8592
15981TIP3    H169434   5.805   4.796  13.678  0.5603  0.2214 -0.4759
15981TIP3    H269435   5.783   4.818  13.827 -0.2033 -0.5329 -0.4717
15982TIP3   OH269436   0.998   0.719  16.131 -0.0650 -1.1954 -0.0081
15982TIP3    H169437   0.957   0.782  16.190  0.2549  0.7389 -1.7373
15982TIP3    H269438   1.092   0.738  16.137  0.2308 -2.8016  0.8405
15983TIP3   OH269439   2.242   6.143  14.152  0.1787 -0.1036  0.6017
15983TIP3    H169440   2.298   6.080  14.107  0.6809  0.5431  0.2835
15983TIP3    H269441   2.169   6.159  14.092 -0.2079 -0.7519  0.8999
15984TIP3   OH269442   4.620   5.288   2.496 -0.4806  0.0941 -0.1405
15984TIP3    H169443   4.618   5.316   2.404 -0.9480  2.3842  0.4960
15984TIP3    H269444   4.645   5.367   2.544  1.6011 -1.4983  1.5921
15985TIP3   OH269445   3.384   1.975   3.300 -0.0633  0.5289 -0.1017
15985TIP3    H169446   3.352   1.905   3.243 -0.4078 -1.4608  2.3688
15985TIP3    H269447   3.479   1.975   3.286 -0.0414 -0.5249 -0.0383
15986TIP3   OH269448   1.223   6.483   3.434  0.1268 -0.4719 -0.2908
15986TIP3    H169449   1.220   6.399   3.480  0.4463  0.5745  1.7117
15986TIP3    H269450   1.133   6.515   3.438  0.3128 -0.0112  0.3432
15987TIP3   OH269451   5.891   5.614  14.684  0.2697 -0.1837  0.0664
15987TIP3    H169452   5.884   5.527  14.643  0.1384 -0.3861  0.5132
15987TIP3    H269453   5.841   5.671  14.626 -0.6187 -0.6242  0.3746
15988TIP3   OH269454   1.425   6.058   4.413  0.0526  0.2926 -0.1318
15988TIP3    H169455   1.373   6.138   4.418 -0.2185  0.2458 -1.6029
15988TIP3    H269456   1.371   5.991   4.456 -0.5146  0.5323 -0.4606
15989TIP3   OH269457   5.070   0.900   2.803  0.0318  0.1731 -0.2190
15989TIP3    H169458   5.164   0.906   2.822 -0.2161 -0.6576  1.4050
15989TIP3    H269459   5.032   0.977   2.845 -0.0152  0.5921 -1.0093
15990TIP3   OH269460   4.774   3.140  11.939  0.1011  0.3314 -0.2055
15990TIP3    H169461   4.803   3.056  11.977 -0.5503  0.4049  0.4903
15990TIP3    H269462   4.714   3.175  12.004  0.0206  1.1352 -0.7053
15991TIP3   OH269463   1.016   2.954  13.239 -0.7151 -0.3004 -0.0854
15991TIP3    H169464   1.094   2.905  13.213 -0.4268  0.5472 -0.8952
15991TIP3    H269465   1.043   3.046  13.234 -2.2049  0.0964 -2.0280
15992TIP3   OH269466   3.227   1.976   2.433  0.1572  0.0936 -0.2497
15992TIP3    H169467   3.292   2.029   2.478 -1.7246  1.2883  1.2450
15992TIP3    H269468   3.178   2.039   2.380 -1.0516 -0.3860  0.2551
15993TIP3   OH269469   5.291   2.318  12.160  0.3070 -0.3194 -0.3982
15993TIP3    H169470   5.247   2.307  12.075 -2.9351  1.2964  0.8755
15993TIP3    H269471   5.276   2.235  12.205 -1.3012  0.0893 -0.1139
15994TIP3   OH269472   3.827   3.058   0.772  0.1087  0.3452 -0.1286
15994TIP3    H169473   3.890   2.987   0.759 -0.8708 -0.6201  0.2264
15994TIP3    H269474   3.870   3.118   0.834  1.4362  0.7108 -1.3603
15995TIP3   OH269475   2.016   1.243   3.274  0.3030  0.0486 -0.2516
15995TIP3    H169476   2.033   1.176   3.340 -2.4419  1.0175  1.6226
15995TIP3    H269477   2.061   1.321   3.308 -0.3793  0.3166  0.0665
15996TIP3   OH269478   5.333   2.113  13.326  0.3393 -0.3922  0.1901
15996TIP3    H169479   5.356   2.065  13.246  0.1761 -1.6997  0.8998
15996TIP3    H269480   5.375   2.199  13.315 -0.3422 -0.2532 -1.6388
15997TIP3   OH269481   2.625   1.160   5.216  0.4984 -0.2747 -0.1647
15997TIP3    H169482   2.716   1.180   5.239  0.8915 -1.8972 -0.1719
15997TIP3    H269483   2.617   1.188   5.125  0.5277  1.2680  0.2880
15998TIP3   OH269484   4.053   5.768  11.144 -0.0062  0.0880 -0.2691
15998TIP3    H169485   4.147   5.786  11.143  0.0955 -0.3769  0.2932
15998TIP3    H269486   4.037   5.717  11.065 -0.0949  1.6137 -1.2707
15999TIP3   OH269487   5.512   4.231   6.325 -0.4324 -0.0046 -0.2763
15999TIP3    H169488   5.504   4.159   6.264 -0.7469 -0.5907  0.4463
15999TIP3    H269489   5.423   4.266   6.334 -0.4919 -0.2672  0.2418
16000TIP3   OH269490   6.158   1.756   3.742  0.4574  0.7142 -0.1921
16000TIP3    H169491   6.095   1.827   3.753  1.2917  1.1580  2.1623
16000TIP3    H269492   6.158   1.710   3.826  0.5400 -1.6275 -1.3662
16001TIP3   OH269493   6.139   2.657  11.832  0.5463  0.3647 -0.3401
16001TIP3    H169494   6.072   2.715  11.868  0.0740  0.2171 -0.9689
16001TIP3    H269495   6.158   2.692  11.746 -2.1898 -2.2387 -2.1970
16002TIP3   OH269496   3.421   3.125   5.746  0.2164 -0.1796 -0.3253
16002TIP3    H169497   3.434   3.167   5.831  1.5172 -0.2799 -0.4544
16002TIP3    H269498   3.442   3.033   5.761 -3.1948 -1.0271  0.1075
16003TIP3   OH269499   1.686   0.397   0.700 -0.3323  0.4868  0.5685
16003TIP3    H169500   1.607   0.392   0.755 -0.9272 -0.2535 -0.3252
16003TIP3    H269501   1.701   0.306   0.672 -0.4621  0.9417 -1.0556
16004TIP3   OH269502   0.250   4.056   0.422 -0.3529  0.3037  0.2304
16004TIP3    H169503   0.269   4.063   0.516 -1.1574  0.4468  0.3926
16004TIP3    H269504   0.155   4.061   0.417 -0.4851 -1.9011 -0.4111
16005TIP3   OH269505   1.115   4.669   0.566  0.5567 -0.2175  0.2590
16005TIP3    H169506   1.058   4.673   0.643 -1.4450 -2.1761 -1.0291
16005TIP3    H269507   1.106   4.755   0.525 -0.9056 -0.2568  0.4781
16006TIP3   OH269508   6.490   6.111  11.284 -0.0260  0.3096  0.1988
16006TIP3    H169509   6.579   6.096  11.315 -0.2031 -0.0327  0.5440
16006TIP3    H269510   6.487   6.205  11.266  0.5499  0.2416 -0.2860
16007TIP3   OH269511   6.037   2.683   4.699 -0.4071 -0.6063 -0.5963
16007TIP3    H169512   5.978   2.751   4.729 -1.7853 -2.4465  1.1408
16007TIP3    H269513   5.981   2.607   4.683  1.1984 -1.7367 -1.2378
16008TIP3   OH269514   6.566   4.881   6.105  0.1438 -0.6022  0.1222
16008TIP3    H169515   6.615   4.919   6.178  1.3829  0.6454 -1.2897
16008TIP3    H269516   6.492   4.941   6.093 -0.2926 -1.0344  0.5791
16009TIP3   OH269517   1.740   2.994   1.446 -0.4881  0.1813 -0.2132
16009TIP3    H169518   1.804   2.924   1.457  1.3802  1.5499 -1.7697
16009TIP3    H269519   1.722   3.024   1.535  0.7913 -0.4549  0.2820
16010TIP3   OH269520   6.600   5.864  13.067 -0.5073  0.2766  0.2491
16010TIP3    H169521   6.536   5.812  13.018 -1.0172  0.8124  0.3251
16010TIP3    H269522   6.609   5.944  13.016 -1.3174  0.9932  1.1899
16011TIP3   OH269523   3.074   2.899  11.499 -0.1209  0.4725 -0.1810
16011TIP3    H169524   3.107   2.987  11.481  0.4881  0.7081  1.8179
16011TIP3    H269525   3.011   2.912  11.570 -2.1734 -0.3919 -1.7678
16012TIP3   OH269526   1.978   4.101   3.106 -0.0649 -0.3002 -0.1692
16012TIP3    H169527   1.967   4.006   3.101 -0.0358 -0.2813 -0.5872
16012TIP3    H269528   1.888   4.134   3.110 -0.0662 -0.3891  0.8817
16013TIP3   OH269529   1.975   5.536   5.534 -0.4989  0.3923 -0.1244
16013TIP3    H169530   2.022   5.492   5.464 -1.5891 -1.5868  0.3220
16013TIP3    H269531   2.030   5.523   5.612 -0.5734  0.2672 -0.0927
16014TIP3   OH269532   5.604   1.808  13.033 -0.6001  0.7210  0.2157
16014TIP3    H169533   5.689   1.842  13.058  0.4361  0.2159 -2.3641
16014TIP3    H269534   5.609   1.714  13.050 -1.5193  0.9761  2.1933
16015TIP3   OH269535   1.438   3.439  16.216 -0.2335 -0.2770  0.0031
16015TIP3    H169536   1.511   3.384  16.188 -0.0099 -0.4678  0.9241
16015TIP3    H269537   1.411   3.401  16.300 -0.1161  0.9707  0.6268
16016TIP3   OH269538   0.284   4.950   5.627 -0.1814  0.0789 -0.2165
16016TIP3    H169539   0.292   4.858   5.656 -1.6674 -0.6691 -1.9953
16016TIP3    H269540   0.220   4.988   5.688 -0.5658 -0.4507 -0.2813
16017TIP3   OH269541   4.210   0.669   6.347  0.4924 -0.0351 -0.2786
16017TIP3    H169542   4.267   0.731   6.302 -0.4359  0.3283 -0.9845
16017TIP3    H269543   4.238   0.583   6.316  0.2573  0.1792 -1.1210
16018TIP3   OH269544   3.763   2.684   0.796 -0.0178 -0.0094  0.3207
16018TIP3    H169545   3.713   2.602   0.800 -0.6085  0.2597 -0.8258
16018TIP3    H269546   3.720   2.733   0.725  0.3932  1.2451  0.9304
16019TIP3   OH269547   3.937   5.181  16.317 -0.2914  0.1214 -0.0159
16019TIP3    H169548   3.970   5.127  16.389 -1.7865 -1.3386 -0.3573
16019TIP3    H269549   3.873   5.240  16.358 -0.2488  0.1297  0.0385
16020TIP3   OH269550   6.451   0.355   2.003 -0.1243  0.5926  0.1246
16020TIP3    H169551   6.484   0.297   1.934  0.5181 -0.1976  1.0539
16020TIP3    H269552   6.356   0.360   1.987 -0.3810 -1.5740  0.5851
16021TIP3   OH269553   5.722   3.064   0.498  0.3970 -0.2459 -0.2534
16021TIP3    H169554   5.797   3.011   0.469  0.7595  0.0100  0.2137
16021TIP3    H269555   5.752   3.108   0.577  0.0596  0.5710 -0.5617
16022TIP3   OH269556   4.930   3.814  14.136  0.1387  0.0555  0.1459
16022TIP3    H169557   4.847   3.843  14.175  1.6236  2.3567  1.8026
16022TIP3    H269558   4.939   3.723  14.166 -1.0488  0.2804  1.2898
16023TIP3   OH269559   4.007   4.491   2.308  0.3758 -0.2916 -0.6721
16023TIP3    H169560   4.034   4.467   2.397 -2.4762 -0.9075  0.1181
16023TIP3    H269561   3.942   4.561   2.320  3.2544  3.0805 -2.5979
16024TIP3   OH269562   3.239   6.135  13.224 -0.4584  0.1848 -1.0871
16024TIP3    H169563   3.165   6.183  13.262  0.4300  0.5669  0.1990
16024TIP3    H269564   3.281   6.199  13.166  0.5908  0.9213  0.4508
16025TIP3   OH269565   6.198   4.149  16.276  0.6472  0.3991 -0.0079
16025TIP3    H169566   6.178   4.154  16.369  0.3269  2.8469 -0.1473
16025TIP3    H269567   6.126   4.195  16.233  0.3933 -1.3298 -1.5691
16026TIP3   OH269568   4.777   6.649   2.160 -0.0536 -0.0231 -0.1279
16026TIP3    H169569   4.756   6.581   2.223  1.2559  1.1465  1.6738
16026TIP3    H269570   4.756   6.611   2.075 -1.3056 -1.8779  0.9522
16027TIP3   OH269571   0.099   0.238   4.382 -0.4777 -0.3455  0.6172
16027TIP3    H169572   0.137   0.325   4.391  0.4437 -0.8317  1.6791
16027TIP3    H269573   0.012   0.253   4.346  0.5616  0.8291 -1.5354
16028TIP3   OH269574   6.518   3.562   3.070 -0.1198  0.1249 -0.1593
16028TIP3    H169575   6.428   3.571   3.102 -0.0910 -3.1789  1.3110
16028TIP3    H269576   6.510   3.510   2.990  0.3660  1.8966 -1.3997
16029TIP3   OH269577   1.936   1.552   2.881  0.3149  0.0315  0.3657
16029TIP3    H169578   1.849   1.590   2.874  0.5688  0.4947 -0.5130
16029TIP3    H269579   1.991   1.623   2.915  0.6174  0.2130 -0.4568
16030TIP3   OH269580   6.332   1.629  13.694  0.0955 -0.3438  0.0081
16030TIP3    H169581   6.395   1.652  13.626 -0.6941 -4.0381 -2.2580
16030TIP3    H269582   6.386   1.615  13.772  1.3146  1.7557 -0.3791
16031TIP3   OH269583   1.845   0.145  12.439 -1.0326  0.4132  0.5712
16031TIP3    H169584   1.871   0.054  12.427 -1.3006  0.4457 -0.3505
16031TIP3    H269585   1.927   0.194  12.432 -1.2748  0.5719 -2.9439
16032TIP3   OH269586   6.074   5.836  17.068 -0.2319  0.2419 -0.3706
16032TIP3    H169587   6.105   5.923  17.093 -1.7929  0.5910  0.5063
16032TIP3    H269588   5.978   5.844  17.067 -0.3869 -1.3374 -0.7421
16033TIP3   OH269589   1.738   1.997  13.607 -0.1407 -0.1263 -0.2004
16033TIP3    H169590   1.676   1.983  13.678 -0.9268 -2.7191 -1.2662
16033TIP3    H269591   1.716   1.930  13.542  2.3047  0.3455 -1.6620
16034TIP3   OH269592   5.117   0.360  14.648 -0.2001 -0.8999  0.0370
16034TIP3    H169593   5.057   0.430  14.674  0.5117 -0.2805  0.0315
16034TIP3    H269594   5.178   0.353  14.721  1.8425  0.8667 -1.3700
16035TIP3   OH269595   0.477   6.180  15.914  0.3460 -0.0099  0.5189
16035TIP3    H169596   0.462   6.260  15.963  1.0536 -0.4726  1.5295
16035TIP3    H269597   0.414   6.117  15.950 -0.2889  0.1052 -0.3490
16036TIP3   OH269598   5.077   4.018   5.686  0.4578 -0.0740 -0.2129
16036TIP3    H169599   5.109   3.990   5.600  0.8120 -0.3113 -0.0051
16036TIP3    H269600   4.996   3.968   5.699  2.3065 -2.9518  1.2294
16037TIP3   OH269601   4.171   2.281   4.347 -0.5107  0.4111 -0.2786
16037TIP3    H169602   4.164   2.286   4.443  0.7526  0.3527 -0.1602
16037TIP3    H269603   4.116   2.353   4.315 -1.1112  0.3024  0.4779
16038TIP3   OH269604   0.442   0.102   4.727  0.5366 -0.1225  0.4483
16038TIP3    H169605   0.521   0.056   4.754  0.4010 -0.5450  0.1312
16038TIP3    H269606   0.371   0.059   4.775 -0.0681 -2.6081 -2.3680
16039TIP3   OH269607   1.329   0.976  16.249  0.0625  0.2506 -0.3719
16039TIP3    H169608   1.386   0.957  16.323 -0.7864  1.3995  0.6040
16039TIP3    H269609   1.384   1.027  16.189  0.6141 -0.2960 -0.3444
16040TIP3   OH269610   6.162   0.978  15.263 -0.5401  0.4137  0.2318
16040TIP3    H169611   6.112   1.008  15.339  0.9046 -0.7044  1.7016
16040TIP3    H269612   6.232   0.925  15.300 -0.1537 -0.7172 -1.9584
16041TIP3   OH269613   2.176   5.088  16.821 -0.3937  0.3879  0.1636
16041TIP3    H169614   2.210   5.005  16.786 -1.8789 -0.4084  0.5624
16041TIP3    H269615   2.194   5.152  16.751  1.1072 -0.1536  0.0033
16042TIP3   OH269616   4.204   6.585   0.367 -1.0791 -0.3743 -1.0100
16042TIP3    H169617   4.178   6.498   0.338 -0.6364 -0.3731 -1.4327
16042TIP3    H269618   4.244   6.625   0.290  0.5364 -0.5264 -0.2906
16043TIP3   OH269619   5.552   1.597  11.640  0.5840 -0.4174  0.6730
16043TIP3    H169620   5.626   1.640  11.598 -0.4022  1.0326  0.3697
16043TIP3    H269621   5.499   1.563  11.567  1.3279 -2.2103  0.8976
16044TIP3   OH269622   2.980   1.932   5.040 -0.5498  0.0653  0.3360
16044TIP3    H169623   3.069   1.937   5.074 -0.2254  1.0211 -0.5878
16044TIP3    H269624   2.990   1.912   4.947 -1.2913  0.2996  0.1927
16045TIP3   OH269625   4.905   1.156   0.403 -0.0070 -1.0880 -0.0154
16045TIP3    H169626   4.944   1.240   0.378 -1.8915 -0.4073 -0.8243
16045TIP3    H269627   4.903   1.159   0.499 -0.1805 -0.1382 -0.0360
16046TIP3   OH269628   1.402   6.833  14.536  0.2908 -0.0661  0.1305
16046TIP3    H169629   1.436   6.921  14.518  0.8411 -0.3562 -0.2598
16046TIP3    H269630   1.363   6.840  14.624  1.5768  0.2175  0.7046
16047TIP3   OH269631   6.803   0.890   5.534 -0.0952 -0.1141 -0.0978
16047TIP3    H169632   6.848   0.868   5.616  0.6171 -1.7786 -0.8832
16047TIP3    H269633   6.718   0.848   5.542 -0.9796  1.7077  0.7227
16048TIP3   OH269634   3.598   5.369  15.295 -0.2138  0.4424 -0.3529
16048TIP3    H169635   3.571   5.285  15.259  0.6146  0.8610 -2.0381
16048TIP3    H269636   3.688   5.381  15.265  0.1640  1.3319  0.9912
16049TIP3   OH269637   2.962   2.291   1.393  0.5446  0.1281  0.1835
16049TIP3    H169638   2.884   2.258   1.349  0.2590  1.2084 -0.1453
16049TIP3    H269639   3.035   2.249   1.347  0.1931 -0.0324 -0.2348
16050TIP3   OH269640   3.160   4.225  10.364 -1.1602 -0.6060  0.1668
16050TIP3    H169641   3.231   4.169  10.392  0.2057  0.8969 -0.1385
16050TIP3    H269642   3.099   4.166  10.319  0.0147 -1.8936  0.1998
16051TIP3   OH269643   1.010   4.682   3.898 -0.0816  0.0208 -0.2783
16051TIP3    H169644   1.012   4.586   3.904  0.2321 -0.0935 -1.7702
16051TIP3    H269645   1.102   4.709   3.903  0.0365  0.0483 -1.9829
16052TIP3   OH269646   1.997   2.310   1.526 -0.0855 -0.4173  0.4454
16052TIP3    H169647   1.929   2.277   1.467  0.0714  0.0884 -0.0316
16052TIP3    H269648   1.997   2.405   1.512  1.0615 -0.4575  0.0523
16053TIP3   OH269649   0.313   6.463   5.249  0.0158 -0.2456  0.8207
16053TIP3    H169650   0.385   6.508   5.293  2.3332 -2.5498 -0.4226
16053TIP3    H269651   0.251   6.533   5.227  0.9903  1.5940  3.4040
16054TIP3   OH269652   6.464   2.147  13.407  0.0883 -0.0671 -0.1302
16054TIP3    H169653   6.400   2.083  13.436 -0.5040 -0.4420 -2.0716
16054TIP3    H269654   6.546   2.099  13.402  0.1843 -0.0132  0.7849
16055TIP3   OH269655   2.575   1.047   2.437 -0.5590  0.3554 -0.1726
16055TIP3    H169656   2.552   0.982   2.371  2.1312 -0.1056 -0.7662
16055TIP3    H269657   2.625   1.113   2.390  0.8560  0.3592  1.2388
16056TIP3   OH269658   0.092   3.052   5.251 -0.9832  0.4546 -0.1032
16056TIP3    H169659   0.080   3.050   5.156 -1.2050 -1.0466 -0.0629
16056TIP3    H269660   0.004   3.068   5.286 -1.0279  0.2749 -0.1324
16057TIP3   OH269661   2.683   6.793  16.540  0.5418 -0.5163 -0.2383
16057TIP3    H169662   2.631   6.820  16.615  2.3045  1.7118  0.3083
16057TIP3    H269663   2.651   6.706  16.517 -2.7048  0.3518  0.6140
16058TIP3   OH269664   0.909   5.009   3.256  0.0038 -0.0952  0.5922
16058TIP3    H169665   0.832   5.067   3.258  1.1860  1.7134 -1.4268
16058TIP3    H269666   0.913   4.972   3.344 -1.8087  1.6065  1.4864
16059TIP3   OH269667   3.843   6.510  16.267 -0.4348  0.3872  0.2942
16059TIP3    H169668   3.847   6.537  16.358 -1.4537  0.8696  0.2140
16059TIP3    H269669   3.749   6.501  16.249 -0.2124 -1.4829 -0.1921
16060TIP3   OH269670   0.144   6.743   5.375  0.3758 -0.0364  0.0497
16060TIP3    H169671   0.057   6.767   5.344  0.9620  3.0219  0.4590
16060TIP3    H269672   0.138   6.748   5.470  1.0930  0.6435  0.0653
16061TIP3   OH269673   5.014   4.823  11.613 -0.4862 -0.1053  0.1452
16061TIP3    H169674   5.010   4.914  11.582  0.1691 -0.3079 -0.5999
16061TIP3    H269675   4.933   4.783  11.582 -0.2592 -0.0577 -0.5441
16062TIP3   OH269676   4.234   0.303  16.275  0.5041  0.5568 -0.2933
16062TIP3    H169677   4.322   0.303  16.238  0.4642 -1.1877 -0.4824
16062TIP3    H269678   4.195   0.221  16.245 -0.6772  0.6052  0.9811
16063TIP3   OH269679   4.015   1.286  14.938 -0.0032 -0.5158 -0.6319
16063TIP3    H169680   4.031   1.194  14.916 -0.3816 -0.6517 -0.3390
16063TIP3    H269681   4.035   1.333  14.857  3.1512 -0.5084  0.0015
16064TIP3   OH269682   5.952   0.176  15.253  0.5268  0.1363 -0.2576
16064TIP3    H169683   5.963   0.122  15.175 -1.7531 -1.4186  0.3733
16064TIP3    H269684   5.896   0.248  15.224 -1.2861 -1.0564  0.0936
16065TIP3   OH269685   1.402   6.459   1.885  0.0872  0.6877  0.1583
16065TIP3    H169686   1.316   6.452   1.926 -1.6032  0.6694 -3.0333
16065TIP3    H269687   1.423   6.552   1.890 -0.9932  0.9926 -0.5436
16066TIP3   OH269688   1.968   3.810   6.361 -0.4817  0.6908 -0.6942
16066TIP3    H169689   1.974   3.779   6.271  0.0532  0.8194 -0.7026
16066TIP3    H269690   2.025   3.886   6.365  0.1470  0.1998 -0.0444
16067TIP3   OH269691   3.737   1.688   1.896  0.2567 -0.3612 -0.1593
16067TIP3    H169692   3.707   1.616   1.953 -1.5377  1.1813  0.9848
16067TIP3    H269693   3.757   1.759   1.956  1.5394  0.2891 -1.3005
16068TIP3   OH269694   4.026   2.169  16.442  0.0820  0.4071 -0.6455
16068TIP3    H169695   4.055   2.240  16.499  0.0860  0.2267 -0.4215
16068TIP3    H269696   3.983   2.107  16.501 -0.4577  0.5081 -0.9272
16069TIP3   OH269697   0.440   0.295  13.056 -0.0118  0.0393 -0.1536
16069TIP3    H169698   0.440   0.243  12.976 -1.0673 -0.1382 -0.0457
16069TIP3    H269699   0.518   0.350  13.048 -0.1048  0.0370 -1.3102
16070TIP3   OH269700   4.106   6.147  15.360 -0.3162  0.6544  0.2014
16070TIP3    H169701   4.093   6.063  15.404 -0.7092  0.8086  0.3869
16070TIP3    H269702   4.119   6.124  15.268  2.4557  0.1722  0.6299
16071TIP3   OH269703   3.345   0.116  16.248 -0.2738  0.4065 -0.5185
16071TIP3    H169704   3.333   0.170  16.170  2.8187  0.2131 -1.2505
16071TIP3    H269705   3.340   0.177  16.322  0.8552  1.3371 -1.1806
16072TIP3   OH269706   2.527   6.357   0.326  0.1459  0.1120 -0.5619
16072TIP3    H169707   2.530   6.371   0.232 -1.7993 -0.2553 -0.7240
16072TIP3    H269708   2.618   6.354   0.353  0.7377  0.8201 -2.3348
16073TIP3   OH269709   0.427   5.969   0.304 -0.1001 -0.4129  0.2760
16073TIP3    H169710   0.511   5.929   0.282 -0.5204 -0.7285 -0.8360
16073TIP3    H269711   0.367   5.895   0.315  0.0443 -0.2608  2.4372
16074TIP3   OH269712   2.066   5.924   3.429 -0.1473 -0.7570 -0.0756
16074TIP3    H169713   2.005   5.949   3.499  0.4316 -0.0236  0.1956
16074TIP3    H269714   2.018   5.861   3.376 -1.5921  0.7076 -0.5907
16075TIP3   OH269715   1.118   1.600  14.983  0.4487  0.0226  0.4791
16075TIP3    H169716   1.084   1.525  15.033 -3.8751 -0.5352 -2.7031
16075TIP3    H269717   1.169   1.560  14.912 -0.4442  0.1211 -0.2433
16076TIP3   OH269718   5.977   4.455   0.040 -0.4046  1.0885  0.4510
16076TIP3    H169719   6.013   4.445   0.128 -0.4728  0.3596  0.4011
16076TIP3    H269720   5.909   4.522   0.049  0.3519  1.8435  0.7176
16077TIP3   OH269721   0.685   5.904  14.864  0.3103  0.2008 -0.0196
16077TIP3    H169722   0.756   5.854  14.824 -0.2521 -0.5544 -0.0956
16077TIP3    H269723   0.642   5.841  14.922  1.3955  1.3778  2.1737
16078TIP3   OH269724   1.689   3.582  14.350  0.5293  0.0666 -0.2009
16078TIP3    H169725   1.697   3.647  14.280 -2.0999  1.0585  0.3060
16078TIP3    H269726   1.624   3.519  14.318 -0.4179  0.3137  1.1283
16079TIP3   OH269727   1.478   0.698  14.509  0.4169  0.1291  0.0434
16079TIP3    H169728   1.447   0.611  14.485  2.3513 -0.9254  1.0989
16079TIP3    H269729   1.491   0.693  14.604 -1.5630  2.3260  0.5136
16080TIP3   OH269730   3.822   5.955   4.968  0.4047 -0.1230 -0.2278
16080TIP3    H169731   3.865   5.882   4.923 -0.1110 -0.8896  0.5029
16080TIP3    H269732   3.889   5.991   5.025 -0.2620 -2.3019  2.0880
16081TIP3   OH269733   6.052   4.294   1.176 -0.2939  0.0682  0.1096
16081TIP3    H169734   6.069   4.316   1.085 -0.8733 -0.2298 -0.0717
16081TIP3    H269735   6.061   4.378   1.223 -0.4908  0.3156 -0.2894
16082TIP3   OH269736   4.317   4.559   1.359 -0.2242 -0.6853 -0.5509
16082TIP3    H169737   4.329   4.601   1.445 -0.0127 -0.2366 -0.7940
16082TIP3    H269738   4.333   4.466   1.376  0.7982 -0.4832 -0.2830
16083TIP3   OH269739   5.286   3.466   3.357  0.5354  0.3114  0.0535
16083TIP3    H169740   5.339   3.532   3.311  1.7348  0.1662  1.1717
16083TIP3    H269741   5.303   3.385   3.309  2.3490  0.0164  1.1305
16084TIP3   OH269742   1.111   4.683  12.886 -0.4117 -0.8857  0.6472
16084TIP3    H169743   1.150   4.612  12.836 -0.2944  0.3539 -1.0917
16084TIP3    H269744   1.185   4.736  12.916 -0.5876  0.0929 -0.5587
16085TIP3   OH269745   6.683   0.627   2.137 -0.5711 -0.1955 -0.4573
16085TIP3    H169746   6.724   0.628   2.050 -1.5596 -0.9736 -0.9483
16085TIP3    H269747   6.593   0.653   2.121 -0.6862 -0.0667  0.3851
16086TIP3   OH269748   5.478   1.128  11.782 -0.1505 -0.0677  0.4054
16086TIP3    H169749   5.518   1.041  11.787  2.0082  0.8719  0.9900
16086TIP3    H269750   5.549   1.185  11.751 -1.7136  1.3853 -0.6763
16087TIP3   OH269751   5.205   1.323   5.180  0.4509 -0.2134  0.2231
16087TIP3    H169752   5.122   1.358   5.212  1.0817  0.2035  1.4587
16087TIP3    H269753   5.182   1.238   5.142 -0.3591 -0.7251  1.7779
16088TIP3   OH269754   0.792   1.931   5.202  0.4440 -0.6114 -0.7988
16088TIP3    H169755   0.778   2.006   5.260 -1.0379 -1.3477 -0.1483
16088TIP3    H269756   0.836   1.968   5.125 -1.1953  1.1590 -0.9748
16089TIP3   OH269757   4.415   2.799   0.821 -0.1744 -0.4071  0.4660
16089TIP3    H169758   4.387   2.817   0.731  2.1013 -2.0099 -0.6690
16089TIP3    H269759   4.422   2.885   0.862 -1.7869  0.3299 -0.6738
16090TIP3   OH269760   4.155   5.582   1.938  0.2046  0.6170  0.4658
16090TIP3    H169761   4.165   5.616   1.849  1.5531 -0.6641  0.0995
16090TIP3    H269762   4.183   5.491   1.933 -2.7787 -0.4720  1.5265
16091TIP3   OH269763   3.183   5.475  10.593 -0.4516  0.1316 -0.1767
16091TIP3    H169764   3.096   5.513  10.578  0.0436  0.7842 -1.5394
16091TIP3    H269765   3.213   5.447  10.507  0.3036 -0.9946  0.4205
16092TIP3   OH269766   0.001   4.691  13.449 -0.3928 -0.1242  0.5561
16092TIP3    H169767  -0.000   4.646  13.533 -1.0529 -0.5186  0.3396
16092TIP3    H269768   0.001   4.784  13.472  0.9348 -0.2117  1.0005
16093TIP3   OH269769   5.398   6.538   1.750  0.1683 -0.1515 -0.3020
16093TIP3    H169770   5.371   6.465   1.806 -1.5350 -1.0064 -2.0930
16093TIP3    H269771   5.366   6.616   1.796  1.2362 -0.5595  1.2078
16094TIP3   OH269772   1.477   3.262  15.225  0.2816  0.0262  0.1692
16094TIP3    H169773   1.434   3.185  15.189 -1.2395  0.8013  0.2377
16094TIP3    H269774   1.459   3.258  15.319 -0.3056  0.7470  0.0976
16095TIP3   OH269775   4.086   2.020  15.456 -0.1179 -0.6591 -0.8039
16095TIP3    H169776   4.071   2.099  15.404 -1.6827 -0.4668 -0.1199
16095TIP3    H269777   4.165   2.039  15.507 -2.7773  2.3616  2.6757
16096TIP3   OH269778   5.152   5.158  14.261 -0.6919 -0.1558  0.1808
16096TIP3    H169779   5.058   5.179  14.261 -0.2298  2.1570  0.7484
16096TIP3    H269780   5.169   5.126  14.349 -0.7055  0.6854  0.4932
16097TIP3   OH269781   2.672   3.666   1.199  0.1393  0.3653 -0.0954
16097TIP3    H169782   2.616   3.607   1.250 -1.5040  2.2612  0.3802
16097TIP3    H269783   2.663   3.751   1.241  2.3956  1.0284 -0.8125
16098TIP3   OH269784   5.395   6.392  16.073 -0.0077 -0.6110  0.2936
16098TIP3    H169785   5.429   6.481  16.063  1.7765 -1.1442  1.0282
16098TIP3    H269786   5.301   6.400  16.064  0.1683  1.2708 -0.1990
16099TIP3   OH269787   5.316   0.822  16.815  0.3239 -0.0052  0.1261
16099TIP3    H169788   5.286   0.808  16.905  0.4553 -0.0238  0.1659
16099TIP3    H269789   5.394   0.877  16.824 -0.1552  0.7160 -0.0250
16100TIP3   OH269790   4.827   1.060  16.954  0.5266 -0.2722  0.0287
16100TIP3    H169791   4.827   1.141  17.004  1.0521 -0.7156  0.7658
16100TIP3    H269792   4.787   0.995  17.012 -2.8650  0.0642 -1.6579
16101TIP3   OH269793   3.003   2.793  15.953 -0.0376  0.5646 -0.0484
16101TIP3    H169794   2.951   2.816  16.030 -2.0338  0.3824 -1.2693
16101TIP3    H269795   3.017   2.875  15.907 -1.2577  0.3257 -0.8882
16102TIP3   OH269796   4.065   1.362  14.669 -0.1986  0.1320  0.2449
16102TIP3    H169797   4.149   1.406  14.657 -0.9509  1.3257 -1.0063
16102TIP3    H269798   4.002   1.420  14.626 -1.2646 -2.1444 -1.4474
16103TIP3   OH269799   6.312   4.186   2.445  0.0088 -0.3620 -0.0378
16103TIP3    H169800   6.317   4.270   2.400 -1.8437 -0.3809 -0.3643
16103TIP3    H269801   6.367   4.197   2.522 -1.5866  1.8442  0.9327
16104TIP3   OH269802   0.055   6.585  12.897  0.4780 -0.0857 -0.2269
16104TIP3    H169803   0.116   6.653  12.927 -1.8210  2.1863 -0.3415
16104TIP3    H269804  -0.005   6.572  12.970 -0.1302 -0.7569 -0.8322
16105TIP3   OH269805   0.803   2.383   4.288  0.5838 -0.4101  0.8270
16105TIP3    H169806   0.890   2.417   4.267  0.0960 -0.1763 -0.9826
16105TIP3    H269807   0.743   2.451   4.257 -0.3167 -1.6932 -0.3717
16106TIP3   OH269808   3.693   0.333   0.323  0.0848  0.1663 -0.2067
16106TIP3    H169809   3.731   0.285   0.397 -0.4148 -1.4377 -0.9412
16106TIP3    H269810   3.651   0.409   0.362 -0.6349 -0.9340  1.2437
16107TIP3   OH269811   0.916   5.627  13.172  0.5616 -0.2297 -0.3206
16107TIP3    H169812   0.845   5.611  13.111 -0.2095 -0.9286  0.7343
16107TIP3    H269813   0.994   5.594  13.127 -0.1469 -1.7158 -0.5072
16108TIP3   OH269814   5.562   1.802  15.309 -0.1228  0.4662  0.2694
16108TIP3    H169815   5.631   1.753  15.354  0.4462  0.9477 -0.0596
16108TIP3    H269816   5.591   1.804  15.218 -0.3028  1.1342  0.2266
16109TIP3   OH269817   2.957   3.326  16.524 -0.2296 -0.1092 -0.3341
16109TIP3    H169818   2.948   3.421  16.534  2.1459  0.2141 -0.8077
16109TIP3    H269819   3.002   3.297  16.603 -2.3724 -1.1740  0.6001
16110TIP3   OH269820   5.658   5.516   0.756  0.0510 -0.3426  0.2653
16110TIP3    H169821   5.671   5.551   0.844 -3.0089 -0.6727  0.9540
16110TIP3    H269822   5.585   5.454   0.765  0.1950 -1.0198 -2.3585
16111TIP3   OH269823   0.302   3.073  11.220  0.0893 -0.8103  0.0350
16111TIP3    H169824   0.304   3.162  11.256 -1.9279 -0.1639 -1.2980
16111TIP3    H269825   0.217   3.038  11.245 -0.3392 -1.2623 -1.8571
16112TIP3   OH269826   2.893   3.921   2.689  0.5994 -0.5606  0.3994
16112TIP3    H169827   2.830   3.978   2.645 -0.2696 -0.5228  1.6457
16112TIP3    H269828   2.962   3.907   2.624 -0.8931 -0.9576 -1.1552
16113TIP3   OH269829   3.162   5.152   1.897  0.7366 -0.2707  0.2147
16113TIP3    H169830   3.195   5.064   1.879 -0.3382 -0.4317 -1.1543
16113TIP3    H269831   3.119   5.179   1.816 -1.4323  0.3733  1.4986
16114TIP3   OH269832   6.212   3.012  13.061 -0.1628 -0.1519 -0.2619
16114TIP3    H169833   6.133   3.057  13.091 -0.6130 -2.7201  3.0231
16114TIP3    H269834   6.283   3.074  13.076 -1.0527  0.5497  1.3194
16115TIP3   OH269835   4.057   4.673  13.124  0.5377  0.3734 -0.1912
16115TIP3    H169836   4.104   4.621  13.058  1.5565  0.0996  0.7288
16115TIP3    H269837   3.979   4.621  13.144  1.9112 -1.2511  1.2839
16116TIP3   OH269838   2.921   4.420  15.887  0.1713 -0.9331  0.3565
16116TIP3    H169839   2.988   4.425  15.956 -0.5689 -1.0895  1.0967
16116TIP3    H269840   2.838   4.410  15.934 -0.4135 -0.4402 -0.5457
16117TIP3   OH269841   4.615   1.790   3.172  0.2694 -0.5245  0.5733
16117TIP3    H169842   4.520   1.793   3.173  0.2716 -0.3788  0.3176
16117TIP3    H269843   4.642   1.881   3.187  0.3757 -0.7217  1.7356
16118TIP3   OH269844   0.010   0.677   0.299 -0.3497 -0.1105 -0.3064
16118TIP3    H169845  -0.020   0.760   0.262 -1.0291 -0.4304 -0.5008
16118TIP3    H269846   0.105   0.680   0.290 -0.4085  0.3881 -0.8734
16119TIP3   OH269847   4.456   0.637  14.701  0.1395  0.3188  0.4996
16119TIP3    H169848   4.436   0.589  14.782  0.9889  1.3052  1.3278
16119TIP3    H269849   4.546   0.668  14.714  0.0013  1.1571 -0.4983
16120TIP3   OH269850   6.526   2.848   5.847  0.0939 -0.4362  0.2535
16120TIP3    H169851   6.474   2.789   5.792  2.0031 -3.2168  1.2602
16120TIP3    H269852   6.489   2.838   5.935 -0.0673  0.5324  0.3079
16121TIP3   OH269853   3.793   0.481   1.144 -0.1878  0.4237  0.6365
16121TIP3    H169854   3.866   0.506   1.088 -0.3916 -0.9808 -0.3053
16121TIP3    H269855   3.823   0.501   1.233  1.1114  0.4141  0.2210
16122TIP3   OH269856   4.287   3.181  10.681 -0.1867  0.3548 -0.0829
16122TIP3    H169857   4.318   3.092  10.671 -0.2128  0.4022 -0.5945
16122TIP3    H269858   4.353   3.235  10.637 -0.3690  0.5525 -0.1185
16123TIP3   OH269859   1.168   0.492  17.031 -0.2493 -0.3175 -0.6769
16123TIP3    H169860   1.233   0.423  17.046 -2.5234 -2.4835 -0.1553
16123TIP3    H269861   1.196   0.534  16.949  2.7810  0.1306  0.4591
16124TIP3   OH269862   6.380   3.992  16.738  0.0247  0.5663 -0.2061
16124TIP3    H169863   6.436   4.069  16.727 -0.0961  0.5941 -0.6523
16124TIP3    H269864   6.397   3.962  16.828  2.4343 -0.7635 -1.0342
16125TIP3   OH269865   4.388   2.620  15.297 -0.2640 -0.1662 -0.0236
16125TIP3    H169866   4.470   2.661  15.267  0.1722 -1.3185 -0.4390
16125TIP3    H269867   4.321   2.656  15.239 -0.1560  1.1576  0.6268
16126TIP3   OH269868   3.547   0.427  15.863 -0.4013 -0.7867  0.2416
16126TIP3    H169869   3.627   0.377  15.849 -0.3670 -0.5747 -0.3388
16126TIP3    H269870   3.550   0.497  15.797 -1.7258 -1.6072 -0.7309
16127TIP3   OH269871   4.307   6.003   2.131  0.2438 -0.3677  0.6017
16127TIP3    H169872   4.221   6.043   2.146  0.1584  0.3996 -1.5782
16127TIP3    H269873   4.299   5.915   2.168 -0.9189  0.2436  1.9017
16128TIP3   OH269874   6.656   6.248   2.965 -0.2702  0.1804 -0.3678
16128TIP3    H169875   6.562   6.259   2.978 -0.4156 -0.5179 -0.7739
16128TIP3    H269876   6.694   6.262   3.052 -0.9440 -1.5603  0.2509
16129TIP3   OH269877   6.413   5.153   1.867  0.2526 -0.1546 -0.2151
16129TIP3    H169878   6.408   5.153   1.771 -0.4446  0.4052 -0.1928
16129TIP3    H269879   6.379   5.239   1.892 -0.3408 -0.6058  0.5716
16130TIP3   OH269880   0.856   1.993   1.323  0.3369  0.0500  0.7116
16130TIP3    H169881   0.932   1.938   1.338  1.9790  1.4716 -1.7100
16130TIP3    H269882   0.844   1.993   1.228 -3.1429 -0.6115  1.0132
16131TIP3   OH269883   3.611   3.276   3.661 -0.2280 -0.4045 -0.0981
16131TIP3    H169884   3.677   3.237   3.718 -1.6599 -1.2002  1.1020
16131TIP3    H269885   3.587   3.206   3.600 -1.5377 -0.9017  0.9283
16132TIP3   OH269886   4.412   0.560   0.241 -0.1825  0.3900  0.2675
16132TIP3    H169887   4.415   0.582   0.148 -1.8178  2.5242  0.6496
16132TIP3    H269888   4.481   0.612   0.281  1.6101 -1.7401  0.1069
16133TIP3   OH269889   6.474   5.596   4.103 -0.3784 -0.1777  0.2141
16133TIP3    H169890   6.441   5.518   4.057 -0.7378  0.6761 -1.0345
16133TIP3    H269891   6.568   5.594   4.088 -0.3974 -0.3210  0.1068
16134TIP3   OH269892   1.257   5.317   4.644 -0.4576 -0.3203 -0.0610
16134TIP3    H169893   1.221   5.257   4.710 -0.2608  0.8079  1.1304
16134TIP3    H269894   1.273   5.262   4.567 -0.2562 -1.7950  0.9877
16135TIP3   OH269895   0.918   3.941  11.616 -0.2296 -0.1167  0.2454
16135TIP3    H169896   0.900   3.887  11.539  2.6397 -2.6112  1.1678
16135TIP3    H269897   0.947   4.025  11.579 -1.3752 -0.3462 -1.2903
16136TIP3   OH269898   1.013   1.385  15.124  0.4288 -0.3830 -0.2780
16136TIP3    H169899   1.053   1.307  15.161 -0.2004 -0.9905 -0.8673
16136TIP3    H269900   0.932   1.397  15.175  0.7255  0.1234  0.0817
16137TIP3   OH269901   6.439   3.245   3.581  0.0284 -0.0145 -0.0100
16137TIP3    H169902   6.517   3.219   3.531  0.5358 -0.5940  1.0239
16137TIP3    H269903   6.371   3.257   3.516  0.3537 -1.9019 -0.7619
16138TIP3   OH269904   3.072   2.165  14.832 -0.0128 -0.7911 -0.0043
16138TIP3    H169905   2.989   2.153  14.787  0.5849 -0.7416 -1.1652
16138TIP3    H269906   3.092   2.258  14.823 -0.2714 -0.6142  1.0891
16139TIP3   OH269907   4.590   5.436  12.157  0.0572 -0.1853  0.0612
16139TIP3    H169908   4.647   5.388  12.097 -0.2087 -0.1108 -0.2573
16139TIP3    H269909   4.551   5.368  12.212 -3.4508 -0.9554 -2.9701
16140TIP3   OH269910   1.229   1.872   1.770 -0.2628  0.0961  0.0627
16140TIP3    H169911   1.274   1.952   1.798  0.4429  0.1436 -1.1439
16140TIP3    H269912   1.214   1.885   1.677 -0.1263 -1.1919 -0.1530
16141TIP3   OH269913   3.004   2.084  13.511 -0.4443  0.8319 -0.9731
16141TIP3    H169914   3.089   2.057  13.477 -0.7361  0.1480 -1.1860
16141TIP3    H269915   2.987   2.169  13.471 -0.7131  0.1159 -2.4450
16142TIP3   OH269916   2.436   0.483  14.116  0.0955 -0.0674  0.2021
16142TIP3    H169917   2.389   0.457  14.195  1.7413 -1.5498  0.7674
16142TIP3    H269918   2.529   0.474  14.139  0.6247 -0.8408 -1.9881
16143TIP3   OH269919   4.814   3.180  16.449  0.2291 -0.4635 -0.4214
16143TIP3    H169920   4.767   3.100  16.474 -1.2612 -0.0112 -1.5666
16143TIP3    H269921   4.902   3.151  16.428 -0.4252 -1.9240 -1.3187
16144TIP3   OH269922   5.499   3.835   5.508  0.2677 -0.1995  0.0281
16144TIP3    H169923   5.504   3.839   5.604  2.3818 -0.7483 -0.0107
16144TIP3    H269924   5.426   3.892   5.485 -0.4545 -0.2779  1.9749
16145TIP3   OH269925   5.996   4.056  11.509  0.0986 -0.5023 -0.3617
16145TIP3    H169926   5.932   4.123  11.485  0.6892  0.2488  0.1169
16145TIP3    H269927   6.021   4.016  11.425 -1.6121 -1.4113 -0.4914
16146TIP3   OH269928   0.368   3.775   4.584  0.4693 -0.1834 -0.4561
16146TIP3    H169929   0.441   3.817   4.538  1.1739 -0.3596  0.4821
16146TIP3    H269930   0.409   3.721   4.651 -0.5432  0.2359  0.5342
16147TIP3   OH269931   6.696   4.796  15.981 -0.1472 -0.0204  0.3104
16147TIP3    H169932   6.710   4.890  15.994 -0.8259  0.1375 -0.0848
16147TIP3    H269933   6.759   4.773  15.913  1.2278 -0.2178  1.6000
16148TIP3   OH269934   5.752   3.607  15.491 -0.1706  0.1845  0.2988
16148TIP3    H169935   5.695   3.554  15.547 -1.8016 -0.4037 -1.7495
16148TIP3    H269936   5.722   3.587  15.402  2.7795  0.4547 -0.8646
16149TIP3   OH269937   2.421   1.582   0.157 -0.0335  0.0946  0.8013
16149TIP3    H169938   2.490   1.643   0.183  1.5959 -0.6204 -1.4811
16149TIP3    H269939   2.461   1.495   0.169  0.8627 -0.3131 -3.4730
16150TIP3   OH269940   6.809   5.748   0.122  0.2402  0.4813 -0.1293
16150TIP3    H169941   6.755   5.694   0.064  1.3182 -2.5057  1.4488
16150TIP3    H269942   6.847   5.814   0.063 -1.9066  0.1896 -1.9944
16151TIP3   OH269943   0.700   6.639   5.170  0.2647  0.1231 -0.0789
16151TIP3    H169944   0.750   6.721   5.182  1.6414 -0.5798 -0.7437
16151TIP3    H269945   0.730   6.606   5.085 -1.1827 -0.4749 -0.3777
16152TIP3   OH269946   5.162   5.696  14.287 -0.1387 -0.3167 -0.0584
16152TIP3    H169947   5.158   5.617  14.341  0.1740 -1.0855 -1.1269
16152TIP3    H269948   5.185   5.664  14.199 -0.6005  0.8990 -0.6443
16153TIP3   OH269949   3.264   2.392  15.952 -0.1185  0.3641  0.2632
16153TIP3    H169950   3.341   2.354  15.910  0.8046 -0.6858  2.7263
16153TIP3    H269951   3.279   2.486  15.950  0.1462  0.3184 -1.1657
16154TIP3   OH269952   5.382   1.182  14.985  0.3390 -0.1685  0.4155
16154TIP3    H169953   5.347   1.108  15.033 -0.0075 -0.0758  0.3087
16154TIP3    H269954   5.313   1.248  14.988  0.3848 -0.0938 -0.0508
16155TIP3   OH269955   2.516   3.356  14.324  0.0740  0.3730 -0.2979
16155TIP3    H169956   2.489   3.334  14.413  0.9139 -0.7043 -0.2883
16155TIP3    H269957   2.441   3.331  14.270 -0.9649  2.2348  0.1908
16156TIP3   OH269958   0.738   1.639   4.352 -0.1195  0.2051  0.0483
16156TIP3    H169959   0.823   1.610   4.318 -0.2302 -1.3648  1.0104
16156TIP3    H269960   0.674   1.581   4.311 -0.6391  0.7683  0.0452
16157TIP3   OH269961   0.522   4.402   2.234  0.2170  0.0730  0.3448
16157TIP3    H169962   0.604   4.429   2.277 -0.0092 -1.1983  1.6888
16157TIP3    H269963   0.466   4.479   2.239  0.8945  0.5637  0.5816
16158TIP3   OH269964   1.705   3.367  11.378  0.2885 -0.4068  0.0185
16158TIP3    H169965   1.775   3.392  11.438  1.2118  0.5551 -1.3710
16158TIP3    H269966   1.647   3.444  11.376  2.5917  1.5611 -3.4923
16159TIP3   OH269967   2.017   2.631  12.775 -0.1417  0.4884  0.2212
16159TIP3    H169968   1.978   2.564  12.719  1.1762  0.6335 -0.9431
16159TIP3    H269969   1.974   2.713  12.748  0.8544  0.6438 -1.0389
16160TIP3   OH269970   4.388   0.281   2.372  0.0068 -0.4136  0.1863
16160TIP3    H169971   4.346   0.205   2.332  0.6270 -0.8943  0.4248
16160TIP3    H269972   4.457   0.306   2.310  1.7530 -1.8870  1.4226
16161TIP3   OH269973   1.922   0.599   4.451 -0.3667  0.6557  0.1784
16161TIP3    H169974   1.960   0.679   4.488 -0.2491  0.0843  1.3112
16161TIP3    H269975   1.983   0.574   4.382 -0.2885  1.4111 -0.0433
16162TIP3   OH269976   1.787   6.191   5.679 -0.2595 -0.5999 -0.7673
16162TIP3    H169977   1.854   6.242   5.633 -0.0952 -0.7432 -0.6896
16162TIP3    H269978   1.837   6.135   5.738 -0.5257  0.9486  1.0294
16163TIP3   OH269979   5.261   3.241  15.256 -0.3217  1.0413  0.0347
16163TIP3    H169980   5.255   3.312  15.321 -3.4102 -0.4986  1.6295
16163TIP3    H269981   5.199   3.266  15.188 -1.3565  0.0178  0.5569
16164TIP3   OH269982   4.626   1.768  12.320 -0.4292 -0.2178 -0.1250
16164TIP3    H169983   4.666   1.759  12.233  0.1970 -1.5218  0.2794
16164TIP3    H269984   4.670   1.844  12.358 -2.3756  1.9110 -1.7831
16165TIP3   OH269985   5.042   1.755  14.055  0.1140 -0.5623  0.5248
16165TIP3    H169986   5.015   1.826  14.113  0.6232  1.5659 -1.7064
16165TIP3    H269987   5.137   1.753  14.063  0.1379 -0.6643  0.2136
16166TIP3   OH269988   0.129   4.887   3.249  0.3415  0.0799  1.0045
16166TIP3    H169989   0.090   4.823   3.189  0.2537  0.2758  0.8512
16166TIP3    H269990   0.173   4.950   3.191  0.0418  0.4091  1.1338
16167TIP3   OH269991   0.402   5.941  12.389  0.0126  0.0424 -0.4359
16167TIP3    H169992   0.423   5.849  12.372  1.1629  0.2380 -0.1686
16167TIP3    H269993   0.366   5.942  12.477 -0.1098 -0.1651 -0.4828
16168TIP3   OH269994   5.696   3.274  16.978  0.0520  0.5034  0.0225
16168TIP3    H169995   5.744   3.301  17.057  0.2946  0.6316 -0.1653
16168TIP3    H269996   5.607   3.306  16.992  0.3335  1.4265 -0.1985
16169TIP3   OH269997   6.351   1.853   3.241 -0.1330  0.4186  0.0954
16169TIP3    H169998   6.309   1.935   3.269 -1.2439 -0.0952 -0.0263
16169TIP3    H269999   6.330   1.790   3.310  1.4643  0.4311  0.6333
16170TIP3   OH270000   2.922   6.179   1.513 -0.3808  0.0751 -0.1457
16170TIP3    H170001   2.894   6.266   1.484  0.5297  0.2805 -0.4491
16170TIP3    H270002   2.884   6.119   1.450  0.6461  0.4304 -1.1432
16171TIP3   OH270003   2.670   2.629  10.767  0.4184 -0.3169  0.1688
16171TIP3    H170004   2.638   2.644  10.856 -0.4938 -2.3934  0.2381
16171TIP3    H270005   2.746   2.686  10.759  2.3844 -2.2407  3.3264
16172TIP3   OH270006   1.733   1.921   0.606  0.5763  0.4333  0.5002
16172TIP3    H170007   1.640   1.897   0.602  0.7219 -0.4065  1.6582
16172TIP3    H270008   1.774   1.873   0.534 -0.0462  1.6880 -0.7305
16173TIP3   OH270009   2.807   1.794   1.641  0.0693 -0.6465  0.0774
16173TIP3    H170010   2.795   1.839   1.558  2.0992 -1.7739 -0.9135
16173TIP3    H270011   2.718   1.782   1.675 -0.7614  0.5253 -1.5276
16174TIP3   OH270012   1.963   2.407   5.279  0.1799  0.1525 -0.3410
16174TIP3    H170013   1.942   2.404   5.372 -0.3127 -1.0110 -0.4734
16174TIP3    H270014   2.006   2.492   5.267 -0.3090  0.5881  0.8186
16175TIP3   OH270015   1.538   2.928   1.828  0.3759 -0.2418 -0.2620
16175TIP3    H170016   1.446   2.901   1.822 -0.4948  1.8621  1.7259
16175TIP3    H270017   1.549   2.992   1.757 -0.5398  1.3819  0.9680
16176TIP3   OH270018   2.375   4.457  11.831  0.0830 -0.1390 -0.0141
16176TIP3    H170019   2.297   4.466  11.885 -1.1784 -2.7668 -1.2061
16176TIP3    H270020   2.342   4.456  11.741  1.2870 -2.4680 -0.5014
16177TIP3   OH270021   5.053   5.999  12.074 -0.3627  0.2393  0.3379
16177TIP3    H170022   4.983   6.059  12.048  0.5475  0.7042 -1.1677
16177TIP3    H270023   5.089   6.037  12.154 -2.4986 -0.6151  1.8205
16178TIP3   OH270024   3.923   5.985  11.617 -0.1151  0.5494  0.0312
16178TIP3    H170025   4.012   5.949  11.615  0.0041  0.8518 -0.1617
16178TIP3    H270026   3.935   6.079  11.608 -0.3888  0.7076  1.1176
16179TIP3   OH270027   2.857   4.148  10.321 -0.0330  0.5402  0.0611
16179TIP3    H170028   2.857   4.077  10.385  0.4596  1.4474  1.0781
16179TIP3    H270029   2.796   4.118  10.253 -0.3985 -0.5320  0.8323
16180TIP3   OH270030   2.129   1.087   1.911  0.0866 -0.0928 -0.2755
16180TIP3    H170031   2.057   1.051   1.860  1.4088 -1.7324 -1.0827
16180TIP3    H270032   2.120   1.182   1.902 -1.2901 -0.3025 -1.3002
16181TIP3   OH270033   1.456   3.030  11.564 -0.4721  0.3938  0.1880
16181TIP3    H170034   1.536   3.051  11.516  0.4204 -0.3204  1.3101
16181TIP3    H270035   1.410   2.967  11.509 -0.1789  0.6734 -0.3834
16182TIP3   OH270036   0.479   3.763  11.942 -0.0006  0.5860  0.4188
16182TIP3    H170037   0.438   3.748  12.027 -0.2307  1.6380  0.5051
16182TIP3    H270038   0.531   3.684  11.926 -2.9339 -1.3696 -0.2287
16183TIP3   OH270039   3.960   6.067   3.106 -0.3356  0.0587 -0.4464
16183TIP3    H170040   4.043   6.112   3.117 -0.3253  0.0195 -0.3639
16183TIP3    H270041   3.960   5.999   3.173  0.0017 -0.5771 -1.0806
16184TIP3   OH270042   2.412   3.511  15.236  0.1074  0.3238  0.0313
16184TIP3    H170043   2.473   3.575  15.199 -0.6854  0.3484 -1.2827
16184TIP3    H270044   2.469   3.449  15.282  1.1312  0.4304 -1.0203
16185TIP3   OH270045   3.076   5.773  14.169  0.3599 -0.1606  0.5251
16185TIP3    H170046   3.034   5.799  14.086  1.4551  1.6037  0.4596
16185TIP3    H270047   3.026   5.697  14.198 -0.3529 -0.5614 -1.5219
16186TIP3   OH270048   3.923   6.163  15.136 -0.5803 -0.4463 -0.3914
16186TIP3    H170049   3.881   6.098  15.192 -2.5543  0.1401 -1.0948
16186TIP3    H270050   3.889   6.247  15.168 -1.6229 -0.0837 -2.2776
16187TIP3   OH270051   3.531   3.700  13.464 -0.0846  0.8207  0.7082
16187TIP3    H170052   3.609   3.719  13.412 -0.7397  1.1648 -0.1796
16187TIP3    H270053   3.537   3.606  13.483  1.1892  1.0958  1.7562
16188TIP3   OH270054   3.907   3.740  15.922  0.0062 -0.0171 -0.5746
16188TIP3    H170055   3.870   3.657  15.954  1.9732 -1.0009 -0.6807
16188TIP3    H270056   3.937   3.720  15.834 -1.1410  1.3673 -1.3146
16189TIP3   OH270057   0.686   3.409  13.965  0.0910 -0.3370 -0.3376
16189TIP3    H170058   0.669   3.493  14.006  0.6193  0.1997 -1.1864
16189TIP3    H270059   0.773   3.384  13.996 -0.4853 -1.0890  0.7357
16190TIP3   OH270060   4.077   5.859  15.465  0.0239  0.3102 -0.6069
16190TIP3    H170061   4.022   5.782  15.476  1.2559 -0.4316  0.8112
16190TIP3    H270062   4.098   5.861  15.372  0.9630 -1.8169 -0.4876
16191TIP3   OH270063   0.882   0.849   3.607 -0.7055  0.1707 -0.1697
16191TIP3    H170064   0.863   0.797   3.685 -1.3992  1.7144  0.7356
16191TIP3    H270065   0.977   0.843   3.598 -0.4385  0.9716  1.5761
16192TIP3   OH270066   5.557   2.364  12.065 -0.7578  0.0414 -0.5796
16192TIP3    H170067   5.613   2.332  12.135  0.1584  1.1917 -0.7617
16192TIP3    H270068   5.470   2.333  12.088 -0.1099 -1.5258 -0.1315
16193TIP3   OH270069   0.604   6.780   0.402 -0.2403 -0.6701 -0.3082
16193TIP3    H170070   0.674   6.845   0.400 -1.3955  0.6172 -0.6330
16193TIP3    H270071   0.577   6.778   0.494 -0.7292 -0.0744 -0.4294
16194TIP3   OH270072   0.093   2.294   5.690  0.6113 -0.1193  0.2048
16194TIP3    H170073   0.048   2.209   5.692 -0.3155  0.3683  1.0588
16194TIP3    H270074   0.024   2.358   5.706  1.1898  0.8644 -1.0418
16195TIP3   OH270075   6.431   4.406   2.993  0.8807 -0.2240 -0.0220
16195TIP3    H170076   6.484   4.398   3.072  1.3228  2.9434  0.1410
16195TIP3    H270077   6.341   4.405   3.024  1.0540  2.3269  0.8377
16196TIP3   OH270078   2.875   3.448   3.388  0.1880 -0.2240  0.7104
16196TIP3    H170079   2.882   3.449   3.484  1.0831  2.2422  0.6906
16196TIP3    H270080   2.954   3.492   3.358 -0.6527  0.1486 -1.1014
16197TIP3   OH270081   1.326   2.451  15.092 -0.6458  0.2637 -0.1518
16197TIP3    H170082   1.300   2.381  15.152 -0.8398 -1.5928 -2.2298
16197TIP3    H270083   1.290   2.531  15.130  1.3070 -0.3782  3.3793
16198TIP3   OH270084   1.454   4.000   3.364  0.2854  0.1780 -0.1427
16198TIP3    H170085   1.469   4.061   3.292  0.6843 -0.7826 -0.8890
16198TIP3    H270086   1.510   3.925   3.345  2.1586  0.8247  2.3503
16199TIP3   OH270087   6.829   1.390   5.861 -0.3898 -0.0762  0.5949
16199TIP3    H170088   6.832   1.352   5.949  3.3388  0.2778  0.8123
16199TIP3    H270089   6.816   1.316   5.803  0.2725 -0.7968  1.3418
16200TIP3   OH270090   2.748   3.186   5.292 -0.0722 -0.0775 -0.2295
16200TIP3    H170091   2.759   3.247   5.219  0.1918  1.5124  1.0663
16200TIP3    H270092   2.672   3.220   5.340  0.9075  0.0740  1.2809
16201TIP3   OH270093   1.625   3.784  13.431  0.4799  0.2931  0.3533
16201TIP3    H170094   1.588   3.736  13.505 -0.8287 -0.0157 -0.4675
16201TIP3    H270095   1.634   3.719  13.362  1.1676  0.6961  0.0527
16202TIP3   OH270096   4.198   4.302   5.058 -0.1740 -0.2348  0.4763
16202TIP3    H170097   4.108   4.318   5.030 -0.1313  6.4312  2.3887
16202TIP3    H270098   4.252   4.334   4.986  0.3472  1.4206  1.5367
16203TIP3   OH270099   2.017   3.508  11.372  0.3627 -0.3819 -0.5079
16203TIP3    H170100   2.005   3.442  11.304 -2.0966 -0.1514 -0.3976
16203TIP3    H270101   2.095   3.480  11.420  2.3281 -0.4536 -3.4628
16204TIP3   OH270102   3.849   3.152   3.793  0.4555 -0.5119  0.5604
16204TIP3    H170103   3.911   3.204   3.844  1.4919 -0.9259 -0.2303
16204TIP3    H270104   3.787   3.117   3.857 -0.0127  1.3269  1.1576
16205TIP3   OH270105   0.273   6.695  14.532  0.8289  1.1638 -0.5957
16205TIP3    H170106   0.250   6.726  14.445 -1.4232  0.2951 -0.3711
16205TIP3    H270107   0.289   6.774  14.583  0.9978  1.7177 -1.4955
16206TIP3   OH270108   2.788   0.384   2.621  0.1936 -0.4077  0.4071
16206TIP3    H170109   2.778   0.354   2.531  2.1917  0.3818 -0.1201
16206TIP3    H270110   2.872   0.348   2.649  1.9892  3.2521  0.2586
16207TIP3   OH270111   2.982   1.018   0.811  0.1724 -0.3117 -0.2286
16207TIP3    H170112   3.074   1.036   0.791 -0.1131  2.0545  0.2826
16207TIP3    H270113   2.979   1.009   0.906 -0.2303  0.4096 -0.1673
16208TIP3   OH270114   5.207   3.054  12.710  0.1653  0.5624 -0.3151
16208TIP3    H170115   5.263   3.129  12.687 -0.3979  1.1400  0.1773
16208TIP3    H270116   5.161   3.082  12.789  1.0380 -0.8580  0.7425
16209TIP3   OH270117   4.901   6.530  11.126 -0.1855  0.0648 -0.1419
16209TIP3    H170118   4.853   6.599  11.172 -0.9675  1.6088 -2.9743
16209TIP3    H270119   4.992   6.558  11.128 -0.2106  0.1103  0.4568
16210TIP3   OH270120   0.360   3.611   1.969 -0.4156 -0.5263  0.7683
16210TIP3    H170121   0.385   3.605   2.061  0.2309 -1.8182  0.5289
16210TIP3    H270122   0.369   3.704   1.947 -1.6625 -0.0195  2.2921
16211TIP3   OH270123   3.221   5.592   0.931 -0.3320  0.2573  0.0515
16211TIP3    H170124   3.131   5.612   0.955 -0.9458  0.0644 -1.8943
16211TIP3    H270125   3.245   5.662   0.870  0.6401 -0.0148  0.1043
16212TIP3   OH270126   3.552   4.163   1.900 -0.4782  0.1280 -0.3730
16212TIP3    H170127   3.606   4.094   1.862  0.4583  0.9774 -0.6330
16212TIP3    H270128   3.466   4.122   1.914 -0.0661 -0.9508 -0.9133
16213TIP3   OH270129   2.047   6.421  10.993 -0.6232 -0.2856 -0.0851
16213TIP3    H170130   2.086   6.508  10.982 -1.4893 -0.1027 -1.9602
16213TIP3    H270131   2.050   6.381  10.906 -2.7214 -1.0649  0.1445
16214TIP3   OH270132   1.237   4.915   4.987  0.3568 -0.4933  0.2363
16214TIP3    H170133   1.158   4.887   4.939  0.9620  0.5920 -1.4938
16214TIP3    H270134   1.216   4.898   5.079 -1.5678 -1.0220 -0.2403
16215TIP3   OH270135   6.005   5.899   1.465 -0.3952  0.0427  0.1693
16215TIP3    H170136   6.095   5.923   1.443 -0.2189 -0.2392  0.5827
16215TIP3    H270137   6.001   5.805   1.450 -0.1797 -0.2197  1.6335
16216TIP3   OH270138   4.666   1.602   3.696  0.6302 -0.1601 -0.4817
16216TIP3    H170139   4.669   1.624   3.603 -0.5987 -0.5938 -0.6299
16216TIP3    H270140   4.590   1.546   3.706  1.1153 -0.6515  0.6863
16217TIP3   OH270141   1.023   3.590   3.415 -0.1721 -0.1951  0.4149
16217TIP3    H170142   1.067   3.569   3.497 -0.7816 -0.0702  0.7773
16217TIP3    H270143   0.962   3.661   3.437 -1.1547 -0.9267  0.1040
16218TIP3   OH270144   1.127   4.229  14.742 -0.2271 -0.3716  0.0053
16218TIP3    H170145   1.199   4.257  14.686 -0.8658  0.6047 -0.3484
16218TIP3    H270146   1.167   4.221  14.829  0.2723  0.4038 -0.1361
16219TIP3   OH270147   5.359   3.670  15.832  0.8133  0.0047 -0.1721
16219TIP3    H170148   5.411   3.743  15.797  0.0858 -0.5748 -2.6671
16219TIP3    H270149   5.274   3.710  15.853  0.3557 -0.0584 -1.7003
16220TIP3   OH270150   3.799   3.690   4.230 -0.0393  0.3172 -0.1199
16220TIP3    H170151   3.732   3.736   4.180 -1.6685 -1.4486  0.3020
16220TIP3    H270152   3.761   3.604   4.247  1.9384 -0.3940  1.0452
16221TIP3   OH270153   6.338   3.050   1.208 -0.0152 -0.3423 -0.2238
16221TIP3    H170154   6.297   3.078   1.290 -0.7100 -0.4518 -0.5249
16221TIP3    H270155   6.313   2.958   1.199  0.6981 -0.5507 -0.1824
16222TIP3   OH270156   6.580   0.398   3.644 -0.0492  0.8578 -0.8287
16222TIP3    H170157   6.658   0.359   3.606  0.4102  0.8343  0.1148
16222TIP3    H270158   6.566   0.350   3.726 -1.9565 -0.2047 -1.6989
16223TIP3   OH270159   3.789   3.058   5.374  0.0621 -0.8651 -0.0848
16223TIP3    H170160   3.716   2.996   5.376 -0.2312 -0.5313 -0.2623
16223TIP3    H270161   3.801   3.078   5.281 -1.2863  1.0041  0.0820
16224TIP3   OH270162   6.708   2.426   5.712  0.0727  0.4729 -0.4993
16224TIP3    H170163   6.698   2.500   5.772  1.8816  0.1330  0.2812
16224TIP3    H270164   6.655   2.356   5.751  2.2140 -0.1575  1.4906
16225TIP3   OH270165   3.232   5.453  11.240  0.3758  0.4408 -0.4956
16225TIP3    H170166   3.254   5.481  11.152 -1.7399 -0.2011 -1.2966
16225TIP3    H270167   3.253   5.359  11.242 -1.4757 -0.0401 -1.0770
16226TIP3   OH270168   6.771   5.689  15.665 -0.5997  0.4361 -0.0436
16226TIP3    H170169   6.676   5.693  15.673 -0.6312  0.6662 -0.4859
16226TIP3    H270170   6.787   5.691  15.570 -0.2211 -1.3742 -0.0369
16227TIP3   OH270171   2.943   5.602   0.978 -0.0679 -0.1659  0.3289
16227TIP3    H170172   2.855   5.624   1.007  0.9514  2.8692  1.5718
16227TIP3    H270173   2.931   5.531   0.915 -3.3591  0.2229  0.3567
16228TIP3   OH270174   5.178   4.355   4.428 -0.1246  0.0503 -0.5851
16228TIP3    H170175   5.109   4.381   4.489 -2.0270 -1.7174 -1.8299
16228TIP3    H270176   5.259   4.361   4.479 -1.3559  0.8058  1.3938
16229TIP3   OH270177   2.472   5.321   1.568  0.3874 -0.3137 -0.3694
16229TIP3    H170178   2.531   5.245   1.563 -0.3511 -0.8739 -0.8998
16229TIP3    H270179   2.416   5.303   1.643  1.7917  0.9233  1.0584
16230TIP3   OH270180   4.217   5.386   4.040  0.3924 -0.0870  0.1602
16230TIP3    H170181   4.247   5.422   4.124  1.2162  0.0177 -0.1753
16230TIP3    H270182   4.209   5.462   3.983 -1.3635  0.0118  0.4711
16231TIP3   OH270183   0.268   0.237   5.849 -0.3738 -0.1755  0.0041
16231TIP3    H170184   0.353   0.202   5.876 -0.7771 -0.6366  0.7043
16231TIP3    H270185   0.241   0.294   5.921 -0.1256  0.9139 -0.7428
16232TIP3   OH270186   5.437   3.504  16.610  0.5071 -0.0577  0.2104
16232TIP3    H170187   5.513   3.449  16.591  1.0789  0.6200  0.4961
16232TIP3    H270188   5.422   3.553  16.530  0.2215 -0.3519  0.0796
16233TIP3   OH270189   2.793   0.832   5.509 -0.0933  0.3810 -0.4652
16233TIP3    H170190   2.722   0.848   5.571 -1.2029 -0.0386 -1.5832
16233TIP3    H270191   2.751   0.836   5.423  0.6849 -2.3395 -1.0786
16234TIP3   OH270192   2.589   0.210   2.375  0.2319 -0.2566 -0.5706
16234TIP3    H170193   2.503   0.188   2.410 -0.0392 -0.7643 -1.5338
16234TIP3    H270194   2.583   0.191   2.281  1.1190  0.5279 -0.8058
16235TIP3   OH270195   4.229   4.654  12.665  0.0752 -0.1129  0.8153
16235TIP3    H170196   4.149   4.706  12.664  0.2718  0.1930  0.9638
16235TIP3    H270197   4.204   4.573  12.711  0.0192  0.2477  1.4330
16236TIP3   OH270198   0.499   4.404   1.646  0.0405  0.0427  0.7095
16236TIP3    H170199   0.463   4.472   1.590 -0.2942 -0.3713  0.4208
16236TIP3    H270200   0.452   4.325   1.622 -0.8497  0.0539  2.3052
16237TIP3   OH270201   3.105   3.293  11.490 -0.9920 -0.1219 -0.1263
16237TIP3    H170202   3.019   3.324  11.461 -0.0339  1.4098 -1.5476
16237TIP3    H270203   3.138   3.364  11.546 -0.4926 -0.5206  0.0816
16238TIP3   OH270204   4.194   1.533   5.811  0.0399 -0.1914  0.2670
16238TIP3    H170205   4.150   1.498   5.889  0.6207 -0.0119  0.6874
16238TIP3    H270206   4.275   1.482   5.805  0.9726  1.1414  0.9786
16239TIP3   OH270207   4.420   6.250  10.894 -0.1359 -0.0310  0.5991
16239TIP3    H170208   4.422   6.340  10.927  1.0009  0.2473 -0.1679
16239TIP3    H270209   4.511   6.228  10.877 -0.6039 -0.0792 -2.4334
16240TIP3   OH270210   4.631   2.204   3.672 -0.3327  0.1777  0.1105
16240TIP3    H170211   4.664   2.124   3.631 -2.7039 -0.4614 -0.7592
16240TIP3    H270212   4.645   2.191   3.766  0.7562 -0.5327 -0.1373
16241TIP3   OH270213   6.417   0.821  11.876  0.0342 -0.6307  0.7503
16241TIP3    H170214   6.474   0.884  11.832  0.5866 -1.1119  0.7515
16241TIP3    H270215   6.470   0.741  11.881 -0.2359 -0.7588  1.7559
16242TIP3   OH270216   5.458   2.408   0.169 -0.1615  0.5815  0.0284
16242TIP3    H170217   5.539   2.357   0.166 -1.0766 -0.9192  0.1946
16242TIP3    H270218   5.470   2.475   0.101  1.0831  0.1921 -0.1643
16243TIP3   OH270219   4.493   6.426  15.127  0.0555 -0.1654  0.3418
16243TIP3    H170220   4.448   6.348  15.157  0.6791 -0.5853  0.2026
16243TIP3    H270221   4.440   6.458  15.053  0.0080 -0.6715  0.1527
16244TIP3   OH270222   1.358   5.838  10.343  0.1997  0.0166 -0.2527
16244TIP3    H170223   1.272   5.815  10.306 -0.1667  1.2148 -0.1803
16244TIP3    H270224   1.349   5.930  10.369  0.8581 -0.3944  1.5938
16245TIP3   OH270225   4.419   6.548  11.632 -0.0208  0.1492 -0.2962
16245TIP3    H170226   4.387   6.637  11.640 -0.1672 -0.0346  1.4881
16245TIP3    H270227   4.502   6.548  11.679  0.7121 -0.3327 -1.5248
16246TIP3   OH270228   2.716   6.715   2.179  0.4918  0.4132  0.0021
16246TIP3    H170229   2.681   6.776   2.115 -0.3223 -1.7101 -1.7239
16246TIP3    H270230   2.802   6.692   2.145  0.1773 -0.5077 -0.1986
16247TIP3   OH270231   0.451   5.044   6.448  0.0073 -0.1228  0.8069
16247TIP3    H170232   0.529   5.010   6.493  0.0921  0.5885  1.2209
16247TIP3    H270233   0.458   5.011   6.359  1.4434  0.9437  0.4888
16248TIP3   OH270234   5.401   4.720  11.235  0.3371  0.5143  0.1517
16248TIP3    H170235   5.393   4.816  11.233 -1.9000  0.3858 -2.0110
16248TIP3    H270236   5.334   4.692  11.296  0.6991  0.2722  0.4461
16249TIP3   OH270237   4.067   2.420   1.256 -0.6610  0.1240 -0.6459
16249TIP3    H170238   4.060   2.373   1.339  0.4403 -0.6689 -0.9810
16249TIP3    H270239   4.016   2.368   1.194 -0.8711  0.3166 -0.6375
16250TIP3   OH270240   6.052   2.304  15.313  0.5493  0.3159 -0.4491
16250TIP3    H170241   6.090   2.329  15.229 -0.1266  0.9925 -0.5673
16250TIP3    H270242   6.086   2.368  15.376 -1.1459  1.5955 -0.7436
16251TIP3   OH270243   2.787   3.044  12.540  0.3551  0.1020 -0.3188
16251TIP3    H170244   2.800   3.049  12.635  1.0161  0.8451 -0.4415
16251TIP3    H270245   2.716   2.980  12.529  0.5650 -0.3200  0.6473
16252TIP3   OH270246   0.825   3.911  16.836  0.6602  0.3936 -0.0422
16252TIP3    H170247   0.755   3.866  16.788  1.9123 -1.6083 -0.0915
16252TIP3    H270248   0.779   3.962  16.903 -0.9062  0.1241 -0.8729
16253TIP3   OH270249   0.298   3.220   5.869  0.5300  0.2508  0.4212
16253TIP3    H170250   0.280   3.232   5.962  2.2856  0.0007  0.8406
16253TIP3    H270251   0.334   3.131   5.863 -0.4408 -0.0862 -0.6486
16254TIP3   OH270252   4.616   3.990   4.429  0.0728 -0.4758 -0.0250
16254TIP3    H170253   4.659   3.941   4.359  1.6496  0.6565  0.0769
16254TIP3    H270254   4.664   3.967   4.508 -1.4518 -1.4529  0.6609
16255TIP3   OH270255   2.952   3.117   3.606 -0.6791 -0.4592  0.1290
16255TIP3    H170256   2.902   3.198   3.595 -0.3434 -0.2828 -0.1207
16255TIP3    H270257   2.922   3.082   3.689 -0.7908 -0.0470  0.2679
16256TIP3   OH270258   4.923   6.344  16.931  0.3387 -0.4122  0.3360
16256TIP3    H170259   4.954   6.425  16.972 -2.0118 -0.2402  1.9952
16256TIP3    H270260   5.001   6.289  16.924  1.5953  1.1867  1.1624
16257TIP3   OH270261   0.357   3.609  11.105 -0.0574 -0.1803  0.1371
16257TIP3    H170262   0.271   3.604  11.062 -0.1926  0.4273  0.3304
16257TIP3    H270263   0.340   3.652  11.189  0.6702  1.4631 -0.5111
16258TIP3   OH270264   6.811   1.317   0.781  0.1556  0.4821 -0.3928
16258TIP3    H170265   6.736   1.296   0.836  0.4329  0.6129  0.0454
16258TIP3    H270266   6.870   1.243   0.791  1.3104  1.5723  1.4663
16259TIP3   OH270267   5.239   2.378   6.149 -0.4019 -0.6862 -0.1773
16259TIP3    H170268   5.314   2.355   6.094  0.5177  0.0846  0.7216
16259TIP3    H270269   5.176   2.418   6.089  1.2544  1.6614 -0.4540
16260TIP3   OH270270   0.046   5.995  12.479 -0.2863  0.6318  0.2967
16260TIP3    H170271   0.062   5.915  12.530  0.6625 -0.5659 -1.7372
16260TIP3    H270272  -0.047   5.991  12.457  0.0184 -0.7047 -0.9279
16261TIP3   OH270273   5.748   5.827  14.483  0.0242 -0.1269 -0.0528
16261TIP3    H170274   5.777   5.914  14.455 -0.7236  0.3321  0.5724
16261TIP3    H270275   5.656   5.838  14.506 -0.0100 -1.0299  0.2827
16262TIP3   OH270276   3.645   5.049   2.287 -0.6967 -0.3553  0.2896
16262TIP3    H170277   3.686   5.094   2.361 -0.7229 -1.4926  1.0282
16262TIP3    H270278   3.551   5.060   2.302 -0.7118 -1.1165  0.7750
16263TIP3   OH270279   1.318   6.028  12.040  0.1578  0.2462 -0.5229
16263TIP3    H170280   1.378   5.976  12.093 -0.3193 -0.3952 -0.5965
16263TIP3    H270281   1.354   6.021  11.951 -1.0966 -1.8401 -0.9435
16264TIP3   OH270282   3.070   3.525  14.019 -0.4931 -0.2037  0.4530
16264TIP3    H170283   3.053   3.431  14.027  0.7130 -0.7235 -2.0199
16264TIP3    H270284   3.007   3.554  13.952  1.7487 -0.1821 -1.7759
16265TIP3   OH270285   2.398   5.241  11.353 -0.4818 -0.6444 -0.6140
16265TIP3    H170286   2.385   5.305  11.284 -0.6685  2.5545  2.1262
16265TIP3    H270287   2.312   5.201  11.367 -1.0581  0.6094 -0.5070
16266TIP3   OH270288   0.574   3.671  13.704  0.0961  0.1996  0.5972
16266TIP3    H170289   0.601   3.593  13.656  2.0752 -0.1028  2.0712
16266TIP3    H270290   0.600   3.744  13.646  1.8379 -0.1711  0.8332
16267TIP3   OH270291   1.455   4.466  14.619 -0.0938  0.2697  0.2241
16267TIP3    H170292   1.384   4.410  14.589 -0.1490 -0.4674  1.6516
16267TIP3    H270293   1.506   4.485  14.540 -1.2862 -0.0222 -0.6411
16268TIP3   OH270294   0.483   6.719   3.356  0.0281  0.1551  0.1602
16268TIP3    H170295   0.436   6.667   3.422  1.7513  0.6851  1.8816
16268TIP3    H270296   0.455   6.809   3.371  0.8173  0.3457  0.5455
16269TIP3   OH270297   1.852   3.590  12.250  0.3992  0.6171  0.1352
16269TIP3    H170298   1.918   3.645  12.207  1.1085 -0.4348 -0.1555
16269TIP3    H270299   1.899   3.548  12.322 -0.0616  0.1845  0.1878
16270TIP3   OH270300   2.157   2.840  12.276  0.4129  0.3390 -0.3287
16270TIP3    H170301   2.168   2.801  12.190  1.3443 -0.4325  0.1201
16270TIP3    H270302   2.209   2.919  12.274  4.0091 -1.7716  0.8057
16271TIP3   OH270303   2.444   5.586   2.297 -0.1962  0.4863 -0.3231
16271TIP3    H170304   2.520   5.599   2.241  1.2039  0.0458  1.3562
16271TIP3    H270305   2.452   5.495   2.327  0.9097  1.5147  2.9541
16272TIP3   OH270306   4.887   1.944   4.213  0.1277  0.0253  0.4010
16272TIP3    H170307   4.841   2.003   4.271  1.5703  0.6648  0.9360
16272TIP3    H270308   4.936   1.886   4.272  1.5852  0.6663 -0.1296
16273TIP3   OH270309   2.670   1.677   3.482  0.1594 -0.1567 -0.6457
16273TIP3    H170310   2.760   1.688   3.451  0.7282  0.6092  1.1424
16273TIP3    H270311   2.657   1.582   3.482  1.6826 -0.4209  0.8493
16274TIP3   OH270312   4.974   3.236  13.422 -0.4665 -0.0731  0.3395
16274TIP3    H170313   4.935   3.268  13.503 -2.0983  1.5034 -0.9695
16274TIP3    H270314   5.050   3.294  13.408 -0.6664  0.1903  0.3364
16275TIP3   OH270315   0.004   6.654  11.951  0.0097 -0.0790 -0.2205
16275TIP3    H170316  -0.018   6.581  11.894  1.2946  0.7891 -1.9375
16275TIP3    H270317   0.100   6.653  11.956  0.2905  2.7530 -2.2286
16276TIP3   OH270318   1.163   2.099  12.738  0.0709  0.4757 -0.6542
16276TIP3    H170319   1.133   2.172  12.793  0.0900  0.4754 -0.6434
16276TIP3    H270320   1.188   2.031  12.800  2.1296  1.2443 -0.5725
16277TIP3   OH270321   3.465   0.091   3.173 -0.1407 -0.4687 -0.2571
16277TIP3    H170322   3.389   0.098   3.231  0.2470 -2.1190  0.5408
16277TIP3    H270323   3.463   0.170   3.120 -2.7525 -0.7233 -0.6881
16278TIP3   OH270324   3.135   1.458  16.893 -0.1100  0.1291 -0.2653
16278TIP3    H170325   3.135   1.362  16.883 -1.2386  0.0895  0.0142
16278TIP3    H270326   3.226   1.480  16.912 -0.3719 -1.2969  3.3464
16279TIP3   OH270327   5.487   5.378  13.733 -0.0221  0.0307 -0.1906
16279TIP3    H170328   5.549   5.305  13.724 -1.8678 -1.6480 -0.0633
16279TIP3    H270329   5.457   5.372  13.824 -0.6248  0.5873 -0.3483
16280TIP3   OH270330   4.413   5.316   6.197  0.2087 -0.1515 -0.2153
16280TIP3    H170331   4.370   5.240   6.158 -0.7206  0.3223 -0.1325
16280TIP3    H270332   4.360   5.337   6.274  0.6590  0.3755 -0.0391
16281TIP3   OH270333   5.323   2.780  13.469  0.3992  0.2066 -0.3473
16281TIP3    H170334   5.248   2.761  13.412 -0.1287  0.2294  0.3150
16281TIP3    H270335   5.297   2.859  13.517 -0.5757 -1.5081  2.1993
16282TIP3   OH270336   3.865   3.395  10.826  0.3434  0.3626 -0.1641
16282TIP3    H170337   3.868   3.322  10.888 -2.7004  1.0216  0.9559
16282TIP3    H270338   3.808   3.459  10.868  0.3902  2.0644 -2.4985
16283TIP3   OH270339   5.350   1.762   2.448  0.2925 -0.2505  0.7994
16283TIP3    H170340   5.379   1.838   2.398  0.2631  0.1570  1.3957
16283TIP3    H270341   5.431   1.712   2.465  0.2695 -0.5264  0.1383
16284TIP3   OH270342   0.753   5.469   5.486 -0.2518 -0.0291 -0.2476
16284TIP3    H170343   0.817   5.525   5.529 -0.3478  0.9514 -1.3643
16284TIP3    H270344   0.678   5.468   5.546 -1.1654  2.9096 -1.2255
16285TIP3   OH270345   2.436   2.439   5.852 -0.4410  0.2388  0.0109
16285TIP3    H170346   2.478   2.440   5.938 -1.6624  1.3777  0.6292
16285TIP3    H270347   2.496   2.486   5.795  0.0117  0.1665  0.4222
16286TIP3   OH270348   6.105   5.067  14.582  0.6188 -0.1365  0.3404
16286TIP3    H170349   6.125   4.974  14.578 -1.6904 -0.6366 -2.0869
16286TIP3    H270350   6.146   5.104  14.503 -0.4236  0.4499  0.0575
16287TIP3   OH270351   5.625   2.024  17.029  0.2239  0.5384  0.3150
16287TIP3    H170352   5.540   2.022  16.985  0.0370  0.5429  0.6692
16287TIP3    H270353   5.619   1.956  17.096  0.2872  0.9263  0.7245
16288TIP3   OH270354   6.153   3.244   2.348 -0.6382  0.5071  0.3919
16288TIP3    H170355   6.228   3.218   2.401 -0.9138 -0.3795  0.3539
16288TIP3    H270356   6.149   3.178   2.278 -0.7486  1.2132 -0.2852
16289TIP3   OH270357   3.454   6.759   2.954 -0.6558 -0.6525 -0.3558
16289TIP3    H170358   3.428   6.804   3.035  0.3783 -0.0821 -0.3228
16289TIP3    H270359   3.471   6.830   2.892 -1.8648 -1.0896 -1.2347
16290TIP3   OH270360   6.748   1.933  11.058  1.0103  0.0814  0.1660
16290TIP3    H170361   6.679   1.879  11.097  0.8099 -1.6647 -2.3043
16290TIP3    H270362   6.707   1.969  10.979  2.1113  1.2792  0.1211
16291TIP3   OH270363   3.112   2.245  16.296  1.0108  0.0493  0.1841
16291TIP3    H170364   3.026   2.282  16.315  0.7507  1.0316 -2.4085
16291TIP3    H270365   3.096   2.151  16.286  0.2722  0.1824  0.0082
16292TIP3   OH270366   0.858   1.935  12.115  0.7633  0.4727  0.0465
16292TIP3    H170367   0.936   1.918  12.063  2.6188  1.6444  2.2551
16292TIP3    H270368   0.871   2.024  12.148 -1.2013  0.4404  1.0277
16293TIP3   OH270369   2.675   4.652  15.127 -0.1587 -0.0597 -0.8381
16293TIP3    H170370   2.653   4.743  15.147  0.4261 -0.0520 -0.1668
16293TIP3    H270371   2.723   4.621  15.204 -2.3329 -1.6666 -0.0368
16294TIP3   OH270372   4.397   0.289  13.450  0.0212  0.0637  0.2744
16294TIP3    H170373   4.315   0.331  13.424  0.0931  0.3998  0.5895
16294TIP3    H270374   4.392   0.202  13.410 -0.8823 -0.2463  1.0322
16295TIP3   OH270375   4.557   0.737   1.021 -0.1280 -0.1260  0.4737
16295TIP3    H170376   4.589   0.649   1.003  0.3037  0.3849 -1.5296
16295TIP3    H270377   4.602   0.792   0.958 -0.6134  1.4982  1.4954
16296TIP3   OH270378   5.222   6.799   3.270 -0.6657  0.3940 -1.3551
16296TIP3    H170379   5.184   6.823   3.186 -0.0316 -0.7199 -1.9929
16296TIP3    H270380   5.252   6.882   3.307 -1.6583  0.9994 -1.8577
16297TIP3   OH270381   5.298   3.803  11.787 -0.7641  0.8104 -0.2294
16297TIP3    H170382   5.253   3.747  11.724 -4.6777  1.0889  1.9512
16297TIP3    H270383   5.294   3.891  11.748 -3.7726  1.1044  0.4420
16298TIP3   OH270384   2.834   0.300  16.066  0.1679 -0.3430 -0.1166
16298TIP3    H170385   2.819   0.293  15.971 -0.7893 -1.4681  0.0921
16298TIP3    H270386   2.777   0.233  16.104  1.4290 -0.7482  1.1765
16299TIP3   OH270387   5.600   4.166  15.440 -0.0844  0.4599  0.7659
16299TIP3    H170388   5.645   4.105  15.381  2.2395  2.2209  0.5567
16299TIP3    H270389   5.632   4.142  15.527  0.2578  0.8890  0.7617
16300TIP3   OH270390   2.701   5.058   3.386 -0.2978  0.7442  0.3757
16300TIP3    H170391   2.728   4.990   3.324 -0.6552  1.1101 -0.1886
16300TIP3    H270392   2.771   5.059   3.452 -0.1161  0.0710  0.2046
16301TIP3   OH270393   2.804   3.331   5.061 -0.2349 -0.8386 -0.3139
16301TIP3    H170394   2.756   3.354   4.981 -0.5146 -4.5627 -1.3933
16301TIP3    H270395   2.892   3.308   5.031 -0.4008 -2.4659  0.3354
16302TIP3   OH270396   3.896   5.139  12.821  0.0948 -0.1793 -0.1058
16302TIP3    H170397   3.835   5.194  12.871  0.3053  0.2432 -0.3062
16302TIP3    H270398   3.977   5.142  12.873  0.1865 -0.0784 -0.2529
16303TIP3   OH270399   1.693   1.448   2.635 -0.0608  0.4346  0.4466
16303TIP3    H170400   1.600   1.427   2.647  0.2551 -0.2564  1.8297
16303TIP3    H270401   1.739   1.366   2.656  0.8026  0.1246 -2.2166
16304TIP3   OH270402   2.765   4.109  11.926  0.1120 -0.1492 -0.7376
16304TIP3    H170403   2.672   4.113  11.901  0.0394 -0.8499 -0.6072
16304TIP3    H270404   2.773   4.175  11.995 -0.1492  0.3415 -1.1642
16305TIP3   OH270405   5.454   0.525  14.259  0.0186 -0.1083 -0.1768
16305TIP3    H170406   5.360   0.526  14.242 -0.1284  0.6268  0.6453
16305TIP3    H270407   5.491   0.580  14.190 -0.3408  1.0218  0.5169
16306TIP3   OH270408   5.655   4.866  16.541 -0.3766 -0.0423 -0.0830
16306TIP3    H170409   5.636   4.905  16.627 -2.2912 -1.9194  0.4479
16306TIP3    H270410   5.572   4.875  16.493 -0.5988 -2.4769 -0.2601
16307TIP3   OH270411   0.268   4.425  11.351 -0.3557  0.2442  0.3532
16307TIP3    H170412   0.323   4.501  11.370  2.2877 -1.5018  0.1800
16307TIP3    H270413   0.289   4.402  11.261 -3.0821  0.7655 -0.5008
16308TIP3   OH270414   6.691   1.834  14.791  0.1644  0.5599  0.5488
16308TIP3    H170415   6.614   1.889  14.775  0.2377  0.4628 -0.1487
16308TIP3    H270416   6.746   1.886  14.850 -0.4915  0.5774  1.1563
16309TIP3   OH270417   6.165   1.113  14.452 -0.5346 -0.1407  0.2202
16309TIP3    H170418   6.140   1.198  14.488  1.4350  0.2918  0.6843
16309TIP3    H270419   6.206   1.133  14.368  1.0939 -0.4526  0.8952
16310TIP3   OH270420   3.131   4.056   5.394 -0.7281  0.1164  0.3382
16310TIP3    H170421   3.157   4.139   5.434 -1.9970  1.2015 -1.0153
16310TIP3    H270422   3.080   4.011   5.462 -0.6742  0.7755  0.8194
16311TIP3   OH270423   2.829   2.263  13.921  0.4474  0.5332  0.4397
16311TIP3    H170424   2.918   2.263  13.886  0.4806  1.5170  0.4975
16311TIP3    H270425   2.830   2.195  13.989  0.9468  0.0401 -0.0464
16312TIP3   OH270426   3.909   5.056   0.008 -0.2658 -0.0346  0.1412
16312TIP3    H170427   3.853   4.981   0.022  0.4170 -0.4418  0.7437
16312TIP3    H270428   3.911   5.067  -0.087 -0.6866 -0.5270  0.0751
16313TIP3   OH270429   5.637   6.645   4.024 -0.2775  0.1388 -0.2793
16313TIP3    H170430   5.720   6.666   3.980  0.8986 -2.0631  0.6948
16313TIP3    H270431   5.626   6.550   4.011 -1.5119 -0.0092  1.4264
16314TIP3   OH270432   4.316   0.693  14.028 -0.0222  0.3930 -0.2245
16314TIP3    H170433   4.301   0.773  13.977  1.5906  1.6272  1.1298
16314TIP3    H270434   4.246   0.634  14.000  1.2977  0.5096 -4.6926
16315TIP3   OH270435   6.408   1.554   5.931  0.2696  0.5776  0.0565
16315TIP3    H170436   6.324   1.507   5.928  0.8183 -0.4059 -0.6291
16315TIP3    H270437   6.450   1.522   6.010  1.3048 -1.3637 -1.1806
16316TIP3   OH270438   0.631   4.807   6.474  0.0571  0.3366 -0.2606
16316TIP3    H170439   0.708   4.843   6.429  0.0241  0.5530 -0.1392
16316TIP3    H270440   0.664   4.779   6.559  0.2077 -0.4404 -0.5633
16317TIP3   OH270441   0.968   1.874  13.048 -0.1962  0.1796 -0.1262
16317TIP3    H170442   0.981   1.915  13.134 -1.4481 -0.5364  0.4214
16317TIP3    H270443   0.905   1.931  13.004  0.6588  0.7024 -0.7004
16318TIP3   OH270444   3.818   6.470   1.548 -0.4764  0.0224 -0.0448
16318TIP3    H170445   3.807   6.532   1.476 -1.8502  1.7066  1.5426
16318TIP3    H270446   3.891   6.504   1.599  0.9126 -1.5129 -0.8801
16319TIP3   OH270447   4.454   5.278  15.581 -0.0361  0.8564 -0.2533
16319TIP3    H170448   4.379   5.230  15.547  0.6913  0.0641 -0.7776
16319TIP3    H270449   4.460   5.250  15.672 -0.3788  0.9268 -0.2071
16320TIP3   OH270450   1.162   4.018  13.141 -0.7182  0.1313 -0.3328
16320TIP3    H170451   1.173   4.024  13.046 -1.3509  2.2490 -0.3112
16320TIP3    H270452   1.189   3.928  13.162  0.3077 -0.0984 -2.3755
16321TIP3   OH270453   3.117   4.863   5.041  0.6211  0.4270  0.1527
16321TIP3    H170454   3.195   4.901   5.000  0.0097  0.3394 -1.1535
16321TIP3    H270455   3.088   4.929   5.104  2.2978  0.0471  1.4144
16322TIP3   OH270456   2.165   6.181   5.338  0.2269  0.1459  0.0777
16322TIP3    H170457   2.218   6.107   5.310 -1.6595 -0.8939 -0.9152
16322TIP3    H270458   2.188   6.252   5.278  1.4698  0.1547  0.5453
16323TIP3   OH270459   6.716   4.498   4.100 -0.0086 -0.2824 -0.5502
16323TIP3    H170460   6.709   4.570   4.038 -1.3683 -1.8273 -2.3082
16323TIP3    H270461   6.692   4.420   4.050 -3.0460 -1.4482  2.3135
16324TIP3   OH270462   0.465   0.249   0.416 -0.1977 -0.1246 -0.4484
16324TIP3    H170463   0.440   0.339   0.394 -0.7932 -0.6048 -1.8284
16324TIP3    H270464   0.434   0.238   0.506  0.3766  1.2066 -0.0501
16325TIP3   OH270465   2.808   0.554  15.450  0.3549  0.1079 -0.0232
16325TIP3    H170466   2.872   0.527  15.383  0.1596 -0.2723 -0.0589
16325TIP3    H270467   2.846   0.633  15.488  1.1339 -0.4351  0.3542
16326TIP3   OH270468   0.038   1.538   0.181  0.0727  0.2611  0.9436
16326TIP3    H170469   0.087   1.555   0.100 -0.4307  0.1845  0.6189
16326TIP3    H270470  -0.042   1.589   0.172 -0.5182 -0.6591  0.8752
16327TIP3   OH270471   2.581   0.063   1.729  0.2280 -0.5236  0.0019
16327TIP3    H170472   2.491   0.041   1.753 -0.0588 -0.9917 -1.4406
16327TIP3    H270473   2.622   0.086   1.812 -2.2324  3.5591  0.3520
16328TIP3   OH270474   0.034   3.869  12.890 -0.2677 -0.4008  0.1314
16328TIP3    H170475   0.120   3.828  12.888 -1.0401 -2.0578 -1.2378
16328TIP3    H270476  -0.009   3.831  12.967 -0.6012 -1.3933 -0.5318
16329TIP3   OH270477   4.217   3.328   1.673  0.5160  0.5122  0.1065
16329TIP3    H170478   4.178   3.331   1.761 -1.3605  0.2632 -0.6573
16329TIP3    H270479   4.141   3.325   1.614  1.6970 -2.4662 -1.4346
16330TIP3   OH270480   3.822   1.256  16.470 -0.1186 -0.0574 -0.5853
16330TIP3    H170481   3.915   1.240  16.457 -0.0253 -1.2747  1.2244
16330TIP3    H270482   3.788   1.271  16.382  1.5414 -0.9417 -1.4263
16331TIP3   OH270483   2.064   5.789  10.758  0.0329 -0.1220 -0.0290
16331TIP3    H170484   2.069   5.878  10.723  1.8940 -0.0627  0.2721
16331TIP3    H270485   2.139   5.744  10.719 -1.3201 -1.8324 -0.8032
16332TIP3   OH270486   4.480   3.800   2.180  0.0265 -0.0715  0.5530
16332TIP3    H170487   4.471   3.716   2.224 -0.8169 -0.2983 -0.0220
16332TIP3    H270488   4.467   3.779   2.087  0.1978  0.6355  0.3668
16333TIP3   OH270489   1.021   0.203  12.178  0.0057  0.3420  0.0765
16333TIP3    H170490   1.036   0.123  12.228 -1.0866 -0.6773 -1.1483
16333TIP3    H270491   1.092   0.203  12.113 -0.0018  0.3585  0.0687
16334TIP3   OH270492   3.097   3.116  14.985  0.0121  0.1578  0.2681
16334TIP3    H170493   3.163   3.067  14.937  0.1687 -0.7427  1.3681
16334TIP3    H270494   3.013   3.085  14.950  0.1352  0.0388  0.0828
16335TIP3   OH270495   3.124   1.063  16.486 -0.6773  0.1682 -0.0932
16335TIP3    H170496   3.093   1.098  16.402 -1.8487 -1.0750 -0.2077
16335TIP3    H270497   3.167   0.981  16.464  0.4105  0.5790  0.3812
16336TIP3   OH270498   0.771   3.137  13.235 -0.0655  0.3582  0.1908
16336TIP3    H170499   0.679   3.120  13.255 -0.2822  0.6216 -0.5368
16336TIP3    H270500   0.780   3.112  13.143  0.7313 -0.2028  0.4154
16337TIP3   OH270501   2.791   4.657  14.843 -0.8625 -0.6236  0.5363
16337TIP3    H170502   2.845   4.734  14.860 -0.7828 -0.6087  0.2249
16337TIP3    H270503   2.748   4.639  14.927 -4.0421  2.1310 -0.2983
16338TIP3   OH270504   4.072   0.566  12.337 -0.0749  0.4964 -0.0873
16338TIP3    H170505   4.128   0.519  12.399  0.9836 -0.6403 -1.8076
16338TIP3    H270506   4.101   0.657  12.343  3.1931 -0.2522 -2.0222
16339TIP3   OH270507   4.425   3.246  12.329 -0.0111  0.0004 -0.0219
16339TIP3    H170508   4.460   3.282  12.410  0.7217 -1.2570  0.2399
16339TIP3    H270509   4.339   3.210  12.353  0.6600 -1.3302  0.4609
16340TIP3   OH270510   3.255   4.332   2.896 -0.5392  0.3954  0.6006
16340TIP3    H170511   3.202   4.261   2.858  0.6377 -2.0378  3.1888
16340TIP3    H270512   3.263   4.310   2.988  0.9200  3.3451  1.3073
16341TIP3   OH270513   0.184   4.819  16.312  0.0684  0.5575 -0.1809
16341TIP3    H170514   0.122   4.842  16.381  0.3799  0.0622  0.2699
16341TIP3    H270515   0.130   4.785  16.241 -0.1014 -1.2835  0.7747
16342TIP3   OH270516   6.112   2.159  16.878 -0.5074  0.1292 -0.0253
16342TIP3    H170517   6.043   2.136  16.941  1.8252 -1.3407  2.2155
16342TIP3    H270518   6.150   2.240  16.913  1.7631 -1.4641  1.5008
16343TIP3   OH270519   2.420   4.999  17.028  0.0510 -0.0630 -0.3002
16343TIP3    H170520   2.344   4.956  17.066 -0.1272 -0.2413 -0.8448
16343TIP3    H270521   2.477   5.018  17.103  0.7007 -2.3495 -0.1311
16344TIP3   OH270522   5.425   3.410  10.933 -0.0714  0.3784 -0.0975
16344TIP3    H170523   5.425   3.431  10.840  0.8972  1.4272  0.1212
16344TIP3    H270524   5.346   3.453  10.967 -2.0998 -2.4437 -0.8939
16345TIP3   OH270525   6.755   0.820  14.237 -0.5519 -0.3609  0.4460
16345TIP3    H170526   6.787   0.732  14.255  2.0349  0.5577  0.6357
16345TIP3    H270527   6.760   0.866  14.321 -1.1663  0.2028  0.1885
16346TIP3   OH270528   1.656   3.554  13.287 -0.3670 -0.6576  0.4075
16346TIP3    H170529   1.622   3.471  13.256 -0.1914 -0.5712 -0.0340
16346TIP3    H270530   1.747   3.536  13.311 -0.0852 -0.4299 -0.4399
16347TIP3   OH270531   2.384   2.559  15.226 -0.0468  0.3530  0.2815
16347TIP3    H170532   2.303   2.600  15.197 -0.8819  0.3848  2.5177
16347TIP3    H270533   2.404   2.495  15.157 -2.1617  0.1018 -0.1764
16348TIP3   OH270534   4.395   4.750  14.561  0.1515  0.1884  0.1048
16348TIP3    H170535   4.346   4.668  14.561  1.5748 -0.6930  0.1238
16348TIP3    H270536   4.399   4.776  14.653  0.8168 -0.4297  0.2578
16349TIP3   OH270537   1.701   4.364  13.492  0.6070  0.7136 -0.6291
16349TIP3    H170538   1.619   4.382  13.538  0.2360 -0.0532 -0.9673
16349TIP3    H270539   1.678   4.370  13.399  0.2089 -2.3086 -0.8108
16350TIP3   OH270540   2.252   5.607   4.819 -0.0613  0.1936  0.5422
16350TIP3    H170541   2.189   5.536   4.824 -1.4990  1.4667  1.2528
16350TIP3    H270542   2.236   5.647   4.734  1.7107 -1.1269 -0.4846
16351TIP3   OH270543   3.331   5.043   3.031 -0.2785 -0.5201 -0.4156
16351TIP3    H170544   3.412   5.001   3.003  0.6158 -0.0492  1.3549
16351TIP3    H270545   3.357   5.132   3.053 -0.9504 -0.7758  1.6015
16352TIP3   OH270546   3.737   6.453   5.124  0.0097  0.1488  0.8390
16352TIP3    H170547   3.780   6.442   5.039  0.0699 -0.3800  0.9360
16352TIP3    H270548   3.809   6.470   5.185  0.1256 -1.0761  1.0619
16353TIP3   OH270549   0.596   1.353   4.819  0.0543  1.3430 -0.6598
16353TIP3    H170550   0.525   1.417   4.826 -0.9346  0.2639 -0.6328
16353TIP3    H270551   0.587   1.298   4.896  1.4202  1.6514 -0.2441
16354TIP3   OH270552   3.592   5.055  14.877 -0.5311  0.6342 -0.5398
16354TIP3    H170553   3.623   4.990  14.814  1.2441  1.4503 -0.5860
16354TIP3    H270554   3.509   5.086  14.842 -0.7089 -0.5738 -1.2432
16355TIP3   OH270555   3.331   2.694   4.593  0.3171 -0.2215  0.0368
16355TIP3    H170556   3.295   2.607   4.575 -0.3841 -0.0164  0.3849
16355TIP3    H270557   3.254   2.750   4.600  0.7956  0.5926 -1.0019
16356TIP3   OH270558   6.846   3.554   0.092 -0.4340  0.1000 -0.2654
16356TIP3    H170559   6.869   3.483   0.153  2.2974  0.0982 -1.1795
16356TIP3    H270560   6.866   3.634   0.140 -2.9859  0.3458  0.5553
16357TIP3   OH270561   1.408   1.327  11.505  0.4256  0.2140 -0.4366
16357TIP3    H170562   1.330   1.379  11.484  0.0362 -0.2329 -0.1317
16357TIP3    H270563   1.425   1.346  11.597 -0.3410 -0.9730 -0.0272
16358TIP3   OH270564   3.749   4.654   2.387 -0.6519  0.4734  0.4990
16358TIP3    H170565   3.705   4.632   2.470 -1.3448  1.0807  0.2950
16358TIP3    H270566   3.680   4.652   2.322 -0.2555  0.8193  0.0641
16359TIP3   OH270567   4.966   0.426   3.460  0.2312  0.2770 -0.2915
16359TIP3    H170568   4.931   0.505   3.418  1.7858  1.0093 -0.2877
16359TIP3    H270569   5.057   0.447   3.477 -0.0268 -0.4415  2.4002
16360TIP3   OH270570   6.673   2.346   1.016  0.1205  0.0638 -0.1372
16360TIP3    H170571   6.680   2.291   0.939  0.9570  1.2600 -0.9543
16360TIP3    H270572   6.705   2.291   1.088  0.0183 -0.8214 -0.7550
16361TIP3   OH270573   4.212   5.316   1.846 -0.1481  0.0870  0.2860
16361TIP3    H170574   4.235   5.223   1.842  0.2084  0.1906 -0.2127
16361TIP3    H270575   4.295   5.362   1.834 -0.2047  0.4808  1.2771
16362TIP3   OH270576   2.451   0.799  13.331 -0.4618 -0.3962 -0.6913
16362TIP3    H170577   2.360   0.797  13.300 -0.2162 -0.6772 -1.3892
16362TIP3    H270578   2.468   0.709  13.360 -0.1260 -0.5581 -1.3758
16363TIP3   OH270579   1.517   0.365   5.395 -0.1050  0.1949  0.2638
16363TIP3    H170580   1.528   0.271   5.378  0.5461 -0.0650  1.9554
16363TIP3    H270581   1.597   0.391   5.440 -1.1317  1.1071  1.6162
16364TIP3   OH270582   4.809   4.236   2.256  0.5541 -0.3937 -0.7021
16364TIP3    H170583   4.787   4.177   2.184 -0.1067  0.8311 -1.5398
16364TIP3    H270584   4.753   4.312   2.242  2.4263  1.0674 -0.5142
16365TIP3   OH270585   5.650   3.398   2.060 -0.3671 -0.1486 -0.2475
16365TIP3    H170586   5.586   3.449   2.010 -1.0348 -1.1845 -0.4766
16365TIP3    H270587   5.717   3.462   2.085  0.0925  0.3972 -2.6101
16366TIP3   OH270588   4.816   6.007   4.618 -0.4182 -0.1871  0.1851
16366TIP3    H170589   4.723   5.982   4.615  0.0489 -2.1355  0.1773
16366TIP3    H270590   4.849   5.962   4.696  0.6748 -0.1475 -0.2421
16367TIP3   OH270591   4.778   2.011  14.481  0.2819  0.4928 -0.1414
16367TIP3    H170592   4.819   1.956  14.414 -0.0350  1.3584 -1.0901
16367TIP3    H270593   4.840   2.084  14.492 -0.2294  0.9709 -0.3868
16368TIP3   OH270594   1.886   6.660   1.592  0.7076  0.0961  0.5414
16368TIP3    H170595   1.911   6.665   1.500  0.6295  0.7617  0.5469
16368TIP3    H270596   1.852   6.571   1.604 -2.2971  0.9023 -0.8818
16369TIP3   OH270597   0.730   0.358  15.051 -0.0003  0.5405  0.3420
16369TIP3    H170598   0.705   0.302  15.125  1.0355 -0.8954 -0.3473
16369TIP3    H270599   0.702   0.310  14.973 -0.6779  1.8290 -0.2446
16370TIP3   OH270600   1.122   5.215  13.345  0.1557 -0.1866  0.3370
16370TIP3    H170601   1.067   5.215  13.424  0.1956 -1.2412  0.3732
16370TIP3    H270602   1.168   5.299  13.349 -0.0837 -0.0842  1.2682
16371TIP3   OH270603   4.207   6.347   2.013  0.1693 -0.4360 -0.0722
16371TIP3    H170604   4.226   6.380   2.101  0.5821  0.1551 -0.3742
16371TIP3    H270605   4.249   6.260   2.011  0.2860 -0.3903  0.2634
16372TIP3   OH270606   3.416   2.801   6.156 -0.0685 -0.1514 -0.1666
16372TIP3    H170607   3.354   2.798   6.229 -0.8417  0.1711 -0.8022
16372TIP3    H270608   3.497   2.766   6.193 -0.0680  1.1966  1.2089
16373TIP3   OH270609   6.417   0.724   5.659 -0.0040  0.0755 -0.3761
16373TIP3    H170610   6.416   0.639   5.704  0.5065  1.2463  1.9782
16373TIP3    H270611   6.482   0.713   5.590 -1.4834 -2.0775 -1.5485
16374TIP3   OH270612   3.244   4.883   2.802 -0.0778 -1.0136  0.1454
16374TIP3    H170613   3.222   4.941   2.729  1.0845 -0.6647  0.0511
16374TIP3    H270614   3.264   4.942   2.875 -0.3081 -1.3386  0.4765
16375TIP3   OH270615   0.660   5.265   1.282  0.3603  0.1574  0.5782
16375TIP3    H170616   0.708   5.341   1.252  0.0561  0.4296  0.7770
16375TIP3    H270617   0.585   5.300   1.330  1.1273 -0.2824  2.1426
16376TIP3   OH270618   0.116   3.040  11.983 -0.2189  0.6497 -0.3671
16376TIP3    H170619   0.091   3.025  12.074 -1.0928  1.2716 -0.4921
16376TIP3    H270620   0.050   3.100  11.950  0.3602  0.7988 -1.2836
16377TIP3   OH270621   4.187   0.440  11.181 -0.9086  0.8538 -0.2280
16377TIP3    H170622   4.146   0.357  11.203  0.2490  0.1066 -0.8221
16377TIP3    H270623   4.272   0.438  11.225 -0.5389  1.3747 -0.9014
16378TIP3   OH270624   5.183   6.762  15.050  0.1170 -0.2768  0.1284
16378TIP3    H170625   5.223   6.849  15.044 -1.4204  0.3639 -1.3564
16378TIP3    H270626   5.103   6.776  15.100  0.1378 -0.9577  0.3605
16379TIP3   OH270627   0.615   5.224  12.711 -0.3675 -0.1228  0.0704
16379TIP3    H170628   0.588   5.255  12.797 -0.7604 -1.5873  0.4972
16379TIP3    H270629   0.677   5.291  12.680 -0.5668  0.6529  1.2794
16380TIP3   OH270630   1.091   4.020  12.233 -1.0393  0.2853 -0.2074
16380TIP3    H170631   1.156   3.957  12.265  0.3865  1.7270 -0.1572
16380TIP3    H270632   1.013   4.001  12.286 -0.0289 -0.1436  1.2081
16381TIP3   OH270633   4.006   0.896  15.512 -0.6477  0.0540  0.0734
16381TIP3    H170634   4.002   0.987  15.482 -0.8293 -0.1926 -0.6496
16381TIP3    H270635   3.995   0.844  15.433  0.4184 -0.6076  0.3457
16382TIP3   OH270636   2.415   3.951  15.063  0.1320 -0.3657 -0.2399
16382TIP3    H170637   2.448   3.994  14.984  0.1779  1.0627  0.5122
16382TIP3    H270638   2.492   3.914  15.105  0.4269  0.6894  0.1792
16383TIP3   OH270639   1.524   0.603  15.823  0.0191  0.4346 -0.2656
16383TIP3    H170640   1.564   0.642  15.745  0.8122 -1.0123 -0.6313
16383TIP3    H270641   1.576   0.525  15.840 -1.8527 -0.8230  0.0341
16384TIP3   OH270642   5.632   4.381  11.608 -0.2138 -0.1686  0.0806
16384TIP3    H170643   5.563   4.321  11.578 -0.7133 -0.4599  1.7347
16384TIP3    H270644   5.612   4.463  11.562  1.9956 -1.7441 -4.3041
16385TIP3   OH270645   5.139   0.737   3.723 -0.6270  0.9866  0.0151
16385TIP3    H170646   5.097   0.779   3.798  0.5261  2.5988 -0.1826
16385TIP3    H270647   5.213   0.689   3.760 -1.2658  0.0471  0.1101
16386TIP3   OH270648   2.306   0.088  12.238 -0.1131  0.3168 -0.2723
16386TIP3    H170649   2.271   0.104  12.151  1.8141  1.9108 -0.8279
16386TIP3    H270650   2.372   0.156  12.250 -0.1677  0.0056  2.3556
16387TIP3   OH270651   5.264   5.669   5.652 -0.1892 -0.2950 -0.4675
16387TIP3    H170652   5.358   5.660   5.663 -0.2043 -0.7847 -0.7253
16387TIP3    H270653   5.233   5.704   5.735  0.4795  1.8826 -1.0565
16388TIP3   OH270654   0.419   0.813  16.264 -0.2901  0.0271  0.3404
16388TIP3    H170655   0.467   0.830  16.184  0.5026  0.2900  0.8611
16388TIP3    H270656   0.473   0.749  16.312 -0.1638  0.7380  1.1808
16389TIP3   OH270657   4.635   3.760  12.192 -0.0634  0.8942  0.5500
16389TIP3    H170658   4.668   3.676  12.225 -1.4081  0.8591  1.9360
16389TIP3    H270659   4.649   3.756  12.097  1.5515 -0.1208  0.7908
16390TIP3   OH270660   5.127   5.196  10.655  0.1607  0.4458 -0.3252
16390TIP3    H170661   5.210   5.231  10.688  0.2174 -0.3941  0.4562
16390TIP3    H270662   5.080   5.168  10.734 -0.7248  0.5862 -0.7868
16391TIP3   OH270663   2.209   5.010   6.648 -0.2400  0.1260  0.5966
16391TIP3    H170664   2.129   5.012   6.596 -0.2926  0.3621  0.6848
16391TIP3    H270665   2.209   5.093   6.695 -1.0776 -0.7625  2.2761
16392TIP3   OH270666   0.296   1.905  16.948  0.5081  0.0009 -0.1290
16392TIP3    H170667   0.255   1.974  17.000  0.5079  0.5176 -0.7865
16392TIP3    H270668   0.356   1.861  17.008 -1.2291 -0.9987  0.9536
16393TIP3   OH270669   2.314   3.196  15.114 -0.4032  0.0182 -0.4372
16393TIP3    H170670   2.313   3.155  15.200  1.9672 -0.2720 -0.4868
16393TIP3    H270671   2.245   3.263  15.118 -0.6373 -0.2897  1.5023
16394TIP3   OH270672   4.304   5.938   1.325  0.0109 -0.3631 -0.6835
16394TIP3    H170673   4.326   5.865   1.383  1.4507  1.0664  0.6736
16394TIP3    H270674   4.260   5.897   1.251  2.4703 -2.8691 -0.9243
16395TIP3   OH270675   2.993   4.323   5.503 -0.0790 -0.3608  0.3963
16395TIP3    H170676   2.901   4.316   5.477 -0.3621  0.2913  1.1605
16395TIP3    H270677   3.000   4.268   5.581  0.1294 -0.2631  0.4473
16396TIP3   OH270678   3.264   1.562   1.885  0.5254 -0.0205 -0.0334
16396TIP3    H170679   3.341   1.533   1.837  0.5253  0.9764 -0.6620
16396TIP3    H270680   3.271   1.657   1.887 -1.3907  0.2063 -1.3208
16397TIP3   OH270681   1.295   5.299   2.610 -0.2748 -0.0643  0.1866
16397TIP3    H170682   1.341   5.221   2.578  0.8627  0.6699 -0.0441
16397TIP3    H270683   1.238   5.266   2.679 -0.4981 -1.2319 -0.5241
16398TIP3   OH270684   4.313   0.476   3.562 -0.5336 -0.3460 -0.0981
16398TIP3    H170685   4.326   0.469   3.657  0.0474 -0.1924 -0.1588
16398TIP3    H270686   4.332   0.389   3.529  3.3764  0.4621 -0.4938
16399TIP3   OH270687   0.497   1.921  14.463  0.0156  0.5675  0.2005
16399TIP3    H170688   0.412   1.914  14.507 -0.8908  0.6892 -1.4342
16399TIP3    H270689   0.485   1.994  14.402  0.4594 -0.9860 -1.8136
16400TIP3   OH270690   6.331   4.726   6.078  0.2816 -0.1393  0.0531
16400TIP3    H170691   6.352   4.724   6.172 -0.0202 -0.6944  0.1103
16400TIP3    H270692   6.414   4.748   6.036  0.1522  1.3924  0.5241
16401TIP3   OH270693   3.618   0.896  11.317  0.6826 -0.1002 -0.0076
16401TIP3    H170694   3.545   0.836  11.328  0.5093  0.2878  1.0568
16401TIP3    H270695   3.643   0.887  11.225 -1.6640  0.8231 -0.8022
16402TIP3   OH270696   1.926   5.231  14.675  0.2093  0.2082 -0.4504
16402TIP3    H170697   1.954   5.319  14.704 -0.1415 -0.6233  2.8218
16402TIP3    H270698   1.973   5.171  14.733 -1.5034 -1.6539 -0.8905
16403TIP3   OH270699   6.238   5.008   0.918  0.0398  0.1373 -0.0828
16403TIP3    H170700   6.224   5.028   0.826 -2.2562  0.8617  0.3619
16403TIP3    H270701   6.163   5.046   0.963  2.1911  1.8712  2.4057
16404TIP3   OH270702   4.239   3.130   5.713  0.0285  0.3618  0.0983
16404TIP3    H170703   4.164   3.120   5.655 -0.1147  1.0051  0.1649
16404TIP3    H270704   4.275   3.042   5.721 -0.9946 -0.0312  0.4454
16405TIP3   OH270705   2.856   3.121  15.745  0.1831  0.0666 -0.0826
16405TIP3    H170706   2.849   3.025  15.750  1.4103 -0.0449 -0.1073
16405TIP3    H270707   2.940   3.141  15.787 -0.3929  1.2056  0.5483
16406TIP3   OH270708   5.756   2.486   5.766 -0.0496  0.0900 -0.2001
16406TIP3    H170709   5.764   2.547   5.693 -0.9629  0.2310 -0.1935
16406TIP3    H270710   5.839   2.494   5.813  0.3348  0.3925 -0.9114
16407TIP3   OH270711   1.851   3.855  14.769  0.0575 -0.1539  1.2280
16407TIP3    H170712   1.878   3.764  14.763  0.0217 -0.1877  1.5751
16407TIP3    H270713   1.791   3.858  14.843 -0.7457 -0.0448  0.5824
16408TIP3   OH270714   0.016   2.279  10.724  0.4470  1.3030 -0.2005
16408TIP3    H170715   0.106   2.309  10.709  1.7551 -1.9252  0.3191
16408TIP3    H270716  -0.028   2.354  10.763  2.7262  3.1996 -1.0117
16409TIP3   OH270717   3.289   4.812  14.633 -0.1625 -0.4496  0.4970
16409TIP3    H170718   3.212   4.851  14.594  0.3694  0.3223  0.2058
16409TIP3    H270719   3.329   4.761  14.563  0.5990  0.6524  0.1030
16410TIP3   OH270720   3.428   2.442  10.985  0.3750  0.3586  0.3001
16410TIP3    H170721   3.440   2.448  10.890  1.3361 -0.2905  0.3650
16410TIP3    H270722   3.409   2.531  11.013 -0.5923  0.4497 -0.5786
16411TIP3   OH270723   6.018   3.162   5.566  0.2478 -0.1138 -0.2024
16411TIP3    H170724   6.046   3.071   5.556 -0.0363 -0.0376 -2.0478
16411TIP3    H270725   5.923   3.159   5.558  0.3322  0.4753 -1.6299
16412TIP3   OH270726   0.032   0.680  15.076 -0.1720 -0.5585  0.4922
16412TIP3    H170727   0.049   0.770  15.102 -0.0940 -0.4420  0.0488
16412TIP3    H270728  -0.055   0.681  15.037  0.0157 -0.5766  0.0572
16413TIP3   OH270729   3.582   0.166   2.614 -0.0106  0.1083 -0.1470
16413TIP3    H170730   3.672   0.186   2.588 -0.0279 -1.4962 -1.5720
16413TIP3    H270731   3.529   0.229   2.565  0.1837 -0.7110 -1.4473
16414TIP3   OH270732   3.226   5.501  15.484 -0.1106  0.0202 -0.3454
16414TIP3    H170733   3.280   5.510  15.406 -0.6232  1.1117 -0.5923
16414TIP3    H270734   3.287   5.510  15.557  0.0308  1.4579 -0.6192
16415TIP3   OH270735   4.854   4.871   3.837 -0.0748 -0.1395 -0.2115
16415TIP3    H170736   4.861   4.938   3.905 -0.3754  1.2059 -1.4669
16415TIP3    H270737   4.762   4.844   3.840 -0.0880 -0.0822 -0.0995
16416TIP3   OH270738   2.209   3.398  14.380  0.0194 -0.0690  0.0626
16416TIP3    H170739   2.227   3.478  14.330  0.1664  0.8594  1.5392
16416TIP3    H270740   2.240   3.327  14.324 -0.9736  0.8181 -1.6969
16417TIP3   OH270741   1.898   1.203   4.868 -0.2181 -0.6652 -0.2247
16417TIP3    H170742   1.810   1.242   4.868  0.4031  0.8538 -1.4318
16417TIP3    H270743   1.896   1.139   4.797 -1.0225 -2.3774  1.2837
16418TIP3   OH270744   0.679   1.283   2.345  0.1539 -0.7007  0.8710
16418TIP3    H170745   0.773   1.278   2.329  0.4413  1.3189  1.6852
16418TIP3    H270746   0.659   1.201   2.392  1.8754 -0.3711  2.3315
16419TIP3   OH270747   5.048   2.277   3.592  0.6269 -0.0035  0.2544
16419TIP3    H170748   5.078   2.303   3.679  2.2734 -0.4520 -0.1439
16419TIP3    H270749   5.059   2.356   3.539  0.5705 -0.0088  0.2352
16420TIP3   OH270750   6.341   4.058  15.445  0.2635 -0.1476 -0.6338
16420TIP3    H170751   6.321   3.970  15.478 -0.0266  0.1237 -0.0782
16420TIP3    H270752   6.435   4.058  15.430  0.2711 -0.5394 -0.5913
16421TIP3   OH270753   2.913   1.713  13.177 -0.1580  0.4101 -0.0886
16421TIP3    H170754   2.951   1.649  13.236 -0.2936  1.4048  1.1125
16421TIP3    H270755   2.827   1.678  13.155 -0.3676  0.3319  0.8259
16422TIP3   OH270756   0.948   2.998   3.372  0.2554  0.4780 -0.3325
16422TIP3    H170757   1.034   2.962   3.390 -0.7926 -2.7163 -1.1359
16422TIP3    H270758   0.957   3.038   3.285  0.5492 -1.3796 -1.1951
16423TIP3   OH270759   4.383   5.658  13.831  0.1456  0.7484 -0.0747
16423TIP3    H170760   4.424   5.579  13.794 -0.2829  1.6215 -2.5774
16423TIP3    H270761   4.429   5.730  13.789 -0.4520  1.8475  1.0929
16424TIP3   OH270762   6.347   2.980   5.081  0.4817  0.3131  0.3621
16424TIP3    H170763   6.263   2.990   5.125  1.2151  1.5791  1.5535
16424TIP3    H270764   6.378   2.893   5.107 -1.0219 -0.7491 -1.1831
16425TIP3   OH270765   2.874   3.174  13.354 -0.3944 -0.3538 -0.3449
16425TIP3    H170766   2.942   3.170  13.421  0.0335  1.2093 -0.6333
16425TIP3    H270767   2.919   3.206  13.276 -1.4824  0.9362 -0.4804
16426TIP3   OH270768   3.600   6.741  10.625 -0.2601  0.7837 -0.0148
16426TIP3    H170769   3.653   6.710  10.552 -0.8049 -1.5685  0.5117
16426TIP3    H270770   3.660   6.794  10.678  0.5940  1.0838 -1.2442
16427TIP3   OH270771   5.238   4.946  15.507 -0.2292  0.0718 -0.4387
16427TIP3    H170772   5.317   4.927  15.558  0.9473 -0.0640 -2.2056
16427TIP3    H270773   5.202   5.025  15.546 -0.1286 -0.7200  1.3748
16428TIP3   OH270774   0.887   0.148   1.539  0.0449 -0.1323 -0.1834
16428TIP3    H170775   0.890   0.076   1.602  1.5185 -0.1199 -0.1853
16428TIP3    H270776   0.971   0.142   1.493  1.2052  2.8485  1.2785
16429TIP3   OH270777   2.295   2.977  11.615 -0.3062 -0.4809  0.3446
16429TIP3    H170778   2.305   3.017  11.528 -0.9444  0.5530  0.7255
16429TIP3    H270779   2.351   3.030  11.672 -1.6663  0.3092  0.9825
16430TIP3   OH270780   6.009   5.622  16.854 -0.1718  0.4022 -0.0187
16430TIP3    H170781   5.989   5.631  16.948  0.3281 -0.2518  0.1567
16430TIP3    H270782   6.084   5.680  16.841 -2.0368  2.8415 -0.6722
16431TIP3   OH270783   5.037   3.154   4.912  0.4470  0.0277 -0.2554
16431TIP3    H170784   4.970   3.101   4.871  1.2779 -0.5172 -0.9449
16431TIP3    H270785   5.024   3.242   4.877 -0.7193  0.2319  0.6350
16432TIP3   OH270786   5.490   1.501  15.514  0.5996 -0.0032  0.2814
16432TIP3    H170787   5.545   1.423  15.508  0.4124 -0.2280  1.3753
16432TIP3    H270788   5.548   1.573  15.490  0.4482 -0.5616 -2.0700
16433TIP3   OH270789   5.099   6.791   5.683  0.3863 -0.3392  0.3294
16433TIP3    H170790   5.058   6.820   5.765  2.0046  0.1570  1.0167
16433TIP3    H270791   5.101   6.869   5.628 -1.1060 -0.7792 -0.3967
16434TIP3   OH270792   3.101   2.794   4.915  0.2327  0.3201  0.1815
16434TIP3    H170793   3.195   2.781   4.900 -0.2949 -1.5580 -1.9826
16434TIP3    H270794   3.086   2.886   4.890  1.4991  0.7271  0.8033
16435TIP3   OH270795   3.035   2.095  14.096 -0.8300  0.1071 -0.4104
16435TIP3    H170796   3.042   2.070  14.004 -0.6889 -2.7733  0.2826
16435TIP3    H270797   2.941   2.101  14.112 -0.8985 -0.8942 -0.4019
16436TIP3   OH270798   3.043   5.565  13.003 -0.1674  0.3941 -0.2736
16436TIP3    H170799   3.067   5.493  13.061  0.3340  1.3173  0.6890
16436TIP3    H270800   2.947   5.564  13.001 -0.2601  1.0960  1.5889
16437TIP3   OH270801   1.984   5.733  12.741 -0.4541  0.2023 -0.5371
16437TIP3    H170802   1.946   5.735  12.829 -1.0570 -0.7334 -0.7665
16437TIP3    H270803   2.042   5.657  12.742  0.4892  0.9046 -0.5791
16438TIP3   OH270804   1.191   0.660  10.559 -0.2143  1.1752  0.1914
16438TIP3    H170805   1.128   0.630  10.494 -0.3668  0.5876  0.6004
16438TIP3    H270806   1.269   0.683  10.508  0.0298 -0.2436 -0.1268
16439TIP3   OH270807   5.286   1.962   0.053  0.0098 -0.1729 -0.0557
16439TIP3    H170808   5.310   1.888   0.108 -1.6912 -1.0671 -0.4338
16439TIP3    H270809   5.201   1.937   0.016 -0.8699  2.1906  0.2059
16440TIP3   OH270810   1.357   5.581   1.348 -0.4555  0.0314 -0.2909
16440TIP3    H170811   1.363   5.619   1.261  0.5622  0.2637 -0.1314
16440TIP3    H270812   1.333   5.654   1.405 -0.9404 -0.0826 -0.3477
16441TIP3   OH270813   3.943   3.261  13.009  0.2537 -0.1501  0.3763
16441TIP3    H170814   4.012   3.327  13.010  1.3172 -1.2204  0.2643
16441TIP3    H270815   3.941   3.227  13.099  0.1409 -0.3868  0.2859
16442TIP3   OH270816   0.295   6.111   4.630 -0.2630  0.0193  1.0334
16442TIP3    H170817   0.278   6.066   4.548  3.0030 -0.5796  0.5781
16442TIP3    H270818   0.225   6.176   4.636 -2.3744 -1.9324 -0.6234
16443TIP3   OH270819   0.454   4.298   0.024 -0.0368 -0.3568  0.7840
16443TIP3    H170820   0.403   4.296  -0.056 -0.6954 -0.0323  1.1868
16443TIP3    H270821   0.518   4.368   0.010 -0.3106 -0.1345  0.6370
16444TIP3   OH270822   2.805   1.126  13.505  0.0499 -0.6563 -0.5816
16444TIP3    H170823   2.726   1.071  13.507  0.4719 -1.2521  1.3015
16444TIP3    H270824   2.776   1.210  13.541  0.1189 -0.6764 -0.4772
16445TIP3   OH270825   2.704   1.908  13.898 -0.0393 -0.1532  0.0572
16445TIP3    H170826   2.794   1.899  13.866 -0.2587 -2.5899 -0.0842
16445TIP3    H270827   2.711   1.895  13.992 -0.3618 -1.8843 -0.1242
16446TIP3   OH270828   3.863   4.917  14.613  0.0637  0.4766 -0.0830
16446TIP3    H170829   3.770   4.908  14.633  0.3069  1.4816  1.6089
16446TIP3    H270830   3.865   4.948  14.522 -1.1351 -1.9576 -1.0542
16447TIP3   OH270831   3.088   6.433   4.638  0.6288  0.4773  0.4205
16447TIP3    H170832   3.019   6.494   4.662  3.1246  3.1302  1.4279
16447TIP3    H270833   3.095   6.440   4.543 -0.5508  0.0336  0.2844
16448TIP3   OH270834   3.356   2.701  11.071 -0.5652  0.1323  0.7607
16448TIP3    H170835   3.337   2.772  11.009  0.1424 -1.2169 -1.0819
16448TIP3    H270836   3.287   2.708  11.137 -3.0304 -0.0272 -1.6358
16449TIP3   OH270837   2.066   5.091   2.806 -0.1191 -0.1230 -0.1767
16449TIP3    H170838   2.067   5.169   2.860  0.2309 -0.2612  0.0202
16449TIP3    H270839   2.079   5.124   2.716  0.9891 -0.0157 -0.0013
16450TIP3   OH270840   1.561   1.578  12.618  0.0461 -0.3794  0.1218
16450TIP3    H170841   1.639   1.541  12.660  0.1090  0.0316  0.3734
16450TIP3    H270842   1.529   1.508  12.561  1.1800 -0.2050 -0.7562
16451TIP3   OH270843   2.810   1.593  15.689 -0.1919 -0.3371  0.4335
16451TIP3    H170844   2.717   1.586  15.711 -0.4474  2.0419  0.3245
16451TIP3    H270845   2.856   1.564  15.768 -1.0246 -0.7868  0.7608
16452TIP3   OH270846   2.937   1.748   2.717  0.5001 -0.0090 -0.3193
16452TIP3    H170847   2.850   1.716   2.740  0.0076  0.8155 -0.9892
16452TIP3    H270848   2.987   1.670   2.695  0.0576 -0.5231  0.4821
16453TIP3   OH270849   6.685   3.782   5.906  0.0408 -0.5209  0.0164
16453TIP3    H170850   6.668   3.688   5.896  1.4618 -0.8115  0.0262
16453TIP3    H270851   6.713   3.792   5.997  0.5923 -0.2233 -0.1775
16454TIP3   OH270852   2.569   0.323  14.856 -0.0355 -0.1581 -0.1119
16454TIP3    H170853   2.475   0.323  14.872 -0.2169 -0.9590 -1.0620
16454TIP3    H270854   2.609   0.315  14.943 -0.9195 -2.9542  0.1331
16455TIP3   OH270855   0.996   1.370   5.935  0.4402 -0.6758 -0.6431
16455TIP3    H170856   0.955   1.445   5.892  0.4953 -1.1951 -1.6380
16455TIP3    H270857   1.088   1.374   5.906  0.4625 -1.0732 -0.6357
16456TIP3   OH270858   0.546   2.221  13.883 -0.6591 -0.2407 -0.0959
16456TIP3    H170859   0.462   2.210  13.838 -1.6383 -0.3019  1.6469
16456TIP3    H270860   0.538   2.305  13.928  1.5490  1.4225 -2.5060
16457TIP3   OH270861   2.328   3.313  12.912 -0.4085  0.1783  0.2710
16457TIP3    H170862   2.259   3.369  12.878  0.1469  1.2244  0.8250
16457TIP3    H270863   2.303   3.297  13.003  1.1585  2.4247  1.1814
16458TIP3   OH270864   5.201   6.173  17.016  0.0623  0.1173 -0.2337
16458TIP3    H170865   5.189   6.087  17.056 -0.7569  0.5246  0.4595
16458TIP3    H270866   5.159   6.234  17.078 -2.9111  0.6185 -2.5029
16459TIP3   OH270867   6.096   3.922  12.611  0.5846  0.4413  0.0414
16459TIP3    H170868   6.005   3.940  12.585  0.5997 -0.6534 -0.8601
16459TIP3    H270869   6.097   3.937  12.705 -0.4639  0.7693  0.0207
16460TIP3   OH270870   6.283   5.222  14.094  0.4164 -0.0083  0.6804
16460TIP3    H170871   6.376   5.201  14.098  1.0929  2.6070  0.9347
16460TIP3    H270872   6.281   5.318  14.093 -2.2301  0.0082 -0.8825
16461TIP3   OH270873   1.738   5.045   5.152 -0.4917  0.8025  0.7493
16461TIP3    H170874   1.682   4.974   5.182  0.2420  0.5106  1.4520
16461TIP3    H270875   1.774   5.013   5.069 -0.3450  0.4516  0.9458
16462TIP3   OH270876   2.615   1.135  12.406  0.2909 -0.0372 -0.2584
16462TIP3    H170877   2.683   1.118  12.341  1.3931 -0.7110  1.0001
16462TIP3    H270878   2.635   1.073  12.477 -1.7765 -0.3851  0.0674
16463TIP3   OH270879   2.135   3.065  13.223 -0.2214 -0.0428 -0.8194
16463TIP3    H170880   2.042   3.086  13.229 -0.0611  0.3919  0.4551
16463TIP3    H270881   2.159   3.037  13.312  0.7781 -0.5414 -1.2263
16464TIP3   OH270882   1.615   3.675   5.998 -0.4276 -0.2510  0.5550
16464TIP3    H170883   1.639   3.644   5.910 -1.7557  1.5540 -0.5121
16464TIP3    H270884   1.571   3.601   6.038  1.8715 -1.7683  0.4838
16465TIP3   OH270885   3.163   5.130  13.097 -0.5126  0.1074 -0.4004
16465TIP3    H170886   3.155   5.211  13.148  1.6348 -0.0040  0.2224
16465TIP3    H270887   3.158   5.159  13.006 -1.4513  0.7002 -0.1814
16466TIP3   OH270888   6.326   6.757   0.704 -0.0092  0.2292 -0.2576
16466TIP3    H170889   6.309   6.694   0.774 -1.5186  1.0935  0.2036
16466TIP3    H270890   6.353   6.703   0.630 -1.2868 -1.0001  0.1239
16467TIP3   OH270891   3.002   2.785   4.630 -0.3286  0.1601  0.1454
16467TIP3    H170892   2.984   2.822   4.716 -0.0017 -0.0158  0.2916
16467TIP3    H270893   2.953   2.703   4.628 -0.8687  0.4822 -0.0915
16468TIP3   OH270894   6.536   5.736  12.520  0.3465  0.5402 -0.0062
16468TIP3    H170895   6.474   5.733  12.447  0.1790  0.7520  0.1273
16468TIP3    H270896   6.601   5.669  12.499  1.1033  1.5597 -1.0736
16469TIP3   OH270897   0.792   2.328  15.054  0.1484 -0.1612  0.7507
16469TIP3    H170898   0.843   2.394  15.007 -0.4882 -0.8220 -0.9402
16469TIP3    H270899   0.830   2.244  15.028 -0.6057 -0.5717  0.9382
16470TIP3   OH270900   4.914   4.745  15.730 -0.3186  0.5621 -0.4733
16470TIP3    H170901   4.992   4.799  15.718 -2.6037  4.5275  0.4994
16470TIP3    H270902   4.894   4.752  15.824 -2.3890  0.6437 -0.8702
16471TIP3   OH270903   0.891   1.635  11.827  0.3037 -0.4203 -0.5103
16471TIP3    H170904   0.900   1.717  11.779  0.1966 -0.8478 -1.2706
16471TIP3    H270905   0.797   1.617  11.828 -0.0926  1.2091  2.6553
16472TIP3   OH270906   3.244   0.996  15.012 -0.8338  0.0092  0.4238
16472TIP3    H170907   3.182   0.923  15.020 -0.6603  0.0102  2.2938
16472TIP3    H270908   3.192   1.074  15.035 -0.2462  0.0485  1.6929
16473TIP3   OH270909   3.595   0.185   3.676  0.7379 -0.6270  0.2680
16473TIP3    H170910   3.587   0.108   3.732  1.9730 -1.0639 -0.1344
16473TIP3    H270911   3.588   0.259   3.736 -1.3964 -0.9847  0.5486
16474TIP3   OH270912   4.609   2.005  14.973  0.4440 -0.1232  0.5462
16474TIP3    H170913   4.653   2.032  14.893 -0.1718  1.1141  0.6114
16474TIP3    H270914   4.632   1.912  14.983  3.7674  0.6531  1.0712
16475TIP3   OH270915   4.026   4.484   4.427 -0.8899  0.0020 -0.5105
16475TIP3    H170916   4.047   4.577   4.442 -1.4556  0.0457  0.0648
16475TIP3    H270917   3.957   4.465   4.491  0.5742 -1.3246  0.7712
16476TIP3   OH270918   1.725   1.028  17.051 -0.0394 -0.5291  0.5068
16476TIP3    H170919   1.800   1.041  16.992  0.7939 -0.3626  1.5526
16476TIP3    H270920   1.654   0.999  16.995  0.2639  1.1578 -0.8206
16477TIP3   OH270921   2.856   5.114   6.244 -0.1686  0.4847  0.3257
16477TIP3    H170922   2.780   5.087   6.192 -0.0335  1.4258 -0.3917
16477TIP3    H270923   2.928   5.061   6.210 -0.6114 -0.9742  1.5301
16478TIP3   OH270924   1.439   2.081   3.836 -0.2354  0.3133 -0.1870
16478TIP3    H170925   1.467   2.171   3.821  0.7422  0.2323  1.0807
16478TIP3    H270926   1.491   2.029   3.775 -0.9042  0.5879 -1.0247
16479TIP3   OH270927   3.406   4.934  12.156 -0.5602 -0.4412  0.8271
16479TIP3    H170928   3.472   4.939  12.087 -2.1217  0.5030 -0.6998
16479TIP3    H270929   3.430   5.003  12.218 -0.3399  0.1768  0.0667
16480TIP3   OH270930   4.972   4.566   4.543 -0.1875 -0.9698 -0.4608
16480TIP3    H170931   5.003   4.657   4.540  1.0424 -1.3078  0.9464
16480TIP3    H270932   4.940   4.549   4.455 -0.5307  0.8523 -0.7417
16481TIP3   OH270933   0.269   0.727  15.353  0.2724 -0.0546  0.2885
16481TIP3    H170934   0.268   0.792  15.283 -1.7274 -0.6066 -0.2744
16481TIP3    H270935   0.181   0.688  15.350  1.3481 -2.6973  0.6911
16482TIP3   OH270936   1.823   2.577  12.403  0.0173 -0.1088 -0.2074
16482TIP3    H170937   1.775   2.532  12.472 -2.3737  0.9686 -1.0523
16482TIP3    H270938   1.862   2.653  12.446 -1.2185  0.4011  0.0465
16483TIP3   OH270939   5.657   2.007  14.815  0.0417 -0.0660 -0.2431
16483TIP3    H170940   5.611   1.936  14.769 -0.4924  0.8035 -1.1214
16483TIP3    H270941   5.636   2.085  14.763  2.1507  0.4502 -0.3948
16484TIP3   OH270942   1.939   0.153   0.633 -0.3131 -0.2897 -0.4042
16484TIP3    H170943   1.939   0.061   0.609  0.0357 -0.6251  0.8229
16484TIP3    H270944   1.847   0.179   0.629 -0.9730 -1.6888  2.7843
16485TIP3   OH270945   0.484   4.320  13.015  0.1183 -0.2196 -0.4111
16485TIP3    H170946   0.535   4.310  12.934  2.3095  0.5310  0.7767
16485TIP3    H270947   0.550   4.326  13.083 -1.5419  2.1648  1.1252
16486TIP3   OH270948   2.287   6.034   4.222  0.2014 -0.0122  0.0044
16486TIP3    H170949   2.375   6.024   4.259 -0.0280  0.4842  0.7014
16486TIP3    H270950   2.297   6.012   4.129  1.4234  1.8050 -0.3279
16487TIP3   OH270951   0.454   0.495   5.739 -0.5531 -0.2414  0.1289
16487TIP3    H170952   0.364   0.502   5.770 -0.5578 -2.0880  0.6541
16487TIP3    H270953   0.470   0.401   5.731  1.5741  0.0106  0.7638
16488TIP3   OH270954   2.643   1.563  11.839  0.0379  0.3097  0.0223
16488TIP3    H170955   2.642   1.648  11.883  0.7211  0.4630 -0.2427
16488TIP3    H270956   2.708   1.512  11.887  1.0680  0.6053 -1.0222
16489TIP3   OH270957   5.883   1.704  16.904 -0.4071 -0.1099 -0.2536
16489TIP3    H170958   5.803   1.731  16.859 -0.6460 -0.3287  0.0413
16489TIP3    H270959   5.954   1.737  16.848 -0.6754  1.7530  0.4434
16490TIP3   OH270960   5.812   6.511   3.480 -0.7492 -0.2003  0.1162
16490TIP3    H170961   5.832   6.600   3.509 -3.1706  0.2000  0.7710
16490TIP3    H270962   5.772   6.522   3.394 -0.1682 -0.7688 -0.2401
16491TIP3   OH270963   3.626   2.936  11.624  0.6689 -0.7077 -0.1037
16491TIP3    H170964   3.609   2.959  11.716  1.2604  1.5525 -0.5090
16491TIP3    H270965   3.636   2.840  11.626 -2.7851 -1.2320  1.5979
16492TIP3   OH270966   2.930   1.322  12.260 -0.0396  0.1461 -0.1006
16492TIP3    H170967   2.888   1.236  12.258  0.3520 -0.0317 -1.2706
16492TIP3    H270968   3.024   1.303  12.254  0.0477  0.6603 -0.3930
16493TIP3   OH270969   0.583   3.631   4.034  0.2057  0.3885  0.0526
16493TIP3    H170970   0.669   3.617   3.996 -0.0180 -0.6513 -0.1112
16493TIP3    H270971   0.601   3.653   4.126  0.6533  0.5104 -0.0621
16494TIP3   OH270972   0.126   6.315   4.731  0.3624  0.1285 -0.0632
16494TIP3    H170973   0.175   6.340   4.809  0.9001  1.2679 -0.7379
16494TIP3    H270974   0.055   6.378   4.726  0.2509 -0.0219 -0.4217
16495TIP3   OH270975   2.449   4.212   4.318  0.1775  0.1669  0.1142
16495TIP3    H170976   2.462   4.131   4.270  0.0848 -0.1488  0.6073
16495TIP3    H270977   2.528   4.263   4.302 -0.6212  0.8515 -1.8562
16496TIP3   OH270978   5.700   2.276  12.288  1.3610  0.5499 -0.0431
16496TIP3    H170979   5.724   2.184  12.283  0.7690  0.4056 -0.4333
16496TIP3    H270980   5.630   2.280  12.354  0.1321  0.4133 -1.2773
16497TIP3   OH270981   5.018   6.588   1.065 -0.2995  0.1254 -0.1671
16497TIP3    H170982   5.091   6.638   1.102 -0.2447 -1.1920  1.6487
16497TIP3    H270983   4.940   6.635   1.095 -0.2355  0.9424 -1.2314
16498TIP3   OH270984   0.178   6.460   0.761  0.0056 -0.6084  0.1489
16498TIP3    H170985   0.157   6.500   0.676 -0.4786 -1.0767  0.0409
16498TIP3    H270986   0.139   6.373   0.756 -1.9733  0.1022  1.6555
16499TIP3   OH270987   6.097   1.227   0.578 -0.1298 -0.0305  0.2766
16499TIP3    H170988   6.122   1.135   0.584 -2.2813 -0.7404 -0.5339
16499TIP3    H270989   6.010   1.231   0.618  0.5972  2.0266  1.8480
16500TIP3   OH270990   5.181   4.304   2.214  0.4133  0.0444  0.2018
16500TIP3    H170991   5.218   4.303   2.302 -2.0524  1.1001  1.3409
16500TIP3    H270992   5.133   4.222   2.207 -0.5261  0.5668  0.3892
16501TIP3   OH270993   4.107   5.714  13.877  0.1031 -0.0414 -0.7023
16501TIP3    H170994   4.039   5.685  13.816 -0.2265 -0.8908  0.0623
16501TIP3    H270995   4.185   5.665  13.851 -0.5324 -1.9452  0.7971
16502TIP3   OH270996   2.844   4.049   0.275  0.1123  0.1045 -0.3482
16502TIP3    H170997   2.842   4.066   0.369 -3.4196  1.5677 -0.5304
16502TIP3    H270998   2.870   4.132   0.236  1.9392 -0.6035 -0.7179
16503TIP3   OH270999   1.051   3.649  15.299 -0.7231 -0.0187  0.4482
16503TIP3    H171000   1.119   3.587  15.326 -0.6362 -0.4395 -0.6752
16503TIP3    H271001   1.023   3.618  15.213 -1.6444  0.7272  0.4632
16504TIP3   OH271002   4.558   4.319   3.905  0.4789 -0.7164  0.0965
16504TIP3    H171003   4.595   4.404   3.882 -0.3331 -0.0086  1.2686
16504TIP3    H271004   4.618   4.283   3.969  1.0323 -1.2292 -0.6885
16505TIP3   OH271005   1.828   2.762   3.495 -0.1582  0.0808  0.4093
16505TIP3    H171006   1.850   2.713   3.415  0.8068  0.5606  0.3685
16505TIP3    H271007   1.732   2.768   3.493 -0.2504 -1.1586  0.0391
16506TIP3   OH271008   1.879   4.879   1.360  0.3046 -0.1113  0.4105
16506TIP3    H171009   1.894   4.819   1.287 -2.3001  1.0364 -1.1643
16506TIP3    H271010   1.836   4.825   1.427  1.9083 -0.9494  0.8327
16507TIP3   OH271011   2.814   2.183   1.050 -0.0674  0.7454  0.3919
16507TIP3    H171012   2.908   2.179   1.036 -0.2093  1.6842 -1.0021
16507TIP3    H271013   2.805   2.211   1.141  1.0016  0.6491  0.5374
16508TIP3   OH271014   5.499   6.736  15.276 -0.4127  0.1140 -0.6236
16508TIP3    H171015   5.531   6.700  15.193 -0.1469 -0.8807 -0.1114
16508TIP3    H271016   5.469   6.824  15.254  0.4168  0.1710 -1.6082
16509TIP3   OH271017   3.953   2.069  14.696  0.2960 -0.0512 -0.1564
16509TIP3    H171018   3.907   2.129  14.637  0.4113  0.9511  0.7396
16509TIP3    H271019   4.041   2.105  14.702 -0.5021  1.8617  3.1113
16510TIP3   OH271020   4.844   2.245   1.602  0.0105  0.1811 -0.0523
16510TIP3    H171021   4.821   2.294   1.523 -2.1212  0.2904  0.5670
16510TIP3    H271022   4.780   2.274   1.667 -0.9293 -2.8702  0.5576
16511TIP3   OH271023   6.839   6.686   3.851  0.3750 -0.1500  0.3514
16511TIP3    H171024   6.764   6.655   3.802 -0.1525 -0.2734  1.2249
16511TIP3    H271025   6.910   6.626   3.827 -0.6882 -2.3193  2.2405
16512TIP3   OH271026   5.016   6.706   3.720  0.2740 -0.1234 -0.5237
16512TIP3    H171027   4.924   6.706   3.694  0.1932 -0.7005 -0.2638
16512TIP3    H271028   5.024   6.775   3.785 -0.6990 -2.0811  1.8559
16513TIP3   OH271029   5.825   4.330   0.682  0.7659 -0.1272 -0.5737
16513TIP3    H171030   5.916   4.353   0.664  0.4661  0.5132 -1.3595
16513TIP3    H271031   5.776   4.410   0.661  0.1395 -0.0563  1.0091
16514TIP3   OH271032   1.707   0.769  16.059 -0.1139  0.2481 -0.5301
16514TIP3    H171033   1.766   0.765  15.984 -2.0394  0.9386 -2.1720
16514TIP3    H271034   1.664   0.684  16.061  0.2995  0.0413  0.1541
16515TIP3   OH271035   6.625   5.716  16.718  0.7660 -0.0444 -0.6579
16515TIP3    H171036   6.709   5.752  16.689  0.8016  0.1361 -0.3373
16515TIP3    H271037   6.616   5.634  16.671  1.8004 -0.7677  0.3696
16516TIP3   OH271038   0.827   0.264  14.139  0.0738  0.4184  0.1559
16516TIP3    H171039   0.876   0.343  14.115 -0.3506  0.8912  0.8175
16516TIP3    H271040   0.736   0.292  14.140  0.0946  0.6709  3.1188
16517TIP3   OH271041   2.146   0.610   4.915 -0.1480 -0.1037  0.0346
16517TIP3    H171042   2.122   0.676   4.851 -0.5760 -0.6899 -0.4215
16517TIP3    H271043   2.237   0.588   4.895 -0.0900  0.1520  0.0197
16518TIP3   OH271044   0.694   5.286  14.860  0.5076 -0.4065 -0.7574
16518TIP3    H171045   0.732   5.351  14.919 -0.5107 -0.8872  0.4762
16518TIP3    H271046   0.610   5.263  14.900 -1.1910  0.6992 -3.3984
16519TIP3   OH271047   2.475   3.740   3.432  0.3646 -0.5947 -0.0340
16519TIP3    H171048   2.413   3.668   3.440  0.0919 -0.3285  0.3273
16519TIP3    H271049   2.438   3.809   3.487 -0.1417  0.3592 -1.5003
16520TIP3   OH271050   4.348   3.670   2.597  0.3031  0.0964 -0.2571
16520TIP3    H171051   4.395   3.747   2.564  1.0488 -0.8253 -1.4557
16520TIP3    H271052   4.333   3.688   2.689  1.6875  1.1001 -0.2007
16521TIP3   OH271053   2.996   1.250  11.814  0.2103  0.3669  0.0664
16521TIP3    H171054   2.964   1.162  11.793 -0.7309  0.6365  0.3039
16521TIP3    H271055   2.923   1.291  11.861  0.9754  0.9653  0.7519
16522TIP3   OH271056   4.754   4.180  16.471 -0.3400  0.3509 -0.6177
16522TIP3    H171057   4.836   4.145  16.435 -0.7813  0.1189 -1.4206
16522TIP3    H271058   4.752   4.149  16.561  0.3898  0.2434 -0.6301
16523TIP3   OH271059   5.746   2.255   1.032 -0.2774 -0.8071  0.6186
16523TIP3    H171060   5.679   2.187   1.028 -0.7911 -0.4546  2.4448
16523TIP3    H271061   5.746   2.284   1.123 -0.5152  2.0926 -0.2159
16524TIP3   OH271062   2.872   6.389  14.293  0.3662  0.0203  0.0399
16524TIP3    H171063   2.807   6.398  14.363 -0.0497  1.0894 -0.4648
16524TIP3    H271064   2.887   6.295  14.287  0.1561 -0.1169  1.3371
16525TIP3   OH271065   5.083   2.890  13.002  0.1942 -0.0969  0.3307
16525TIP3    H171066   5.170   2.890  13.043 -0.1407  0.8409  1.0801
16525TIP3    H271067   5.067   2.981  12.979 -0.6895 -0.2149  0.4235
16526TIP3   OH271068   3.684   1.217  13.240 -0.1197 -0.8702  0.1268
16526TIP3    H171069   3.673   1.189  13.331 -2.2138  2.5796  1.1072
16526TIP3    H271070   3.767   1.265  13.240 -0.1266 -0.8585  0.1742
16527TIP3   OH271071   5.279   5.461   3.438 -0.2316  0.5648  0.2525
16527TIP3    H171072   5.332   5.541   3.436  2.0126 -0.7432  2.1469
16527TIP3    H271073   5.230   5.467   3.520  0.2900 -0.1825  0.6239
16528TIP3   OH271074   3.677   3.252  14.462 -0.1485 -0.0121 -0.7210
16528TIP3    H171075   3.617   3.195  14.414 -1.8662  1.5545 -0.5293
16528TIP3    H271076   3.621   3.316  14.506  1.6309  1.2500 -0.1486
16529TIP3   OH271077   4.136   0.413  11.873  0.0610 -0.8990 -0.0225
16529TIP3    H171078   4.125   0.421  11.968  0.1266  0.0754 -0.0810
16529TIP3    H271079   4.114   0.322  11.854 -0.3579 -1.0038  0.8731
16530TIP3   OH271080   6.806   0.132   1.008 -0.0621 -0.0139 -0.1994
16530TIP3    H171081   6.793   0.136   1.103 -3.1610  2.3009 -0.5781
16530TIP3    H271082   6.784   0.041   0.985  0.3210 -0.4972  1.2118
16531TIP3   OH271083   1.384   1.124  12.985 -0.7975  0.2061  0.3344
16531TIP3    H171084   1.295   1.137  13.019 -0.8935 -1.2292  0.7063
16531TIP3    H271085   1.385   1.168  12.901 -2.6123 -1.6463 -0.7552
16532TIP3   OH271086   2.830   0.905   2.306  0.3878 -0.0988  0.1587
16532TIP3    H171087   2.834   0.896   2.211 -1.6246 -1.2544  0.1443
16532TIP3    H271088   2.845   0.999   2.322  0.2669  0.1898 -1.3163
16533TIP3   OH271089   3.298   3.139  13.042  0.0534 -0.3390 -0.2690
16533TIP3    H171090   3.388   3.108  13.051  0.8615  1.8588 -0.1982
16533TIP3    H271091   3.287   3.202  13.114 -1.4348 -0.2953 -0.4986
16534TIP3   OH271092   0.129   6.035  14.706 -0.2199  0.3845 -0.4887
16534TIP3    H171093   0.131   6.125  14.740 -0.0833  0.7366 -1.3835
16534TIP3    H271094   0.042   6.002  14.731  0.3853  0.1040  1.4158
16535TIP3   OH271095   5.801   3.720  16.648  0.2866 -0.0750  0.3505
16535TIP3    H171096   5.821   3.801  16.602 -0.2909  0.4091  0.9228
16535TIP3    H271097   5.886   3.686  16.675  0.4720  1.0422  1.2506
16536TIP3   OH271098   3.292   2.534   5.464  0.0843 -0.0479 -0.5684
16536TIP3    H171099   3.234   2.500   5.396  1.4848 -0.5098 -1.5824
16536TIP3    H271100   3.306   2.461   5.524 -2.1368  0.7092  0.9737
16537TIP3   OH271101   3.379   2.338   0.084  0.4457  0.2001 -0.4815
16537TIP3    H171102   3.449   2.281   0.116  2.0910  2.2213 -0.2499
16537TIP3    H271103   3.307   2.326   0.147  0.6400 -1.7403 -0.5860
16538TIP3   OH271104   1.262   5.050  12.323  0.2200 -0.1023  0.0847
16538TIP3    H171105   1.320   4.978  12.347  0.8183  0.1779 -0.4941
16538TIP3    H271106   1.317   5.128  12.325 -0.3478  0.2986  0.3905
16539TIP3   OH271107   3.660   5.440  10.497 -0.5296 -0.3213  0.5684
16539TIP3    H171108   3.682   5.495  10.422 -0.1907 -0.9396  0.2094
16539TIP3    H271109   3.685   5.351  10.470  2.0949 -0.2385  2.3711
16540TIP3   OH271110   1.710   5.445  11.770 -0.6238  0.3751 -0.2702
16540TIP3    H171111   1.756   5.407  11.844 -0.4875  1.4328  0.2151
16540TIP3    H271112   1.618   5.430  11.788 -0.5940  0.7225  0.1688
16541TIP3   OH271113   4.506   5.117  14.487  0.1146  0.3787  0.0903
16541TIP3    H171114   4.598   5.134  14.506  0.8967 -1.3010 -1.8304
16541TIP3    H271115   4.496   5.023  14.500 -2.0769  0.8604  2.9024
16542TIP3   OH271116   0.668   5.864   2.775  0.4198  0.0327 -0.1443
16542TIP3    H171117   0.648   5.865   2.868 -4.5377 -1.9227 -0.8708
16542TIP3    H271118   0.650   5.953   2.745 -0.8461 -0.0237  0.3920
16543TIP3   OH271119   2.551   0.964  11.615 -0.0238 -0.3750  0.2750
16543TIP3    H171120   2.558   0.885  11.561 -1.4302  1.2867 -2.5441
16543TIP3    H271121   2.467   0.955  11.659  0.7845 -1.3712  1.7243
16544TIP3   OH271122   0.090   1.839  13.718  0.2734  0.5190 -0.0955
16544TIP3    H171123   0.138   1.894  13.656 -0.4365 -0.1838 -1.3010
16544TIP3    H271124   0.031   1.900  13.763  0.5048  0.9687 -0.3987
16545TIP3   OH271125   5.459   3.511  15.010  0.5730  0.7457 -0.0351
16545TIP3    H171126   5.505   3.446  15.063 -0.3525 -0.2313 -0.3764
16545TIP3    H271127   5.406   3.560  15.073 -1.8913 -1.5608 -0.1273
16546TIP3   OH271128   1.315   1.561   2.983 -1.0360 -0.5288  0.3954
16546TIP3    H171129   1.255   1.635   2.973 -0.6022 -0.1912  0.2927
16546TIP3    H271130   1.266   1.498   3.037 -2.6814 -1.5645 -2.0860
16547TIP3   OH271131   1.564   1.791   1.592  0.2989 -0.4804  0.3441
16547TIP3    H171132   1.651   1.832   1.584  0.3699 -0.7406 -0.3003
16547TIP3    H271133   1.578   1.717   1.650  1.1788 -2.2677 -1.9848
16548TIP3   OH271134   3.479   4.009  12.423 -0.4015  0.1868  0.2566
16548TIP3    H171135   3.436   3.964  12.496  0.6564 -3.5132 -1.2188
16548TIP3    H271136   3.572   4.008  12.444 -0.1493 -0.2905 -0.8120
16549TIP3   OH271137   3.561   5.884   2.665  0.5033  0.6113  0.5851
16549TIP3    H171138   3.581   5.932   2.746  0.9252 -0.6080  1.2267
16549TIP3    H271139   3.638   5.830   2.649 -0.4572 -0.8328  0.6135
16550TIP3   OH271140   5.656   5.552  15.120  0.1507  0.1892 -0.0897
16550TIP3    H171141   5.599   5.500  15.176  2.0474  0.7214  2.4915
16550TIP3    H271142   5.599   5.622  15.087 -1.0177 -0.0868  1.2302
16551TIP3   OH271143   4.214   0.584  11.483 -0.7719 -1.0445  0.2521
16551TIP3    H171144   4.214   0.491  11.460 -1.1522 -1.1570  0.6877
16551TIP3    H271145   4.242   0.586  11.575  1.5987 -0.5352 -0.4322
16552TIP3   OH271146   4.814   3.931   1.470  0.1903  0.4547  0.6642
16552TIP3    H171147   4.889   3.916   1.527  1.2055  2.8429  0.0693
16552TIP3    H271148   4.846   3.992   1.403 -1.7705  0.0505 -0.7349
16553TIP3   OH271149   3.290   1.329   2.076 -0.3942  0.0682  0.3831
16553TIP3    H171150   3.380   1.360   2.072 -0.2895  0.5047  3.5473
16553TIP3    H271151   3.239   1.395   2.029  0.7169  0.8760  0.2768
16554TIP3   OH271152   4.880   5.799  12.330 -0.1319 -0.2592  0.5046
16554TIP3    H171153   4.834   5.729  12.376 -2.5083  1.1495  0.4254
16554TIP3    H271154   4.883   5.769  12.239 -1.5662 -0.0916  0.3793
16555TIP3   OH271155   2.408   5.070  11.708 -0.0725  0.3389  0.5488
16555TIP3    H171156   2.445   5.145  11.661  0.6640 -0.7125 -0.5953
16555TIP3    H271157   2.483   5.017  11.733 -0.4273  0.9014  3.0944
16556TIP3   OH271158   5.050   5.397  11.809  0.1413  0.6023  0.0253
16556TIP3    H171159   5.055   5.349  11.726 -3.1757  1.2499 -0.7251
16556TIP3    H271160   5.071   5.333  11.876 -0.4153 -0.8810 -1.1612
16557TIP3   OH271161   2.976   3.442  16.229  0.9367  0.0629  0.4537
16557TIP3    H171162   2.888   3.449  16.263  0.9764  0.6259  0.4474
16557TIP3    H271163   3.004   3.353  16.252  0.3721 -0.1197  0.4478
16558TIP3   OH271164   1.523   3.956  14.780 -0.0612  0.0694  0.5852
16558TIP3    H171165   1.558   4.019  14.716 -1.0149  2.0794  1.9426
16558TIP3    H271166   1.559   3.985  14.864 -0.9818 -0.8636  1.3139
16559TIP3   OH271167   1.284   2.414  16.328 -0.3399  0.7890  0.3129
16559TIP3    H171168   1.194   2.416  16.297 -1.0486  2.0930  2.2208
16559TIP3    H271169   1.277   2.410  16.424  1.6353  0.2629  0.4935
16560TIP3   OH271170   5.475   1.499   3.623 -0.0428 -0.0353 -0.4864
16560TIP3    H171171   5.511   1.553   3.693  0.6705 -3.4419  2.0570
16560TIP3    H271172   5.380   1.515   3.627  0.2289  1.7384 -0.5661
16561TIP3   OH271173   0.636   6.809  12.769  0.3612 -0.5995  0.5374
16561TIP3    H171174   0.624   6.715  12.753  0.0102 -0.1135 -2.8232
16561TIP3    H271175   0.714   6.831  12.718  0.3197  0.9656  1.1294
16562TIP3   OH271176   4.364   1.327  13.523  0.4737 -0.2914 -0.2146
16562TIP3    H171177   4.393   1.322  13.615  1.7378 -0.7509 -0.6116
16562TIP3    H271178   4.403   1.250  13.482  0.9601  0.5645 -1.4072
16563TIP3   OH271179   1.564   6.309  14.930 -0.0772 -0.8904  0.4825
16563TIP3    H171180   1.544   6.233  14.984  1.0114 -0.8662  0.9586
16563TIP3    H271181   1.594   6.375  14.992 -0.6061 -0.2174  0.0298
16564TIP3   OH271182   5.543   3.225   1.580 -0.0288  0.8161  0.3494
16564TIP3    H171183   5.557   3.150   1.522 -0.2861  0.8875  0.1928
16564TIP3    H271184   5.564   3.301   1.526 -1.3273  0.9455 -0.0014
16565TIP3   OH271185   1.910   3.483  15.794 -0.2800  0.0076 -0.3461
16565TIP3    H171186   1.833   3.524  15.833  0.5526  0.4904  0.8582
16565TIP3    H271187   1.978   3.493  15.860  1.0713  0.4072 -1.7519
16566TIP3   OH271188   1.176   0.832   1.640 -0.6492  0.1674 -0.5999
16566TIP3    H171189   1.175   0.749   1.592 -2.4296  0.0338 -0.3847
16566TIP3    H271190   1.086   0.845   1.668 -1.0899  3.5418 -2.9288
16567TIP3   OH271191   5.245   1.056  15.739 -0.1949 -0.4896 -0.6294
16567TIP3    H171192   5.255   0.973  15.786 -2.0925 -0.8439 -0.7755
16567TIP3    H271193   5.162   1.092  15.771  0.7650  1.5338 -0.3183
16568TIP3   OH271194   6.154   3.991   5.166 -0.7274 -0.4975 -0.1311
16568TIP3    H171195   6.059   4.002   5.157 -0.6822 -0.3110 -0.4179
16568TIP3    H271196   6.170   3.900   5.142 -0.9425 -0.7950  0.8385
16569TIP3   OH271197   5.922   6.128   4.452  0.1477 -0.8029 -0.0160
16569TIP3    H171198   5.896   6.094   4.538 -1.2903  1.2984  0.4609
16569TIP3    H271199   5.947   6.050   4.402  0.3149 -2.1582  2.0449
16570TIP3   OH271200   0.454   4.028   3.035 -0.7905 -0.0727 -0.1089
16570TIP3    H171201   0.462   4.116   3.072  0.3273  0.2516 -1.0686
16570TIP3    H271202   0.360   4.018   3.017 -1.0741  0.5072  0.9558
16571TIP3   OH271203   5.186   0.897  14.671 -0.2321  1.0499  0.3444
16571TIP3    H171204   5.247   0.971  14.679 -0.2129  1.1897 -0.9259
16571TIP3    H271205   5.235   0.831  14.623 -1.2000  1.3181 -1.0584
16572TIP3   OH271206   2.221   0.499  11.036 -1.0156 -0.2637  0.5985
16572TIP3    H171207   2.180   0.514  10.951  0.4195  1.6420  0.1908
16572TIP3    H271208   2.150   0.466  11.091 -2.1289 -0.8792 -1.1244
16573TIP3   OH271209   0.133   0.071  16.780 -0.4606 -0.4409 -0.2338
16573TIP3    H171210   0.111   0.164  16.778 -1.1052 -0.5953 -0.4648
16573TIP3    H271211   0.145   0.052  16.873 -0.0355 -0.0695 -0.2054
16574TIP3   OH271212   1.168   0.961  14.129  0.0565 -0.5839 -0.0670
16574TIP3    H171213   1.162   0.867  14.145  1.3938 -0.9846 -1.6489
16574TIP3    H271214   1.215   0.969  14.046  2.0988  1.5150  1.1455
16575TIP3   OH271215   5.994   5.373   3.591  0.3704  0.3498 -0.0312
16575TIP3    H171216   6.042   5.291   3.598 -1.0999 -0.6660 -1.2992
16575TIP3    H271217   6.039   5.420   3.520  0.2430 -0.0684 -0.3955
16576TIP3   OH271218   3.068   6.109  16.416  0.3212  0.9562  0.2355
16576TIP3    H171219   3.029   6.038  16.365  0.7918  0.2882  0.7877
16576TIP3    H271220   3.158   6.116  16.383  1.3231 -0.8881  2.3118
16577TIP3   OH271221   5.248   0.950  14.143 -0.0705  0.3790 -0.6259
16577TIP3    H171222   5.161   0.985  14.125 -1.1416 -2.0297 -0.4867
16577TIP3    H271223   5.245   0.923  14.235 -0.1340 -2.0990 -1.2792
16578TIP3   OH271224   5.360   3.387  13.558 -0.0030 -0.0247 -0.2428
16578TIP3    H171225   5.377   3.478  13.580 -0.7676  0.2976 -0.9307
16578TIP3    H271226   5.378   3.338  13.639 -3.0894  1.1266  1.2809
16579TIP3   OH271227   6.821   3.186  11.558 -0.6668 -0.1769  1.1903
16579TIP3    H171228   6.782   3.261  11.513 -0.5901 -0.8962 -0.1322
16579TIP3    H271229   6.755   3.118  11.551  0.9574 -1.6494 -1.7111
16580TIP3   OH271230   0.576   2.307   6.542  0.1718 -0.0549  0.6006
16580TIP3    H171231   0.501   2.367   6.544 -0.5252 -0.9125  0.8558
16580TIP3    H271232   0.557   2.247   6.470  0.6920 -0.1836  0.5675
16581TIP3   OH271233   4.420   5.174  10.834 -0.2055  0.1374 -0.6794
16581TIP3    H171234   4.354   5.118  10.793  0.0978  0.5909 -1.8219
16581TIP3    H271235   4.448   5.233  10.764  0.2659  1.0035  0.2139
16582TIP3   OH271236   0.406   4.440  16.157  0.1031  0.0627  0.3034
16582TIP3    H171237   0.363   4.444  16.072  1.3916 -1.4747 -0.4573
16582TIP3    H271238   0.469   4.511  16.156  1.6831 -1.2831 -0.9712
16583TIP3   OH271239   4.346   6.464   4.958 -0.0127  0.1419  0.1794
16583TIP3    H171240   4.351   6.537   4.895  3.3555 -0.1212 -0.0449
16583TIP3    H271241   4.263   6.422   4.938 -0.1176  1.3992 -2.6339
16584TIP3   OH271242   0.027   0.055  13.454 -0.5159 -0.5401 -0.0726
16584TIP3    H171243  -0.009   0.137  13.419 -2.3603 -1.6480 -0.9305
16584TIP3    H271244  -0.011   0.048  13.542  1.9068  0.8627  1.1795
16585TIP3   OH271245   5.465   3.665  13.219  0.3566 -0.5573 -0.1969
16585TIP3    H171246   5.468   3.760  13.234  1.2504 -0.4670 -0.8908
16585TIP3    H271247   5.557   3.639  13.216  0.1502 -1.1808 -1.6589
16586TIP3   OH271248   0.851   2.126   3.365 -0.4509 -0.6011 -0.0007
16586TIP3    H171249   0.897   2.132   3.281 -0.5908 -0.5007 -0.0699
16586TIP3    H271250   0.777   2.067   3.348 -1.5982  0.8983 -0.4585
16587TIP3   OH271251   5.981   2.418   4.979 -0.0061 -0.0395  0.2666
16587TIP3    H171252   5.987   2.326   5.004 -0.4563 -0.3602 -0.7394
16587TIP3    H271253   6.002   2.419   4.886 -0.2517  0.8436  0.2119
16588TIP3   OH271254   6.798   1.956  15.792 -0.2607  0.4682 -0.0116
16588TIP3    H171255   6.756   1.954  15.878  0.0306  0.1779  0.1253
16588TIP3    H271256   6.836   2.044  15.786 -1.6953  1.0810 -0.5343
16589TIP3   OH271257   2.400   6.248  11.276  0.2712  0.2812  0.2994
16589TIP3    H171258   2.319   6.245  11.225 -0.0979 -0.0133  0.8919
16589TIP3    H271259   2.390   6.179  11.341  1.2463 -0.1452  0.0203
16590TIP3   OH271260   1.459   6.393   2.857 -1.0557  0.1384  0.8186
16590TIP3    H171261   1.377   6.360   2.820 -0.5994  0.0735 -0.1581
16590TIP3    H271262   1.528   6.349   2.807 -0.4248  1.2684  0.6488
16591TIP3   OH271263   6.192   0.626  14.009 -0.3655  0.3698  0.1103
16591TIP3    H171264   6.265   0.606  14.069  0.1379 -0.3134 -0.7045
16591TIP3    H271265   6.116   0.584  14.049 -0.1541  0.4355  0.5835
16592TIP3   OH271266   3.757   4.646  15.600 -0.4073  0.0259 -0.2151
16592TIP3    H171267   3.665   4.653  15.623 -0.6826 -0.8032 -1.0022
16592TIP3    H271268   3.775   4.726  15.550 -0.1710  1.1333  1.5552
16593TIP3   OH271269   4.019   0.315   1.597  0.0598 -0.4627 -0.2335
16593TIP3    H171270   3.988   0.404   1.612 -0.3636 -0.9614  2.4211
16593TIP3    H271271   4.104   0.325   1.554  1.2175  1.3632  2.2540
16594TIP3   OH271272   5.974   2.750  16.685 -0.4829 -0.5392 -0.2516
16594TIP3    H171273   5.909   2.821  16.677  0.0991 -0.1407 -1.7224
16594TIP3    H271274   5.921   2.671  16.698 -1.1381  0.1708  2.0614
16595TIP3   OH271275   2.670   5.165  16.158 -0.3057  0.6431  0.1306
16595TIP3    H171276   2.603   5.105  16.191  0.2269  0.0843  0.2111
16595TIP3    H271277   2.694   5.218  16.234  1.2136 -0.9123  0.8097
16596TIP3   OH271278   4.085   0.786  11.991 -0.0826  0.0987  0.1478
16596TIP3    H171279   4.059   0.731  11.917  0.6286 -1.1232  0.7779
16596TIP3    H271280   4.117   0.867  11.951  1.1837 -0.9037 -0.9456
16597TIP3   OH271281   5.289   0.044  13.166 -0.0066 -0.7624 -0.0792
16597TIP3    H171282   5.255  -0.003  13.242  0.2663 -1.1707 -0.2047
16597TIP3    H271283   5.384   0.030  13.170  0.2665  1.0037  0.7038
16598TIP3   OH271284   3.806   2.357   0.280 -0.0019  0.0082 -0.6973
16598TIP3    H171285   3.833   2.267   0.262  0.0324  0.3432 -2.4857
16598TIP3    H271286   3.836   2.406   0.203  0.4974  1.6602  0.5057
16599TIP3   OH271287   0.790   4.439   4.893 -0.2953  0.0971 -0.0222
16599TIP3    H171288   0.756   4.355   4.924 -0.9084  1.0030  1.8995
16599TIP3    H271289   0.884   4.426   4.886 -0.4741 -1.0006 -0.6319
16600TIP3   OH271290   6.841   5.605   1.446 -0.2120 -0.4354 -0.0475
16600TIP3    H171291   6.797   5.679   1.489  2.8774  1.5016  0.0556
16600TIP3    H271292   6.931   5.609   1.477  0.2955 -3.7900 -0.7399
16601TIP3   OH271293   3.622   5.570   5.713  0.2320 -0.8087 -1.1541
16601TIP3    H171294   3.553   5.552   5.776  1.9647  1.0714  1.5028
16601TIP3    H271295   3.699   5.524   5.748  1.5692  1.3545 -1.1061
16602TIP3   OH271296   5.144   3.281   0.305 -0.1799 -0.1154 -0.0039
16602TIP3    H171297   5.127   3.253   0.215 -1.3738  1.5288 -0.3409
16602TIP3    H271298   5.109   3.210   0.359 -0.2843 -0.7032 -0.8314
16603TIP3   OH271299   6.769   2.013   3.702 -0.1699 -0.2610 -0.0798
16603TIP3    H171300   6.855   2.017   3.745  0.1688 -0.4032 -0.7275
16603TIP3    H271301   6.767   2.091   3.647 -1.5170  1.1467  1.8253
16604TIP3   OH271302   2.669   2.720   2.411  0.2012  0.0339  0.5056
16604TIP3    H171303   2.580   2.727   2.378  1.1201 -2.1663 -3.1046
16604TIP3    H271304   2.669   2.641   2.466  0.3196 -1.7914 -1.9006
16605TIP3   OH271305   4.972   2.083  11.074 -0.1144  0.2723  0.5957
16605TIP3    H171306   4.891   2.053  11.032 -0.7651  0.5903  1.5733
16605TIP3    H271307   5.042   2.037  11.028 -0.9322 -0.9410  0.5219
16606TIP3   OH271308   6.183   5.346  14.573 -0.1914 -0.3345  0.1217
16606TIP3    H171309   6.181   5.313  14.483  0.1633  0.0201 -0.0201
16606TIP3    H271310   6.128   5.285  14.622  0.3354 -1.0544 -0.1610
16607TIP3   OH271311   3.121   2.364  15.057  0.6330 -0.3376  0.9111
16607TIP3    H171312   3.092   2.372  15.147 -0.8770 -0.1097  0.4364
16607TIP3    H271313   3.121   2.269  15.040 -1.9713 -0.3071  0.3166
16608TIP3   OH271314   1.930   1.708   2.221  0.6379  0.7297 -0.1596
16608TIP3    H171315   1.895   1.668   2.142 -1.7037 -0.7725  1.4913
16608TIP3    H271316   1.853   1.727   2.275  2.1867 -0.7472  2.8474
16609TIP3   OH271317   3.489   2.927  16.497 -0.4609 -0.0891  0.4678
16609TIP3    H171318   3.429   2.970  16.437  0.2789 -0.2292 -0.3998
16609TIP3    H271319   3.433   2.885  16.562 -1.2927 -0.2386 -0.3344
16610TIP3   OH271320   3.223   6.418  15.120 -0.4129 -0.4303 -0.0282
16610TIP3    H171321   3.202   6.353  15.052 -1.2504 -0.8905  0.6465
16610TIP3    H271322   3.313   6.444  15.101 -1.7143  2.3890 -3.7052
16611TIP3   OH271323   3.742   4.319  14.608 -0.2256 -0.0349  0.5632
16611TIP3    H171324   3.738   4.225  14.588 -1.6063  0.4109 -1.5552
16611TIP3    H271325   3.768   4.323  14.700 -1.1010 -2.5229  0.9896
16612TIP3   OH271326   4.220   6.142  12.296 -0.5785  0.0204  0.3490
16612TIP3    H171327   4.256   6.055  12.314 -1.2749 -0.4532 -0.4570
16612TIP3    H271328   4.215   6.146  12.200 -0.3217  1.0450  0.3766
16613TIP3   OH271329   2.815   4.526   6.057  0.8393  0.3098 -0.0531
16613TIP3    H171330   2.818   4.480   6.141 -1.6992 -1.4561 -0.8132
16613TIP3    H271331   2.855   4.611   6.075 -2.3587  1.2779  3.8142
16614TIP3   OH271332   4.190   4.029  12.965 -0.4121 -0.5350 -0.1299
16614TIP3    H171333   4.191   4.081  12.885 -0.7626 -0.7857 -0.3029
16614TIP3    H271334   4.276   4.042  13.004 -0.5772  0.3584 -0.0477
16615TIP3   OH271335   5.721   4.717  11.644 -0.5200 -0.0566  0.6261
16615TIP3    H171336   5.774   4.787  11.606 -1.8905  1.1156  0.7896
16615TIP3    H271337   5.778   4.640  11.642  0.6291  0.7798 -0.6134
16616TIP3   OH271338   3.602   0.652  14.901  0.8889 -0.1601  0.2518
16616TIP3    H171339   3.520   0.699  14.886  0.8801 -0.4122 -0.5739
16616TIP3    H271340   3.618   0.660  14.995  0.9774  1.6535  0.1240
16617TIP3   OH271341   2.905   3.774   1.348  0.0225 -0.0107 -0.2779
16617TIP3    H171342   2.894   3.837   1.419  0.0553  0.3851 -0.6222
16617TIP3    H271343   2.847   3.701   1.372  0.5484 -0.1869  0.4931
16618TIP3   OH271344   4.761   5.229  14.439  0.4885 -0.0164  0.1077
16618TIP3    H171345   4.826   5.161  14.422  1.4828  1.2788 -1.4959
16618TIP3    H271346   4.716   5.241  14.356 -0.6615  0.3229  0.7425
16619TIP3   OH271347   1.786   6.783  16.660  0.3546 -0.1606 -0.5520
16619TIP3    H171348   1.863   6.738  16.624  1.1948 -0.2934  1.2862
16619TIP3    H271349   1.734   6.713  16.700 -1.0783 -0.1564 -2.2908
16620TIP3   OH271350   0.745   1.874  11.417 -0.2396  0.5937  0.7297
16620TIP3    H171351   0.771   1.922  11.339 -3.0605  1.3966  0.1722
16620TIP3    H271352   0.738   1.942  11.485  0.5578  0.1588  1.2600
16621TIP3   OH271353   4.588   6.564   1.514  0.2169 -0.3574 -0.2211
16621TIP3    H171354   4.594   6.512   1.434  0.3017 -2.1901  0.9225
16621TIP3    H271355   4.495   6.569   1.533  0.2875 -2.6969  1.2074
16622TIP3   OH271356   4.842   3.813  11.340  0.0587  0.1893 -0.4779
16622TIP3    H171357   4.875   3.845  11.424  1.1180  0.2706 -0.9184
16622TIP3    H271358   4.867   3.879  11.277 -0.7495  0.1320 -0.8690
16623TIP3   OH271359   2.477   2.756   3.014  0.7167 -0.6645  0.6124
16623TIP3    H171360   2.519   2.673   2.993  0.0255 -0.3651 -2.4482
16623TIP3    H271361   2.546   2.821   3.003  1.1122 -0.6957  2.4679
16624TIP3   OH271362   4.758   5.509   3.136  0.2911  0.1005  0.5871
16624TIP3    H171363   4.764   5.414   3.122  1.4184 -0.0575  1.9599
16624TIP3    H271364   4.786   5.522   3.226 -0.0282  1.7397  0.4804
16625TIP3   OH271365   0.633   5.995  16.152 -0.2082  0.1366 -0.2076
16625TIP3    H171366   0.689   6.068  16.177  0.4034  0.3974 -2.2027
16625TIP3    H271367   0.687   5.917  16.163  0.3769  0.3354 -1.5658
16626TIP3   OH271368   2.908   5.503   4.264 -0.2052  0.3289 -0.0452
16626TIP3    H171369   2.979   5.552   4.306 -0.1593  1.2997 -1.1619
16626TIP3    H271370   2.899   5.423   4.315 -1.0171  1.9462  2.5827
16627TIP3   OH271371   3.238   0.916   3.236  0.3802 -0.1485  0.1936
16627TIP3    H171372   3.199   0.831   3.256 -1.8261  0.7726  0.0510
16627TIP3    H271373   3.277   0.904   3.149  1.4386 -1.4034  0.7982
16628TIP3   OH271374   0.551   6.562  11.371 -0.0215 -0.6292  0.1812
16628TIP3    H171375   0.516   6.587  11.285 -0.2489 -4.1689 -0.9269
16628TIP3    H271376   0.525   6.471  11.381  0.0208 -0.3688  4.0822
16629TIP3   OH271377   5.994   1.384   4.408 -0.0454  0.2237  0.1521
16629TIP3    H171378   5.951   1.464   4.438  1.1708  1.2021 -0.6288
16629TIP3    H271379   6.006   1.332   4.487 -0.5595  0.9452  0.7256
16630TIP3   OH271380   4.613   2.098  12.101 -0.2838 -0.8198  0.1098
16630TIP3    H171381   4.553   2.068  12.168  0.2557  0.5847  1.2743
16630TIP3    H271382   4.610   2.193  12.106  1.6367 -0.6932 -0.1206
16631TIP3   OH271383   6.768   4.917   5.164 -0.1279 -0.2755 -0.7390
16631TIP3    H171384   6.800   4.839   5.209  1.3425  0.9181  0.3990
16631TIP3    H271385   6.840   4.942   5.107  0.2222  1.2930  0.3233
16632TIP3   OH271386   4.491   0.817  10.425  0.3112  0.3205  0.7177
16632TIP3    H171387   4.572   0.782  10.387  0.8037 -0.4178  2.3575
16632TIP3    H271388   4.520   0.882  10.489 -0.4622  1.0816  0.3121
16633TIP3   OH271389   0.955   5.762  15.457  0.0951 -0.4469  0.1599
16633TIP3    H171390   1.016   5.827  15.425  0.5643 -0.2509  1.3992
16633TIP3    H271391   1.009   5.685  15.476 -0.4379 -1.1914 -1.2133
16634TIP3   OH271392   2.800   5.323   0.526  0.2905 -0.6043  0.7405
16634TIP3    H171393   2.885   5.349   0.561  0.0894 -0.1500  0.8909
16634TIP3    H271394   2.751   5.404   0.519  0.4560 -0.6102 -0.9678
16635TIP3   OH271395   5.484   2.583   0.448 -0.3925 -0.3540 -0.0211
16635TIP3    H171396   5.464   2.496   0.483 -0.5048 -0.3031  0.0444
16635TIP3    H271397   5.499   2.636   0.525 -2.2490  0.1513  0.0563
16636TIP3   OH271398   0.229   6.801   2.817 -0.1529  0.0174  0.1218
16636TIP3    H171399   0.146   6.849   2.809 -0.2275 -0.0192  0.6327
16636TIP3    H271400   0.250   6.807   2.910 -1.7591 -3.5783  0.8621
16637TIP3   OH271401   2.356   4.440   0.206 -0.1093 -0.6503  0.9987
16637TIP3    H171402   2.398   4.525   0.194 -0.5858 -0.3522  1.4130
16637TIP3    H271403   2.412   4.378   0.159 -0.0614 -0.0285  0.2232
16638TIP3   OH271404   1.430   0.650  10.741  0.1028 -0.0012  0.0981
16638TIP3    H171405   1.365   0.690  10.683  2.0206  0.9651 -1.5436
16638TIP3    H271406   1.500   0.715  10.745  2.3572 -2.2286 -0.8459
16639TIP3   OH271407   0.352   0.678  12.603  0.9686 -0.4090 -0.3788
16639TIP3    H171408   0.414   0.733  12.652 -0.8317  0.9376  0.4756
16639TIP3    H271409   0.290   0.648  12.668 -0.0280 -0.6653 -1.4269
16640TIP3   OH271410   1.413   3.758  12.896 -0.2561  0.0544  0.0417
16640TIP3    H171411   1.437   3.692  12.831  2.3803 -0.3387  1.3268
16640TIP3    H271412   1.341   3.806  12.854 -0.4702 -1.8844 -2.0269
16641TIP3   OH271413   0.282   1.888   0.787 -0.0483  0.1486 -0.0345
16641TIP3    H171414   0.269   1.944   0.710  0.9583 -0.2429 -0.5053
16641TIP3    H271415   0.261   1.944   0.862  0.4690  1.0084 -0.5248
16642TIP3   OH271416   6.383   5.707   3.191  0.5387  0.3237 -0.6954
16642TIP3    H171417   6.347   5.748   3.112 -1.1801 -0.8609 -0.5864
16642TIP3    H271418   6.365   5.614   3.180  0.9388  0.0518  0.7537
16643TIP3   OH271419   6.255   0.924  15.901 -0.5622  0.7632  0.4754
16643TIP3    H171420   6.238   0.980  15.978  2.1278  1.2028  0.8308
16643TIP3    H271421   6.350   0.926  15.891 -0.5617 -2.0807 -0.8069
16644TIP3   OH271422   1.331   4.556   2.675 -0.2351  0.9411  1.0088
16644TIP3    H171423   1.291   4.573   2.760 -2.5052 -1.3980  0.5332
16644TIP3    H271424   1.370   4.469   2.684 -1.1728  0.3238 -0.5017
16645TIP3   OH271425   5.192   0.654  11.026 -0.0698  0.0828  0.8558
16645TIP3    H171426   5.118   0.594  11.026 -0.1812  0.1126 -1.8730
16645TIP3    H271427   5.194   0.690  11.115 -1.6961 -1.8484  1.7452
16646TIP3   OH271428   2.597   0.956  13.485 -0.4401 -0.4441 -0.0683
16646TIP3    H171429   2.546   0.920  13.413  1.2499 -0.0204 -1.5502
16646TIP3    H271430   2.533   0.972  13.555 -2.0427 -1.3463 -1.2712
16647TIP3   OH271431   2.496   1.956   5.477  0.2484  0.1319 -0.2279
16647TIP3    H171432   2.563   2.009   5.435  0.5030 -0.0906 -0.1055
16647TIP3    H271433   2.447   2.017   5.532  0.6153  0.2179  0.0035
16648TIP3   OH271434   0.897   3.665  14.030  0.4322 -0.3144 -0.0841
16648TIP3    H171435   0.919   3.749  13.988  0.0867 -0.2100 -0.0578
16648TIP3    H271436   0.956   3.602  13.988 -0.6239 -0.4067 -1.5161
16649TIP3   OH271437   2.766   1.581   3.069  0.1844  0.3935  0.1224
16649TIP3    H171438   2.740   1.529   2.993  1.9710 -0.5292  0.1030
16649TIP3    H271439   2.743   1.526   3.144  0.2635  0.4253  0.1698
16650TIP3   OH271440   0.111   2.935   4.414  0.1330  0.2494  0.1204
16650TIP3    H171441   0.150   3.022   4.415 -2.0667  1.3684 -1.7716
16650TIP3    H271442   0.061   2.932   4.332 -1.5089 -2.0341  1.0923
16651TIP3   OH271443   2.689   5.949  12.282  0.3473  0.0692 -0.4459
16651TIP3    H171444   2.704   6.041  12.263  0.3365 -0.1990 -1.8680
16651TIP3    H271445   2.775   5.908  12.273  0.4585  0.0135  0.7328
16652TIP3   OH271446   4.903   3.691  13.643  0.8968 -0.1749 -0.4753
16652TIP3    H171447   4.968   3.726  13.704  1.2941 -0.6654 -0.6132
16652TIP3    H271448   4.945   3.696  13.558  0.9165 -0.8848 -0.5116
16653TIP3   OH271449   0.172   2.542  12.566 -0.2969 -0.1759 -0.3062
16653TIP3    H171450   0.091   2.510  12.606  0.8493 -0.6593  1.7462
16653TIP3    H271451   0.229   2.466  12.562  0.8926  0.6407  0.4917
16654TIP3   OH271452   5.905   5.412  15.295  0.3027  0.4155  0.4453
16654TIP3    H171453   5.873   5.498  15.323  0.2687  0.7167 -0.4549
16654TIP3    H271454   5.851   5.349  15.342  0.3716  0.8861  1.1664
16655TIP3   OH271455   1.612   4.639  12.799  0.0505 -0.0624  0.0805
16655TIP3    H171456   1.660   4.575  12.851 -0.6539 -1.5037 -0.9650
16655TIP3    H271457   1.651   4.723  12.823  1.0379 -0.8687  1.4664
16656TIP3   OH271458   4.964   6.351   0.359 -0.1065 -0.5463  0.1438
16656TIP3    H171459   5.000   6.281   0.413  0.0319 -0.7206 -0.1751
16656TIP3    H271460   4.952   6.424   0.420  1.7850 -0.1114  0.0700
16657TIP3   OH271461   6.758   1.412   4.475 -0.2926 -0.0132  0.1443
16657TIP3    H171462   6.694   1.452   4.416 -0.2414 -1.2708 -0.8078
16657TIP3    H271463   6.838   1.406   4.422  0.5463  1.2048  1.1946
16658TIP3   OH271464   4.155   0.301   0.022  0.5065  0.7637  0.6424
16658TIP3    H171465   4.087   0.325   0.085  1.6396  2.2722  1.3528
16658TIP3    H271466   4.202   0.382   0.005  1.8594 -0.1464 -0.1615
16659TIP3   OH271467   2.970   4.437   2.842  0.2887 -0.4553  0.7921
16659TIP3    H171468   2.995   4.528   2.824  1.5399 -1.1721 -1.5143
16659TIP3    H271469   3.049   4.397   2.877  0.1888 -0.9961  0.4150
16660TIP3   OH271470   5.513   4.225  11.331 -0.4822  0.2925  0.4311
16660TIP3    H171471   5.471   4.303  11.368 -1.0011  0.6531 -0.8832
16660TIP3    H271472   5.553   4.255  11.249 -0.1658 -0.6908  0.2070
16661TIP3   OH271473   3.326   4.381  13.958  0.0361 -0.0467 -0.4822
16661TIP3    H171474   3.303   4.301  14.005 -0.3699  1.3877  1.8804
16661TIP3    H271475   3.243   4.420  13.933  0.1712  0.4656 -0.1497
16662TIP3   OH271476   5.812   4.128  10.917  0.8181 -0.6876  0.1244
16662TIP3    H171477   5.901   4.096  10.930  1.4014  1.3313  1.5892
16662TIP3    H271478   5.823   4.210  10.868  0.1462  1.2799  2.9953
16663TIP3   OH271479   6.636   5.748  13.952  0.9977 -0.6469  0.4079
16663TIP3    H171480   6.712   5.692  13.938  1.8921 -0.1590  2.8998
16663TIP3    H271481   6.626   5.753  14.047 -2.1415 -0.6427  0.1801
16664TIP3   OH271482   2.443   3.159   1.369 -0.1916  0.0982 -0.7653
16664TIP3    H171483   2.357   3.201   1.362 -0.3239 -0.4728 -3.1514
16664TIP3    H271484   2.505   3.225   1.337  0.0187 -0.2414 -1.0630
16665TIP3   OH271485   6.420   1.378  11.999  0.1569  0.0627 -0.0433
16665TIP3    H171486   6.458   1.466  12.004 -0.6405  0.3593  0.9768
16665TIP3    H271487   6.474   1.325  12.058 -0.4929  0.3042  0.7876
16666TIP3   OH271488   0.122   3.140   0.790 -0.1429  0.3104  0.0068
16666TIP3    H171489   0.122   3.184   0.705  0.6438 -0.5319 -0.4466
16666TIP3    H271490   0.077   3.057   0.774  2.9295 -1.4059 -0.4823
16667TIP3   OH271491   0.017   2.185   1.517 -0.1580  0.0872 -0.0111
16667TIP3    H171492   0.092   2.242   1.533 -0.5796  0.1409  2.0734
16667TIP3    H271493   0.051   2.096   1.527 -0.4977  0.1290  1.7554
16668TIP3   OH271494   5.398   0.674  11.646 -0.1962  0.6182  0.3831
16668TIP3    H171495   5.405   0.582  11.668 -1.4729  0.8160  1.7091
16668TIP3    H271496   5.395   0.719  11.730  2.7613  2.1218 -0.1762
16669TIP3   OH271497   3.073   0.377  13.299  0.1545 -0.1574  0.4837
16669TIP3    H171498   3.124   0.415  13.227  1.1241  1.1695  1.8080
16669TIP3    H271499   3.139   0.346  13.361 -0.6563 -0.8161  1.0388
16670TIP3   OH271500   5.719   6.601  16.738  0.2007 -0.2000 -0.0371
16670TIP3    H171501   5.689   6.692  16.744  0.9235  0.1835 -1.4929
16670TIP3    H271502   5.812   6.606  16.760  0.7884 -0.1599 -2.2734
16671TIP3   OH271503   4.754   4.028   0.655  0.3269  0.5578 -0.4680
16671TIP3    H171504   4.802   4.085   0.595  0.3261  0.6303 -0.3993
16671TIP3    H271505   4.822   3.973   0.695  0.5046  1.4714  0.5253
16672TIP3   OH271506   5.364   0.744   3.477  0.0719  0.5980 -0.1170
16672TIP3    H171507   5.358   0.748   3.572 -0.5196 -0.6367 -0.0699
16672TIP3    H271508   5.397   0.829   3.450  0.4398  0.8866  1.2096
16673TIP3   OH271509   4.367   2.623  12.187 -0.2459 -0.2533  0.5926
16673TIP3    H171510   4.344   2.656  12.100 -0.7856  0.2741  0.9244
16673TIP3    H271511   4.304   2.665  12.246  1.0738  0.6064  1.4432
16674TIP3   OH271512   0.552   4.961   5.154  0.0160 -0.0663  0.3541
16674TIP3    H171513   0.632   4.950   5.204 -0.1315  1.7313  1.0587
16674TIP3    H271514   0.482   4.936   5.214 -0.0282 -0.2142  0.2407
16675TIP3   OH271515   3.743   5.591  10.725 -0.8979  0.5672 -0.0328
16675TIP3    H171516   3.744   5.663  10.662  0.9643 -0.6822 -1.5806
16675TIP3    H271517   3.728   5.513  10.672  1.4325 -0.6170  0.8685
16676TIP3   OH271518   0.122   5.512   3.256 -0.1250 -0.2194 -0.0336
16676TIP3    H171519   0.040   5.507   3.306  0.3822  0.3897  0.8863
16676TIP3    H271520   0.096   5.490   3.166 -1.5133  1.0088  0.0192
16677TIP3   OH271521   2.211   2.186  12.836 -0.3758 -0.0554  0.2703
16677TIP3    H171522   2.184   2.231  12.756  0.3081 -1.4313 -0.7800
16677TIP3    H271523   2.168   2.235  12.906 -4.0788 -0.9710 -1.1086
16678TIP3   OH271524   3.975   1.100  11.648  0.0096 -0.2402 -0.0367
16678TIP3    H171525   4.011   1.028  11.596  0.5126  0.1470 -0.2402
16678TIP3    H271526   3.938   1.160  11.584  1.2564  0.5818 -0.0349
16679TIP3   OH271527   0.124   4.757  11.518 -0.1871 -0.3010 -0.4799
16679TIP3    H171528   0.114   4.850  11.540 -0.5970 -0.4989  0.2259
16679TIP3    H271529   0.075   4.746  11.437  0.6594  0.2864 -1.0926
16680TIP3   OH271530   2.522   4.019  13.438  0.9437 -0.2623 -0.0748
16680TIP3    H171531   2.522   4.110  13.469  2.1032 -0.5781  0.9489
16680TIP3    H271532   2.451   3.977  13.486 -0.0047  0.2169 -1.0067
16681TIP3   OH271533   0.119   4.735  13.954  0.0111 -0.6796  0.1800
16681TIP3    H171534   0.166   4.700  13.878  1.8901  0.3572  0.8068
16681TIP3    H271535   0.104   4.658  14.010  0.6786 -1.0793 -0.1826
16682TIP3   OH271536   5.793   5.735  15.919  0.0510 -0.7322  0.0438
16682TIP3    H171537   5.698   5.733  15.933  0.0613  0.2145  0.2918
16682TIP3    H271538   5.804   5.713  15.827 -0.5059  0.5238 -0.3368
16683TIP3   OH271539   5.932   3.018   3.303 -0.2499 -0.2648 -0.2576
16683TIP3    H171540   5.983   3.075   3.361 -0.5018  1.9956 -2.0813
16683TIP3    H271541   5.848   3.009   3.347  0.4519 -0.9129  1.0040
16684TIP3   OH271542   3.414   4.091   5.144 -0.3924  0.2022  0.2120
16684TIP3    H171543   3.452   4.118   5.227 -0.8235  1.4312  0.0404
16684TIP3    H271544   3.321   4.112   5.152 -0.5623 -0.3086 -0.3271
16685TIP3   OH271545   2.488   1.770   5.087 -0.8850  0.1021 -0.2402
16685TIP3    H171546   2.536   1.853   5.082  1.5079 -1.0077  1.9707
16685TIP3    H271547   2.511   1.725   5.006 -2.4676  1.6323 -1.6208
16686TIP3   OH271548   0.242   6.311   2.179  0.2091  0.4557  0.2431
16686TIP3    H171549   0.252   6.336   2.087  0.0246  1.0869  0.3923
16686TIP3    H271550   0.330   6.281   2.205 -0.3165 -2.3695 -0.8789
16687TIP3   OH271551   4.993   6.217  14.388  0.3351  0.0610  0.3506
16687TIP3    H171552   5.078   6.207  14.432  1.2424  1.0822 -1.0871
16687TIP3    H271553   4.986   6.311  14.370 -0.7731 -0.1157 -0.2124
16688TIP3   OH271554   2.964   6.693   1.287 -0.3112  0.5711  0.8865
16688TIP3    H171555   3.010   6.626   1.338  1.6089  1.7810  0.8591
16688TIP3    H271556   2.873   6.686   1.314 -0.4458 -2.8454 -0.0052
16689TIP3   OH271557   5.308   2.974  11.607 -0.0370 -0.1352 -0.3428
16689TIP3    H171558   5.229   2.928  11.578 -0.3767 -1.1648  1.9605
16689TIP3    H271559   5.321   3.044  11.543 -1.4239 -1.4133 -2.1127
16690TIP3   OH271560   5.460   2.585  10.657 -0.0968 -0.1818 -0.0102
16690TIP3    H171561   5.476   2.642  10.732 -0.6248 -1.1033  0.8268
16690TIP3    H271562   5.546   2.575  10.615  0.1909  0.3752  0.4381
16691TIP3   OH271563   3.427   6.612   3.255  0.7536  0.4968 -0.4371
16691TIP3    H171564   3.409   6.579   3.167  0.8292 -1.3932  0.1981
16691TIP3    H271565   3.357   6.575   3.309 -0.1998  2.8770  0.1136
16692TIP3   OH271566   4.981   5.897  16.800  0.1109  0.2200 -0.5429
16692TIP3    H171567   5.024   5.937  16.876  0.1203  0.0829 -0.4753
16692TIP3    H271568   5.053   5.873  16.741  0.6142 -4.0630  1.4415
16693TIP3   OH271569   6.591   4.460  12.357  0.3143 -0.6313  0.3528
16693TIP3    H171570   6.572   4.499  12.272 -0.7007 -1.8990 -0.0400
16693TIP3    H271571   6.590   4.534  12.418  1.9557  0.4273 -0.8199
16694TIP3   OH271572   4.658   4.490   4.194 -0.2016  0.3426 -0.2169
16694TIP3    H171573   4.661   4.522   4.284 -0.6322 -0.5570  0.1357
16694TIP3    H271574   4.685   4.398   4.201 -2.9696 -0.5953 -0.5577
16695TIP3   OH271575   1.452   2.764   3.905 -0.0934 -0.1778  0.4026
16695TIP3    H171576   1.482   2.822   3.835  0.2197  0.0345  0.7102
16695TIP3    H271577   1.427   2.683   3.861  0.4744 -0.1847  0.0912
16696TIP3   OH271578   2.658   3.634   3.770  0.3613 -0.0168  0.2400
16696TIP3    H171579   2.735   3.690   3.761  1.0919 -0.9310  0.5263
16696TIP3    H271580   2.663   3.573   3.696  2.1176 -2.5726  2.2840
16697TIP3   OH271581   6.258   6.173  14.824  0.1451  0.2376  0.6186
16697TIP3    H171582   6.348   6.150  14.848  1.8483  3.1155 -2.1109
16697TIP3    H271583   6.240   6.253  14.873 -1.0832 -0.4610  1.3471
16698TIP3   OH271584   6.406   2.830  13.586  0.2345 -0.2387 -0.1174
16698TIP3    H171585   6.473   2.893  13.610  1.7503 -1.5182 -0.7721
16698TIP3    H271586   6.353   2.874  13.520 -0.2466  1.1536  1.1563
16699TIP3   OH271587   2.444   0.426   5.222  0.6144  0.3389  0.1465
16699TIP3    H171588   2.412   0.511   5.253 -0.4521 -0.3325  0.9727
16699TIP3    H271589   2.538   0.428   5.238  0.7116  1.6301 -0.5035
16700TIP3   OH271590   1.155   6.623  16.931  0.8481 -0.0338 -0.3848
16700TIP3    H171591   1.239   6.621  16.887  0.0414  0.1798 -2.0132
16700TIP3    H271592   1.136   6.717  16.942  0.1295 -0.0350 -1.4669
16701TIP3   OH271593   0.094   3.488   0.975 -0.2318 -0.0189 -0.4703
16701TIP3    H171594   0.071   3.454   0.889  0.6263 -0.8299 -0.3918
16701TIP3    H271595   0.126   3.577   0.959 -0.2478 -0.1028 -0.9678
16702TIP3   OH271596   6.687   5.205  15.493  0.3185 -0.0344 -0.3896
16702TIP3    H171597   6.659   5.290  15.458 -0.2739  0.1162  0.4080
16702TIP3    H271598   6.709   5.153  15.416 -0.5424  0.4221 -0.9627
16703TIP3   OH271599   1.014   5.960  12.599  0.4306  0.4718 -0.2367
16703TIP3    H171600   0.945   5.917  12.550 -0.1926  0.1232  0.9121
16703TIP3    H271601   1.095   5.921  12.566  0.0445  0.4059 -1.1218
16704TIP3   OH271602   0.716   2.657  13.727 -0.4652 -0.4041 -0.3325
16704TIP3    H171603   0.749   2.638  13.815 -0.6967  1.0164  0.0835
16704TIP3    H271604   0.693   2.571  13.691 -0.0075 -1.0425  0.8407
16705TIP3   OH271605   3.569   4.728   2.067 -0.0511  0.6360 -0.2307
16705TIP3    H171606   3.553   4.719   2.161  2.1923  2.1311  0.3734
16705TIP3    H271607   3.547   4.819   2.048 -1.9416 -0.0433 -1.5415
16706TIP3   OH271608   5.763   6.505   5.074  0.2689 -0.6153 -0.0625
16706TIP3    H171609   5.814   6.529   5.152  2.2295 -1.6040 -0.9621
16706TIP3    H271610   5.728   6.588   5.041 -1.2863 -0.2616  2.2516
16707TIP3   OH271611   1.650   1.114   3.749 -0.2159  0.2782  0.1237
16707TIP3    H171612   1.722   1.173   3.727  0.0301  0.1381  0.5354
16707TIP3    H271613   1.620   1.080   3.665  1.0830 -0.6919  0.0188
16708TIP3   OH271614   5.495   0.150  12.928  0.0839  0.7100 -0.0693
16708TIP3    H171615   5.484   0.072  12.875  1.0953  2.0627 -2.4245
16708TIP3    H271616   5.583   0.141  12.965 -1.0702 -0.8351  2.6242
16709TIP3   OH271617   6.431   2.709   5.194 -0.3143 -0.4873  0.6467
16709TIP3    H171618   6.412   2.681   5.104  0.4393 -0.9576  0.6247
16709TIP3    H271619   6.521   2.680   5.209  0.0207  0.7631  1.0992
16710TIP3   OH271620   3.230   4.347   5.364  0.4494 -0.1063  0.5355
16710TIP3    H171621   3.145   4.369   5.404 -0.0391 -0.4266 -0.2882
16710TIP3    H271622   3.263   4.430   5.332  1.3892  0.3644  2.5406
16711TIP3   OH271623   3.469   4.830   4.179  0.2466 -0.7236  0.7340
16711TIP3    H171624   3.469   4.831   4.274  1.0817 -0.6454  0.7390
16711TIP3    H271625   3.525   4.903   4.154 -0.1502 -0.6036  0.1792
16712TIP3   OH271626   1.872   1.008   5.583  0.0503 -0.0264 -0.6327
16712TIP3    H171627   1.842   0.955   5.509 -0.0709  0.8177 -1.1912
16712TIP3    H271628   1.915   0.945   5.641 -2.5647 -1.2768  0.1213
16713TIP3   OH271629   4.451   0.450   3.045 -0.3669 -0.9607  0.5338
16713TIP3    H171630   4.525   0.422   2.992  1.1191 -1.9535  2.9436
16713TIP3    H271631   4.472   0.540   3.070 -0.1144 -1.1395  0.9714
16714TIP3   OH271632   1.801   3.184   1.945 -0.3632  0.3573 -0.2425
16714TIP3    H171633   1.851   3.117   1.991  1.2024  1.5557 -0.1221
16714TIP3    H271634   1.718   3.190   1.993 -0.3009 -1.0469  0.0852
16715TIP3   OH271635   1.273   6.104  10.397  0.1021  0.0412 -0.2942
16715TIP3    H171636   1.261   6.138  10.486 -0.5245 -0.1442 -0.3088
16715TIP3    H271637   1.259   6.180  10.340 -1.1272 -0.1804 -0.3173
16716TIP3   OH271638   6.796   2.860   3.870  0.0967  0.8997  0.3603
16716TIP3    H171639   6.756   2.881   3.786  0.3942 -1.8192 -0.5332
16716TIP3    H271640   6.727   2.881   3.934 -1.6321 -0.6336 -0.8825
16717TIP3   OH271641   4.901   1.742   4.636 -0.0151 -0.1216  0.4834
16717TIP3    H171642   4.956   1.671   4.669  0.9315  0.1276 -0.5273
16717TIP3    H271643   4.938   1.821   4.676 -0.1039 -0.0270  0.3781
16718TIP3   OH271644   3.747   4.744  12.432  0.0064 -0.0795 -0.1308
16718TIP3    H171645   3.773   4.818  12.377  3.7013 -1.6971 -0.8876
16718TIP3    H271646   3.683   4.696  12.379  1.9138 -0.4569 -2.2557
16719TIP3   OH271647   0.909   4.698  13.582  0.0412 -0.0048  0.5688
16719TIP3    H171648   0.954   4.632  13.635  1.7557  1.6296  1.2706
16719TIP3    H271649   0.825   4.711  13.625 -0.7523 -2.3474 -0.1272
16720TIP3   OH271650   2.097   0.387  12.735  0.1652 -0.3129  0.3455
16720TIP3    H171651   2.085   0.328  12.810 -1.5521 -0.3716  0.0640
16720TIP3    H271652   2.136   0.331  12.668  1.3848 -0.3480  1.0535
16721TIP3   OH271653   1.242   4.035  16.501 -0.1617 -0.1024 -0.4166
16721TIP3    H171654   1.281   4.119  16.524  1.0132 -0.6616 -0.2768
16721TIP3    H271655   1.317   3.980  16.477 -0.8168 -1.3639  0.3124
16722TIP3   OH271656   2.865   1.973   0.753  0.4245  0.5959  0.2394
16722TIP3    H171657   2.890   1.953   0.843  0.3790  0.2588  0.1801
16722TIP3    H271658   2.920   1.914   0.700  1.3908  1.6829 -0.0218
16723TIP3   OH271659   2.769   6.187  12.218  0.1335  0.0738  0.1457
16723TIP3    H171660   2.752   6.270  12.174  2.4274  0.2439 -0.5386
16723TIP3    H271661   2.812   6.212  12.300 -0.8680 -0.3823  0.8231
16724TIP3   OH271662   2.183   0.125  14.156 -0.5137 -0.9119  0.2566
16724TIP3    H171663   2.255   0.136  14.093 -0.8879 -0.1986 -0.0591
16724TIP3    H271664   2.182   0.207  14.205 -2.0597 -0.2741 -0.7626
16725TIP3   OH271665   4.538   0.502  17.091 -0.0784 -0.2267  0.9277
16725TIP3    H171666   4.632   0.516  17.089 -0.2844  1.6947  2.0444
16725TIP3    H271667   4.525   0.440  17.164  0.4569 -2.5722 -0.8562
16726TIP3   OH271668   4.089   2.664  14.759  0.1922 -0.1246  0.0228
16726TIP3    H171669   4.163   2.714  14.726 -1.0127  1.8464  0.1163
16726TIP3    H271670   4.042   2.636  14.681  0.8929 -1.1979 -0.0307
16727TIP3   OH271671   0.261   1.405  15.429 -0.1491 -0.2469  0.0484
16727TIP3    H171672   0.188   1.365  15.380  1.0674 -1.6335 -0.7107
16727TIP3    H271673   0.218   1.463  15.492 -1.8345  1.8838 -2.7741
16728TIP3   OH271674   4.838   2.971   4.100  0.1453 -0.2466  0.5188
16728TIP3    H171675   4.924   2.963   4.058 -1.4330 -1.6049 -2.8494
16728TIP3    H271676   4.805   2.881   4.104 -2.6410  0.4848 -2.1172
16729TIP3   OH271677   5.395   1.643  14.873 -0.4390  0.1788  0.4761
16729TIP3    H171678   5.373   1.597  14.955  0.9939  0.0763  0.8196
16729TIP3    H271679   5.315   1.635  14.820 -1.2874 -0.0369  1.7258
16730TIP3   OH271680   1.224   2.332   0.890 -0.1621  0.5158 -0.2246
16730TIP3    H171681   1.271   2.334   0.973  0.8885 -3.6205 -0.5092
16730TIP3    H271682   1.293   2.338   0.824 -0.6776  0.6788 -0.7534
16731TIP3   OH271683   2.969   6.323  15.737  0.5507 -0.0033  0.3140
16731TIP3    H171684   2.910   6.292  15.805  1.7307  1.7028  2.2603
16731TIP3    H271685   3.025   6.248  15.717  0.1581 -0.5557  1.2401
16732TIP3   OH271686   5.783   0.031   1.365  0.2128 -0.0192  0.1483
16732TIP3    H171687   5.746  -0.003   1.447 -0.3618  0.2015 -0.0191
16732TIP3    H271688   5.709   0.070   1.319  0.4882 -0.3466 -0.5888
16733TIP3   OH271689   4.190   1.361  15.808  0.0819  0.6792  0.4848
16733TIP3    H171690   4.154   1.416  15.877 -0.6708 -0.2140  0.8255
16733TIP3    H271691   4.155   1.274  15.827  0.8460  0.1898 -0.3287
16734TIP3   OH271692   6.804   2.288   2.399  0.2012  0.4125  0.5457
16734TIP3    H171693   6.786   2.237   2.478 -0.6527  1.2206  0.8888
16734TIP3    H271694   6.743   2.361   2.404  1.3932  1.4713  0.0759
16735TIP3   OH271695   6.528   0.802  15.599  0.2678  0.4631 -0.4098
16735TIP3    H171696   6.523   0.835  15.688 -0.0655 -0.5292 -0.0454
16735TIP3    H271697   6.621   0.799  15.579  0.3783  0.1376  0.1288
16736TIP3   OH271698   3.307   6.601  12.921 -0.1139  0.2978 -0.0401
16736TIP3    H171699   3.307   6.615  12.826  0.9734  2.1916  0.1814
16736TIP3    H271700   3.292   6.689  12.957 -2.0523 -0.6186  1.5501
16737TIP3   OH271701   2.380   1.942  14.375 -0.8474 -0.0522  0.4665
16737TIP3    H171702   2.423   1.938  14.290  0.3318 -1.6373  1.0774
16737TIP3    H271703   2.306   1.882  14.367  0.0522 -1.2907  0.9033
16738TIP3   OH271704   4.901   0.918  11.836 -0.6219 -0.2179  0.1551
16738TIP3    H171705   4.826   0.875  11.876 -0.3566 -0.6484  0.2022
16738TIP3    H271706   4.873   0.939  11.747 -0.2577 -1.8760 -0.3784
16739TIP3   OH271707   1.435   2.394   0.670 -0.5324 -0.2070  0.3864
16739TIP3    H171708   1.359   2.441   0.636 -1.8577 -2.2567  0.3511
16739TIP3    H271709   1.502   2.461   0.678 -2.3374  1.7055  0.4683
16740TIP3   OH271710   4.027   3.571  15.724 -0.2397  0.5632 -0.0134
16740TIP3    H171711   4.083   3.505  15.764 -0.7233  0.4694  0.5095
16740TIP3    H271712   4.073   3.594  15.643 -0.1283 -0.5042 -0.2716
16741TIP3   OH271713   4.924   3.966  16.646 -0.4215 -0.1939 -0.4609
16741TIP3    H171714   4.903   3.882  16.687  2.0197 -0.6452  0.0226
16741TIP3    H271715   5.016   3.960  16.623  0.3573  2.9508  1.1706
16742TIP3   OH271716   5.481   0.207   2.203 -0.0689  0.2909 -0.2580
16742TIP3    H171717   5.401   0.154   2.212  1.1233 -1.6683 -0.7639
16742TIP3    H271718   5.536   0.180   2.277 -0.4018  2.7220  0.9769
16743TIP3   OH271719   5.719   4.862   4.889 -0.4275 -0.0219 -0.7867
16743TIP3    H171720   5.721   4.916   4.968  1.1258  0.6525 -1.2516
16743TIP3    H271721   5.803   4.878   4.846 -0.7295 -1.3230 -1.9527
16744TIP3   OH271722   4.464   5.104  13.414  0.3756 -0.2311  0.3328
16744TIP3    H171723   4.544   5.059  13.385  0.7426 -1.1329  2.5034
16744TIP3    H271724   4.496   5.174  13.471 -0.3644  0.2031  0.2255
16745TIP3   OH271725   4.003   3.262  11.107 -0.7601  0.1765  0.0594
16745TIP3    H171726   4.014   3.201  11.034  1.1662 -0.7956  1.0775
16745TIP3    H271727   4.088   3.261  11.152 -0.7002  3.4917  0.2566
16746TIP3   OH271728   3.778   1.587   4.886 -0.4729  0.2732 -0.1402
16746TIP3    H171729   3.776   1.532   4.808  0.8699 -1.0916  0.7188
16746TIP3    H271730   3.852   1.647   4.872 -1.9238  1.9388 -1.0677
16747TIP3   OH271731   1.508   0.058  15.006  0.4945  0.0696  0.5643
16747TIP3    H171732   1.441   0.019  14.948  0.1381 -0.0211  1.0314
16747TIP3    H271733   1.541   0.133  14.957 -2.3439  2.2069  1.6345
16748TIP3   OH271734   0.428   4.089  12.491  0.3918  0.5026  0.7316
16748TIP3    H171735   0.522   4.099  12.475  0.5135 -1.9003 -0.6304
16748TIP3    H271736   0.388   4.096  12.404 -0.6300  0.8535  1.2104
16749TIP3   OH271737   1.607   5.971  15.739  0.1168 -1.0038 -0.3797
16749TIP3    H171738   1.599   6.048  15.795  1.2697 -0.6484 -0.6763
16749TIP3    H271739   1.522   5.928  15.745 -1.3221  1.4170 -1.8615
16750TIP3   OH271740   4.292   1.153  13.772  0.0024 -0.6545  0.4436
16750TIP3    H171741   4.362   1.092  13.748  1.0687  0.7474 -0.1465
16750TIP3    H271742   4.224   1.097  13.810  0.8786 -2.2162 -0.1790
16751TIP3   OH271743   0.451   2.664   1.842 -0.0772 -0.5389 -0.1578
16751TIP3    H171744   0.520   2.622   1.791  0.7618  0.2131  0.3374
16751TIP3    H271745   0.402   2.717   1.779 -0.2922 -1.1674 -0.5303
16752TIP3   OH271746   2.906   2.162   2.565  0.1016  0.4342  0.5831
16752TIP3    H171747   2.948   2.102   2.504  0.7803  0.1865  1.2723
16752TIP3    H271748   2.835   2.111   2.604  1.0240 -0.1570  1.5853
16753TIP3   OH271749   4.018   3.548  16.219 -0.3945  0.1276  0.4510
16753TIP3    H171750   3.963   3.626  16.228 -1.1444 -0.2598 -0.5694
16753TIP3    H271751   4.060   3.538  16.304 -1.8110  0.5156  1.2244
16754TIP3   OH271752   1.927   1.947   6.217  0.1026 -0.4064  0.1982
16754TIP3    H171753   1.913   1.954   6.312  0.7931 -2.0053  0.4569
16754TIP3    H271754   1.851   1.900   6.185 -0.2362  0.3241 -0.0998
16755TIP3   OH271755   0.603   6.080   3.748  0.1191  0.0856 -0.6227
16755TIP3    H171756   0.531   6.086   3.684 -0.2189  2.6475 -0.1035
16755TIP3    H271757   0.560   6.067   3.832  0.3150  0.7175 -0.4219
16756TIP3   OH271758   4.378   0.079  15.345 -0.1465 -0.1053  0.1645
16756TIP3    H171759   4.471   0.076  15.365 -0.2150  1.3620  0.7724
16756TIP3    H271760   4.336   0.037  15.421  0.0330 -1.4010 -0.4250
16757TIP3   OH271761   5.390   0.289  16.344 -1.1115 -0.2306 -0.2689
16757TIP3    H171762   5.298   0.313  16.332 -1.2478 -1.1586 -1.3769
16757TIP3    H271763   5.437   0.346  16.283 -0.9520  0.2057  0.2596
16758TIP3   OH271764   5.594   6.798   5.661 -0.1030  0.3463  0.1158
16758TIP3    H171765   5.602   6.884   5.703  0.4100 -0.0321  0.8247
16758TIP3    H271766   5.601   6.816   5.567  2.9930  0.7994  0.3428
16759TIP3   OH271767   4.767   6.807  14.880 -0.2351  0.1551 -0.0179
16759TIP3    H171768   4.748   6.724  14.837 -1.8487  1.1931 -1.4274
16759TIP3    H271769   4.688   6.828  14.929 -0.4388  1.5465 -0.8736
16760TIP3   OH271770   6.025   5.377  11.701  0.2259  0.1644  0.5620
16760TIP3    H171771   6.034   5.364  11.796 -0.6457  1.0976  0.7847
16760TIP3    H271772   6.078   5.455  11.682 -0.7026  0.7985  0.5228
16761TIP3   OH271773   2.270   4.158   1.206 -0.7539 -0.2837  0.3978
16761TIP3    H171774   2.317   4.208   1.139 -1.6718 -0.5443 -0.4622
16761TIP3    H271775   2.308   4.070   1.201 -0.7673 -0.2825  0.2783
16762TIP3   OH271776   5.048   2.350  15.798  0.2496  0.2305 -0.1702
16762TIP3    H171777   5.024   2.360  15.890  1.2103  0.0191  0.1050
16762TIP3    H271778   5.006   2.425  15.755 -0.7289 -0.0081  0.3241
16763TIP3   OH271779   4.007   1.312   5.011  0.7662  0.6393  0.2619
16763TIP3    H171780   4.038   1.330   5.100  1.7056 -0.4737  0.1959
16763TIP3    H271781   3.922   1.270   5.023  0.9690  0.3339  0.6595
16764TIP3   OH271782   6.823   0.064   6.702  0.2524  0.7504 -0.1884
16764TIP3    H171783   6.767   0.140   6.717  0.2744  0.8277 -0.4915
16764TIP3    H271784   6.853   0.073   6.611  1.3416  1.1013  0.1903
16765TIP3   OH271785   1.880   4.497  15.386  0.1885 -0.7353  0.9575
16765TIP3    H171786   1.939   4.446  15.331  1.0526 -0.7377  1.8590
16765TIP3    H271787   1.850   4.569  15.330  0.7309 -0.9628  0.3661
16766TIP3   OH271788   5.703   6.364  13.977 -0.4205 -0.2281  0.2995
16766TIP3    H171789   5.709   6.439  14.037  0.5954  0.2477 -0.3526
16766TIP3    H271790   5.638   6.306  14.016 -0.2289  0.3616  1.5310
16767TIP3   OH271791   1.293   3.877  12.360  0.3349  0.3033 -0.3834
16767TIP3    H171792   1.374   3.905  12.402  0.2271  0.2096 -0.1108
16767TIP3    H271793   1.318   3.858  12.269  0.4639  1.0055 -0.4979
16768TIP3   OH271794   5.946   6.639   0.431 -0.6765  0.3833  0.6662
16768TIP3    H171795   5.853   6.660   0.445 -0.7529 -0.0740  0.8571
16768TIP3    H271796   5.947   6.545   0.413 -0.3525  0.5708 -0.3583
16769TIP3   OH271797   2.569   0.051   3.626  0.9927 -0.0872  0.2607
16769TIP3    H171798   2.592   0.010   3.543  1.8987 -0.6297  0.7692
16769TIP3    H271799   2.625   0.129   3.630  1.6487 -0.5705  0.7816
16770TIP3   OH271800   0.290   4.526   4.586 -0.4452  0.1402  0.2111
16770TIP3    H171801   0.270   4.585   4.513  0.9070  1.6073  0.9790
16770TIP3    H271802   0.204   4.503   4.622 -1.0071  2.7643  0.7461
16771TIP3   OH271803   2.279   3.335  15.869  0.1986  0.0401  0.2512
16771TIP3    H171804   2.353   3.379  15.911  0.6634 -1.0061  0.5540
16771TIP3    H271805   2.275   3.373  15.781  1.2320 -0.0424  0.1588
16772TIP3   OH271806   3.861   5.553   2.525 -0.3880  0.2163  0.0722
16772TIP3    H171807   3.929   5.599   2.475 -0.1359 -1.8892 -1.6636
16772TIP3    H271808   3.909   5.502   2.590  0.2518 -3.6756 -3.0511
16773TIP3   OH271809   1.998   6.369   5.505 -0.2137 -0.4791 -0.1518
16773TIP3    H171810   2.086   6.406   5.497  0.5288 -2.1381  0.0186
16773TIP3    H271811   2.000   6.289   5.454 -2.3908  0.6284 -2.1514
16774TIP3   OH271812   2.426   5.062  12.085 -0.7655  0.4022  0.3157
16774TIP3    H171813   2.485   5.023  12.020 -0.1185  0.1403  1.0302
16774TIP3    H271814   2.349   5.088  12.036 -0.7830 -0.8589 -0.3641
16775TIP3   OH271815   6.726   3.253  12.789  0.0983  0.5294  0.3219
16775TIP3    H171816   6.764   3.213  12.712 -0.9628 -0.4520  0.2800
16775TIP3    H271817   6.783   3.328  12.808  1.6228 -0.4692 -0.1188
16776TIP3   OH271818   5.271   1.453   0.599 -0.3171  0.1519  0.2787
16776TIP3    H171819   5.245   1.409   0.680  2.9568 -1.3197  0.7187
16776TIP3    H271820   5.361   1.424   0.584 -0.6011  0.7383 -3.6730
16777TIP3   OH271821   2.779   0.735  11.678  0.3822  0.0130 -0.1225
16777TIP3    H171822   2.775   0.824  11.712  0.1937  0.1269 -0.4370
16777TIP3    H271823   2.766   0.745  11.584 -1.9984 -0.5533  0.0927
16778TIP3   OH271824   4.268   2.596   3.389  0.0429 -0.0364 -0.0230
16778TIP3    H171825   4.203   2.605   3.319 -5.5952 -0.3712  4.4195
16778TIP3    H271826   4.270   2.502   3.407  1.7355 -0.0040  0.1265
16779TIP3   OH271827   6.824   5.240   1.925  0.4249  0.3316  0.3364
16779TIP3    H171828   6.821   5.297   1.848  1.5014  2.4857  1.7874
16779TIP3    H271829   6.915   5.211   1.930  0.1084 -0.7362  0.1932
16780TIP3   OH271830   1.802   6.269   5.243 -0.2234 -0.0046 -0.1320
16780TIP3    H171831   1.746   6.299   5.314  1.2378 -0.2273  1.1560
16780TIP3    H271832   1.771   6.181   5.223 -2.1239  0.8716 -1.4051
16781TIP3   OH271833   2.040   0.805  13.503  0.2268  0.5469 -0.5823
16781TIP3    H171834   2.083   0.761  13.576  0.5637  4.0366  1.5276
16781TIP3    H271835   2.095   0.881  13.484 -0.7883  0.7248 -3.3670
16782TIP3   OH271836   5.132   5.889  17.032 -0.0794 -0.5120 -0.5633
16782TIP3    H171837   5.209   5.873  17.086 -1.1103 -1.7866  0.6040
16782TIP3    H271838   5.116   5.805  16.988 -0.4114 -0.0649 -1.3160
16783TIP3   OH271839   5.451   5.890  14.095 -0.5363  0.9120 -0.6414
16783TIP3    H171840   5.390   5.887  14.022  0.4973  2.2177 -1.6087
16783TIP3    H271841   5.518   5.825  14.073 -0.9126  0.3665 -0.1949
16784TIP3   OH271842   4.536   0.108   1.330 -0.4939 -0.4719 -0.4525
16784TIP3    H171843   4.469   0.080   1.393 -0.9545 -0.4797 -0.9401
16784TIP3    H271844   4.508   0.070   1.247  0.3346 -0.8101 -0.5871
16785TIP3   OH271845   2.438   6.319  16.605  0.1113 -0.0797 -0.0365
16785TIP3    H171846   2.483   6.235  16.609 -1.1328 -0.7696  0.1133
16785TIP3    H271847   2.500   6.382  16.642  0.7656 -1.0552  0.5593
16786TIP3   OH271848   2.273   0.487  15.998 -0.2093  0.4156 -0.3435
16786TIP3    H171849   2.244   0.573  16.027  0.9048  0.6371  0.1688
16786TIP3    H271850   2.313   0.447  16.075  0.4578 -0.0326 -0.9006
16787TIP3   OH271851   5.795   4.658   0.074 -0.1974 -0.2966 -0.5775
16787TIP3    H171852   5.785   4.732   0.013  0.4677  0.8692  0.6713
16787TIP3    H271853   5.725   4.671   0.138  1.5655  0.8778  1.2099
16788TIP3   OH271854   3.615   4.976   5.397  0.2805 -0.3924  0.4576
16788TIP3    H171855   3.528   5.015   5.391  0.6093  0.6385  2.0066
16788TIP3    H271856   3.649   4.979   5.307 -0.5785  0.8424  0.1570
16789TIP3   OH271857   3.277   3.278  16.915 -0.4158 -0.0885 -0.0517
16789TIP3    H171858   3.298   3.298  17.006 -0.4358  0.8124 -0.2353
16789TIP3    H271859   3.286   3.183  16.909  1.9130  0.0472  0.2978
16790TIP3   OH271860   4.390   6.159   4.999 -0.1282  0.9105 -0.7233
16790TIP3    H171861   4.444   6.217   4.945  2.0278  0.1005  0.4548
16790TIP3    H271862   4.408   6.071   4.966  0.6097  0.4787  0.7255
16791TIP3   OH271863   4.319   4.335   4.794  0.2139 -0.3854  0.1952
16791TIP3    H171864   4.277   4.419   4.810  3.3006  1.3090  0.1992
16791TIP3    H271865   4.290   4.309   4.707 -0.3059  1.0343 -0.0782
16792TIP3   OH271866   2.384   1.327  11.121  0.2516  0.5532  0.0288
16792TIP3    H171867   2.464   1.333  11.069  0.3556 -0.3200  0.0861
16792TIP3    H271868   2.397   1.390  11.192  0.5017  1.0686 -0.4608
16793TIP3   OH271869   3.157   4.611   5.261  0.1709  0.4756 -0.0302
16793TIP3    H171870   3.191   4.652   5.181  2.4382  1.7371  1.4873
16793TIP3    H271871   3.073   4.654   5.276 -0.2853  0.2361 -1.6842
16794TIP3   OH271872   5.613   3.246  11.598  0.4946 -0.1395 -0.2775
16794TIP3    H171873   5.621   3.249  11.693 -0.2873 -1.3580 -0.1461
16794TIP3    H271874   5.704   3.243  11.566  0.7611  0.5308  0.4139
16795TIP3   OH271875   2.373   5.668   4.281  0.3357 -0.1202  0.5762
16795TIP3    H171876   2.385   5.632   4.368 -1.5566 -0.6473  0.6602
16795TIP3    H271877   2.413   5.603   4.222 -0.8269 -1.1509  0.8884
16796TIP3   OH271878   3.478   3.173   4.212 -0.1555 -0.1373 -0.8116
16796TIP3    H171879   3.465   3.223   4.292  0.5560 -0.3865 -0.5397
16796TIP3    H271880   3.418   3.214   4.149  1.7146  2.2990 -1.1595
16797TIP3   OH271881   2.105   3.473  12.037 -0.3414 -0.3485  0.0587
16797TIP3    H171882   2.056   3.553  12.017  0.2293 -0.2109 -0.8554
16797TIP3    H271883   2.139   3.487  12.125 -3.7938 -1.3952  1.7066
16798TIP3   OH271884   4.719   2.774   6.422  0.5209  0.0023 -0.0178
16798TIP3    H171885   4.693   2.695   6.374 -0.5962  0.3677 -0.0516
16798TIP3    H271886   4.645   2.833   6.412 -0.1645 -0.2035  2.8356
16799TIP3   OH271887   5.791   3.673   1.881 -0.7122  0.2706  0.3617
16799TIP3    H171888   5.722   3.728   1.844  0.7810  2.2964  0.4472
16799TIP3    H271889   5.863   3.733   1.898  1.3012 -1.8490 -0.2184
16800TIP3   OH271890   4.496   5.945  16.792  0.1485 -0.0727  0.0019
16800TIP3    H171891   4.513   6.018  16.852 -0.0952 -0.0901  0.0926
16800TIP3    H271892   4.401   5.941  16.786  0.1332  1.5276 -2.3234
16801TIP3   OH271893   4.354   3.025   4.960 -0.4472  0.4243 -0.4285
16801TIP3    H171894   4.328   3.107   4.916 -1.1988  2.0352  2.7089
16801TIP3    H271895   4.449   3.032   4.967 -0.4619  0.8364 -0.5585
16802TIP3   OH271896   6.314   0.601  15.959  0.0419  0.0232 -0.4047
16802TIP3    H171897   6.407   0.580  15.973  0.1176  0.2844 -0.5008
16802TIP3    H271898   6.271   0.572  16.039  0.4607  1.4449  0.3780
16803TIP3   OH271899   6.693   1.722  10.398 -0.1597 -0.1029 -0.0251
16803TIP3    H171900   6.644   1.727  10.480 -0.8564  1.2316 -0.4865
16803TIP3    H271901   6.719   1.630  10.391 -1.4437 -0.5637  0.9084
16804TIP3   OH271902   5.555   0.734   3.951 -0.4354 -0.2118  0.4646
16804TIP3    H171903   5.572   0.686   4.032  2.7497  0.6706  0.4520
16804TIP3    H271904   5.539   0.824   3.979  0.2506  0.0100  0.1722
16805TIP3   OH271905   6.107   2.008   0.116 -0.7111 -0.2393 -0.3369
16805TIP3    H171906   6.155   1.927   0.135  0.0461  0.4272  0.6965
16805TIP3    H271907   6.047   1.984   0.045 -0.7990 -1.8064  0.2234
16806TIP3   OH271908   2.021   0.140  13.194 -0.3351  0.5351 -0.2088
16806TIP3    H171909   1.974   0.163  13.274 -0.0705  1.1666 -0.2277
16806TIP3    H271910   2.109   0.175  13.207 -0.2097  0.4028 -0.6669
16807TIP3   OH271911   2.247   0.061  10.358  0.2327 -0.5545  0.3351
16807TIP3    H171912   2.195   0.059  10.439 -0.9764 -0.1710 -0.4146
16807TIP3    H271913   2.211  -0.010  10.305  0.7334 -0.5305 -0.0456
16808TIP3   OH271914   5.032   1.749   3.487 -0.6486 -0.1810  0.2143
16808TIP3    H171915   4.956   1.745   3.430  0.0173  1.4166 -0.8830
16808TIP3    H271916   5.089   1.679   3.456 -1.7650 -1.5959  1.2573
16809TIP3   OH271917   6.260   1.352  15.824  0.0428  0.7550 -0.5918
16809TIP3    H171918   6.185   1.316  15.776  0.9448  0.4043 -1.7838
16809TIP3    H271919   6.252   1.446  15.815 -0.6770  0.7504 -0.0471
16810TIP3   OH271920   2.726   3.387   2.965 -0.0169 -0.0247  0.8259
16810TIP3    H171921   2.666   3.445   2.919  1.4719 -1.3983 -3.3642
16810TIP3    H271922   2.788   3.446   3.008 -0.7422  1.4500 -0.0807
16811TIP3   OH271923   1.553   2.963  14.181  0.6953  0.0188 -0.7960
16811TIP3    H171924   1.567   3.033  14.116  1.0644  0.3458 -0.3695
16811TIP3    H271925   1.521   3.009  14.259  1.9603 -0.1474 -0.1539
16812TIP3   OH271926   3.453   4.601  16.646 -0.3003  1.0074  0.8934
16812TIP3    H171927   3.475   4.679  16.698 -1.0952  0.7534  1.6491
16812TIP3    H271928   3.445   4.633  16.557 -1.4628  1.9792  1.3156
16813TIP3   OH271929   6.338   0.493   5.098 -0.4968  0.2513  0.2174
16813TIP3    H171930   6.431   0.497   5.119  0.2490 -1.1976 -2.3077
16813TIP3    H271931   6.322   0.569   5.043 -1.0439  0.9597  1.3288
16814TIP3   OH271932   1.499   2.849  12.843 -0.0586  0.4001 -0.3081
16814TIP3    H171933   1.477   2.880  12.755  1.2424  0.0314 -0.7828
16814TIP3    H271934   1.429   2.788  12.865  0.3102 -0.5477 -1.6539
16815TIP3   OH271935   0.982   5.765  13.418  0.4851 -0.6902 -0.0625
16815TIP3    H171936   0.984   5.727  13.330 -0.0012 -0.5126 -0.1544
16815TIP3    H271937   1.024   5.850  13.409 -0.6205 -0.1584 -0.3866
16816TIP3   OH271938   2.361   2.160   3.394  0.6978  0.3547 -0.7127
16816TIP3    H171939   2.292   2.105   3.430  0.3456  0.9680 -0.4379
16816TIP3    H271940   2.411   2.101   3.337 -1.4412  0.3920 -2.7911
16817TIP3   OH271941   3.561   3.872   1.759  0.1442 -0.3710  0.0731
16817TIP3    H171942   3.656   3.881   1.753  0.5431 -2.7154  1.6100
16817TIP3    H271943   3.540   3.805   1.694 -0.1490 -1.2574  1.0537
16818TIP3   OH271944   1.806   6.618   3.936 -0.4068  0.3024  0.3677
16818TIP3    H171945   1.814   6.598   4.029 -0.6841 -1.5963  0.0460
16818TIP3    H271946   1.717   6.652   3.927 -1.1009 -1.3519  0.5641
16819TIP3   OH271947   0.234   5.644   3.494 -0.1264 -0.2014  0.3694
16819TIP3    H171948   0.263   5.592   3.569  0.7620 -0.3243 -0.0412
16819TIP3    H271949   0.213   5.580   3.427  0.6891 -0.0537 -0.0399
16820TIP3   OH271950   0.991   2.508  14.915 -0.0546 -0.0163  0.0787
16820TIP3    H171951   1.081   2.481  14.895 -0.2051 -1.6632  1.4483
16820TIP3    H271952   0.991   2.602  14.900  1.7416 -0.0688 -0.5189
16821TIP3   OH271953   2.260   5.338  16.685 -0.6029 -0.2007  0.0086
16821TIP3    H171954   2.175   5.374  16.657 -1.6021 -2.8140 -0.5852
16821TIP3    H271955   2.310   5.327  16.604 -0.0836  0.3243  0.2480
16822TIP3   OH271956   6.553   4.811  11.029 -0.0672 -0.0739  0.1974
16822TIP3    H171957   6.542   4.741  11.094  1.7933  0.1979  0.8679
16822TIP3    H271958   6.464   4.842  11.012 -0.8366 -1.9284  0.6244
16823TIP3   OH271959   1.707   3.086  11.434 -0.5533  0.3804 -0.0576
16823TIP3    H171960   1.793   3.043  11.432  0.4377  2.1398  1.0234
16823TIP3    H271961   1.724   3.174  11.399 -1.7828  0.9384  0.6695
16824TIP3   OH271962   4.627   6.506   5.023  0.2398 -0.1777 -0.0390
16824TIP3    H171963   4.675   6.519   4.941  1.0421 -1.7179  0.1642
16824TIP3    H271964   4.538   6.485   4.995 -0.2137  2.0159 -0.4278
16825TIP3   OH271965   5.023   5.441   0.340 -0.1187  0.0485  0.2710
16825TIP3    H171966   4.981   5.383   0.277 -0.8389 -0.6139  1.3423
16825TIP3    H271967   5.095   5.481   0.291 -0.7987 -0.2665 -1.0366
16826TIP3   OH271968   0.150   6.172   2.554  0.5069 -0.7043 -0.2639
16826TIP3    H171969   0.186   6.102   2.608  0.4729  0.2196  0.9887
16826TIP3    H271970   0.055   6.156   2.555  0.4319 -0.2602  0.5957
16827TIP3   OH271971   3.560   4.083   4.922 -0.1350  0.0281 -0.1121
16827TIP3    H171972   3.504   4.056   4.995  1.6091 -1.0364  0.9273
16827TIP3    H271973   3.575   4.176   4.936  0.2655 -0.1859  1.0010
16828TIP3   OH271974   3.332   1.876  15.162 -0.1986  0.2095 -0.1268
16828TIP3    H171975   3.331   1.814  15.090 -0.3194  0.4093 -0.2998
16828TIP3    H271976   3.277   1.836  15.230  0.9475 -0.5732  0.3668
16829TIP3   OH271977   6.573   6.621   1.966 -0.4139  0.6715  0.1694
16829TIP3    H171978   6.613   6.573   2.038 -1.5495 -1.4382 -0.5298
16829TIP3    H271979   6.637   6.615   1.895 -0.4021  0.4802  0.1950
16830TIP3   OH271980   0.306   2.712  12.917 -0.5411  0.2663 -0.1270
16830TIP3    H171981   0.257   2.714  12.999 -0.1182  2.4414  0.1286
16830TIP3    H271982   0.244   2.744  12.851 -0.2415  0.5570 -0.2691
16831TIP3   OH271983   0.433   6.751  16.127  0.4640 -0.5074  0.2201
16831TIP3    H171984   0.514   6.730  16.174  1.2336  1.9456  0.0942
16831TIP3    H271985   0.369   6.768  16.196  0.6003 -0.4814  0.3406
16832TIP3   OH271986   4.496   2.026  14.580  0.3868  0.0314 -0.2538
16832TIP3    H171987   4.575   1.980  14.550 -0.1669 -1.8271  0.9146
16832TIP3    H271988   4.431   1.956  14.593 -0.3772  1.0489  2.0577
16833TIP3   OH271989   6.739   4.633   3.569  0.2682  0.3155 -0.4497
16833TIP3    H171990   6.707   4.553   3.528  0.8071 -0.3333  0.3630
16833TIP3    H271991   6.684   4.703   3.533  1.2241 -0.0979 -2.8957
16834TIP3   OH271992   1.966   1.172  10.745  0.1197  0.4194  0.0352
16834TIP3    H171993   1.996   1.114  10.675  0.2015 -0.1110  0.5075
16834TIP3    H271994   1.929   1.114  10.811  2.6947  0.6170  1.7916
16835TIP3   OH271995   4.292   2.455  14.110  0.3102 -0.1602 -0.4522
16835TIP3    H171996   4.248   2.385  14.159 -0.7397  0.3458 -0.6614
16835TIP3    H271997   4.372   2.472  14.160 -1.2519  1.1512  1.8122
16836TIP3   OH271998   0.448   1.874   2.479  0.1582 -0.5085 -0.1704
16836TIP3    H171999   0.438   1.779   2.474 -0.4822 -0.3971 -1.2325
16836TIP3    H272000   0.472   1.900   2.390 -1.8414  0.5508 -0.4528
16837TIP3   OH272001   6.622   2.716  14.621 -0.2321  0.5396 -0.3742
16837TIP3    H172002   6.580   2.635  14.592 -0.1789  0.2425  0.3475
16837TIP3    H272003   6.550   2.770  14.653 -0.1058  0.1022  0.6957
16838TIP3   OH272004   5.307   1.164  14.651 -0.3391  0.1453 -0.3017
16838TIP3    H172005   5.308   1.177  14.745 -0.2858 -0.0471 -0.2747
16838TIP3    H272006   5.398   1.149  14.627 -0.2305  1.0655 -0.5121
16839TIP3   OH272007   3.816   1.777   5.397 -0.1082  0.1326  0.4371
16839TIP3    H172008   3.763   1.712   5.442 -1.8505  1.5882  0.5738
16839TIP3    H272009   3.832   1.739   5.311 -1.6912 -0.2103  0.2640
16840TIP3   OH272010   4.010   4.080   4.703 -0.2251  0.4191  0.1091
16840TIP3    H172011   4.101   4.055   4.717 -0.8029 -1.2805  1.2778
16840TIP3    H272012   4.007   4.115   4.614  1.2756 -0.9922 -0.5361
16841TIP3   OH272013   4.815   3.409  16.704  0.0714  0.2934 -0.5201
16841TIP3    H172014   4.834   3.410  16.610  0.1411 -0.0548 -0.5076
16841TIP3    H272015   4.745   3.345  16.715  1.1802 -0.9044 -0.1258
16842TIP3   OH272016   3.674   6.002  14.542 -0.1688  0.0292  0.3239
16842TIP3    H172017   3.750   6.053  14.569 -0.1913 -0.4360  1.3425
16842TIP3    H272018   3.616   6.065  14.500  0.7737  0.3806 -0.4746
16843TIP3   OH272019   5.645   0.317   4.429  0.5751 -0.0868  0.2673
16843TIP3    H172020   5.624   0.273   4.511  0.9117  1.3655  1.1754
16843TIP3    H272021   5.595   0.269   4.363  0.3531 -1.3386  1.2907
16844TIP3   OH272022   4.480   1.454  14.180  0.3740  0.2149  0.9211
16844TIP3    H172023   4.481   1.535  14.129 -2.4722  0.2782  0.8361
16844TIP3    H272024   4.501   1.386  14.116 -1.1827  0.5024  0.0648
16845TIP3   OH272025   1.779   2.034   1.892 -0.6435  0.4448 -0.7133
16845TIP3    H172026   1.730   1.993   1.963  1.4994 -0.3186  0.4239
16845TIP3    H272027   1.799   1.962   1.832  1.8114 -0.0144  0.5172
16846TIP3   OH272028   6.606   3.550  16.042  0.4354  0.0935  0.8482
16846TIP3    H172029   6.646   3.594  16.116  1.5579 -0.2065  0.4507
16846TIP3    H272030   6.575   3.621  15.985  0.1666  0.3293  1.2883
16847TIP3   OH272031   5.445   0.002  14.750 -0.6209  0.2169 -0.2281
16847TIP3    H172032   5.428  -0.007  14.656 -0.8453 -2.0489 -0.0239
16847TIP3    H272033   5.527  -0.045  14.765 -0.0742  1.3562  0.6087
16848TIP3   OH272034   0.785   6.831  16.726 -0.0450  0.1209 -0.4927
16848TIP3    H172035   0.830   6.748  16.713  2.4588  1.1250  1.0417
16848TIP3    H272036   0.810   6.885  16.651 -0.6819 -0.0775 -0.8593
16849TIP3   OH272037   0.855   6.467   5.724  0.2132 -0.0437 -0.2931
16849TIP3    H172038   0.871   6.523   5.800 -0.2967 -1.3992  0.8804
16849TIP3    H272039   0.922   6.492   5.661  0.4337  1.3755  0.4606
16850TIP3   OH272040   6.594   0.916   3.226 -0.1863 -0.4182 -0.5601
16850TIP3    H172041   6.669   0.958   3.268 -0.2364  0.1650 -1.0290
16850TIP3    H272042   6.609   0.929   3.132 -1.2568  0.4174 -0.6458
16851TIP3   OH272043   5.236   4.587  16.972 -0.0192 -0.5584  0.1618
16851TIP3    H172044   5.286   4.556  17.048 -0.5182 -1.1266  0.2765
16851TIP3    H272045   5.147   4.555  16.989 -0.5044  0.7528  0.1512
16852TIP3   OH272046   1.614   5.125   4.572 -0.2325  0.0491  0.0399
16852TIP3    H172047   1.692   5.083   4.536  0.5175  2.4803 -1.3551
16852TIP3    H272048   1.629   5.218   4.560 -2.6150  0.6803  1.3636
16853TIP3   OH272049   4.396   2.197  14.949 -0.0265  0.3240 -0.4218
16853TIP3    H172050   4.479   2.150  14.957 -0.4560 -0.5249 -0.7939
16853TIP3    H272051   4.341   2.161  15.018  0.4302  2.0534  0.8886
16854TIP3   OH272052   2.601   1.082  11.897 -0.0518  0.6226  0.4366
16854TIP3    H172053   2.565   1.061  11.811  0.5344 -0.7152  0.4825
16854TIP3    H272054   2.540   1.145  11.934 -0.7295  0.6360 -0.6537
16855TIP3   OH272055   4.355   1.451  11.408  0.3939  0.4755 -0.6695
16855TIP3    H172056   4.354   1.407  11.324  1.1371  0.7636 -0.8374
16855TIP3    H272057   4.303   1.395  11.466 -2.1034  1.3884 -1.8605
16856TIP3   OH272058   5.954   4.096   3.411 -0.4406 -0.3029 -0.2568
16856TIP3    H172059   5.988   4.185   3.396  1.1218 -0.8739 -0.2881
16856TIP3    H272060   5.867   4.097   3.371  0.0640  0.8484 -1.4275
16857TIP3   OH272061   5.805   1.245   2.316  0.3963  0.5978  0.3387
16857TIP3    H172062   5.881   1.187   2.310  1.5907  1.9429  1.5280
16857TIP3    H272063   5.730   1.190   2.294  1.8234 -0.4174 -2.5494
16858TIP3   OH272064   1.105   5.675  13.626 -0.2119  0.7426 -0.4528
16858TIP3    H172065   1.077   5.705  13.539 -0.6611  0.3177 -0.4581
16858TIP3    H272066   1.031   5.625  13.659  1.6783 -3.5269 -1.9373
16859TIP3   OH272067   2.814   3.709  15.578 -0.1639  0.9537 -0.0233
16859TIP3    H172068   2.772   3.685  15.495 -2.5281  0.6745  1.1741
16859TIP3    H272069   2.899   3.665  15.575 -1.5971 -1.9826 -0.8325
16860TIP3   OH272070   3.248   4.963  14.854  0.1330 -0.1111  0.3831
16860TIP3    H172071   3.260   4.903  14.780 -0.0047 -0.0106  0.2785
16860TIP3    H272072   3.278   5.048  14.822 -1.8843  0.4028 -0.2727
16861TIP3   OH272073   0.810   3.345   1.532 -1.0695 -0.6268 -0.2601
16861TIP3    H172074   0.820   3.273   1.470 -0.8189 -0.7201 -0.1105
16861TIP3    H272075   0.718   3.340   1.559 -1.6778  0.4782 -1.9349
16862TIP3   OH272076   6.807   1.165  14.797 -0.5610  0.1641 -0.4522
16862TIP3    H172077   6.792   1.256  14.772 -0.7517  0.7915  1.7736
16862TIP3    H272078   6.723   1.136  14.832 -0.1977 -0.5031 -0.1103
16863TIP3   OH272079   1.624   5.226  14.282  0.4216 -0.4166  0.8915
16863TIP3    H172080   1.676   5.304  14.263 -1.5256  0.6819 -0.3141
16863TIP3    H272081   1.649   5.164  14.214 -0.4351  0.4338 -0.2444
16864TIP3   OH272082   3.425   6.192  15.895  0.0948  0.1334 -0.0968
16864TIP3    H172083   3.405   6.104  15.863  0.5708  0.5493 -1.6094
16864TIP3    H272084   3.521   6.194  15.901  0.1036  0.6444 -0.3619
16865TIP3   OH272085   4.172   2.252  14.289  0.1102 -0.2174  0.6539
16865TIP3    H172086   4.253   2.227  14.333  0.4877 -0.7750 -0.3284
16865TIP3    H272087   4.120   2.172  14.286  0.2304 -0.2686 -0.2039
16866TIP3   OH272088   2.996   6.705  11.932  0.0113  0.3150  0.3871
16866TIP3    H172089   3.024   6.618  11.905  3.0854  1.5303 -0.9063
16866TIP3    H272090   3.072   6.741  11.979 -0.4797  2.8628 -0.5707
16867TIP3   OH272091   4.789   1.993   3.280  0.0873  0.3255  0.3815
16867TIP3    H172092   4.870   2.014   3.325 -0.5603  0.7521  1.3779
16867TIP3    H272093   4.757   2.077   3.248 -0.0094  0.1718  0.0761
16868TIP3   OH272094   5.578   2.962  11.628 -0.7167  0.8465 -0.0380
16868TIP3    H172095   5.486   2.972  11.652 -0.9334  0.5466 -0.7274
16868TIP3    H272096   5.611   3.052  11.623 -0.4659  0.9218  2.0385
16869TIP3   OH272097   2.765   4.139  12.539 -0.5304  0.0444 -0.3874
16869TIP3    H172098   2.844   4.088  12.518  0.1417  1.7123 -2.1784
16869TIP3    H272099   2.712   4.133  12.460 -1.0345  1.0367 -0.1298
16870TIP3   OH272100   4.815   4.499  14.186  0.0866 -0.7777 -0.1831
16870TIP3    H172101   4.732   4.548  14.189 -0.0988 -1.1006  0.1591
16870TIP3    H272102   4.854   4.522  14.103 -0.1618 -0.3072 -0.1714
16871TIP3   OH272103   5.028   1.909  17.051  0.4822 -0.5703 -0.1153
16871TIP3    H172104   4.937   1.882  17.055  0.2471  0.0215 -1.1279
16871TIP3    H272105   5.025   1.998  17.017  1.3214  0.2308  1.7489
16872TIP3   OH272106   4.435   3.994   5.718  0.1507  0.3103 -0.0666
16872TIP3    H172107   4.397   3.920   5.670 -0.3690  1.1919 -1.0483
16872TIP3    H272108   4.492   4.037   5.654  0.6321  0.6275  0.5661
16873TIP3   OH272109   0.149   5.366  16.958 -0.1121  0.1372 -0.0951
16873TIP3    H172110   0.178   5.285  16.916  0.5038 -0.0862  0.7405
16873TIP3    H272111   0.084   5.402  16.898 -0.0636 -0.7439 -0.6925
16874TIP3   OH272112   3.976   3.029  11.272 -0.0644 -0.2525 -0.2264
16874TIP3    H172113   4.056   2.998  11.228  1.0341  1.5493  0.3728
16874TIP3    H272114   3.928   3.077  11.204 -0.1863 -0.5800 -0.3692
16875TIP3   OH272115   1.215   5.241   5.397 -0.1263 -0.2930 -0.5060
16875TIP3    H172116   1.281   5.179   5.365 -1.0278 -0.8922 -1.2640
16875TIP3    H272117   1.264   5.321   5.416  1.1281 -1.3385  0.8635
16876TIP3   OH272118   2.642   1.169   4.924  0.8803 -0.5045 -0.2964
16876TIP3    H172119   2.650   1.260   4.895 -0.8605 -0.3078 -0.2677
16876TIP3    H272120   2.555   1.142   4.894  0.4228 -1.4119  1.6821
16877TIP3   OH272121   2.054   3.089  14.279  0.2600  0.0566 -0.3875
16877TIP3    H172122   2.081   3.003  14.311 -0.3663 -0.5970 -1.5151
16877TIP3    H272123   1.958   3.085  14.281  0.2057  1.3980  1.2113
16878TIP3   OH272124   6.836   6.092  15.445  0.2304  0.2495 -0.4302
16878TIP3    H172125   6.876   6.171  15.410 -2.7889  1.5644 -1.3040
16878TIP3    H272126   6.801   6.047  15.368 -2.9278  1.0545  0.3827
16879TIP3   OH272127   0.570   2.961   2.376 -0.5841  0.0158  0.7185
16879TIP3    H172128   0.608   2.874   2.385 -0.6465 -0.0730  0.1602
16879TIP3    H272129   0.556   2.972   2.282 -1.8098  0.0961  0.8903
16880TIP3   OH272130   3.449   4.481   1.385  0.0391 -0.1385 -0.1230
16880TIP3    H172131   3.452   4.563   1.336 -1.3456 -0.0520 -0.1123
16880TIP3    H272132   3.518   4.427   1.347  1.2141  1.1494  0.1185
16881TIP3   OH272133   5.429   3.356   6.419 -0.3264 -0.1244 -0.3280
16881TIP3    H172134   5.515   3.390   6.443  1.2803 -2.2518 -2.5354
16881TIP3    H272135   5.435   3.262   6.432 -2.8831 -0.2295  0.8330
16882TIP3   OH272136   1.944   5.808  16.852 -0.1572  0.3817 -0.0704
16882TIP3    H172137   1.962   5.897  16.820 -1.4283  1.6851  2.5107
16882TIP3    H272138   1.858   5.787  16.815  0.5675 -0.2495 -1.4830
16883TIP3   OH272139   4.967   0.695  13.810  0.2545  0.4378  0.3911
16883TIP3    H172140   5.058   0.727  13.813  0.2939  0.5709 -1.4274
16883TIP3    H272141   4.955   0.651  13.894  1.2725  2.3401  1.6187
16884TIP3   OH272142   6.645   2.347  13.115 -0.5427  0.1155  0.5005
16884TIP3    H172143   6.644   2.432  13.159 -1.0741  0.7141 -0.6348
16884TIP3    H272144   6.553   2.328  13.098 -0.3119  0.6506 -1.6982
16885TIP3   OH272145   0.914   1.251  16.325  0.1248 -0.4915  0.1516
16885TIP3    H172146   0.904   1.346  16.332  0.3155 -0.4845  0.3139
16885TIP3    H272147   1.003   1.238  16.293  0.5168 -0.6534  1.2574
16886TIP3   OH272148   2.199   4.450  17.032 -0.2791  0.3331  0.4521
16886TIP3    H172149   2.189   4.432  17.125 -0.3392  1.1395  0.6028
16886TIP3    H272150   2.169   4.540  17.021 -0.2049  0.2696 -0.3356
16887TIP3   OH272151   3.109   0.298  16.228 -0.6175 -0.6035 -0.1204
16887TIP3    H172152   3.040   0.319  16.290  0.7135  0.2682  1.1329
16887TIP3    H272153   3.097   0.362  16.157 -0.6173  0.0850  0.4812
16888TIP3   OH272154   0.290   4.024  12.248 -0.1381  0.1240 -0.1499
16888TIP3    H172155   0.217   4.080  12.222 -0.9470 -1.6935 -1.9971
16888TIP3    H272156   0.347   4.021  12.172 -0.1202 -1.5086 -0.1157
16889TIP3   OH272157   2.962   2.511   0.905  0.6491 -0.2149 -0.1958
16889TIP3    H172158   2.878   2.477   0.934 -1.4052  3.2479 -1.4795
16889TIP3    H272159   2.997   2.559   0.980 -1.0445  2.4646 -0.9923
16890TIP3   OH272160   2.683   2.018   2.903  0.8579  0.2618  0.8177
16890TIP3    H172161   2.657   1.959   2.974 -0.6379  0.8471  0.7889
16890TIP3    H272162   2.702   2.101   2.946  0.4146  0.4841  0.5913
16891TIP3   OH272163   6.821   6.752  10.343  0.4362 -0.1692 -0.1209
16891TIP3    H172164   6.885   6.815  10.377 -0.3036  0.3264  0.3889
16891TIP3    H272165   6.869   6.702  10.277  1.0816  0.8276 -0.4247
16892TIP3   OH272166   3.181   4.606   6.473  0.3536 -0.3516 -0.0284
16892TIP3    H172167   3.137   4.636   6.393 -0.1426 -0.6582  0.1301
16892TIP3    H272168   3.248   4.673   6.489  2.1053 -1.4825 -2.0363
16893TIP3   OH272169   2.654   6.425  12.112 -0.1562  0.3472  0.0208
16893TIP3    H172170   2.633   6.471  12.193 -1.5552  0.8699 -0.6065
16893TIP3    H272171   2.570   6.390  12.082  0.8177 -2.6881  0.4695
16894TIP3   OH272172   4.928   3.595  14.818  0.2417  0.3497  0.2964
16894TIP3    H172173   4.962   3.582  14.730  1.1641 -0.5826  0.7700
16894TIP3    H272174   4.998   3.638  14.866 -0.0512  0.3826  0.7102
16895TIP3   OH272175   2.039   4.861   5.926 -0.2274 -0.3370 -0.1700
16895TIP3    H172176   1.947   4.873   5.949 -0.7850 -0.9530 -1.9110
16895TIP3    H272177   2.068   4.790   5.983 -0.7197  0.0581  0.6057
16896TIP3   OH272178   5.732   3.166   5.458  0.3048  0.5593 -0.2551
16896TIP3    H172179   5.715   3.191   5.367 -1.6942  0.8752  0.1671
16896TIP3    H272180   5.734   3.070   5.456  2.9924  0.5389 -1.0292
16897TIP3   OH272181   1.564   3.180   2.108  0.5443 -0.4016  0.2935
16897TIP3    H172182   1.641   3.225   2.144  0.4689  0.5969 -0.7504
16897TIP3    H272183   1.505   3.250   2.083  0.4291 -1.0612 -1.4152
16898TIP3   OH272184   5.974   0.008  10.889  0.1155  0.3416 -0.1143
16898TIP3    H172185   5.891   0.042  10.922  0.3803  0.1778  0.7708
16898TIP3    H272186   6.003   0.072  10.825 -0.6511  0.4440 -0.3637
16899TIP3   OH272187   3.627   4.222  12.192 -0.0861 -0.5115  0.2486
16899TIP3    H172188   3.558   4.214  12.127  2.6363 -1.4286 -2.8200
16899TIP3    H272189   3.639   4.317  12.203 -0.6684 -0.3397 -0.5151
16900TIP3   OH272190   2.039   1.818   4.811  0.2662 -0.1282  0.0485
16900TIP3    H172191   2.135   1.824   4.802  0.2727  0.5920  0.4737
16900TIP3    H272192   2.025   1.747   4.873  0.4770 -0.9252 -0.8038
16901TIP3   OH272193   5.142   2.814   4.556  0.3101 -0.0874 -0.6503
16901TIP3    H172194   5.076   2.862   4.506  0.2991 -0.3298 -0.8709
16901TIP3    H272195   5.189   2.762   4.491 -0.2427 -1.0305 -0.3269
16902TIP3   OH272196   4.486   5.148   4.869 -0.6560  0.6451 -0.2310
16902TIP3    H172197   4.498   5.171   4.961 -3.2442  2.9235 -0.3304
16902TIP3    H272198   4.559   5.188   4.824 -0.6045  1.5031  0.5862
16903TIP3   OH272199   4.145   6.184  17.034  0.1811  0.1943  0.3110
16903TIP3    H172200   4.055   6.175  17.063  0.2058  0.2913  0.4188
16903TIP3    H272201   4.196   6.130  17.094 -0.0274 -1.5535 -1.0049
16904TIP3   OH272202   3.814   6.207   1.468 -0.1170  0.1491  0.3180
16904TIP3    H172203   3.727   6.193   1.432  0.0523  3.0505 -1.5622
16904TIP3    H272204   3.811   6.296   1.505  2.0594  0.4087  0.0342
16905TIP3   OH272205   1.007   2.779  14.884 -0.0119  0.1423 -0.1349
16905TIP3    H172206   0.920   2.819  14.891 -0.1198 -0.1464  0.2246
16905TIP3    H272207   1.067   2.853  14.883  0.0038  0.3492  3.3778
16906TIP3   OH272208   5.690   1.192  15.998  0.2062  0.0393 -0.0684
16906TIP3    H172209   5.753   1.134  16.041 -0.9924 -0.6886  0.7578
16906TIP3    H272210   5.652   1.139  15.928 -0.4013  0.0456  0.2527
16907TIP3   OH272211   0.070   6.693   0.603  0.4949  0.4953  1.0335
16907TIP3    H172212   0.095   6.631   0.535 -2.5611  1.6625 -1.4173
16907TIP3    H272213  -0.014   6.661   0.635  0.1152  1.9619  1.5797
16908TIP3   OH272214   6.761   1.295   2.033 -0.2477 -0.0789  0.2851
16908TIP3    H172215   6.747   1.380   1.991 -0.5787  0.0624  0.6714
16908TIP3    H272216   6.851   1.299   2.065 -0.3163  0.2025  0.4575
16909TIP3   OH272217   0.173   2.168   5.298  0.7679  0.4429 -0.5788
16909TIP3    H172218   0.226   2.229   5.349  0.9672  0.9055 -1.3281
16909TIP3    H272219   0.224   2.152   5.218 -0.7768  1.9351 -1.9380
16910TIP3   OH272220   0.821   3.097  11.747  0.4806  0.0353 -0.2105
16910TIP3    H172221   0.820   3.032  11.817  1.2295  0.0381 -0.1810
16910TIP3    H272222   0.907   3.140  11.757  0.5560  0.0943 -1.0755
16911TIP3   OH272223   5.404   4.150   2.803  0.0514 -0.2436 -0.0400
16911TIP3    H172224   5.360   4.065   2.798 -0.7943  0.2354 -0.9089
16911TIP3    H272225   5.497   4.128   2.795 -0.2467 -0.9688 -1.9612
16912TIP3   OH272226   1.996   5.950   5.407  0.7520 -0.2108  0.3538
16912TIP3    H172227   2.019   6.039   5.380  2.5774 -1.1068 -1.2874
16912TIP3    H272228   2.045   5.936   5.489  1.1995 -0.0230  0.1184
16913TIP3   OH272229   4.028   6.421   3.700 -0.4291 -0.2474  0.5809
16913TIP3    H172230   4.053   6.392   3.787  1.4117  1.6960  0.7970
16913TIP3    H272231   3.952   6.478   3.714 -0.5593 -0.4824  0.8314
16914TIP3   OH272232   1.866   6.008   3.592  0.3321  0.0859 -0.0229
16914TIP3    H172233   1.802   6.066   3.551 -0.8386  0.9560  2.8359
16914TIP3    H272234   1.815   5.932   3.621  0.4255  0.8827  2.4824
16915TIP3   OH272235   5.792   6.562   1.159  0.2515 -0.7061 -0.1235
16915TIP3    H172236   5.761   6.476   1.188 -0.1987 -0.3357  0.5346
16915TIP3    H272237   5.784   6.617   1.237 -0.7165  0.2523 -0.8713
16916TIP3   OH272238   0.140   3.767   0.229 -0.0269  0.2171 -0.2391
16916TIP3    H172239   0.133   3.712   0.307 -0.6468  2.7808  1.6062
16916TIP3    H272240   0.226   3.743   0.192 -0.8897 -3.0441 -0.4994
16917TIP3   OH272241   2.725   0.179  15.405  0.1825  0.1526  0.1885
16917TIP3    H172242   2.720   0.189  15.500  1.7303  1.0205  0.2051
16917TIP3    H272243   2.684   0.094  15.388 -2.3762  1.0436  1.3318
16918TIP3   OH272244   6.792   6.413   2.764  0.3132 -0.5937 -0.0287
16918TIP3    H172245   6.726   6.394   2.698 -0.6362 -1.1264  1.0414
16918TIP3    H272246   6.764   6.364   2.842 -0.4992  2.6192  1.8886
16919TIP3   OH272247   0.638   3.245   2.400 -0.4394 -0.0831  0.0906
16919TIP3    H172248   0.631   3.158   2.438  0.2917 -0.5227 -0.7590
16919TIP3    H272249   0.716   3.242   2.345  1.4916  2.0109  2.4394
16920TIP3   OH272250   2.759   5.577  12.085 -0.1754  0.0633  0.3571
16920TIP3    H172251   2.726   5.510  12.145 -1.0509 -0.4547 -0.6682
16920TIP3    H272252   2.815   5.529  12.024  0.5524  0.5533  0.6244
16921TIP3   OH272253   6.263   1.327   4.428 -0.3718 -0.1123 -0.0720
16921TIP3    H172254   6.179   1.369   4.411 -1.0887 -1.8792 -1.1825
16921TIP3    H272255   6.263   1.249   4.372  1.3227 -1.0302  1.1090
16922TIP3   OH272256   2.376   3.565  14.871 -0.5934  0.1795 -0.1623
16922TIP3    H172257   2.440   3.598  14.808 -1.5800  0.6759 -0.9464
16922TIP3    H272258   2.328   3.644  14.899  0.0757  0.0374  1.5398
16923TIP3   OH272259   1.488   3.179   5.018  0.4563  0.9239  1.0405
16923TIP3    H172260   1.547   3.116   5.059 -1.4328 -0.7629  1.3076
16923TIP3    H272261   1.522   3.188   4.929  0.8950 -0.3178  1.0590
16924TIP3   OH272262   3.528   1.733  11.909  0.0639  0.6808 -0.3640
16924TIP3    H172263   3.585   1.806  11.887 -0.4222  0.4270 -2.6922
16924TIP3    H272264   3.570   1.657  11.868 -0.0608 -0.1859  1.0226
16925TIP3   OH272265   5.631   2.955  15.493 -0.3688  0.3454 -0.2571
16925TIP3    H172266   5.705   2.987  15.545 -0.6751 -0.3115  0.6096
16925TIP3    H272267   5.668   2.935  15.407  0.1612  1.3832 -0.2863
16926TIP3   OH272268   3.831   0.257  16.078 -0.1949 -0.1250 -0.1406
16926TIP3    H172269   3.897   0.302  16.026 -0.4526  0.9298  0.4196
16926TIP3    H272270   3.759   0.242  16.017  0.1670 -0.4034 -0.5042
16927TIP3   OH272271   3.701   3.694  12.530 -0.4575  0.8323  0.0633
16927TIP3    H172272   3.645   3.617  12.523  0.4291 -0.0118  1.6033
16927TIP3    H272273   3.688   3.725  12.620 -0.1557  1.9977 -0.2696
16928TIP3   OH272274   1.095   0.048  11.164 -0.0056 -0.4323 -0.2352
16928TIP3    H172275   1.180   0.088  11.152  0.2933 -0.5802  1.1505
16928TIP3    H272276   1.082   0.046  11.259 -1.4623 -0.5963 -0.4006
16929TIP3   OH272277   0.606   4.742   6.124 -0.5550 -0.6323  0.2614
16929TIP3    H172278   0.552   4.710   6.197  0.2055 -0.3724  0.9515
16929TIP3    H272279   0.693   4.707   6.142 -0.0485  0.5766  0.2171
16930TIP3   OH272280   3.811   4.070   0.489  0.3016  0.0152 -0.5363
16930TIP3    H172281   3.785   4.010   0.420 -1.0040 -0.0369 -0.0269
16930TIP3    H272282   3.761   4.042   0.566  0.2822  1.2347 -0.0760
16931TIP3   OH272283   6.218   5.113   1.556  0.3097  0.4198  0.5554
16931TIP3    H172284   6.307   5.112   1.592  0.7126  1.8522 -0.3074
16931TIP3    H272285   6.178   5.193   1.592  0.0170  0.7684 -0.5162
16932TIP3   OH272286   2.028   3.966  13.389  0.2056 -0.3094 -0.0480
16932TIP3    H172287   2.002   4.038  13.447  0.1272 -1.7736  1.8380
16932TIP3    H272288   1.956   3.960  13.325  0.6709  1.8382 -0.8590
16933TIP3   OH272289   6.142   4.465  14.792 -0.0534 -0.0795  0.0272
16933TIP3    H172290   6.124   4.539  14.734  0.9837  0.7685  0.7533
16933TIP3    H272291   6.223   4.427  14.759  0.4212  0.2693  0.7711
16934TIP3   OH272292   3.323   5.385  11.622  0.5198  0.3103  0.0984
16934TIP3    H172293   3.356   5.297  11.600 -0.8397 -0.4084  0.7781
16934TIP3    H272294   3.370   5.444  11.563  0.4397 -1.0278 -1.3627
16935TIP3   OH272295   6.803   4.906   1.504  0.5255 -0.0232 -0.2997
16935TIP3    H172296   6.831   4.864   1.586  0.2739 -0.7353 -0.5711
16935TIP3    H272297   6.801   4.999   1.525  0.5507 -0.1862  0.4816
16936TIP3   OH272298   3.848   5.009   3.828  0.2922 -0.5647  0.4205
16936TIP3    H172299   3.908   5.082   3.814  0.5531 -1.1219 -1.7842
16936TIP3    H272300   3.899   4.945   3.877  1.6151 -1.0924 -1.5427
16937TIP3   OH272301   3.933   5.847   3.291  0.3523 -0.4965  0.0983
16937TIP3    H172302   3.988   5.769   3.303  1.4024  0.2288  0.0793
16937TIP3    H272303   3.917   5.879   3.379  0.5762 -0.2835  0.0609
16938TIP3   OH272304   4.583   4.628  14.216 -0.0610  0.5741 -0.5177
16938TIP3    H172305   4.547   4.629  14.127  0.4400  2.4309 -0.7440
16938TIP3    H272306   4.523   4.682  14.267  0.5408  0.8548 -0.1014
16939TIP3   OH272307   1.187   2.356   3.055  0.1180  0.0385 -0.2023
16939TIP3    H172308   1.199   2.388   2.966 -0.9263  0.0736 -0.3499
16939TIP3    H272309   1.254   2.288   3.066  0.0392 -0.1976 -1.1317
16940TIP3   OH272310   6.819   5.919   1.147 -0.1504  0.1487  0.3593
16940TIP3    H172311   6.902   5.894   1.187 -0.6013  0.9791  1.8906
16940TIP3    H272312   6.766   5.839   1.151 -0.0597  0.1199  1.0988
16941TIP3   OH272313   6.225   2.388  12.208 -0.0468 -0.0898  0.0819
16941TIP3    H172314   6.183   2.423  12.286 -0.5957  0.2306 -0.3488
16941TIP3    H272315   6.226   2.461  12.146  0.8306 -0.1954 -0.0412
16942TIP3   OH272316   4.720   0.009   4.084 -0.0364 -0.3434 -0.1894
16942TIP3    H172317   4.683   0.035   4.168  0.7128  0.5065 -0.1073
16942TIP3    H272318   4.805   0.052   4.081  1.0465 -2.4056 -0.2859
16943TIP3   OH272319   3.266   3.439  13.825  0.2254  0.0867  0.0931
16943TIP3    H172320   3.200   3.433  13.895  0.9727 -1.3581  0.7130
16943TIP3    H272321   3.345   3.403  13.865  0.1167 -3.0401 -2.1762
16944TIP3   OH272322   3.731   0.245  15.808 -0.1449  0.4715 -0.1404
16944TIP3    H172323   3.810   0.227  15.758 -0.5464 -0.6496 -0.3948
16944TIP3    H272324   3.662   0.193  15.765 -0.2631 -1.5463  2.2393
16945TIP3   OH272325   5.538   4.666  10.697  0.3448  0.1375  0.1249
16945TIP3    H172326   5.557   4.617  10.617  0.8927 -0.5238  0.6511
16945TIP3    H272327   5.488   4.742  10.667  0.3777 -0.2006 -0.8212
16946TIP3   OH272328   6.492   1.352   0.364 -0.1432  0.2219  0.3590
16946TIP3    H172329   6.559   1.420   0.364 -0.6401  0.7228 -0.2683
16946TIP3    H272330   6.508   1.302   0.284 -0.2314  0.0544  0.4451
16947TIP3   OH272331   4.891   2.067  11.334 -0.0664  0.3269  0.1864
16947TIP3    H172332   4.805   2.057  11.294 -0.2904  1.6541  0.2912
16947TIP3    H272333   4.952   2.070  11.260 -0.1702  0.0037  0.0853
16948TIP3   OH272334   0.422   0.040  15.390 -0.7213  0.2975 -0.0422
16948TIP3    H172335   0.400   0.081  15.473  0.4928 -1.2724  1.1012
16948TIP3    H272336   0.477   0.104  15.345  0.0571  0.4809  1.1366
16949TIP3   OH272337   6.032   4.420   5.121  0.2619  0.1873  0.8703
16949TIP3    H172338   6.001   4.489   5.064  0.2396  0.1990  0.8965
16949TIP3    H272339   6.031   4.341   5.067 -1.6849 -0.2202  1.4102
16950TIP3   OH272340   1.037   4.163   2.519 -0.3382 -0.2362  0.0041
16950TIP3    H172341   0.957   4.198   2.557  0.4503  0.0838  1.4413
16950TIP3    H272342   1.047   4.077   2.560  1.9072  1.1569  2.7339
16951TIP3   OH272343   1.063   6.572   2.654 -0.0933 -0.0317 -0.5725
16951TIP3    H172344   1.123   6.564   2.580 -0.8648  0.5169 -1.2567
16951TIP3    H272345   0.999   6.637   2.628  1.1803  2.3012  1.6222
16952TIP3   OH272346   4.594   1.084   0.067 -0.4023 -0.1428 -0.0919
16952TIP3    H172347   4.559   1.129   0.144  0.5437 -0.3178  0.4589
16952TIP3    H272348   4.517   1.062   0.015 -1.0383  0.2086  0.6773
16953TIP3   OH272349   3.937   4.805  12.116  0.0595  0.4082  0.7863
16953TIP3    H172350   3.882   4.865  12.167  1.4049  1.7841  0.6804
16953TIP3    H272351   3.893   4.800  12.031 -2.2755 -2.0106  1.9808
16954TIP3   OH272352   3.266   5.488  16.736 -0.0004 -0.3909  0.3766
16954TIP3    H172353   3.274   5.394  16.751 -0.4082 -0.7900 -1.6372
16954TIP3    H272354   3.301   5.502  16.648  0.0210  1.3506  0.6119
16955TIP3   OH272355   5.581   3.712   6.301 -0.2774  0.0452  0.3719
16955TIP3    H172356   5.511   3.764   6.340 -0.9334  0.4253 -1.2385
16955TIP3    H272357   5.630   3.775   6.247 -0.4422 -0.7638 -0.7717
16956TIP3   OH272358   5.778   2.106   3.193 -0.0423  0.9200  0.4229
16956TIP3    H172359   5.749   2.015   3.205 -1.5894  1.6213  2.4953
16956TIP3    H272360   5.870   2.098   3.167 -0.1699 -1.2248  0.4110
16957TIP3   OH272361   4.796   0.536   5.711  0.0157 -0.2626 -0.1859
16957TIP3    H172362   4.746   0.616   5.727 -0.3992 -0.5453 -0.0615
16957TIP3    H272363   4.803   0.531   5.615 -1.0117 -0.7178 -0.2472
16958TIP3   OH272364   6.780   4.767   0.981  0.1483 -0.2773 -0.4092
16958TIP3    H172365   6.766   4.801   1.069  0.3954 -0.9354 -0.1098
16958TIP3    H272366   6.810   4.843   0.930 -0.0326  0.1105  0.0586
16959TIP3   OH272367   6.559   6.122  15.192 -0.3282 -0.4350 -0.4484
16959TIP3    H172368   6.481   6.075  15.223 -2.0129  2.3835 -0.1181
16959TIP3    H272369   6.563   6.201  15.246  2.3638 -0.0991 -0.9803
16960TIP3   OH272370   5.268   5.289  14.575 -0.0554  0.1659  0.8016
16960TIP3    H172371   5.226   5.373  14.593  0.4786  0.1394  2.3350
16960TIP3    H272372   5.201   5.224  14.592 -0.3966  0.2553 -0.1482
16961TIP3   OH272373   1.821   1.951   1.342  0.3856 -0.5944  0.0087
16961TIP3    H172374   1.807   1.963   1.248  0.5601  1.1529  0.1759
16961TIP3    H272375   1.734   1.928   1.376 -0.1972  1.1038 -0.2638
16962TIP3   OH272376   0.790   4.450   2.717  0.1040  0.5037  0.1245
16962TIP3    H172377   0.742   4.400   2.784 -0.4834  0.9318  0.0320
16962TIP3    H272378   0.819   4.529   2.762  0.9936  0.1092  0.2567
16963TIP3   OH272379   0.620   2.459  16.129  0.6477 -0.1179 -0.0198
16963TIP3    H172380   0.629   2.525  16.198 -1.3656  0.1712  0.0039
16963TIP3    H272381   0.577   2.505  16.057 -0.9844 -1.4198  0.0713
16964TIP3   OH272382   1.348   6.289   5.492 -0.5358 -0.8707 -0.1282
16964TIP3    H172383   1.269   6.246   5.460 -0.6576  0.5292 -1.9140
16964TIP3    H272384   1.347   6.374   5.448  1.6748 -0.6022  0.2504
16965TIP3   OH272385   6.015   1.473  16.632 -0.1998 -0.0382  0.0235
16965TIP3    H172386   5.939   1.436  16.587  0.0964 -1.2709  0.4709
16965TIP3    H272387   5.998   1.567  16.637 -1.3796 -0.2120 -0.4580
16966TIP3   OH272388   3.984   3.390   4.812 -0.0077 -0.1792 -0.1429
16966TIP3    H172389   3.919   3.458   4.829 -1.3393 -1.7772  1.5449
16966TIP3    H272390   4.032   3.422   4.735 -2.6265  1.2066 -1.3496
16967TIP3   OH272391   3.265   3.620   4.579  0.1428 -1.0330 -0.8118
16967TIP3    H172392   3.339   3.586   4.631  1.9166  1.9149 -1.1868
16967TIP3    H272393   3.197   3.637   4.644  0.9767 -0.8591  0.0561
16968TIP3   OH272394   3.883   0.108  13.314 -0.5110  0.5119  0.1533
16968TIP3    H172395   3.855   0.150  13.396 -2.9547  0.6204 -0.6639
16968TIP3    H272396   3.825   0.144  13.247 -0.2489 -1.4466 -1.2074
16969TIP3   OH272397   5.295   6.722   0.913  0.8796 -0.3323 -0.4522
16969TIP3    H172398   5.387   6.710   0.887  0.8932 -1.7421  0.1845
16969TIP3    H272399   5.291   6.689   1.002 -0.5821 -1.7401 -0.9970
16970TIP3   OH272400   3.156   3.239   2.619 -0.5809  0.0360  0.4959
16970TIP3    H172401   3.112   3.185   2.553 -0.1335 -0.5598  0.6786
16970TIP3    H272402   3.086   3.263   2.680 -0.5996 -1.2472  1.0088
16971TIP3   OH272403   2.991   1.025  12.872  0.0010 -0.0800 -0.6205
16971TIP3    H172404   3.065   1.059  12.923 -1.0171  2.0981 -0.4846
16971TIP3    H272405   2.958   1.101  12.825 -1.6035 -1.1979 -1.3775
16972TIP3   OH272406   6.057   3.919  16.813 -0.0439  0.0885  0.1490
16972TIP3    H172407   5.965   3.910  16.838  0.2100 -0.6743  0.8714
16972TIP3    H272408   6.098   3.967  16.886 -0.4047  3.1325 -1.4862
16973TIP3   OH272409   6.326   2.787   1.755 -0.0191 -0.2442  0.1257
16973TIP3    H172410   6.385   2.729   1.707 -0.8296  0.0016 -1.2110
16973TIP3    H272411   6.329   2.869   1.706 -2.8426 -0.7639 -1.1146
16974TIP3   OH272412   3.721   4.046   0.954  0.1851  0.4225 -1.0950
16974TIP3    H172413   3.673   3.965   0.970  0.3044  0.3775 -0.9650
16974TIP3    H272414   3.712   4.061   0.860 -0.1108  0.4318 -1.0663
16975TIP3   OH272415   1.479   2.776  14.722 -0.3471  0.2937 -0.1024
16975TIP3    H172416   1.436   2.733  14.648  0.6855  2.1860 -1.9260
16975TIP3    H272417   1.573   2.767  14.702 -0.0861  2.2803  0.0446
16976TIP3   OH272418   2.666   4.736  16.801 -0.0089 -0.1064  0.5832
16976TIP3    H172419   2.632   4.653  16.770 -1.1450  0.5347  0.0648
16976TIP3    H272420   2.603   4.766  16.866 -0.0626  0.7460  0.1506
16977TIP3   OH272421   6.302   4.141   3.992 -0.1350 -0.2487 -0.2890
16977TIP3    H172422   6.241   4.090   4.045 -0.8483  1.0498  0.1921
16977TIP3    H272423   6.327   4.082   3.921 -2.1693 -0.7614 -0.6602
16978TIP3   OH272424   6.106   1.923   1.791 -0.1649 -0.2582 -0.0523
16978TIP3    H172425   6.178   1.962   1.741 -0.0669 -0.1358  0.1821
16978TIP3    H272426   6.109   1.830   1.768 -0.5397 -0.0981 -0.7882
16979TIP3   OH272427   0.090   5.419  14.197  0.1849  0.1701 -0.3625
16979TIP3    H172428   0.027   5.403  14.267 -0.3003  1.0301 -0.5867
16979TIP3    H272429   0.053   5.376  14.121  1.8843 -2.9008  0.3883
16980TIP3   OH272430   1.306   6.221  13.932  0.4052 -0.1195  0.2105
16980TIP3    H172431   1.252   6.211  14.010 -0.7589 -1.6134 -0.7228
16980TIP3    H272432   1.394   6.199  13.960 -0.2616 -2.2653  0.7826
16981TIP3   OH272433   3.521   3.775  16.167 -0.1453 -0.1378 -0.1659
16981TIP3    H172434   3.597   3.830  16.146 -0.5020  1.2160  1.8281
16981TIP3    H272435   3.548   3.687  16.142  0.7902  0.7471 -2.6291
16982TIP3   OH272436   1.831   6.470  14.120  0.1958  0.0806 -0.2857
16982TIP3    H172437   1.816   6.538  14.186  1.1702  1.0779 -1.0505
16982TIP3    H272438   1.925   6.450  14.126  0.1005 -0.5323 -0.6944
16983TIP3   OH272439   1.483   3.719   3.291 -0.6276  0.1272  0.4460
16983TIP3    H172440   1.403   3.666   3.297 -0.7013  0.3208  1.2764
16983TIP3    H272441   1.553   3.659   3.318 -0.7339  0.4829  1.5731
16984TIP3   OH272442   3.596   1.480  15.727  0.1388 -0.0827 -0.1757
16984TIP3    H172443   3.644   1.446  15.803 -1.1378  1.9547  1.6543
16984TIP3    H272444   3.634   1.566  15.711 -2.2656  1.3032  0.9039
16985TIP3   OH272445   4.102   5.205  12.059 -0.1408  0.2450  0.0255
16985TIP3    H172446   4.156   5.228  11.983  0.3407 -2.1199 -0.4326
16985TIP3    H272447   4.034   5.271  12.060  0.3403  0.8642 -1.9628
16986TIP3   OH272448   0.083   5.689   2.963  0.9884  0.0186  0.0129
16986TIP3    H172449   0.071   5.595   2.970  3.4256 -0.4499 -1.0656
16986TIP3    H272450   0.069   5.708   2.870  1.3444  0.5686  0.0623
16987TIP3   OH272451   3.623   2.449   5.685  0.0678 -0.3421 -0.2266
16987TIP3    H172452   3.563   2.411   5.749 -0.4164 -1.5111 -1.3507
16987TIP3    H272453   3.640   2.538   5.719 -1.2500 -0.4429  0.7867
16988TIP3   OH272454   1.586   6.761  16.995  0.0589 -0.1506  1.2110
16988TIP3    H172455   1.514   6.769  16.933  0.7405  0.3138  0.4592
16988TIP3    H272456   1.652   6.823  16.964  0.5042 -0.0629  2.2850
16989TIP3   OH272457   2.757   1.362   2.029  0.5646  0.0550 -0.4657
16989TIP3    H172458   2.716   1.392   1.948 -0.6125 -1.2306 -0.3881
16989TIP3    H272459   2.780   1.442   2.075  0.3304  0.8076 -1.6207
16990TIP3   OH272460   1.736   6.333   0.817 -0.6552  0.1654 -0.0178
16990TIP3    H172461   1.685   6.252   0.814 -1.1374  0.3833  1.3908
16990TIP3    H272462   1.682   6.396   0.768 -0.4912 -0.2375 -0.7342
16991TIP3   OH272463   0.866   1.318   0.771 -0.4769 -0.2915 -0.2463
16991TIP3    H172464   0.824   1.292   0.853  1.6846  3.5040  2.4681
16991TIP3    H272465   0.945   1.263   0.766 -0.7757 -0.7526  0.0637
16992TIP3   OH272466   4.144   5.559   3.387 -0.5033 -0.2260  0.1832
16992TIP3    H172467   4.203   5.632   3.406  0.1909 -0.4570 -0.9628
16992TIP3    H272468   4.084   5.555   3.462  0.3828  0.5749  0.9464
16993TIP3   OH272469   6.183   0.164   0.740  0.2055  0.7902 -0.4330
16993TIP3    H172470   6.139   0.142   0.659  0.3422 -0.6808 -0.1409
16993TIP3    H272471   6.260   0.107   0.742  0.9385  1.7481  0.1125
16994TIP3   OH272472   5.500   5.393  11.451 -0.2273  0.5149  0.5839
16994TIP3    H172473   5.538   5.305  11.452 -1.3686  0.0136  1.1375
16994TIP3    H272474   5.527   5.433  11.533  1.7336  1.3438 -0.4087
16995TIP3   OH272475   5.768   0.626   3.365  0.0613 -0.2339 -0.5559
16995TIP3    H172476   5.767   0.599   3.273  0.3287 -0.1780 -0.5789
16995TIP3    H272477   5.724   0.711   3.365  0.0954 -0.2154 -0.6404
16996TIP3   OH272478   1.202   5.220  12.633  0.2425  0.1797 -0.0937
16996TIP3    H172479   1.170   5.133  12.656 -3.1856  1.2748 -0.0271
16996TIP3    H272480   1.282   5.205  12.583 -0.1795 -2.9863  0.0057
16997TIP3   OH272481   0.890   6.733  11.879 -0.6675 -0.2511 -0.0834
16997TIP3    H172482   0.846   6.661  11.834 -0.1805 -1.4449  1.2812
16997TIP3    H272483   0.903   6.701  11.968  0.6331  1.0828  0.2390
16998TIP3   OH272484   3.553   6.736   4.445 -0.1297 -0.4553 -0.6129
16998TIP3    H172485   3.554   6.668   4.512 -1.8195  1.6739  1.7579
16998TIP3    H272486   3.645   6.755   4.429  0.3313 -1.8441  0.1873
16999TIP3   OH272487   4.209   0.784   3.252 -0.2323 -0.0561 -0.3045
16999TIP3    H172488   4.215   0.785   3.348  1.8424 -1.5626 -0.3531
16999TIP3    H272489   4.125   0.742   3.234 -1.7329  2.2588  0.7866
17000TIP3   OH272490   4.828   6.397   6.187 -0.6016  0.0963 -0.0661
17000TIP3    H172491   4.823   6.303   6.168 -0.3570 -0.0690  0.6461
17000TIP3    H272492   4.922   6.414   6.199 -0.6767  0.3572  0.1619
17001TIP3   OH272493   5.125   2.364   3.832  0.5820 -0.1692  0.1226
17001TIP3    H172494   5.199   2.362   3.892 -0.1061  1.4249  1.0930
17001TIP3    H272495   5.098   2.456   3.829 -1.4779 -0.7149 -0.0310
17002TIP3   OH272496   5.274   6.701   3.615  0.2387 -0.0050 -0.2400
17002TIP3    H172497   5.283   6.795   3.633  0.9638 -0.0993 -0.0836
17002TIP3    H272498   5.194   6.676   3.660 -0.5648  0.7559 -1.1834
17003TIP3   OH272499   5.421   1.762  14.088 -0.1655  0.3960 -0.0137
17003TIP3    H172500   5.456   1.785  14.174 -0.4920  1.1641 -0.0813
17003TIP3    H272501   5.386   1.674  14.099  0.8606  0.0168  0.3250
17004TIP3   OH272502   4.928   5.459   5.810  0.3433 -0.4060  0.0792
17004TIP3    H172503   4.991   5.422   5.871  1.8267  0.6878 -0.7156
17004TIP3    H272504   4.922   5.552   5.835  0.7161 -0.0148 -1.1831
17005TIP3   OH272505   2.413   0.992   0.206 -0.3197  0.4629 -0.3732
17005TIP3    H172506   2.319   1.006   0.216 -0.2164  0.1293  1.2692
17005TIP3    H272507   2.454   1.052   0.269  0.5353  0.0369 -0.4991
17006TIP3   OH272508   4.544   1.223   3.659  0.6887  0.1527  0.1777
17006TIP3    H172509   4.559   1.315   3.682  0.7572  0.2747 -0.3422
17006TIP3    H272510   4.505   1.185   3.737 -1.0149  1.0507 -0.1739
17007TIP3   OH272511   1.422   1.201  12.425 -0.2861 -0.0218 -0.4683
17007TIP3    H172512   1.376   1.176  12.505  0.4549  3.9223  1.4486
17007TIP3    H272513   1.352   1.217  12.361 -1.1279  0.0067  0.4371
17008TIP3   OH272514   0.235   5.808  16.871  0.7372  0.0713 -0.1213
17008TIP3    H172515   0.251   5.723  16.913  1.7032  0.9923  1.4418
17008TIP3    H272516   0.318   5.831  16.829  0.4503  0.2226 -0.6196
17009TIP3   OH272517   2.125   2.812   6.802  0.1298  0.4103 -0.5896
17009TIP3    H172518   2.196   2.750   6.818 -0.5484 -0.3538 -0.4761
17009TIP3    H272519   2.169   2.895   6.784  1.0213  0.3310  1.0575
17010TIP3   OH272520   5.618   3.555  11.673  0.1743 -0.0122  0.1467
17010TIP3    H172521   5.585   3.628  11.621  0.7368  0.4067  0.3677
17010TIP3    H272522   5.545   3.494  11.677  0.5228 -0.7183 -2.3252
17011TIP3   OH272523   1.520   3.179   1.132 -0.3585 -0.9749 -0.5801
17011TIP3    H172524   1.564   3.253   1.173  0.7094 -2.3127  0.8050
17011TIP3    H272525   1.427   3.204   1.131 -0.3537 -0.5501  2.0675
17012TIP3   OH272526   0.923   6.206   6.216  0.5324 -0.6726 -0.7350
17012TIP3    H172527   0.911   6.299   6.193 -1.6457 -1.0579 -1.3717
17012TIP3    H272528   0.864   6.192   6.290  2.6010 -1.0449  0.9394
17013TIP3   OH272529   5.629   5.121  11.126 -0.4907 -0.5350  0.0191
17013TIP3    H172530   5.697   5.187  11.118  0.2730 -1.1611  1.1337
17013TIP3    H272531   5.612   5.094  11.036  2.2205 -1.8430 -0.2002
17014TIP3   OH272532   6.303   0.249   2.325  0.1128  0.4810  0.3454
17014TIP3    H172533   6.220   0.295   2.338 -0.2099  0.0090 -0.0021
17014TIP3    H272534   6.321   0.257   2.232 -0.6282 -1.2021  0.0130
17015TIP3   OH272535   3.495   1.815   1.793 -0.4347  0.0391  0.3244
17015TIP3    H172536   3.549   1.818   1.872  0.1745  1.0101 -0.1070
17015TIP3    H272537   3.408   1.792   1.825  0.3576 -2.4632  0.9281
17016TIP3   OH272538   2.253   3.383   1.411 -0.1920  0.4259  0.6665
17016TIP3    H172539   2.173   3.399   1.460 -0.9992 -1.9412  0.2416
17016TIP3    H272540   2.232   3.409   1.321  0.1207  1.4464  0.8785
17017TIP3   OH272541   6.687   4.197  14.716  0.0007 -0.1472  0.3446
17017TIP3    H172542   6.768   4.154  14.744  0.3506  2.4214  4.0826
17017TIP3    H272543   6.627   4.125  14.696  2.4403 -2.1569 -0.2735
17018TIP3   OH272544   5.758   6.663  15.877 -0.3136  0.5516  0.0944
17018TIP3    H172545   5.734   6.733  15.816 -1.6947 -0.2599 -0.3489
17018TIP3    H272546   5.682   6.605  15.877  0.0512  0.0153  1.8652
17019TIP3   OH272547   6.056   4.497   2.854  0.3638  0.1383  0.3159
17019TIP3    H172548   6.105   4.575   2.827  1.8861 -1.5616 -2.2913
17019TIP3    H272549   6.109   4.457   2.923  0.1439  0.8005  0.8761
17020TIP3   OH272550   4.480   3.906   3.971  0.1302  0.0475 -0.0002
17020TIP3    H172551   4.509   3.955   3.894  1.5994  1.4864  1.3902
17020TIP3    H272552   4.544   3.835   3.980 -0.5649 -0.6761 -0.5845
17021TIP3   OH272553   5.471   2.569  15.905  0.1694  0.4872  0.2619
17021TIP3    H172554   5.383   2.532  15.913  0.2809  0.4623  1.7453
17021TIP3    H272555   5.471   2.644  15.964  1.0771  0.6086  0.1233
17022TIP3   OH272556   3.330   5.484  10.985  0.2079 -0.0875  0.4876
17022TIP3    H172557   3.420   5.515  10.988  0.8312 -1.7740  0.2323
17022TIP3    H272558   3.329   5.419  10.915 -1.1030 -0.4053  0.7700
17023TIP3   OH272559   6.712   6.726  14.297  0.3628  0.1223 -0.5879
17023TIP3    H172560   6.731   6.695  14.386  1.0427  0.3727 -0.6435
17023TIP3    H272561   6.621   6.756  14.302  0.5848  0.7172  0.1894
17024TIP3   OH272562   1.551   0.646   0.869  0.3047  0.7001 -0.6375
17024TIP3    H172563   1.599   0.637   0.951  0.1128  0.5270 -0.5432
17024TIP3    H272564   1.516   0.558   0.852  0.6167  0.6569 -1.0723
17025TIP3   OH272565   1.932   6.021   2.760 -0.7795 -0.0214  0.5297
17025TIP3    H172566   1.908   6.104   2.719  1.3113 -0.2711 -1.3724
17025TIP3    H272567   1.981   6.047   2.838  1.6853  0.7072 -1.1253
17026TIP3   OH272568   0.140   5.512   3.869  0.5451 -0.1022  0.3240
17026TIP3    H172569   0.193   5.583   3.905  0.4827  0.5353 -0.7977
17026TIP3    H272570   0.056   5.553   3.848  1.5641  0.4320 -3.5129
17027TIP3   OH272571   4.562   6.431   3.166  1.1773 -0.2004  0.6407
17027TIP3    H172572   4.543   6.406   3.076  0.8815 -0.8990  0.8928
17027TIP3    H272573   4.538   6.524   3.170  0.2248 -0.4157  0.2664
17028TIP3   OH272574   1.603   1.400  12.427 -0.0539 -0.3316  0.0499
17028TIP3    H172575   1.681   1.349  12.450  0.1989  0.9632  2.4143
17028TIP3    H272576   1.539   1.334  12.400  0.9714 -1.7082  0.8028
17029TIP3   OH272577   6.633   4.736   0.066 -0.6703 -0.3813  0.4197
17029TIP3    H172578   6.677   4.819   0.087 -0.6582 -0.3989  0.4630
17029TIP3    H272579   6.603   4.748  -0.024 -0.9215 -0.2171  0.5230
17030TIP3   OH272580   5.843   0.497  11.685  0.6890  0.2095 -0.0541
17030TIP3    H172581   5.794   0.471  11.607  1.2590  0.1062 -0.3796
17030TIP3    H272582   5.933   0.507  11.654  1.5376 -2.7082  1.1673
17031TIP3   OH272583   0.835   6.522   2.411  0.3374  0.1358 -0.0010
17031TIP3    H172584   0.929   6.529   2.396  0.4693  0.1261  0.7570
17031TIP3    H272585   0.810   6.439   2.370  0.6689  0.1108 -0.1549
17032TIP3   OH272586   1.080   0.561  14.431 -0.9034 -0.4238  0.2778
17032TIP3    H172587   1.172   0.558  14.406 -0.4482  0.7330  1.7245
17032TIP3    H272588   1.061   0.473  14.463 -0.5391 -0.8975 -0.7684
17033TIP3   OH272589   0.080   4.886  14.190  0.2059 -0.2410 -0.0314
17033TIP3    H172590   0.069   4.978  14.165 -0.1781 -0.4508 -0.6310
17033TIP3    H272591   0.108   4.842  14.110  1.3561 -0.4862  0.4775
17034TIP3   OH272592   2.491   2.381   2.484 -0.0375 -0.3878  0.4947
17034TIP3    H172593   2.532   2.294   2.494  0.5827 -0.2932 -0.9786
17034TIP3    H272594   2.503   2.403   2.392 -0.9458  0.9088  0.6580
17035TIP3   OH272595   5.857   2.365   3.547 -0.1665  0.4416 -0.1880
17035TIP3    H172596   5.807   2.373   3.629 -0.0519  2.3126 -0.2601
17035TIP3    H272597   5.947   2.348   3.575 -0.5616 -1.7574 -0.0357
17036TIP3   OH272598   0.775   4.223   5.850  0.1569  0.0737 -0.2304
17036TIP3    H172599   0.788   4.285   5.777 -2.2188  0.3855 -0.4644
17036TIP3    H272600   0.725   4.272   5.914 -1.3668 -1.4252 -0.2044
17037TIP3   OH272601   1.312   0.498   1.142 -0.0511 -0.0764 -0.0994
17037TIP3    H172602   1.244   0.516   1.208  0.3373  1.3755 -0.0502
17037TIP3    H272603   1.287   0.552   1.067  0.5187 -0.2770 -0.4399
17038TIP3   OH272604   5.165   0.848  10.607  0.1163  0.0867 -0.3176
17038TIP3    H172605   5.144   0.937  10.637 -1.3556  0.0388 -1.1331
17038TIP3    H272606   5.169   0.854  10.512 -0.3333 -0.7946 -0.4008
17039TIP3   OH272607   0.222   5.803  14.252  0.1575  0.4118 -0.4444
17039TIP3    H172608   0.291   5.865  14.277  0.9816 -0.2339 -1.0442
17039TIP3    H272609   0.141   5.842  14.286  0.8979  0.8404  0.9173
17040TIP3   OH272610   3.275   4.742   3.983 -0.0121 -0.0471 -0.0358
17040TIP3    H172611   3.210   4.812   3.984  0.0577  0.0164  0.0822
17040TIP3    H272612   3.335   4.764   4.054  0.0402 -0.1984 -0.0327
17041TIP3   OH272613   4.278   5.719  15.684  0.3098 -0.2662  0.0104
17041TIP3    H172614   4.330   5.676  15.752  1.2962  0.8772  0.0148
17041TIP3    H272615   4.211   5.654  15.660  0.4745 -1.0152  1.4461
17042TIP3   OH272616   3.517   4.297  15.575  0.1865  0.6381 -0.4002
17042TIP3    H172617   3.583   4.249  15.625 -0.8749  0.3968  0.8417
17042TIP3    H272618   3.497   4.240  15.501  1.5631  0.8544 -0.9753
17043TIP3   OH272619   4.424   0.897   4.852 -0.2844  0.0927  0.4119
17043TIP3    H172620   4.516   0.922   4.861 -0.3413  0.1294  0.9110
17043TIP3    H272621   4.381   0.976   4.819 -0.5228  0.8186  2.3046
17044TIP3   OH272622   1.218   0.139  14.316  0.0388 -0.3446  0.6371
17044TIP3    H172623   1.160   0.202  14.360 -0.9361  0.2953 -1.4468
17044TIP3    H272624   1.167   0.058  14.313  0.1248 -0.4022  0.7373
17045TIP3   OH272625   0.667   5.431  14.176  0.0577  0.0022 -0.2739
17045TIP3    H172626   0.632   5.497  14.236  0.8419 -0.3039  0.5389
17045TIP3    H272627   0.590   5.379  14.150 -0.5205  1.0347 -0.6935
17046TIP3   OH272628   4.989   1.787   6.291 -0.0724 -0.1715 -0.1202
17046TIP3    H172629   4.894   1.799   6.287 -0.2390 -0.9065  1.0510
17046TIP3    H272630   5.014   1.756   6.204 -0.7916  0.6914 -0.6497
17047TIP3   OH272631   1.332   1.323  15.999 -0.3414 -0.5115  0.5424
17047TIP3    H172632   1.302   1.387  15.935 -1.7447 -0.2142  1.4566
17047TIP3    H272633   1.427   1.321  15.988 -0.4200  0.6086 -0.5284
17048TIP3   OH272634   5.304   3.104   3.936 -0.3404 -0.3252 -0.3684
17048TIP3    H172635   5.353   3.146   3.866 -1.7222 -1.2610 -1.9752
17048TIP3    H272636   5.305   3.011   3.914 -3.2147 -0.3398 -0.8188
17049TIP3   OH272637   4.600   1.322   1.533  0.3427 -0.2246  0.3330
17049TIP3    H172638   4.547   1.357   1.461 -2.0870 -1.4087  1.4413
17049TIP3    H272639   4.574   1.373   1.609  2.0081  0.2172  0.6441
17050TIP3   OH272640   5.988   3.384  16.889  0.6503  0.4128 -0.6039
17050TIP3    H172641   6.007   3.474  16.865  1.7633  0.6512  1.0305
17050TIP3    H272642   5.935   3.391  16.969  0.1332 -0.3780 -0.8630
17051TIP3   OH272643   0.819   0.559   4.042 -0.0406  0.0499 -0.4890
17051TIP3    H172644   0.832   0.554   3.948  1.3966 -0.7740 -0.2927
17051TIP3    H272645   0.812   0.653   4.061 -1.2724  0.1759 -1.5011
17052TIP3   OH272646   3.118   5.139   1.428  0.3440 -0.3232 -0.5328
17052TIP3    H172647   3.096   5.046   1.438  1.7634 -0.5758  0.4163
17052TIP3    H272648   3.180   5.141   1.355  0.4481 -0.1299 -0.4381
17053TIP3   OH272649   0.560   0.078  13.179 -0.4167 -0.0804 -0.6609
17053TIP3    H172650   0.534   0.048  13.266 -2.8264 -0.8967 -1.5748
17053TIP3    H272651   0.492   0.141  13.154 -1.2849 -1.8274 -2.9656
17054TIP3   OH272652   3.643   3.527  14.863 -0.4244  0.3551  0.6423
17054TIP3    H172653   3.588   3.448  14.865  0.8486 -0.6061 -0.4151
17054TIP3    H272654   3.733   3.493  14.864  0.1951  1.6698 -1.7929
17055TIP3   OH272655   2.902   0.058  14.213  0.0421 -0.0724 -0.7421
17055TIP3    H172656   2.852   0.006  14.149  1.6477 -1.7999 -0.6522
17055TIP3    H272657   2.859   0.042  14.296  0.3543 -1.0478 -0.7645
17056TIP3   OH272658   4.276   5.990   4.527 -0.8010 -0.9471 -0.0822
17056TIP3    H172659   4.260   6.084   4.522  0.1746 -0.6586  1.4569
17056TIP3    H272660   4.269   5.959   4.437 -3.5241  0.1558 -0.3558
17057TIP3   OH272661   1.198   2.902  16.977 -0.6989 -0.4582 -0.2186
17057TIP3    H172662   1.160   2.905  16.889 -1.7019  1.0698  0.2126
17057TIP3    H272663   1.283   2.947  16.968 -1.4531  1.0519 -0.1606
17058TIP3   OH272664   2.819   2.674  13.284 -0.5444  0.2759  0.3430
17058TIP3    H172665   2.853   2.585  13.271 -3.1271 -0.8409  0.6748
17058TIP3    H272666   2.752   2.684  13.217 -1.5847  1.2573  1.4912
17059TIP3   OH272667   0.170   4.712   4.428 -0.3708  0.1423 -0.2189
17059TIP3    H172668   0.078   4.701   4.452 -0.9835  0.5948 -2.1933
17059TIP3    H272669   0.170   4.715   4.333  1.8314 -0.9180 -0.3195
17060TIP3   OH272670   2.156   6.276   4.359 -0.5477  0.5220  0.2028
17060TIP3    H172671   2.105   6.285   4.278  0.2319  0.4642 -0.2995
17060TIP3    H272672   2.238   6.237   4.331 -0.1096  0.8815  0.9723
17061TIP3   OH272673   2.536   5.075  10.266  0.6435 -0.3130 -0.0723
17061TIP3    H172674   2.526   4.988  10.227 -0.6481 -0.8291  1.2860
17061TIP3    H272675   2.469   5.128  10.225  0.8555 -0.1892 -0.2631
17062TIP3   OH272676   1.418   3.096  12.130  0.7829  0.0200  0.2319
17062TIP3    H172677   1.408   3.024  12.068  0.2327 -0.1481  0.5090
17062TIP3    H272678   1.336   3.145  12.124 -0.1668 -1.1398  2.2412
17063TIP3   OH272679   1.129   1.728  13.675 -0.0083  0.4818  0.1205
17063TIP3    H172680   1.152   1.635  13.675 -0.2774  0.4132  0.0479
17063TIP3    H272681   1.047   1.732  13.625  0.7130  0.9333 -1.0900
17064TIP3   OH272682   5.732   5.361  14.852  0.5210 -0.3869  0.1061
17064TIP3    H172683   5.761   5.350  14.762 -0.1515 -1.4451  0.0097
17064TIP3    H272684   5.637   5.351  14.848  0.5251 -0.8699  0.9910
17065TIP3   OH272685   5.172   2.826  16.955  0.6013 -0.0399 -0.4584
17065TIP3    H172686   5.183   2.804  16.862  1.3534  0.9898 -0.6246
17065TIP3    H272687   5.080   2.806  16.973  0.3506  0.0959 -1.5184
17066TIP3   OH272688   2.849   4.179   6.148 -0.7429 -0.4192 -0.1565
17066TIP3    H172689   2.848   4.259   6.200  0.3353  0.0811 -0.8539
17066TIP3    H272690   2.771   4.184   6.093 -0.0434  0.7975 -1.0877
17067TIP3   OH272691   1.465   1.257  16.321  0.3331 -0.1166  0.2795
17067TIP3    H172692   1.426   1.342  16.300 -0.1535 -0.2820  0.5039
17067TIP3    H272693   1.412   1.223  16.392  0.4792 -0.6482  0.1397
17068TIP3   OH272694   3.382   6.105   3.426  0.1815  0.3281  0.0315
17068TIP3    H172695   3.466   6.143   3.399 -0.3446  0.9498 -0.7754
17068TIP3    H272696   3.405   6.019   3.461  1.5086  1.5954  2.5741
17069TIP3   OH272697   1.415   4.593  16.566  0.6571 -0.2613 -0.0544
17069TIP3    H172698   1.378   4.681  16.561  1.5453  0.1406  0.1573
17069TIP3    H272699   1.355   4.538  16.516 -1.1898  0.0210  1.7154
17070TIP3   OH272700   4.872   2.833   2.595  0.1524  0.1957 -0.3610
17070TIP3    H172701   4.957   2.832   2.639 -0.1714  0.4406  0.2660
17070TIP3    H272702   4.887   2.782   2.514  1.1580  1.0840 -0.7573
17071TIP3   OH272703   4.366   5.390  15.208  0.1371  0.0225 -0.1279
17071TIP3    H172704   4.338   5.300  15.198 -0.9464  0.3154  0.1213
17071TIP3    H272705   4.396   5.416  15.120 -1.4637  0.0336 -0.7029
17072TIP3   OH272706   2.948   0.447   1.755  0.5113  0.4456 -0.3665
17072TIP3    H172707   3.024   0.407   1.713  1.0269  1.4488 -0.4067
17072TIP3    H272708   2.873   0.420   1.701  0.6966 -1.2900  0.1814
17073TIP3   OH272709   2.915   5.573  14.261 -0.5096 -0.7448 -0.3396
17073TIP3    H172710   2.824   5.591  14.284 -0.1749  2.0027 -0.8695
17073TIP3    H272711   2.958   5.557  14.344 -0.5679  2.8641  0.5364
17074TIP3   OH272712   2.496   6.065  13.371  0.7842  0.5017  0.2080
17074TIP3    H172713   2.511   6.060  13.466  0.7249 -0.4219  0.1788
17074TIP3    H272714   2.404   6.043  13.360  0.8168  0.5024 -0.0703
17075TIP3   OH272715   4.490   4.333   2.275 -0.4320  0.1734  0.0891
17075TIP3    H172716   4.395   4.323   2.271 -0.5067 -0.2419  2.0414
17075TIP3    H272717   4.524   4.244   2.263 -0.2497  0.3894 -1.0858
17076TIP3   OH272718   0.545   2.859  12.200 -0.0541  0.1034  0.1211
17076TIP3    H172719   0.468   2.822  12.158 -0.5190 -0.3608  1.3514
17076TIP3    H272720   0.516   2.943  12.235 -0.0835 -0.1931  0.8199
17077TIP3   OH272721   2.740   0.394   4.939  0.1137 -0.1462 -0.3972
17077TIP3    H172722   2.827   0.370   4.909 -0.4023  0.3465 -2.4303
17077TIP3    H272723   2.706   0.452   4.871 -2.2011 -1.1668 -0.2297
17078TIP3   OH272724   5.325   2.386  15.588  0.3617  0.4101 -0.1665
17078TIP3    H172725   5.307   2.337  15.668  0.5194 -1.5381 -1.2733
17078TIP3    H272726   5.392   2.450  15.614 -0.9114  1.0846  1.6529
17079TIP3   OH272727   5.142   6.319   4.896 -0.4232  0.2179 -0.2461
17079TIP3    H172728   5.217   6.299   4.841 -0.1878  1.7018 -0.5002
17079TIP3    H272729   5.066   6.312   4.838 -0.6027 -1.8598  0.1422
17080TIP3   OH272730   6.152   2.077   2.010 -0.0728  0.2539  0.3899
17080TIP3    H172731   6.111   2.147   1.958 -0.3920 -0.9187 -0.9927
17080TIP3    H272732   6.147   2.000   1.954  1.5739 -0.5581  1.3094
17081TIP3   OH272733   2.247   2.310   4.198  0.2704  0.2479  0.6953
17081TIP3    H172734   2.257   2.218   4.222  0.3921  0.1178  0.1597
17081TIP3    H272735   2.239   2.356   4.281 -0.7117 -0.3556  0.9518
17082TIP3   OH272736   5.526   4.454   6.584 -0.0269  0.3913 -0.3600
17082TIP3    H172737   5.577   4.381   6.548 -2.7371 -0.9518 -1.6847
17082TIP3    H272738   5.581   4.487   6.656  2.2081 -1.6193 -1.0088
17083TIP3   OH272739   1.138   1.163   1.229 -0.0910 -0.0887 -0.0377
17083TIP3    H172740   1.130   1.175   1.323  1.2132 -1.0525  0.2161
17083TIP3    H272741   1.115   1.249   1.192  0.3163  0.5733  1.2013
17084TIP3   OH272742   1.127   5.585  14.624 -0.1186 -0.0429  0.4481
17084TIP3    H172743   1.194   5.517  14.627  2.5326  2.3660  0.3591
17084TIP3    H272744   1.125   5.621  14.712 -0.2092  0.8675  0.0878
17085TIP3   OH272745   2.346   2.698  12.412  0.0839  0.0143 -0.2654
17085TIP3    H172746   2.273   2.642  12.384 -0.3690  0.5950 -0.2593
17085TIP3    H272747   2.315   2.787  12.399  1.2400  0.2791 -1.3905
17086TIP3   OH272748   0.755   0.585  11.853  0.3002  0.5793 -0.1818
17086TIP3    H172749   0.773   0.520  11.785 -2.6366 -0.4881 -0.0970
17086TIP3    H272750   0.704   0.653  11.809 -2.5139 -0.6025  0.9658
17087TIP3   OH272751   1.538   5.294  15.445  0.1022  0.1028  0.3077
17087TIP3    H172752   1.579   5.380  15.431  0.1426  0.3313  1.7439
17087TIP3    H272753   1.589   5.235  15.389 -0.8668  1.2211 -1.8741
17088TIP3   OH272754   6.548   6.252  12.591  0.0477 -0.2377  0.0539
17088TIP3    H172755   6.502   6.275  12.672  1.0408  1.9569  0.0892
17088TIP3    H272756   6.616   6.191  12.619  0.2957  0.3948  0.8896
17089TIP3   OH272757   0.124   0.983  13.338 -1.1467  0.6429 -0.1806
17089TIP3    H172758   0.062   0.914  13.314 -1.3049  0.3403  1.0314
17089TIP3    H272759   0.210   0.941  13.336 -1.2040  0.5034  0.1742
17090TIP3   OH272760   6.801   4.455  11.969 -0.2227  0.3800  0.0708
17090TIP3    H172761   6.878   4.510  11.955 -1.1889  1.7913  0.1347
17090TIP3    H272762   6.772   4.475  12.058  0.7469 -2.0170  1.0324
17091TIP3   OH272763   2.617   4.385  10.145 -0.1537 -0.1401 -0.4400
17091TIP3    H172764   2.537   4.377  10.198  0.4577 -0.1371  0.4990
17091TIP3    H272765   2.666   4.456  10.187 -0.1872  0.6700 -1.7224
17092TIP3   OH272766   1.352   3.854  17.076 -0.2353 -0.0092  0.4169
17092TIP3    H172767   1.393   3.834  17.160  0.1859  2.3593  0.8469
17092TIP3    H272768   1.261   3.827  17.087  0.1323 -1.0227  1.1096
17093TIP3   OH272769   2.048   2.130   2.894  0.5895  0.0846 -0.2687
17093TIP3    H172770   2.032   2.040   2.924  0.1565  0.2942  0.1309
17093TIP3    H272771   2.123   2.122   2.835  0.1353 -0.6456 -0.7703
17094TIP3   OH272772   6.027   5.957   3.830  0.5564  0.2470  0.8343
17094TIP3    H172773   6.075   6.019   3.885  1.2842 -0.2151  0.7321
17094TIP3    H272774   5.962   5.918   3.889  1.0247  0.0915  1.2546
17095TIP3   OH272775   4.774   6.578  15.690  0.4089 -0.2540  0.2858
17095TIP3    H172776   4.746   6.607  15.603  2.2463 -1.5733 -0.8130
17095TIP3    H272777   4.696   6.588  15.745 -1.4533 -1.3250 -1.9812
17096TIP3   OH272778   0.108   5.738   5.822  0.2766 -0.4165  0.4088
17096TIP3    H172779   0.200   5.746   5.848 -0.0718  0.7036  1.4061
17096TIP3    H272780   0.065   5.814   5.863 -1.3270 -1.6323  1.0718
17097TIP3   OH272781   2.278   5.179   0.651 -0.4012 -0.1326 -0.8922
17097TIP3    H172782   2.281   5.209   0.742 -0.1169  1.6831 -1.4659
17097TIP3    H272783   2.362   5.134   0.638  0.0944  0.6717 -0.5858
17098TIP3   OH272784   3.830   1.159  11.360  0.5501  0.2149 -0.1197
17098TIP3    H172785   3.782   1.187  11.283 -0.1252  0.8334  0.5157
17098TIP3    H272786   3.763   1.129  11.421  0.9843  0.7303  0.6301
17099TIP3   OH272787   2.853   3.396   1.310  0.3323  0.2253  0.7685
17099TIP3    H172788   2.767   3.394   1.351 -0.1088 -0.2363 -0.1384
17099TIP3    H272789   2.843   3.457   1.236  0.3789 -0.8358 -0.1482
17100TIP3   OH272790   6.254   6.412   3.291  0.1347 -0.0781 -0.1516
17100TIP3    H172791   6.349   6.402   3.291  0.0667 -0.8114  0.3494
17100TIP3    H272792   6.240   6.505   3.272  0.9967  0.4187  1.4407
17101TIP3   OH272793   4.410   5.624   5.175  0.3407 -0.1575 -0.1677
17101TIP3    H172794   4.348   5.636   5.247 -0.9069  1.7559 -1.4830
17101TIP3    H272795   4.450   5.539   5.193 -0.6667 -0.2199  2.2072
17102TIP3   OH272796   2.627   4.872   1.657 -0.6491 -0.3095  0.2687
17102TIP3    H172797   2.576   4.806   1.703  2.0451 -2.2423  0.6794
17102TIP3    H272798   2.611   4.854   1.564 -1.2221 -0.4394  0.3892
17103TIP3   OH272799   3.754   3.960  15.934  0.6978  0.2684 -0.5203
17103TIP3    H172800   3.728   3.969  16.026 -1.2380 -1.2218 -0.8530
17103TIP3    H272801   3.826   3.897  15.936  1.0882  0.7232  0.0189
17104TIP3   OH272802   4.342   0.712  16.205  0.0749 -0.3713  0.4548
17104TIP3    H172803   4.326   0.684  16.295  1.3901 -2.4575  0.1200
17104TIP3    H272804   4.278   0.663  16.154  0.0871 -0.0764  0.1566
17105TIP3   OH272805   1.428   4.272   5.688  0.0052 -0.0726  0.1168
17105TIP3    H172806   1.400   4.300   5.775 -0.2083 -0.6324  0.2329
17105TIP3    H272807   1.364   4.205   5.663 -0.6810  0.9835 -1.0110
17106TIP3   OH272808   5.541   1.601  14.304 -0.2528  0.0155  0.0607
17106TIP3    H172809   5.496   1.553  14.373 -3.7892  2.9496  0.0881
17106TIP3    H272810   5.540   1.542  14.229  1.0927 -2.1289  1.5941
17107TIP3   OH272811   2.165   2.385  15.560 -0.0379  0.0952  0.0899
17107TIP3    H172812   2.229   2.449  15.588  1.4762 -1.8475  1.3452
17107TIP3    H272813   2.081   2.431  15.564  0.9001  1.7946  1.5558
17108TIP3   OH272814   3.621   0.085  13.983 -0.4007 -0.4427 -0.2875
17108TIP3    H172815   3.704   0.077  14.030 -1.0954 -2.0921  0.7434
17108TIP3    H272816   3.579   0.161  14.022  0.4659  0.2315 -0.6150
17109TIP3   OH272817   5.022   6.740  13.789  0.3292  0.2255  0.1107
17109TIP3    H172818   5.045   6.648  13.797  0.0600  0.1691  0.2681
17109TIP3    H272819   5.079   6.774  13.720 -2.0458 -0.9367 -2.6507
17110TIP3   OH272820   0.245   0.480   0.082 -0.0778  0.1794 -0.1975
17110TIP3    H172821   0.277   0.464  -0.007  0.0673 -1.6625  0.1629
17110TIP3    H272822   0.240   0.394   0.122  2.2425  1.1174  2.4375
17111TIP3   OH272823   2.208   6.480  11.622 -0.3098 -0.1238  0.2022
17111TIP3    H172824   2.277   6.511  11.681 -1.6731  1.2047  1.1804
17111TIP3    H272825   2.251   6.414  11.567  1.3777 -0.3388  1.6893
17112TIP3   OH272826   1.907   0.229   1.589  0.3717  0.0292 -0.7420
17112TIP3    H172827   1.898   0.243   1.494  0.9512 -0.1547 -0.8279
17112TIP3    H272828   1.849   0.155   1.608  0.2098  0.1032 -0.9416
17113TIP3   OH272829   3.694   4.390   1.257  0.5188  0.3407  0.1820
17113TIP3    H172830   3.689   4.316   1.318  2.1476 -0.1020 -0.1857
17113TIP3    H272831   3.785   4.394   1.230  0.5961  2.7757  0.5163
17114TIP3   OH272832   6.500   5.023   3.055 -0.5249  0.7001  0.3605
17114TIP3    H172833   6.515   5.108   3.015  0.3317  0.5750  0.3878
17114TIP3    H272834   6.576   5.010   3.113  0.0007 -0.5968 -0.5588
17115TIP3   OH272835   2.891   1.060   1.667  0.3457 -0.1056  0.4283
17115TIP3    H172836   2.866   1.068   1.575  0.4040 -1.9331  0.2245
17115TIP3    H272837   2.810   1.036   1.712  0.8229 -1.8962  0.4062
17116TIP3   OH272838   4.176   6.482  11.969  0.7806 -0.2389  0.1895
17116TIP3    H172839   4.259   6.447  12.000  0.7663 -0.4963 -0.0514
17116TIP3    H272840   4.199   6.559  11.918  0.7394  0.6855  1.5350
17117TIP3   OH272841   3.789   2.659   4.295  0.2723  0.0111  0.3055
17117TIP3    H172842   3.730   2.586   4.313  0.4714 -1.5821 -4.1317
17117TIP3    H272843   3.749   2.703   4.219  2.8316  1.1973 -0.4856
17118TIP3   OH272844   1.206   3.375  14.926  0.1876 -0.1900 -0.1446
17118TIP3    H172845   1.275   3.423  14.971 -0.6909 -0.9855  2.1561
17118TIP3    H272846   1.250   3.338  14.849  1.7327  1.2144  0.0066
17119TIP3   OH272847   2.297   0.881   2.701 -0.2282 -0.2580  0.0138
17119TIP3    H172848   2.321   0.809   2.642  2.0192  0.5963 -0.2138
17119TIP3    H272849   2.202   0.890   2.691 -0.3142 -2.0688 -1.2284
17120TIP3   OH272850   3.987   3.754  16.842 -0.5054 -0.6489 -0.5541
17120TIP3    H172851   3.994   3.742  16.937  0.3888 -1.8393 -0.7434
17120TIP3    H272852   3.983   3.849  16.831 -0.2238 -0.4707  0.6515
17121TIP3   OH272853   5.336   2.689   4.190  0.1949 -0.2218  0.9726
17121TIP3    H172854   5.326   2.670   4.283  1.2142 -0.2194  1.0839
17121TIP3    H272855   5.416   2.740   4.184  0.6122 -0.9657 -0.0071
17122TIP3   OH272856   1.724   2.253  12.174  0.2520 -0.3639 -0.5942
17122TIP3    H172857   1.708   2.213  12.259 -0.2176  1.1687  0.0679
17122TIP3    H272858   1.706   2.183  12.111  1.0369 -1.6578  0.5552
17123TIP3   OH272859   2.026   4.733   2.651 -0.1114 -0.1840  0.3319
17123TIP3    H172860   2.037   4.638   2.657  1.2622 -0.1069 -0.4492
17123TIP3    H272861   1.979   4.757   2.731 -0.1103 -1.4656  0.7391
17124TIP3   OH272862   1.113   6.572   2.314  0.8001 -0.2169 -0.3653
17124TIP3    H172863   1.191   6.517   2.318  0.8536 -0.0910  2.4625
17124TIP3    H272864   1.069   6.545   2.234  1.8128 -3.0001 -0.0997
17125TIP3   OH272865   2.751   0.897  12.792  0.0983 -0.0657  0.2913
17125TIP3    H172866   2.757   0.809  12.829  0.2093 -0.3634 -0.4189
17125TIP3    H272867   2.829   0.942  12.823  1.6546 -1.1684 -1.7517
17126TIP3   OH272868   4.645   3.035  15.013 -0.3484  0.1606  0.6170
17126TIP3    H172869   4.726   2.988  15.032 -0.2197  0.8988  2.0133
17126TIP3    H272870   4.654   3.062  14.921 -0.1604 -1.9460 -0.0245
17127TIP3   OH272871   3.980   1.242   5.917  0.1273 -0.7793 -0.4505
17127TIP3    H172872   4.072   1.244   5.942  0.1442 -0.7878 -0.5119
17127TIP3    H272873   3.940   1.311   5.969  0.5940  0.8249 -2.1108
17128TIP3   OH272874   2.417   1.579  12.326  0.5973 -0.3773 -0.1479
17128TIP3    H172875   2.322   1.588  12.325  0.7232  1.3854 -1.6064
17128TIP3    H272876   2.450   1.668  12.334  2.1140 -0.6930 -2.1208
17129TIP3   OH272877   0.888   0.836  10.378  0.1658  0.2592  0.5568
17129TIP3    H172878   0.959   0.856  10.439  1.1234  2.6263 -1.1892
17129TIP3    H272879   0.818   0.897  10.402  0.5047  1.1233 -0.5430
17130TIP3   OH272880   1.146   2.987  14.433 -0.1246 -0.0296  0.2363
17130TIP3    H172881   1.231   2.972  14.474  0.7128 -1.6502 -1.9023
17130TIP3    H272882   1.124   3.078  14.457  1.2091 -0.1999  2.4696
17131TIP3   OH272883   0.737   0.624  12.466 -0.3942  0.0123 -0.8988
17131TIP3    H172884   0.648   0.617  12.432 -0.7296 -0.5652  0.0629
17131TIP3    H272885   0.760   0.716  12.455 -1.1057  0.1612 -1.1660
17132TIP3   OH272886   4.279   6.640  15.913 -0.1943  0.3167  0.3465
17132TIP3    H172887   4.364   6.676  15.885 -0.8744  1.1926 -0.6781
17132TIP3    H272888   4.300   6.584  15.987  1.0019  2.5257  1.8050
17133TIP3   OH272889   6.564   3.949  12.987  0.0071 -0.1271  0.1413
17133TIP3    H172890   6.515   4.017  12.941  1.1302  0.2308 -0.5687
17133TIP3    H272891   6.563   3.874  12.928  0.0823 -0.2164  0.2525
17134TIP3   OH272892   0.284   0.210  11.607 -0.0325  0.4004 -0.0512
17134TIP3    H172893   0.190   0.206  11.624  0.1161 -0.5364  0.6596
17134TIP3    H272894   0.320   0.261  11.680  0.1672 -0.4844  0.4904
17135TIP3   OH272895   3.394   6.548   5.491  0.3610 -0.1809 -0.2905
17135TIP3    H172896   3.476   6.558   5.443  1.1320  0.5503  1.1268
17135TIP3    H272897   3.361   6.463   5.463  2.3364 -1.1659  0.1741
17136TIP3   OH272898   4.045   4.909  13.301 -0.0380 -0.1539 -0.4147
17136TIP3    H172899   4.087   4.826  13.280 -0.7843 -0.5941 -0.2125
17136TIP3    H272900   3.952   4.894  13.281  0.0050  1.0589 -1.6455
17137TIP3   OH272901   3.984   6.557  17.043 -0.2662 -0.4652 -0.2306
17137TIP3    H172902   4.071   6.518  17.047  0.2041  0.6976  1.4032
17137TIP3    H272903   3.990   6.620  16.971  0.4124 -0.0011  0.2236
17138TIP3   OH272904   2.858   3.585   3.086  0.1818  0.1934  0.4129
17138TIP3    H172905   2.785   3.636   3.120  0.4780  1.5040 -0.8099
17138TIP3    H272906   2.924   3.586   3.155 -0.1667  0.7289  0.7384
17139TIP3   OH272907   6.673   3.110   5.378  0.2433 -0.2964 -0.0029
17139TIP3    H172908   6.651   3.115   5.285  0.1868 -1.6411 -0.0759
17139TIP3    H272909   6.589   3.108   5.423  0.2704  0.2980  0.0884
17140TIP3   OH272910   2.433   0.239  15.994 -0.4433  0.0112 -0.2730
17140TIP3    H172911   2.402   0.252  16.084  1.2032 -1.9129  0.6785
17140TIP3    H272912   2.412   0.320  15.949 -0.0054  1.6647  2.2627
17141TIP3   OH272913   1.278   3.035  13.042  0.0495  0.4882 -0.4523
17141TIP3    H172914   1.289   2.954  13.092  0.2766  0.0574 -1.1769
17141TIP3    H272915   1.366   3.056  13.010 -0.2867  0.0017 -1.7880
17142TIP3   OH272916   6.255   1.295   3.241  0.4397 -0.4893  0.9761
17142TIP3    H172917   6.269   1.256   3.155  1.3305 -0.4555  1.0988
17142TIP3    H272918   6.229   1.385   3.223  3.6985  0.5456  0.7181
17143TIP3   OH272919   6.235   2.832   4.074 -0.7781 -0.2565 -0.8983
17143TIP3    H172920   6.242   2.888   3.997 -1.2210  0.7646 -0.2107
17143TIP3    H272921   6.207   2.890   4.144 -0.1030 -1.1080  0.1135
17144TIP3   OH272922   6.082   6.219   6.100 -0.0136  0.0475 -0.0196
17144TIP3    H172923   6.165   6.186   6.066 -0.1435 -0.1283 -0.1699
17144TIP3    H272924   6.062   6.162   6.174  0.2800  0.4439  0.3679
17145TIP3   OH272925   6.802   0.910  13.640 -0.3480  0.3133 -0.1496
17145TIP3    H172926   6.863   0.968  13.686 -0.5176  1.1311 -0.9294
17145TIP3    H272927   6.718   0.955  13.642 -1.5028 -1.6762  2.6220
17146TIP3   OH272928   3.477   0.036  13.391  0.3087  0.0319 -0.3785
17146TIP3    H172929   3.458  -0.000  13.304  0.5126  0.5538 -0.6458
17146TIP3    H272930   3.557  -0.010  13.419  1.1630  1.0051 -1.1653
17147TIP3   OH272931   5.544   2.173   4.412 -0.0246  0.2735  0.0428
17147TIP3    H172932   5.561   2.182   4.505  0.5854  0.8780 -0.1161
17147TIP3    H272933   5.512   2.084   4.401 -0.9561  0.4739  0.9523
17148TIP3   OH272934   5.019   2.474   4.156  0.2620 -0.1063 -0.0768
17148TIP3    H172935   4.977   2.458   4.241  1.9075  0.7423  0.9567
17148TIP3    H272936   4.977   2.412   4.097 -4.5376  2.4861  0.0560
17149TIP3   OH272937   6.368   0.085  11.606 -0.4777  0.3430 -0.0556
17149TIP3    H172938   6.400   0.009  11.655  1.5281  1.2408  0.1373
17149TIP3    H272939   6.286   0.108  11.649 -1.2870 -1.8562 -0.3058
17150TIP3   OH272940   0.412   3.112   0.626 -0.1654 -0.3581  0.5927
17150TIP3    H172941   0.368   3.174   0.684 -0.0664  0.6852 -0.4138
17150TIP3    H272942   0.368   3.123   0.541  0.6498 -0.8007  0.1034
17151TIP3   OH272943   5.610   0.168  13.549  0.5779 -0.0071  0.2522
17151TIP3    H172944   5.522   0.140  13.523 -0.0895 -0.2645  2.5683
17151TIP3    H272945   5.629   0.243  13.492  0.2198 -1.7940 -2.4538
17152TIP3   OH272946   2.484   0.668  12.306  0.2275  0.1438  0.1029
17152TIP3    H172947   2.468   0.762  12.298 -0.4637 -0.0074 -0.4075
17152TIP3    H272948   2.397   0.630  12.320  0.2671 -0.5826 -1.4029
17153TIP3   OH272949   4.125   4.691   5.260 -0.2833  0.0112 -0.1027
17153TIP3    H172950   4.167   4.732   5.185  1.0465  0.4476  0.8464
17153TIP3    H272951   4.127   4.758   5.328  0.8798 -1.1891  1.1119
17154TIP3   OH272952   5.781   2.425  15.414  0.2980 -0.2848 -0.2530
17154TIP3    H172953   5.850   2.464  15.360 -0.2404 -1.2056 -1.6477
17154TIP3    H272954   5.787   2.331  15.397 -1.2799 -0.3859 -0.4015
17155TIP3   OH272955   0.921   0.531  12.852 -0.5982 -0.2275  0.0017
17155TIP3    H172956   0.895   0.604  12.795 -0.6583 -0.6246 -0.4877
17155TIP3    H272957   0.914   0.454  12.796  1.1621 -0.4173  0.0050
17156TIP3   OH272958   5.041   3.152   1.669 -0.4642 -0.6911 -0.0997
17156TIP3    H172959   5.080   3.181   1.752 -0.4688 -1.7578  0.2881
17156TIP3    H272960   5.046   3.056   1.672  0.5539 -0.7273 -1.8348
17157TIP3   OH272961   6.740   6.311   3.238 -0.1984 -0.0652 -1.0162
17157TIP3    H172962   6.714   6.220   3.253 -1.5476  0.3210 -0.8858
17157TIP3    H272963   6.834   6.306   3.220  0.1982 -1.2750  1.0321
17158TIP3   OH272964   6.253   2.392  13.495 -0.2490  0.3434  0.0388
17158TIP3    H172965   6.315   2.321  13.477  0.3818  0.7493  0.5644
17158TIP3    H272966   6.284   2.465  13.441 -0.5096  0.4302  0.0051
17159TIP3   OH272967   6.524   1.794   1.282 -0.4954 -0.1598  0.0666
17159TIP3    H172968   6.507   1.883   1.249 -2.2437 -1.1677 -2.0154
17159TIP3    H272969   6.494   1.795   1.372  1.9882  2.0251  1.0019
17160TIP3   OH272970   1.496   3.127  16.293  0.3133  0.8472 -0.2535
17160TIP3    H172971   1.445   3.124  16.213 -1.0238  1.1611  0.5581
17160TIP3    H272972   1.574   3.178  16.270  1.2069 -1.1719 -2.0051
17161TIP3   OH272973   4.630   0.290  12.556  0.8810  0.0508 -0.1224
17161TIP3    H172974   4.585   0.279  12.639  1.4655  0.5116  0.2631
17161TIP3    H272975   4.723   0.293  12.579  1.1125 -0.7467 -0.8875
17162TIP3   OH272976   6.198   2.826   5.270  0.2333  0.3057 -0.1986
17162TIP3    H172977   6.281   2.780   5.286  0.0014  0.0229  0.2110
17162TIP3    H272978   6.145   2.763   5.220  0.1499  0.3693 -0.1900
17163TIP3   OH272979   1.887   5.710   1.034  0.1325 -0.0345 -0.1631
17163TIP3    H172980   1.807   5.739   1.078 -0.4964  0.1462 -1.3952
17163TIP3    H272981   1.909   5.627   1.077 -0.3284  0.2469  0.6408
17164TIP3   OH272982   4.113   3.332   3.129  0.3962  0.0775  0.5821
17164TIP3    H172983   4.107   3.266   3.059  1.2554  1.0012 -0.3997
17164TIP3    H272984   4.171   3.293   3.194 -0.7195 -0.9555  0.9843
17165TIP3   OH272985   4.770   1.641  11.354  0.7737 -0.1748 -0.8819
17165TIP3    H172986   4.704   1.708  11.334  0.8343 -0.2371 -1.2885
17165TIP3    H272987   4.782   1.648  11.449 -0.5191 -0.8144 -0.6380
17166TIP3   OH272988   3.675   4.953  15.930 -0.6300 -0.1564  0.3083
17166TIP3    H172989   3.586   4.979  15.952 -0.2623 -0.8379  3.0103
17166TIP3    H272990   3.730   5.004  15.991  0.7896 -0.2009 -0.8855
17167TIP3   OH272991   0.831   3.311   3.343 -0.1450 -0.1672 -0.2696
17167TIP3    H172992   0.870   3.256   3.275  1.2584  0.4626 -0.0174
17167TIP3    H272993   0.904   3.330   3.402 -0.7903  1.2767  0.0977
17168TIP3   OH272994   6.621   0.216  14.447 -0.0719  0.1421  0.2220
17168TIP3    H172995   6.695   0.184  14.395 -0.4673  0.5055 -0.5877
17168TIP3    H272996   6.637   0.182  14.535  1.9519  1.5745  0.4891
17169TIP3   OH272997   3.800   4.669  11.892  0.2731  0.0411  0.1183
17169TIP3    H172998   3.893   4.649  11.901  0.6962  1.9944  0.3702
17169TIP3    H272999   3.787   4.678  11.797 -0.0257 -1.6369 -0.0474
17170TIP3   OH273000   3.335   6.359  16.748  0.3355  0.8332  0.2924
17170TIP3    H173001   3.359   6.388  16.836  2.8118  0.9361 -0.3274
17170TIP3    H273002   3.349   6.264  16.750 -1.6359  0.5150  0.5548
17171TIP3   OH273003   5.821   4.784  15.836  0.4813  0.4761  0.3681
17171TIP3    H173004   5.897   4.843  15.832  1.7502 -0.9981  1.6019
17171TIP3    H273005   5.858   4.696  15.839 -1.3682 -0.4314 -1.1692
17172TIP3   OH273006   5.296   3.660  13.649  0.2389  0.2789 -0.6968
17172TIP3    H173007   5.211   3.674  13.606 -1.4569 -0.7622  1.9883
17172TIP3    H273008   5.272   3.637  13.739  3.4674  0.9210  0.4283
17173TIP3   OH273009   5.132   4.614   0.944  0.4086  0.0185  0.2356
17173TIP3    H173010   5.118   4.573   1.029 -0.2986 -3.5441 -1.4381
17173TIP3    H273011   5.054   4.668   0.930 -0.3183 -0.7722  1.1130
17174TIP3   OH273012   5.617   3.693  16.446  0.5582  0.3263 -0.0690
17174TIP3    H173013   5.580   3.765  16.498 -0.8533 -0.5512  0.1911
17174TIP3    H273014   5.676   3.648  16.506  0.4481  0.4936  0.1689
17175TIP3   OH273015   4.856   0.064   3.590  0.0868  0.0620 -0.2777
17175TIP3    H173016   4.831   0.020   3.671  0.9198  1.0923  0.5711
17175TIP3    H273017   4.913   0.002   3.545 -0.9760 -0.8125 -0.4448
17176TIP3   OH273018   4.208   5.862   0.028  0.8205  0.7509 -0.0712
17176TIP3    H173019   4.294   5.838   0.061  0.1325  2.0249  2.9777
17176TIP3    H273020   4.178   5.931   0.088 -1.3884  1.9746 -2.3944
17177TIP3   OH273021   3.401   2.399  12.009  0.1583  0.0791  0.7687
17177TIP3    H173022   3.401   2.360  12.096  1.7361 -0.2517  0.6586
17177TIP3    H273023   3.379   2.491  12.024 -0.8248 -0.2412  1.3536
17178TIP3   OH273024   2.297   2.297  14.168  0.1562  0.3269 -0.3931
17178TIP3    H173025   2.383   2.298  14.125 -0.0719  0.6076 -0.8567
17178TIP3    H273026   2.271   2.205  14.166  0.2781  0.2959 -0.5972
17179TIP3   OH273027   4.061   5.425   2.709  1.0485  0.0922  0.1138
17179TIP3    H173028   4.045   5.354   2.647 -2.1117 -1.9162  2.8441
17179TIP3    H273029   4.124   5.389   2.771  1.9346  0.9599 -0.2630
17180TIP3   OH273030   0.823   2.994  15.035 -0.9342 -0.0458 -0.3365
17180TIP3    H173031   0.827   2.960  15.124 -1.9310 -1.4950 -0.8050
17180TIP3    H273032   0.823   3.089  15.045 -0.7274 -0.1835  1.1764
17181TIP3   OH273033   6.562   4.657   6.611  0.4390 -0.0661 -0.1623
17181TIP3    H173034   6.594   4.686   6.696  2.5870 -0.2192 -0.8666
17181TIP3    H273035   6.536   4.566   6.626  3.6666 -1.1367 -0.2298
17182TIP3   OH273036   4.988   5.107  16.886 -0.0807  0.8752  0.1733
17182TIP3    H173037   4.926   5.180  16.881 -0.1500  0.7901 -0.2254
17182TIP3    H273038   5.029   5.117  16.972 -0.2892  1.2244  0.2365
17183TIP3   OH273039   5.239   4.629   5.354 -0.6709 -0.8031  0.2390
17183TIP3    H173040   5.188   4.579   5.418 -0.7940  1.9774  2.5445
17183TIP3    H273041   5.328   4.630   5.389 -0.5082 -0.1111 -0.1673
17184TIP3   OH273042   4.480   4.972   3.598  0.1631 -0.1018  0.4307
17184TIP3    H173043   4.401   4.948   3.647  0.6552  2.1239  2.5088
17184TIP3    H273044   4.549   4.975   3.664  1.3295  1.0366 -0.7823
17185TIP3   OH273045   0.673   4.401   5.275 -0.3785 -0.1729 -0.2283
17185TIP3    H173046   0.701   4.332   5.336  1.6846 -0.5545 -1.4938
17185TIP3    H273047   0.704   4.482   5.314 -1.5113 -0.1008  0.5499
17186TIP3   OH273048   4.842   2.955  12.767  0.9593  0.0383 -0.1487
17186TIP3    H173049   4.764   2.902  12.783 -1.0735  2.9765  0.5976
17186TIP3    H273050   4.868   2.934  12.677 -0.4025 -1.3452 -0.2591
17187TIP3   OH273051   0.549   5.655   1.799 -0.5779  0.0165 -0.2470
17187TIP3    H173052   0.573   5.696   1.716 -1.1608  0.9669  0.0266
17187TIP3    H273053   0.470   5.703   1.826  0.8411  1.2896  1.9513
17188TIP3   OH273054   4.745   0.867   3.110  0.3705  0.4783 -0.2828
17188TIP3    H173055   4.653   0.863   3.084  0.1096  0.5352  0.6153
17188TIP3    H273056   4.750   0.942   3.170  1.0475  0.6130 -0.4996
17189TIP3   OH273057   4.463   3.715   4.374  0.4316  0.1740 -0.5246
17189TIP3    H173058   4.511   3.650   4.425  0.1806 -0.3936 -0.9920
17189TIP3    H273059   4.413   3.663   4.310 -0.4050  0.7794 -0.3777
17190TIP3   OH273060   2.556   4.236   4.795 -0.1443 -0.1874 -0.7603
17190TIP3    H173061   2.561   4.331   4.782 -0.2697 -0.2684 -1.4615
17190TIP3    H273062   2.532   4.202   4.709  1.1737 -0.9716 -0.8459
17191TIP3   OH273063   0.124   2.201   4.649  0.5662 -0.3891 -0.2530
17191TIP3    H173064   0.108   2.218   4.742  1.3894  1.3104 -0.3838
17191TIP3    H273065   0.214   2.227   4.634  0.1926  0.1917 -1.7081
17192TIP3   OH273066   0.778   1.156  12.924  0.1647  0.2559 -0.1117
17192TIP3    H173067   0.686   1.143  12.949  0.3350 -0.7552  0.0288
17192TIP3    H273068   0.795   1.248  12.944 -1.2533  0.8855 -1.5587
17193TIP3   OH273069   0.209   4.876  11.081  0.0110 -0.4614  0.3326
17193TIP3    H173070   0.214   4.944  11.148 -0.2091 -0.1355  0.0198
17193TIP3    H273071   0.297   4.874  11.043  0.2028 -0.8037  0.7770
17194TIP3   OH273072   1.257   2.820  16.080 -0.6485 -0.5943 -0.3312
17194TIP3    H173073   1.237   2.796  15.989 -1.2361 -0.5266 -0.2237
17194TIP3    H273074   1.254   2.916  16.080  0.3820 -0.5434 -0.4630
17195TIP3   OH273075   3.475   5.462  14.796 -0.1174  0.3449 -0.7451
17195TIP3    H173076   3.535   5.483  14.868  1.2769 -0.8489 -1.4752
17195TIP3    H273077   3.483   5.535  14.736  0.3068  0.3977 -0.6314
17196TIP3   OH273078   5.773   3.874  15.008  1.3216 -0.6715  0.0561
17196TIP3    H173079   5.829   3.893  14.932  1.8873  1.2703  0.9115
17196TIP3    H273080   5.831   3.831  15.070  1.3345 -0.5454  0.1308
17197TIP3   OH273081   5.235   2.790   3.232 -0.1639  0.0084 -0.4015
17197TIP3    H173082   5.262   2.719   3.291  1.1034 -0.4673 -1.4984
17197TIP3    H273083   5.140   2.787   3.233 -0.1823 -0.0972  1.4748
17198TIP3   OH273084   2.914   5.164  11.735  0.2456 -0.0312 -0.2942
17198TIP3    H173085   2.844   5.218  11.771  0.3582 -0.2174  0.2222
17198TIP3    H273086   2.943   5.110  11.809  1.1857  0.3011 -0.3995
17199TIP3   OH273087   2.724   5.212   0.159  0.6287  0.1285  0.0262
17199TIP3    H173088   2.657   5.268   0.199 -1.1925 -1.3906 -0.7242
17199TIP3    H273089   2.804   5.232   0.207 -0.8239  0.4343  2.5313
17200TIP3   OH273090   4.502   4.060   5.152 -0.2419  0.1904  0.2212
17200TIP3    H173091   4.492   4.082   5.060 -1.7148  0.7318  0.4781
17200TIP3    H273092   4.563   4.125   5.187  0.0054  0.2262 -0.2818
17201TIP3   OH273093   0.175   2.116  14.245  0.2439  0.0803  0.5054
17201TIP3    H173094   0.201   2.028  14.273  1.0135 -0.6727 -2.2633
17201TIP3    H273095   0.095   2.102  14.195  0.7437  0.8382 -0.5461
17202TIP3   OH273096   1.360   3.420  12.854  1.0928  0.1027  0.2465
17202TIP3    H173097   1.303   3.455  12.923 -1.5514 -1.3267 -1.0723
17202TIP3    H273098   1.404   3.345  12.895 -0.8897 -1.0891  0.3143
17203TIP3   OH273099   3.860   2.060  10.510  0.5540  0.6975  0.0473
17203TIP3    H173100   3.791   2.098  10.564  0.4954  0.1367  0.3713
17203TIP3    H273101   3.814   2.007  10.445  0.4500  3.3817 -2.2501
17204TIP3   OH273102   1.042   1.481   0.322  0.3308 -0.1045  0.4578
17204TIP3    H173103   0.954   1.493   0.357 -0.0586  1.3181 -0.8948
17204TIP3    H273104   1.037   1.399   0.273 -0.6320  0.5890 -0.6581
17205TIP3   OH273105   6.121   5.227  16.527  0.7761  0.0994  0.2533
17205TIP3    H173106   6.206   5.186  16.516  1.6862  2.0624 -0.2862
17205TIP3    H273107   6.094   5.252  16.439  0.5040  1.1472  0.6235
17206TIP3   OH273108   3.826   5.431   1.497 -0.0664  0.5200 -0.1889
17206TIP3    H173109   3.832   5.512   1.446 -2.2178  0.9607  0.1808
17206TIP3    H273110   3.903   5.434   1.554  0.0340  2.2060 -0.3445
17207TIP3   OH273111   6.534   4.608  14.136  0.0611 -0.2534 -0.3082
17207TIP3    H173112   6.549   4.702  14.148  0.5751 -0.2570 -0.8962
17207TIP3    H273113   6.599   4.566  14.193  1.3482 -0.2575 -1.7291
17208TIP3   OH273114   3.447   4.629  13.038  0.2930 -0.2174  0.7648
17208TIP3    H173115   3.399   4.573  13.098  0.7842  0.4224  1.8048
17208TIP3    H273116   3.383   4.656  12.972 -0.5686 -0.0318  1.6545
17209TIP3   OH273117   3.379   1.626   3.502  0.2802 -0.3460 -0.2519
17209TIP3    H173118   3.459   1.676   3.490 -0.0920  0.9892  2.0910
17209TIP3    H273119   3.309   1.687   3.479 -0.0994 -1.4117 -2.0176
17210TIP3   OH273120   1.715   2.076   4.510 -1.0008 -0.0151 -0.1137
17210TIP3    H173121   1.664   2.100   4.588  0.2148  0.4756  0.5539
17210TIP3    H273122   1.670   2.120   4.438 -0.6724  1.6769  0.6647
17211TIP3   OH273123   1.475   5.626  10.741 -0.2452  0.4998  0.0504
17211TIP3    H173124   1.394   5.674  10.758 -0.2411  0.6607 -0.3840
17211TIP3    H273125   1.516   5.672  10.668  0.0402  0.1757  0.0024
17212TIP3   OH273126   4.689   0.732   0.527  0.0541  0.5694  0.4397
17212TIP3    H173127   4.781   0.704   0.534 -0.5379 -1.3672  1.0083
17212TIP3    H273128   4.685   0.778   0.443  1.2890 -0.3682 -0.1725
17213TIP3   OH273129   1.726   3.862   2.236  0.1488 -0.6773  0.1941
17213TIP3    H173130   1.656   3.823   2.183 -0.6240  0.9386 -0.0377
17213TIP3    H273131   1.805   3.812   2.212 -0.3776 -0.6649 -1.7148
17214TIP3   OH273132   1.800   4.822  14.945 -0.8074  0.7093  0.4290
17214TIP3    H173133   1.792   4.865  14.860  0.3961 -0.0562 -0.0890
17214TIP3    H273134   1.889   4.787  14.946 -0.9936  0.2256  1.7786
17215TIP3   OH273135   5.107   4.515   5.152  0.2505  0.2219 -0.2338
17215TIP3    H173136   5.135   4.548   5.238 -2.9805 -0.5518  1.2576
17215TIP3    H273137   5.127   4.421   5.155 -0.7894 -0.0016  0.1407
17216TIP3   OH273138   0.802   2.899   6.016 -0.7896 -0.1146  0.3028
17216TIP3    H173139   0.772   2.929   6.101  0.0783  0.6323  0.3575
17216TIP3    H273140   0.882   2.849   6.035 -0.4693  0.2443 -0.0887
17217TIP3   OH273141   2.873   0.858  11.413  0.1252  0.6117 -0.3725
17217TIP3    H173142   2.877   0.945  11.373 -1.1989  0.0258 -1.8871
17217TIP3    H273143   2.957   0.849  11.458  0.2331  2.7139 -0.0547
17218TIP3   OH273144   0.781   3.207  16.946 -0.0754 -0.1676  0.4026
17218TIP3    H173145   0.869   3.177  16.969 -0.1570 -0.7074  0.0239
17218TIP3    H273146   0.777   3.296  16.979  0.5218 -0.2335  0.6647
17219TIP3   OH273147   6.384   4.138   5.536  0.3414  0.1515 -0.2550
17219TIP3    H173148   6.309   4.156   5.592  1.0873  0.3188  0.7208
17219TIP3    H273149   6.433   4.221   5.535  0.9707 -0.2141 -0.1467
17220TIP3   OH273150   5.929   0.478  15.460 -0.0713  0.2787  0.7957
17220TIP3    H173151   5.933   0.386  15.485  0.1512 -0.0520 -0.4129
17220TIP3    H273152   5.885   0.478  15.375 -0.0669  1.2870  0.7831
17221TIP3   OH273153   5.738   3.502  12.687 -0.4480 -0.3285  0.8798
17221TIP3    H173154   5.665   3.510  12.748  0.1637 -1.9189  1.8742
17221TIP3    H273155   5.698   3.508  12.600 -1.7354 -0.8958  1.4087
17222TIP3   OH273156   2.851   3.677  17.022 -0.0778  0.8825 -0.3060
17222TIP3    H173157   2.900   3.641  16.948  0.0919 -0.2152  0.3130
17222TIP3    H273158   2.912   3.671  17.096 -0.2745  1.8817 -0.0518
17223TIP3   OH273159   6.407   1.490  12.876 -0.1642 -0.0669  0.0654
17223TIP3    H173160   6.408   1.581  12.907 -0.1966 -0.0763  0.0936
17223TIP3    H273161   6.374   1.496  12.786 -0.5105 -0.0902  0.1903
17224TIP3   OH273162   2.447   5.439  15.847  0.3265 -0.2218  0.3825
17224TIP3    H173163   2.496   5.435  15.929  2.8284  1.9397 -0.8512
17224TIP3    H273164   2.492   5.378  15.789 -0.8673 -1.0535  0.2813
17225TIP3   OH273165   4.760   5.309   4.239  0.0545  0.1994 -0.2086
17225TIP3    H173166   4.710   5.313   4.321  0.9453  0.3414  0.3405
17225TIP3    H273167   4.714   5.368   4.180 -0.1974  0.6370  0.4158
17226TIP3   OH273168   1.775   2.120   5.786 -0.1886 -0.2255 -0.7821
17226TIP3    H173169   1.827   2.050   5.826 -0.0903 -2.0121 -3.7772
17226TIP3    H273170   1.810   2.201   5.824 -0.4658 -1.6964  2.9845
17227TIP3   OH273171   3.034   5.887   1.041  0.0793 -0.1123 -0.2369
17227TIP3    H173172   3.065   5.803   1.074 -1.4759 -0.5943  0.0698
17227TIP3    H273173   2.999   5.868   0.954 -0.3398  0.2062 -0.1395
17228TIP3   OH273174   2.035   1.488   2.321 -0.0969  0.2112 -0.0382
17228TIP3    H173175   2.044   1.508   2.414  1.0543  1.8879 -0.4515
17228TIP3    H273176   2.019   1.573   2.280 -0.8452 -0.5335 -1.3565
17229TIP3   OH273177   2.600   1.918  14.561 -0.5535  0.1747  0.2911
17229TIP3    H173178   2.649   2.000  14.551  1.6289 -1.2375 -1.4495
17229TIP3    H273179   2.523   1.929  14.506 -0.4616  1.1850  0.3495
17230TIP3   OH273180   0.201   0.723  12.191  0.5826  0.9373  0.4594
17230TIP3    H173181   0.127   0.725  12.251  0.7885  0.5399  0.7320
17230TIP3    H273182   0.244   0.808  12.204  0.9166  0.6621  1.2560
17231TIP3   OH273183   0.285   5.684  11.087 -0.1088  0.0205  0.7931
17231TIP3    H173184   0.201   5.642  11.103  0.1552 -0.3052  1.3518
17231TIP3    H273185   0.335   5.621  11.035 -0.7102  0.7915 -0.7690
17232TIP3   OH273186   1.193   3.826   5.401 -0.5556 -0.0107  0.2074
17232TIP3    H173187   1.173   3.840   5.308 -0.1393 -1.6485 -0.1550
17232TIP3    H273188   1.110   3.797   5.439  0.3802 -5.2374 -0.9704
17233TIP3   OH273189   2.319   5.864  10.864 -0.0770 -0.4393  1.0325
17233TIP3    H173190   2.372   5.922  10.808 -0.4488  1.6209  2.6967
17233TIP3    H273191   2.233   5.863  10.823  0.0398 -0.1240  0.7731
17234TIP3   OH273192   2.329   6.379   0.559 -0.4134 -0.2716  0.3770
17234TIP3    H173193   2.248   6.426   0.542  1.4609  3.2430  0.2696
17234TIP3    H273194   2.384   6.398   0.483  1.7949  0.6868  2.1055
17235TIP3   OH273195   5.407   3.202   4.403  0.0510 -0.1732 -0.1825
17235TIP3    H173196   5.411   3.144   4.327  1.5981 -0.6548  0.2315
17235TIP3    H273197   5.347   3.159   4.463 -0.6608 -0.1266 -0.8423
17236TIP3   OH273198   5.682   6.289   1.218 -0.1979  0.6138 -0.1504
17236TIP3    H173199   5.730   6.232   1.277  1.6403  1.0668 -1.1086
17236TIP3    H273200   5.713   6.264   1.131 -0.8378  1.7263 -0.7141
17237TIP3   OH273201   3.586   5.837   1.441 -0.1807  0.3489  0.0626
17237TIP3    H173202   3.510   5.854   1.497 -0.0699  0.3424  0.2154
17237TIP3    H273203   3.549   5.799   1.361 -0.4204  1.1619 -0.2242
17238TIP3   OH273204   4.815   3.943   1.793 -0.5981 -0.0435 -0.0962
17238TIP3    H173205   4.834   3.849   1.785 -0.3067 -0.3183  2.6880
17238TIP3    H273206   4.720   3.949   1.790 -0.5856 -0.2119 -1.6841
17239TIP3   OH273207   3.329   5.820  14.146 -0.6850 -0.0118  0.5657
17239TIP3    H173208   3.234   5.807  14.144 -0.7973  0.5433  1.6893
17239TIP3    H273209   3.347   5.879  14.072 -0.7789 -2.5092 -1.6096
17240TIP3   OH273210   3.953   5.168   5.277  0.4466 -0.3080  0.3365
17240TIP3    H173211   3.881   5.133   5.330 -0.4352 -1.5501 -1.5446
17240TIP3    H273212   3.941   5.263   5.279  0.3801 -0.3261  2.2049
17241TIP3   OH273213   2.267   2.361  11.960  0.0286 -0.7039  0.4965
17241TIP3    H173214   2.318   2.441  11.969 -0.9387 -0.1457  1.1436
17241TIP3    H273215   2.240   2.359  11.868 -0.4784  0.0562  0.6207
17242TIP3   OH273216   6.828   0.404   3.998 -0.4135  0.0295 -0.0537
17242TIP3    H173217   6.889   0.456   4.050 -2.0090  0.5342  1.3779
17242TIP3    H273218   6.803   0.461   3.925  0.0889  0.1566 -0.1293
17243TIP3   OH273219   2.413   6.787   3.239  0.6976 -0.1140 -0.0077
17243TIP3    H173220   2.370   6.829   3.164 -0.0507  0.2077  0.5945
17243TIP3    H273221   2.503   6.775   3.210  0.5974  0.6668 -0.7044
17244TIP3   OH273222   5.096   2.830   4.076 -0.0468  0.0619 -0.0267
17244TIP3    H173223   5.147   2.766   4.125  1.3832  0.0130 -1.4811
17244TIP3    H273224   5.109   2.912   4.124  1.4291  0.0469 -0.3597
17245TIP3   OH273225   0.043   0.577  15.385 -0.3679 -0.0718  0.1000
17245TIP3    H173226  -0.028   0.559  15.323 -0.0144  3.4828 -1.5752
17245TIP3    H273227   0.085   0.492  15.398 -3.5825 -1.9264 -0.4571
17246TIP3   OH273228   0.981   4.266   4.452  0.5209  0.4533  0.4071
17246TIP3    H173229   0.963   4.201   4.384 -3.2114 -0.0497  1.6610
17246TIP3    H273230   1.003   4.345   4.404 -0.5246 -0.2642 -1.3499
17247TIP3   OH273231   6.524   6.446   3.341 -0.0634 -0.2326  0.3933
17247TIP3    H173232   6.579   6.379   3.301  2.3265  1.1137  1.2257
17247TIP3    H273233   6.577   6.526   3.339 -1.6976  0.9907  1.9215
17248TIP3   OH273234   6.800   4.187  10.872  0.3457 -0.3262 -0.0121
17248TIP3    H173235   6.846   4.107  10.845 -0.7178 -1.9289  2.4919
17248TIP3    H273236   6.857   4.258  10.844  2.4455 -2.0589 -0.4376
17249TIP3   OH273237   6.706   2.720  16.698  0.1954 -0.8400  0.5042
17249TIP3    H173238   6.618   2.716  16.662 -0.4637  0.0967  1.9261
17249TIP3    H273239   6.762   2.683  16.629 -1.2690 -1.2930 -0.4850
17250TIP3   OH273240   0.106   1.837   3.598 -0.0465 -0.6705 -0.0395
17250TIP3    H173241   0.015   1.868   3.602  0.0547 -0.4008  0.1607
17250TIP3    H273242   0.140   1.852   3.686  0.4097 -0.1109 -0.3063
17251TIP3   OH273243   1.334   1.379  12.862 -0.0037  0.2956 -0.0001
17251TIP3    H173244   1.265   1.375  12.927 -1.3625  0.8075 -1.3469
17251TIP3    H273245   1.351   1.473  12.850 -1.6458  0.4142 -2.1753
17252TIP3   OH273246   4.693   4.643   3.617 -0.2723  0.1133 -0.5846
17252TIP3    H173247   4.768   4.678   3.570  0.4681  0.3175  0.7278
17252TIP3    H273248   4.617   4.678   3.569  0.4443  0.4849 -1.4888
17253TIP3   OH273249   2.014   0.904  11.523  0.1644 -0.1554  0.4940
17253TIP3    H173250   2.076   0.865  11.461  0.1437 -0.4261  0.6436
17253TIP3    H273251   1.959   0.832  11.551 -0.4935  0.1622  0.0465
17254TIP3   OH273252   5.457   2.656  13.756  0.3993 -0.2727 -0.1894
17254TIP3    H173253   5.366   2.685  13.749  0.6031  1.0890  1.9303
17254TIP3    H273254   5.485   2.644  13.665 -2.4126 -2.6707 -0.9118
17255TIP3   OH273255   6.312   0.286  11.378 -0.5798 -0.2333  0.4046
17255TIP3    H173256   6.356   0.230  11.443 -1.2023 -0.7653  0.3768
17255TIP3    H273257   6.312   0.233  11.298 -1.1648 -0.1936  0.3748
17256TIP3   OH273258   3.745   5.396   1.117 -0.6569  0.3462 -0.0957
17256TIP3    H173259   3.718   5.487   1.115 -1.5735  0.0727 -0.8466
17256TIP3    H273260   3.793   5.383   1.035 -1.9810 -0.2408 -0.8265
17257TIP3   OH273261   2.135   6.286   4.833  0.0067  0.1633 -0.1144
17257TIP3    H173262   2.182   6.307   4.914 -2.0145  1.8244  0.7356
17257TIP3    H273263   2.082   6.209   4.855 -0.3912  0.4938  0.0976
17258TIP3   OH273264   1.387   3.714  16.253  0.0715  0.0098 -0.1600
17258TIP3    H173265   1.337   3.708  16.334 -1.1838  0.9384 -0.8318
17258TIP3    H273266   1.393   3.623  16.222 -0.5199 -0.2052  0.3306
17259TIP3   OH273267   1.324   4.591  15.785 -0.0207 -0.0654 -0.1542
17259TIP3    H173268   1.263   4.665  15.786  0.4019  0.2818  0.0875
17259TIP3    H273269   1.281   4.525  15.730  0.3416  1.0035 -1.7982
17260TIP3   OH273270   3.484   2.598   2.242 -0.9265 -0.3653  0.2009
17260TIP3    H173271   3.516   2.517   2.283  0.0055 -0.0107  0.2129
17260TIP3    H273272   3.494   2.582   2.148  2.5410  0.8986  0.1820
17261TIP3   OH273273   3.847   5.127  15.035 -0.7028 -0.3059 -0.8254
17261TIP3    H173274   3.898   5.077  14.970 -1.1091  0.7886 -2.0306
17261TIP3    H273275   3.908   5.192  15.068 -1.1929  0.8778 -2.1263
17262TIP3   OH273276   3.604   6.387  14.280  0.2091  0.4149 -0.0962
17262TIP3    H173277   3.578   6.383  14.188  0.6286  0.4699 -0.2157
17262TIP3    H273278   3.661   6.463  14.285 -0.8980  1.2447  0.4792
17263TIP3   OH273279   5.560   2.539  15.571  0.0543  0.6628 -0.2781
17263TIP3    H173280   5.605   2.514  15.490 -0.3287  0.4640 -0.4309
17263TIP3    H273281   5.624   2.522  15.640  0.2773  0.5475 -0.5112
17264TIP3   OH273282   0.687   1.722   4.803 -0.1226 -0.0290 -0.6009
17264TIP3    H173283   0.659   1.746   4.891 -0.2626 -1.4158 -0.2326
17264TIP3    H273284   0.616   1.669   4.768  0.4294 -0.4687 -1.0999
17265TIP3   OH273285   0.624   4.547   5.866 -1.0221 -0.0274  0.2259
17265TIP3    H173286   0.616   4.462   5.909 -1.5248  0.0299  0.2437
17265TIP3    H273287   0.537   4.566   5.832 -0.7660  0.1870 -0.3364
17266TIP3   OH273288   6.105   2.823   3.178  0.0059  0.0267 -0.5731
17266TIP3    H173289   6.054   2.891   3.223  0.4292  0.4926 -0.7817
17266TIP3    H273290   6.048   2.793   3.107 -0.6826 -0.7429  0.2822
17267TIP3   OH273291   4.264   3.233  11.690 -0.2378 -0.1085 -0.3519
17267TIP3    H173292   4.213   3.152  11.683 -1.5796  0.6930 -0.0246
17267TIP3    H273293   4.283   3.257  11.600 -0.1695 -0.5613 -0.4635
17268TIP3   OH273294   1.932   0.001  14.010  0.1997 -0.1109  0.4247
17268TIP3    H173295   1.859   0.044  14.056 -0.1764 -1.6382  1.3279
17268TIP3    H273296   1.944   0.053  13.930 -0.5179  1.3789  1.2366
17269TIP3   OH273297   2.375   5.972  11.987 -0.0382  0.0655 -0.6098
17269TIP3    H173298   2.447   6.014  11.940 -2.3565  2.6154 -2.1194
17269TIP3    H273299   2.381   6.007  12.076  0.7440  0.0418 -0.6486
17270TIP3   OH273300   5.809   5.994   6.049 -0.3200 -0.1062  0.6565
17270TIP3    H173301   5.873   5.932   6.083 -0.1073  0.3875  1.1763
17270TIP3    H273302   5.834   6.078   6.088 -1.7106 -0.0359  1.4715
17271TIP3   OH273303   5.755   5.448   3.711 -0.0163  0.2173 -0.1547
17271TIP3    H173304   5.675   5.431   3.661  0.8553 -4.4650 -0.3841
17271TIP3    H273305   5.825   5.416   3.655  1.4810 -0.5042  2.0077
17272TIP3   OH273306   6.672   0.084   3.538  0.2523 -0.0430  0.3485
17272TIP3    H173307   6.702  -0.004   3.516 -0.1329 -0.2377  0.5943
17272TIP3    H273308   6.576   0.079   3.533  0.2359  0.4339  0.0902
17273TIP3   OH273309   1.046   1.202  11.383 -0.4955 -0.0140  0.1118
17273TIP3    H173310   1.061   1.249  11.466 -0.3153 -0.6851  0.4651
17273TIP3    H273311   1.015   1.270  11.323 -0.8671  0.4396  0.7949
17274TIP3   OH273312   0.782   6.665   4.105 -0.0744  0.0286 -0.1902
17274TIP3    H173313   0.712   6.653   4.041  1.2788  0.1725 -1.7483
17274TIP3    H273314   0.765   6.751   4.144 -1.4325 -0.4613  0.3494
17275TIP3   OH273315   2.018   1.704  12.856  0.2268 -0.0301 -0.0030
17275TIP3    H173316   1.966   1.708  12.776 -0.0931 -3.2380 -0.0607
17275TIP3    H273317   2.107   1.723  12.827  0.3001 -2.2381 -1.3983
17276TIP3   OH273318   1.518   1.159  15.074  0.1321  0.2096  0.1692
17276TIP3    H173319   1.456   1.208  15.020 -1.2318 -2.4253 -0.8530
17276TIP3    H273320   1.499   1.185  15.164 -1.9153  0.1135 -0.1882
17277TIP3   OH273321   4.968   1.596   6.772  0.7020 -0.7175 -0.4466
17277TIP3    H173322   4.926   1.679   6.753  2.0502  0.1746  0.2919
17277TIP3    H273323   5.055   1.603   6.733  1.1823 -1.3840  0.4555
17278TIP3   OH273324   5.343   5.962  12.476 -0.4206  0.3103 -0.3300
17278TIP3    H173325   5.348   5.977  12.571 -0.6247  1.4324 -0.4742
17278TIP3    H273326   5.411   6.020  12.440 -0.7520  0.3454 -0.9054
17279TIP3   OH273327   2.030   2.494  10.999 -0.2565 -0.0413  0.2763
17279TIP3    H173328   2.058   2.584  11.013  0.9018 -0.2357 -0.6904
17279TIP3    H273329   1.957   2.501  10.937 -1.1570  0.3244  1.3503
17280TIP3   OH273330   3.468   6.439   5.764 -0.0023  0.2827 -0.1400
17280TIP3    H173331   3.509   6.401   5.687  0.6575  0.1189  0.2816
17280TIP3    H273332   3.536   6.437   5.831 -0.7599 -0.2148  0.6485
17281TIP3   OH273333   6.570   3.989  16.206 -0.1003  0.0591 -0.2169
17281TIP3    H173334   6.582   4.076  16.168 -0.8484  0.5819  0.7088
17281TIP3    H273335   6.651   3.972  16.254 -0.0519  0.3456 -0.1969
17282TIP3   OH273336   5.781   1.711  14.192 -0.1005  0.3009  0.1277
17282TIP3    H173337   5.846   1.749  14.253  1.8967 -1.8497 -0.5367
17282TIP3    H273338   5.718   1.668  14.249  0.8653 -0.3143  0.7754
17283TIP3   OH273339   2.019   5.887  16.050  0.0559 -0.1776 -0.2851
17283TIP3    H173340   2.008   5.828  15.976  1.2636 -1.8044  0.7707
17283TIP3    H273341   2.107   5.868  16.084  0.8150  2.7294 -0.3117
17284TIP3   OH273342   4.419   4.965  14.217  0.0150  0.9075 -0.4686
17284TIP3    H173343   4.501   4.959  14.266 -0.2515  0.3915 -0.0727
17284TIP3    H273344   4.379   4.879  14.228 -0.9962  1.4453  0.0698
17285TIP3   OH273345   6.006   0.227  14.604 -0.3585 -0.2806  0.1218
17285TIP3    H173346   5.990   0.278  14.525 -1.0652  1.1887  1.1562
17285TIP3    H273347   5.919   0.204  14.635 -0.0513 -2.1993 -0.3257
17286TIP3   OH273348   5.042   2.305  11.971  0.1143  0.0033  0.2627
17286TIP3    H173349   4.977   2.235  11.974  0.3729 -0.3852 -1.6690
17286TIP3    H273350   5.094   2.286  11.892  0.9375  1.7244  0.3416
17287TIP3   OH273351   4.535   1.280   6.340 -0.2065 -0.2928  0.2916
17287TIP3    H173352   4.623   1.312   6.359  0.2073 -0.6160 -0.9682
17287TIP3    H273353   4.540   1.185   6.355  0.0723 -0.5235 -1.1416
17288TIP3   OH273354   1.244   2.534   0.546  0.2920 -0.3576 -0.4752
17288TIP3    H173355   1.215   2.607   0.600 -1.9572 -3.4853  2.9683
17288TIP3    H273356   1.166   2.480   0.534  2.2351 -3.2160 -1.1370
17289TIP3   OH273357   2.133   0.625   0.984  0.4400  0.0714  0.6077
17289TIP3    H173358   2.162   0.674   0.907 -1.5245  0.1613 -0.1162
17289TIP3    H273359   2.137   0.533   0.957  2.4793 -0.1322  1.4004
17290TIP3   OH273360   6.422   0.875   5.046  0.0105 -0.5533  0.3992
17290TIP3    H173361   6.351   0.932   5.078  0.1704 -0.4632  0.5996
17290TIP3    H273362   6.459   0.922   4.972  0.7627  0.0687  1.1467
17291TIP3   OH273363   6.049   4.203  16.820  0.2472  0.0152 -0.0276
17291TIP3    H173364   5.974   4.254  16.790  1.7670  1.8919 -0.8460
17291TIP3    H273365   6.059   4.226  16.912  1.5009  2.1333 -0.6050
17292TIP3   OH273366   4.546   1.801  14.322 -0.3087 -0.2400 -0.0064
17292TIP3    H173367   4.615   1.861  14.295  0.3278 -1.6486 -1.6915
17292TIP3    H273368   4.465   1.843  14.294  0.1431 -0.2495 -1.3851
17293TIP3   OH273369   3.452   1.209  11.420  0.1701 -0.0961  0.3197
17293TIP3    H173370   3.378   1.189  11.363 -1.6696  3.4359  1.1769
17293TIP3    H273371   3.484   1.123  11.449 -0.6392 -1.9379 -3.5709
17294TIP3   OH273372   5.502   4.063  13.510  0.2523 -0.1979  0.3741
17294TIP3    H173373   5.576   4.121  13.529  0.2856  0.0568 -0.4776
17294TIP3    H273374   5.538   3.999  13.448 -0.5757  0.7966 -1.2224
17295TIP3   OH273375   3.004   2.803  14.523 -0.0085  0.5052 -0.2236
17295TIP3    H173376   3.069   2.733  14.517  0.7730  1.1023  0.9506
17295TIP3    H273377   2.926   2.759  14.559  0.5685  0.2666  0.7889
17296TIP3   OH273378   0.662   5.730   2.514  0.0977  0.3435 -0.4887
17296TIP3    H173379   0.658   5.781   2.595  0.2751  0.1398 -0.3520
17296TIP3    H273380   0.754   5.732   2.489  0.3749 -1.1707  0.3245
17297TIP3   OH273381   3.252   5.810  10.823 -0.1142  0.3957 -0.3812
17297TIP3    H173382   3.308   5.826  10.747  0.7835 -0.5152  0.0628
17297TIP3    H273383   3.297   5.854  10.895 -0.6221  0.7061 -0.2477
17298TIP3   OH273384   0.706   5.586   4.305  0.4438  0.1515 -0.2678
17298TIP3    H173385   0.716   5.660   4.364  2.1622 -0.7084  0.5694
17298TIP3    H273386   0.763   5.606   4.231  1.6187 -0.7227  0.3803
17299TIP3   OH273387   4.340   3.361  15.136  0.5244 -0.1523  0.1518
17299TIP3    H173388   4.364   3.439  15.187 -0.2205  0.6159 -0.6407
17299TIP3    H273389   4.245   3.368  15.125  0.5241 -0.8997 -0.3793
17300TIP3   OH273390   4.407   5.203   0.887 -0.2809 -0.1421  0.2953
17300TIP3    H173391   4.444   5.117   0.909 -0.1402  0.2064  1.5025
17300TIP3    H273392   4.395   5.246   0.971  0.1678  1.2393 -0.3102
17301TIP3   OH273393   0.935   2.268   4.777 -0.8666  0.1181 -0.4146
17301TIP3    H173394   1.018   2.267   4.728  0.1584  0.5006  1.2282
17301TIP3    H273395   0.945   2.340   4.839 -0.8491 -2.1354  2.3886
17302TIP3   OH273396   3.462   5.832   2.017 -0.3338  0.1963 -0.2597
17302TIP3    H173397   3.478   5.738   2.019 -1.6282 -0.1999  4.6769
17302TIP3    H273398   3.527   5.869   2.077 -0.8116  2.2547 -0.9109
17303TIP3   OH273399   5.881   2.376   3.282  0.4720 -0.2214 -0.8597
17303TIP3    H173400   5.861   2.397   3.373  0.5283  1.7876 -1.2535
17303TIP3    H273401   5.827   2.299   3.262 -0.4772  0.0585  0.5054
17304TIP3   OH273402   1.104   5.562   2.749  0.2910 -0.1621  0.4671
17304TIP3    H173403   1.192   5.530   2.770  0.5592 -0.1103 -0.5053
17304TIP3    H273404   1.116   5.655   2.730  0.2505 -0.3979 -0.8325
17305TIP3   OH273405   6.037   3.462   1.097 -0.1702  0.8407  0.4668
17305TIP3    H173406   5.988   3.535   1.058 -1.5647 -0.5373 -0.4941
17305TIP3    H273407   6.122   3.500   1.121 -1.3398  3.0961  1.3262
17306TIP3   OH273408   1.301   2.255   1.162 -0.3044  0.1650  0.0621
17306TIP3    H173409   1.363   2.234   1.232 -0.2081  0.9454  0.2229
17306TIP3    H273410   1.260   2.171   1.140 -1.0441  0.0430  1.7286
17307TIP3   OH273411   5.892   3.221   4.842  0.5446 -0.3691 -0.1895
17307TIP3    H173412   5.840   3.142   4.855  0.3607 -0.1244  0.6330
17307TIP3    H273413   5.897   3.231   4.747 -0.3076 -0.7879 -0.2896
17308TIP3   OH273414   2.165   4.156  14.797 -1.0114  0.6498  0.0164
17308TIP3    H173415   2.070   4.165  14.803 -1.1142 -0.1558 -0.3115
17308TIP3    H273416   2.179   4.062  14.782 -0.1948  0.8478 -0.4893
17309TIP3   OH273417   4.646   0.730  11.708 -0.4779 -0.1914  0.0450
17309TIP3    H173418   4.634   0.793  11.779 -1.0376  0.1341 -0.3267
17309TIP3    H273419   4.586   0.659  11.728 -1.5879  0.4829 -0.7396
17310TIP3   OH273420   0.839   0.395   0.347  0.5848 -0.2383 -0.0155
17310TIP3    H173421   0.850   0.437   0.262 -0.0552 -0.2433 -0.1055
17310TIP3    H273422   0.746   0.405   0.367  0.2124 -2.3127 -0.4254
17311TIP3   OH273423   2.051   5.512   4.489 -0.0193  0.5712  0.0699
17311TIP3    H173424   1.965   5.505   4.530  1.1187  0.1076  2.6155
17311TIP3    H273425   2.087   5.594   4.524  0.8567  0.3639 -0.3295
17312TIP3   OH273426   5.268   4.288  11.980  0.0633 -0.0187  0.0753
17312TIP3    H173427   5.266   4.370  11.930 -2.6312 -1.5082 -2.6096
17312TIP3    H273428   5.219   4.308  12.060 -0.4478  1.0203 -0.4687
17313TIP3   OH273429   5.464   6.044  10.648 -0.3598  0.0650  0.6270
17313TIP3    H173430   5.374   6.049  10.616 -0.7476 -2.0396  1.2352
17313TIP3    H273431   5.517   6.067  10.572 -1.3863  0.8778  0.1249
17314TIP3   OH273432   4.203   4.258  12.081  0.4723  0.0511 -0.3340
17314TIP3    H173433   4.256   4.308  12.018 -0.6476  0.6923 -0.8111
17314TIP3    H273434   4.225   4.167  12.064  1.7416  0.3189 -0.2126
17315TIP3   OH273435   2.297   5.709   1.602 -0.2266  0.4428  0.4189
17315TIP3    H173436   2.238   5.761   1.548 -0.6450 -1.2156 -0.8360
17315TIP3    H273437   2.355   5.667   1.539  0.7262  0.1749  1.4569
17316TIP3   OH273438   2.133   2.774   2.222  0.0911 -0.0249 -0.1111
17316TIP3    H173439   2.056   2.804   2.269 -0.1987  1.7591 -1.5964
17316TIP3    H273440   2.123   2.678   2.219 -2.1558  0.1545 -0.4147
17317TIP3   OH273441   5.573   6.127  12.401  0.4827  0.3593 -0.2028
17317TIP3    H173442   5.665   6.120  12.425  0.4232 -0.6173 -0.1789
17317TIP3    H273443   5.573   6.151  12.309  0.7508  1.0649 -0.0181
17318TIP3   OH273444   6.151   0.593   3.716 -0.3976 -0.5167 -0.4487
17318TIP3    H173445   6.108   0.508   3.721 -1.1290 -0.1081  0.5836
17318TIP3    H273446   6.108   0.638   3.643  0.4604 -1.2543 -1.4494
17319TIP3   OH273447   5.421   5.850  13.356 -0.6878  0.2500  0.1355
17319TIP3    H173448   5.500   5.852  13.302 -0.7043 -0.5572  0.0570
17319TIP3    H273449   5.403   5.941  13.376 -0.2122  0.5048 -0.5446
17320TIP3   OH273450   2.418   4.035   5.184  0.0370 -0.3663 -0.7129
17320TIP3    H173451   2.402   3.985   5.264  0.9255  1.1747  0.4886
17320TIP3    H273452   2.459   3.972   5.124 -1.0759 -1.6674 -0.1476
17321TIP3   OH273453   4.925   6.489   1.421 -0.0376  0.2491 -0.0870
17321TIP3    H173454   4.971   6.444   1.492 -0.3888  1.1948  0.7659
17321TIP3    H273455   4.900   6.420   1.361 -1.5573 -0.8837  1.7440
17322TIP3   OH273456   3.117   1.458  10.865 -0.6808 -0.3221  0.3352
17322TIP3    H173457   3.188   1.502  10.819 -0.5609 -1.4932 -0.6505
17322TIP3    H273458   3.038   1.485  10.818 -0.4798 -2.2388 -1.2447
17323TIP3   OH273459   2.483   3.060   3.255  0.2022  0.2105  0.3706
17323TIP3    H173460   2.468   3.143   3.210  0.3421 -0.1408 -0.3327
17323TIP3    H273461   2.571   3.069   3.293 -0.0673  0.6520  0.9128
17324TIP3   OH273462   2.850   6.033   4.124 -0.5480  0.0125  0.8998
17324TIP3    H173463   2.808   6.019   4.039 -0.5053 -2.0465  1.1740
17324TIP3    H273464   2.914   5.962   4.131  1.4974  1.8120  1.4400
17325TIP3   OH273465   2.517   6.685  14.070  0.7159  0.4072 -0.5473
17325TIP3    H173466   2.465   6.712  14.145  0.8984 -0.5686 -0.0555
17325TIP3    H273467   2.569   6.763  14.047 -0.1133  1.0357 -0.3417
17326TIP3   OH273468   3.478   2.804  12.084  0.5128  0.7482  0.2273
17326TIP3    H173469   3.491   2.779  11.993 -1.1282 -0.2538  0.2342
17326TIP3    H273470   3.392   2.770  12.107  0.6754  1.4075  2.0183
17327TIP3   OH273471   6.166   2.080  16.481  0.2314 -0.4984 -0.6879
17327TIP3    H173472   6.222   2.016  16.525 -0.0255 -0.0649  0.2931
17327TIP3    H273473   6.226   2.132  16.427  0.9223  0.4658  0.9387
17328TIP3   OH273474   1.365   4.757  13.030  0.0082  0.0330 -0.2433
17328TIP3    H173475   1.452   4.797  13.021 -0.0486  0.4237  0.7870
17328TIP3    H273476   1.307   4.830  13.049 -0.2713 -0.3975  0.6293
17329TIP3   OH273477   1.035   0.773  12.376 -0.1360  1.1834  0.8740
17329TIP3    H173478   1.109   0.713  12.370  0.7204  2.2601  0.3017
17329TIP3    H273479   0.985   0.757  12.296 -1.1611 -0.3129  1.7659
17330TIP3   OH273480   2.435   3.771   5.118 -0.1453 -0.3136  0.1838
17330TIP3    H173481   2.356   3.770   5.064 -0.7213  1.1836  0.9446
17330TIP3    H273482   2.476   3.685   5.102  0.6703  0.6081 -3.9322
17331TIP3   OH273483   4.997   0.136   3.042  0.0977  0.4839  0.0109
17331TIP3    H173484   5.067   0.199   3.056 -0.6184  1.1341  0.7591
17331TIP3    H273485   5.042   0.052   3.031  0.9495  0.4660  2.7776
17332TIP3   OH273486   1.115   3.536  13.936 -0.0132 -0.1650  0.0254
17332TIP3    H173487   1.192   3.590  13.954  0.7241 -0.8623 -0.9294
17332TIP3    H273488   1.111   3.530  13.841 -1.6915  0.4504  0.0172
17333TIP3   OH273489   6.375   1.220   1.266  0.8240  0.3614  0.3948
17333TIP3    H173490   6.382   1.273   1.186  0.5000 -0.9566 -0.5376
17333TIP3    H273491   6.295   1.170   1.255  0.7164  0.2346  1.6142
17334TIP3   OH273492   6.811   0.220  11.082 -0.1452 -0.3210 -0.0454
17334TIP3    H173493   6.754   0.294  11.104  0.2072  0.4353 -1.5704
17334TIP3    H273494   6.758   0.142  11.100 -0.8376  0.3200  0.7198
17335TIP3   OH273495   5.190   2.571  16.389  0.2143 -0.3872  0.1113
17335TIP3    H173496   5.138   2.618  16.324  0.3949  0.3673  0.4987
17335TIP3    H273497   5.240   2.508  16.338  0.5918  0.4107 -0.5301
17336TIP3   OH273498   0.137   5.852   2.442 -0.4319 -0.5468 -0.1341
17336TIP3    H173499   0.150   5.882   2.532  0.8404 -3.1288  0.6474
17336TIP3    H273500   0.132   5.932   2.390 -2.7557  1.0834  2.3650
17337TIP3   OH273501   4.970   2.992   4.430  0.9418 -0.6479  0.0795
17337TIP3    H173502   4.921   2.941   4.366  1.2537 -0.2620 -0.4768
17337TIP3    H273503   4.907   3.058   4.461  0.9152 -0.5603 -0.1558
17338TIP3   OH273504   6.100   6.497  16.039  0.3376  0.3339 -0.7084
17338TIP3    H173505   6.011   6.476  16.010  0.4700  1.5099 -2.0786
17338TIP3    H273506   6.097   6.485  16.134 -1.1104 -0.2452 -0.7961
17339TIP3   OH273507   0.808   4.666   5.100  0.2121  0.6941 -0.0739
17339TIP3    H173508   0.765   4.715   5.030  2.3900  0.9839 -1.2983
17339TIP3    H273509   0.804   4.575   5.072 -0.4443  0.5888  0.3225
17340TIP3   OH273510   1.301   1.131  15.709  0.5887 -0.3652 -0.1603
17340TIP3    H173511   1.303   1.136  15.804 -0.0766  0.6628 -0.1801
17340TIP3    H273512   1.263   1.045  15.690  0.8550 -0.6277  0.4986
17341TIP3   OH273513   2.889   1.276  13.320 -0.1306  0.5591  0.1106
17341TIP3    H173514   2.912   1.201  13.266 -0.6307  0.4180  0.0910
17341TIP3    H273515   2.846   1.238  13.397  1.4467  0.6797  1.1011
17342TIP3   OH273516   0.870   6.782  16.433 -0.4102  1.1662  0.2215
17342TIP3    H173517   0.854   6.871  16.403  1.4301  1.5360  0.2012
17342TIP3    H273518   0.965   6.778  16.446 -0.2393 -1.2470 -1.2089
17343TIP3   OH273519   4.237   5.892   4.269  0.3874 -0.3623 -0.0956
17343TIP3    H173520   4.165   5.856   4.217  0.1733  1.9745 -1.5671
17343TIP3    H273521   4.272   5.963   4.215  1.2865  1.0777  2.2253
17344TIP3   OH273522   6.670   0.472  15.323  0.1569  0.3388  0.2617
17344TIP3    H173523   6.640   0.463  15.413 -0.3351 -0.9811 -0.0110
17344TIP3    H273524   6.680   0.382  15.291  0.7157  0.7710 -0.8782
17345TIP3   OH273525   5.940   3.308  14.990  0.1229  0.2348 -0.8165
17345TIP3    H173526   5.930   3.268  14.904  0.3255 -1.7807  0.0408
17345TIP3    H273527   5.909   3.398  14.979 -1.2943 -0.4238 -2.6099
17346TIP3   OH273528   5.090   0.563  12.451  0.1072  0.6888 -0.0485
17346TIP3    H173529   5.111   0.555  12.544  2.1808 -0.7071 -0.5712
17346TIP3    H273530   5.141   0.494  12.409  0.1830  2.0593 -2.3690
17347TIP3   OH273531   0.375   4.367  12.327 -0.1012  0.0953  0.1346
17347TIP3    H173532   0.417   4.372  12.413 -0.6275  1.6938  0.3232
17347TIP3    H273533   0.281   4.368  12.346 -0.2280 -0.3436 -0.4375
17348TIP3   OH273534   6.036   1.028   2.950  0.0700 -0.2014 -0.0533
17348TIP3    H173535   5.957   1.038   3.003  0.2504 -1.7590  0.5391
17348TIP3    H273536   6.090   1.104   2.974 -0.9730  0.5578 -0.0278
17349TIP3   OH273537   0.443   5.071  15.123 -0.5173 -0.1230 -0.3150
17349TIP3    H173538   0.522   5.030  15.158 -0.9884 -2.2058 -1.4658
17349TIP3    H273539   0.391   5.094  15.200  0.2210 -0.8573  0.4173
17350TIP3   OH273540   1.813   4.790  15.937 -0.1533 -0.2393  0.4534
17350TIP3    H173541   1.757   4.864  15.959 -0.5244 -0.7378  1.2123
17350TIP3    H273542   1.832   4.801  15.844 -0.8657  0.3634  0.3729
17351TIP3   OH273543   6.623   2.472   5.303 -0.3759  0.2762  0.4306
17351TIP3    H173544   6.713   2.496   5.326  0.2114 -1.1151 -0.3052
17351TIP3    H273545   6.626   2.452   5.209 -1.7421  1.4423  0.1093
17352TIP3   OH273546   0.035   3.083  14.622 -0.5509  0.2314  0.1197
17352TIP3    H173547   0.019   3.087  14.717 -0.2236  0.0993  0.1825
17352TIP3    H273548   0.020   2.992  14.599 -1.9884  0.5361 -0.2096
17353TIP3   OH273549   6.547   5.018   2.168 -0.3561  0.4439  0.2146
17353TIP3    H173550   6.516   5.101   2.204 -2.0718 -0.0824  0.0699
17353TIP3    H273551   6.523   4.953   2.233 -0.7920 -0.1616 -0.5280
17354TIP3   OH273552   0.422   5.357   1.136  0.1796  1.1564  0.2015
17354TIP3    H173553   0.354   5.294   1.111  1.2628  0.2397 -0.5028
17354TIP3    H273554   0.502   5.323   1.097  1.2344  1.7381  1.7634
17355TIP3   OH273555   5.814   6.456  12.465 -0.6703  0.3519 -0.5167
17355TIP3    H173556   5.796   6.433  12.556 -0.6781  0.4103 -0.5033
17355TIP3    H273557   5.893   6.511  12.470 -1.2033  1.1222 -0.4529
17356TIP3   OH273558   2.583   6.818   0.560  0.3713 -0.1748  0.1949
17356TIP3    H173559   2.605   6.755   0.628  1.9738 -0.2390 -0.3306
17356TIP3    H273560   2.654   6.882   0.562 -0.5393  0.8937 -0.1682
17357TIP3   OH273561   5.715   1.485   2.311 -0.2812  0.0457 -0.0724
17357TIP3    H173562   5.796   1.532   2.292  0.1094 -0.1150  1.1578
17357TIP3    H273563   5.742   1.395   2.327 -0.7184 -0.0481  0.1668
17358TIP3   OH273564   6.046   0.442  16.228 -0.3609  0.0350 -0.0477
17358TIP3    H173565   6.048   0.425  16.323  0.3969  0.6446  0.0576
17358TIP3    H273566   6.137   0.451  16.204 -0.4987 -1.0149 -1.0320
17359TIP3   OH273567   3.370   3.349  11.773 -0.3385  0.3168  0.0412
17359TIP3    H173568   3.447   3.376  11.824  0.1177 -1.0045  0.1049
17359TIP3    H273569   3.331   3.279  11.825 -0.4786 -0.3254 -0.9148
17360TIP3   OH273570   5.822   4.433   3.021 -0.2599  0.0143  0.5562
17360TIP3    H173571   5.777   4.514   2.994 -2.2351 -0.2692  2.7175
17360TIP3    H273572   5.883   4.416   2.949  0.0531  3.2535 -0.1340
17361TIP3   OH273573   1.454   5.603  13.979 -0.5176  0.3336  0.9522
17361TIP3    H173574   1.545   5.631  13.964 -0.5254 -0.1983 -0.1249
17361TIP3    H273575   1.422   5.665  14.045  0.2719  1.2495  0.5149
17362TIP3   OH273576   6.389   0.587   0.946  0.2899 -0.1516 -0.3570
17362TIP3    H173577   6.331   0.536   1.002 -0.5132  1.1643  0.0341
17362TIP3    H273578   6.398   0.534   0.867 -0.8009 -0.7470 -0.1026
17363TIP3   OH273579   3.606   5.142   3.033 -0.0694 -0.2315 -1.3311
17363TIP3    H173580   3.654   5.156   3.114 -0.0132  0.0939 -1.4206
17363TIP3    H273581   3.551   5.065   3.051  0.1210 -0.3092 -1.0686
17364TIP3   OH273582   6.526   4.652  11.569 -0.2474 -0.2201  0.3485
17364TIP3    H173583   6.563   4.641  11.657  1.4487  1.3829 -0.0881
17364TIP3    H273584   6.585   4.602  11.512 -0.6792 -0.3163 -0.0222
17365TIP3   OH273585   5.225   3.889  16.763  0.3102  0.1459  0.3309
17365TIP3    H173586   5.171   3.819  16.800  0.6074  0.6715  1.8290
17365TIP3    H273587   5.303   3.844  16.730  0.4053 -0.2663  1.0903
17366TIP3   OH273588   0.552   3.325   1.606 -0.3235  0.2153 -0.1779
17366TIP3    H173589   0.485   3.258   1.593  0.3122 -0.4582 -0.0165
17366TIP3    H273590   0.520   3.376   1.680 -0.7638  0.0291 -0.2351
17367TIP3   OH273591   6.224   0.629   2.263  0.9327 -0.2555 -0.1820
17367TIP3    H173592   6.148   0.572   2.271  1.0967 -0.4954 -0.2983
17367TIP3    H273593   6.287   0.595   2.326  0.4414  0.7892  0.9204
17368TIP3   OH273594   4.296   3.458   2.007 -0.2741  0.3497  0.6834
17368TIP3    H173595   4.238   3.382   2.010  0.7033 -0.4373  0.2158
17368TIP3    H273596   4.244   3.530   2.042 -1.3618 -0.4426  0.7203
17369TIP3   OH273597   2.797   6.297  10.726 -0.1867 -0.0907 -0.1974
17369TIP3    H173598   2.734   6.364  10.750  0.8291  2.1076 -3.1076
17369TIP3    H273599   2.796   6.296  10.630  2.8913 -1.2048 -0.3396
17370TIP3   OH273600   2.624   2.800   0.722 -0.1728  0.1094 -0.6393
17370TIP3    H173601   2.612   2.714   0.681  0.4358  0.9006 -2.5725
17370TIP3    H273602   2.535   2.828   0.746 -0.5019 -0.5559 -1.0623
17371TIP3   OH273603   3.597   4.593   6.014  0.1130  0.0592  0.0378
17371TIP3    H173604   3.634   4.676   5.984  0.0133  0.6512  1.4683
17371TIP3    H273605   3.523   4.618   6.069  0.2361 -0.9635  0.6918
17372TIP3   OH273606   6.530   3.218  14.826 -0.3917  0.0719 -0.4771
17372TIP3    H173607   6.500   3.152  14.764 -0.3013  0.3529 -0.8266
17372TIP3    H273608   6.594   3.173  14.882 -0.2105 -0.0920 -0.8179
17373TIP3   OH273609   6.608   2.990   4.024 -0.3688  0.5255  0.2468
17373TIP3    H173610   6.552   3.024   4.093  0.7950  0.7988  1.0881
17373TIP3    H273611   6.575   3.030   3.944 -2.3347 -0.5243  0.4681
17374TIP3   OH273612   6.230   6.029  15.945  0.3909 -0.3144  0.2129
17374TIP3    H173613   6.254   6.067  16.030 -0.1717  0.7291 -0.0786
17374TIP3    H273614   6.308   5.978  15.920 -0.0602 -2.1393  2.1387
17375TIP3   OH273615   1.525   6.613  16.760  0.2616 -0.1995 -0.0049
17375TIP3    H173616   1.549   6.559  16.685 -0.7639 -0.3829 -0.2036
17375TIP3    H273617   1.497   6.550  16.827 -1.2319  0.0731 -0.3405
17376TIP3   OH273618   3.938   4.753  11.325  0.7008 -0.5246 -0.4325
17376TIP3    H173619   3.926   4.845  11.348  1.4032 -0.8860  1.4952
17376TIP3    H273620   3.850   4.715  11.330  0.7625 -0.4846  1.2514
17377TIP3   OH273621   2.565   3.284   2.633  0.0354  0.3075 -0.5670
17377TIP3    H173622   2.638   3.224   2.651  1.3945  1.9528 -0.3594
17377TIP3    H273623   2.607   3.365   2.605 -1.7109  1.4555 -0.0198
17378TIP3   OH273624   3.551   1.307  12.509 -0.1430 -0.0250  0.3745
17378TIP3    H173625   3.527   1.235  12.451 -1.9382 -0.5416  1.6601
17378TIP3    H273626   3.576   1.378  12.451 -0.3105 -1.0288 -0.9721
17379TIP3   OH273627   5.117   3.676  13.888 -0.3347 -0.0935 -0.2663
17379TIP3    H173628   5.193   3.679  13.946  1.1131  0.2244 -2.0829
17379TIP3    H273629   5.073   3.760  13.902  0.5746  0.4112 -0.3566
17380TIP3   OH273630   2.526   5.684   0.924 -0.4769 -0.2486  0.0286
17380TIP3    H173631   2.471   5.757   0.953  0.7717  0.4944  0.6272
17380TIP3    H273632   2.587   5.670   0.996  0.5911 -0.5435 -0.9102
17381TIP3   OH273633   6.791   0.491   4.545  0.1754  0.2054 -0.4356
17381TIP3    H173634   6.723   0.425   4.539  0.3099  0.0264 -0.0080
17381TIP3    H273635   6.756   0.566   4.496  0.2386 -0.3581 -1.3605
17382TIP3   OH273636   3.337   5.247  13.324 -0.0484  0.0958 -0.0306
17382TIP3    H173637   3.356   5.247  13.418 -0.9324  0.9150  0.1619
17382TIP3    H273638   3.307   5.158  13.306  2.4764 -0.8503 -0.0766
17383TIP3   OH273639   6.327   2.616  14.701 -0.4348  0.4976 -0.0661
17383TIP3    H173640   6.373   2.543  14.742  1.8943  2.5659  1.3260
17383TIP3    H273641   6.235   2.591  14.703  0.2305 -2.3062  0.4276
17384TIP3   OH273642   1.029   5.320   2.060  0.1780  0.4987 -0.5196
17384TIP3    H173643   1.083   5.241   2.051 -1.6096 -1.2585  2.3954
17384TIP3    H273644   1.087   5.383   2.102  0.6574 -0.6501  0.6543
17385TIP3   OH273645   0.729   3.528   1.814  0.0525 -0.3001 -0.5144
17385TIP3    H173646   0.789   3.500   1.745  1.4507  1.3346 -0.0302
17385TIP3    H273647   0.712   3.620   1.796  1.2217  0.4464  1.7798
17386TIP3   OH273648   1.348   4.625  15.466 -0.3358 -0.8350 -0.3249
17386TIP3    H173649   1.369   4.533  15.448  0.6537 -0.4461 -1.2903
17386TIP3    H273650   1.427   4.660  15.507 -0.7287 -0.4248  0.0914
17387TIP3   OH273651   5.168   3.299  14.984 -0.2989  0.4689  0.0822
17387TIP3    H173652   5.095   3.243  14.955 -0.3545  0.8623 -0.5404
17387TIP3    H273653   5.186   3.356  14.909  1.1630 -0.1359 -0.0420
17388TIP3   OH273654   1.753   0.893   0.223  0.0563  0.2671 -0.1388
17388TIP3    H173655   1.677   0.947   0.199 -0.3143  0.1200  0.6745
17388TIP3    H273656   1.817   0.956   0.257  1.0223  0.6269 -2.4325
17389TIP3   OH273657   5.414   6.274   4.804 -0.5592  0.2448  0.5854
17389TIP3    H173658   5.440   6.352   4.755 -1.3971  2.4957  3.3996
17389TIP3    H273659   5.492   6.249   4.852 -1.1121  1.6114  2.3296
17390TIP3   OH273660   1.450   4.506  13.035  0.3611  0.3600  0.4456
17390TIP3    H173661   1.398   4.586  13.034 -0.7881 -0.3592 -0.0930
17390TIP3    H273662   1.468   4.488  12.942  1.3611  0.4555  0.6092
17391TIP3   OH273663   3.013   0.939  16.817  0.1798 -0.6881 -0.0567
17391TIP3    H173664   2.991   0.892  16.898  0.4129  0.8527  0.9371
17391TIP3    H273665   2.932   0.982  16.792  0.4633 -0.0037  0.1732
17392TIP3   OH273666   4.496   4.147   4.887 -0.3481 -0.0505  0.0984
17392TIP3    H173667   4.442   4.222   4.863  0.2531  0.4604  0.2928
17392TIP3    H273668   4.459   4.073   4.838  1.0963  0.9978 -2.8053
17393TIP3   OH273669   2.456   5.156  12.345  0.0794 -0.1340 -0.1213
17393TIP3    H173670   2.419   5.129  12.261 -0.8457  1.0800 -0.1380
17393TIP3    H273671   2.407   5.106  12.410 -1.5960  1.3386 -0.1528
17394TIP3   OH273672   6.337   3.491  13.189 -0.5670  0.5540  0.3116
17394TIP3    H173673   6.320   3.573  13.234  0.4183 -0.5701  2.9718
17394TIP3    H273674   6.251   3.452  13.176 -0.8570  0.4886  2.2160
17395TIP3   OH273675   5.128   1.560   4.651 -0.0001  0.1289  0.8367
17395TIP3    H173676   5.192   1.612   4.603 -0.6542 -0.1762 -0.4021
17395TIP3    H273677   5.178   1.520   4.722  1.2592 -0.3117 -0.2546
17396TIP3   OH273678   6.181   1.817  12.174 -0.0104  0.8157 -0.0671
17396TIP3    H173679   6.266   1.860  12.183  1.4684 -2.1744  2.3346
17396TIP3    H273680   6.183   1.777  12.087  0.2468  2.2660 -0.7404
17397TIP3   OH273681   5.906   6.199  13.929  0.1591  0.3249 -0.3272
17397TIP3    H173682   5.849   6.131  13.965 -0.6724 -0.1815 -2.4550
17397TIP3    H273683   5.862   6.281  13.950 -0.2615  0.0548 -0.1339
17398TIP3   OH273684   5.097   4.782   4.720  0.0718 -0.1490  0.2137
17398TIP3    H173685   5.155   4.846   4.762 -0.8986  0.2044  1.0286
17398TIP3    H273686   5.106   4.703   4.773 -0.6778  0.1064  0.7349
17399TIP3   OH273687   5.198   3.988   0.611  0.5651 -0.4986  0.2584
17399TIP3    H173688   5.279   4.040   0.613  0.5612 -0.4778 -0.0725
17399TIP3    H273689   5.180   3.975   0.518  0.0346 -0.2673  0.3257
17400TIP3   OH273690   6.455   4.330   0.820 -0.5670 -0.3072 -0.2251
17400TIP3    H173691   6.543   4.292   0.817 -0.1667  0.5592  0.0462
17400TIP3    H273692   6.397   4.255   0.832  0.2196 -0.8081  0.6435
17401TIP3   OH273693   4.498   0.472   1.237  0.4860 -0.2496  0.3339
17401TIP3    H173694   4.424   0.459   1.296  1.4954  1.6527  2.1665
17401TIP3    H273695   4.573   0.436   1.285  1.1447  0.3099 -0.2519
17402TIP3   OH273696   4.777   2.104   1.115 -0.0052 -0.0580 -0.8195
17402TIP3    H173697   4.769   2.079   1.207 -0.7854  1.2760 -0.5042
17402TIP3    H273698   4.699   2.069   1.073 -0.0902  0.0976 -0.7915
17403TIP3   OH273699   4.308   5.718  10.651  0.6799 -0.3397 -0.2998
17403TIP3    H173700   4.388   5.731  10.601  1.5319 -0.4432  0.9787
17403TIP3    H273701   4.308   5.789  10.715 -0.4645 -0.1082 -0.5294
17404TIP3   OH273702   4.165   5.507  16.950  0.3368  0.2779 -0.3169
17404TIP3    H173703   4.091   5.543  16.998  0.0486  2.6465 -2.3121
17404TIP3    H273704   4.241   5.552  16.986  0.4109  0.2573 -0.4476
17405TIP3   OH273705   3.229   3.003   4.333  0.3677  0.4094 -0.4636
17405TIP3    H173706   3.199   3.066   4.268  0.2499  1.8922  0.9477
17405TIP3    H273707   3.324   3.000   4.322  0.2467 -0.2556 -1.4470
17406TIP3   OH273708   4.643   2.955  16.513  0.2535  0.0963 -0.2815
17406TIP3    H173709   4.683   2.880  16.469  0.2591  0.6018 -1.1543
17406TIP3    H273710   4.556   2.925  16.538  0.9418 -0.8370  1.1429
17407TIP3   OH273711   1.859   3.455  13.898 -0.6126  0.0237 -0.1399
17407TIP3    H173712   1.951   3.429  13.888  0.0231  1.6994  0.9701
17407TIP3    H273713   1.844   3.455  13.993 -1.5253  0.5070 -0.2707
17408TIP3   OH273714   2.502   6.617   1.163  0.3964 -0.0150  0.0796
17408TIP3    H173715   2.460   6.663   1.091 -0.3831 -0.3113  0.3406
17408TIP3    H273716   2.430   6.580   1.214  0.9950 -1.6685 -0.2145
17409TIP3   OH273717   0.542   4.854   3.183  0.0594  0.7531  0.0676
17409TIP3    H173718   0.579   4.938   3.159  0.2243  1.5664  2.8474
17409TIP3    H273719   0.615   4.792   3.175  0.4109  1.2038 -0.2310
17410TIP3   OH273720   1.901   3.952  11.630 -0.5869 -0.0430  0.4705
17410TIP3    H173721   1.963   4.012  11.588 -2.4433  1.3739 -0.3930
17410TIP3    H273722   1.877   3.996  11.712 -0.6208 -0.4727  0.6926
17411TIP3   OH273723   4.266   0.173   2.794  0.0537 -0.3774 -0.5399
17411TIP3    H173724   4.358   0.196   2.780  0.3221 -0.5695  0.7956
17411TIP3    H273725   4.259   0.159   2.888 -1.0090 -1.8015 -0.7978
17412TIP3   OH273726   0.452   0.629   3.292  0.2364  0.0989 -0.4400
17412TIP3    H173727   0.415   0.606   3.207 -2.2458 -1.2982  0.9042
17412TIP3    H273728   0.401   0.704   3.321  0.0199 -0.3815  0.4545
17413TIP3   OH273729   3.278   4.692   5.564  0.2583 -0.6664 -0.5973
17413TIP3    H173730   3.189   4.693   5.600 -0.1963  2.7448 -1.4368
17413TIP3    H273731   3.333   4.720   5.637  0.7113 -2.6927 -0.1037
17414TIP3   OH273732   6.523   1.434  17.103  0.1611 -0.7351  0.5128
17414TIP3    H173733   6.564   1.362  17.150  1.5640  0.0736  0.6050
17414TIP3    H273734   6.559   1.513  17.144 -1.7139  0.0483  0.7566
17415TIP3   OH273735   4.122   6.528  16.625 -0.4986  0.1324 -0.6707
17415TIP3    H173736   4.102   6.599  16.685  0.8258  0.3678 -0.4771
17415TIP3    H273737   4.134   6.570  16.540  0.9206  0.2624 -0.4349
17416TIP3   OH273738   1.660   5.034   0.433  0.0940 -0.2516 -0.0836
17416TIP3    H173739   1.640   4.952   0.389  0.0923 -0.8874  1.0829
17416TIP3    H273740   1.581   5.088   0.420 -0.9610 -1.3818  1.3273
17417TIP3   OH273741   4.655   4.874   2.631  0.1200  0.2048 -0.2615
17417TIP3    H173742   4.676   4.828   2.712  1.2020  0.7532 -0.2173
17417TIP3    H273743   4.610   4.808   2.577 -0.6820 -0.1422  0.7971
17418TIP3   OH273744   4.017   0.139   1.788 -0.2977  0.4609 -0.0347
17418TIP3    H173745   3.923   0.156   1.795 -0.1231  1.3079  0.4478
17418TIP3    H273746   4.050   0.211   1.735 -0.1883 -0.8558 -1.8281
17419TIP3   OH273747   5.895   2.022   4.304  0.3093  0.2415  0.0524
17419TIP3    H173748   5.876   1.935   4.269 -2.1941  0.8894 -0.4173
17419TIP3    H273749   5.965   2.008   4.368  0.2418 -2.0321 -0.2934
17420TIP3   OH273750   1.392   4.293   4.242 -0.5639 -0.2559 -0.1281
17420TIP3    H173751   1.403   4.377   4.198  0.1728 -1.5272 -2.5320
17420TIP3    H273752   1.329   4.245   4.188 -1.5382 -1.0459  1.5854
17421TIP3   OH273753   6.524   3.270  14.091  0.1102 -0.1498  0.0413
17421TIP3    H173754   6.483   3.217  14.159  0.8469 -0.8735 -0.0646
17421TIP3    H273755   6.517   3.218  14.012 -1.6572  1.1176 -0.7063
17422TIP3   OH273756   2.297   3.113  12.221  0.3013 -0.3775  1.2064
17422TIP3    H173757   2.281   3.207  12.212  0.1032 -0.5267 -0.3946
17422TIP3    H273758   2.383   3.100  12.181 -0.5383 -1.1323 -0.4485
17423TIP3   OH273759   1.610   0.155   0.607  0.2599 -0.1114  0.5063
17423TIP3    H173760   1.584   0.064   0.595 -0.5079 -0.0963  1.8713
17423TIP3    H273761   1.579   0.200   0.529  0.5391 -0.9827 -0.1244
17424TIP3   OH273762   6.712   2.665  11.522 -0.2913  0.0477 -0.1878
17424TIP3    H173763   6.636   2.613  11.497  0.1057 -1.0346  0.7849
17424TIP3    H273764   6.704   2.675  11.617  1.3743 -1.0809  0.1027
17425TIP3   OH273765   6.464   1.870  16.216  0.1176  0.0969 -0.1279
17425TIP3    H173766   6.530   1.837  16.276 -2.3476 -0.4860  2.4722
17425TIP3    H273767   6.425   1.792  16.177  1.8514  0.4680 -2.8611
17426TIP3   OH273768   5.882   6.365  16.751  0.0077 -0.1159  0.2277
17426TIP3    H173769   5.887   6.413  16.834 -1.4325 -2.5996  1.8797
17426TIP3    H273770   5.973   6.343  16.730  0.4662  1.3049  0.6461
17427TIP3   OH273771   2.500   4.841   4.992  0.0351  0.6160 -0.5967
17427TIP3    H173772   2.530   4.926   5.026 -1.0584  1.1926 -1.0095
17427TIP3    H273773   2.499   4.853   4.897  3.0526 -0.9677 -0.9319
17428TIP3   OH273774   6.258   4.228  12.468 -0.3162  0.3719  0.2863
17428TIP3    H173775   6.323   4.167  12.502  1.2047  1.7965  0.0761
17428TIP3    H273776   6.204   4.250  12.543 -0.3736 -0.5982  0.5422
17429TIP3   OH273777   0.802   5.713  11.939  0.4939 -0.5368 -0.3568
17429TIP3    H173778   0.822   5.723  11.846  0.1686  0.1665 -0.3541
17429TIP3    H273779   0.719   5.665  11.941 -0.0170  0.3168 -0.4612
17430TIP3   OH273780   1.753   5.715  14.861 -0.4611  0.2537 -0.2658
17430TIP3    H173781   1.711   5.747  14.781  0.6994  0.1509 -0.9356
17430TIP3    H273782   1.757   5.791  14.918  1.4950  1.1717 -1.5190
17431TIP3   OH273783   1.157   0.883  13.013 -0.2033  0.1260 -0.2728
17431TIP3    H173784   1.141   0.933  12.933 -0.3125  0.1818 -0.2148
17431TIP3    H273785   1.157   0.791  12.984 -0.6557  0.1224 -0.2668
17432TIP3   OH273786   4.805   6.408   5.804  0.1291  0.3522 -0.1065
17432TIP3    H173787   4.731   6.392   5.745  1.0030 -1.1361 -0.8646
17432TIP3    H273788   4.828   6.500   5.789 -0.3753  0.3086 -1.2726
17433TIP3   OH273789   5.479   5.998   2.151 -0.0063 -0.1973  0.5429
17433TIP3    H173790   5.515   6.043   2.227 -0.0512 -1.2495  1.2040
17433TIP3    H273791   5.396   6.042   2.135 -0.2125 -0.2516  1.3966
17434TIP3   OH273792   1.712   0.670   2.005 -0.4534 -0.2529 -0.4356
17434TIP3    H173793   1.694   0.750   2.055 -2.0098 -0.4516 -0.6393
17434TIP3    H273794   1.651   0.605   2.040 -0.9181 -0.6633 -1.9133
17435TIP3   OH273795   4.270   4.039   4.618 -0.5340 -0.0440 -0.4277
17435TIP3    H173796   4.289   4.105   4.551  1.1002  0.4445  0.4481
17435TIP3    H273797   4.304   3.957   4.581 -0.4603  0.0464 -0.5609
17436TIP3   OH273798   4.487   3.836  16.843 -0.1464  0.1690 -0.3285
17436TIP3    H173799   4.490   3.927  16.875 -0.1822  0.4173 -1.0164
17436TIP3    H273800   4.422   3.794  16.899 -1.3034  0.9775 -1.0098
17437TIP3   OH273801   0.779   1.103   1.244 -0.5163 -0.1682  0.5869
17437TIP3    H173802   0.856   1.054   1.217 -1.0563 -0.4611 -0.4750
17437TIP3    H273803   0.724   1.040   1.290  0.0537  0.1481  1.7550
17438TIP3   OH273804   5.930   2.221  13.745 -0.0989 -0.3017 -0.0361
17438TIP3    H173805   5.866   2.292  13.754 -0.5261 -0.5319 -1.0825
17438TIP3    H273806   5.918   2.190  13.656 -0.5006 -2.2469  0.6585
17439TIP3   OH273807   1.069   4.831  14.446 -0.2797 -0.4797 -0.0245
17439TIP3    H173808   1.133   4.874  14.502 -1.2409 -1.1784  1.7066
17439TIP3    H273809   1.036   4.901  14.390  1.5277  0.0081 -0.5351
17440TIP3   OH273810   3.419   6.751  14.976  0.2075 -0.0261  0.0234
17440TIP3    H173811   3.452   6.667  15.006 -0.8833 -0.3212  0.4667
17440TIP3    H273812   3.473   6.816  15.021  1.0138 -0.4764 -0.2738
17441TIP3   OH273813   5.127   3.847  12.384  0.4145  0.1869  0.1155
17441TIP3    H173814   5.061   3.910  12.354  0.4344  0.2610  0.2284
17441TIP3    H273815   5.081   3.763  12.383 -0.2411  0.4926  1.9472
17442TIP3   OH273816   5.656   5.519   5.231  0.7683 -0.3574 -0.2920
17442TIP3    H173817   5.595   5.504   5.159 -0.7271 -2.0453  1.2004
17442TIP3    H273818   5.702   5.436   5.241  0.2891 -0.4748  1.2298
17443TIP3   OH273819   6.642   3.551   6.366 -0.3892 -0.4501  0.6951
17443TIP3    H173820   6.633   3.644   6.343 -1.1283  0.1196  3.0446
17443TIP3    H273821   6.556   3.526   6.400 -0.5198 -2.3337 -0.8304
17444TIP3   OH273822   5.484   2.112   3.369 -0.1584 -0.7551  0.0428
17444TIP3    H173823   5.489   2.032   3.316  0.6420  0.2258 -1.4427
17444TIP3    H273824   5.476   2.183   3.305  0.3447  0.4566  1.2599
17445TIP3   OH273825   2.417   2.307  15.075 -0.6820 -0.4665 -0.0352
17445TIP3    H173826   2.423   2.220  15.114 -3.8003 -0.9695 -0.4425
17445TIP3    H273827   2.445   2.296  14.985 -1.4988 -1.1766 -0.2098
17446TIP3   OH273828   0.860   2.565   0.994 -0.7305 -0.3429 -0.4191
17446TIP3    H173829   0.916   2.582   1.070  2.9089 -1.3049 -2.6631
17446TIP3    H273830   0.820   2.649   0.974 -0.8855  0.1790  1.7858
17447TIP3   OH273831   6.028   4.220   4.100 -0.3923  0.1127  0.2495
17447TIP3    H173832   5.973   4.233   4.178 -2.6511 -1.4756 -0.9511
17447TIP3    H273833   6.012   4.129   4.075 -0.8834  0.9558 -2.8728
17448TIP3   OH273834   1.407   6.048  11.758 -0.0942  0.2332  0.1769
17448TIP3    H173835   1.408   5.967  11.707 -0.1327  0.0787  0.4209
17448TIP3    H273836   1.463   6.108  11.709 -1.1596  0.5147 -0.7534
17449TIP3   OH273837   3.010   1.074   3.235  0.4805  0.1912  0.1485
17449TIP3    H173838   3.095   1.029   3.241  0.3412 -0.1937 -0.6104
17449TIP3    H273839   2.946   1.004   3.243  0.1877  0.6159  1.9023
17450TIP3   OH273840   1.326   5.668   0.814  0.7115 -0.1797  0.5562
17450TIP3    H173841   1.398   5.677   0.876  0.1191 -0.1925  1.2642
17450TIP3    H273842   1.367   5.643   0.732  1.5692  0.4251  0.7922
17451TIP3   OH273843   5.564   1.139   2.204  0.2873 -0.8070  0.1589
17451TIP3    H173844   5.616   1.177   2.133  0.7752 -2.9551 -0.7160
17451TIP3    H273845   5.502   1.081   2.159 -0.7676 -0.6673  1.3877
17452TIP3   OH273846   3.496   5.140   5.049 -0.0779 -0.0282  0.4154
17452TIP3    H173847   3.574   5.140   5.105  0.7588  1.0396 -0.7080
17452TIP3    H273848   3.503   5.220   4.997 -1.2564 -0.5688 -0.6412
17453TIP3   OH273849   0.890   0.136   4.645 -0.2169  0.3422  0.3385
17453TIP3    H173850   0.841   0.200   4.696  0.2199  0.7057  0.3058
17453TIP3    H273851   0.943   0.188   4.585 -1.0137 -0.0896 -0.7689
17454TIP3   OH273852   5.879   4.175   0.911  0.0747 -0.5979 -0.0471
17454TIP3    H173853   5.972   4.151   0.906  0.3217  0.3574 -0.2678
17454TIP3    H273854   5.872   4.253   0.857 -0.5606  0.2021  1.1362
17455TIP3   OH273855   5.275   1.645   4.050  0.4541  0.2258 -0.2623
17455TIP3    H173856   5.313   1.561   4.077 -0.2089 -0.3337 -1.0172
17455TIP3    H273857   5.184   1.623   4.027  0.4212  1.0666 -0.9547
17456TIP3   OH273858   0.668   0.553  14.349 -0.4120 -0.1371  0.1650
17456TIP3    H173859   0.629   0.485  14.293 -0.5682  1.1659 -1.3936
17456TIP3    H273860   0.594   0.607  14.376 -0.4276 -1.1371  2.2621
17457TIP3   OH273861   2.706   1.997  14.897  0.5125 -0.0929  0.0370
17457TIP3    H173862   2.728   1.909  14.867  2.2418  0.0935  0.6488
17457TIP3    H273863   2.738   2.054  14.827  0.3888  0.1002  0.1388
17458TIP3   OH273864   5.365   0.064   1.717 -0.4998  0.4002 -0.0684
17458TIP3    H173865   5.343   0.024   1.801 -0.7464  1.2014  0.2604
17458TIP3    H273866   5.452   0.031   1.696 -0.5584 -0.0351  0.3568
17459TIP3   OH273867   5.587   0.318   3.853  0.6206 -0.0183 -0.3905
17459TIP3    H173868   5.574   0.246   3.915 -1.5665  1.4336  1.0035
17459TIP3    H273869   5.619   0.390   3.907  1.6190  0.4185 -1.5412
17460TIP3   OH273870   4.903   2.277  14.037  0.4357  0.3688 -0.2136
17460TIP3    H173871   4.929   2.325  14.116  1.6594 -0.0007 -0.3781
17460TIP3    H273872   4.881   2.345  13.973  2.4446  0.7695 -0.5468
17461TIP3   OH273873   4.780   5.252   5.684 -0.0375  0.5467 -0.4022
17461TIP3    H173874   4.802   5.170   5.727  0.5088 -0.2371 -2.0962
17461TIP3    H273875   4.856   5.308   5.698  0.0866  0.3408 -0.2457
17462TIP3   OH273876   3.304   2.533   3.012 -1.0172  0.3664  0.2327
17462TIP3    H173877   3.386   2.562   2.974 -0.6999  0.9622  1.3397
17462TIP3    H273878   3.237   2.559   2.949 -0.3692 -0.2117 -0.7235
17463TIP3   OH273879   3.183   0.340  14.469  0.0477 -0.4041 -0.9078
17463TIP3    H173880   3.217   0.427  14.452 -1.6088  0.2651 -1.0287
17463TIP3    H273881   3.237   0.306  14.541  0.7709  0.6798 -0.9294
17464TIP3   OH273882   4.228   5.929  13.401 -0.0185  0.1015 -0.0370
17464TIP3    H173883   4.229   5.933  13.496 -1.4079  0.5108 -0.0102
17464TIP3    H273884   4.135   5.917  13.379  0.5697 -3.6919 -1.2125
17465TIP3   OH273885   6.643   6.148  16.903  0.2648 -0.0169  0.5265
17465TIP3    H173886   6.720   6.205  16.901 -1.3688  2.3325  0.3236
17465TIP3    H273887   6.612   6.147  16.812  0.9690 -2.3575  0.2530
17466TIP3   OH273888   1.997   5.421  16.567  0.0142 -0.5662 -0.2594
17466TIP3    H173889   1.973   5.343  16.617  1.2965 -0.4129  0.6229
17466TIP3    H273890   2.000   5.391  16.476  1.8783 -1.9313  0.2003
17467TIP3   OH273891   0.430   3.136  11.464 -0.0527  0.2633  0.0725
17467TIP3    H173892   0.442   3.206  11.401  0.4933 -1.3820 -1.7514
17467TIP3    H273893   0.508   3.082  11.456 -1.7000 -2.1829 -0.8138
17468TIP3   OH273894   2.737   4.832   4.527  0.4915  0.6507  0.1365
17468TIP3    H173895   2.804   4.899   4.513 -0.4348  1.4139 -0.7948
17468TIP3    H273896   2.744   4.775   4.450 -0.5735  1.3204 -0.4791
17469TIP3   OH273897   5.243   3.999  10.170  0.6499 -0.5123  0.1907
17469TIP3    H173898   5.274   4.054  10.242 -0.5254 -0.7303  0.8940
17469TIP3    H273899   5.319   3.946  10.145  1.2429  0.0225  0.8404
17470TIP3   OH273900   0.486   2.838   3.755  0.4613 -0.0930  0.2195
17470TIP3    H173901   0.518   2.909   3.810  1.6229 -0.3382 -0.1149
17470TIP3    H273902   0.391   2.848   3.756  0.6386  2.8165 -1.5637
17471TIP3   OH273903   2.573   1.593  12.719  0.6369 -0.1186  0.3234
17471TIP3    H173904   2.485   1.594  12.682 -0.2255  1.0600  2.2519
17471TIP3    H273905   2.565   1.543  12.800  1.4067  1.1041  1.1913
17472TIP3   OH273906   2.154   2.910  12.759  0.3709 -0.8286  0.0662
17472TIP3    H173907   2.237   2.952  12.734 -0.6225  2.8478  2.1216
17472TIP3    H273908   2.167   2.885  12.851 -0.5412 -0.8661  0.1938
17473TIP3   OH273909   0.009   4.397  11.629  0.1730 -0.4157 -0.3124
17473TIP3    H173910   0.083   4.457  11.626  0.4485 -0.7461 -0.2101
17473TIP3    H273911   0.033   4.332  11.695 -1.8855  1.6457  2.6814
17474TIP3   OH273912   1.560   5.334   0.675  0.5157  0.7178  0.0757
17474TIP3    H173913   1.652   5.359   0.668  0.8574 -0.3431  0.7173
17474TIP3    H273914   1.557   5.269   0.744 -0.8021  1.0984  0.4083
17475TIP3   OH273915   6.784   0.661   1.846  0.5411 -0.5647 -0.4465
17475TIP3    H173916   6.691   0.642   1.836 -0.1945  1.7353  1.0761
17475TIP3    H273917   6.815   0.682   1.758 -1.2953  1.9258 -0.6165
17476TIP3   OH273918   1.307   5.875   0.523  0.0245 -0.8163  0.3736
17476TIP3    H173919   1.264   5.789   0.523  0.7300 -1.1893 -0.6126
17476TIP3    H273920   1.313   5.899   0.431  0.0933  0.1725  0.6245
17477TIP3   OH273921   1.586   4.278   2.095  0.2607 -0.1480 -0.4850
17477TIP3    H173922   1.607   4.317   2.180  0.0773  0.4531 -0.7040
17477TIP3    H273923   1.647   4.319   2.034 -1.7912  2.0713 -1.2342
17478TIP3   OH273924   1.667   2.292   1.922  0.2279  0.3654  0.6658
17478TIP3    H173925   1.682   2.273   2.015  0.2496 -2.3250  0.1829
17478TIP3    H273926   1.695   2.213   1.876  0.0412  1.5491 -1.6533
17479TIP3   OH273927   1.657   5.912  11.316  0.3996  0.3301  0.3707
17479TIP3    H173928   1.672   5.922  11.410  0.1118  2.1811  0.2534
17479TIP3    H273929   1.562   5.906  11.307  0.3581  1.2060  0.1344
17480TIP3   OH273930   2.974   3.952  12.330 -0.2594  0.6771 -0.1018
17480TIP3    H173931   2.962   3.979  12.239 -1.4315 -0.9892 -0.4919
17480TIP3    H273932   3.013   3.865  12.324 -0.5802  0.4456  0.9788
17481TIP3   OH273933   3.892   3.639   0.325  0.2617 -0.1111  0.1760
17481TIP3    H173934   3.891   3.549   0.295 -2.0044 -0.1586  0.2708
17481TIP3    H273935   3.945   3.637   0.405  0.5907 -1.2478 -0.0613
17482TIP3   OH273936   1.322   6.557  10.211  0.1830  0.3029  0.3747
17482TIP3    H173937   1.266   6.608  10.270 -1.2800  1.0219 -1.5089
17482TIP3    H273938   1.390   6.619  10.183  0.0085  0.4148  0.1911
17483TIP3   OH273939   6.499   0.133   1.371  0.5382 -0.2744 -0.1829
17483TIP3    H173940   6.455   0.108   1.290 -0.1314 -1.0981  0.4218
17483TIP3    H273941   6.447   0.207   1.405  0.1215 -0.6907  0.0917
17484TIP3   OH273942   5.849   6.109  14.771  0.1603 -0.3778 -0.1693
17484TIP3    H173943   5.920   6.073  14.718 -0.4204 -0.3275 -0.9988
17484TIP3    H273944   5.875   6.090  14.861  2.0101  1.0402 -0.3325
17485TIP3   OH273945   1.398   0.575   4.130  0.1849 -0.3629  0.5108
17485TIP3    H173946   1.318   0.523   4.120 -0.5790  0.6724  0.9121
17485TIP3    H273947   1.451   0.527   4.192  0.6878 -1.9676 -1.0784
17486TIP3   OH273948   4.371   5.372   1.501  0.2029  0.1934 -0.3272
17486TIP3    H173949   4.347   5.287   1.537  0.0231  0.4702  0.2129
17486TIP3    H273950   4.384   5.428   1.577  1.8560  0.2478 -0.6003
17487TIP3   OH273951   4.011   5.745   4.861 -0.2597 -0.1393  0.0273
17487TIP3    H173952   3.950   5.673   4.844  1.5854 -1.3445 -2.0056
17487TIP3    H273953   4.071   5.711   4.927 -0.7475  0.3993  0.7538
17488TIP3   OH273954   3.578   3.987  11.479  0.1755 -0.1382  0.3200
17488TIP3    H173955   3.563   3.987  11.573 -0.4825  0.0114  0.2209
17488TIP3    H273956   3.670   4.008  11.469  0.2774 -0.2889  0.9357
17489TIP3   OH273957   6.260   5.573   0.151  0.5103  0.0920  0.1563
17489TIP3    H173958   6.211   5.616   0.222 -0.7421 -0.0431 -0.5923
17489TIP3    H273959   6.224   5.484   0.148  1.0266 -0.1095 -0.2242
17490TIP3   OH273960   3.734   1.814  16.278 -0.1413  0.6968  0.2828
17490TIP3    H173961   3.825   1.846  16.282  0.6596 -0.8505 -2.5708
17490TIP3    H273962   3.683   1.890  16.251  0.6382  1.1245 -0.0233
17491TIP3   OH273963   2.436   0.686  16.568 -0.2302 -0.1579 -0.1370
17491TIP3    H173964   2.368   0.723  16.512  0.8747  0.2009 -1.2648
17491TIP3    H273965   2.501   0.756  16.578  0.9917 -1.1559 -0.7900
17492TIP3   OH273966   4.608   5.912  12.361 -0.3845 -0.2477 -0.3921
17492TIP3    H173967   4.657   5.950  12.434  0.8034 -1.5169 -0.4974
17492TIP3    H273968   4.662   5.839  12.330 -1.1086 -0.0844 -2.2077
17493TIP3   OH273969   3.133   3.436  14.589  0.2217  0.1025  0.1539
17493TIP3    H173970   3.062   3.440  14.652 -0.2563  0.4870 -0.4066
17493TIP3    H273971   3.173   3.523  14.592  0.6636 -0.1049  0.4516
17494TIP3   OH273972   2.024   3.345   1.803 -0.5116  0.2314  0.6853
17494TIP3    H173973   2.057   3.265   1.764  1.2431  2.0319 -1.8982
17494TIP3    H273974   1.971   3.316   1.878  2.7332 -3.1222  1.9805
17495TIP3   OH273975   5.573   4.861   6.020  0.0051 -0.1275  0.4941
17495TIP3    H173976   5.630   4.837   6.093  0.5678  0.2073  0.1775
17495TIP3    H273977   5.502   4.910   6.061  0.1539 -0.2019  0.8509
17496TIP3   OH273978   2.340   0.673  13.945 -0.3815 -0.4455 -0.0546
17496TIP3    H173979   2.374   0.613  14.012  0.2974  0.7566  0.7240
17496TIP3    H273980   2.258   0.705  13.982  0.0269  0.2710  0.2496
17497TIP3   OH273981   5.424   1.117  12.768 -0.3231 -0.1208  0.3001
17497TIP3    H173982   5.429   1.139  12.861  0.3040 -1.8119  0.7079
17497TIP3    H273983   5.516   1.112  12.740 -0.4861  2.3294 -0.9734
17498TIP3   OH273984   0.839   5.886  13.633 -0.1379 -0.1272 -0.0410
17498TIP3    H173985   0.856   5.974  13.601 -0.1603 -0.5369 -1.2076
17498TIP3    H273986   0.895   5.829  13.580 -2.6048 -1.1699 -1.7148
17499TIP3   OH273987   6.763   4.334   2.138  0.4331 -0.2323  0.3451
17499TIP3    H173988   6.822   4.292   2.200  0.7726  0.5143  0.5259
17499TIP3    H273989   6.676   4.327   2.179  0.2527 -1.9412 -0.2289
17500TIP3   OH273990   2.556   3.487  12.648  0.0263  0.7308 -0.2903
17500TIP3    H173991   2.624   3.519  12.588  0.2802 -1.5848 -1.3732
17500TIP3    H273992   2.603   3.472  12.730  0.5908  0.3179 -0.6713
17501TIP3   OH273993   5.196   6.393  16.411  0.3026 -0.2548  0.4182
17501TIP3    H173994   5.291   6.403  16.401  0.1373  1.3023  0.3040
17501TIP3    H273995   5.160   6.479  16.391 -0.9762 -0.2261  2.5579
17502TIP3   OH273996   4.177   4.843   2.434 -0.1165  0.3173 -0.0570
17502TIP3    H173997   4.271   4.835   2.450 -0.3136  0.1953  1.2204
17502TIP3    H273998   4.170   4.873   2.344  1.1886  1.4280  0.1762
17503TIP3   OH273999   1.254   0.586  15.052  0.0805 -0.1831  1.2406
17503TIP3    H174000   1.273   0.532  14.975 -0.5116  1.2913 -0.0137
17503TIP3    H274001   1.173   0.549  15.088 -1.3261  0.8761 -0.6640
17504TIP3   OH274002   5.516   4.291  12.106 -0.1254 -0.1609  0.1614
17504TIP3    H174003   5.482   4.297  12.196  0.2821  4.4767  0.2437
17504TIP3    H274004   5.438   4.301  12.051  0.1021  2.8432  0.2326
17505TIP3   OH274005   6.085   0.472   6.009  0.0735 -0.3877 -0.4690
17505TIP3    H174006   6.016   0.469   6.076 -0.0726  0.2390 -0.5815
17505TIP3    H274007   6.154   0.416   6.044 -0.5779 -1.1955 -0.4593
17506TIP3   OH274008   0.212   2.995  11.527  0.3562  0.3792  0.4884
17506TIP3    H174009   0.136   3.054  11.519  1.0734  1.2207 -0.3381
17506TIP3    H274010   0.287   3.052  11.511  1.0130 -0.9975 -1.7126
17507TIP3   OH274011   6.685   5.348   2.130 -0.0646  0.0784 -0.0541
17507TIP3    H174012   6.731   5.309   2.055 -0.0150 -0.9757  0.4998
17507TIP3    H274013   6.599   5.304   2.130  1.2408 -2.8607  2.6949
17508TIP3   OH274014   0.897   1.160   2.236 -0.5928  0.1558 -0.6871
17508TIP3    H174015   0.885   1.243   2.190 -0.0402  0.4900 -0.2377
17508TIP3    H274016   0.989   1.139   2.222 -0.7032 -0.3276 -0.6978
17509TIP3   OH274017   2.077   1.719  13.186 -0.2285  0.3656  0.7068
17509TIP3    H174018   2.111   1.808  13.193  0.2773  0.2288  0.0568
17509TIP3    H274019   2.107   1.688  13.101 -1.1762 -0.1059  0.5244
17510TIP3   OH274020   2.769   1.077   4.640 -0.1358  0.4635  0.6207
17510TIP3    H174021   2.836   1.035   4.586 -1.6653  0.6241 -1.5056
17510TIP3    H274022   2.717   1.129   4.578 -1.4293  1.3896  2.3950
17511TIP3   OH274023   3.256   0.442   2.733 -0.1900  0.2869  0.3549
17511TIP3    H174024   3.272   0.537   2.729 -0.1128  0.2392 -1.3294
17511TIP3    H274025   3.338   0.403   2.702 -0.6274 -0.2730 -0.1145
17512TIP3   OH274026   0.608   6.066   4.411  0.4258  0.5931  0.6331
17512TIP3    H174027   0.578   6.001   4.474 -0.4501  0.2142 -0.1513
17512TIP3    H274028   0.685   6.105   4.452 -0.1034  0.3481  1.9263
17513TIP3   OH274029   5.248   3.169  15.753  0.1779 -0.0304 -0.0686
17513TIP3    H174030   5.327   3.145  15.705  0.1051 -0.6097  0.0949
17513TIP3    H274031   5.207   3.237  15.699  0.2661 -0.4425 -0.6579
17514TIP3   OH274032   4.115   2.398   5.246 -0.2139 -0.0629 -0.0500
17514TIP3    H174033   4.022   2.380   5.227 -0.2643 -0.0177  0.1508
17514TIP3    H274034   4.135   2.475   5.192 -0.1959 -0.2804 -0.3599
17515TIP3   OH274035   4.740   5.446   0.638 -0.3384 -0.1190 -0.5532
17515TIP3    H174036   4.762   5.419   0.549 -0.3926  1.6125 -1.1273
17515TIP3    H274037   4.813   5.502   0.664  0.2474 -1.4912  0.9637
17516TIP3   OH274038   3.069   3.270  16.742 -0.1418 -0.0298  0.0487
17516TIP3    H174039   3.139   3.289  16.804 -1.1743 -0.0993  1.2919
17516TIP3    H274040   3.043   3.180  16.761 -0.5260 -0.0285 -0.4339
17517TIP3   OH274041   1.017   4.870   2.220 -0.1492  0.0720  0.2889
17517TIP3    H174042   0.928   4.898   2.239  0.0527  1.4837 -0.7000
17517TIP3    H274043   1.070   4.912   2.289 -0.1015  0.3742  0.0722
17518TIP3   OH274044   3.933   3.129   2.134 -0.0751  0.3495 -0.0607
17518TIP3    H174045   3.838   3.136   2.132 -0.1198 -0.1585  0.0516
17518TIP3    H274046   3.950   3.035   2.131  0.4454  0.4540 -1.0666
17519TIP3   OH274047   4.068   2.883  11.996 -0.3632 -0.5444 -0.2973
17519TIP3    H174048   4.050   2.899  12.088 -1.1512 -1.9690 -0.1642
17519TIP3    H274049   3.983   2.893  11.953 -0.1218 -0.5059 -0.7714
17520TIP3   OH274050   2.960   4.890  14.822 -0.2003  0.1384 -0.3972
17520TIP3    H174051   2.903   4.956  14.862 -0.6278 -1.7089  2.3777
17520TIP3    H274052   3.046   4.907  14.860 -0.3018 -0.7979  0.2981
17521TIP3   OH274053   1.353   3.466  13.136 -0.0877 -0.9155 -0.3142
17521TIP3    H174054   1.361   3.559  13.159  0.6087 -0.9370 -0.4288
17521TIP3    H274055   1.262   3.444  13.154 -0.8645  0.3453 -2.3363
17522TIP3   OH274056   0.261   0.531   2.686  0.3182  0.6816  1.0018
17522TIP3    H174057   0.257   0.613   2.636 -0.0471 -0.3764 -0.8074
17522TIP3    H274058   0.272   0.463   2.619  3.2060 -0.5888  2.5575
17523TIP3   OH274059   1.625   1.297   4.875  0.0970 -0.1511 -0.1787
17523TIP3    H174060   1.585   1.350   4.806  2.0560  2.1250  0.2754
17523TIP3    H274061   1.553   1.245   4.910 -1.2487 -0.3741 -2.9519
17524TIP3   OH274062   4.346   0.821  16.587 -0.2059  0.4762  0.2646
17524TIP3    H174063   4.289   0.851  16.516  0.7519 -0.4267 -0.9355
17524TIP3    H274064   4.356   0.898  16.644 -0.4191  1.4589 -0.9753
17525TIP3   OH274065   0.145   6.710   0.889  0.3536 -0.2777 -0.5427
17525TIP3    H174066   0.154   6.620   0.856  1.4394  0.0069 -1.0771
17525TIP3    H274067   0.231   6.750   0.872  0.4339  0.3740  1.1667
17526TIP3   OH274068   4.479   3.650  14.213  0.1008 -0.3043  0.4743
17526TIP3    H174069   4.469   3.743  14.235 -1.0833  0.1286 -1.6175
17526TIP3    H274070   4.416   3.605  14.269 -2.1855  0.6521 -1.1419
17527TIP3   OH274071   4.535   3.880  13.326 -0.9661 -0.0458 -0.0719
17527TIP3    H174072   4.474   3.953  13.322 -1.5286 -0.5514 -1.5221
17527TIP3    H274073   4.491   3.814  13.379 -0.1919  0.8539  1.7812
17528TIP3   OH274074   6.108   5.405  16.278 -0.1405 -0.3665  0.2621
17528TIP3    H174075   6.048   5.475  16.305  0.5735  0.2319  0.3399
17528TIP3    H274076   6.195   5.441  16.296  0.4315  0.1752 -2.9963
17529TIP3   OH274077   2.778   3.843  12.786 -0.5404 -0.1636 -0.4357
17529TIP3    H174078   2.861   3.884  12.763 -0.6987 -0.5686 -1.8202
17529TIP3    H274079   2.800   3.751  12.802 -0.1267  0.3964  3.0013
17530TIP3   OH274080   1.278   3.110  16.537  0.6881  0.2744 -0.0981
17530TIP3    H174081   1.319   3.110  16.450 -0.6889  0.3730 -0.7761
17530TIP3    H274082   1.251   3.200  16.551  0.3055  0.1275  0.1309
17531TIP3   OH274083   4.492   3.342   2.520 -0.6357 -0.2776 -0.4868
17531TIP3    H174084   4.438   3.274   2.481 -0.0261  0.2615 -2.3696
17531TIP3    H274085   4.542   3.297   2.589 -2.1824 -1.1243  0.1138
17532TIP3   OH274086   3.804   1.517   0.122 -0.4286  0.6024 -0.0092
17532TIP3    H174087   3.796   1.573   0.044  0.2804 -1.0459 -1.3148
17532TIP3    H274088   3.724   1.464   0.121 -0.3259  0.4401  0.2944
17533TIP3   OH274089   1.751   5.820  11.924 -0.3080 -0.0700  0.2511
17533TIP3    H174090   1.795   5.885  11.869  1.8558 -2.7187 -1.3850
17533TIP3    H274091   1.722   5.870  12.001  0.7747  2.8803 -1.0998
17534TIP3   OH274092   1.120   6.594  12.378  0.0253  0.2740  0.2903
17534TIP3    H174093   1.111   6.684  12.346 -1.5766  0.7765  1.9396
17534TIP3    H274094   1.031   6.570  12.405  0.6054 -1.4764  0.7632
17535TIP3   OH274095   1.283   2.077   0.187  0.2264 -0.1265  0.1556
17535TIP3    H174096   1.250   2.006   0.242  0.2862  0.1394  0.5372
17535TIP3    H274097   1.284   2.154   0.244  1.3509 -0.0884  0.1094
17536TIP3   OH274098   0.191   5.731   2.184  0.2446  0.3289  0.1919
17536TIP3    H174099   0.107   5.722   2.230 -0.3130  1.4511 -0.5550
17536TIP3    H274100   0.216   5.823   2.197  1.9030 -0.2385  1.2784
17537TIP3   OH274101   3.877   0.767  12.614 -0.6118 -0.0871 -0.1906
17537TIP3    H174102   3.864   0.806  12.701 -1.0987  0.7639 -0.6317
17537TIP3    H274103   3.912   0.680  12.632  1.3987  0.8752  0.8147
17538TIP3   OH274104   5.673   5.046  14.672 -0.5087  0.2255  0.0671
17538TIP3    H174105   5.632   5.130  14.650  1.2035  0.8176 -1.0504
17538TIP3    H274106   5.725   5.024  14.595 -1.5807 -2.3315 -0.0165
17539TIP3   OH274107   3.851   0.578   0.146 -0.0579  0.2017  0.1382
17539TIP3    H174108   3.893   0.664   0.148  1.5408 -0.5505  1.5779
17539TIP3    H274109   3.870   0.540   0.232 -0.0537 -1.8952 -0.7217
17540TIP3   OH274110   6.185   1.391   0.240  0.2415  0.2285 -0.0212
17540TIP3    H174111   6.268   1.395   0.287  0.1157  0.0460  0.2221
17540TIP3    H274112   6.158   1.299   0.247  0.1599  0.2255 -0.3445
17541TIP3   OH274113   2.125   0.586   0.014  0.2559  0.3189  0.0145
17541TIP3    H174114   2.068   0.659   0.037 -0.3797 -0.0702 -0.2890
17541TIP3    H274115   2.178   0.618  -0.058  0.1311  0.5529  0.0276
17542TIP3   OH274116   0.023   2.262   5.083 -0.0405 -0.2053 -0.4980
17542TIP3    H174117   0.079   2.254   5.160 -1.5511 -0.2513  0.6399
17542TIP3    H274118   0.054   2.194   5.023  0.0198 -1.3843  0.8215
17543TIP3   OH274119   6.816   1.820  17.075  0.6652  0.0247  0.6985
17543TIP3    H174120   6.842   1.765  17.001 -0.5449 -0.2846  0.4800
17543TIP3    H274121   6.760   1.888  17.037  1.5150  0.9637  1.0811
17544TIP3   OH274122   3.294   4.191   3.150 -0.3929 -0.1207 -0.2475
17544TIP3    H174123   3.342   4.158   3.226  1.7978 -2.5799 -2.5202
17544TIP3    H274124   3.214   4.139   3.147 -0.0213 -0.7034 -0.1702
17545TIP3   OH274125   3.008   0.688  11.049 -0.1451  0.3281 -0.1767
17545TIP3    H174126   2.979   0.778  11.036 -1.1337  0.1009  0.3095
17545TIP3    H274127   3.080   0.676  10.987 -0.4574  1.2399 -0.7354
17546TIP3   OH274128   3.840   5.853  11.986  0.4037  0.1082  0.8754
17546TIP3    H174129   3.759   5.803  11.999 -0.5842  0.9744 -1.4418
17546TIP3    H274130   3.821   5.940  12.020  0.1445  0.4611 -0.1371
17547TIP3   OH274131   2.944   5.114  14.228  0.3450  0.4059  0.1225
17547TIP3    H174132   2.857   5.146  14.253  0.7731  0.1424  2.0399
17547TIP3    H274133   3.002   5.188  14.243  0.4331  0.7722 -1.7049
17548TIP3   OH274134   6.556   0.846  16.949  0.0813 -0.1408 -0.3447
17548TIP3    H174135   6.509   0.925  16.975  1.1283  0.6297 -0.7545
17548TIP3    H274136   6.496   0.801  16.889 -2.0655 -1.5533  2.5748
17549TIP3   OH274137   6.361   5.062   6.065  0.6806 -0.4673 -0.6625
17549TIP3    H174138   6.318   5.147   6.058  2.2229  0.3678 -0.5048
17549TIP3    H274139   6.326   5.011   5.992  0.0666  0.4648 -1.0305
17550TIP3   OH274140   1.710   3.230  11.051 -0.1379 -0.4619 -0.4811
17550TIP3    H174141   1.744   3.194  10.969  1.3908  1.3112 -0.6750
17550TIP3    H274142   1.738   3.321  11.051 -0.4275 -0.3139  1.8538
17551TIP3   OH274143   3.016   2.325  10.471 -0.4972  0.6074  0.8405
17551TIP3    H174144   2.933   2.371  10.477 -1.3573 -0.7577 -0.0384
17551TIP3    H274145   3.051   2.350  10.386 -1.3611 -0.9172 -0.0072
17552TIP3   OH274146   2.021   3.641   1.877 -0.4142 -0.2575  0.3308
17552TIP3    H174147   2.059   3.554   1.865 -0.4927 -0.2434 -0.0269
17552TIP3    H274148   1.947   3.643   1.816 -0.0528  0.2814 -0.0886
17553TIP3   OH274149   4.073   5.469  13.012 -0.1905 -0.2356  0.1536
17553TIP3    H174150   4.129   5.412  13.064 -0.8928  0.6168  1.9398
17553TIP3    H274151   3.986   5.460  13.052 -0.2806  2.2092  0.6393
17554TIP3   OH274152   3.952   2.261  17.066 -0.2733  0.1637 -0.2288
17554TIP3    H174153   4.039   2.278  17.103  0.1726 -0.0030 -1.1719
17554TIP3    H274154   3.937   2.168  17.082 -1.3585  0.6833  2.1216
17555TIP3   OH274155   3.601   4.882  16.663  0.6076  0.4123  1.1775
17555TIP3    H174156   3.607   4.867  16.568  1.3564  1.0208  1.1220
17555TIP3    H274157   3.510   4.907  16.677  0.2233 -0.7018  0.7755
17556TIP3   OH274158   6.241   3.821   2.061  0.8110 -0.2136  0.1989
17556TIP3    H174159   6.219   3.728   2.067  0.8532 -0.3803 -1.5968
17556TIP3    H274160   6.157   3.866   2.067  0.6808 -0.4358  0.0705
17557TIP3   OH274161   5.639   3.484   0.523 -0.2427  0.3890  0.4260
17557TIP3    H174162   5.564   3.428   0.541  0.3797  0.0240  2.0902
17557TIP3    H274163   5.606   3.550   0.462 -1.3533 -0.9356 -0.4732
17558TIP3   OH274164   3.794   0.866  14.956 -0.0121 -0.6075 -0.1119
17558TIP3    H174165   3.763   0.951  14.989  2.1095  1.2812 -2.5055
17558TIP3    H274166   3.717   0.825  14.918 -0.8388  0.9701 -0.2376
17559TIP3   OH274167   0.854   4.906   6.324  0.0785 -0.0723 -0.4213
17559TIP3    H174168   0.803   4.967   6.270  1.4575  0.6590 -0.9469
17559TIP3    H274169   0.847   4.822   6.278  0.2899  0.2843 -1.1196
17560TIP3   OH274170   2.120   4.038  16.798  0.6203 -0.7516  0.0455
17560TIP3    H174171   2.195   4.028  16.739  1.3112  1.4009  0.4645
17560TIP3    H274172   2.048   4.065  16.741  1.0779  0.5310  0.0498
17561TIP3   OH274173   3.095   6.049   5.167 -0.0238 -0.1073  0.1520
17561TIP3    H174174   3.142   5.989   5.225  0.1927  1.5742  1.8075
17561TIP3    H274175   3.163   6.104   5.129 -0.1966 -1.0018 -1.5352
17562TIP3   OH274176   1.433   4.672   3.693  0.0917  0.8193  0.6688
17562TIP3    H174177   1.362   4.612   3.672 -0.1156  0.3911  2.4077
17562TIP3    H274178   1.464   4.704   3.608 -1.2682 -0.0261 -0.1801
17563TIP3   OH274179   6.359   2.554  14.341 -0.0492 -0.1445 -0.2964
17563TIP3    H174180   6.293   2.589  14.401  2.3363 -0.7650  2.9669
17563TIP3    H274181   6.345   2.459  14.344  0.5153 -0.2241 -0.1853
17564TIP3   OH274182   5.334   0.045  12.545 -0.6585  0.0661  0.3162
17564TIP3    H174183   5.332   0.000  12.629  0.6702 -0.3838  0.1346
17564TIP3    H274184   5.425   0.072  12.534 -1.2455  2.1518  0.0490
17565TIP3   OH274185   4.337   1.999  15.718  0.1971  0.1179  0.1112
17565TIP3    H174186   4.380   2.046  15.646  0.6128 -1.2497 -0.5639
17565TIP3    H274187   4.355   2.053  15.795  0.0163  1.4484 -0.7472
17566TIP3   OH274188   1.908   1.401  12.393 -0.1151 -0.3257 -0.5805
17566TIP3    H174189   2.004   1.402  12.384 -0.1813  0.0485 -1.4413
17566TIP3    H274190   1.888   1.483  12.438 -0.0752 -0.0383 -1.0755
17567TIP3   OH274191   3.907   2.911   4.784 -0.5270  0.6471 -0.4690
17567TIP3    H174192   3.977   2.896   4.722  0.2244  0.4418  0.4115
17567TIP3    H274193   3.864   2.990   4.752 -0.6236  0.1343 -1.6501
17568TIP3   OH274194   6.625   3.060  10.850 -0.7252 -0.3194  0.2373
17568TIP3    H174195   6.655   3.002  10.781 -0.9320 -2.7929  2.1102
17568TIP3    H274196   6.705   3.100  10.885 -0.2707 -1.4852  0.5848
17569TIP3   OH274197   2.372   2.559   2.737  0.9055  0.9675 -0.2226
17569TIP3    H174198   2.424   2.512   2.671 -0.5150 -0.0508 -0.6810
17569TIP3    H274199   2.337   2.635   2.690  0.2794  0.4960 -0.5464
17570TIP3   OH274200   3.228   4.346  14.828  0.0783  0.6674 -0.3288
17570TIP3    H174201   3.149   4.388  14.795 -0.5488  1.3013  1.8374
17570TIP3    H274202   3.202   4.256  14.847  0.6318  0.0810 -2.0997
17571TIP3   OH274203   3.254   0.419   4.038  0.0907 -0.6660 -0.0131
17571TIP3    H174204   3.206   0.354   3.986  2.4753 -4.1045  1.6524
17571TIP3    H274205   3.289   0.369   4.112  3.9815  2.0529  0.2660
17572TIP3   OH274206   6.101   1.943   4.846 -0.7862  0.2324 -0.1111
17572TIP3    H174207   6.046   1.913   4.919 -1.1376 -2.0202 -1.2174
17572TIP3    H274208   6.041   1.995   4.791 -0.6554  1.4714  0.8674
17573TIP3   OH274209   1.104   1.574   3.647 -0.5175  0.4327 -0.4515
17573TIP3    H174210   1.158   1.626   3.588 -0.7857  1.8601  0.5069
17573TIP3    H274211   1.015   1.583   3.612 -0.3342 -0.9660 -1.3604
17574TIP3   OH274212   6.430   0.123   1.079  0.0466 -0.5201  0.2870
17574TIP3    H174213   6.351   0.113   1.026 -0.6415  0.4821  1.0871
17574TIP3    H274214   6.488   0.179   1.026 -0.5764  0.3492  0.4977
17575TIP3   OH274215   4.297   0.677   2.649  0.2101 -0.3018 -0.2501
17575TIP3    H174216   4.271   0.627   2.727  1.1421 -2.8514 -1.4588
17575TIP3    H274217   4.393   0.669   2.647  0.1948 -0.3040 -1.6417
17576TIP3   OH274218   5.688   2.383   3.742  0.1421 -0.2151 -0.3832
17576TIP3    H174219   5.657   2.457   3.794  0.3281 -1.8528  2.2712
17576TIP3    H274220   5.609   2.331   3.724  0.2563 -0.2961 -0.6588
17577TIP3   OH274221   3.252   6.555  14.706  0.1543 -0.5581 -0.0690
17577TIP3    H174222   3.178   6.547  14.766 -1.1237  0.5079 -1.4388
17577TIP3    H274223   3.250   6.646  14.676  2.4661 -0.2847  0.3778
17578TIP3   OH274224   5.061   5.912   2.501 -0.2578 -0.2245  0.6283
17578TIP3    H174225   4.999   5.918   2.428  1.1641 -0.8544 -0.6805
17578TIP3    H274226   5.060   5.820   2.526  2.5195 -1.0204 -1.6580
17579TIP3   OH274227   5.726   5.645   5.464  0.0019 -0.4296 -0.2317
17579TIP3    H174228   5.737   5.628   5.370 -0.1757  0.8091 -0.4888
17579TIP3    H274229   5.750   5.562   5.506 -0.6612 -1.2617 -1.4057
17580TIP3   OH274230   1.896   4.735   6.341  0.7449  0.0252 -0.0654
17580TIP3    H174231   1.975   4.787   6.355  2.2955 -1.4231 -2.5761
17580TIP3    H274232   1.831   4.798   6.309  1.9174  0.7977 -1.0337
17581TIP3   OH274233   6.302   3.109   0.293 -0.1911 -0.3293  0.1433
17581TIP3    H174234   6.328   3.188   0.340  0.5637  0.3395 -1.3207
17581TIP3    H274235   6.301   3.135   0.201  0.4781 -2.1353 -0.4217
17582TIP3   OH274236   5.090   3.905   0.379 -0.0480 -0.0744  0.0906
17582TIP3    H174237   5.034   3.827   0.390  1.8056 -1.2899  1.4022
17582TIP3    H274238   5.028   3.977   0.366 -1.8711 -1.5560  0.1654
17583TIP3   OH274239   6.386   3.617   3.657 -0.3076  0.1776 -0.4374
17583TIP3    H174240   6.432   3.696   3.686  1.0734 -0.6844 -0.1725
17583TIP3    H274241   6.317   3.604   3.721  0.2496  0.4686  0.2312
17584TIP3   OH274242   5.838   5.166  14.275 -0.0792  0.0955 -0.1431
17584TIP3    H174243   5.860   5.120  14.356  0.6451  0.3394 -0.1950
17584TIP3    H274244   5.903   5.135  14.212  0.1857  0.8933 -0.2768
17585TIP3   OH274245   0.737   1.671   5.357  0.0358  0.3163  0.3687
17585TIP3    H174246   0.740   1.759   5.318 -0.9238  0.0363 -0.3845
17585TIP3    H274247   0.664   1.628   5.312  0.4942 -0.8673  0.7357
17586TIP3   OH274248   5.074   0.858  16.528  0.1868  0.0726 -0.5429
17586TIP3    H174249   5.042   0.861  16.618  1.5325  2.0843 -0.0483
17586TIP3    H274250   5.053   0.945  16.493  5.1026  1.8062 -0.0276
17587TIP3   OH274251   1.051   2.362   0.506 -0.2066 -0.2876 -0.6485
17587TIP3    H174252   1.022   2.299   0.572  0.4616  0.2856  0.2157
17587TIP3    H274253   0.976   2.419   0.493 -0.2124 -0.1506 -0.0620
17588TIP3   OH274254   4.965   4.562   3.627 -0.0589  0.4570 -0.0853
17588TIP3    H174255   4.910   4.638   3.612  2.8718  2.4436 -1.8928
17588TIP3    H274256   5.025   4.589   3.696 -0.0945 -0.9234  0.5235
17589TIP3   OH274257   0.666   6.638   1.617  0.3536 -0.1766 -0.0993
17589TIP3    H174258   0.634   6.690   1.691  1.7618 -0.6066  0.8583
17589TIP3    H274259   0.598   6.645   1.551 -0.9085  0.2951  1.2105
17590TIP3   OH274260   3.189   0.486   4.875  0.0473 -0.2086 -0.1836
17590TIP3    H174261   3.232   0.567   4.903  0.5006 -0.8396  1.0292
17590TIP3    H274262   3.238   0.458   4.797 -0.7451  1.1787 -1.2280
17591TIP3   OH274263   0.175   2.859   1.418  0.6965  0.1509  0.5200
17591TIP3    H174264   0.182   2.790   1.353  1.2022 -0.3390  1.0737
17591TIP3    H274265   0.166   2.939   1.368  1.4492 -0.1798 -0.1695
17592TIP3   OH274266   3.935   4.137   3.304 -0.5930  0.1560 -0.3417
17592TIP3    H174267   3.932   4.186   3.222 -0.0900  0.5583 -0.1268
17592TIP3    H274268   4.026   4.108   3.312 -0.6862 -0.0568 -0.0307
17593TIP3   OH274269   3.143   2.575  12.680  0.1203  0.3329  0.4680
17593TIP3    H174270   3.100   2.525  12.749  0.1855  1.2643  1.2070
17593TIP3    H274271   3.231   2.592  12.714  0.3531  0.3006 -0.1018
17594TIP3   OH274272   6.015   5.291  15.021  0.3919 -0.1748  0.1643
17594TIP3    H174273   6.074   5.254  15.086  2.6631  0.1452 -1.5822
17594TIP3    H274274   6.000   5.220  14.958 -1.2548 -0.2899  0.6333
17595TIP3   OH274275   4.059   1.241   5.573  0.2126  1.0077  0.1134
17595TIP3    H174276   3.987   1.213   5.516  0.7450  0.2813 -0.2153
17595TIP3    H274277   4.040   1.200   5.657 -0.6453  2.1872  0.5352
17596TIP3   OH274278   4.832   4.533  14.916  0.1171  0.1495 -0.0076
17596TIP3    H174279   4.893   4.573  14.978 -1.0719 -0.0046  1.3211
17596TIP3    H274280   4.884   4.519  14.837  1.4273  1.2691  0.6049
17597TIP3   OH274281   4.627   3.358  17.009 -1.0419 -0.1116 -0.2795
17597TIP3    H174282   4.565   3.318  17.069 -0.9509 -0.6579 -0.5390
17597TIP3    H274283   4.618   3.306  16.928  1.6017 -1.9384  0.4747
17598TIP3   OH274284   2.392   3.719   2.399 -0.2415  0.3274  0.7819
17598TIP3    H174285   2.413   3.650   2.336  0.6950  0.9541  0.3847
17598TIP3    H274286   2.341   3.782   2.349  2.2454  1.8620 -0.0029
17599TIP3   OH274287   4.550   4.408  13.340 -0.1925  0.0972  0.0632
17599TIP3    H174288   4.546   4.332  13.282 -0.8220  0.6929 -0.6960
17599TIP3    H274289   4.517   4.376  13.424  0.0360 -0.5869 -0.0970
17600TIP3   OH274290   0.490   5.352   1.498  0.0756  0.1582 -0.3717
17600TIP3    H174291   0.549   5.411   1.544  0.4667  1.0372 -1.9286
17600TIP3    H274292   0.507   5.266   1.536  0.8864  0.7192  0.5903
17601TIP3   OH274293   5.229   0.149   5.557 -0.0354  0.0426 -0.1268
17601TIP3    H174294   5.240   0.238   5.588 -0.0252 -0.1958  0.5614
17601TIP3    H274295   5.242   0.155   5.462 -2.0108  1.0966 -0.3842
17602TIP3   OH274296   5.671   1.415   3.194 -0.4848  0.2553 -0.1743
17602TIP3    H174297   5.667   1.458   3.108  0.4258  0.1739 -0.2696
17602TIP3    H274298   5.594   1.359   3.197 -0.4881  0.2102 -0.9688
17603TIP3   OH274299   5.257   5.000   5.464  0.1060 -0.1765  0.3842
17603TIP3    H174300   5.216   4.958   5.388  0.3857  1.5981 -0.8033
17603TIP3    H274301   5.296   5.080   5.429  1.9787 -0.2859  2.0512
17604TIP3   OH274302   2.689   4.310   3.185  0.1166  0.8478  0.1859
17604TIP3    H174303   2.594   4.301   3.191  0.2087  0.6522  1.4273
17604TIP3    H274304   2.713   4.262   3.105 -0.8143  0.9096 -0.1391
17605TIP3   OH274305   3.400   2.440   1.611 -0.3020  1.0584 -0.4680
17605TIP3    H174306   3.305   2.447   1.600 -0.4822  1.7524  1.2288
17605TIP3    H274307   3.427   2.524   1.647  0.4138 -0.2183  2.2629
17606TIP3   OH274308   1.853   1.783  16.653 -0.2066  0.1385 -0.1338
17606TIP3    H174309   1.844   1.873  16.684  0.4143  0.1014  0.1760
17606TIP3    H274310   1.767   1.743  16.667 -0.5905  0.7806 -0.6147
17607TIP3   OH274311   0.939   4.963  10.660  0.2752 -0.1643 -0.4348
17607TIP3    H174312   0.999   4.932  10.592 -0.3784  0.7038 -1.4331
17607TIP3    H274313   0.901   5.043  10.624 -0.3940  0.0916  0.7949
17608TIP3   OH274314   4.530   3.206   4.543 -0.3564 -0.3640  0.2480
17608TIP3    H174315   4.506   3.114   4.531 -0.5450 -0.3825  0.7363
17608TIP3    H274316   4.466   3.239   4.605  2.0137 -0.9491  3.2252
17609TIP3   OH274317   3.574   4.508   5.276  0.7443 -0.3876  0.6652
17609TIP3    H174318   3.538   4.488   5.363 -0.2212 -0.9997  0.1528
17609TIP3    H274319   3.667   4.491   5.284  0.8469  0.5521  1.8577
17610TIP3   OH274320   3.497   5.190  15.679 -0.7739 -0.0269 -0.1050
17610TIP3    H174321   3.481   5.203  15.773  1.1992  0.6217  0.1989
17610TIP3    H274322   3.412   5.203  15.638 -1.4134  1.0749  1.4666
17611TIP3   OH274323   1.778   2.307   2.442 -0.2072 -0.0334 -0.3113
17611TIP3    H174324   1.684   2.307   2.457 -0.2837 -0.2934 -0.7896
17611TIP3    H274325   1.795   2.386   2.392 -0.3432 -0.5839 -1.2541
17612TIP3   OH274326   3.039   6.593  15.803 -0.4381  0.6482  0.3231
17612TIP3    H174327   3.012   6.548  15.883  2.3649  0.3671  1.2364
17612TIP3    H274328   3.020   6.530  15.733 -0.7459 -0.0947  1.0510
17613TIP3   OH274329   1.222   5.129   2.073  0.1746  0.4492 -0.6759
17613TIP3    H174330   1.210   5.055   2.132  0.5762 -0.5607 -1.8227
17613TIP3    H274331   1.293   5.180   2.113  0.1545  0.0129 -0.0689
17614TIP3   OH274332   0.208   1.159  16.114 -0.9459 -0.2837 -0.3335
17614TIP3    H174333   0.234   1.239  16.158 -0.1146 -0.6948 -0.0560
17614TIP3    H274334   0.177   1.188  16.028 -2.2005  0.4781  0.3495
17615TIP3   OH274335   1.765   2.250  17.046  0.0603 -0.5436 -0.0804
17615TIP3    H174336   1.861   2.251  17.036 -0.1360  1.3224 -2.4920
17615TIP3    H274337   1.739   2.341  17.039 -2.0019 -1.1066 -0.3209
17616TIP3   OH274338   2.196   3.544   3.846 -0.0203 -0.2234 -0.6643
17616TIP3    H174339   2.153   3.497   3.775  1.1768 -2.2315 -0.1273
17616TIP3    H274340   2.286   3.511   3.846 -0.0621 -0.5678  1.9706
17617TIP3   OH274341   6.400   0.575   3.579 -0.0222 -0.4960 -0.0012
17617TIP3    H174342   6.343   0.562   3.655  0.3017 -0.4605  0.2485
17617TIP3    H274343   6.477   0.521   3.597  0.3130 -0.0352 -0.0317
17618TIP3   OH274344   6.164   5.001   5.545  0.0591 -0.3122  0.1399
17618TIP3    H174345   6.120   4.977   5.464 -0.5908  0.7856  0.1519
17618TIP3    H274346   6.235   5.059   5.518 -0.6362  0.6944  0.3888
17619TIP3   OH274347   1.491   4.098  14.144 -0.2459  0.4176 -0.3350
17619TIP3    H174348   1.505   4.029  14.080  2.5222  0.9033 -0.3777
17619TIP3    H274349   1.416   4.148  14.110 -0.8854 -1.2167 -1.4460
17620TIP3   OH274350   3.502   6.348   3.008  0.5011 -0.2093  0.4451
17620TIP3    H174351   3.559   6.354   3.086 -0.5309  1.2113  1.1360
17620TIP3    H274352   3.534   6.418   2.950 -1.4271  1.6981  1.5183
17621TIP3   OH274353   4.335   2.537   2.797 -0.1457  0.3624  0.0132
17621TIP3    H174354   4.254   2.498   2.829 -0.4662  1.8517  1.1511
17621TIP3    H274355   4.392   2.539   2.873 -0.1102  1.9506 -0.0129
17622TIP3   OH274356   6.453   6.553   2.600 -0.2287  0.6222 -0.6455
17622TIP3    H174357   6.468   6.578   2.691  0.0045  2.8315 -1.2392
17622TIP3    H274358   6.385   6.486   2.604 -1.4626  1.9138  1.0404
17623TIP3   OH274359   0.750   3.808   6.344 -0.4775  0.1984  0.7868
17623TIP3    H174360   0.678   3.770   6.395 -0.9400 -1.1249 -0.7638
17623TIP3    H274361   0.829   3.766   6.379 -0.5939  0.5166  1.4633
17624TIP3   OH274362   4.166   6.582   4.742 -0.3361  0.1822  0.1361
17624TIP3    H174363   4.160   6.519   4.670 -1.3288 -0.2817  0.6137
17624TIP3    H274364   4.236   6.642   4.715 -1.1763  0.4625 -1.5598
17625TIP3   OH274365   4.803   2.399   1.104 -0.3176 -0.1517 -0.0545
17625TIP3    H174366   4.786   2.469   1.041 -0.7623 -2.3313 -2.5273
17625TIP3    H274367   4.798   2.318   1.052  0.7412 -2.0095  2.5266
17626TIP3   OH274368   2.371   3.339   4.955 -0.5322  0.6021  0.0755
17626TIP3    H174369   2.411   3.342   5.042 -0.2997 -2.0708  0.1409
17626TIP3    H274370   2.446   3.344   4.894 -0.4041 -0.5466  0.1199
17627TIP3   OH274371   0.422   3.805   1.549  0.5913  0.1843 -0.3791
17627TIP3    H174372   0.491   3.753   1.509  0.5966 -1.2398  1.3188
17627TIP3    H274373   0.378   3.744   1.609 -0.0016  1.8992  1.0299
17628TIP3   OH274374   2.296   3.422  13.389  0.2395 -0.1063 -0.0863
17628TIP3    H174375   2.239   3.417  13.465 -1.2452  0.1915 -1.1286
17628TIP3    H274376   2.372   3.472  13.419 -1.0696  1.4975  0.7793
17629TIP3   OH274377   2.611   3.780  13.646  0.0493 -0.0166 -1.1054
17629TIP3    H174378   2.690   3.810  13.602  0.5494  0.7108  0.2374
17629TIP3    H274379   2.631   3.787  13.739 -2.0532  1.5161 -0.7044
17630TIP3   OH274380   1.220   6.115  13.105  0.4357  0.1101  0.1810
17630TIP3    H174381   1.231   6.163  13.023 -3.9369 -0.6154 -1.0652
17630TIP3    H274382   1.209   6.024  13.078 -3.7075  0.1620  1.1114
17631TIP3   OH274383   4.724   6.009  16.664 -0.1357 -0.3017  0.0045
17631TIP3    H174384   4.767   5.932  16.627  0.0530 -0.0907 -0.2231
17631TIP3    H274385   4.650   5.975  16.712 -0.7904 -0.5400 -1.1447
17632TIP3   OH274386   3.686   0.675   2.470  0.1078 -0.3822  0.0369
17632TIP3    H174387   3.776   0.642   2.474  0.2263 -0.1446 -0.5192
17632TIP3    H274388   3.660   0.661   2.379 -0.3888 -0.3616  0.1744
17633TIP3   OH274389   2.999   4.902   1.445 -0.1197 -0.1010 -0.0842
17633TIP3    H174390   2.907   4.878   1.442  0.5028 -2.7655  0.0907
17633TIP3    H274391   3.044   4.835   1.393  1.8469  0.3784  0.8866
17634TIP3   OH274392   1.941   1.713  13.897 -0.1796 -0.4231  0.7374
17634TIP3    H174393   1.854   1.721  13.936 -0.5209 -2.1940  0.4112
17634TIP3    H274394   1.931   1.749  13.809  0.0839  1.6951  1.5246
17635TIP3   OH274395   5.987   3.878   6.063 -0.8958 -0.0216 -0.0267
17635TIP3    H174396   6.021   3.794   6.094 -2.0218 -1.1291 -1.6946
17635TIP3    H274397   5.892   3.872   6.074 -0.9947  1.0621 -0.1458
17636TIP3   OH274398   0.215   5.813  10.839  0.7422  0.6688  0.5109
17636TIP3    H174399   0.123   5.834  10.822  0.4002  0.2557  1.7307
17636TIP3    H274400   0.215   5.776  10.928  2.1694  1.2179  0.7633
17637TIP3   OH274401   1.931   6.588   0.344 -0.5256 -0.1021  0.3343
17637TIP3    H174402   1.977   6.547   0.271 -1.6729  0.1906 -0.5910
17637TIP3    H274403   1.856   6.633   0.303 -0.1200  1.6994  1.4494
17638TIP3   OH274404   2.904   2.147  12.685  0.5091  0.6302  0.1880
17638TIP3    H174405   2.959   2.192  12.620 -0.2128  1.1091 -0.1039
17638TIP3    H274406   2.885   2.062  12.645 -1.5317  1.6200 -1.1696
17639TIP3   OH274407   3.340   4.977   4.887 -0.2393 -0.6403 -0.0730
17639TIP3    H174408   3.393   4.914   4.838  0.8404  0.6177 -0.5713
17639TIP3    H274409   3.401   5.018   4.948 -1.3228 -1.3562  1.5591
17640TIP3   OH274410   4.697   5.072   2.232  0.4400 -0.0859  0.0697
17640TIP3    H174411   4.667   4.982   2.227  0.9874 -0.3996  1.7657
17640TIP3    H274412   4.725   5.083   2.323 -0.9429  2.2133  0.2964
17641TIP3   OH274413   4.913   3.023   0.835 -0.5660  0.3149  0.2687
17641TIP3    H174414   4.905   3.016   0.930 -0.1730  0.7560  0.3387
17641TIP3    H274415   4.847   2.963   0.801 -0.6119  0.0460  0.8194
17642TIP3   OH274416   3.845   0.801   2.893 -0.6121  0.2377 -0.0208
17642TIP3    H174417   3.830   0.852   2.972 -0.4637  1.4043 -0.7264
17642TIP3    H274418   3.793   0.721   2.906  2.0460 -1.2304  2.7228
17643TIP3   OH274419   6.163   3.095  16.515 -0.0703 -0.0846 -0.0192
17643TIP3    H174420   6.189   3.148  16.591  1.3264  0.7842 -1.0366
17643TIP3    H274421   6.200   3.009  16.531 -2.3369 -0.8378  1.6437
17644TIP3   OH274422   2.045   4.627  11.222  0.0455 -0.3642  0.0703
17644TIP3    H174423   2.130   4.638  11.180 -0.0460 -0.8808 -0.2569
17644TIP3    H274424   2.060   4.653  11.313  0.3967  0.1480 -0.1336
17645TIP3   OH274425   2.839   3.499  11.723 -0.2781 -0.2525  0.0576
17645TIP3    H174426   2.878   3.583  11.701 -2.0201  1.2006  2.1131
17645TIP3    H274427   2.907   3.453  11.772  0.0701  0.7230  0.4978
17646TIP3   OH274428   2.821   5.825  13.665 -0.2468  0.6409  0.3051
17646TIP3    H174429   2.851   5.830  13.574 -0.6642  0.7584  0.1755
17646TIP3    H274430   2.749   5.763  13.663  0.6278 -0.4308  0.7944
17647TIP3   OH274431   1.532   5.829   2.320 -0.0227 -0.0497  0.5143
17647TIP3    H174432   1.551   5.737   2.339  1.4343 -0.0854 -0.9132
17647TIP3    H274433   1.475   5.827   2.244  0.8097  0.2300 -0.1283
17648TIP3   OH274434   1.764   3.432  16.591  0.2523 -0.3742 -0.5493
17648TIP3    H174435   1.799   3.364  16.534 -1.7444  0.4158 -2.8931
17648TIP3    H274436   1.821   3.508  16.576 -1.5538  0.5597 -3.4772
17649TIP3   OH274437   0.589   3.414   3.224  0.0006 -0.2612 -0.4844
17649TIP3    H174438   0.543   3.449   3.301 -0.6881 -0.5377 -0.7627
17649TIP3    H274439   0.669   3.374   3.260  1.1870  2.1698 -0.2205
17650TIP3   OH274440   5.290   6.214  13.151  0.5962 -0.6708  0.4178
17650TIP3    H174441   5.330   6.166  13.223 -0.5580 -0.1327  1.4490
17650TIP3    H274442   5.198   6.225  13.177 -0.4515 -2.3112 -2.0663
17651TIP3   OH274443   6.373   0.835  16.744 -0.1408 -0.3428  0.1043
17651TIP3    H174444   6.375   0.929  16.730  0.8346 -0.1591  1.3358
17651TIP3    H274445   6.288   0.807  16.709 -1.3210  1.2838  1.4937
17652TIP3   OH274446   2.716   4.016  16.505  0.4499  0.0405  0.0040
17652TIP3    H174447   2.806   4.049  16.498  0.3786  0.4559  0.9237
17652TIP3    H274448   2.722   3.942  16.565 -0.1393  1.4434  1.8920
17653TIP3   OH274449   5.380   1.422   2.632 -0.2799 -0.0844 -0.3077
17653TIP3    H174450   5.310   1.468   2.585 -0.4321  0.5764  0.5421
17653TIP3    H274451   5.461   1.457   2.595 -0.3962 -0.0997 -0.5793
17654TIP3   OH274452   2.519   5.578  10.652  0.0951 -0.2791 -0.0900
17654TIP3    H174453   2.546   5.512  10.588 -0.2397 -0.7030  0.1992
17654TIP3    H274454   2.592   5.584  10.714 -0.1512 -0.8736  0.2636
17655TIP3   OH274455   1.542   5.926  10.983  0.3797 -0.0059 -0.2191
17655TIP3    H174456   1.462   5.892  11.024  1.0980  0.5791  1.7731
17655TIP3    H274457   1.540   5.890  10.894 -2.9093  1.3165 -0.8338
17656TIP3   OH274458   1.322   1.622   1.230  0.7275 -0.0156  0.3118
17656TIP3    H174459   1.355   1.700   1.275  1.0288 -0.6369  1.1876
17656TIP3    H274460   1.297   1.563   1.300 -2.4308  0.4613 -0.2751
17657TIP3   OH274461   2.499   2.912   1.154  0.7198  0.1052 -0.0342
17657TIP3    H174462   2.509   2.877   1.242  1.7960 -3.5430 -1.3968
17657TIP3    H274463   2.576   2.968   1.141  0.9306  0.0951  1.1017
17658TIP3   OH274464   4.275   0.840   4.090  0.2563 -0.0422 -0.9994
17658TIP3    H174465   4.292   0.791   4.010 -0.5930 -0.1598 -1.1159
17658TIP3    H274466   4.190   0.881   4.075  0.2920  0.2871 -0.3262
17659TIP3   OH274467   1.267   1.193  12.174  0.3289 -0.8024  0.4409
17659TIP3    H174468   1.281   1.285  12.151  0.2207 -1.1600 -1.1289
17659TIP3    H274469   1.173   1.184  12.184  0.4035 -0.5604  1.4870
17660TIP3   OH274470   5.981   0.895  11.879  0.6122  0.5861 -0.0748
17660TIP3    H174471   5.895   0.935  11.864  0.5115  0.7700  0.9417
17660TIP3    H274472   6.014   0.938  11.958  1.4602  0.2134 -0.2138
17661TIP3   OH274473   6.448   5.869  15.958  0.0451  0.8378 -0.2431
17661TIP3    H174474   6.447   5.890  16.051  0.1381 -1.8594  0.4422
17661TIP3    H274475   6.540   5.850  15.939 -0.3393 -1.3118 -0.1573
17662TIP3   OH274476   3.703   1.780   0.535 -0.2420 -0.1977  1.1617
17662TIP3    H174477   3.715   1.822   0.450  1.9931 -0.7376  1.1469
17662TIP3    H274478   3.608   1.773   0.545 -0.7251  3.6344  0.6152
17663TIP3   OH274479   0.864   5.766   1.945 -0.5283  0.1214 -0.2258
17663TIP3    H174480   0.888   5.821   1.871  1.9017 -0.2307  0.2386
17663TIP3    H274481   0.875   5.822   2.022  0.5364 -0.5718  0.1377
17664TIP3   OH274482   3.939   1.992  11.674  0.2412 -0.0852  0.2674
17664TIP3    H174483   3.908   1.907  11.643  1.6408  0.0056 -1.5676
17664TIP3    H274484   3.931   2.050  11.597 -2.2663  1.9584  1.8944
17665TIP3   OH274485   5.255   3.694   5.662 -0.3188  0.5323  0.0382
17665TIP3    H174486   5.301   3.692   5.578  1.0672  2.7002  0.6527
17665TIP3    H274487   5.324   3.705   5.727 -1.4322 -0.1869  1.4073
17666TIP3   OH274488   6.297   1.827   2.901 -0.0171 -0.5588  0.9459
17666TIP3    H174489   6.378   1.821   2.851  0.3232  0.1068  1.4098
17666TIP3    H274490   6.324   1.830   2.993 -0.4279  1.5463  1.0509
17667TIP3   OH274491   4.706   1.797   6.339 -0.1825  0.4745  0.6320
17667TIP3    H174492   4.701   1.704   6.360 -0.2166  0.7211  1.8179
17667TIP3    H274493   4.617   1.822   6.315 -0.1348  0.1713  0.1198
17668TIP3   OH274494   1.215   2.940   3.683 -0.4155  1.1091 -0.8056
17668TIP3    H174495   1.303   2.964   3.712 -1.1593  3.0642 -0.0327
17668TIP3    H274496   1.224   2.921   3.590  0.9201  0.6482 -0.5993
17669TIP3   OH274497   4.696   2.483   3.646 -0.3061 -0.2640  0.3296
17669TIP3    H174498   4.705   2.388   3.647  0.4309 -0.2189  1.7948
17669TIP3    H274499   4.749   2.513   3.721  1.2669  1.4761 -1.3423
17670TIP3   OH274500   5.662   3.756   1.135 -0.1811 -0.0684 -0.3369
17670TIP3    H174501   5.689   3.763   1.226 -0.1110  1.3594 -0.4462
17670TIP3    H274502   5.566   3.762   1.138 -0.1880 -0.1716 -0.3464
17671TIP3   OH274503   1.988   0.514   6.069 -0.0903  0.2312 -0.2279
17671TIP3    H174504   1.925   0.558   6.126 -0.9892 -0.4305 -0.6770
17671TIP3    H274505   2.012   0.435   6.116  0.3825  0.4625 -0.0764
17672TIP3   OH274506   5.193   1.108  11.788 -0.3046  0.1791 -0.2336
17672TIP3    H174507   5.145   1.177  11.835  0.1996  0.9133 -0.7771
17672TIP3    H274508   5.285   1.130  11.802 -0.1376 -0.5078 -0.2475
17673TIP3   OH274509   6.670   4.959  13.280  0.2364 -0.0826 -0.0850
17673TIP3    H174510   6.589   4.964  13.330  0.4901  1.1099  0.2364
17673TIP3    H274511   6.642   4.969  13.188 -0.0448 -0.4339 -0.0400
17674TIP3   OH274512   1.105   5.918   6.003 -0.6123  0.2718  0.0517
17674TIP3    H174513   1.105   5.822   5.994 -0.2069  0.2655  0.1134
17674TIP3    H274514   1.184   5.946   5.957 -0.8635  0.6022 -0.1907
17675TIP3   OH274515   3.570   0.095  11.591 -0.0868 -0.4327  0.6551
17675TIP3    H174516   3.486   0.137  11.608 -0.5871 -0.9853 -0.3740
17675TIP3    H274517   3.632   0.167  11.580 -0.3880 -0.0233  1.5025
17676TIP3   OH274518   5.249   1.959  15.266 -0.5241 -0.2474 -0.2532
17676TIP3    H174519   5.191   1.903  15.214  2.2391 -1.8814 -1.8251
17676TIP3    H274520   5.318   1.985  15.205  0.5270  1.4664  1.5470
17677TIP3   OH274521   0.185   1.610   2.264  0.3209 -0.2904  0.3847
17677TIP3    H174522   0.171   1.682   2.203 -1.9630  0.3943  1.6017
17677TIP3    H274523   0.179   1.531   2.210  0.5528  0.3570 -0.6093
17678TIP3   OH274524   0.841   5.459  16.485 -0.1073  0.2079  0.1634
17678TIP3    H174525   0.922   5.505  16.464  0.9390 -2.2786 -1.7529
17678TIP3    H274526   0.776   5.495  16.424  1.2079 -2.0801 -2.8217
17679TIP3   OH274527   1.504   3.637  13.641 -0.6159 -0.1341 -0.7485
17679TIP3    H174528   1.427   3.676  13.682 -0.2961 -1.6877  1.5571
17679TIP3    H274529   1.572   3.642  13.708  0.3848 -1.5049 -1.6037
17680TIP3   OH274530   0.672   4.452   2.464 -0.4643  0.0385 -0.6024
17680TIP3    H174531   0.709   4.453   2.552  1.0915 -2.2270 -1.1426
17680TIP3    H274532   0.625   4.535   2.457  2.3888  1.9760  1.0957
17681TIP3   OH274533   1.207   3.907  15.051  0.2578 -0.0439 -0.4279
17681TIP3    H174534   1.288   3.914  15.101  0.6861 -0.7460 -1.0204
17681TIP3    H274535   1.154   3.844  15.100 -0.3678  1.1698  0.5208
17682TIP3   OH274536   3.571   1.643  15.219 -0.1820 -0.6077  0.0943
17682TIP3    H174537   3.629   1.604  15.285  1.2431  0.2112 -0.6289
17682TIP3    H274538   3.529   1.716  15.265 -0.4143 -1.0207  0.5455
17683TIP3   OH274539   5.654   0.039   5.423  0.0594  0.1400  0.0246
17683TIP3    H174540   5.621   0.012   5.337  1.0175 -1.6793  0.1820
17683TIP3    H274541   5.730   0.094   5.403 -0.5862  0.9392 -0.2865
17684TIP3   OH274542   5.705   2.482  12.641  0.5082  0.1490 -0.2929
17684TIP3    H174543   5.739   2.448  12.558  0.4211 -0.7649  0.0354
17684TIP3    H274544   5.621   2.438  12.653  0.9470 -0.4431  0.7353
17685TIP3   OH274545   2.462   4.539   3.944  0.4931  0.2502 -0.0378
17685TIP3    H174546   2.517   4.499   4.011  1.2114 -0.3950 -0.9864
17685TIP3    H274547   2.378   4.493   3.952  0.6156  0.0837  0.3293
17686TIP3   OH274548   4.476   3.915  15.736  0.2569  0.5667 -0.7582
17686TIP3    H174549   4.442   3.908  15.825 -0.0368  0.1533 -0.9010
17686TIP3    H274550   4.424   3.853  15.685  0.5983  0.6097 -1.1663
17687TIP3   OH274551   0.018   6.355  15.262  0.2609 -0.0931  0.0262
17687TIP3    H174552   0.049   6.429  15.211  0.1661 -0.3884 -0.4674
17687TIP3    H274553   0.043   6.375  15.352  0.3845  0.4542 -0.1300
17688TIP3   OH274554   2.068   0.891   5.805  0.0421 -0.1673  0.1952
17688TIP3    H174555   2.095   0.869   5.716 -0.9796  1.3423 -0.5194
17688TIP3    H274556   2.137   0.948   5.838 -0.7892  1.3297 -0.5770
17689TIP3   OH274557   4.313   0.084   0.070 -0.3074  0.3388 -0.2759
17689TIP3    H174558   4.261   0.156   0.035  1.4805  0.8767 -2.0344
17689TIP3    H274559   4.286   0.076   0.161 -2.8352  1.0849 -0.8950
17690TIP3   OH274560   3.500   3.448   2.576 -0.5203  0.0180 -0.1573
17690TIP3    H174561   3.506   3.403   2.660  0.1466 -0.9175 -0.6886
17690TIP3    H274562   3.443   3.523   2.593 -3.6145 -2.2446  0.2402
17691TIP3   OH274563   4.372   2.187  13.093  0.0513  0.4396 -0.3473
17691TIP3    H174564   4.322   2.107  13.075  0.9599 -0.8223  2.1881
17691TIP3    H274565   4.305   2.253  13.114 -0.6591 -0.3335 -0.1131
17692TIP3   OH274566   4.258   0.997  11.036 -0.0058 -0.4851  0.1775
17692TIP3    H174567   4.244   0.922  11.094  1.3470 -1.7364 -1.0550
17692TIP3    H274568   4.334   0.974  10.984 -1.0936  0.6251 -2.0571
17693TIP3   OH274569   2.050   2.450  13.715 -0.1965 -0.3020 -0.0305
17693TIP3    H174570   2.127   2.443  13.659 -1.8889 -0.9188 -2.4344
17693TIP3    H274571   1.998   2.373  13.693 -1.7942  0.4255  1.0389
17694TIP3   OH274572   5.356   0.897  16.181 -0.5946 -0.4013  0.1023
17694TIP3    H174573   5.358   0.878  16.274  0.4673 -0.5750  0.0600
17694TIP3    H274574   5.357   0.993  16.176 -0.1816 -0.3928  0.2739
17695TIP3   OH274575   0.660   3.616  14.167 -0.4630  0.5393  0.2521
17695TIP3    H174576   0.741   3.658  14.136 -0.3436  0.2965  0.2280
17695TIP3    H274577   0.660   3.629  14.261 -1.3265  2.1527  0.0483
17696TIP3   OH274578   6.667   1.701   4.344  0.2412 -0.2890  0.4405
17696TIP3    H174579   6.702   1.657   4.266 -1.0919 -2.9684  1.2509
17696TIP3    H274580   6.600   1.761   4.309  0.7821 -0.2531 -0.5803
17697TIP3   OH274581   6.424   5.773  12.225  0.4026 -0.0058  0.7534
17697TIP3    H174582   6.367   5.848  12.208  0.9485  0.2378 -0.0476
17697TIP3    H274583   6.374   5.697  12.194  0.3270  0.1601  0.4627
17698TIP3   OH274584   1.886   3.023   5.338  0.2548 -0.4796 -0.1337
17698TIP3    H174585   1.810   2.968   5.354  0.9813 -1.4862 -0.0290
17698TIP3    H274586   1.887   3.037   5.243 -1.0517  1.0503  0.0387
17699TIP3   OH274587   5.743   1.825   3.208  0.4274  0.3941 -0.1480
17699TIP3    H174588   5.811   1.780   3.259 -0.1364  1.6044  1.7350
17699TIP3    H274589   5.771   1.814   3.117  2.3021 -0.4791  0.4871
17700TIP3   OH274590   3.147   6.733   2.670  0.1499 -0.3594 -0.3217
17700TIP3    H174591   3.153   6.712   2.577 -0.1992  2.1344 -0.9722
17700TIP3    H274592   3.212   6.802   2.683 -1.3142  0.8851  0.7577
17701TIP3   OH274593   2.957   6.378  16.422  0.0642  0.1441  0.2605
17701TIP3    H174594   3.047   6.408  16.410  0.3677 -0.1717  1.5572
17701TIP3    H274595   2.959   6.285  16.398 -0.2098  0.4162 -0.8859
17702TIP3   OH274596   0.308   6.388  11.683 -0.2569  0.0528 -0.3885
17702TIP3    H174597   0.398   6.409  11.658 -1.0313  1.5293 -2.2171
17702TIP3    H274598   0.315   6.354  11.772  2.2578 -1.3309 -0.9953
17703TIP3   OH274599   6.569   0.876   2.702  0.3557 -0.0628  0.3334
17703TIP3    H174600   6.594   0.908   2.789  0.2244 -0.9789  0.7193
17703TIP3    H274601   6.476   0.854   2.711  0.9506 -2.7678  0.8093
17704TIP3   OH274602   5.319   3.588  16.343 -0.6232 -0.2960  0.0777
17704TIP3    H174603   5.266   3.645  16.399  0.4168 -0.8268  1.6664
17704TIP3    H274604   5.349   3.645  16.272 -2.7605  0.1623 -0.5260
17705TIP3   OH274605   2.600   5.009   6.140  0.3250 -0.2524  0.2078
17705TIP3    H174606   2.535   5.026   6.208  0.8219 -0.1358  0.6539
17705TIP3    H274607   2.558   4.945   6.083 -0.9706  1.2630 -0.6362
17706TIP3   OH274608   4.374   0.241   5.589  0.3305  0.5450 -0.2605
17706TIP3    H174609   4.386   0.219   5.496  1.8329 -0.2719  0.0935
17706TIP3    H274610   4.463   0.259   5.620 -0.2206  1.3045  0.9071
17707TIP3   OH274611   3.631   1.572  16.396  0.9467  0.2169  0.1992
17707TIP3    H174612   3.678   1.516  16.334  0.3252  1.1612 -1.1742
17707TIP3    H274613   3.657   1.661  16.373 -1.0960  0.7457 -0.3038
17708TIP3   OH274614   6.620   1.880   0.354  0.6344 -0.0398 -0.2002
17708TIP3    H174615   6.706   1.894   0.395 -0.2550  0.2469  1.6758
17708TIP3    H274616   6.595   1.966   0.320  0.3431  0.3110  0.8445
17709TIP3   OH274617   5.785   3.127  10.857 -0.5411 -0.0128  0.1096
17709TIP3    H174618   5.748   3.141  10.770  0.3352 -0.6366 -0.3863
17709TIP3    H274619   5.763   3.036  10.877  1.6209 -0.7727 -0.6866
17710TIP3   OH274620   1.331   6.055  14.238  0.0698 -0.2690  0.2943
17710TIP3    H174621   1.287   6.138  14.220 -2.9975 -2.0025 -0.9224
17710TIP3    H274622   1.309   6.036  14.329 -0.2874 -0.3369  0.1947
17711TIP3   OH274623   6.473   4.700  12.473 -0.5713 -0.2316  0.2018
17711TIP3    H174624   6.459   4.759  12.547 -0.4767 -0.4362  0.3840
17711TIP3    H274625   6.387   4.689  12.434 -0.3740  1.1763 -0.7135
17712TIP3   OH274626   6.323   2.139   3.723 -0.3868  0.4536  0.3729
17712TIP3    H174627   6.284   2.147   3.810  1.4991  0.8834  1.2160
17712TIP3    H274628   6.382   2.064   3.730  1.0976  1.5515  0.0125
17713TIP3   OH274629   1.326   3.598   5.399 -0.1219 -0.1594  0.1074
17713TIP3    H174630   1.269   3.673   5.417 -0.4140 -0.2326 -0.5137
17713TIP3    H274631   1.392   3.632   5.339 -0.1474 -0.3571 -0.0322
17714TIP3   OH274632   4.659   6.101  11.612 -0.3527  0.4742  0.0823
17714TIP3    H174633   4.605   6.029  11.646 -0.7993  0.8512  0.1875
17714TIP3    H274634   4.666   6.083  11.519 -1.0849  0.6821 -0.0230
17715TIP3   OH274635   4.246   4.790  13.886 -0.1663 -0.4224 -0.3907
17715TIP3    H174636   4.169   4.735  13.903 -1.5723  1.5220 -0.1062
17715TIP3    H274637   4.232   4.823  13.798 -0.3084  0.9278  0.1252
17716TIP3   OH274638   4.427   5.424   3.325 -0.5758  0.2684  0.1141
17716TIP3    H174639   4.482   5.374   3.386  0.7629  1.5606  0.0196
17716TIP3    H274640   4.347   5.442   3.374  0.8907  2.2320  1.9849
17717TIP3   OH274641   3.540   6.383   2.358  0.0320 -0.1292 -0.2957
17717TIP3    H174642   3.623   6.424   2.384 -1.2752  2.9362 -0.5814
17717TIP3    H274643   3.536   6.303   2.411  2.9686 -0.2190 -0.0175
17718TIP3   OH274644   3.686   0.959   0.728  0.1166  0.4655  0.2144
17718TIP3    H174645   3.742   0.923   0.659  0.0813 -0.5402  0.6884
17718TIP3    H274646   3.601   0.916   0.714 -0.0319  0.6304  0.5864
17719TIP3   OH274647   6.382   1.075   3.784  0.6577 -0.0536 -0.1143
17719TIP3    H174648   6.341   0.996   3.747  0.7136 -0.4627  0.6819
17719TIP3    H274649   6.308   1.131   3.808  0.5342 -0.8219  1.3875
17720TIP3   OH274650   2.386   3.301   2.418 -0.2212  0.0356  0.0971
17720TIP3    H174651   2.440   3.261   2.485 -0.5457 -0.4937  0.0508
17720TIP3    H274652   2.311   3.337   2.466  0.5682  1.5323  0.2714
17721TIP3   OH274653   1.741   2.002  15.191 -0.2495 -0.5527  0.1020
17721TIP3    H174654   1.821   2.024  15.143  1.2741 -0.8788  2.3447
17721TIP3    H274655   1.697   1.938  15.135  0.9408 -0.2475 -1.2735
17722TIP3   OH274656   4.055   2.937   5.034 -0.1149 -0.0621  0.0686
17722TIP3    H174657   4.088   3.026   5.022  0.0967 -0.2408 -0.7152
17722TIP3    H274658   4.022   2.912   4.948  0.5204 -1.0229  0.1007
17723TIP3   OH274659   3.365   4.263  10.862  0.3111  0.5952  0.2205
17723TIP3    H174660   3.281   4.309  10.875  0.4758  0.5149  1.7602
17723TIP3    H274661   3.398   4.297  10.778 -1.2289  0.6581 -0.3992
17724TIP3   OH274662   0.190   6.620  14.052  0.3366 -0.1875 -0.1275
17724TIP3    H174663   0.265   6.572  14.017 -0.2516 -1.2838  0.0606
17724TIP3    H274664   0.133   6.633  13.977  0.6997  0.6562 -0.2722
17725TIP3   OH274665   1.912   3.242   5.854 -0.2647 -0.2438 -0.1789
17725TIP3    H174666   1.823   3.267   5.829  0.2245 -0.1435 -1.9220
17725TIP3    H274667   1.948   3.201   5.776  1.3694  0.0801  0.3721
17726TIP3   OH274668   3.077   4.163  12.502 -1.0647 -0.4988  0.0324
17726TIP3    H174669   3.149   4.205  12.455 -0.8984  0.5794  1.1889
17726TIP3    H274670   3.051   4.090  12.446  0.6636 -0.6803 -0.5910
17727TIP3   OH274671   5.841   0.168   5.086  0.3679 -0.1924  0.0032
17727TIP3    H174672   5.844   0.246   5.030  0.3857 -0.2389 -0.0598
17727TIP3    H274673   5.920   0.119   5.063  2.1409  1.3265  2.2782
17728TIP3   OH274674   5.634   0.723   1.699 -0.3771 -0.1277  0.4483
17728TIP3    H174675   5.634   0.809   1.656  0.9186  0.1473  0.9309
17728TIP3    H274676   5.726   0.697   1.699 -0.6363 -1.0880  1.1530
17729TIP3   OH274677   5.340   6.547   0.654 -0.3201  0.2356  0.2608
17729TIP3    H174678   5.366   6.639   0.650  0.8084  0.0702  2.2928
17729TIP3    H274679   5.248   6.550   0.682 -0.9875  0.7352 -1.8250
17730TIP3   OH274680   5.247   4.976  14.471  0.1864 -0.3758 -0.0385
17730TIP3    H174681   5.171   4.976  14.530  0.1367  1.3223 -0.0634
17730TIP3    H274682   5.318   4.940  14.525 -0.2533 -0.4552  0.5055
17731TIP3   OH274683   2.649   1.068  10.915  0.2512 -0.2407 -0.3533
17731TIP3    H174684   2.679   1.134  10.977  1.7691 -0.4084 -0.8551
17731TIP3    H274685   2.652   0.986  10.964 -0.2021 -0.1499 -0.1663
17732TIP3   OH274686   2.310   2.756  14.155 -0.3580  0.1198  0.1621
17732TIP3    H174687   2.243   2.762  14.087 -0.3000 -0.7175  0.0102
17732TIP3    H274688   2.261   2.748  14.236 -0.4297  0.8563  0.1947
17733TIP3   OH274689   4.180   5.082  14.136 -0.1521 -0.2230  0.2910
17733TIP3    H174690   4.112   5.017  14.119  0.9273 -1.3098  0.0076
17733TIP3    H274691   4.256   5.031  14.162  1.5977  0.6663 -2.6466
17734TIP3   OH274692   1.826   4.057  10.678 -0.4742  0.1887 -0.4024
17734TIP3    H174693   1.913   4.026  10.655  0.5717  1.7174  1.2192
17734TIP3    H274694   1.774   4.045  10.598  1.0996 -1.1012 -1.2891
17735TIP3   OH274695   3.398   6.763  16.624  0.2221  0.1479  0.8659
17735TIP3    H174696   3.405   6.730  16.714  0.4104 -0.8753  0.4919
17735TIP3    H274697   3.472   6.824  16.615 -0.0995  0.6534  1.5578
17736TIP3   OH274698   4.805   1.899  14.221  0.4918 -0.0311  0.1877
17736TIP3    H174699   4.877   1.960  14.203  0.4947 -0.2571 -0.5933
17736TIP3    H274700   4.756   1.895  14.138  0.3219 -0.8641  0.3261
17737TIP3   OH274701   0.433   4.103  11.924  0.1572 -0.2398 -0.2505
17737TIP3    H174702   0.393   4.106  11.837 -0.2748 -1.6114 -0.1304
17737TIP3    H274703   0.478   4.018  11.926  0.9588  0.1912  0.5314
17738TIP3   OH274704   4.295   2.099   2.209  0.0310 -0.1394 -0.0739
17738TIP3    H174705   4.229   2.052   2.260 -1.9798  0.4607 -1.9411
17738TIP3    H274706   4.289   2.190   2.240  3.5082 -0.7450  3.1235
17739TIP3   OH274707   6.324   2.992  11.320  0.4180  0.4600  0.5247
17739TIP3    H174708   6.282   3.025  11.399 -0.4282  1.2108 -0.2191
17739TIP3    H274709   6.290   3.048  11.250  1.2503 -0.1102 -0.3494
17740TIP3   OH274710   1.575   5.961  14.454 -0.0438 -0.2131  0.0828
17740TIP3    H174711   1.490   5.967  14.499  0.1785 -1.4128  0.7147
17740TIP3    H274712   1.632   5.915  14.516  0.1151 -2.4310 -1.5619
17741TIP3   OH274713   2.552   6.375   0.978 -0.5079  0.3775 -0.1320
17741TIP3    H174714   2.513   6.297   0.940  1.0218  0.1176 -1.2798
17741TIP3    H274715   2.479   6.424   1.014 -1.5845 -1.1943 -0.1104
17742TIP3   OH274716   2.873   1.088  10.724  0.1790  0.0937  0.1862
17742TIP3    H174717   2.812   1.130  10.784  0.1982  1.5790 -0.7944
17742TIP3    H274718   2.817   1.050  10.656  0.2647  0.2160  0.0466
17743TIP3   OH274719   4.948   5.415  15.653  0.4316 -0.2815  0.1367
17743TIP3    H174720   5.014   5.483  15.639 -0.2394  0.3587 -0.0198
17743TIP3    H274721   4.866   5.464  15.665 -0.0929 -1.0708 -0.1530
17744TIP3   OH274722   1.011   6.165  16.617 -0.4307  0.4004  0.2847
17744TIP3    H174723   1.072   6.092  16.629  0.0130  0.6022 -0.6881
17744TIP3    H274724   1.062   6.243  16.639 -0.2493  0.5910 -0.7713
17745TIP3   OH274725   3.512   3.858  11.965  0.5935  0.5471  0.2898
17745TIP3    H174726   3.450   3.893  12.029 -1.6792 -0.3861 -1.2998
17745TIP3    H274727   3.537   3.773  12.000  0.0723  0.4350  0.3973
17746TIP3   OH274728   1.449   6.341   1.097 -0.1156 -0.2122  0.1294
17746TIP3    H174729   1.466   6.256   1.055  0.5703  0.2518 -0.5387
17746TIP3    H274730   1.425   6.318   1.187 -1.3253 -1.2062 -0.4164
17747TIP3   OH274731   4.019   3.104  15.836  0.0108  0.2203  0.5857
17747TIP3    H174732   4.091   3.043  15.847  0.7820  1.0970  0.4794
17747TIP3    H274733   3.952   3.054  15.788  0.4271 -0.6790  0.9380
17748TIP3   OH274734   5.908   4.560   3.891  0.3308  0.0932  0.1980
17748TIP3    H174735   5.981   4.526   3.943 -0.1597 -2.0643 -0.4381
17748TIP3    H274736   5.831   4.516   3.925 -0.3769  0.7134 -0.5625
17749TIP3   OH274737   5.403   0.742   1.452  0.9598  0.3375  0.1258
17749TIP3    H174738   5.471   0.681   1.423  0.7816 -0.1104  0.6333
17749TIP3    H274739   5.343   0.688   1.504  0.9878  1.0117  0.8795
17750TIP3   OH274740   2.324   1.040   1.700 -0.0203  0.0226 -0.1954
17750TIP3    H174741   2.264   1.036   1.626 -0.2485  1.0817 -0.0934
17750TIP3    H274742   2.269   1.029   1.777  0.0500  0.0147 -0.1458
17751TIP3   OH274743   5.089   4.404   3.464  1.1825  0.8391  0.3914
17751TIP3    H174744   5.183   4.415   3.478  1.3444  1.0329 -0.7461
17751TIP3    H274745   5.049   4.478   3.510  1.8715  2.9754 -2.1995
17752TIP3   OH274746   3.483   1.192   2.317  0.0702  0.2663 -0.3690
17752TIP3    H174747   3.523   1.148   2.393 -0.2022 -0.1685 -0.4718
17752TIP3    H274748   3.401   1.144   2.303  0.0477  0.4446 -0.8438
17753TIP3   OH274749   6.142   6.413  16.689  0.3267  0.2109 -0.1003
17753TIP3    H174750   6.183   6.473  16.626  1.2555 -0.2592  0.0269
17753TIP3    H274751   6.215   6.361  16.722 -0.1458  0.4599  1.3899
17754TIP3   OH274752   4.420   3.839  14.533  0.4785  0.0483 -0.0481
17754TIP3    H174753   4.434   3.881  14.447 -0.8559 -1.8359 -1.2621
17754TIP3    H274754   4.507   3.809  14.559  0.6912 -0.7174 -1.5211
17755TIP3   OH274755   4.632   5.254  15.008 -0.0713  0.4861 -0.4027
17755TIP3    H174756   4.706   5.298  14.968 -0.0044  1.3980  0.6640
17755TIP3    H274757   4.583   5.217  14.935  0.3491  1.5989 -1.2709
17756TIP3   OH274758   4.035   4.177   4.446  0.2057 -0.3969 -0.0988
17756TIP3    H174759   4.080   4.143   4.369  0.9448  1.9775 -0.7839
17756TIP3    H274760   4.028   4.271   4.431  0.2718  0.1419  2.6912
17757TIP3   OH274761   0.830   4.915  12.563  0.4112  0.5347 -0.1046
17757TIP3    H174762   0.862   4.842  12.510  0.7684  0.4581  0.2087
17757TIP3    H274763   0.815   4.986  12.500  0.0007  0.1724 -0.4169
17758TIP3   OH274764   4.248   3.936  11.264  0.3246 -0.1906 -0.3828
17758TIP3    H174765   4.159   3.952  11.235  0.7101 -0.2452 -1.6926
17758TIP3    H274766   4.239   3.886  11.345 -0.8200  0.7826  0.1170
17759TIP3   OH274767   6.289   4.781  11.613  0.0294  0.3353  0.0579
17759TIP3    H174768   6.370   4.730  11.606 -0.3664 -0.2418 -0.4123
17759TIP3    H274769   6.286   4.833  11.533 -1.3415 -1.5868 -1.2478
17760TIP3   OH274770   3.495   4.543  17.013 -0.0689  0.5297  0.3483
17760TIP3    H174771   3.443   4.556  16.933 -0.2185 -0.4660  0.2670
17760TIP3    H274772   3.465   4.612  17.072  0.5000  1.6942 -0.6667
17761TIP3   OH274773   4.595   3.044  11.070  0.2539 -0.1368  0.9891
17761TIP3    H174774   4.577   3.093  10.990  1.0600 -1.4199 -0.0191
17761TIP3    H274775   4.688   3.056  11.085  0.2595 -0.5372  1.2868
17762TIP3   OH274776   5.983   1.426   4.740 -0.6334 -0.2460 -0.1262
17762TIP3    H174777   5.952   1.478   4.814  1.4740  0.6078  0.2142
17762TIP3    H274778   5.968   1.482   4.664 -3.4012 -1.3691 -0.5627
17763TIP3   OH274779   0.604   0.849  12.964  0.0884 -0.4658  0.1089
17763TIP3    H174780   0.665   0.881  12.897 -0.4927  0.8034  0.1715
17763TIP3    H274781   0.550   0.924  12.986  1.2111 -0.4240  3.1085
17764TIP3   OH274782   0.247   6.782  16.578  1.0361  0.0749  0.1886
17764TIP3    H174783   0.229   6.688  16.586  3.4072 -0.3020  2.4372
17764TIP3    H274784   0.196   6.823  16.646  0.4513  0.3714 -0.4182
17765TIP3   OH274785   0.503   2.095   1.285  0.2249 -0.1734  0.0709
17765TIP3    H174786   0.525   2.056   1.201  2.5104  0.8470  0.1309
17765TIP3    H274787   0.454   2.026   1.331  0.1470 -1.2446 -1.5305
17766TIP3   OH274788   0.536   5.550   0.123 -0.6886  0.3401 -0.5480
17766TIP3    H174789   0.624   5.564   0.087 -1.0628  2.3510 -0.8201
17766TIP3    H274790   0.479   5.544   0.046 -0.7423 -1.7861 -0.4043
17767TIP3   OH274791   4.253   2.799   3.970  0.3948 -0.0845 -1.0814
17767TIP3    H174792   4.192   2.763   4.034  0.8376 -0.7380 -1.0258
17767TIP3    H274793   4.197   2.851   3.911  0.0995  1.2851  0.3400
17768TIP3   OH274794   5.581   6.469  13.749 -0.0594 -0.0114  0.3468
17768TIP3    H174795   5.573   6.564  13.742  0.6701  0.1052  1.0172
17768TIP3    H274796   5.620   6.454  13.834  0.3294 -0.8928  0.0280
17769TIP3   OH274797   4.296   1.808   2.823  0.3959  0.1414 -0.4689
17769TIP3    H174798   4.246   1.769   2.751  1.2470 -0.9391 -0.4906
17769TIP3    H274799   4.353   1.872   2.781 -0.5126  0.9483 -0.5111
17770TIP3   OH274800   1.802   5.177   1.479  0.2700  0.1365 -0.1923
17770TIP3    H174801   1.792   5.156   1.386 -0.1100 -1.6847  0.2238
17770TIP3    H274802   1.740   5.248   1.494 -0.1499  0.0010 -1.1947
17771TIP3   OH274803   2.250   2.569  15.870  0.0306  0.0777 -0.8736
17771TIP3    H174804   2.295   2.591  15.951  0.4305 -1.7995 -0.5367
17771TIP3    H274805   2.207   2.650  15.843 -0.3189  0.6808  1.3362
17772TIP3   OH274806   0.862   1.275  12.571 -0.0967  0.6056  0.0041
17772TIP3    H174807   0.888   1.185  12.555 -0.3315  0.3462  0.9854
17772TIP3    H274808   0.806   1.298  12.496  0.4359  0.1436 -0.5426
17773TIP3   OH274809   4.863   0.006  13.110 -0.2799  0.0871  0.3978
17773TIP3    H174810   4.931   0.073  13.111  1.5455 -1.6584  0.2732
17773TIP3    H274811   4.813   0.021  13.190  0.9408  0.7617  1.0596
17774TIP3   OH274812   4.536   4.141  12.010  0.0166 -0.3240  0.6057
17774TIP3    H174813   4.533   4.220  12.063 -1.9071  1.1825 -1.5323
17774TIP3    H274814   4.604   4.158  11.945  0.0122 -0.6848  0.5049
17775TIP3   OH274815   0.562   4.334   0.356 -0.1691  0.0336  0.5372
17775TIP3    H174816   0.583   4.421   0.323 -0.5330 -0.1371 -0.1726
17775TIP3    H274817   0.636   4.310   0.411  1.2469 -0.3334 -1.4280
17776TIP3   OH274818   6.184   2.872   5.540  0.1411 -0.5627 -0.3850
17776TIP3    H174819   6.126   2.804   5.576 -0.8691  0.9756  1.0303
17776TIP3    H274820   6.197   2.847   5.449 -0.4514 -2.4789  0.0166
17777TIP3   OH274821   2.408   3.852  12.170  0.6757  0.3057  0.4040
17777TIP3    H174822   2.427   3.844  12.076 -0.6280 -0.0966  0.1436
17777TIP3    H274823   2.365   3.769  12.192 -0.6511  1.1051  0.9184
17778TIP3   OH274824   5.984   5.651   3.677 -0.1206 -0.0132  0.2543
17778TIP3    H174825   5.904   5.642   3.627  0.7090  1.1323 -1.3509
17778TIP3    H274826   6.047   5.593   3.634  0.2682  0.0334  0.7386
17779TIP3   OH274827   5.254   5.873  14.845  0.4710  0.0014 -0.2360
17779TIP3    H174828   5.189   5.863  14.775 -0.4832  1.1522  0.4466
17779TIP3    H274829   5.302   5.952  14.821 -1.9237  2.2798  1.9038
17780TIP3   OH274830   3.394   4.031   2.926  0.1138 -0.4458  0.2968
17780TIP3    H174831   3.332   3.993   2.988 -1.9003  0.6744 -0.9053
17780TIP3    H274832   3.414   4.117   2.963 -0.9920  0.1718 -0.4565
17781TIP3   OH274833   0.755   3.430  16.416 -0.2077  0.0802 -0.1903
17781TIP3    H174834   0.666   3.396  16.404  0.2315 -0.9457 -0.5776
17781TIP3    H274835   0.773   3.478  16.335 -0.4765  0.4611 -0.0277
17782TIP3   OH274836   3.562   2.281   0.418  0.1269 -0.4484 -0.4854
17782TIP3    H174837   3.497   2.345   0.447  0.4110 -0.7233  0.8526
17782TIP3    H274838   3.632   2.333   0.378  1.5218  0.4365  2.7250
17783TIP3   OH274839   4.174   2.091   1.883  0.4187  0.1870  0.2820
17783TIP3    H174840   4.241   2.124   1.943  0.1929 -1.9962  1.8747
17783TIP3    H274841   4.092   2.126   1.917  0.5670  1.6388 -0.7785
17784TIP3   OH274842   3.568   6.174  16.210  0.2241  0.2030 -0.0685
17784TIP3    H174843   3.582   6.217  16.294 -1.2035  1.0804 -0.2481
17784TIP3    H274844   3.604   6.235  16.145  1.4120 -0.5144 -0.1182
17785TIP3   OH274845   0.329   0.153  11.110 -0.3384 -0.5653 -0.2253
17785TIP3    H174846   0.308   0.227  11.167 -0.8071 -0.4800 -0.5051
17785TIP3    H274847   0.418   0.169  11.080  0.9647 -1.9059  2.5532
17786TIP3   OH274848   1.440   5.935   6.224  0.3574  0.5633  0.2153
17786TIP3    H174849   1.357   5.974   6.251  0.6582  2.0592 -0.8969
17786TIP3    H274850   1.418   5.878   6.150 -0.1688 -1.9737  2.1932
17787TIP3   OH274851   0.019   3.425  13.614  0.2007 -0.2356 -0.6552
17787TIP3    H174852  -0.005   3.380  13.695 -3.6200  3.8228  0.8964
17787TIP3    H274853  -0.028   3.378  13.545 -1.1655 -0.4856  0.4137
17788TIP3   OH274854   6.849   4.885   4.061 -0.4027 -0.1403  0.5228
17788TIP3    H174855   6.893   4.968   4.075  0.0320 -0.4967  1.3197
17788TIP3    H274856   6.874   4.831   4.136 -2.9987 -0.0290  1.5949
17789TIP3   OH274857   4.326   3.105   1.566  0.0310 -0.1959  0.7152
17789TIP3    H174858   4.293   3.188   1.603 -0.3111 -0.1484  0.3083
17789TIP3    H274859   4.404   3.086   1.618  0.3608  0.6056  0.5365
17790TIP3   OH274860   2.040   1.805   2.634  0.2848 -0.0283 -0.2185
17790TIP3    H174861   1.945   1.814   2.621  0.1961  2.0665  1.3404
17790TIP3    H274862   2.072   1.767   2.552 -1.8980 -0.8841 -0.7434
17791TIP3   OH274863   3.173   1.632  11.560 -0.3621 -0.3578  0.2366
17791TIP3    H174864   3.141   1.660  11.646 -0.2656  0.2529  0.0789
17791TIP3    H274865   3.169   1.537  11.563 -1.4580 -0.3186  0.5000
17792TIP3   OH274866   0.603   6.661  12.029 -0.1402  0.4713  0.2163
17792TIP3    H174867   0.632   6.608  12.103  1.2099  0.1183 -0.5318
17792TIP3    H274868   0.588   6.597  11.959  2.7206  1.0761 -1.0863
17793TIP3   OH274869   3.530   3.113   1.114 -0.3212  0.1959  0.6575
17793TIP3    H174870   3.558   3.035   1.068 -2.3763 -0.6390  0.7181
17793TIP3    H274871   3.538   3.091   1.207 -0.4856  0.2197  0.6774
17794TIP3   OH274872   4.582   4.419   3.479 -0.3154 -0.3335 -0.3017
17794TIP3    H174873   4.615   4.477   3.547 -2.0373  1.7623 -1.1427
17794TIP3    H274874   4.606   4.461   3.397 -1.1020 -1.1218 -0.9577
17795TIP3   OH274875   0.285   1.801  14.165  0.3591  0.1415  0.2478
17795TIP3    H174876   0.351   1.770  14.227 -1.0420 -0.1085  1.6628
17795TIP3    H274877   0.207   1.749  14.184 -1.1829  2.4554  0.7065
17796TIP3   OH274878   6.428   5.895  13.875 -0.1611 -0.0707 -0.3518
17796TIP3    H174879   6.494   5.826  13.882 -0.6888 -0.5971 -0.5029
17796TIP3    H274880   6.398   5.890  13.784 -0.6390 -0.0444 -0.1965
17797TIP3   OH274881   5.488   1.273   0.544  0.3542  0.3405 -0.3242
17797TIP3    H174882   5.551   1.287   0.474  2.2857 -0.5572  1.1242
17797TIP3    H274883   5.536   1.223   0.610 -2.3238 -1.7833  0.2274
17798TIP3   OH274884   6.520   5.933  16.228 -0.2968  1.1128  0.7035
17798TIP3    H174885   6.477   5.928  16.313 -0.2398  2.5926  0.8326
17798TIP3    H274886   6.611   5.957  16.248 -0.2177  1.2142  0.2399
17799TIP3   OH274887   0.776   6.392   0.356 -0.0782  0.3470 -0.1205
17799TIP3    H174888   0.803   6.306   0.322 -0.2018  0.4192 -0.4033
17799TIP3    H274889   0.843   6.452   0.323 -1.1594  0.7166 -1.7929
17800TIP3   OH274890   0.740   2.575  12.174 -0.2435  0.6622 -0.2626
17800TIP3    H174891   0.745   2.662  12.214 -0.2150  0.0954  1.0190
17800TIP3    H274892   0.760   2.515  12.246  3.2814 -0.3156 -1.8579
17801TIP3   OH274893   4.424   4.645  16.382  0.3342  0.5818  0.3086
17801TIP3    H174894   4.511   4.615  16.407  0.3963  2.4470  2.6334
17801TIP3    H274895   4.439   4.709  16.313  0.7441  0.3102  0.1446
17802TIP3   OH274896   2.852   4.799   5.999 -0.1524  0.3179 -0.0287
17802TIP3    H174897   2.801   4.851   5.937 -0.8771 -0.8171 -0.4033
17802TIP3    H274898   2.910   4.863   6.041 -1.3118  1.5082 -0.1660
17803TIP3   OH274899   0.463   1.671   4.490 -0.1816 -0.2714  0.1598
17803TIP3    H174900   0.515   1.747   4.464  0.4443 -0.4844  0.7254
17803TIP3    H274901   0.502   1.597   4.443 -0.6493 -0.2792 -0.2228
17804TIP3   OH274902   6.598   5.874   5.493  0.2050  0.1399  0.5241
17804TIP3    H174903   6.543   5.839   5.424 -0.8324  2.3791  0.1413
17804TIP3    H274904   6.537   5.895   5.564  1.0641 -0.7244  1.5533
17805TIP3   OH274905   4.715   6.812   4.862  0.0660 -0.9884  0.5510
17805TIP3    H174906   4.665   6.852   4.791 -1.4800 -1.1831  1.4745
17805TIP3    H274907   4.765   6.742   4.820  0.4443 -0.0732 -0.5808
17806TIP3   OH274908   3.966   6.547  14.589  0.2416  0.5301  0.0442
17806TIP3    H174909   4.030   6.492  14.636  1.2079  0.0821 -1.7036
17806TIP3    H274910   3.992   6.637  14.610  0.8063  0.3400  0.1833
17807TIP3   OH274911   0.800   6.406   1.613 -0.2267  0.0249 -0.7050
17807TIP3    H174912   0.745   6.483   1.629  0.2907 -0.0005  1.5569
17807TIP3    H274913   0.879   6.422   1.665 -0.1913 -2.1213 -0.0042
17808TIP3   OH274914   0.282   5.402   5.736  0.2881  0.5406  0.6360
17808TIP3    H174915   0.288   5.496   5.721  0.6798  0.4644  0.2910
17808TIP3    H274916   0.338   5.387   5.812  0.3338  0.5687  0.6083
17809TIP3   OH274917   2.792   2.272   6.383 -0.2328 -0.4713  0.1897
17809TIP3    H174918   2.701   2.249   6.368  0.0805 -0.7660 -1.5129
17809TIP3    H274919   2.793   2.368   6.381 -0.8512 -0.3429  2.8001
17810TIP3   OH274920   2.187   5.507   3.931 -0.0401  0.1606 -0.1166
17810TIP3    H174921   2.182   5.517   3.836 -1.7489  2.9658  0.1528
17810TIP3    H274922   2.159   5.592   3.966 -3.5853 -1.9453  2.9455
17811TIP3   OH274923   4.301   4.772  10.390 -0.0711  0.4408  0.0118
17811TIP3    H174924   4.294   4.713  10.465 -1.4111 -0.2865 -0.6467
17811TIP3    H274925   4.257   4.852  10.419  1.2971  0.9649  0.7255
17812TIP3   OH274926   0.782   0.172   0.993 -0.0348  0.1760  0.1588
17812TIP3    H174927   0.800   0.264   0.975 -1.3193 -0.0104 -2.6072
17812TIP3    H274928   0.813   0.158   1.083  1.1241  3.0120  0.2874
17813TIP3   OH274929   0.691   2.567  14.247 -0.4208  0.2449 -0.2968
17813TIP3    H174930   0.606   2.589  14.208 -0.0355  0.4447 -1.0255
17813TIP3    H274931   0.733   2.651  14.263 -1.1394  0.2516  1.8823
17814TIP3   OH274932   0.165   2.396  16.090 -0.2181 -0.4457 -0.5102
17814TIP3    H174933   0.231   2.385  16.159 -0.3852  2.2485  0.1691
17814TIP3    H274934   0.094   2.337  16.116  0.7783 -1.3709  0.2189
17815TIP3   OH274935   5.094   1.052   3.742  0.0764  0.6243  0.6585
17815TIP3    H174936   5.104   1.138   3.782  0.3839  0.7363  0.3434
17815TIP3    H274937   5.025   1.010   3.793  0.6032  0.6857  1.4404
17816TIP3   OH274938   3.659   2.038  14.135 -0.0697 -0.4275 -1.0528
17816TIP3    H174939   3.694   2.062  14.049  0.0492  0.8451 -0.6680
17816TIP3    H274940   3.725   2.069  14.197  0.1550 -1.9058 -0.5073
17817TIP3   OH274941   4.170   4.215  10.985 -0.4549 -0.1262 -0.3771
17817TIP3    H174942   4.244   4.163  11.016  0.5021  1.3028 -0.1574
17817TIP3    H274943   4.146   4.175  10.901  0.2393 -0.9336 -0.2027
17818TIP3   OH274944   0.540   6.013   1.152 -0.0436  0.0176 -0.0179
17818TIP3    H174945   0.598   6.042   1.082 -0.4088  0.6262 -0.0814
17818TIP3    H274946   0.482   6.088   1.167  0.0221 -0.1038  0.9200
17819TIP3   OH274947   2.790   4.188  12.814 -0.1530 -0.5854 -0.1160
17819TIP3    H174948   2.700   4.163  12.833 -0.0968 -1.0401 -0.4325
17819TIP3    H274949   2.793   4.196  12.719  0.1993 -0.8034 -0.1248
17820TIP3   OH274950   0.115   4.925   3.807 -0.3185 -0.0164  0.8845
17820TIP3    H174951   0.103   4.999   3.866  1.0725 -0.1852  1.4103
17820TIP3    H274952   0.065   4.854   3.846  0.3329 -0.0352  1.7036
17821TIP3   OH274953   0.161   3.608  13.458  0.2401 -1.0302 -0.0604
17821TIP3    H174954   0.146   3.522  13.498  0.7096 -0.4111  1.5282
17821TIP3    H274955   0.254   3.607  13.434  0.3125 -0.8692  0.2113
17822TIP3   OH274956   3.498   2.666   2.861  0.2837 -1.2411 -0.7853
17822TIP3    H174957   3.570   2.629   2.811 -0.6495 -2.3189 -1.3599
17822TIP3    H274958   3.532   2.751   2.892  1.9163 -1.8739 -0.7135
17823TIP3   OH274959   1.473   1.672   3.731 -0.3253 -0.0200 -0.3203
17823TIP3    H174960   1.417   1.704   3.661 -1.5128 -0.8925  0.1916
17823TIP3    H274961   1.421   1.685   3.811  0.1223 -1.0047  0.1463
17824TIP3   OH274962   1.431   1.864   2.532  0.3712  0.1374 -0.1514
17824TIP3    H174963   1.407   1.778   2.498 -1.8939  0.6215  0.0578
17824TIP3    H274964   1.376   1.874   2.610  1.7963  1.1149  0.7649
17825TIP3   OH274965   6.707   5.494  11.436  0.7706  0.0750  1.0740
17825TIP3    H174966   6.781   5.477  11.378 -1.1221 -1.4210 -1.0551
17825TIP3    H274967   6.731   5.575  11.481  2.0666  1.8198 -2.3665
17826TIP3   OH274968   2.866   0.898   5.895  0.2300 -0.0154  0.8621
17826TIP3    H174969   2.873   0.960   5.968  0.7315 -0.3421  1.0984
17826TIP3    H274970   2.905   0.944   5.820  1.2643 -0.2969  1.2049
17827TIP3   OH274971   3.489   0.156  15.072  0.3088  0.5760 -0.0185
17827TIP3    H174972   3.571   0.148  15.120  0.7532  0.2989 -0.8036
17827TIP3    H274973   3.500   0.234  15.019  0.8234 -0.4795 -1.5253
17828TIP3   OH274974   4.138   4.037  12.324  0.4625 -0.0656 -0.4211
17828TIP3    H174975   4.141   3.975  12.251 -0.0665 -1.0315  0.3543
17828TIP3    H274976   4.109   3.985  12.399 -0.6419  1.2684  0.1102
17829TIP3   OH274977   4.810   5.370   1.155  0.4005 -0.4563 -0.7347
17829TIP3    H174978   4.720   5.343   1.175  0.2300 -1.2902 -2.4376
17829TIP3    H274979   4.827   5.334   1.068  1.6317  1.5421 -1.3930
17830TIP3   OH274980   4.768   2.586   1.678  0.0334  0.4635 -0.0374
17830TIP3    H174981   4.729   2.666   1.641  1.1946  0.3331 -1.6065
17830TIP3    H274982   4.834   2.559   1.615 -0.7706 -2.1480  0.1186
17831TIP3   OH274983   6.626   1.705  11.505  0.4387 -0.0652 -0.2156
17831TIP3    H174984   6.678   1.765  11.451  0.1669  0.6270  0.2843
17831TIP3    H274985   6.665   1.619  11.490  2.4883  0.5907  1.0392
17832TIP3   OH274986   0.073   6.028   1.985 -0.5423  0.1223 -0.1394
17832TIP3    H174987   0.156   6.037   2.031 -0.0400  1.6113 -1.2713
17832TIP3    H274988   0.010   6.074   2.040 -0.2367  0.5907 -0.1724
17833TIP3   OH274989   5.948   1.956   3.802 -0.7622  0.0312 -0.4016
17833TIP3    H174990   5.964   1.975   3.895 -0.4552  0.8779 -0.6200
17833TIP3    H274991   5.862   1.913   3.801 -0.2484 -1.0480  0.3865
17834TIP3   OH274992   0.170   1.644   4.941  0.5908  0.0472  0.1010
17834TIP3    H174993   0.191   1.715   4.880  1.4004  0.0367  0.3566
17834TIP3    H274994   0.075   1.633   4.932  0.4894  0.9725 -0.1444
17835TIP3   OH274995   6.366   1.141  15.154  0.1014 -0.1128  0.3699
17835TIP3    H174996   6.340   1.208  15.090 -0.3213  0.2086  0.8687
17835TIP3    H274997   6.285   1.094  15.173  0.2904 -0.4181  0.4259
17836TIP3   OH274998   6.850   1.088   6.042 -0.3064 -0.0583  0.1784
17836TIP3    H174999   6.766   1.126   6.016 -0.6149 -0.0249  1.1571
17836TIP3    H275000   6.909   1.163   6.052 -0.5479  0.0546  0.8183
17837TIP3   OH275001   2.459   0.962  15.970  0.3589  0.5862  0.0854
17837TIP3    H175002   2.540   0.930  16.010 -0.1517 -0.7708  0.0664
17837TIP3    H275003   2.460   0.925  15.882 -0.1214  0.8511 -0.0341
17838TIP3   OH275004   4.786   6.454   3.912  0.1290 -0.4401 -0.0800
17838TIP3    H175005   4.701   6.494   3.932 -0.1391 -1.1702  0.2793
17838TIP3    H275006   4.848   6.502   3.967 -0.2608 -0.8353  0.7257
17839TIP3   OH275007   3.132   0.201   6.235 -0.1630 -0.2854 -0.2295
17839TIP3    H175008   3.089   0.281   6.267  1.2733  0.1876  0.6117
17839TIP3    H275009   3.225   0.223   6.235  0.2169 -1.8280 -0.4123
17840TIP3   OH275010   6.361   4.131  14.882  0.3768  0.3178 -0.1867
17840TIP3    H175011   6.440   4.143  14.830 -0.2095  1.4301 -0.8533
17840TIP3    H275012   6.291   4.116  14.818  0.0548 -0.7452  0.3964
17841TIP3   OH275013   5.631   6.698   0.977 -0.5365  0.3123  0.3349
17841TIP3    H175014   5.685   6.701   0.898 -1.2234  0.2056 -0.1402
17841TIP3    H275015   5.692   6.669   1.046  0.0887  0.5107 -0.1252
17842TIP3   OH275016   3.854   3.334   0.572  0.0654 -0.3402  0.1861
17842TIP3    H175017   3.876   3.328   0.665  2.1562 -0.0079 -0.2413
17842TIP3    H275018   3.832   3.426   0.558  0.1340 -0.3117  0.2657
17843TIP3   OH275019   6.794   5.089  14.039  0.2368  0.0885 -0.4899
17843TIP3    H175020   6.834   5.167  13.999  1.2383 -1.2769 -2.3266
17843TIP3    H275021   6.811   5.019  13.976 -1.0720 -1.5320  0.8683
17844TIP3   OH275022   0.765   2.021  11.637 -0.5367 -0.7123  0.2511
17844TIP3    H175023   0.715   1.986  11.710 -1.0898 -1.5131 -0.4857
17844TIP3    H275024   0.712   2.092  11.602 -0.8503 -1.1159 -0.1063
17845TIP3   OH275025   6.671   1.762   5.956 -0.4097  0.2463  0.1868
17845TIP3    H175026   6.648   1.846   5.916 -0.2429 -0.0389 -0.5354
17845TIP3    H275027   6.713   1.713   5.885 -1.4049 -0.8226  0.3001
17846TIP3   OH275028   6.545   5.550   4.797 -0.1233  0.2009  0.2652
17846TIP3    H175029   6.639   5.557   4.782 -0.4478  0.8107 -1.7437
17846TIP3    H275030   6.528   5.457   4.809  0.8811  0.1976  2.0282
17847TIP3   OH275031   6.675   3.468   5.266 -0.1508  0.4053 -0.1980
17847TIP3    H175032   6.727   3.429   5.335  0.3218 -0.1237 -0.8384
17847TIP3    H275033   6.593   3.419   5.266  0.3941 -0.5499 -0.9213
17848TIP3   OH275034   5.004   1.741  16.488  0.2933 -0.5560 -0.4193
17848TIP3    H175035   5.025   1.798  16.562  0.3944  1.1560 -1.7044
17848TIP3    H275036   4.912   1.718  16.502 -0.1172  0.9384 -0.4793
17849TIP3   OH275037   4.093   1.092   2.465 -0.1748  0.1652  0.5219
17849TIP3    H175038   4.162   1.144   2.507  0.5367 -0.0257 -0.3886
17849TIP3    H275039   4.011   1.134   2.493  0.2411 -0.2795  2.5033
17850TIP3   OH275040   2.604   5.407  16.044 -0.3259 -0.3545  0.3174
17850TIP3    H175041   2.653   5.375  15.968 -0.7321  1.9651 -0.9994
17850TIP3    H275042   2.613   5.337  16.109  2.3411 -1.2367 -0.8597
17851TIP3   OH275043   2.196   3.717   1.499  0.3857 -0.3184 -0.1157
17851TIP3    H175044   2.111   3.757   1.517  0.0122 -0.4852 -1.4119
17851TIP3    H275045   2.204   3.719   1.403  1.9577 -0.0602 -0.0097
17852TIP3   OH275046   3.733   0.881   5.651  0.7796  0.2407 -0.4631
17852TIP3    H175047   3.673   0.828   5.703  0.7929  1.2264  0.6113
17852TIP3    H275048   3.695   0.882   5.563 -1.0333  1.2001  0.2864
17853TIP3   OH275049   0.060   1.402   1.313  0.0374  0.0279  0.3827
17853TIP3    H175050   0.081   1.489   1.347 -0.2721 -0.3330  1.5494
17853TIP3    H275051  -0.033   1.406   1.293 -0.0381 -0.1201  0.7040
17854TIP3   OH275052   4.609   5.690  14.446  0.2758 -0.9738  0.2024
17854TIP3    H175053   4.553   5.615  14.465 -1.2377  0.0243 -0.1987
17854TIP3    H275054   4.570   5.731  14.368  1.7983 -0.4786 -0.3370
17855TIP3   OH275055   2.581   6.840  14.320  0.1485  0.1852 -0.3368
17855TIP3    H175056   2.575   6.932  14.347  0.9688 -0.1579  1.1477
17855TIP3    H275057   2.622   6.842  14.234  1.0801  1.1614  0.1208
17856TIP3   OH275058   6.521   5.305  11.747 -0.1721 -0.4809  0.0869
17856TIP3    H175059   6.511   5.299  11.842 -1.0742 -1.7093 -0.0642
17856TIP3    H275060   6.497   5.395  11.726 -2.9094 -0.9624  0.7268
17857TIP3   OH275061   2.561   3.158  12.190  0.6144 -0.1640 -0.0865
17857TIP3    H175062   2.526   3.190  12.106  0.0630 -0.8574 -0.1302
17857TIP3    H275063   2.593   3.237  12.234 -1.4917  0.6037  0.1757
17858TIP3   OH275064   5.822   1.300   0.613 -0.4620  0.3835 -0.4958
17858TIP3    H175065   5.787   1.271   0.698 -1.5644 -0.8806 -1.3572
17858TIP3    H275066   5.788   1.389   0.603 -1.4765  0.0397 -0.2270
17859TIP3   OH275067   3.338   4.077   4.122  0.2175 -0.4508 -0.0400
17859TIP3    H175068   3.333   4.129   4.202  0.2192 -0.8909  0.2496
17859TIP3    H275069   3.269   4.011   4.132  1.1980 -1.4500  0.2757
17860TIP3   OH275070   0.873   3.123  14.337  0.6725 -0.1492 -0.3946
17860TIP3    H175071   0.834   3.125  14.425 -0.0954 -2.8488 -0.5889
17860TIP3    H275072   0.954   3.073  14.348  0.8551 -0.0299 -1.1395
17861TIP3   OH275073   5.852   6.847   3.375  0.3741  0.3115  0.4178
17861TIP3    H175074   5.827   6.833   3.466 -0.5505 -0.1026  0.1102
17861TIP3    H275075   5.813   6.931   3.351 -0.8770 -0.3933 -0.0993
17862TIP3   OH275076   0.154   3.489  14.535 -0.6536  0.1650 -0.0185
17862TIP3    H175077   0.230   3.544  14.518 -1.5246  1.1402 -0.9196
17862TIP3    H275078   0.146   3.433  14.457 -1.8382  1.2761 -0.7316
17863TIP3   OH275079   1.398   4.058   3.637 -1.0715  0.2056 -1.2682
17863TIP3    H175080   1.420   4.011   3.556 -0.5848  0.5457 -1.3364
17863TIP3    H275081   1.419   4.149   3.617 -1.4760  0.3697 -0.9420
17864TIP3   OH275082   5.868   4.828  12.671  0.3888 -0.2223  0.1167
17864TIP3    H175083   5.961   4.818  12.692  0.5406  1.8958  0.7547
17864TIP3    H275084   5.823   4.814  12.754  0.3993  1.2672  0.4106
17865TIP3   OH275085   4.227   2.555  12.948  0.5932  0.2810 -0.3363
17865TIP3    H175086   4.221   2.646  12.978  1.2598 -0.6336  3.0959
17865TIP3    H275087   4.272   2.510  13.020  1.5100 -2.5438 -2.4904
17866TIP3   OH275088   4.781   1.265  13.662 -0.0487 -0.3505  0.0365
17866TIP3    H175089   4.865   1.279  13.707 -0.2361 -0.4002  0.4082
17866TIP3    H275090   4.776   1.336  13.598 -0.4153  0.5768  1.0521
17867TIP3   OH275091   0.818   2.359  12.708  0.3404 -0.1597  0.3626
17867TIP3    H175092   0.880   2.417  12.753  1.3333 -2.6006  2.3981
17867TIP3    H275093   0.764   2.323  12.778 -1.3114 -0.5230 -1.0257
17868TIP3   OH275094   4.543   0.660  14.177 -0.0771  0.2052  0.1498
17868TIP3    H175095   4.520   0.677  14.268 -0.0169 -1.2036  0.4497
17868TIP3    H275096   4.460   0.666  14.129 -0.5607 -1.5349  0.7085
17869TIP3   OH275097   2.339   0.364   4.920 -0.1489 -0.3935 -0.0026
17869TIP3    H175098   2.400   0.290   4.918 -0.3931 -0.6154  0.5247
17869TIP3    H275099   2.330   0.385   5.013 -0.3389  0.0877 -0.1272
17870TIP3   OH275100   5.875   4.407  14.607  0.0154  0.3378  0.3180
17870TIP3    H175101   5.959   4.440  14.640 -1.0621  2.1001  1.4853
17870TIP3    H275102   5.857   4.461  14.531 -0.3874  0.4436  0.4871
17871TIP3   OH275103   3.171   3.510   3.703 -0.0004 -0.1000 -0.1375
17871TIP3    H175104   3.223   3.430   3.694  1.1883  0.7873 -1.7190
17871TIP3    H275105   3.236   3.578   3.724 -0.4521  1.0348 -2.1359
17872TIP3   OH275106   6.269   1.148   2.746  0.7469  0.0791  0.0498
17872TIP3    H175107   6.272   1.064   2.701  0.2201  0.1178 -0.0679
17872TIP3    H275108   6.192   1.192   2.709  1.2857  0.8060 -0.2286
17873TIP3   OH275109   3.485   3.300   2.342  0.0971 -0.3211  0.0502
17873TIP3    H175110   3.513   3.356   2.270 -2.9260 -0.6580 -1.5945
17873TIP3    H275111   3.484   3.357   2.419  1.2247  0.6642 -0.6307
17874TIP3   OH275112   5.559   4.658   1.657  0.1733  0.1729 -0.0671
17874TIP3    H175113   5.464   4.650   1.645  0.2778  0.7478 -1.4173
17874TIP3    H275114   5.596   4.586   1.607  0.4608 -0.0895  0.5156
17875TIP3   OH275115   5.543   4.195   0.869 -0.1152  0.0213 -0.1411
17875TIP3    H175116   5.522   4.273   0.818  1.4188 -0.6729 -1.9616
17875TIP3    H275117   5.562   4.227   0.957 -0.1748  1.6096 -0.6820
17876TIP3   OH275118   0.491   6.479  15.991  0.4318  0.4209 -0.4335
17876TIP3    H175119   0.450   6.552  16.037  0.5954 -0.3304  0.9667
17876TIP3    H275120   0.493   6.506  15.900 -0.1009  1.8860 -0.0382
17877TIP3   OH275121   5.241   6.698  13.339  0.2318  0.8051  0.8386
17877TIP3    H175122   5.291   6.620  13.364  0.3849  0.8623  0.7061
17877TIP3    H275123   5.201   6.675  13.255 -1.0783  0.2448  1.5892
17878TIP3   OH275124   5.111   3.216  10.884  0.1457 -0.4423  0.8880
17878TIP3    H175125   5.108   3.288  10.821  1.2305  0.7487  2.1306
17878TIP3    H275126   5.065   3.144  10.841  1.0152  0.2506 -1.3312
17879TIP3   OH275127   6.720   0.883   5.842  0.5489 -0.7627  0.5728
17879TIP3    H175128   6.712   0.976   5.822 -1.6975 -0.8333  0.9556
17879TIP3    H275129   6.766   0.881   5.926  1.8663 -0.1055 -0.0863
17880TIP3   OH275130   1.719   1.517   3.216  0.0948  0.8123  0.2337
17880TIP3    H175131   1.677   1.555   3.140 -1.5689 -1.7173 -0.2395
17880TIP3    H275132   1.647   1.485   3.270  1.2697 -2.0140  0.3119
17881TIP3   OH275133   1.172   0.995   2.970 -0.0020 -0.2001 -0.2025
17881TIP3    H175134   1.216   1.074   2.939  1.5796 -0.1632  1.9390
17881TIP3    H275135   1.216   0.923   2.924  0.2931  0.0096 -0.2517
17882TIP3   OH275136   2.122   2.497  12.350  0.0108 -0.0036 -0.3521
17882TIP3    H175137   2.028   2.507  12.362 -0.2344 -1.5794 -0.7500
17882TIP3    H275138   2.147   2.429  12.413  0.7176 -0.2099 -0.8408
17883TIP3   OH275139   5.686   1.034   1.972 -0.1972 -0.5396 -0.5114
17883TIP3    H175140   5.708   1.104   1.910 -1.2523 -0.5864 -0.9526
17883TIP3    H275141   5.739   0.960   1.944 -0.7182 -0.5829 -1.4266
17884TIP3   OH275142   3.056   2.612  14.122 -0.2381 -0.2796  0.3253
17884TIP3    H175143   3.051   2.660  14.039 -0.2263 -0.4331  0.2360
17884TIP3    H275144   2.966   2.584  14.138 -0.0830 -1.0909 -0.1341
17885TIP3   OH275145   2.526   3.746   2.640 -0.3039 -0.1064  0.0440
17885TIP3    H175146   2.487   3.750   2.553 -0.4826 -0.5904  0.1016
17885TIP3    H275147   2.520   3.836   2.673 -1.6326 -0.2185  0.1594
17886TIP3   OH275148   5.073   3.830  16.083 -0.3883  0.9658  0.1528
17886TIP3    H175149   5.063   3.793  15.995 -0.3327 -1.4687  1.1007
17886TIP3    H275150   5.128   3.908  16.070  0.0840  0.3477 -1.9061
17887TIP3   OH275151   0.857   3.887   4.037 -0.1538 -0.5377 -0.2024
17887TIP3    H175152   0.881   3.795   4.024 -1.0865 -0.9536  0.8417
17887TIP3    H275153   0.881   3.905   4.128  1.6286  0.7896 -0.8868
17888TIP3   OH275154   5.369   6.015   5.593 -0.7825  0.1740 -0.0395
17888TIP3    H175155   5.361   6.078   5.522  0.5525  0.1225 -0.2658
17888TIP3    H275156   5.341   6.062   5.671  1.8390  1.6877  0.1050
17889TIP3   OH275157   6.155   0.197   4.537 -0.0907 -0.0399 -0.3244
17889TIP3    H175158   6.199   0.175   4.619 -0.0444  1.9269  0.2430
17889TIP3    H275159   6.225   0.235   4.482 -0.5381  0.6938 -0.4047
17890TIP3   OH275160   2.099   4.668  11.503 -0.6919 -0.1413  0.4218
17890TIP3    H175161   2.106   4.629  11.591 -1.5624  0.3375  0.7058
17890TIP3    H275162   2.128   4.758  11.515 -0.3783 -0.2026  0.1213
17891TIP3   OH275163   1.775   3.343   2.218  0.2605 -0.5926  0.3251
17891TIP3    H175164   1.858   3.328   2.263  0.2576  0.5048  0.7377
17891TIP3    H275165   1.793   3.417   2.160  0.2469 -1.9344 -1.4775
17892TIP3   OH275166   3.951   2.432  14.878 -0.2797  0.2056 -0.0700
17892TIP3    H175167   3.990   2.421  14.792 -4.0111 -0.5701 -1.8393
17892TIP3    H275168   3.957   2.526  14.896  0.0543  0.4605 -1.4237
17893TIP3   OH275169   1.919   2.336   5.876 -0.5496  0.2086  0.5952
17893TIP3    H175170   1.959   2.420   5.897  0.2101  0.8850 -2.9734
17893TIP3    H275171   1.960   2.274   5.936  0.7173  1.9657  1.6193
17894TIP3   OH275172   5.928   4.440  14.094  0.3067  0.3838  0.2812
17894TIP3    H175173   6.018   4.411  14.101  1.0137  2.3789  0.1801
17894TIP3    H275174   5.900   4.410  14.007  1.2296  0.6261 -0.1154
17895TIP3   OH275175   0.769   4.100   1.405 -0.3113 -0.6650 -0.2018
17895TIP3    H175176   0.696   4.159   1.387 -2.0072 -2.1522  1.3836
17895TIP3    H275177   0.846   4.157   1.411 -1.6720  1.2169  0.0971
17896TIP3   OH275178   5.165   2.249  14.729 -0.1804  0.2468 -0.1864
17896TIP3    H175179   5.119   2.253  14.813  0.4268 -3.3691  0.4926
17896TIP3    H275180   5.234   2.314  14.737  1.0091 -1.1803  3.0043
17897TIP3   OH275181   3.771   5.318  10.919 -0.0218 -0.1642  0.3499
17897TIP3    H175182   3.776   5.223  10.908  0.9264 -0.1162  0.2902
17897TIP3    H275183   3.854   5.342  10.960  0.1083  0.7422 -0.4115
17898TIP3   OH275184   1.424   3.228   0.213  0.6329  0.0014 -0.2045
17898TIP3    H175185   1.479   3.193   0.143  1.0822  1.5910 -0.6869
17898TIP3    H275186   1.340   3.248   0.170  0.0102 -1.4396  0.3012
17899TIP3   OH275187   6.645   3.175  12.313  0.2498  0.1228  0.2430
17899TIP3    H175188   6.625   3.136  12.227 -1.4184 -0.2927  0.7906
17899TIP3    H275189   6.569   3.230  12.333  0.2505 -0.3839  1.7869
17900TIP3   OH275190   4.463   1.037  15.423 -0.9186  0.7610  0.1182
17900TIP3    H175191   4.471   1.059  15.516  2.5499 -0.1630  0.1703
17900TIP3    H275192   4.437   1.119  15.381 -1.7776  1.3819  1.7704
17901TIP3   OH275193   5.153   6.291  11.106  0.0227 -0.2303  0.0080
17901TIP3    H175194   5.101   6.275  11.185 -0.2742 -0.7097 -0.2834
17901TIP3    H275195   5.223   6.349  11.136 -0.9734  0.8810  0.2970
17902TIP3   OH275196   0.335   2.826  15.879  0.6443  0.1534 -0.0620
17902TIP3    H175197   0.258   2.838  15.935  0.2420 -3.0944  0.2795
17902TIP3    H275198   0.403   2.878  15.922 -1.0778  2.5223  0.0317
17903TIP3   OH275199   2.472   5.100  10.566 -0.1365 -0.3482 -0.1448
17903TIP3    H175200   2.472   5.182  10.517  0.9343 -0.9413 -1.1986
17903TIP3    H275201   2.532   5.115  10.639 -1.2450  0.3314  0.6553
17904TIP3   OH275202   3.819   0.103   4.719  0.2055  0.1559  0.3748
17904TIP3    H175203   3.841   0.149   4.800 -0.8475  0.4494  0.5044
17904TIP3    H275204   3.724   0.106   4.715  0.0141 -2.8058  0.8200
17905TIP3   OH275205   1.665   1.498   1.673  0.1590 -0.0895 -0.0319
17905TIP3    H175206   1.711   1.501   1.757 -0.6252 -0.1448  0.4108
17905TIP3    H275207   1.721   1.443   1.617 -0.9860 -3.1135  1.5536
17906TIP3   OH275208   1.706   4.620   0.306  0.7553 -0.1253  0.3496
17906TIP3    H175209   1.700   4.578   0.220  0.4465 -0.9105  0.7502
17906TIP3    H275210   1.682   4.711   0.290  0.8369 -0.2351 -0.4203
17907TIP3   OH275211   0.424   2.329  15.836 -0.4716 -0.1384 -0.4301
17907TIP3    H175212   0.370   2.356  15.762 -0.8113 -0.2412 -0.2232
17907TIP3    H275213   0.404   2.393  15.904  0.3228  0.3357 -0.6312
17908TIP3   OH275214   1.571   5.297  12.781  0.5735  0.5189 -0.1146
17908TIP3    H175215   1.564   5.274  12.874 -0.0456  1.2371  0.0248
17908TIP3    H275216   1.647   5.356  12.777  1.0437 -0.0817 -0.1849
17909TIP3   OH275217   6.484   5.953   4.106 -0.3071 -0.2184 -0.0268
17909TIP3    H175218   6.535   5.877   4.136 -1.5175 -0.3940  1.7541
17909TIP3    H275219   6.497   6.018   4.175  0.0789  0.9269 -1.1512
17910TIP3   OH275220   1.699   5.538   5.695  0.1342 -0.0203  0.8302
17910TIP3    H175221   1.779   5.544   5.747  0.1164 -0.3699  0.9020
17910TIP3    H275222   1.728   5.557   5.605  0.3916 -0.6089  0.7806
17911TIP3   OH275223   3.373   4.029   1.650 -0.1588 -0.1970 -0.8413
17911TIP3    H175224   3.443   3.971   1.679 -0.7242  0.7201  2.9371
17911TIP3    H275225   3.329   3.980   1.580  2.0076 -2.3591 -0.8374
17912TIP3   OH275226   1.959   0.656  11.235  0.3822 -0.4431  0.5300
17912TIP3    H175227   1.918   0.690  11.155  1.3442  0.3774  0.3683
17912TIP3    H275228   2.042   0.703  11.241  0.7639 -1.2108  1.4913
17913TIP3   OH275229   0.523   0.423  14.633  0.0179  0.0551  0.4299
17913TIP3    H175230   0.485   0.422  14.720 -2.3806  0.1007 -0.5297
17913TIP3    H275231   0.485   0.501  14.591 -0.2939 -0.9236 -1.2091
17914TIP3   OH275232   3.838   0.263  13.537  0.2584 -0.1318  0.2851
17914TIP3    H175233   3.743   0.254  13.546  0.1332  0.9567  0.2738
17914TIP3    H275234   3.858   0.346  13.582  1.4223 -1.1150  1.6624
17915TIP3   OH275235   4.811   1.553  13.087 -0.6024  0.0485 -0.1214
17915TIP3    H175236   4.862   1.571  13.007 -1.4472 -0.7678 -0.8684
17915TIP3    H275237   4.810   1.637  13.133 -1.5005  1.0279 -1.7948
17916TIP3   OH275238   4.474   6.832   5.063  0.3591  0.4229  0.8960
17916TIP3    H175239   4.471   6.928   5.062 -0.3170  0.4609 -1.6822
17916TIP3    H275240   4.540   6.810   4.997 -0.4279 -0.8615  0.5026
17917TIP3   OH275241   5.184   6.136   0.375 -0.6419 -0.1364 -0.0445
17917TIP3    H175242   5.217   6.201   0.437  1.0148  1.8738 -2.8001
17917TIP3    H275243   5.262   6.105   0.328 -1.7819 -1.7517 -1.0007
17918TIP3   OH275244   1.161   3.007  14.906  0.4293  0.1203 -0.2542
17918TIP3    H175245   1.206   2.991  14.824  0.3742 -0.7279 -0.1301
17918TIP3    H275246   1.099   3.078  14.887  1.5977  1.0990 -0.4912
17919TIP3   OH275247   6.653   0.434  11.067  0.2444  0.3577 -0.1818
17919TIP3    H175248   6.577   0.376  11.059  0.6672 -0.1976 -0.2429
17919TIP3    H275249   6.671   0.463  10.978 -0.3266  1.0599 -0.0757
17920TIP3   OH275250   4.563   5.605   0.756 -0.2359 -0.2495 -0.3085
17920TIP3    H175251   4.632   5.555   0.714 -0.1133  0.4201 -0.9251
17920TIP3    H275252   4.486   5.592   0.700 -0.2865 -0.0085 -0.2966
17921TIP3   OH275253   0.469   6.038   1.840  0.0283  0.6086  0.0505
17921TIP3    H175254   0.417   5.958   1.837 -0.0042  0.6321 -0.0079
17921TIP3    H275255   0.407   6.108   1.861  0.1340  0.5510  0.5636
17922TIP3   OH275256   6.456   4.276  16.165 -0.0260  0.0513 -0.1384
17922TIP3    H175257   6.435   4.362  16.202 -1.0932 -0.9495  1.7248
17922TIP3    H275258   6.384   4.220  16.193  1.0683 -1.6533 -0.6232
17923TIP3   OH275259   6.584   0.387   2.851 -0.0255 -0.1648  0.3875
17923TIP3    H175260   6.611   0.436   2.929  0.9344  1.1657 -0.7438
17923TIP3    H275261   6.658   0.393   2.791 -0.0137 -2.7312  0.0260
17924TIP3   OH275262   0.321   2.799  16.244 -0.4378  0.5421  0.1390
17924TIP3    H175263   0.226   2.799  16.253 -0.4523  0.5258 -0.0089
17924TIP3    H275264   0.349   2.715  16.279 -0.3811  0.9703  1.1589
17925TIP3   OH275265   5.139   4.285  14.588  0.1562  0.3257  0.0181
17925TIP3    H175266   5.122   4.316  14.499  0.9732  0.8059  0.0181
17925TIP3    H275267   5.233   4.271  14.592  0.0348 -0.4166  0.5883
17926TIP3   OH275268   0.836   5.401  10.364  0.2364 -0.3519 -0.6374
17926TIP3    H175269   0.792   5.430  10.284  1.0674  0.9157 -0.6769
17926TIP3    H275270   0.802   5.459  10.432 -0.3417 -1.3111 -0.0881
17927TIP3   OH275271   2.913   0.698   2.013 -0.1844 -0.4250 -0.1776
17927TIP3    H175272   2.971   0.743   1.952  0.3351  0.8747  1.1864
17927TIP3    H275273   2.831   0.746   2.008 -0.4082 -0.8317 -0.4468
17928TIP3   OH275274   5.283   4.660  16.135  0.2874  0.2800 -0.4393
17928TIP3    H175275   5.249   4.675  16.047  0.8436  0.6066 -0.6059
17928TIP3    H275276   5.206   4.639  16.188 -0.3306  2.0290 -0.5880
17929TIP3   OH275277   0.608   5.983  11.273 -0.2977 -0.2085  0.1891
17929TIP3    H175278   0.534   5.945  11.320  0.5457 -0.0111  1.7191
17929TIP3    H275279   0.568   6.023  11.195 -1.4605 -2.3292 -0.3783
17930TIP3   OH275280   2.805   5.211  15.124 -0.1313 -0.0933 -0.5595
17930TIP3    H175281   2.786   5.150  15.052 -1.1228 -0.5303  0.0414
17930TIP3    H275282   2.829   5.292  15.080 -4.9541  1.1197 -1.6382
17931TIP3   OH275283   4.129   3.178  16.289 -0.1588 -0.4341  0.8217
17931TIP3    H175284   4.113   3.088  16.260 -1.7548 -0.3251  1.2395
17931TIP3    H275285   4.071   3.189  16.365 -2.4505  1.9067 -1.1026
17932TIP3   OH275286   0.933   3.009   1.143  0.4622  0.1214  0.3580
17932TIP3    H175287   1.006   3.062   1.111 -0.5569  0.6702 -1.1548
17932TIP3    H275288   0.886   3.067   1.203 -0.1327  0.6534 -0.5979
17933TIP3   OH275289   0.630   1.558   2.401  0.1750  0.2133  0.1516
17933TIP3    H175290   0.653   1.465   2.402 -0.6228 -0.0229 -1.0355
17933TIP3    H275291   0.703   1.601   2.358  0.2435  0.0420  0.0989
17934TIP3   OH275292   2.428   4.482  14.596  0.1487  0.3293  0.2829
17934TIP3    H175293   2.424   4.470  14.501 -1.1585 -0.6148  0.4266
17934TIP3    H275294   2.497   4.547  14.609  2.0128 -1.2205 -1.1492
17935TIP3   OH275295   0.280   3.132  12.735  0.5258 -0.1896  0.4936
17935TIP3    H175296   0.252   3.049  12.698 -0.1604  0.0671  0.4160
17935TIP3    H275297   0.302   3.186  12.660 -0.1440  0.0779  0.4765
17936TIP3   OH275298   2.075   0.557   0.481 -0.4717 -0.1391 -0.6846
17936TIP3    H175299   2.095   0.645   0.449  1.6019 -0.3080  0.0119
17936TIP3    H275300   2.107   0.499   0.413  1.1455 -0.4053  0.2489
17937TIP3   OH275301   4.092   0.299   4.492 -0.1865  0.2583 -0.8307
17937TIP3    H175302   4.070   0.385   4.457  0.5487 -0.4823 -3.3577
17937TIP3    H275303   4.010   0.251   4.493 -0.3999  0.6298 -0.5225
17938TIP3   OH275304   6.046   5.836   6.079 -0.7573  0.7276  0.1878
17938TIP3    H175305   6.120   5.867   6.026  0.0908 -1.5119 -0.0598
17938TIP3    H275306   6.077   5.844   6.169 -0.0545 -0.4202  0.0779
17939TIP3   OH275307   6.574   0.229   3.231  0.0749 -0.5958 -0.2071
17939TIP3    H175308   6.499   0.176   3.259 -2.2261  1.6066 -1.7434
17939TIP3    H275309   6.580   0.298   3.297  0.1026 -0.1892 -0.6338
17940TIP3   OH275310   4.694   2.458  15.772  0.2959 -0.6016 -0.0370
17940TIP3    H175311   4.643   2.513  15.831 -0.2786 -1.7307  0.5634
17940TIP3    H275312   4.711   2.513  15.696 -1.8732 -0.1667 -0.2676
17941TIP3   OH275313   3.015   2.627   0.280  0.4273 -0.1466 -0.0850
17941TIP3    H175314   3.012   2.658   0.190 -2.4272  0.8935  0.2538
17941TIP3    H275315   3.088   2.674   0.320  0.0448  1.4516 -1.1797
17942TIP3   OH275316   2.541   6.507   2.810  0.2404  0.5103  1.0214
17942TIP3    H175317   2.555   6.467   2.896  2.5448  1.2225  1.0393
17942TIP3    H275318   2.454   6.545   2.816 -0.1578 -0.5191  2.5912
17943TIP3   OH275319   4.722   3.220   0.264  0.8286  0.0695 -0.6336
17943TIP3    H175320   4.777   3.184   0.195 -0.5521 -1.8661 -0.8034
17943TIP3    H275321   4.738   3.315   0.261  0.0287  0.2402 -4.3351
17944TIP3   OH275322   2.304   4.458  13.365  0.2502  0.0639 -0.0964
17944TIP3    H175323   2.276   4.451  13.457 -0.7636  1.2812 -0.2899
17944TIP3    H275324   2.313   4.367  13.336 -0.7079 -0.3481  0.8268
17945TIP3   OH275325   5.343   4.967   6.114 -0.1445 -0.3780 -0.6987
17945TIP3    H175326   5.259   5.012   6.104 -1.2518 -2.2162 -0.1005
17945TIP3    H275327   5.399   5.031   6.158 -1.4586  0.6516 -0.4606
17946TIP3   OH275328   3.743   2.871   2.393 -0.1443  0.2678 -0.1129
17946TIP3    H175329   3.763   2.840   2.304  0.2935 -0.6111  0.2870
17946TIP3    H275330   3.651   2.850   2.405 -0.2649  0.5889 -0.4308
17947TIP3   OH275331   4.586   5.583   1.438  0.0428 -0.4459  0.4081
17947TIP3    H175332   4.602   5.637   1.515 -0.2211 -0.6912  0.6378
17947TIP3    H275333   4.570   5.495   1.473  0.7673 -0.7391  0.0167
17948TIP3   OH275334   5.790   4.665  16.404  0.0684  0.5375  0.3968
17948TIP3    H175335   5.751   4.719  16.473 -0.2450 -0.5576  1.0944
17948TIP3    H275336   5.819   4.728  16.338 -1.2473  1.5028  0.6953
17949TIP3   OH275337   0.321   2.480   3.417  0.3270 -0.3128 -0.2427
17949TIP3    H175338   0.308   2.475   3.512  0.7586 -1.5106 -0.2231
17949TIP3    H275339   0.412   2.451   3.404 -0.1174 -1.4029 -1.1076
17950TIP3   OH275340   3.339   1.537  16.247 -0.1086 -0.3206  0.2392
17950TIP3    H175341   3.311   1.480  16.319  0.1192 -0.8038 -0.0496
17950TIP3    H275342   3.350   1.623  16.288 -0.2972 -0.5179  0.7158
17951TIP3   OH275343   4.328   5.082   6.083  0.2325 -0.3780  0.2221
17951TIP3    H175344   4.337   5.023   6.008  1.3026 -1.1784  0.9496
17951TIP3    H275345   4.253   5.048   6.132 -0.8481  0.5029 -0.7662
17952TIP3   OH275346   1.911   5.339  16.998  0.0979 -0.0961 -0.6729
17952TIP3    H175347   1.922   5.431  17.021  1.8595 -0.7078  1.2514
17952TIP3    H275348   1.928   5.336  16.904 -1.4886  1.7136 -1.0760
17953TIP3   OH275349   4.609   5.839   3.982  0.2814  0.0070 -0.1470
17953TIP3    H175350   4.554   5.807   4.054  0.0413  1.2163  0.2290
17953TIP3    H275351   4.686   5.875   4.024 -0.4970  2.0358 -0.3272
17954TIP3   OH275352   3.731   1.921  11.908  0.1038 -0.6126 -0.3822
17954TIP3    H175353   3.800   1.954  11.965  0.0937 -1.4386  0.1235
17954TIP3    H275354   3.752   1.957  11.822  2.0493 -2.0390 -0.5727
17955TIP3   OH275355   4.555   0.291   5.947  0.3416  0.2863  0.4038
17955TIP3    H175356   4.481   0.291   6.008 -0.3792 -1.2406 -0.4027
17955TIP3    H275357   4.571   0.383   5.928 -0.3126  0.7215  1.8067
17956TIP3   OH275358   2.822   2.266   1.979  0.7953  0.3558 -0.1584
17956TIP3    H175359   2.803   2.338   2.040  1.0715  0.6794 -0.4528
17956TIP3    H275360   2.793   2.298   1.894 -0.2917 -0.3846 -0.0892
17957TIP3   OH275361   1.082   4.202  15.421 -0.7055 -0.5836 -0.4539
17957TIP3    H175362   1.155   4.166  15.470  0.1458  2.2653  0.5997
17957TIP3    H275363   1.040   4.126  15.381  2.1368 -2.4495 -0.2004
17958TIP3   OH275364   5.106   2.743  12.755  0.3599 -0.0106 -0.3105
17958TIP3    H175365   5.032   2.685  12.738 -0.2886  0.8942 -0.6624
17958TIP3    H275366   5.087   2.782  12.840  0.8903 -0.4552  0.0157
17959TIP3   OH275367   3.701   3.044  13.664  0.0593 -0.3676  0.0777
17959TIP3    H175368   3.650   3.005  13.593  0.7393  1.9220 -1.8141
17959TIP3    H275369   3.789   3.008  13.654  0.2349  0.2006 -0.4837
17960TIP3   OH275370   1.151   4.110  13.706  0.2126 -0.3752 -0.3616
17960TIP3    H175371   1.171   4.059  13.785 -1.6089 -0.7693 -0.1175
17960TIP3    H275372   1.193   4.195  13.722 -1.0738 -0.0268  1.6102
17961TIP3   OH275373   2.419   0.911   3.107 -0.6600 -0.3302  0.5861
17961TIP3    H175374   2.349   0.849   3.086 -0.8834  0.3083 -0.6082
17961TIP3    H275375   2.480   0.904   3.034 -0.3278  0.3473  0.7932
17962TIP3   OH275376   4.910   1.974  15.050 -0.4940  0.5093 -0.1070
17962TIP3    H175377   4.882   1.945  14.963  0.5745 -0.5378 -0.1344
17962TIP3    H275378   5.005   1.965  15.049 -0.5144 -0.3290  1.4385
17963TIP3   OH275379   5.812   2.499  12.391 -0.3077 -0.2093 -0.7248
17963TIP3    H175380   5.772   2.428  12.342 -2.4079  0.9354 -0.7817
17963TIP3    H275381   5.765   2.577  12.363 -1.1716  0.5987  2.5371
17964TIP3   OH275382   4.941   5.343  14.662  0.8703  0.1540  0.5746
17964TIP3    H175383   4.912   5.288  14.735 -0.9475  0.8685  0.4611
17964TIP3    H275384   4.879   5.322  14.591 -2.1337  4.5006  1.4819
17965TIP3   OH275385   5.890   2.667  15.254 -0.3175 -0.7440  0.7077
17965TIP3    H175386   5.932   2.673  15.168 -0.2767 -0.9309  0.7156
17965TIP3    H275387   5.797   2.656  15.235 -0.4279  0.1448  0.6906
17966TIP3   OH275388   5.732   4.425   5.599  0.1046 -0.3578 -0.0297
17966TIP3    H175389   5.678   4.352   5.631  1.6523 -1.7489 -0.4025
17966TIP3    H275390   5.816   4.384   5.578  0.1291  0.9859 -3.0575
17967TIP3   OH275391   5.389   5.987   3.441  0.1659  0.9822 -0.1350
17967TIP3    H175392   5.333   6.052   3.398  0.2616  1.6693  0.7483
17967TIP3    H275393   5.350   5.975   3.528  1.1100  1.1363  0.3280
17968TIP3   OH275394   3.297   3.894   3.244  0.5057 -0.1325  0.6631
17968TIP3    H175395   3.254   3.837   3.308  2.2863  0.5903  2.6260
17968TIP3    H275396   3.310   3.977   3.290  1.3693  0.6188 -0.8391
17969TIP3   OH275397   0.775   1.351   3.881  0.0702  0.0182  0.3221
17969TIP3    H175398   0.809   1.262   3.872  1.2952  0.5434 -0.4974
17969TIP3    H275399   0.820   1.385   3.959 -1.3407 -0.4563  1.4001
17970TIP3   OH275400   4.341   5.377   3.726 -1.0384  0.1637 -0.3426
17970TIP3    H175401   4.350   5.320   3.649 -0.7638 -1.2327  0.7008
17970TIP3    H275402   4.430   5.388   3.758 -1.1098  1.0614 -0.4386
17971TIP3   OH275403   3.055   1.333  14.635 -0.1509  0.8212  0.1194
17971TIP3    H175404   3.002   1.266  14.592  1.2416 -0.6844  0.6349
17971TIP3    H275405   3.073   1.397  14.566 -2.3476  1.2470 -0.1322
17972TIP3   OH275406   3.129   3.892   2.471  0.4380  0.0059 -0.1955
17972TIP3    H175407   3.220   3.919   2.485  0.8414 -1.2684 -0.2444
17972TIP3    H275408   3.132   3.796   2.477 -0.8936 -0.0454 -0.2635
17973TIP3   OH275409   1.293   5.851  12.956  0.0007  0.7037 -0.0343
17973TIP3    H175410   1.358   5.800  13.004  0.9075 -0.2995 -2.1571
17973TIP3    H275411   1.344   5.922  12.916 -0.5082  0.8753 -0.3838
17974TIP3   OH275412   0.154   3.263  16.371  0.5817 -0.2027  0.9452
17974TIP3    H175413   0.227   3.217  16.330 -1.2364 -1.9303 -0.5202
17974TIP3    H275414   0.136   3.336  16.312  1.1387  0.2890  1.3638
17975TIP3   OH275415   4.685   2.003  11.757 -0.7722  0.7562  0.2541
17975TIP3    H175416   4.691   1.908  11.750  0.9035  0.8906 -0.8377
17975TIP3    H275417   4.634   2.029  11.680 -2.7299  0.6561  1.4713
17976TIP3   OH275418   6.154   2.330   3.322  0.5853 -0.2206 -0.1562
17976TIP3    H175419   6.058   2.330   3.321  0.5702 -0.5680 -2.1257
17976TIP3    H275420   6.177   2.285   3.404 -0.9266 -0.4197  0.1816
17977TIP3   OH275421   0.408   0.295  11.846  0.4918 -0.0029 -0.6034
17977TIP3    H175422   0.477   0.361  11.855 -0.6798  1.0987  0.7759
17977TIP3    H275423   0.419   0.238  11.921  0.1833 -0.1170 -0.6457
17978TIP3   OH275424   0.235   6.544   1.883  0.1546 -0.3503 -0.2863
17978TIP3    H175425   0.145   6.527   1.854 -0.9442  0.1450  2.4981
17978TIP3    H275426   0.247   6.638   1.867  1.0269 -0.7837 -2.5796
17979TIP3   OH275427   2.787   3.340   4.271 -0.3516  0.3308  0.0793
17979TIP3    H175428   2.738   3.258   4.274  0.3869 -0.1014  1.1002
17979TIP3    H275429   2.839   3.339   4.351  1.5432  0.6030 -1.0795
17980TIP3   OH275430   4.911   2.782   5.383  0.0473  0.3090  1.0859
17980TIP3    H175431   4.894   2.782   5.478 -0.6944  1.7106  0.9869
17980TIP3    H275432   4.914   2.690   5.359  0.7080 -0.0775  2.5491
17981TIP3   OH275433   4.111   3.114  16.894 -0.2774 -0.0302 -0.6712
17981TIP3    H175434   4.151   3.029  16.912  0.9128  0.4042 -1.1655
17981TIP3    H275435   4.060   3.101  16.814 -0.1432 -0.2936 -0.7115
17982TIP3   OH275436   5.027   0.592  14.779 -0.5746  0.3581  0.5035
17982TIP3    H175437   5.025   0.593  14.875 -0.5186  0.9938  0.5034
17982TIP3    H275438   4.994   0.678  14.754 -1.2673 -0.0554 -0.0642
17983TIP3   OH275439   2.367   4.844   2.037 -0.5958  0.2259  0.0943
17983TIP3    H175440   2.374   4.862   2.131  0.2090  0.6631 -0.0357
17983TIP3    H275441   2.429   4.905   1.997  1.5183 -2.1385 -0.4668
17984TIP3   OH275442   2.686   5.654  16.627 -0.5159 -0.1183 -0.2294
17984TIP3    H175443   2.716   5.713  16.696 -1.0887 -0.9746  0.7912
17984TIP3    H275444   2.594   5.636  16.650 -0.4230 -1.2005 -0.6388
17985TIP3   OH275445   5.313   6.446  13.413  1.1442  0.1339 -0.2934
17985TIP3    H175446   5.229   6.421  13.375  2.1509 -1.9865 -1.2754
17985TIP3    H275447   5.332   6.376  13.476  1.2878  1.6308  1.4229
17986TIP3   OH275448   0.094   0.816   0.963  0.1817  0.2881  0.3769
17986TIP3    H175449   0.148   0.770   0.899  0.3723  1.1670 -0.0969
17986TIP3    H275450   0.020   0.757   0.978  1.2186 -0.9204  1.0021
17987TIP3   OH275451   3.845   3.005   6.704 -0.6069  0.2884 -0.2801
17987TIP3    H175452   3.754   3.034   6.709 -1.1512 -1.5039  1.3108
17987TIP3    H275453   3.845   2.938   6.635 -1.4885 -2.6061  2.2837
17988TIP3   OH275454   6.764   2.589  15.734 -0.8673  0.4642 -0.0481
17988TIP3    H175455   6.852   2.620  15.754  0.3855 -2.7994  0.2274
17988TIP3    H275456   6.709   2.627  15.802  0.9963 -0.1632  1.9263
17989TIP3   OH275457   4.946   5.151   4.772  0.1925 -0.0021  0.5875
17989TIP3    H175458   5.016   5.179   4.713 -0.5881  1.4624  0.3354
17989TIP3    H275459   4.887   5.100   4.717  0.2122  0.1437  0.4306
17990TIP3   OH275460   1.742   1.177   3.417  0.4430 -0.0618  0.0470
17990TIP3    H175461   1.787   1.243   3.470 -0.8345  1.0213 -0.1689
17990TIP3    H275462   1.773   1.193   3.328  0.8029 -0.3423  0.1193
17991TIP3   OH275463   3.805   2.931   1.573  0.0409 -0.1661 -0.5226
17991TIP3    H175464   3.721   2.899   1.606  1.0452 -1.3268  1.0643
17991TIP3    H275465   3.843   2.980   1.647  1.1956 -0.5231 -0.8587
17992TIP3   OH275466   1.470   1.069  11.567 -0.5519 -0.6573  0.2579
17992TIP3    H175467   1.564   1.059  11.549  0.0818  1.5136  1.9011
17992TIP3    H275468   1.447   1.151  11.523 -1.3423 -0.4908  0.9638
17993TIP3   OH275469   3.194   1.405   3.365 -0.0322  0.2963 -0.2264
17993TIP3    H175470   3.173   1.337   3.429 -0.3931 -0.1150 -0.7628
17993TIP3    H275471   3.250   1.467   3.412  1.3349 -1.0098 -0.0602
17994TIP3   OH275472   2.435   1.053   4.056 -0.2681  0.9769  0.2983
17994TIP3    H175473   2.517   1.102   4.045  0.8510 -1.0020 -0.7831
17994TIP3    H275474   2.458   0.982   4.117 -0.0511 -1.7321 -2.6552
17995TIP3   OH275475   4.502   3.755   0.063 -0.0179 -0.2843 -0.2318
17995TIP3    H175476   4.593   3.726   0.064 -0.0906 -0.5278 -0.4963
17995TIP3    H275477   4.507   3.850   0.052  0.2159 -0.2039  0.5077
17996TIP3   OH275478   3.941   1.837  13.229  0.4898  0.1580 -0.5952
17996TIP3    H175479   3.858   1.805  13.263 -1.0085  0.6066 -3.5093
17996TIP3    H275480   4.002   1.765  13.244 -0.7367 -0.6996  0.4644
17997TIP3   OH275481   3.463   2.563   3.643 -0.1206 -0.5799  0.0074
17997TIP3    H175482   3.423   2.480   3.668 -0.8568  0.6121  3.4056
17997TIP3    H275483   3.555   2.543   3.629 -0.4196 -2.0757  0.0170
17998TIP3   OH275484   6.146   0.034  12.312 -0.2107  0.4430  0.1801
17998TIP3    H175485   6.176  -0.021  12.240  1.1720  1.5428 -0.1275
17998TIP3    H275486   6.072  -0.014  12.349 -1.0450 -0.1120 -2.0274
17999TIP3   OH275487   4.035   5.125   1.577  0.1388  0.1783 -0.6580
17999TIP3    H175488   4.056   5.151   1.487 -1.7948  0.9032 -0.9555
17999TIP3    H275489   3.990   5.201   1.614  0.3119 -0.3581  0.7109
18000TIP3   OH275490   1.387   5.857  11.266 -0.0108  0.0583 -0.2835
18000TIP3    H175491   1.394   5.773  11.312  0.7973 -0.1197 -0.7175
18000TIP3    H275492   1.340   5.837  11.186  1.2343 -0.2411 -0.9701
18001TIP3   OH275493   6.329   4.899  13.040  0.5819  0.2022 -0.1546
18001TIP3    H175494   6.314   4.990  13.015 -2.4051  0.2676  1.4529
18001TIP3    H275495   6.287   4.890  13.126  0.8126 -2.6996 -0.2382
18002TIP3   OH275496   1.983   2.662  14.182  0.0106  0.0145 -1.0517
18002TIP3    H175497   1.944   2.741  14.145 -0.8556 -0.6855 -1.6978
18002TIP3    H275498   2.033   2.623  14.110  1.6365  0.6918 -0.3419
18003TIP3   OH275499   1.304   6.848   3.982 -0.0227 -0.1491 -0.1186
18003TIP3    H175500   1.285   6.845   3.888  0.2582  1.7020 -0.2728
18003TIP3    H275501   1.296   6.940   4.005  1.3101 -0.3593  1.3811
18004TIP3   OH275502   5.773   3.260  16.280 -0.1640 -0.0545 -0.5502
18004TIP3    H175503   5.682   3.275  16.304  0.1931  0.9738  0.2651
18004TIP3    H275504   5.786   3.166  16.290 -1.5991 -0.4970 -2.4587
18005TIP3   OH275505   0.096   1.320   6.136 -0.0240  1.1724 -0.4223
18005TIP3    H175506   0.162   1.306   6.203 -0.9330  1.1242  0.4961
18005TIP3    H275507   0.050   1.399   6.164 -0.9831  0.6573 -0.5084
18006TIP3   OH275508   3.235   1.733  10.471  0.0745  0.2397  0.5063
18006TIP3    H175509   3.271   1.817  10.501 -0.0035  0.4114  0.1280
18006TIP3    H275510   3.259   1.671  10.539 -0.1444  0.6321  0.9489
18007TIP3   OH275511   2.535   1.278  15.555  0.1792 -0.0846 -0.6113
18007TIP3    H175512   2.532   1.336  15.631  0.3011  0.2061 -0.8249
18007TIP3    H275513   2.614   1.305  15.508 -1.0965  1.3371 -2.0781
18008TIP3   OH275514   2.536   5.266  15.280 -0.0246  0.2624 -0.0439
18008TIP3    H175515   2.557   5.174  15.291  0.6392  0.3454 -0.5116
18008TIP3    H275516   2.610   5.313  15.320  0.2958  0.5733 -0.9746
18009TIP3   OH275517   6.604   5.751   1.265 -0.3824 -0.7124  0.2640
18009TIP3    H175518   6.623   5.739   1.358  0.4778  1.7130  0.4583
18009TIP3    H275519   6.589   5.662   1.232 -0.3574 -1.6554  2.6179
18010TIP3   OH275520   2.458   3.939  15.409  0.3196 -0.3788 -0.2312
18010TIP3    H175521   2.378   3.983  15.381 -0.4047 -2.3355 -1.4643
18010TIP3    H275522   2.514   4.009  15.442 -1.3167  1.2290 -0.6996
18011TIP3   OH275523   4.095   3.704  13.209  0.1162 -0.0369  0.1350
18011TIP3    H175524   4.186   3.686  13.184 -0.4643 -0.1862 -2.0781
18011TIP3    H275525   4.067   3.773  13.149 -1.7337 -1.1990 -0.4251
18012TIP3   OH275526   6.665   2.200   4.736 -0.0617 -0.3366 -0.0295
18012TIP3    H175527   6.636   2.174   4.824 -0.0668  1.4232  0.5442
18012TIP3    H275528   6.586   2.197   4.683 -0.9349  2.1103  0.9574
18013TIP3   OH275529   1.637   3.674   4.628 -0.0009  0.1614  0.7094
18013TIP3    H175530   1.709   3.629   4.583 -1.1272 -1.4651  0.4422
18013TIP3    H275531   1.680   3.729   4.693  1.4841 -1.1008  0.8649
18014TIP3   OH275532   6.154   3.033  14.443  0.3974 -0.4350 -0.5152
18014TIP3    H175533   6.157   3.090  14.520 -2.4488 -0.2830 -0.3973
18014TIP3    H275534   6.147   2.945  14.479  1.3816 -0.5753 -0.6520
18015TIP3   OH275535   3.600   4.150  14.820 -0.0608 -0.0728 -0.2947
18015TIP3    H175536   3.532   4.111  14.765  0.1960 -2.3645  0.8842
18015TIP3    H275537   3.682   4.128  14.776  0.0587 -0.5188  0.1286
18016TIP3   OH275538   2.312   2.108  11.280 -0.3394  0.5054  0.4995
18016TIP3    H175539   2.359   2.097  11.198  0.6226 -0.6056  1.1612
18016TIP3    H275540   2.241   2.169  11.260  0.1600  0.6174 -1.0224
18017TIP3   OH275541   6.830   0.148   1.863 -0.3026  0.2507  0.0088
18017TIP3    H175542   6.874   0.232   1.872  0.1236  0.1185 -0.7053
18017TIP3    H275543   6.808   0.121   1.952 -0.6382  1.2147  0.2245
18018TIP3   OH275544   4.242   6.431   4.264  0.1672  0.7616 -0.0077
18018TIP3    H175545   4.192   6.349   4.256 -0.2775  0.8193  1.7545
18018TIP3    H275546   4.187   6.497   4.221 -0.3260  0.4572  0.1478
18019TIP3   OH275547   6.537   4.575  11.168 -0.3274  0.7801  0.1712
18019TIP3    H175548   6.558   4.489  11.134 -0.1624  1.4571 -1.5121
18019TIP3    H275549   6.578   4.577  11.255  1.7168  0.0033 -0.7153
18020TIP3   OH275550   6.315   5.147   4.128 -0.1074 -0.2943 -0.1235
18020TIP3    H175551   6.234   5.175   4.171 -0.6950 -2.2892  0.1600
18020TIP3    H275552   6.377   5.135   4.200  0.0647  0.0002 -0.2200
18021TIP3   OH275553   6.155   1.278   2.277 -0.1772 -0.8602  0.3269
18021TIP3    H175554   6.200   1.341   2.333 -2.4900  1.5027 -0.2721
18021TIP3    H275555   6.099   1.228   2.336  0.4238 -1.2295  0.5923
18022TIP3   OH275556   1.401   4.356   3.892  0.1717 -0.3955  0.2638
18022TIP3    H175557   1.487   4.396   3.906 -0.3258  1.2915 -1.2428
18022TIP3    H275558   1.403   4.326   3.801  0.9036 -4.9900  1.5026
18023TIP3   OH275559   4.012   3.034   5.862  0.4620  0.0364  0.0839
18023TIP3    H175560   4.018   2.977   5.938 -1.4829 -2.0639 -1.2108
18023TIP3    H275561   4.093   3.085   5.863  1.1995 -1.0534  2.6178
18024TIP3   OH275562   0.664   6.118  13.076 -0.3017  0.8676 -0.1441
18024TIP3    H175563   0.698   6.124  13.165 -0.6555  1.3521 -0.0389
18024TIP3    H275564   0.712   6.184  13.026  1.3922 -0.7877 -0.8196
18025TIP3   OH275565   6.784   2.158  13.211  0.2846 -0.1752 -0.0336
18025TIP3    H175566   6.748   2.244  13.187 -1.3558 -0.3964  1.4219
18025TIP3    H275567   6.792   2.111  13.128 -0.5239  0.7548 -0.6664
18026TIP3   OH275568   2.578   6.304   2.004  0.2527  0.4896 -0.0077
18026TIP3    H175569   2.625   6.221   2.015 -1.9303 -0.9307 -0.7778
18026TIP3    H275570   2.543   6.323   2.091  0.2935  0.3324  0.0431
18027TIP3   OH275571   1.308   1.448   0.071  0.8857 -0.0885 -0.1180
18027TIP3    H175572   1.379   1.481   0.017  0.7823  1.7228  0.7817
18027TIP3    H275573   1.287   1.520   0.130 -2.4387 -0.1010 -1.0689
18028TIP3   OH275574   0.138   5.548  16.667  0.3412 -0.0066  0.0802
18028TIP3    H175575   0.089   5.471  16.696  1.6460 -0.1255  2.1947
18028TIP3    H275576   0.073   5.619  16.668 -0.3459 -0.6198  0.4221
18029TIP3   OH275577   3.985   0.561   4.419 -0.1723  0.7528  0.9096
18029TIP3    H175578   4.002   0.569   4.513  1.4114  0.9196  0.6360
18029TIP3    H275579   4.060   0.603   4.377  0.7697 -1.9985 -0.4618
18030TIP3   OH275580   5.107   1.523  13.450  0.3434  0.2173 -0.8004
18030TIP3    H175581   5.136   1.576  13.376 -1.9491 -0.0326 -1.9628
18030TIP3    H275582   5.155   1.441  13.441  3.0952  1.5507  0.3874
18031TIP3   OH275583   5.848   3.627  11.143  0.2149  0.4492 -0.4694
18031TIP3    H175584   5.851   3.659  11.233  0.2810  1.2436 -0.7456
18031TIP3    H275585   5.919   3.673  11.099 -0.3416  0.6937 -1.1232
18032TIP3   OH275586   3.764   5.283  17.093  0.2300  0.2663  0.8338
18032TIP3    H175587   3.802   5.356  17.140 -1.2559  0.9855  0.9722
18032TIP3    H275588   3.806   5.205  17.130  1.4372  0.9973  1.0472
18033TIP3   OH275589   0.170   3.282   6.109  0.0669  0.1314  0.0868
18033TIP3    H175590   0.142   3.324   6.190 -1.4763 -1.2856  0.3313
18033TIP3    H275591   0.144   3.191   6.119 -0.7644  0.0491 -2.2852
18034TIP3   OH275592   4.468   2.442  14.983 -0.1706 -0.3674  0.2754
18034TIP3    H175593   4.402   2.486  15.037 -0.2513 -1.3221  0.9968
18034TIP3    H275594   4.427   2.359  14.959  0.3510 -0.4898 -0.2087
18035TIP3   OH275595   3.339   3.213  16.411  0.6109 -0.1409  0.2330
18035TIP3    H175596   3.334   3.279  16.480  0.1776  1.2325 -1.0719
18035TIP3    H275597   3.290   3.139  16.445 -1.3177  1.2532  0.6338
18036TIP3   OH275598   0.674   1.346  16.170  0.1918 -0.0394  0.3109
18036TIP3    H175599   0.650   1.322  16.080  0.1170  0.8523  0.0752
18036TIP3    H275600   0.764   1.314  16.180  0.7589  1.1592 -0.6233
18037TIP3   OH275601   4.022   6.754   2.796  1.1951 -0.2123 -0.6627
18037TIP3    H175602   4.105   6.797   2.819  1.6485 -1.4596  0.1758
18037TIP3    H275603   3.955   6.810   2.835  1.6522  0.6366 -1.0547
18038TIP3   OH275604   0.262   4.024  13.328 -0.3045 -0.3068 -0.6554
18038TIP3    H175605   0.208   4.087  13.281 -3.5307 -2.5663 -0.3728
18038TIP3    H275606   0.334   4.004  13.269 -0.7687  1.5257 -1.9009
18039TIP3   OH275607   5.623   0.538   2.621  0.3889 -0.6921  0.3472
18039TIP3    H175608   5.712   0.507   2.638  0.2310 -0.8644  0.8660
18039TIP3    H275609   5.635   0.615   2.565  0.7831 -1.6771 -0.9728
18040TIP3   OH275610   1.068   4.902   0.385 -0.0326  0.2082 -0.2009
18040TIP3    H175611   1.043   4.985   0.426  1.1876  0.9629 -0.8974
18040TIP3    H275612   1.019   4.901   0.303 -2.2781 -1.1807  1.0625
18041TIP3   OH275613   4.854   1.020   0.166 -0.2221 -0.0433  0.4504
18041TIP3    H175614   4.769   1.056   0.140  0.4822  1.0575 -0.4218
18041TIP3    H275615   4.875   1.067   0.247  1.2466  2.5710 -1.3035
18042TIP3   OH275616   1.194   1.043   0.982  0.5488 -0.2632  0.2481
18042TIP3    H175617   1.100   1.027   0.978  0.6726 -0.8024 -1.6702
18042TIP3    H275618   1.221   1.012   1.068 -0.9988 -0.2524  0.7599
18043TIP3   OH275619   2.166   2.150  15.701 -0.4811  0.3664 -0.3316
18043TIP3    H175620   2.158   2.236  15.658 -0.0672 -0.2248 -1.6422
18043TIP3    H275621   2.258   2.128  15.692 -0.7919 -0.7102 -1.0101
18044TIP3   OH275622   3.280   1.160  16.256  0.8252 -0.0055 -0.4127
18044TIP3    H175623   3.340   1.126  16.190  1.3507  0.0197  0.0490
18044TIP3    H275624   3.334   1.174  16.333  0.2225 -0.0074  0.0173
18045TIP3   OH275625   0.045   3.611  16.411 -0.0126  0.1891 -0.1789
18045TIP3    H175626  -0.043   3.648  16.414  0.0819  0.4482 -0.4641
18045TIP3    H275627   0.081   3.643  16.328  0.1285 -0.4186 -0.3535
18046TIP3   OH275628   6.022   2.995   0.252 -0.0957 -0.4702 -0.0438
18046TIP3    H175629   6.080   2.935   0.300  1.0125 -1.1663 -2.1310
18046TIP3    H275630   6.076   3.073   0.237 -0.2470 -0.4699 -0.6007
18047TIP3   OH275631   0.178   6.282  14.133  0.0173 -0.0177  0.0610
18047TIP3    H175632   0.193   6.255  14.224 -0.1970  1.3973  0.5407
18047TIP3    H275633   0.083   6.289  14.126  0.0615  0.3910 -0.1158
18048TIP3   OH275634   0.221   1.017  13.617 -0.5185  0.0489 -0.1620
18048TIP3    H175635   0.150   1.009  13.553  0.1736 -2.1177 -0.7384
18048TIP3    H275636   0.189   1.082  13.680 -2.1460  0.6073 -1.4827
18049TIP3   OH275637   5.564   2.844  12.974  0.5742  0.1180 -0.0877
18049TIP3    H175638   5.532   2.838  12.884 -0.8423 -0.6780  0.4435
18049TIP3    H275639   5.580   2.754  13.001 -0.7901  0.1686  1.0446
18050TIP3   OH275640   3.851   6.721   2.381  0.5294  0.0465  0.7165
18050TIP3    H175641   3.778   6.758   2.332  2.3596  0.1757 -2.1126
18050TIP3    H275642   3.882   6.794   2.436 -0.1007  0.6421  0.3012
18051TIP3   OH275643   0.896   4.491  15.732 -0.5476  0.3816 -0.5090
18051TIP3    H175644   0.869   4.426  15.797  2.6906 -0.4761  0.2047
18051TIP3    H275645   0.870   4.575  15.770  0.8068 -0.1299  1.7743
18052TIP3   OH275646   0.460   4.041  13.152  0.2330  0.4819  0.1362
18052TIP3    H175647   0.450   4.005  13.064 -2.6112  1.6049 -0.0781
18052TIP3    H275648   0.465   4.135  13.139 -2.7818  0.8788  1.2330
18053TIP3   OH275649   0.064   0.585   2.913  0.2525 -0.4712 -0.9567
18053TIP3    H175650   0.137   0.554   2.860  0.1051 -0.0398 -1.4167
18053TIP3    H275651   0.045   0.512   2.972 -1.7016 -2.3110 -3.6254
18054TIP3   OH275652   5.356   2.892   6.087  0.4526 -0.7019 -0.0130
18054TIP3    H175653   5.281   2.932   6.130 -0.1274 -0.5085 -1.1527
18054TIP3    H275654   5.371   2.811   6.135  1.5317  0.7323  2.2023
18055TIP3   OH275655   1.138   5.849  13.836 -0.3352 -0.1771 -0.0767
18055TIP3    H175656   1.153   5.785  13.765 -0.6181 -0.9974  0.5914
18055TIP3    H275657   1.223   5.893  13.846 -0.5604  0.6668 -1.6037
18056TIP3   OH275658   2.976   5.984  14.301 -0.1030 -0.4365 -0.3420
18056TIP3    H175659   3.018   6.065  14.273  0.9895 -0.3928  1.2584
18056TIP3    H275660   3.017   5.916  14.246  1.6713 -0.3070  0.7252
18057TIP3   OH275661   0.050   5.602   2.474  0.3449 -0.1741 -0.7124
18057TIP3    H175662   0.103   5.678   2.448  1.7456 -1.3409 -1.4043
18057TIP3    H275663   0.114   5.534   2.496 -0.7716 -0.1225  3.4480
18058TIP3   OH275664   3.852   5.985  16.313 -0.1725 -0.3689 -0.2398
18058TIP3    H175665   3.811   5.969  16.397  1.0546 -0.7731  0.3011
18058TIP3    H275666   3.810   5.922  16.253  0.5513 -1.6778  0.5868
18059TIP3   OH275667   0.804   1.609  14.753  0.1290 -0.3853  0.1884
18059TIP3    H175668   0.885   1.564  14.729  1.2119  0.7979  1.4741
18059TIP3    H275669   0.780   1.573  14.838  0.7982  1.0976  1.0550
18060TIP3   OH275670   3.742   2.518   1.236  0.2726 -0.5220 -0.2924
18060TIP3    H175671   3.830   2.539   1.207  1.1709 -2.0203  1.1340
18060TIP3    H275672   3.738   2.552   1.326 -0.8045  0.0110 -0.5281
18061TIP3   OH275673   1.829   1.301   5.324  0.1069  0.1460 -0.3273
18061TIP3    H175674   1.909   1.317   5.374  0.1692 -0.2190 -0.3037
18061TIP3    H275675   1.799   1.216   5.356 -0.2889  0.2818 -0.3374
18062TIP3   OH275676   0.617   2.377  11.770  0.3597 -0.4870 -0.1770
18062TIP3    H175677   0.578   2.311  11.827  0.4551 -1.4291 -1.1622
18062TIP3    H275678   0.543   2.415  11.723  0.2501  0.4902  0.7469
18063TIP3   OH275679   2.098   6.526   4.130 -0.4245  0.8433  0.0499
18063TIP3    H175680   2.100   6.432   4.112 -0.7968  0.3659  2.2221
18063TIP3    H275681   2.090   6.567   4.044 -1.8996 -1.1627 -0.8364
18064TIP3   OH275682   2.918   5.912   4.398 -0.2125 -0.2216  0.1313
18064TIP3    H175683   2.966   5.869   4.326 -0.0715 -0.2267  0.2291
18064TIP3    H275684   2.944   5.863   4.476 -0.5534 -0.3705  0.1529
18065TIP3   OH275685   4.236   0.944  16.043 -1.1855  0.3801  0.0773
18065TIP3    H175686   4.330   0.942  16.061 -0.9787 -0.2729 -1.0179
18065TIP3    H275687   4.216   0.858  16.005 -1.4927  1.7156 -3.0981
18066TIP3   OH275688   5.585   4.244   5.747  0.0367  0.1205  0.4534
18066TIP3    H175689   5.520   4.271   5.812 -1.0180  1.4180 -1.0563
18066TIP3    H275690   5.617   4.159   5.779  0.1269  1.0351  3.0264
18067TIP3   OH275691   5.299   6.066   4.399 -0.2505  0.3170  0.6740
18067TIP3    H175692   5.375   6.103   4.443  1.0719 -1.6631  0.2226
18067TIP3    H275693   5.245   6.030   4.470  0.9889 -1.2913  0.8553
18068TIP3   OH275694   3.669   1.138   3.157 -0.3414  0.1976  0.6658
18068TIP3    H175695   3.584   1.158   3.117 -1.0872  0.3657  2.2664
18068TIP3    H275696   3.667   1.180   3.243  1.4430  0.3449  0.6798
18069TIP3   OH275697   6.567   6.493  11.430  0.1497  0.5385  0.2949
18069TIP3    H175698   6.518   6.413  11.411  0.7561  0.2721 -0.1859
18069TIP3    H275699   6.595   6.525  11.344  0.5090  0.8843  0.5352
18070TIP3   OH275700   5.641   3.390   5.613  0.4205  0.0863 -0.1589
18070TIP3    H175701   5.730   3.422   5.594  0.3463 -0.4969 -1.6339
18070TIP3    H275702   5.640   3.301   5.576 -0.0702 -0.8038  1.8847
18071TIP3   OH275703   5.913   3.037   3.991 -0.2505  0.1541  0.7802
18071TIP3    H175704   5.891   3.002   4.078 -0.1046 -1.2409  0.2858
18071TIP3    H275705   5.958   2.965   3.947 -0.5649  0.7355 -0.5530
18072TIP3   OH275706   6.818   2.847   2.758 -1.1737  0.0009  0.2014
18072TIP3    H175707   6.795   2.792   2.832  0.3801 -0.7912  0.1339
18072TIP3    H275708   6.835   2.786   2.687  4.4797  0.0009  1.1063
18073TIP3   OH275709   4.270   3.385  13.804 -0.1233  0.0166  0.2630
18073TIP3    H175710   4.342   3.385  13.741  0.9400  3.0092  1.2694
18073TIP3    H275711   4.306   3.345  13.882  0.7190  1.8963  0.9080
18074TIP3   OH275712   6.675   4.334   3.137  0.1683 -0.5404  0.0419
18074TIP3    H175713   6.770   4.320   3.138  0.1228 -0.9531 -0.8739
18074TIP3    H275714   6.660   4.388   3.060 -0.5181 -1.8125 -0.7428
18075TIP3   OH275715   5.737   6.774   6.192 -0.4204  0.0279 -0.1757
18075TIP3    H175716   5.736   6.870   6.192  2.8316  0.1990 -1.1180
18075TIP3    H275717   5.758   6.751   6.101 -1.9879 -1.6685 -0.1633
18076TIP3   OH275718   2.575   4.159  13.189 -0.6705  0.0714 -0.9486
18076TIP3    H175719   2.508   4.155  13.121  0.4241 -0.2679 -2.0358
18076TIP3    H275720   2.532   4.123  13.267 -2.0220  0.7066 -1.3622
18077TIP3   OH275721   3.909   2.809   1.122  0.3842 -0.1547  0.0612
18077TIP3    H175722   3.965   2.883   1.100  0.7569 -0.5074 -0.1975
18077TIP3    H275723   3.909   2.807   1.218 -2.1129  2.0444  0.2266
18078TIP3   OH275724   2.755   6.167  11.474  0.1192  0.1307 -0.2784
18078TIP3    H175725   2.692   6.105  11.436  0.0655  0.1481 -0.2174
18078TIP3    H275726   2.769   6.232  11.405 -1.2897  1.1336  0.3332
18079TIP3   OH275727   3.901   4.305   1.945  0.4382  0.6508  0.1933
18079TIP3    H175728   3.865   4.385   1.983 -2.0082  2.6816 -5.3453
18079TIP3    H275729   3.985   4.331   1.909  0.1799  0.4166 -0.5943
18080TIP3   OH275730   5.747   1.464   2.676 -0.1698  0.0003  0.4020
18080TIP3    H175731   5.831   1.471   2.631 -0.5496  1.2385 -0.1489
18080TIP3    H275732   5.726   1.371   2.673  1.7382 -0.5215  1.6179
18081TIP3   OH275733   2.201   4.288  16.367 -0.4795  0.2765  0.0096
18081TIP3    H175734   2.277   4.333  16.332 -1.1027  1.9302  0.7147
18081TIP3    H275735   2.233   4.241  16.444  0.4566 -1.6863 -1.4850
18082TIP3   OH275736   3.991   5.654  14.632 -0.0982 -0.3242  0.1009
18082TIP3    H175737   3.984   5.558  14.634  0.7108 -0.4512 -1.8152
18082TIP3    H275738   3.969   5.678  14.542  0.4842  1.2382  0.3518
18083TIP3   OH275739   5.877   5.795   2.293 -0.5598 -0.0761 -0.0844
18083TIP3    H175740   5.953   5.812   2.236 -1.2799 -1.6369 -1.5937
18083TIP3    H275741   5.833   5.720   2.253 -2.2195  0.0004  1.4688
18084TIP3   OH275742   1.302   6.797  13.167  0.0046  0.3985  0.9158
18084TIP3    H175743   1.313   6.705  13.145 -1.8100  0.1347  0.9119
18084TIP3    H275744   1.265   6.836  13.087 -1.1153  0.6699  1.5412
18085TIP3   OH275745   3.630   2.032  13.801  0.4154 -0.4741 -0.1403
18085TIP3    H175746   3.553   2.017  13.855  1.4092 -0.1436  1.4315
18085TIP3    H275747   3.627   1.962  13.735 -0.6902 -1.0524  0.4966
18086TIP3   OH275748   0.973   4.064   0.058 -0.1674 -0.5785 -0.2773
18086TIP3    H175749   0.978   4.100  -0.030  0.2481 -2.9840 -1.3272
18086TIP3    H275750   0.880   4.065   0.080 -0.3083 -0.2805 -0.8887
18087TIP3   OH275751   0.230   1.960  13.956  0.0607 -0.4493 -0.1307
18087TIP3    H175752   0.137   1.943  13.944 -0.4634  1.4369  0.7090
18087TIP3    H275753   0.253   1.913  14.036 -0.5141  0.0892  0.3638
18088TIP3   OH275754   4.467   5.136   5.795  0.0114  0.2292 -0.0531
18088TIP3    H175755   4.372   5.124   5.791 -0.0716  0.6264  0.5733
18088TIP3    H275756   4.478   5.225   5.827  0.5909 -0.0087  0.4302
18089TIP3   OH275757   0.312   4.997   6.034  0.1230  0.4026 -0.2574
18089TIP3    H175758   0.385   4.978   6.094 -0.9326 -1.5720  0.5212
18089TIP3    H275759   0.254   5.054   6.085  0.3135  0.5932 -0.2513
18090TIP3   OH275760   5.221   6.121   1.627 -0.1198  0.0364 -0.1380
18090TIP3    H175761   5.252   6.197   1.577  0.0491  0.0188 -0.0615
18090TIP3    H275762   5.238   6.046   1.570  0.7989 -0.0726  0.2454
18091TIP3   OH275763   6.675   1.032  14.505 -0.3868 -0.2161  0.1551
18091TIP3    H175764   6.695   1.121  14.533  1.1724 -0.2644 -0.6698
18091TIP3    H275765   6.698   0.978  14.580  0.5112 -0.0602  0.0098
18092TIP3   OH275766   0.951   2.026   5.014 -0.2067  0.3158  0.6779
18092TIP3    H175767   0.999   2.099   5.051  1.7566 -0.0124 -1.0485
18092TIP3    H275768   1.017   1.958   4.999 -1.7336 -1.3138  0.9514
18093TIP3   OH275769   3.727   1.375   3.315  0.0222  0.2620 -0.1150
18093TIP3    H175770   3.714   1.452   3.369  1.3712 -0.5408  1.4290
18093TIP3    H275771   3.819   1.353   3.325 -0.1779 -1.1580 -1.0624
18094TIP3   OH275772   3.166   1.477  14.430  0.7763 -0.5373 -0.0628
18094TIP3    H175773   3.243   1.534  14.438  0.0580  0.5319 -0.6193
18094TIP3    H275774   3.109   1.522  14.368 -0.2473 -1.3808  0.2461
18095TIP3   OH275775   1.841   6.729  15.968  0.5698  0.1682  0.2038
18095TIP3    H175776   1.779   6.729  16.041 -0.0684  1.1446 -0.3048
18095TIP3    H275777   1.787   6.754  15.892  1.4371  0.2627 -0.3911
18096TIP3   OH275778   3.368   2.971  15.066  0.3420 -0.4564 -0.1015
18096TIP3    H175779   3.441   2.910  15.068  0.6498 -0.0759  0.6173
18096TIP3    H275780   3.393   3.041  15.127 -0.4775 -0.1657 -0.0829
18097TIP3   OH275781   1.872   2.992  12.517 -0.0602  0.5570  0.2084
18097TIP3    H175782   1.921   2.910  12.514  0.7336  1.0426 -1.2077
18097TIP3    H275783   1.903   3.041  12.441 -1.0137  1.8923  0.6411
18098TIP3   OH275784   2.474   0.980   4.730 -0.5184 -0.2335  0.2278
18098TIP3    H175785   2.556   0.967   4.682 -1.3662 -2.5801 -0.7116
18098TIP3    H275786   2.440   1.063   4.696  0.9322  0.2393 -0.1534
18099TIP3   OH275787   4.770   4.705   6.010 -0.1807 -0.4166 -0.4480
18099TIP3    H175788   4.701   4.769   6.028 -1.0651 -1.3200 -0.4974
18099TIP3    H275789   4.737   4.624   6.049  2.4777 -0.1356  2.8282
18100TIP3   OH275790   6.685   4.298  13.058  0.0608 -0.6874 -0.6738
18100TIP3    H175791   6.720   4.371  13.008 -1.4407  0.0100 -0.7690
18100TIP3    H275792   6.598   4.282  13.019  0.0155 -1.9719 -0.1049
18101TIP3   OH275793   1.902   4.018   0.463 -0.4969  0.2187 -0.1033
18101TIP3    H175794   1.916   4.112   0.449 -0.1408  0.1275 -0.3878
18101TIP3    H275795   1.852   3.991   0.386  1.7186 -0.3435 -1.4140
18102TIP3   OH275796   6.584   1.549  15.616 -0.0423  0.1595 -0.1285
18102TIP3    H175797   6.641   1.474  15.634  0.3857  0.3800 -0.5501
18102TIP3    H275798   6.502   1.510  15.587 -0.0224 -0.1556  0.2233
18103TIP3   OH275799   1.722   3.493   0.135 -0.2563  0.3843 -0.7235
18103TIP3    H175800   1.797   3.545   0.107  1.4350 -1.0610  0.8605
18103TIP3    H275801   1.666   3.488   0.057  1.1456  1.7128 -1.8874
18104TIP3   OH275802   4.906   4.272   4.275 -0.2874 -0.9193  0.3937
18104TIP3    H175803   4.855   4.257   4.355 -0.4867 -0.2925  0.3884
18104TIP3    H275804   4.996   4.251   4.300 -0.3256 -0.5781  0.8242
18105TIP3   OH275805   5.346   1.864   1.603  0.3116 -0.0618  0.2346
18105TIP3    H175806   5.427   1.813   1.598 -0.5100 -1.5593  1.6097
18105TIP3    H275807   5.304   1.852   1.518  0.0031 -1.9544  0.6207
18106TIP3   OH275808   0.387   4.866   5.358 -0.1964  0.1185  0.3395
18106TIP3    H175809   0.397   4.775   5.384  0.3486  0.2518  0.5943
18106TIP3    H275810   0.342   4.908   5.432 -0.4443  0.0644  0.2234
18107TIP3   OH275811   5.525   6.518   1.317  0.2347  0.1739  0.1904
18107TIP3    H175812   5.597   6.530   1.379  0.3874 -0.1486  0.0754
18107TIP3    H275813   5.546   6.437   1.271 -0.0197  0.2678 -0.0926
18108TIP3   OH275814   5.391   4.430   3.766  0.6291  0.4246  0.1940
18108TIP3    H175815   5.362   4.519   3.785  1.7375  0.9929 -0.6564
18108TIP3    H275816   5.477   4.441   3.725  1.0640 -1.0772  0.6520
18109TIP3   OH275817   5.360   6.047   4.671 -0.2905  0.1526 -0.4050
18109TIP3    H175818   5.370   6.130   4.717 -0.4174 -0.8396  1.4844
18109TIP3    H275819   5.330   5.985   4.737 -1.0124 -1.2308 -1.9418
18110TIP3   OH275820   0.558   0.496   0.271 -0.0475  0.0115  1.0830
18110TIP3    H175821   0.481   0.467   0.222  1.2002  0.4282 -1.2844
18110TIP3    H275822   0.522   0.537   0.350 -2.3453  1.1645 -0.4376
18111TIP3   OH275823   3.352   1.448   3.707  0.2283 -0.2152 -0.5760
18111TIP3    H175824   3.441   1.415   3.696  0.2348 -0.4593  0.1289
18111TIP3    H275825   3.342   1.515   3.639  0.4284 -1.2337 -1.6256
18112TIP3   OH275826   3.294   6.247  10.502  0.2553 -0.0305 -0.1733
18112TIP3    H175827   3.336   6.249  10.588 -0.2532 -0.5955  0.0951
18112TIP3    H275828   3.329   6.323  10.457 -0.4586  1.0580  1.0197
18113TIP3   OH275829   3.992   1.925  16.828  0.2345 -0.1539 -0.8044
18113TIP3    H175830   3.904   1.938  16.861  1.2402 -1.5987  2.9501
18113TIP3    H275831   4.045   1.993  16.870  1.2693 -0.5884 -1.3444
18114TIP3   OH275832   4.650   2.588   4.418  0.2486 -0.0701 -0.0181
18114TIP3    H175833   4.595   2.665   4.404  1.6079  1.1650  1.1580
18114TIP3    H275834   4.594   2.527   4.466 -0.7217  0.3287 -0.6100
18115TIP3   OH275835   3.660   1.341   4.133  0.1554 -0.3698  0.0900
18115TIP3    H175836   3.609   1.378   4.205  1.0739  1.5545 -0.1748
18115TIP3    H275837   3.728   1.290   4.176  0.2108  0.1013  0.5712
18116TIP3   OH275838   5.605   3.483   4.146  0.1320 -0.1680 -0.4662
18116TIP3    H175839   5.592   3.468   4.053 -0.4697 -0.5105 -0.3316
18116TIP3    H275840   5.556   3.563   4.165 -0.4743 -0.5803 -0.2737
18117TIP3   OH275841   0.030   4.239   5.601  0.2906  0.0270  0.2864
18117TIP3    H175842  -0.000   4.151   5.578 -0.7861  0.2378  0.8226
18117TIP3    H275843  -0.015   4.296   5.538  0.1431  0.2776  0.6161
18118TIP3   OH275844   0.921   6.574   2.102  0.1951 -0.4548  0.1012
18118TIP3    H175845   0.835   6.593   2.139 -0.3262 -1.2083 -0.6828
18118TIP3    H275846   0.908   6.494   2.051  1.4046 -0.6863  0.1193
18119TIP3   OH275847   1.840   3.002   4.288 -0.0638 -0.2619  0.4593
18119TIP3    H175848   1.767   3.008   4.226  1.0011 -0.9933 -0.9261
18119TIP3    H275849   1.857   2.908   4.297  1.6665 -0.1015 -0.4928
18120TIP3   OH275850   3.085   3.858   0.560  0.7406  0.3357  0.2694
18120TIP3    H175851   3.004   3.908   0.548  0.5029 -0.0063  0.4445
18120TIP3    H275852   3.124   3.896   0.639  0.1287 -0.3137  0.9053
18121TIP3   OH275853   5.675   6.014  16.134  0.6911  0.5519  0.1244
18121TIP3    H175854   5.647   5.979  16.049 -1.1790  2.0986  0.0394
18121TIP3    H275855   5.597   6.054  16.170  1.5771  0.3964  2.3867
18122TIP3   OH275856   1.923   4.644   5.540  0.3528 -0.3595 -0.5812
18122TIP3    H175857   1.842   4.654   5.590  0.0628  0.4181 -1.1975
18122TIP3    H275858   1.936   4.549   5.534 -0.6274 -0.4918 -0.6673
18123TIP3   OH275859   5.705   5.737   0.518 -0.7211  0.1260 -0.0780
18123TIP3    H175860   5.698   5.661   0.460  2.0669 -0.2325 -0.1013
18123TIP3    H275861   5.651   5.716   0.594  0.1626 -2.0111  0.0065
18124TIP3   OH275862   0.002   1.772  12.728  0.2969  0.2221  0.7910
18124TIP3    H175863   0.007   1.780  12.823 -1.4559  0.2377  0.9276
18124TIP3    H275864  -0.029   1.683  12.713  0.9650  0.0816  0.2024
18125TIP3   OH275865   5.038   3.846   4.040  0.1809  0.3947  0.4629
18125TIP3    H175866   5.038   3.811   3.951  0.8324 -0.6119  0.8347
18125TIP3    H275867   5.102   3.792   4.087 -1.8064 -0.6668  2.1340
18126TIP3   OH275868   4.082   5.976  14.635  0.2326 -0.3000 -0.2021
18126TIP3    H175869   4.078   5.920  14.557  0.4176 -0.3600 -0.1682
18126TIP3    H275870   4.101   5.915  14.707 -0.3795 -0.3114 -0.0435
18127TIP3   OH275871   3.587   0.963  10.738  0.1516  0.8664 -0.1286
18127TIP3    H175872   3.636   1.020  10.797  0.6856 -1.7748  2.1736
18127TIP3    H275873   3.535   0.907  10.795 -0.8502 -0.5280 -2.2633
18128TIP3   OH275874   5.026   3.174   0.630  0.0128 -0.2021  0.1491
18128TIP3    H175875   4.991   3.112   0.694 -1.0928  1.6158  1.3939
18128TIP3    H275876   5.117   3.187   0.657  0.6112 -2.0601 -0.8044
18129TIP3   OH275877   1.649   4.856  12.047  0.3188 -0.3742  0.5721
18129TIP3    H175878   1.671   4.868  12.140 -1.5793 -1.7069  1.2738
18129TIP3    H275879   1.723   4.808  12.011  0.9058 -0.2112  1.5118
18130TIP3   OH275880   4.680   1.888   0.383  0.7352  0.2117  0.1826
18130TIP3    H175881   4.618   1.815   0.393  0.1485  0.4569 -1.4271
18130TIP3    H275882   4.750   1.867   0.445 -0.6470 -0.3767  1.6321
18131TIP3   OH275883   4.450   3.393   5.422  0.1236  0.6742  0.4068
18131TIP3    H175884   4.534   3.432   5.398  0.5308  0.1669  0.9871
18131TIP3    H275885   4.471   3.332   5.493 -0.9169  1.6095  1.5818
18132TIP3   OH275886   2.320   0.393  14.334 -0.4996 -0.2942 -0.3891
18132TIP3    H175887   2.364   0.319  14.376  0.1237 -0.7700 -1.7970
18132TIP3    H275888   2.289   0.448  14.406  2.4902  0.1298  0.7025
18133TIP3   OH275889   3.478   6.078  15.302  0.2811 -0.4894 -0.6770
18133TIP3    H175890   3.392   6.059  15.263  0.7160  0.1781 -2.0498
18133TIP3    H275891   3.465   6.161  15.349  0.2728 -0.1192 -1.3126
18134TIP3   OH275892   0.828   1.347   1.760  0.5421 -0.3698 -0.4149
18134TIP3    H175893   0.832   1.353   1.665  0.3419 -1.1029 -0.4776
18134TIP3    H275894   0.851   1.256   1.779 -1.0896 -0.6991  0.1248
18135TIP3   OH275895   5.799   2.997  16.697  0.3583 -0.1106 -0.1947
18135TIP3    H175896   5.778   3.090  16.693 -1.4792 -0.5309 -2.3846
18135TIP3    H275897   5.750   2.964  16.772 -0.4430  0.3974 -0.4831
18136TIP3   OH275898   6.462   0.238  14.079 -0.5749  0.1167 -0.1047
18136TIP3    H175899   6.467   0.177  14.152 -1.7099  0.5290  0.3395
18136TIP3    H275900   6.376   0.224  14.041 -0.7977  1.3222 -0.0873
18137TIP3   OH275901   6.374   1.104  13.645 -0.8358 -0.3010 -0.5678
18137TIP3    H175902   6.390   1.014  13.675 -0.8810 -0.1679 -0.1409
18137TIP3    H275903   6.378   1.098  13.549 -1.1061 -0.8068 -0.5522
18138TIP3   OH275904   6.732   5.085  12.360 -0.5502 -0.2003 -0.6854
18138TIP3    H175905   6.800   5.148  12.336 -1.4072  0.8111 -0.5744
18138TIP3    H275906   6.741   5.076  12.455 -0.6646  0.0512 -0.6501
18139TIP3   OH275907   4.643   3.874  14.092  0.0604  0.0420  0.1674
18139TIP3    H175908   4.580   3.932  14.049  0.7434  1.8571  1.4612
18139TIP3    H275909   4.694   3.836  14.020 -0.9007  0.4834 -0.7663
18140TIP3   OH275910   0.789   5.987  16.872  0.3647 -0.3493  0.3760
18140TIP3    H175911   0.850   6.060  16.866  1.6445 -1.0436  3.2595
18140TIP3    H275912   0.819   5.937  16.948 -1.1310 -3.2703 -0.8159
18141TIP3   OH275913   6.365   4.751   1.588 -0.0974  0.1396  0.2262
18141TIP3    H175914   6.330   4.799   1.513  0.9365  2.0375  0.8696
18141TIP3    H275915   6.458   4.739   1.567  0.6335  2.2550  1.8532
18142TIP3   OH275916   0.655   6.389  16.850 -0.3673  0.1641 -0.4981
18142TIP3    H175917   0.703   6.463  16.887 -0.0052 -0.7678  0.9934
18142TIP3    H275918   0.594   6.363  16.919 -2.1780  0.5365 -1.8960
18143TIP3   OH275919   6.846   4.620   3.077 -0.2426  0.1772 -0.1553
18143TIP3    H175920   6.940   4.603   3.080 -0.0995  0.6608 -1.2064
18143TIP3    H275921   6.817   4.577   2.997 -0.9211  0.0431  0.1561
18144TIP3   OH275922   0.865   1.054   4.901  0.4111 -1.1003  0.2441
18144TIP3    H175923   0.908   0.976   4.867 -0.9753 -2.9927  2.5252
18144TIP3    H275924   0.892   1.058   4.993 -2.1007 -0.8641  1.0472
18145TIP3   OH275925   0.252   1.232  16.516 -0.3531 -0.0383 -0.5632
18145TIP3    H175926   0.252   1.140  16.489 -0.0961 -0.3692  0.5065
18145TIP3    H275927   0.344   1.255  16.522 -0.4142  0.2033 -0.5602
18146TIP3   OH275928   5.562   3.813  11.882  0.4978 -0.1271  0.4047
18146TIP3    H175929   5.550   3.740  11.943 -2.4024  1.0809  1.4554
18146TIP3    H275930   5.483   3.813  11.828  1.3404  1.0901 -0.9186
18147TIP3   OH275931   0.398   6.255  15.372  0.4937  0.1595  0.0514
18147TIP3    H175932   0.410   6.230  15.463  1.2518  1.1434  0.2411
18147TIP3    H275933   0.379   6.349  15.374  2.8891  0.7507 -0.8908
18148TIP3   OH275934   0.924   6.514  16.006  0.4552 -0.4201 -0.0384
18148TIP3    H175935   0.862   6.453  15.967  0.9186 -1.7097  1.1432
18148TIP3    H275936   1.010   6.473  15.992  1.0449  1.1309 -1.2892
18149TIP3   OH275937   4.223   1.276  14.345 -0.3419  0.4834  0.6515
18149TIP3    H175938   4.155   1.277  14.277 -0.1766  0.9270  0.4884
18149TIP3    H275939   4.236   1.368  14.366 -0.1523  0.3653  1.0507
18150TIP3   OH275940   5.459   4.351   1.680  0.8368  0.6383 -0.0307
18150TIP3    H175941   5.413   4.358   1.597  1.9106  0.5335 -0.6481
18150TIP3    H275942   5.399   4.390   1.744  0.1241  0.9872 -0.8951
18151TIP3   OH275943   3.657   4.731  11.287  0.3718  0.0973 -0.3616
18151TIP3    H175944   3.583   4.714  11.345 -1.5169 -0.4753 -2.7661
18151TIP3    H275945   3.677   4.824  11.299  0.4058 -0.1354  1.5474
18152TIP3   OH275946   3.986   3.320  10.453  0.4318 -0.4744  0.3184
18152TIP3    H175947   3.925   3.247  10.462 -1.5280  0.5192 -3.1442
18152TIP3    H275948   3.972   3.372  10.532 -1.4375 -1.5759  0.7905
18153TIP3   OH275949   2.702   2.322  11.131  0.6412 -0.2503  0.0931
18153TIP3    H175950   2.688   2.340  11.038 -0.8697 -0.4541  0.2632
18153TIP3    H275951   2.728   2.406  11.168  0.3139  0.0455 -0.3353
18154TIP3   OH275952   6.542   5.686  14.220 -0.7326  0.3321  0.2325
18154TIP3    H175953   6.603   5.728  14.280 -1.6087 -0.3516  1.6501
18154TIP3    H275954   6.459   5.733  14.233 -1.0420 -0.1030 -0.1403
18155TIP3   OH275955   5.301   5.279  11.312  0.6640  0.8753  0.3878
18155TIP3    H175956   5.223   5.335  11.314 -0.2176 -0.2984  0.4556
18155TIP3    H275957   5.368   5.328  11.359  0.0805  2.0690  0.0181
18156TIP3   OH275958   5.737   3.870  12.936 -0.7965 -0.0370  0.3655
18156TIP3    H175959   5.740   3.783  12.977  3.0893 -0.2353  0.0472
18156TIP3    H275960   5.731   3.852  12.842 -0.4894  0.0530  0.3284
18157TIP3   OH275961   1.892   5.559  14.382  0.0770 -0.1283  0.7989
18157TIP3    H175962   1.956   5.563  14.453 -0.2944 -4.7241  1.7011
18157TIP3    H275963   1.946   5.552  14.303  0.5758  0.3901  1.0786
18158TIP3   OH275964   1.602   1.805   2.804  0.5528  0.3146 -0.0625
18158TIP3    H175965   1.629   1.893   2.830  0.6042  0.9754 -2.1766
18158TIP3    H275966   1.634   1.796   2.715 -1.1303 -1.1345 -0.5613
18159TIP3   OH275967   3.050   6.307   1.721  0.4492 -0.4661  0.0325
18159TIP3    H175968   3.044   6.266   1.807 -2.6853  1.3232  0.8380
18159TIP3    H275969   2.996   6.251   1.664 -0.7276  0.4263  0.2346
18160TIP3   OH275970   4.309   4.041  15.189 -0.6177 -0.5226 -0.3206
18160TIP3    H175971   4.351   4.034  15.103  1.6768 -0.7291  0.7266
18160TIP3    H275972   4.321   4.133  15.214  0.1276 -0.7924  0.3840
18161TIP3   OH275973   0.118   4.852  12.071  0.2521  0.1961  0.1190
18161TIP3    H175974   0.184   4.918  12.094  0.3973 -0.3095  1.2257
18161TIP3    H275975   0.160   4.799  12.004 -0.3561  2.0078 -1.7983
18162TIP3   OH275976   5.967   1.099  12.499 -0.2949 -0.4027 -0.1107
18162TIP3    H175977   6.050   1.090  12.451  0.2503 -1.2363  0.9510
18162TIP3    H275978   5.993   1.125  12.587 -1.1758 -0.5684  0.2027
18163TIP3   OH275979   4.473   0.627  10.620 -0.3657 -0.0002  0.2783
18163TIP3    H175980   4.501   0.704  10.669 -0.0292  0.0393  0.0288
18163TIP3    H275981   4.485   0.652  10.528 -0.1695 -0.3808  0.1976
18164TIP3   OH275982   2.589   6.365   0.058 -0.5260 -0.1241 -0.1014
18164TIP3    H175983   2.624   6.444   0.017 -1.6258 -0.2739 -1.3900
18164TIP3    H275984   2.523   6.333  -0.004  0.0050 -2.1466  0.3115
18165TIP3   OH275985   6.459   2.753   5.602  0.6135  0.0553  0.1658
18165TIP3    H175986   6.376   2.801   5.605  1.3071  1.3252 -0.0794
18165TIP3    H275987   6.441   2.676   5.549  0.0578  1.3059 -1.5282
18166TIP3   OH275988   1.868   2.899  11.947  0.0480 -0.0783  0.2638
18166TIP3    H175989   1.819   2.849  11.881  0.4193 -0.9714  0.6422
18166TIP3    H275990   1.890   2.834  12.014 -0.5020  0.8671  1.3810
18167TIP3   OH275991   3.959   3.026  13.673 -0.1675 -0.1570 -0.2067
18167TIP3    H175992   3.970   3.121  13.663 -2.1351  0.2351  0.7640
18167TIP3    H275993   4.028   3.000  13.734 -1.1984  1.1838  1.6455
18168TIP3   OH275994   1.762   2.492   2.116 -0.5618 -0.0152  0.0531
18168TIP3    H175995   1.822   2.545   2.064  1.7803 -1.6300  0.9192
18168TIP3    H275996   1.717   2.437   2.051  0.2447 -0.0410 -0.5080
18169TIP3   OH275997   2.951   0.485   4.679 -0.4417 -0.0397 -0.1303
18169TIP3    H175998   2.994   0.480   4.765 -0.1818  1.4065 -0.1419
18169TIP3    H275999   2.945   0.395   4.650 -1.2447 -0.6488  1.7566
18170TIP3   OH276000   5.410   1.602   0.384  0.0923 -0.7806 -0.3319
18170TIP3    H176001   5.342   1.584   0.450  0.3512  0.0797  0.1920
18170TIP3    H276002   5.454   1.680   0.417  2.6964 -2.4628  0.4217
18171TIP3   OH276003   4.464   1.677   0.478 -0.5570  0.4607  0.2420
18171TIP3    H176004   4.461   1.670   0.573  1.5802 -0.6584  0.2912
18171TIP3    H276005   4.397   1.615   0.448  0.4514 -1.1128  1.0530
18172TIP3   OH276006   2.918   2.688   1.324 -0.1975  0.2106 -0.4808
18172TIP3    H176007   2.968   2.674   1.404 -1.2824  0.0061  0.1811
18172TIP3    H276008   2.976   2.659   1.254 -0.2655 -2.4390  0.4325
18173TIP3   OH276009   6.818   3.216   4.357  0.3186 -0.0088 -0.0659
18173TIP3    H176010   6.892   3.207   4.417  0.0385 -1.0594  0.1405
18173TIP3    H276011   6.752   3.265   4.407 -0.2725 -1.6546  0.8702
18174TIP3   OH276012   1.725   6.306   1.347 -0.9556  0.3223 -0.0062
18174TIP3    H176013   1.757   6.278   1.261 -1.1169  1.6063 -0.5095
18174TIP3    H276014   1.673   6.233   1.379 -0.9408 -0.1472 -1.0371
18175TIP3   OH276015   1.918   0.593  14.390 -0.5061 -0.3347 -0.0882
18175TIP3    H176016   1.866   0.628  14.317 -0.7805  0.8296  0.6503
18175TIP3    H276017   1.855   0.584  14.462 -0.0632 -0.6971  0.2565
18176TIP3   OH276018   6.683   6.556  12.757  0.4135 -0.1399 -0.7229
18176TIP3    H176019   6.768   6.564  12.800  0.5579  0.9310 -1.1972
18176TIP3    H276020   6.689   6.612  12.680 -1.5126  1.8353  0.4716
18177TIP3   OH276021   2.916   5.601  12.373 -0.5560 -0.4427 -0.1073
18177TIP3    H176022   2.934   5.678  12.426  0.1962 -0.1590 -0.7638
18177TIP3    H276023   2.897   5.635  12.286  2.0315 -1.0726 -0.9977
18178TIP3   OH276024   1.083   2.102  15.856  0.2505 -0.2909  0.0101
18178TIP3    H176025   1.128   2.077  15.937  0.2318  0.8308  0.3905
18178TIP3    H276026   1.046   2.189  15.876  0.8963  0.3417 -1.4550
18179TIP3   OH276027   0.075   3.623  11.627  0.1370  0.2465 -0.3862
18179TIP3    H176028   0.123   3.674  11.562  1.9130 -0.1124  0.5932
18179TIP3    H276029   0.063   3.684  11.700 -1.0434  0.3612 -0.6457
18180TIP3   OH276030   1.277   5.921   0.788 -0.1724  0.3019  0.2535
18180TIP3    H176031   1.311   5.834   0.807 -2.5780 -0.7712 -0.0984
18180TIP3    H276032   1.269   5.923   0.692 -2.1349  0.0598  0.3830
18181TIP3   OH276033   4.691   4.989  13.350 -0.7194  0.3567 -0.3027
18181TIP3    H176034   4.771   4.938  13.363 -1.4263 -0.1402  3.1841
18181TIP3    H276035   4.635   4.934  13.296  0.2499 -0.5287 -0.4297
18182TIP3   OH276036   0.754   4.041  13.117 -0.1479 -0.2440  0.1508
18182TIP3    H176037   0.669   4.041  13.161  0.1489 -1.3604  0.7678
18182TIP3    H276038   0.805   4.108  13.162 -0.4814 -0.0249  0.2075
18183TIP3   OH276039   0.049   2.684   1.228 -0.0646  0.0914 -0.1394
18183TIP3    H176040   0.052   2.626   1.153 -0.2088  1.2376 -1.0563
18183TIP3    H276041   0.026   2.770   1.192  1.4819  1.0351  0.9831
18184TIP3   OH276042   3.126   0.637  16.977  0.2960 -0.7637 -0.1240
18184TIP3    H176043   3.061   0.706  16.986  0.0143 -0.6363 -2.3830
18184TIP3    H276044   3.077   0.556  16.990 -0.6627 -0.7215 -2.8436
18185TIP3   OH276045   4.662   6.369  15.511  0.9265  0.1338  0.2050
18185TIP3    H176046   4.614   6.296  15.548  1.9813 -1.2463 -1.0231
18185TIP3    H276047   4.713   6.404  15.585 -1.0551  0.9583  1.2637
18186TIP3   OH276048   3.569   6.083   2.880 -0.5310  0.3670 -0.1799
18186TIP3    H176049   3.659   6.112   2.863 -0.5234 -0.0339 -0.8869
18186TIP3    H276050   3.529   6.155   2.928  0.0619  0.7083 -0.1881
18187TIP3   OH276051   1.658   3.032   0.650 -0.2206  0.0810 -0.5234
18187TIP3    H176052   1.586   3.054   0.591 -0.2763 -0.3942 -0.6345
18187TIP3    H276053   1.616   3.016   0.734  0.0748  3.4813  0.4384
18188TIP3   OH276054   3.755   4.755   4.431 -0.5151 -0.2250 -0.5800
18188TIP3    H176055   3.735   4.671   4.390 -0.3367 -0.7074  0.2895
18188TIP3    H276056   3.850   4.753   4.446 -0.7044 -0.4754  0.7094
18189TIP3   OH276057   6.054   5.329  11.955 -0.4701 -0.0085  0.1267
18189TIP3    H176058   5.980   5.269  11.964  0.4900 -1.1140  1.0611
18189TIP3    H276059   6.118   5.298  12.020  0.9046  0.7543 -0.8019
18190TIP3   OH276060   1.597   0.579  10.375 -0.0213 -0.3148 -0.3800
18190TIP3    H176061   1.647   0.642  10.426  1.4775 -0.7752 -1.2279
18190TIP3    H276062   1.534   0.542  10.437  2.1017 -1.2582  1.3118
18191TIP3   OH276063   3.387   1.093   4.151 -0.0233  0.3377  0.0679
18191TIP3    H176064   3.432   1.090   4.067 -0.3989 -0.3110 -0.1179
18191TIP3    H276065   3.304   1.047   4.136  0.0138 -0.0084  0.8465
18192TIP3   OH276066   1.028   0.401   1.676 -0.0866 -0.7241 -0.2320
18192TIP3    H176067   1.020   0.316   1.632  0.8160 -0.3868 -1.0806
18192TIP3    H276068   0.960   0.455   1.636  0.2219 -0.6521 -0.6661
18193TIP3   OH276069   1.244   6.566  15.481  0.2010  0.0230  0.3961
18193TIP3    H176070   1.166   6.554  15.427  0.1812  0.5319  0.3081
18193TIP3    H276071   1.211   6.573  15.571  0.2069 -0.4734  0.4417
18194TIP3   OH276072   6.063   3.614   4.626  0.0484  0.0716  0.1111
18194TIP3    H176073   6.011   3.566   4.561 -0.5812  0.6570  0.1724
18194TIP3    H276074   6.145   3.634   4.582 -1.0272  2.0029 -1.1554
18195TIP3   OH276075   5.258   0.904   5.785 -0.5990  0.3272 -0.2874
18195TIP3    H176076   5.206   0.898   5.705  0.0118  2.1471 -0.8637
18195TIP3    H276077   5.194   0.895   5.856 -1.7964  2.8038 -0.9686
18196TIP3   OH276078   4.703   1.959   3.593 -0.2827 -0.0692 -0.2360
18196TIP3    H176079   4.648   1.894   3.550  0.4420  0.2460 -1.6662
18196TIP3    H276080   4.770   1.981   3.529  0.8969  0.3406  1.1005
18197TIP3   OH276081   4.989   5.920   0.349  0.8073 -0.3964 -0.1642
18197TIP3    H176082   5.053   5.986   0.377 -0.5390  1.0310 -0.3349
18197TIP3    H276083   4.985   5.858   0.422  0.9184  0.6011  0.7100
18198TIP3   OH276084   2.034   5.983  11.726  0.5169  0.0311 -0.7703
18198TIP3    H176085   2.067   5.894  11.717 -0.6073 -0.3034 -1.9236
18198TIP3    H276086   2.015   5.992  11.820  0.5857 -0.9707 -0.6468
18199TIP3   OH276087   4.707   6.070  13.948 -0.2474 -0.0228  0.3357
18199TIP3    H176088   4.771   6.107  14.009  1.0788 -1.1474 -0.3336
18199TIP3    H276089   4.728   6.112  13.864 -0.8541  0.1211  0.2535
18200TIP3   OH276090   6.242   3.174  13.346 -0.0534  0.0605 -0.1372
18200TIP3    H176091   6.288   3.165  13.262  0.1260  0.7711 -0.1212
18200TIP3    H276092   6.165   3.228  13.326  0.2618  0.6655  0.2467
18201TIP3   OH276093   6.222   0.540   4.518  0.1947 -0.4427 -0.0948
18201TIP3    H176094   6.252   0.630   4.529  0.2006 -0.4661  0.0866
18201TIP3    H276095   6.210   0.507   4.608  0.3635 -0.6786 -0.1569
18202TIP3   OH276096   0.905   1.110  14.071  0.6407  0.5777 -0.1546
18202TIP3    H176097   0.855   1.175  14.119  0.8351 -0.6613  1.8426
18202TIP3    H276098   0.979   1.159  14.033  0.8128  1.5192  1.3402
18203TIP3   OH276099   5.996   3.487   2.342 -0.7708  0.4744 -0.0661
18203TIP3    H176100   6.063   3.548   2.312 -0.1779  1.1984  2.4697
18203TIP3    H276101   6.046   3.412   2.376 -1.4615 -1.0693 -2.2516
18204TIP3   OH276102   0.352   0.822   5.776  0.7019  0.0400  0.0010
18204TIP3    H176103   0.318   0.753   5.833 -0.2385  1.2886  0.9962
18204TIP3    H276104   0.278   0.881   5.763  1.2117  0.3668 -1.6413
18205TIP3   OH276105   4.980   1.379  12.353 -0.2679 -0.2590  0.3749
18205TIP3    H176106   4.977   1.440  12.279 -0.1972 -0.1515  0.4612
18205TIP3    H276107   4.888   1.364  12.375 -0.2726  0.9574  1.2925
18206TIP3   OH276108   1.717   2.808   5.338  0.8812 -0.4447  0.4897
18206TIP3    H176109   1.701   2.749   5.411  0.2581  1.1113  1.6846
18206TIP3    H276110   1.636   2.859   5.330  1.7098  0.8893  0.1638
18207TIP3   OH276111   4.261   4.251   0.851 -0.2740 -0.3039  0.5152
18207TIP3    H176112   4.299   4.241   0.938 -0.2012 -1.2582  0.3799
18207TIP3    H276113   4.328   4.297   0.801 -0.2786  0.1662  0.9273
18208TIP3   OH276114   3.594   4.376   2.055  0.1974  0.0978 -0.6922
18208TIP3    H176115   3.654   4.343   2.121  0.2544 -0.0668 -0.8258
18208TIP3    H276116   3.579   4.301   1.997  2.3037  0.9565 -2.4674
18209TIP3   OH276117   4.294   1.276   6.711  0.1421  0.0272  0.0794
18209TIP3    H176118   4.384   1.301   6.692  0.3008  0.2229  1.0434
18209TIP3    H276119   4.295   1.250   6.804 -0.8329  0.2502  0.1646
18210TIP3   OH276120   1.715   1.429   4.263  0.4340  0.2626  0.2207
18210TIP3    H176121   1.643   1.421   4.325 -0.4901  1.4217 -0.6580
18210TIP3    H276122   1.672   1.435   4.177  1.6598 -0.9373 -0.5294
18211TIP3   OH276123   6.151   4.389   2.584 -0.3440  1.0414 -0.1010
18211TIP3    H176124   6.157   4.422   2.673  1.9705  1.2362 -0.2651
18211TIP3    H276125   6.157   4.294   2.593 -1.0671  1.0007 -0.0042
18212TIP3   OH276126   5.188   5.092  13.134 -0.3409  0.4210  0.4487
18212TIP3    H176127   5.162   5.021  13.075 -1.1089 -0.1746  1.4744
18212TIP3    H276128   5.168   5.172  13.086  1.0141 -0.0229 -0.9412
18213TIP3   OH276129   4.943   4.502  17.019 -0.0018 -0.2160 -0.6386
18213TIP3    H176130   4.887   4.481  17.094  1.3258  0.7581  0.6819
18213TIP3    H276131   4.908   4.586  16.987 -0.6404 -0.6875 -1.2199
18214TIP3   OH276132   1.019   2.544   4.478  0.3936 -0.0680 -0.3978
18214TIP3    H176133   0.948   2.607   4.460 -1.4081 -1.2735  1.8757
18214TIP3    H276134   1.026   2.492   4.398 -2.1749 -0.6488 -0.3383
18215TIP3   OH276135   2.375   0.126   5.506  0.1949  0.2574  0.0853
18215TIP3    H176136   2.311   0.086   5.565  0.0455 -1.4462 -1.1542
18215TIP3    H276137   2.457   0.126   5.556 -0.3944  1.0342  1.1132
18216TIP3   OH276138   1.181   5.650   0.489  0.6512  0.2483  0.0865
18216TIP3    H176139   1.271   5.621   0.472  0.6035  0.0516  0.1575
18216TIP3    H276140   1.137   5.571   0.520  0.9345  0.7499  1.8952
18217TIP3   OH276141   0.756   1.657  13.066  0.7739 -0.3405  0.2780
18217TIP3    H176142   0.804   1.738  13.050 -0.6021  0.9986  2.3595
18217TIP3    H276143   0.674   1.668  13.019  0.3635 -0.2584  0.9927
18218TIP3   OH276144   2.934   1.849  11.171  0.4227 -0.4138 -0.3915
18218TIP3    H176145   3.008   1.882  11.223 -0.5421  0.3916  0.5286
18218TIP3    H276146   2.916   1.762  11.207 -0.1709  0.0939  0.6056
18219TIP3   OH276147   5.415   5.935  17.044  0.1340 -0.3816  0.8647
18219TIP3    H176148   5.437   6.027  17.035  0.2298 -0.6067 -2.7800
18219TIP3    H276149   5.498   5.889  17.032 -0.2345 -0.9748  0.5281
18220TIP3   OH276150   0.182   3.261  15.567  1.0418  0.3233 -0.1347
18220TIP3    H176151   0.150   3.350  15.578  0.6170  0.0776  0.6527
18220TIP3    H276152   0.200   3.254  15.473 -0.7234  0.6391 -0.5258
18221TIP3   OH276153   6.405   5.264   2.541  0.5818 -0.6862  0.7704
18221TIP3    H176154   6.379   5.328   2.607  0.2846  0.7278 -0.6846
18221TIP3    H276155   6.492   5.235   2.571  1.0458  0.9156  1.1103
18222TIP3   OH276156   6.750   3.893   5.073 -0.0500 -0.2840  0.1363
18222TIP3    H176157   6.668   3.930   5.105 -1.3520 -1.0929 -2.0826
18222TIP3    H276158   6.759   3.810   5.119 -1.1050 -0.7344 -0.4379
18223TIP3   OH276159   3.202   4.503  16.455 -0.1318 -0.5516  0.5272
18223TIP3    H176160   3.281   4.518  16.403  0.0304  0.7092  1.1055
18223TIP3    H276161   3.234   4.467  16.538 -0.1918 -0.2717  0.6700
18224TIP3   OH276162   4.815   0.786   5.932 -0.3435  0.2806  0.0314
18224TIP3    H176163   4.756   0.749   5.997 -0.2143  0.8927  0.5021
18224TIP3    H276164   4.759   0.808   5.858 -0.6788  0.6688  0.3957
18225TIP3   OH276165   6.501   3.439   1.948  0.1412  0.1221 -0.2651
18225TIP3    H176166   6.419   3.426   1.995  0.7033 -0.3065  0.6038
18225TIP3    H276167   6.518   3.533   1.955  0.5018 -0.0137  0.8846
18226TIP3   OH276168   0.717   4.004  13.658  0.0206  0.4373 -0.0459
18226TIP3    H176169   0.738   4.077  13.601 -2.5588  0.4131 -1.1459
18226TIP3    H276170   0.638   4.031  13.705 -0.7970 -1.4517 -0.2177
18227TIP3   OH276171   2.741   6.745  13.640  0.0434 -0.2074  0.7571
18227TIP3    H176172   2.739   6.650  13.628  0.4376 -0.2743  1.1853
18227TIP3    H276173   2.767   6.757  13.732  1.8759  0.3275  0.1983
18228TIP3   OH276174   0.842   2.306  13.595  0.2196 -0.0307  0.2139
18228TIP3    H176175   0.890   2.362  13.656 -1.7121  0.1984  1.6177
18228TIP3    H276176   0.754   2.343  13.593 -0.0327 -0.6042 -2.0394
18229TIP3   OH276177   3.280   0.065   3.663  0.2467 -0.0841  0.1638
18229TIP3    H176178   3.325   0.010   3.727  0.7926 -0.0675 -0.1997
18229TIP3    H276179   3.275   0.151   3.705  0.2206 -0.1804  0.3576
18230TIP3   OH276180   1.672   2.537  11.220 -1.0618 -0.0436 -0.3068
18230TIP3    H176181   1.581   2.518  11.198 -1.1592 -0.8038  0.6559
18230TIP3    H276182   1.675   2.632  11.230 -1.4356  0.1227 -1.6462
18231TIP3   OH276183   1.898   2.122  11.593 -0.0885  0.2119  0.3380
18231TIP3    H176184   1.919   2.202  11.642  0.7942 -0.6650  1.4526
18231TIP3    H276185   1.943   2.133  11.509 -0.9320  1.3713  0.0044
18232TIP3   OH276186   1.023   0.886  17.011  0.0241 -0.1517  0.1249
18232TIP3    H176187   1.060   0.933  17.086 -1.1576  1.9529 -0.5020
18232TIP3    H276188   1.081   0.908  16.938 -0.2633 -0.0463 -0.0757
18233TIP3   OH276189   1.668   5.916   5.457  0.5831  0.0850  0.3192
18233TIP3    H176190   1.714   5.994   5.487  2.1872 -0.6516 -0.1327
18233TIP3    H276191   1.718   5.887   5.380  0.1078 -1.4647  0.5776
18234TIP3   OH276192   0.190   2.431  11.137  0.2982 -0.0109 -0.0632
18234TIP3    H176193   0.239   2.491  11.081  0.6604 -1.1357 -0.9961
18234TIP3    H276194   0.106   2.474  11.151  0.2783  0.3833 -1.3263
18235TIP3   OH276195   6.368   0.896  12.652 -0.2021 -0.2493 -0.3182
18235TIP3    H176196   6.392   0.849  12.572  0.1753  3.2431 -2.4478
18235TIP3    H276197   6.450   0.904  12.701  0.6958  1.6721 -1.9931
18236TIP3   OH276198   2.760   4.733   0.023  0.0008 -0.0269  0.3098
18236TIP3    H176199   2.688   4.692  -0.025  0.0895  0.8049 -0.5808
18236TIP3    H276200   2.783   4.810  -0.030 -0.0602  1.0850  1.8174
18237TIP3   OH276201   1.342   6.077   2.248  0.0369 -0.1556 -0.0720
18237TIP3    H176202   1.417   6.071   2.190  1.6735 -0.4625  1.9709
18237TIP3    H276203   1.329   6.171   2.261 -0.2986 -0.0876 -0.8314
18238TIP3   OH276204   1.105   4.664  12.454  0.7747  0.1809  0.1844
18238TIP3    H176205   1.122   4.709  12.372  1.5831 -1.3598 -0.5344
18238TIP3    H276206   1.186   4.674  12.504  0.6426  0.2693  0.3804
18239TIP3   OH276207   2.055   1.624   5.851  0.0566 -0.0283  0.2180
18239TIP3    H176208   2.032   1.615   5.943 -0.7786 -0.1061  0.0069
18239TIP3    H276209   1.983   1.674   5.813  1.6310  2.3091  0.1257
18240TIP3   OH276210   4.571   3.775  15.990 -0.5425 -0.2103  0.6754
18240TIP3    H176211   4.606   3.689  15.966  1.3696  0.2180  1.7755
18240TIP3    H276212   4.573   3.776  16.086  0.8767  1.5942  0.6678
18241TIP3   OH276213   5.378   3.571   2.506  0.0307 -0.0364  0.5146
18241TIP3    H176214   5.332   3.487   2.518  1.9817 -1.3253 -0.5457
18241TIP3    H276215   5.327   3.616   2.438 -0.0757 -1.1194 -0.1453
18242TIP3   OH276216   4.689   6.488  10.826 -0.0415 -0.8051 -0.1300
18242TIP3    H176217   4.614   6.524  10.778 -0.0755 -1.4364 -0.5745
18242TIP3    H276218   4.757   6.555  10.818 -0.6286 -0.1232  0.4801
18243TIP3   OH276219   2.637   2.425  11.479 -0.8098  0.4498  0.4470
18243TIP3    H176220   2.648   2.519  11.461 -2.9355  0.7242  0.3461
18243TIP3    H276221   2.588   2.392  11.404  0.2822 -0.8824  0.2687
18244TIP3   OH276222   4.686   6.469   2.362 -0.4915  0.1783 -0.1753
18244TIP3    H176223   4.694   6.380   2.329 -0.7397 -0.2740  0.9466
18244TIP3    H276224   4.593   6.478   2.384 -0.3924  0.5685  0.1011
18245TIP3   OH276225   6.111   1.145   1.971 -0.1434  0.0421 -0.7391
18245TIP3    H176226   6.107   1.145   1.876  0.6447 -0.5410 -0.7847
18245TIP3    H276227   6.039   1.202   1.999  1.1860  2.4097 -1.7574
18246TIP3   OH276228   1.804   4.858  12.590  0.0581 -0.2884 -0.8493
18246TIP3    H176229   1.754   4.932  12.556  1.6176  1.3811  0.3515
18246TIP3    H276230   1.753   4.829  12.666  0.1207  0.3983 -0.5430
18247TIP3   OH276231   1.912   6.532  11.634 -0.3279 -0.0381 -0.5705
18247TIP3    H176232   2.005   6.509  11.638 -0.0901  0.4937 -2.2953
18247TIP3    H276233   1.879   6.484  11.558 -1.9362 -1.6829  1.0703
18248TIP3   OH276234   2.058   3.151   0.593  0.1356 -0.0880  0.1925
18248TIP3    H176235   2.139   3.178   0.550  0.5594 -1.2586  0.2140
18248TIP3    H276236   2.085   3.125   0.681 -0.6287  1.6613  0.9982
18249TIP3   OH276237   3.234   5.924  15.237  0.5740  0.7243  0.0492
18249TIP3    H176238   3.181   5.879  15.304 -0.2064  2.3098  0.5387
18249TIP3    H276239   3.194   5.898  15.154  2.2411 -2.1697  0.0244
18250TIP3   OH276240   3.616   2.208  11.471  0.3931  0.6472  0.0077
18250TIP3    H176241   3.521   2.198  11.474  0.4448  0.0753 -0.1944
18250TIP3    H276242   3.647   2.133  11.421  0.8523  1.4947 -1.0450
18251TIP3   OH276243   2.144   6.580   0.992  0.4773  0.1753  0.6042
18251TIP3    H176244   2.218   6.589   0.930  0.2432 -1.0445  0.1186
18251TIP3    H276245   2.070   6.557   0.936 -0.9859  3.9003  0.7220
18252TIP3   OH276246   5.740   2.860   6.130  0.2230  0.2086 -0.7282
18252TIP3    H176247   5.824   2.866   6.175  0.7929 -1.0339 -1.5501
18252TIP3    H276248   5.705   2.949   6.130  2.8110  1.3526 -2.6997
18253TIP3   OH276249   2.582   0.305  13.031 -0.3042  0.6870  0.3578
18253TIP3    H176250   2.602   0.231  13.087 -0.1143  1.5292  1.4378
18253TIP3    H276251   2.527   0.269  12.962  0.1937 -0.5443  0.5762
18254TIP3   OH276252   3.945   4.889  14.071 -0.0377 -0.3219  0.0876
18254TIP3    H176253   3.896   4.969  14.088  0.7434  0.5208 -1.4045
18254TIP3    H276254   3.881   4.819  14.078 -0.5748  0.3151  2.2493
18255TIP3   OH276255   1.147   2.751   5.656 -0.1619  0.2906 -0.2124
18255TIP3    H176256   1.175   2.749   5.747  1.7392  0.1744 -0.7628
18255TIP3    H276257   1.051   2.745   5.660 -0.0489 -0.9174  1.7214
18256TIP3   OH276258   5.946   0.728   3.587 -0.1751  0.3358 -0.0543
18256TIP3    H176259   5.885   0.720   3.660 -1.1068  1.1567 -0.7070
18256TIP3    H276260   5.902   0.684   3.514  0.7949 -0.5794 -0.1007
18257TIP3   OH276261   2.371   6.272  10.191  0.8028 -0.1168 -0.1997
18257TIP3    H176262   2.363   6.212  10.116 -1.2422  1.8869 -1.7257
18257TIP3    H276263   2.281   6.297  10.211  1.5135  1.6421  1.0492
18258TIP3   OH276264   0.281   3.962   5.869  0.0025 -0.1283  0.3736
18258TIP3    H176265   0.187   3.974   5.854 -0.0651 -1.4329 -0.3736
18258TIP3    H276266   0.315   3.934   5.784  0.7821 -1.2374  1.0307
18259TIP3   OH276267   1.096   4.723  15.716 -0.3262 -0.3515  0.4114
18259TIP3    H176268   1.099   4.762  15.629  1.3688 -0.7954  0.2383
18259TIP3    H276269   1.056   4.638  15.703 -0.9595 -0.0305  0.2318
18260TIP3   OH276270   4.896   3.313   4.218  0.1441 -0.0721  0.0468
18260TIP3    H176271   4.819   3.266   4.248  0.9164 -1.4604 -0.0309
18260TIP3    H276272   4.928   3.360   4.295 -0.3883 -0.0280  0.2425
18261TIP3   OH276273   0.238   4.895   0.623  0.3118  0.7570  0.5188
18261TIP3    H176274   0.311   4.941   0.580  1.1475 -1.7405 -0.9293
18261TIP3    H276275   0.249   4.803   0.597 -4.0328  0.3833 -0.7676
18262TIP3   OH276276   5.721   4.953  11.338  0.5356 -0.3215 -0.4363
18262TIP3    H176277   5.685   5.017  11.277  1.2823 -0.2751 -0.8403
18262TIP3    H276278   5.787   4.905  11.287 -0.8488 -2.2575 -0.5147
18263TIP3   OH276279   4.734   0.740   1.567  0.4308 -0.3568  0.2858
18263TIP3    H176280   4.829   0.733   1.573  0.3464 -0.3031  2.1364
18263TIP3    H276281   4.704   0.650   1.556  0.5867 -0.6219  1.9164
18264TIP3   OH276282   1.371   1.715   2.279 -0.3967  0.1176  0.3515
18264TIP3    H176283   1.291   1.751   2.243 -0.1046 -0.1403 -0.5758
18264TIP3    H276284   1.362   1.620   2.269 -0.1456  0.0649  0.5971
18265TIP3   OH276285   2.119   5.416  16.284  0.5019 -0.4315 -0.0297
18265TIP3    H176286   2.118   5.410  16.188  2.3528 -1.6564 -0.0149
18265TIP3    H276287   2.037   5.376  16.311 -1.1122  1.8635 -1.1094
18266TIP3   OH276288   2.218   3.345  12.343 -0.4809 -0.5400 -0.3984
18266TIP3    H176289   2.130   3.363  12.376 -0.4446 -2.8164  1.2093
18266TIP3    H276290   2.270   3.329  12.422  0.6751 -2.0165 -1.3930
18267TIP3   OH276291   1.617   5.899  10.738  0.2037  0.0225 -0.2339
18267TIP3    H176292   1.642   5.840  10.666 -0.5533  0.1404 -0.6101
18267TIP3    H276293   1.700   5.929  10.775  0.6066 -1.0232 -0.2506
18268TIP3   OH276294   3.474   0.257  14.160  0.0649  0.1775  0.2157
18268TIP3    H176295   3.394   0.206  14.162  0.2040 -0.0246  1.3123
18268TIP3    H276296   3.454   0.336  14.210  0.2996  0.5227 -0.2205
18269TIP3   OH276297   1.465   5.515   1.830 -0.1022 -0.1569 -0.4419
18269TIP3    H176298   1.522   5.562   1.890 -0.8163 -0.1415  0.2285
18269TIP3    H276299   1.392   5.574   1.814  0.6232  0.3194 -2.2471
18270TIP3   OH276300   3.471   2.710   4.341  0.1796  0.3736 -0.1313
18270TIP3    H176301   3.412   2.718   4.417  0.1101  0.7428 -0.2206
18270TIP3    H276302   3.440   2.777   4.281  1.1626  1.0749  0.1304
18271TIP3   OH276303   6.448   4.286   4.726 -0.4572 -0.8478  0.2829
18271TIP3    H176304   6.399   4.363   4.698  1.7897  0.1514 -1.1741
18271TIP3    H276305   6.435   4.283   4.821 -2.1419  0.1658  0.1269
18272TIP3   OH276306   6.641   1.284  16.028  0.1622  0.4296 -0.6243
18272TIP3    H176307   6.639   1.250  15.939  1.8888  0.5146 -0.7338
18272TIP3    H276308   6.554   1.265  16.064  0.3083 -2.0781 -1.4193
18273TIP3   OH276309   4.284   6.278  11.522  0.3340 -0.0973  0.0613
18273TIP3    H176310   4.330   6.217  11.464 -0.9029 -0.3269 -0.6981
18273TIP3    H276311   4.326   6.265  11.608 -0.1011 -2.2610 -0.0022
18274TIP3   OH276312   3.483   3.754   2.024 -0.3222  0.1364  0.0888
18274TIP3    H176313   3.391   3.761   2.047 -0.2901  0.6440  0.0787
18274TIP3    H276314   3.491   3.796   1.939  0.2441  1.9449  0.9685
18275TIP3   OH276315   4.643   4.285  13.040  0.1983 -0.1223 -0.1458
18275TIP3    H176316   4.709   4.297  13.108 -0.3902  1.6613  0.1722
18275TIP3    H276317   4.694   4.276  12.959  0.8587  0.0378  0.2407
18276TIP3   OH276318   3.684   2.547  13.641  0.1199  0.5265  0.3074
18276TIP3    H176319   3.749   2.527  13.708  0.3132  2.0612  0.6179
18276TIP3    H276320   3.608   2.580  13.690  0.9072  3.3954 -0.2300
18277TIP3   OH276321   0.716   1.094  11.347  0.5955 -0.3098  0.2620
18277TIP3    H176322   0.752   1.137  11.425  1.5003 -0.2704 -0.1542
18277TIP3    H276323   0.751   1.146  11.274 -0.3411 -0.2708 -0.1636
18278TIP3   OH276324   5.086   3.167  14.016  0.3803 -0.4471 -0.1343
18278TIP3    H176325   5.042   3.239  13.971 -0.1794 -2.0010 -2.2235
18278TIP3    H276326   5.027   3.093  14.006  0.5913 -1.0908  2.6160
18279TIP3   OH276327   1.475   2.277   2.775 -0.4221 -0.3935 -0.2240
18279TIP3    H176328   1.489   2.300   2.867 -1.9477 -0.9536  0.1765
18279TIP3    H276329   1.415   2.202   2.777 -1.4508  0.3213 -1.6843
18280TIP3   OH276330   4.033   5.013  16.513  0.6943 -0.0379 -0.3259
18280TIP3    H176331   4.089   5.024  16.590  0.2851  0.1578 -0.0506
18280TIP3    H276332   4.047   4.923  16.486  0.3744 -0.2976  0.3530
18281TIP3   OH276333   0.731   2.579   3.673  0.0008 -0.1584  1.0187
18281TIP3    H176334   0.694   2.491   3.661  2.5833 -1.3467  1.0652
18281TIP3    H276335   0.814   2.576   3.625  1.3460  1.4253  3.1010
18282TIP3   OH276336   5.028   5.459   4.181 -0.4710  0.0429 -0.3663
18282TIP3    H176337   4.950   5.433   4.228 -0.5883  1.8587  0.5409
18282TIP3    H276338   5.090   5.387   4.194 -1.3192 -0.5351  0.5827
18283TIP3   OH276339   1.648   2.248  11.338  0.5069  0.5240 -0.1903
18283TIP3    H176340   1.610   2.266  11.252  3.1433  1.2118 -1.3103
18283TIP3    H276341   1.684   2.331  11.367  1.7485 -0.2021  0.4516
18284TIP3   OH276342   4.224   3.833   0.290  0.0235  0.2301 -0.7250
18284TIP3    H176343   4.187   3.868   0.371 -1.3241 -0.9576 -0.7834
18284TIP3    H276344   4.242   3.741   0.310  3.7268  0.8567 -0.4864
18285TIP3   OH276345   1.723   2.480  12.680  0.5210 -0.2838 -0.7091
18285TIP3    H176346   1.708   2.484  12.774 -0.4574 -0.4467 -0.8525
18285TIP3    H276347   1.701   2.390  12.655  1.1993 -0.3701 -1.0301
18286TIP3   OH276348   6.228   5.243   5.257  0.1908  0.5786  0.6657
18286TIP3    H176349   6.295   5.295   5.213  2.1677 -1.0703  1.5463
18286TIP3    H276350   6.257   5.240   5.348 -1.3979  0.2328  1.1861
18287TIP3   OH276351   2.639   0.547   1.866 -0.0318  0.1351 -0.1844
18287TIP3    H176352   2.645   0.610   1.794 -2.7013 -0.6652 -1.2042
18287TIP3    H276353   2.671   0.465   1.829 -0.1507  0.0209 -0.0355
18288TIP3   OH276354   5.778   1.064   3.440 -0.1822  0.0697 -0.3028
18288TIP3    H176355   5.833   1.087   3.515 -0.4909 -0.7432  0.1909
18288TIP3    H276356   5.817   1.110   3.366  2.4436 -2.0078 -0.3824
18289TIP3   OH276357   0.636   5.551   3.319  0.1828  0.8544 -0.5759
18289TIP3    H176358   0.557   5.557   3.265  0.1367 -0.2162 -0.6385
18289TIP3    H276359   0.678   5.637   3.309 -0.6747  1.2431 -0.9866
18290TIP3   OH276360   5.850   3.567  15.021 -0.1182 -0.0422  0.0933
18290TIP3    H176361   5.886   3.653  15.043  0.7499 -0.2602 -0.4133
18290TIP3    H276362   5.771   3.586  14.971  1.2447  0.5460 -2.0044
18291TIP3   OH276363   3.241   2.567   3.932 -0.9304 -0.9464  0.2326
18291TIP3    H176364   3.335   2.586   3.937 -1.0835 -0.0180 -0.3234
18291TIP3    H276365   3.237   2.471   3.924 -0.0363 -1.0036  0.3719
18292TIP3   OH276366   4.311   2.266  11.254 -0.4896  0.1814 -0.5355
18292TIP3    H176367   4.346   2.220  11.177  0.2572  0.5729 -0.4436
18292TIP3    H276368   4.260   2.200  11.300 -2.9343  0.5172 -2.5788
18293TIP3   OH276369   2.271   0.771  16.957 -0.5786 -0.4709  0.2254
18293TIP3    H176370   2.261   0.865  16.974 -0.8138 -0.6241  0.9839
18293TIP3    H276371   2.357   0.763  16.915 -0.1309 -0.0177  1.0332
18294TIP3   OH276372   4.558   4.072   2.197 -0.8149 -0.4910 -0.0498
18294TIP3    H176373   4.530   3.982   2.187 -1.3470 -0.1226 -2.4369
18294TIP3    H276374   4.632   4.082   2.136 -2.0103  1.1468 -1.3194
18295TIP3   OH276375   1.741   4.841  12.895  0.0943 -0.0430 -0.5322
18295TIP3    H176376   1.764   4.786  12.970  0.4505 -1.0243 -1.3341
18295TIP3    H276377   1.808   4.909  12.894  1.1640 -1.0630 -0.9989
18296TIP3   OH276378   5.817   2.455   4.303  0.4161 -0.1568  0.3158
18296TIP3    H176379   5.865   2.410   4.232  1.5655 -0.0121  0.9798
18296TIP3    H276380   5.882   2.513   4.342 -0.3548  0.1404  1.1650
18297TIP3   OH276381   5.841   2.419  11.362  0.1958 -0.3569  0.1212
18297TIP3    H176382   5.798   2.342  11.396 -0.0601 -0.4385 -0.3748
18297TIP3    H276383   5.933   2.409  11.388  0.4216 -1.4714 -1.0309
18298TIP3   OH276384   4.614   1.065  13.757 -0.0491 -0.3114 -0.5210
18298TIP3    H176385   4.629   1.000  13.688 -0.6402 -0.2186 -0.7449
18298TIP3    H276386   4.642   1.148  13.719 -0.0390 -0.3172 -0.5253
18299TIP3   OH276387   0.844   3.070   2.508  0.1720  0.4180 -0.0935
18299TIP3    H176388   0.756   3.080   2.544  0.4947 -0.7957  1.0607
18299TIP3    H276389   0.902   3.109   2.574  0.4733  2.1659 -1.3041
18300TIP3   OH276390   4.746   1.138   5.960  0.1099 -0.1292  0.5265
18300TIP3    H176391   4.681   1.072   5.983 -0.6748 -0.0045 -1.1672
18300TIP3    H276392   4.820   1.120   6.017 -1.5344 -0.0219  2.8184
18301TIP3   OH276393   6.831   1.126  14.130  0.5126 -0.4743 -0.6358
18301TIP3    H176394   6.761   1.061  14.138 -0.2517  0.3091 -0.8324
18301TIP3    H276395   6.813   1.189  14.200  0.1343  0.5404 -1.6224
18302TIP3   OH276396   0.875   2.529  14.598  0.5957 -1.0941 -0.1430
18302TIP3    H176397   0.793   2.483  14.614  0.0750 -0.3240 -0.5123
18302TIP3    H276398   0.919   2.531  14.682  0.4651 -1.9495 -0.0490
18303TIP3   OH276399   1.446   3.987   5.127 -0.1586 -0.7301  0.8891
18303TIP3    H176400   1.412   3.950   5.046  0.1201 -0.5059  0.6660
18303TIP3    H276401   1.403   3.938   5.197 -1.9673  0.4193  0.6458
18304TIP3   OH276402   5.368   5.457   4.174  0.0891  0.0946  0.0322
18304TIP3    H176403   5.294   5.402   4.199 -0.2089  0.7675  0.6383
18304TIP3    H276404   5.388   5.509   4.251 -0.0615  1.3261 -0.7341
18305TIP3   OH276405   0.820   0.284  12.751 -0.3452  0.5768 -0.5259
18305TIP3    H176406   0.727   0.282  12.772 -0.7113  1.0670 -2.0302
18305TIP3    H276407   0.824   0.266  12.657  1.1040  0.2686 -0.4275
18306TIP3   OH276408   0.798   2.147   4.411 -0.3977  0.3048 -0.1272
18306TIP3    H176409   0.724   2.108   4.366  0.1470 -0.5725 -0.2964
18306TIP3    H276410   0.832   2.212   4.350 -1.2532  0.9841  0.1128
18307TIP3   OH276411   4.557   6.694   2.833  0.2853 -0.9643  0.3309
18307TIP3    H176412   4.627   6.707   2.897  0.4731  0.9292 -0.2110
18307TIP3    H276413   4.585   6.618   2.782  1.4505 -0.8573  0.7833
18308TIP3   OH276414   0.719   4.837   2.009  0.2669 -0.6861 -0.0830
18308TIP3    H176415   0.759   4.766   2.059  1.2139 -0.7781 -0.9369
18308TIP3    H276416   0.652   4.873   2.067  0.6071 -1.4842  0.8235
18309TIP3   OH276417   3.493   1.073  16.110 -0.3386 -0.0643 -0.4234
18309TIP3    H176418   3.539   0.997  16.146 -1.0554 -0.2701  0.0852
18309TIP3    H276419   3.556   1.144  16.115 -0.0558 -0.3558  0.2176
18310TIP3   OH276420   0.181   3.205   4.507 -0.8203  0.3917 -0.1141
18310TIP3    H176421   0.202   3.291   4.544  1.4148 -0.2811  0.3265
18310TIP3    H276422   0.245   3.194   4.436  1.5266 -2.4044  2.2192
18311TIP3   OH276423   6.592   5.518  16.558 -0.1034 -0.2805  0.3806
18311TIP3    H176424   6.659   5.501  16.492 -0.6866  1.1017 -0.6219
18311TIP3    H276425   6.563   5.431  16.586 -0.2567 -0.9301 -1.6436
18312TIP3   OH276426   3.037   4.134   2.854 -0.0413  0.6452  0.0152
18312TIP3    H176427   3.005   4.077   2.784 -1.3152  1.3814 -0.0460
18312TIP3    H276428   2.998   4.098   2.933 -0.1550  0.9202  0.0864
18313TIP3   OH276429   6.825   5.590  12.040  0.3350 -0.3801  0.0058
18313TIP3    H176430   6.773   5.667  12.062  0.9052 -0.1822  0.6934
18313TIP3    H276431   6.834   5.593  11.945 -0.6869 -0.2855 -0.1034
18314TIP3   OH276432   2.757   6.084  11.156 -0.0338 -0.1912  0.0080
18314TIP3    H176433   2.830   6.142  11.134 -0.9803  0.8483 -0.4962
18314TIP3    H276434   2.679   6.133  11.130 -0.8927 -1.5037  0.0379
18315TIP3   OH276435   1.789   3.029   2.461 -0.0679  0.9528  0.4599
18315TIP3    H176436   1.832   3.015   2.546 -0.5709 -0.6258  0.4729
18315TIP3    H276437   1.700   3.055   2.484 -0.4471 -0.2881  0.4239
18316TIP3   OH276438   0.655   1.422   5.493 -0.2379  0.3717 -0.2887
18316TIP3    H176439   0.664   1.506   5.448  0.2619  0.9776  0.8823
18316TIP3    H276440   0.581   1.380   5.450 -0.2417  1.2364 -1.1730
18317TIP3   OH276441   6.158   6.485   4.788  0.7055 -0.4395  0.0178
18317TIP3    H176442   6.086   6.439   4.745  0.8368  0.5341 -1.2689
18317TIP3    H276443   6.166   6.441   4.873  0.1522 -2.1134 -0.7520
18318TIP3   OH276444   4.708   5.535   2.605 -0.3022  0.7305  0.2610
18318TIP3    H176445   4.727   5.607   2.545 -0.9982  0.1787 -0.6345
18318TIP3    H276446   4.704   5.577   2.691  2.2432  1.3053  0.1831
18319TIP3   OH276447   4.377   2.905   2.588  0.0149  0.4597  0.2342
18319TIP3    H176448   4.367   2.880   2.496  0.6648  2.8426 -0.5519
18319TIP3    H276449   4.294   2.880   2.628  0.3391 -2.1837 -0.5485
18320TIP3   OH276450   0.967   2.227   1.005  0.4993 -0.5161  0.1489
18320TIP3    H176451   0.986   2.248   1.097 -0.3842  0.4612  0.1304
18320TIP3    H276452   1.050   2.239   0.960  0.5761  0.6697  0.5616
18321TIP3   OH276453   2.437   2.285  12.162  0.5470  0.2137  0.7963
18321TIP3    H176454   2.363   2.323  12.115 -0.7160 -0.1926  2.3765
18321TIP3    H276455   2.503   2.354  12.163 -0.9830  1.7200  1.9906
18322TIP3   OH276456   3.197   0.163  16.833 -0.5541 -0.2556  0.2394
18322TIP3    H176457   3.157   0.161  16.746  0.7927 -0.3818 -0.3977
18322TIP3    H276458   3.211   0.071  16.855  0.4660 -0.1734 -0.0594
18323TIP3   OH276459   6.539   6.135  14.564 -0.4033 -0.5609 -0.0435
18323TIP3    H176460   6.607   6.088  14.612 -0.1667 -0.7892 -0.5928
18323TIP3    H276461   6.581   6.163  14.483 -0.3717  1.1269  0.5148
18324TIP3   OH276462   0.655   4.769  13.701  0.3245 -0.2840 -0.3811
18324TIP3    H176463   0.686   4.703  13.763 -0.1918  0.5350  0.7810
18324TIP3    H276464   0.590   4.819  13.750 -1.8350 -1.0602 -2.3182
18325TIP3   OH276465   4.609   1.278   2.436 -0.5153 -0.1765 -0.1355
18325TIP3    H176466   4.535   1.278   2.497 -1.0165 -1.5087 -0.7191
18325TIP3    H276467   4.622   1.370   2.415 -2.0988  0.0757 -0.1219
18326TIP3   OH276468   1.653   5.790   0.410  0.3271  0.9843 -0.1288
18326TIP3    H176469   1.714   5.827   0.474  0.0178  2.4622 -0.6431
18326TIP3    H276470   1.696   5.802   0.325 -0.4910  1.7040 -0.4625
18327TIP3   OH276471   3.930   3.725  11.351 -0.2949 -0.6281  0.1518
18327TIP3    H176472   3.884   3.672  11.415 -1.0896  0.4973  0.5430
18327TIP3    H276473   3.948   3.665  11.278 -0.5603 -1.5834  0.8591
18328TIP3   OH276474   6.068   5.602   3.952 -0.1320 -0.0707 -0.0689
18328TIP3    H176475   6.098   5.678   4.002  0.1705 -0.4365  0.3173
18328TIP3    H276476   6.051   5.636   3.864 -0.2993  0.5014  0.1831
18329TIP3   OH276477   0.939   6.086   2.584 -0.6721 -0.3893  0.3805
18329TIP3    H176478   0.860   6.069   2.532 -0.5318  1.8641 -0.6776
18329TIP3    H276479   0.919   6.166   2.633  0.4853 -0.5469  1.1427
18330TIP3   OH276480   4.274   3.601   6.263 -0.1082 -0.0755  0.4216
18330TIP3    H176481   4.267   3.538   6.335  0.6577  0.5092  1.0284
18330TIP3    H276482   4.368   3.608   6.246 -0.3016 -0.4516 -0.8781
18331TIP3   OH276483   3.314   0.480   0.609 -0.1253  0.0393 -0.0016
18331TIP3    H176484   3.234   0.522   0.578  0.6197  0.5058 -1.3881
18331TIP3    H276485   3.283   0.406   0.662 -1.4854 -0.3979 -1.3263
18332TIP3   OH276486   5.149   4.572   4.862 -0.3646 -0.3524  0.3711
18332TIP3    H176487   5.159   4.556   4.956  0.2474 -0.4237  0.2974
18332TIP3    H276488   5.193   4.499   4.820 -0.3690 -0.1602  0.0286
18333TIP3   OH276489   6.249   4.893   1.971  0.4230 -0.2732 -0.2561
18333TIP3    H176490   6.238   4.799   1.987 -1.3016  0.2477  2.2207
18333TIP3    H276491   6.209   4.907   1.885 -0.9047 -1.5809  0.0931
18334TIP3   OH276492   6.764   2.146   1.256 -0.1598 -0.4470 -0.2803
18334TIP3    H176493   6.787   2.154   1.348 -0.7785 -3.1085  0.1749
18334TIP3    H276494   6.846   2.166   1.210 -0.0454  1.6999  0.7416
18335TIP3   OH276495   1.135   2.945  13.521 -0.0944  0.8115 -0.2316
18335TIP3    H176496   1.070   2.885  13.557 -0.5559  0.9299 -0.8641
18335TIP3    H276497   1.085   3.009  13.472  0.4370  1.4030 -0.0178
18336TIP3   OH276498   2.960   0.780  15.516  0.0815 -0.3391 -0.3942
18336TIP3    H176499   3.006   0.846  15.464  0.0820  1.0360  1.2457
18336TIP3    H276500   3.023   0.755  15.584 -0.3952 -1.0154 -0.1877
18337TIP3   OH276501   1.832   4.167   0.230 -0.1322  0.0591 -0.1174
18337TIP3    H176502   1.751   4.172   0.179 -1.0624  0.5534  1.3544
18337TIP3    H276503   1.840   4.252   0.272  1.3999  0.1703 -0.5579
18338TIP3   OH276504   6.206   0.199  13.941  0.3466  0.4313  0.0012
18338TIP3    H176505   6.169   0.257  14.008  0.7338  2.6519 -1.5850
18338TIP3    H276506   6.130   0.164  13.894  0.1353  0.3855  0.3733
18339TIP3   OH276507   3.387   1.216  13.402  0.1147  0.2768  0.1010
18339TIP3    H176508   3.339   1.240  13.481 -0.5719 -1.7461  0.3603
18339TIP3    H276509   3.436   1.295  13.379 -0.1272  1.1075  2.1965
18340TIP3   OH276510   5.633   5.808  16.932  0.7444 -0.1871  0.0850
18340TIP3    H176511   5.689   5.737  16.962  1.9898  0.4730 -0.5795
18340TIP3    H276512   5.617   5.788  16.839 -0.1591 -0.3792  0.2735
18341TIP3   OH276513   5.809   5.618   1.321 -0.1225 -0.1643  0.3631
18341TIP3    H176514   5.871   5.604   1.392 -0.8376 -2.2965  0.6250
18341TIP3    H276515   5.852   5.580   1.244 -0.4402 -0.2310  0.2189
18342TIP3   OH276516   2.174   4.510   2.316 -0.1702  0.0903  0.3932
18342TIP3    H176517   2.135   4.484   2.399 -1.0965 -1.5279 -0.4974
18342TIP3    H276518   2.264   4.478   2.320 -0.2918 -0.2193  0.6473
18343TIP3   OH276519   4.706   6.439  10.463  0.0990 -0.4747  0.5661
18343TIP3    H176520   4.746   6.523  10.485 -0.3372 -0.2770  0.6196
18343TIP3    H276521   4.661   6.454  10.380  1.1099 -1.0159 -0.1121
18344TIP3   OH276522   5.147   5.677   4.287  0.3762  0.0977  0.3860
18344TIP3    H176523   5.153   5.682   4.383 -1.6325 -1.9722  0.6926
18344TIP3    H276524   5.127   5.585   4.269 -2.3213  0.9904 -1.7889
18345TIP3   OH276525   6.000   3.190  11.740 -0.1164  0.3669 -0.2275
18345TIP3    H176526   6.031   3.100  11.734  4.7695  1.7519 -0.6202
18345TIP3    H276527   6.014   3.214  11.832  2.6741  1.6858 -0.8631
18346TIP3   OH276528   0.935   3.573  13.428 -0.1545  0.6409 -0.2393
18346TIP3    H176529   0.916   3.661  13.395  0.3463  0.4028 -1.1951
18346TIP3    H276530   0.873   3.561  13.501  0.0145  1.9133  0.1390
18347TIP3   OH276531   4.700   6.477  13.973 -0.1570  0.2889 -0.1667
18347TIP3    H176532   4.618   6.427  13.970 -0.1912  0.2926  0.4719
18347TIP3    H276533   4.716   6.491  14.066  1.2481 -0.8240 -0.1996
18348TIP3   OH276534   4.245   1.944  16.099 -0.4148 -0.2662  0.2478
18348TIP3    H176535   4.257   1.958  16.193 -0.3552  0.6883  0.1106
18348TIP3    H276536   4.319   1.889  16.074  0.3307  0.5848  0.5240
18349TIP3   OH276537   3.702   2.468   4.965 -0.1467  0.1368  0.0026
18349TIP3    H176538   3.664   2.383   4.946 -0.9662  0.1163  1.5467
18349TIP3    H276539   3.627   2.527   4.976  0.3850  0.9050 -0.3972
18350TIP3   OH276540   2.821   5.776   3.377  0.1318 -0.1635 -0.0701
18350TIP3    H176541   2.746   5.835   3.368 -0.6569 -0.7215  2.2273
18350TIP3    H276542   2.798   5.699   3.325  0.9415  1.1997 -2.6579
18351TIP3   OH276543   1.465   4.831  12.459 -0.1745  0.1464  0.5343
18351TIP3    H176544   1.416   4.835  12.541 -1.9040 -1.5890 -0.3377
18351TIP3    H276545   1.493   4.740  12.452 -0.5376  0.1324 -1.0507
18352TIP3   OH276546   3.055   6.500   3.618 -0.1206 -0.0870 -0.5091
18352TIP3    H176547   3.004   6.565   3.569  0.7645  2.6316  1.8916
18352TIP3    H276548   3.143   6.538   3.623  0.5370 -1.6816  0.6281
18353TIP3   OH276549   5.538   1.412  13.457  0.0770 -0.6454  0.3446
18353TIP3    H176550   5.629   1.440  13.467 -0.0054 -0.0701 -0.4045
18353TIP3    H276551   5.489   1.494  13.443 -0.1215 -1.1202 -2.3217
18354TIP3   OH276552   2.768   5.644  12.716 -0.8427  0.0252  0.1207
18354TIP3    H176553   2.838   5.708  12.714 -2.2540  1.6067 -0.6747
18354TIP3    H276554   2.812   5.559  12.707  0.8581  1.0546 -2.3039
18355TIP3   OH276555   3.358   1.468  14.233  0.4985  0.1661 -0.2768
18355TIP3    H176556   3.299   1.420  14.292  0.0685  1.5206  0.4234
18355TIP3    H276557   3.442   1.469  14.278  0.5674 -0.0991 -0.3945
18356TIP3   OH276558   1.669   4.849   6.223 -0.0405 -0.4354  0.0048
18356TIP3    H176559   1.579   4.879   6.233  0.5898  1.8825 -0.7286
18356TIP3    H276560   1.704   4.899   6.150  2.0366 -0.8205  0.6508
18357TIP3   OH276561   0.851   5.098   4.324  0.2825 -0.4746 -0.3413
18357TIP3    H176562   0.778   5.056   4.280  0.9847 -1.2756 -0.7683
18357TIP3    H276563   0.828   5.097   4.417 -0.1747 -0.8629 -0.4564
18358TIP3   OH276564   1.077   5.549   0.854 -0.2026 -0.6542 -0.3051
18358TIP3    H176565   1.103   5.529   0.944  0.8713  0.2729 -0.3806
18358TIP3    H276566   1.153   5.593   0.817 -1.3905  0.9161 -1.0031
18359TIP3   OH276567   2.834   0.228   3.034 -0.2282  0.0649 -0.3854
18359TIP3    H176568   2.784   0.242   3.115 -1.2718 -1.5363 -0.7123
18359TIP3    H276569   2.906   0.170   3.060 -0.1009  0.1913 -0.4554
18360TIP3   OH276570   1.073   0.315  13.900 -0.1790  0.2354  0.0570
18360TIP3    H176571   1.126   0.251  13.949 -1.3474  0.9663  2.4446
18360TIP3    H276572   1.128   0.341  13.827  1.5674 -1.1935  0.7888
18361TIP3   OH276573   0.312   1.578  16.122  0.4082 -0.2956 -0.2038
18361TIP3    H176574   0.345   1.498  16.162  2.7540  1.4107  1.5735
18361TIP3    H276575   0.226   1.591  16.161  1.4255 -0.2065  2.1759
18362TIP3   OH276576   1.698   1.055   5.121 -0.3133 -0.3104 -0.1935
18362TIP3    H176577   1.655   1.058   5.207 -0.7628 -1.2739 -0.3663
18362TIP3    H276578   1.694   1.145   5.089 -1.2485 -0.1754  0.2603
18363TIP3   OH276579   3.671   0.210   2.167 -0.1082  0.3205 -0.4669
18363TIP3    H176580   3.621   0.185   2.245 -1.0908  0.4449 -1.0425
18363TIP3    H276581   3.760   0.223   2.200 -0.8689  2.3725  1.0752
18364TIP3   OH276582   2.204   4.352   5.589  0.0065  0.1767 -0.2883
18364TIP3    H176583   2.140   4.345   5.518 -0.7411 -1.0694  0.4747
18364TIP3    H276584   2.225   4.261   5.611  1.2078  0.5574  0.2314
18365TIP3   OH276585   2.414   3.691  15.530 -0.0666  0.2033 -0.7978
18365TIP3    H176586   2.330   3.735  15.537  0.0404  0.3289 -0.2208
18365TIP3    H276587   2.461   3.739  15.462 -0.2052  0.5608 -0.6424
18366TIP3   OH276588   6.824   6.431  16.060 -0.2639  0.1538 -0.3565
18366TIP3    H176589   6.837   6.381  16.140 -0.5123  0.3471 -0.1932
18366TIP3    H276590   6.745   6.394  16.020  0.0732 -0.1899 -0.7024
18367TIP3   OH276591   1.753   0.360   0.400 -0.1968  0.0537  0.7161
18367TIP3    H176592   1.759   0.422   0.327  0.5407  0.2732  0.9551
18367TIP3    H276593   1.756   0.274   0.358  2.4411  0.1222  0.5586
18368TIP3   OH276594   3.359   0.068   1.651 -0.4481 -1.0358 -0.4174
18368TIP3    H176595   3.355   0.110   1.736 -0.7072 -0.0474 -0.9014
18368TIP3    H276596   3.375   0.140   1.589 -1.2771 -1.5851 -1.3031
18369TIP3   OH276597   5.134   1.293  15.584  0.1785  0.1500  0.4115
18369TIP3    H176598   5.179   1.220  15.628  0.1536 -0.3010 -0.2911
18369TIP3    H276599   5.059   1.252  15.542  0.3918  0.5072 -0.3376
18370TIP3   OH276600   0.761   2.689  12.718 -0.4991 -0.0925  0.6362
18370TIP3    H176601   0.853   2.712  12.703 -0.6116  0.3036  0.5317
18370TIP3    H276602   0.730   2.753  12.782 -1.1041  0.7390 -0.4561
18371TIP3   OH276603   0.508   6.683  15.608  0.7305  0.0616 -0.7716
18371TIP3    H176604   0.448   6.698  15.681  1.3175 -0.3734 -0.1790
18371TIP3    H276605   0.551   6.767  15.594 -0.7008  0.6402 -1.8531
18372TIP3   OH276606   4.126   0.553  13.342  0.4486  0.0396 -0.1314
18372TIP3    H176607   4.117   0.590  13.254 -0.5658  1.5800  0.5835
18372TIP3    H276608   4.087   0.466  13.335  1.4747 -0.3560 -1.4755
18373TIP3   OH276609   5.950   2.079  14.924  0.2390 -0.4421  0.1420
18373TIP3    H176610   6.045   2.096  14.920  0.3569 -1.1396 -0.1486
18373TIP3    H276611   5.910   2.161  14.897  0.7628 -0.1805  0.1387
18374TIP3   OH276612   4.230   1.195   3.242 -0.0543  0.1352  0.4526
18374TIP3    H176613   4.302   1.216   3.301  0.2878 -1.5614  0.6858
18374TIP3    H276614   4.256   1.113   3.199  0.0399  1.6543 -2.6443
18375TIP3   OH276615   0.638   4.264  13.820  0.2077  0.4063 -0.2251
18375TIP3    H176616   0.583   4.227  13.889  0.3034  0.8454  0.0868
18375TIP3    H276617   0.597   4.234  13.738 -0.5481  0.8057  0.0024
18376TIP3   OH276618   6.729   1.893   2.148 -0.1470  0.0535 -0.4343
18376TIP3    H176619   6.723   1.879   2.054 -1.6732  1.0424 -0.5231
18376TIP3    H276620   6.701   1.810   2.186  1.5068 -0.7106 -0.8139
18377TIP3   OH276621   3.406   5.607   0.451 -0.7357 -0.3306  0.1768
18377TIP3    H176622   3.423   5.694   0.488  0.2761 -0.9007  1.1494
18377TIP3    H276623   3.311   5.601   0.445 -0.8025  1.2616 -1.0022
18378TIP3   OH276624   5.330   0.356  15.709  0.2102 -0.2619 -0.5464
18378TIP3    H176625   5.252   0.392  15.751  0.9611  1.0090 -0.2113
18378TIP3    H276626   5.345   0.273  15.754  0.7402  0.8588  1.4330
18379TIP3   OH276627   6.337   6.599   0.444 -0.3979 -0.0450  0.3230
18379TIP3    H176628   6.267   6.559   0.392  0.5656 -1.2208 -0.1040
18379TIP3    H276629   6.396   6.637   0.378  0.5199 -1.0255  0.5557
18380TIP3   OH276630   4.820   6.734   3.226 -0.2041  0.1894 -0.7109
18380TIP3    H176631   4.866   6.751   3.308  0.6053  0.5702 -1.2323
18380TIP3    H276632   4.727   6.737   3.250  0.0293 -0.3510  0.3075
18381TIP3   OH276633   1.278   2.031   2.856  0.2761 -0.0070 -0.6435
18381TIP3    H176634   1.264   1.937   2.863 -0.7802  0.2082  0.4697
18381TIP3    H276635   1.300   2.059   2.944  1.1070  0.7263 -1.0643
18382TIP3   OH276636   0.169   0.898  16.143 -0.4265  0.7970  0.1074
18382TIP3    H176637   0.256   0.860  16.156 -0.6788  0.2701  0.2684
18382TIP3    H276638   0.185   0.992  16.134  0.0100  0.8899  1.6631
18383TIP3   OH276639   5.413   2.316  10.681 -0.8134  0.6545  0.0600
18383TIP3    H176640   5.364   2.284  10.605 -0.6466 -0.1236  0.2772
18383TIP3    H276641   5.449   2.400  10.652  0.2618 -0.1923 -1.1415
18384TIP3   OH276642   5.571   6.525   4.301  0.0696 -0.3234  0.2876
18384TIP3    H176643   5.624   6.472   4.240 -0.5236 -1.4253  0.7001
18384TIP3    H276644   5.619   6.607   4.309 -0.0841  0.0800 -2.0772
18385TIP3   OH276645   4.414   3.960   0.630  0.2269 -0.1878 -0.0285
18385TIP3    H176646   4.454   4.035   0.675 -1.3354 -0.3557  1.8048
18385TIP3    H276647   4.462   3.884   0.662  0.2089 -0.1643  0.0553
18386TIP3   OH276648   2.583   3.815  16.281 -0.8583 -0.0387 -0.1374
18386TIP3    H176649   2.570   3.908  16.301  0.4340  0.6696 -2.2926
18386TIP3    H276650   2.533   3.799  16.202  0.6956 -0.5649 -1.0637
18387TIP3   OH276651   5.733   1.869   2.903 -0.1050  0.3157 -0.0155
18387TIP3    H176652   5.793   1.942   2.890  0.2150 -0.0070 -0.3848
18387TIP3    H276653   5.656   1.893   2.851  0.2298  0.1275 -0.6072
18388TIP3   OH276654   0.952   5.916   4.997  0.2361 -0.3036 -0.7739
18388TIP3    H176655   0.904   5.842   4.960  1.2225 -0.8590 -0.9664
18388TIP3    H276656   1.025   5.877   5.045 -0.3379  0.4466  0.8220
18389TIP3   OH276657   0.053   5.424   3.019 -0.5299 -0.4283  0.0961
18389TIP3    H176658   0.019   5.336   3.035 -1.3613 -0.5625 -2.0418
18389TIP3    H276659   0.107   5.415   2.940 -3.0196  1.4292 -1.9985
18390TIP3   OH276660   1.469   4.662   4.449 -0.3162 -0.1530  0.7057
18390TIP3    H176661   1.475   4.609   4.370 -0.0311 -0.8861  1.2112
18390TIP3    H276662   1.434   4.746   4.418  1.4261  0.1913 -0.4827
18391TIP3   OH276663   3.800   5.358   5.785 -0.1897  0.3247 -0.0730
18391TIP3    H176664   3.842   5.317   5.861 -0.2745  0.6152  0.1342
18391TIP3    H276665   3.868   5.412   5.746  0.6487 -1.8262 -1.7631
18392TIP3   OH276666   4.607   3.964  14.847  0.5743  0.4986 -0.7646
18392TIP3    H176667   4.623   3.892  14.909 -0.0470  0.9909 -0.0233
18392TIP3    H276668   4.572   4.035  14.900 -1.9452  0.2561 -1.9495
18393TIP3   OH276669   0.734   6.359   3.687 -0.0026  0.0715  0.4546
18393TIP3    H176670   0.700   6.272   3.706  0.8095 -0.4045 -0.1985
18393TIP3    H276671   0.681   6.418   3.741 -1.1263 -0.7338  0.2745
18394TIP3   OH276672   5.342   0.873   2.791  0.0335 -0.0971 -0.2773
18394TIP3    H176673   5.430   0.845   2.766  0.6133 -1.7670  3.1062
18394TIP3    H276674   5.354   0.959   2.831 -0.0289  0.0760 -0.6269
18395TIP3   OH276675   6.438   1.423   3.465  0.0870 -0.2976 -0.1393
18395TIP3    H176676   6.468   1.454   3.550 -2.7964  0.0035  0.8730
18395TIP3    H276677   6.378   1.351   3.486 -0.1799 -0.6487 -1.9660
18396TIP3   OH276678   0.493   2.117  14.249 -0.1796  0.8491 -0.0312
18396TIP3    H176679   0.399   2.111  14.230  0.0348 -1.4587 -0.7385
18396TIP3    H276680   0.507   2.208  14.273 -2.7905  1.0453  1.1525
18397TIP3   OH276681   5.015   0.249   2.788 -0.1461  0.3655  0.9983
18397TIP3    H176682   4.990   0.227   2.878  0.1738  1.8930  1.4939
18397TIP3    H276683   4.935   0.233   2.737 -0.0157 -1.5976  1.3156
18398TIP3   OH276684   1.996   4.727   0.837  0.3256  0.1102  0.4474
18398TIP3    H176685   1.953   4.649   0.872 -1.5816 -0.4061 -2.6776
18398TIP3    H276686   1.928   4.771   0.786  1.5896  3.4115  1.3470
18399TIP3   OH276687   1.407   2.016  13.044  0.2409  0.3991 -0.3757
18399TIP3    H176688   1.335   1.964  13.008 -0.4695  0.9959  0.1583
18399TIP3    H276689   1.457   2.044  12.967  1.4322 -2.1230 -0.6459
18400TIP3   OH276690   6.487   5.280  12.098 -0.2042 -0.9444 -0.5227
18400TIP3    H176691   6.470   5.314  12.186  1.1585  1.3626 -1.0824
18400TIP3    H276692   6.449   5.192  12.099 -0.1893 -1.0126  2.3791
18401TIP3   OH276693   4.033   4.961   5.068 -0.0231  0.3615 -0.1048
18401TIP3    H176694   4.109   4.950   5.010 -0.4144 -0.8172 -0.4168
18401TIP3    H276695   4.066   5.016   5.139  1.1060 -0.0375 -0.2913
18402TIP3   OH276696   3.859   3.601   4.900 -0.4287 -0.1946 -0.3802
18402TIP3    H176697   3.818   3.671   4.848 -1.2848  0.5028  1.1529
18402TIP3    H276698   3.939   3.641   4.934  1.0405 -1.2128 -2.5120
18403TIP3   OH276699   4.667   4.034  10.242 -0.2992 -0.3445 -0.1756
18403TIP3    H176700   4.626   4.050  10.327 -1.3211 -2.4722 -0.1987
18403TIP3    H276701   4.601   4.061  10.178  0.1046  0.3738 -0.3016
18404TIP3   OH276702   6.331   3.569  16.144 -0.6419  0.1726 -0.2446
18404TIP3    H176703   6.415   3.543  16.106 -0.5177 -0.4381  0.4248
18404TIP3    H276704   6.345   3.660  16.172 -1.0392  0.9804 -2.4781
18405TIP3   OH276705   2.444   5.410   3.718  0.0318 -0.4389  0.3938
18405TIP3    H176706   2.409   5.498   3.734  1.3661  0.1795  0.0769
18405TIP3    H276707   2.539   5.422   3.717  0.2136 -1.4259 -2.2001
18406TIP3   OH276708   4.707   1.324   5.299 -0.1142  0.3780 -0.5012
18406TIP3    H176709   4.641   1.389   5.321  0.0987  0.9451 -1.4991
18406TIP3    H276710   4.785   1.374   5.276  1.4022 -0.2732  2.6018
18407TIP3   OH276711   1.098   1.175   6.150  0.9971 -1.1160  0.4902
18407TIP3    H176712   1.064   1.227   6.077  0.4447 -0.1745  1.3994
18407TIP3    H276713   1.050   1.092   6.144  0.3756 -0.7483  0.2371
18408TIP3   OH276714   4.227   1.959  13.127  0.2971  0.3825  0.3190
18408TIP3    H176715   4.236   1.869  13.159 -0.8931  0.3125  0.5042
18408TIP3    H276716   4.161   1.953  13.058  0.4218  1.0739  0.1327
18409TIP3   OH276717   0.212   5.434   0.145 -0.1902  0.3318 -0.4463
18409TIP3    H176718   0.162   5.395   0.073  0.3685 -1.5430  0.1360
18409TIP3    H276719   0.246   5.516   0.109 -0.0253 -0.5061 -2.2889
18410TIP3   OH276720   4.607   4.535   1.520  0.2907 -0.0413  0.6134
18410TIP3    H176721   4.617   4.442   1.500 -1.2566 -0.1710  0.3053
18410TIP3    H276722   4.696   4.568   1.529  0.9677 -1.0155 -1.8070
18411TIP3   OH276723   4.357   4.317  14.703 -0.1911 -0.6560  0.0931
18411TIP3    H176724   4.327   4.263  14.776 -0.2121  1.2120  1.5550
18411TIP3    H276725   4.447   4.288  14.688  0.0311 -0.6650  1.3143
18412TIP3   OH276726   2.252   4.230  15.091  0.4016 -0.2108  0.0629
18412TIP3    H176727   2.224   4.229  15.000 -1.0855 -0.5599  0.5068
18412TIP3    H276728   2.337   4.185  15.090 -0.7438 -2.5061 -0.8040
18413TIP3   OH276729   5.072   1.007   0.572 -0.6831  0.1110  0.1037
18413TIP3    H176730   5.015   1.015   0.496  0.9776 -1.1941 -1.3641
18413TIP3    H276731   5.157   1.038   0.542 -0.0713 -0.0333  1.5758
18414TIP3   OH276732   4.591   2.717  15.695  0.0889 -0.3970 -0.1034
18414TIP3    H176733   4.548   2.801  15.680  2.5718  1.4408  2.0930
18414TIP3    H276734   4.672   2.722  15.644  0.9105 -0.8577  1.1143
18415TIP3   OH276735   2.584   0.879  16.220 -0.1339  0.2043 -0.1926
18415TIP3    H176736   2.598   0.875  16.314  2.2867 -0.7151 -0.4954
18415TIP3    H276737   2.547   0.965  16.204 -1.2032  0.1329  1.6308
18416TIP3   OH276738   4.817   4.332  11.283 -0.0433  0.4723  0.3098
18416TIP3    H176739   4.839   4.245  11.249 -1.6712  0.5644 -1.1722
18416TIP3    H276740   4.852   4.393  11.218  1.7413  1.0188  1.7134
18417TIP3   OH276741   5.279   4.708   6.041  0.1092 -0.1549  0.0078
18417TIP3    H176742   5.355   4.669   5.996  0.0277  0.6253 -0.8347
18417TIP3    H276743   5.308   4.797   6.064 -0.6759  0.2862 -0.6749
18418TIP3   OH276744   1.803   0.748   1.345 -0.7459 -0.1023  0.7038
18418TIP3    H176745   1.860   0.675   1.319  1.8846  1.8305  0.5492
18418TIP3    H276746   1.757   0.772   1.265 -1.3063 -1.2719  0.6559
18419TIP3   OH276747   3.711   5.019   1.486  0.0142  0.2459 -0.3311
18419TIP3    H176748   3.667   4.959   1.426 -0.5022 -0.3623  0.6368
18419TIP3    H276749   3.748   5.086   1.429 -0.8110 -0.0914 -1.3043
18420TIP3   OH276750   4.730   4.917  16.836  0.1895  0.3093  0.3166
18420TIP3    H176751   4.780   4.999  16.831  1.3188 -0.2437  1.9311
18420TIP3    H276752   4.651   4.940  16.884 -0.1240  0.7185 -0.3767
18421TIP3   OH276753   6.294   0.128   0.090 -0.2641 -0.3464  0.1938
18421TIP3    H176754   6.312   0.039   0.122  0.2614 -0.7764 -1.2358
18421TIP3    H276755   6.361   0.182   0.131  0.3634 -0.8708 -0.1227
18422TIP3   OH276756   1.574   4.826  16.292  0.3578  0.0222  0.2757
18422TIP3    H176757   1.597   4.735  16.311  1.7791 -0.0004 -1.3025
18422TIP3    H276758   1.523   4.822  16.211  1.7158  0.6949 -0.6623
18423TIP3   OH276759   3.037   6.276  14.788 -1.0052 -0.4520  0.8523
18423TIP3    H176760   3.104   6.237  14.845 -1.6115 -0.6378  1.4616
18423TIP3    H276761   3.054   6.370  14.792 -0.0682 -0.5718  0.0652
18424TIP3   OH276762   6.070   6.635  12.434  0.1212  0.4724 -0.5153
18424TIP3    H176763   6.141   6.622  12.371  0.2560 -0.2454 -0.2340
18424TIP3    H276764   6.109   6.613  12.518 -0.5281 -0.3038 -0.4022
18425TIP3   OH276765   0.246   1.767   1.727 -0.3615 -0.3526  0.0191
18425TIP3    H176766   0.192   1.731   1.656 -0.7429  0.2965 -0.0248
18425TIP3    H276767   0.299   1.834   1.685 -2.1764  1.6219  0.7058
18426TIP3   OH276768   6.175   2.566  11.018 -0.3126 -0.3760  0.3695
18426TIP3    H176769   6.096   2.524  11.052 -2.2262  3.8017  1.7705
18426TIP3    H276770   6.156   2.582  10.925 -0.2110 -1.1445  0.2091
18427TIP3   OH276771   6.255   0.388   0.412 -0.2805 -0.3177  0.4253
18427TIP3    H176772   6.333   0.336   0.395 -0.2364 -0.8006  1.9281
18427TIP3    H276773   6.184   0.325   0.419 -0.3514 -0.1428  1.5463
18428TIP3   OH276774   1.100   1.472  15.596 -0.0293  0.4931 -0.3786
18428TIP3    H176775   1.177   1.431  15.557  0.9091  0.7926  1.1103
18428TIP3    H276776   1.113   1.566  15.585 -0.8140  0.5278 -1.2254
18429TIP3   OH276777   2.698   5.191  12.434  0.3692 -0.8162  0.1564
18429TIP3    H176778   2.604   5.203  12.420  0.6165 -1.0973 -2.0171
18429TIP3    H276779   2.721   5.116  12.380  2.2388  0.5622 -1.0850
18430TIP3   OH276780   3.743   5.020   4.534  0.0264 -0.2623  0.0749
18430TIP3    H176781   3.732   4.927   4.516 -0.9452 -0.5851  2.0386
18430TIP3    H276782   3.697   5.034   4.617  0.7848  1.8224  0.2098
18431TIP3   OH276783   4.538   1.318   6.041  0.0053  0.3170 -0.3796
18431TIP3    H176784   4.522   1.287   6.130  0.2330 -2.2691 -1.1528
18431TIP3    H276785   4.616   1.269   6.013 -1.3555 -0.6850 -2.7250
18432TIP3   OH276786   5.624   2.195  14.615  0.2665  0.2615 -0.5741
18432TIP3    H176787   5.608   2.132  14.544  1.2432  0.5643 -1.0779
18432TIP3    H276788   5.574   2.273  14.588 -3.0875 -1.0487  1.2950
18433TIP3   OH276789   0.019   5.905  14.370 -0.0298 -0.4516 -0.0423
18433TIP3    H176790  -0.068   5.870  14.388 -0.8412  0.9001 -1.1033
18433TIP3    H276791   0.024   5.986  14.421  1.6050 -1.7242  1.9628
18434TIP3   OH276792   2.352   6.500  14.608  0.2939 -0.6098 -0.3080
18434TIP3    H176793   2.433   6.550  14.606  1.6382 -2.5496  1.6481
18434TIP3    H276794   2.294   6.550  14.665 -0.6630  1.6785 -3.0429
18435TIP3   OH276795   6.341   1.209   4.961  0.0360  0.1934 -0.0266
18435TIP3    H176796   6.376   1.128   4.925 -0.3609  0.6476 -1.5446
18435TIP3    H276797   6.247   1.206   4.941  0.1630  1.4148 -0.9956
18436TIP3   OH276798   4.158   4.253  15.448 -0.1886  0.3525  0.2441
18436TIP3    H176799   4.125   4.278  15.535 -0.3324 -0.6654  0.4918
18436TIP3    H276800   4.106   4.176  15.424  0.1538  0.3620 -0.5584
18437TIP3   OH276801   5.616   2.469   3.440 -0.5420  0.0765 -0.1696
18437TIP3    H176802   5.646   2.554   3.472 -0.5359  0.4966 -1.2579
18437TIP3    H276803   5.668   2.405   3.489  0.3468  0.7296 -0.2482
18438TIP3   OH276804   1.838   0.187  16.147  0.5255 -0.2902 -0.2014
18438TIP3    H176805   1.759   0.216  16.194  0.5899  0.3810 -0.5002
18438TIP3    H276806   1.808   0.172  16.058  0.5520 -0.9040 -0.1094
18439TIP3   OH276807   3.585   5.054  16.372 -0.5393  0.4953 -0.4917
18439TIP3    H176808   3.632   5.133  16.397  0.3320  0.4590 -1.8821
18439TIP3    H276809   3.504   5.086  16.332 -0.7682  0.6359  0.0828
18440TIP3   OH276810   3.570   6.047   1.147  0.0881 -0.3341 -0.4003
18440TIP3    H176811   3.520   5.966   1.155 -1.5413  0.6959  0.2375
18440TIP3    H276812   3.569   6.085   1.235 -1.7158  1.7920 -1.2430
18441TIP3   OH276813   3.673   1.169  15.141  0.1439  0.0975 -0.1428
18441TIP3    H176814   3.580   1.194  15.144  0.4264  1.2423 -0.4544
18441TIP3    H276815   3.696   1.175  15.048  1.2149  2.5517  0.2178
18442TIP3   OH276816   2.544   5.992  12.869 -0.2220 -0.7303  0.2536
18442TIP3    H176817   2.560   6.082  12.896  0.7800 -0.8635  0.1422
18442TIP3    H276818   2.454   5.992  12.837  0.7763  1.0909 -3.0752
18443TIP3   OH276819   0.875   4.698  13.980  0.6673  0.1247  0.2920
18443TIP3    H176820   0.795   4.650  13.961  0.1652  1.4986 -1.3321
18443TIP3    H276821   0.861   4.734  14.067  0.4416 -1.3743  0.9069
18444TIP3   OH276822   3.985   6.320  14.909 -0.1431 -0.0669 -0.8540
18444TIP3    H176823   3.990   6.413  14.932 -3.4138  0.4836 -1.8080
18444TIP3    H276824   3.978   6.275  14.994  2.6762  0.3293 -0.3163
18445TIP3   OH276825   4.583   3.841   5.296  0.2210  0.1912 -0.2290
18445TIP3    H176826   4.502   3.800   5.268  0.5850 -0.5783 -0.1829
18445TIP3    H276827   4.570   3.935   5.280  0.5561 -0.2108 -3.3896
18446TIP3   OH276828   5.581   4.829   3.406  0.2471  0.0932 -0.0013
18446TIP3    H176829   5.576   4.825   3.311 -0.2693  0.4275  0.0058
18446TIP3    H276830   5.513   4.892   3.431 -1.3790 -1.8551  0.7490
18447TIP3   OH276831   4.261   0.480  14.381  0.3704  0.2058  0.1002
18447TIP3    H176832   4.178   0.504  14.340  0.1870 -0.9940 -0.2705
18447TIP3    H276833   4.324   0.481  14.309  0.4672  0.0853  0.1835
18448TIP3   OH276834   5.985   5.007   1.038 -0.6410  0.2544  0.1054
18448TIP3    H176835   6.022   4.929   1.079 -2.1506 -0.3733  0.3372
18448TIP3    H276836   5.897   5.014   1.075 -1.7421  0.1909 -2.2853
18449TIP3   OH276837   4.539   2.460  11.704 -0.4521  0.0800  0.2123
18449TIP3    H176838   4.499   2.432  11.622  1.2431  0.3674 -0.7716
18449TIP3    H276839   4.591   2.537  11.680 -0.2582  0.4108  1.6417
18450TIP3   OH276840   4.705   1.701  13.670  0.9029  0.1029 -0.1289
18450TIP3    H176841   4.698   1.610  13.698  3.0211 -0.3128 -0.7429
18450TIP3    H276842   4.620   1.740  13.691  0.5146 -1.5829  1.6674
18451TIP3   OH276843   6.173   1.906  16.806  0.0652 -0.0265  0.5133
18451TIP3    H176844   6.112   1.864  16.746  0.8268  1.5029 -1.4158
18451TIP3    H276845   6.147   1.998  16.806  2.0266  0.5663  0.0335
18452TIP3   OH276846   6.713   5.014   4.786 -0.0461 -0.8620  0.0372
18452TIP3    H176847   6.667   4.987   4.865  0.9138 -0.6503  0.6832
18452TIP3    H276848   6.737   5.105   4.802  0.2526 -0.8497 -0.4492
18453TIP3   OH276849   0.370   0.374  16.959  0.6887 -0.3568  0.0372
18453TIP3    H176850   0.379   0.373  16.864  0.0046  0.1478 -0.0432
18453TIP3    H276851   0.438   0.314  16.991  0.4067 -1.1405 -0.8076
18454TIP3   OH276852   0.425   3.547  14.559 -0.0491  0.3230  0.1478
18454TIP3    H176853   0.509   3.543  14.513  0.3721 -1.0844  0.9763
18454TIP3    H276854   0.438   3.492  14.636 -1.0139  1.9040  1.4958
18455TIP3   OH276855   3.331   5.441   2.231 -0.5148 -0.0440  0.5805
18455TIP3    H176856   3.410   5.423   2.282  0.4249  2.0588  0.0186
18455TIP3    H276857   3.296   5.522   2.269 -0.4928  0.8850 -1.2272
18456TIP3   OH276858   2.199   3.032   5.427 -0.2021  0.2987 -0.4757
18456TIP3    H176859   2.206   3.123   5.453  0.9261 -0.1423  0.9459
18456TIP3    H276860   2.283   3.013   5.384 -1.2004  0.4214 -2.6054
18457TIP3   OH276861   0.724   5.308   2.953  0.0312  0.6844  0.8117
18457TIP3    H176862   0.732   5.385   2.897 -0.1939  1.5066  1.8818
18457TIP3    H276863   0.799   5.314   3.012 -0.1255  0.2081  1.0611
18458TIP3   OH276864   0.276   6.086  11.620  0.1216  0.2850  0.2785
18458TIP3    H176865   0.336   6.161  11.627  1.2696 -0.5321 -0.3387
18458TIP3    H276866   0.201   6.119  11.571  0.8479  0.9117 -0.4397
18459TIP3   OH276867   0.362   1.231   3.306 -0.1103  0.4929  0.3293
18459TIP3    H176868   0.318   1.265   3.384 -0.4366  1.7223 -0.3774
18459TIP3    H276869   0.442   1.190   3.341 -1.3743 -1.1192  1.5390
18460TIP3   OH276870   1.511   2.744  16.512  0.0191  0.1632  0.3068
18460TIP3    H176871   1.513   2.791  16.429 -2.4201 -0.4435 -0.1908
18460TIP3    H276872   1.541   2.656  16.490  1.9309  0.6818  0.6699
18461TIP3   OH276873   1.615   0.502  16.141 -0.2980 -0.3526  0.2653
18461TIP3    H176874   1.620   0.463  16.228  1.0589 -1.6967 -0.3708
18461TIP3    H276875   1.529   0.478  16.109  0.5337 -3.1158 -0.1715
18462TIP3   OH276876   5.063   5.684  15.676 -0.4495  0.3627 -0.8527
18462TIP3    H176877   5.108   5.765  15.652  1.2500  0.0946  1.1693
18462TIP3    H276878   5.004   5.709  15.747 -0.3461 -0.0540 -0.6137
18463TIP3   OH276879   3.394   5.358  15.029 -0.2020 -0.5394  0.1733
18463TIP3    H176880   3.450   5.283  15.048  2.6767  0.8589 -2.0978
18463TIP3    H276881   3.408   5.377  14.937 -3.2213  0.9943 -0.1181
18464TIP3   OH276882   2.061   0.312  12.438  0.1724  0.0302  0.4362
18464TIP3    H176883   2.062   0.372  12.363 -0.1167 -1.0304 -0.4416
18464TIP3    H276884   2.148   0.271  12.437  0.2968  0.2734  0.9127
18465TIP3   OH276885   4.136   0.378   5.647  0.0218  0.1357 -0.1980
18465TIP3    H176886   4.077   0.305   5.662  0.6416 -0.2736  0.2822
18465TIP3    H276887   4.223   0.338   5.637  0.0917  0.6295 -1.9771
18466TIP3   OH276888   0.922   0.697   2.570  0.7970 -0.2021 -0.2918
18466TIP3    H176889   0.890   0.649   2.493 -0.4178  0.2325 -0.0705
18466TIP3    H276890   0.988   0.757   2.535  0.4673 -0.2164 -0.9507
18467TIP3   OH276891   2.749   2.173  14.177 -0.3980  0.8108 -0.1170
18467TIP3    H176892   2.655   2.188  14.180 -0.4838  0.1240  1.4256
18467TIP3    H276893   2.784   2.221  14.253  0.3677  0.2897 -0.1246
18468TIP3   OH276894   0.976   2.526  15.350 -0.1096 -0.6191 -0.3666
18468TIP3    H176895   1.045   2.478  15.394 -0.0994 -0.5437 -0.2996
18468TIP3    H276896   0.936   2.463  15.291  1.3126 -0.1769 -1.8993
18469TIP3   OH276897   1.825   5.166  11.008 -0.1218 -0.1157  0.1608
18469TIP3    H176898   1.908   5.149  10.964  0.5250 -0.0938  1.3463
18469TIP3    H276899   1.816   5.096  11.072 -0.5077  0.4583  0.7523
18470TIP3   OH276900   1.011   6.799  13.171 -0.2485 -0.2762 -0.0652
18470TIP3    H176901   0.928   6.847  13.179 -0.0574 -0.1613  1.6000
18470TIP3    H276902   1.050   6.804  13.258  0.7571 -1.7085 -0.3949
18471TIP3   OH276903   2.179   0.472  13.384 -0.1338 -0.7769  0.2584
18471TIP3    H176904   2.210   0.426  13.305  0.0754 -1.2361  0.6030
18471TIP3    H276905   2.194   0.565  13.365  0.0374 -0.8944 -0.1930
18472TIP3   OH276906   0.453   1.436  16.878 -0.0131  0.5750 -0.4567
18472TIP3    H176907   0.520   1.384  16.834 -0.2655 -0.2670  0.1236
18472TIP3    H276908   0.380   1.439  16.816 -1.2986 -2.6002  0.7098
18473TIP3   OH276909   4.284   1.411  12.037 -0.3501 -0.3012  0.3623
18473TIP3    H176910   4.324   1.327  12.017 -2.0909 -1.6205  1.9809
18473TIP3    H276911   4.353   1.460  12.083  0.9750 -0.4219 -1.3941
18474TIP3   OH276912   5.737   2.214  16.498 -0.3591  0.3099  0.1592
18474TIP3    H176913   5.775   2.255  16.576  1.2970 -0.0069 -0.4385
18474TIP3    H276914   5.806   2.157  16.465 -0.7636  0.9404 -1.9236
18475TIP3   OH276915   6.480   0.071  15.754  0.2934 -0.0735 -0.2708
18475TIP3    H176916   6.554   0.055  15.696 -0.2542  0.2114 -1.0685
18475TIP3    H276917   6.403   0.048  15.702 -0.2403  0.7091  0.1458
18476TIP3   OH276918   3.035   0.185   0.076 -0.4961  0.1264 -0.0224
18476TIP3    H176919   3.054   0.201   0.169  1.5144  1.3122 -0.5617
18476TIP3    H276920   3.030   0.090   0.068  1.2360 -0.0942  1.0073
18477TIP3   OH276921   3.091   1.407  11.160  0.4132  0.1305 -0.0799
18477TIP3    H176922   3.180   1.432  11.187  0.1790  1.8522 -0.8100
18477TIP3    H276923   3.091   1.417  11.065 -0.5918  0.2803 -0.0757
18478TIP3   OH276924   1.329   5.465   4.320  0.2796  0.5957  0.0497
18478TIP3    H176925   1.273   5.392   4.295  1.9884 -0.9104  0.3986
18478TIP3    H276926   1.353   5.506   4.237 -4.0148  3.5852 -0.0558
18479TIP3   OH276927   6.759   5.039  12.623 -0.0995  0.2966 -0.8353
18479TIP3    H176928   6.698   4.975  12.660  1.6588 -1.8778 -1.4512
18479TIP3    H276929   6.845   4.998  12.633  0.9880  2.0545 -2.3775
18480TIP3   OH276930   1.483   1.683  10.967 -0.1695 -0.1472  0.0598
18480TIP3    H176931   1.428   1.605  10.970 -0.0962 -0.2023 -0.0108
18480TIP3    H276932   1.504   1.702  11.058  0.0551 -0.3815  0.0591
18481TIP3   OH276933   6.102   2.619  10.740  1.1178  0.1160  0.1968
18481TIP3    H176934   6.077   2.682  10.673  1.8205  0.5271  0.3191
18481TIP3    H276935   6.080   2.533  10.702  0.4853  0.4016 -0.1051
18482TIP3   OH276936   0.819   3.795  13.010 -0.5543  0.2621 -0.6053
18482TIP3    H176937   0.818   3.881  13.052  0.4064  0.0783 -0.1619
18482TIP3    H276938   0.727   3.771  13.001 -0.8071  0.2893  1.4684
18483TIP3   OH276939   3.824   6.719   4.431  0.3887  0.1064  0.3117
18483TIP3    H176940   3.900   6.766   4.396 -0.4674  0.5534 -1.0202
18483TIP3    H276941   3.841   6.715   4.526  0.6362  2.9245  0.4893
18484TIP3   OH276942   2.055   0.166  11.319 -0.3312  0.4652 -0.0857
18484TIP3    H176943   2.074   0.155  11.412 -2.3265 -0.4455  0.2447
18484TIP3    H276944   1.983   0.105  11.301 -0.1464  0.7884 -2.1800
18485TIP3   OH276945   1.374   3.685  13.933 -0.0827  0.3377  0.4974
18485TIP3    H176946   1.465   3.654  13.934 -0.1558  0.0674 -0.5223
18485TIP3    H276947   1.369   3.743  13.857 -0.7379  0.4289  0.6075
18486TIP3   OH276948   3.462   0.703   3.830 -0.4928  0.2136  0.7064
18486TIP3    H176949   3.381   0.667   3.794 -1.1136  1.9801  0.2326
18486TIP3    H276950   3.462   0.795   3.803  0.5963  0.8180  2.5673
18487TIP3   OH276951   0.089   4.395  12.367  0.1370 -0.0747  0.1048
18487TIP3    H176952   0.075   4.408  12.461 -0.2383 -1.6843  0.2969
18487TIP3    H276953   0.077   4.482  12.329 -0.8203  0.4027  1.4193
18488TIP3   OH276954   5.113   4.719   0.139  0.4779 -0.0522  0.0283
18488TIP3    H176955   5.052   4.700   0.067  0.2765  0.0708  0.1653
18488TIP3    H276956   5.194   4.675   0.113  0.5621  0.4102 -0.5145
18489TIP3   OH276957   0.089   0.713   2.303  0.2834  0.2661  0.3042
18489TIP3    H176958   0.098   0.630   2.258  1.5129 -0.1950  1.3445
18489TIP3    H276959   0.077   0.778   2.233 -1.6231 -0.8433 -0.4914
18490TIP3   OH276960   5.016   2.193   5.863 -0.0546  0.2855  0.4473
18490TIP3    H176961   4.921   2.184   5.867 -0.0870 -0.1764 -1.0411
18490TIP3    H276962   5.036   2.263   5.926 -1.4886  1.2244 -0.1035
18491TIP3   OH276963   1.212   4.924   5.245 -0.3328 -0.1315 -0.2135
18491TIP3    H176964   1.237   4.872   5.321 -1.0331  2.2467  1.7790
18491TIP3    H276965   1.285   4.984   5.231 -0.7879  0.3622 -0.5386
18492TIP3   OH276966   0.101   0.855  10.742 -0.0943 -0.2535  0.0109
18492TIP3    H176967   0.073   0.884  10.655  4.1478 -1.0267 -1.8441
18492TIP3    H276968   0.122   0.937  10.788 -2.2469  0.1536  0.3713
18493TIP3   OH276969   5.156   1.992   4.493  0.4260  0.5987  0.0055
18493TIP3    H176970   5.216   1.997   4.568 -1.4289  0.8706  1.5676
18493TIP3    H276971   5.139   2.083   4.470 -0.1384  0.5508  0.2223
18494TIP3   OH276972   1.076   5.012  15.301 -0.8508 -0.3986 -0.4228
18494TIP3    H176973   0.998   4.959  15.320 -1.4632 -0.4465 -2.6806
18494TIP3    H276974   1.149   4.961  15.335 -1.6242 -1.5900 -0.4937
18495TIP3   OH276975   1.775   5.457   4.577  0.5714  0.1489 -0.3785
18495TIP3    H176976   1.712   5.523   4.550  2.3072  1.2516 -2.0239
18495TIP3    H276977   1.781   5.466   4.672 -1.3750  0.2937 -0.2333
18496TIP3   OH276978   0.428   5.051  16.266  0.3368 -0.4768 -0.0781
18496TIP3    H176979   0.450   4.989  16.336  1.9892  1.1537  0.9372
18496TIP3    H276980   0.404   5.131  16.312  2.9918  1.1502 -1.2905
18497TIP3   OH276981   1.899   1.540  13.304 -0.3967  0.2398 -0.4970
18497TIP3    H176982   1.946   1.616  13.270 -0.4990  0.3213 -0.4571
18497TIP3    H276983   1.903   1.476  13.233  0.5972 -0.1144 -0.1397
18498TIP3   OH276984   4.219   0.110   0.337  0.2776 -0.1376 -0.1783
18498TIP3    H176985   4.236   0.201   0.363 -0.7663 -0.2965  1.1713
18498TIP3    H276986   4.159   0.077   0.404  2.2438 -2.4827  0.5921
18499TIP3   OH276987   4.906   6.470  14.258  0.4043 -0.8925 -0.6537
18499TIP3    H176988   4.870   6.552  14.223  0.7117 -0.6538 -0.4087
18499TIP3    H276989   4.829   6.413  14.267  0.2659 -0.8270 -1.3544
18500TIP3   OH276990   1.114   1.189   4.045 -0.4272  0.2678  0.4209
18500TIP3    H176991   1.203   1.159   4.026 -0.1176  0.6026  1.2989
18500TIP3    H276992   1.125   1.279   4.076 -0.9057 -0.1786  1.9655
18501TIP3   OH276993   0.480   4.733   0.862  0.1880  0.3066 -0.5516
18501TIP3    H176994   0.470   4.665   0.794  0.9702 -2.2881  1.7565
18501TIP3    H276995   0.572   4.758   0.857 -0.4285  2.6073 -2.4985
18502TIP3   OH276996   0.286   2.697  10.798 -0.2889  0.1884 -0.0740
18502TIP3    H176997   0.241   2.781  10.801 -1.8191 -0.5712 -0.9554
18502TIP3    H276998   0.226   2.638  10.753  0.6832 -1.4360  0.6453
18503TIP3   OH276999   1.352   5.582  14.859 -0.0083  0.0627 -0.0765
18503TIP3    H177000   1.378   5.577  14.767  0.7964  0.6848  0.1113
18503TIP3    H277001   1.339   5.491  14.885  0.5850 -0.1704 -0.5797
18504TIP3   OH277002   3.259   4.289  16.232 -0.3877  0.6982  0.3097
18504TIP3    H177003   3.330   4.351  16.251 -0.4301  1.0215 -0.5343
18504TIP3    H277004   3.223   4.266  16.318  0.4849  0.8326  0.7222
18505TIP3   OH277005   5.958   2.696  13.904  0.0878 -0.3976  0.0264
18505TIP3    H177006   5.884   2.659  13.953  0.7697 -2.1521 -0.1894
18505TIP3    H277007   6.036   2.668  13.953  0.6561  0.8472 -0.1228
18506TIP3   OH277008   5.635   5.317   4.165 -0.0715  0.0519 -0.1986
18506TIP3    H177009   5.564   5.255   4.147 -0.5292  0.8485 -1.2536
18506TIP3    H277010   5.599   5.376   4.231  0.2405 -0.5786  0.5476
18507TIP3   OH277011   0.451   0.129  12.836 -0.4858 -0.1582  0.3577
18507TIP3    H177012   0.437   0.182  12.758 -2.0010 -0.3472  0.4647
18507TIP3    H277013   0.524   0.072  12.814  1.4794  2.1930  0.3894
18508TIP3   OH277014   0.311   3.986   3.953 -0.3999 -0.3811  0.4728
18508TIP3    H177015   0.306   4.064   4.008  0.5863  0.2260 -0.2572
18508TIP3    H277016   0.405   3.967   3.947 -0.4315 -0.1895 -1.2872
18509TIP3   OH277017   6.209   4.899  13.299  0.2218  0.1635 -0.6920
18509TIP3    H177018   6.282   4.894  13.361 -0.2076 -0.7500 -0.2492
18509TIP3    H277019   6.182   4.991  13.302  1.1755  0.4573 -0.6591
18510TIP3   OH277020   4.306   2.279   1.587 -0.3432  0.3189  1.0377
18510TIP3    H177021   4.310   2.374   1.583 -0.4070  0.3003  0.2347
18510TIP3    H277022   4.375   2.250   1.527 -0.8458 -0.1290  0.6654
18511TIP3   OH277023   2.475   3.067  16.805 -0.1871 -0.5185  0.1897
18511TIP3    H177024   2.450   3.131  16.871  0.3224  0.3767 -0.4610
18511TIP3    H277025   2.423   3.090  16.728  1.2723  0.2431 -0.6093
18512TIP3   OH277026   6.284   3.198   0.047  0.1824 -0.3414 -0.1265
18512TIP3    H177027   6.361   3.200  -0.009  0.4083 -1.7577  0.1150
18512TIP3    H277028   6.211   3.184  -0.013  0.5416 -3.0889 -0.0147
18513TIP3   OH277029   1.529   4.362   1.717 -0.0888 -0.2245 -0.3960
18513TIP3    H177030   1.496   4.451   1.728 -0.4005 -0.3537 -0.2929
18513TIP3    H277031   1.453   4.312   1.688  0.3107 -0.2447 -1.4935
18514TIP3   OH277032   4.279   1.833  14.548  0.5833 -0.7843 -1.0669
18514TIP3    H177033   4.250   1.793  14.631  2.1224  0.0020 -0.1009
18514TIP3    H277034   4.272   1.762  14.484  0.2639 -1.6963 -0.0605
18515TIP3   OH277035   3.395   2.423  14.578  0.1406 -0.9746 -0.2403
18515TIP3    H177036   3.378   2.330  14.563  0.0354 -0.8794 -0.6967
18515TIP3    H277037   3.443   2.452  14.501 -2.8190  0.1795 -1.8071
18516TIP3   OH277038   2.056   5.531  14.147 -0.2201 -0.2072 -0.2850
18516TIP3    H177039   2.124   5.579  14.194 -1.6140  0.3746  1.2404
18516TIP3    H277040   2.054   5.571  14.060  1.4962 -0.3843 -0.4382
18517TIP3   OH277041   5.344   3.714  10.419  0.0274 -0.1764  0.0063
18517TIP3    H177042   5.265   3.765  10.436 -0.4219 -1.2097  1.2066
18517TIP3    H277043   5.317   3.623  10.431  0.7409 -0.7730 -2.3169
18518TIP3   OH277044   5.362   2.035  14.670  0.3631  0.4158 -0.3677
18518TIP3    H177045   5.405   2.054  14.587  2.1870  0.8922  0.6366
18518TIP3    H277046   5.303   2.109  14.684  1.0003  0.9888 -0.6426
18519TIP3   OH277047   4.585   4.837   2.122 -0.0597  0.2151  0.1960
18519TIP3    H177048   4.579   4.845   2.026 -0.6309  1.0175  0.2854
18519TIP3    H277049   4.538   4.756   2.142 -0.2736  0.2446 -0.1734
18520TIP3   OH277050   4.066   1.412   0.047  0.6312  0.3325 -0.0909
18520TIP3    H177051   4.073   1.488  -0.011 -0.1350  0.4312 -0.0587
18520TIP3    H277052   3.972   1.401   0.061  0.7295 -0.6442 -0.1273
18521TIP3   OH277053   1.853   5.404   3.168  0.4684 -0.4632 -0.0179
18521TIP3    H177054   1.854   5.345   3.243 -0.1428 -2.0078 -1.1730
18521TIP3    H277055   1.799   5.478   3.197  0.5134 -0.8656  1.1651
18522TIP3   OH277056   2.041   6.708   4.939  0.0749 -0.8764  0.3174
18522TIP3    H177057   2.015   6.645   4.873  0.1520  0.1166 -0.6843
18522TIP3    H277058   1.960   6.728   4.986  0.0250 -1.5929  0.5460
18523TIP3   OH277059   6.396   2.238   2.672  0.0097 -0.7216 -0.2161
18523TIP3    H177060   6.328   2.185   2.712 -0.0211 -1.2668 -0.9548
18523TIP3    H277061   6.461   2.175   2.641  1.2793 -0.1654  1.2146
18524TIP3   OH277062   2.471   1.304   3.137 -0.0544 -0.3147  0.1375
18524TIP3    H177063   2.395   1.336   3.087 -1.2025 -1.1788  1.2741
18524TIP3    H277064   2.514   1.383   3.168  0.1516  0.2228 -1.4096
18525TIP3   OH277065   1.610   0.654  12.464 -0.1550 -0.1369 -0.1183
18525TIP3    H177066   1.528   0.704  12.469  0.1630  0.6827 -2.1943
18525TIP3    H277067   1.638   0.663  12.373  2.4705 -0.0556  0.6277
18526TIP3   OH277068   5.620   5.465   0.409 -0.1977  0.1464 -0.1580
18526TIP3    H177069   5.657   5.411   0.340  2.3381  0.1386  1.1211
18526TIP3    H277070   5.608   5.406   0.484  0.3518  0.8420  0.4992
18527TIP3   OH277071   1.465   5.706  15.072 -0.0314  0.3169 -0.1846
18527TIP3    H177072   1.427   5.665  14.994 -1.0368  1.2536 -0.2137
18527TIP3    H277073   1.413   5.785  15.085 -0.7436 -0.4506  2.1712
18528TIP3   OH277074   2.796   4.257  15.097  0.1567  0.3577  0.1072
18528TIP3    H177075   2.839   4.187  15.147 -0.9444  1.3851  2.6742
18528TIP3    H277076   2.708   4.262  15.132 -0.8657  0.9057 -2.3221
18529TIP3   OH277077   5.770   2.416  13.746  0.4755  0.5419  0.9343
18529TIP3    H177078   5.694   2.382  13.794  1.1972 -0.1189  1.6165
18529TIP3    H277079   5.752   2.510  13.737 -1.0233  0.2081 -0.0175
18530TIP3   OH277080   3.718   3.532  14.036  0.5103  0.2304 -0.8376
18530TIP3    H177081   3.738   3.580  13.956  0.0834  1.6737 -0.1015
18530TIP3    H277082   3.772   3.452  14.029  1.5918  1.0071 -1.8770
18531TIP3   OH277083   3.329   6.642  14.253 -0.2981 -0.0211 -0.1790
18531TIP3    H177084   3.355   6.676  14.338 -0.7062 -2.2528  0.9009
18531TIP3    H277085   3.410   6.642  14.202  0.0294  0.9675  0.3121
18532TIP3   OH277086   2.749   4.678   0.334  0.4321  0.1634  0.8071
18532TIP3    H177087   2.660   4.686   0.370 -0.1131 -2.4483  0.2304
18532TIP3    H277088   2.752   4.745   0.265 -0.7599  0.9099  1.4376
18533TIP3   OH277089   4.182   2.882   3.199  0.0789  0.2526 -0.6186
18533TIP3    H177090   4.273   2.853   3.198 -0.2195 -0.9410  1.1927
18533TIP3    H277091   4.174   2.940   3.124  2.4023  0.6289 -0.6481
18534TIP3   OH277092   1.853   4.580   1.452  0.2692 -0.3635  0.1685
18534TIP3    H177093   1.899   4.610   1.374 -1.0369  2.0296  0.2112
18534TIP3    H277094   1.778   4.531   1.419  1.7676 -2.7419  0.0724
18535TIP3   OH277095   6.378   5.988  12.928  0.4472  0.0385  0.3951
18535TIP3    H177096   6.386   6.082  12.946 -3.1765  0.5216  0.2514
18535TIP3    H277097   6.417   5.977  12.841 -1.2719  2.0136 -0.7305
18536TIP3   OH277098   3.366   3.921  12.685 -0.3853  0.3136  0.5216
18536TIP3    H177099   3.368   3.863  12.761  0.4913  0.2281  0.4471
18536TIP3    H277100   3.298   3.885  12.628  0.1004 -0.6087  0.5105
18537TIP3   OH277101   6.148   3.844  11.630  0.5856  0.6979  0.3012
18537TIP3    H177102   6.187   3.929  11.648 -0.0453  0.7496  1.5632
18537TIP3    H277103   6.053   3.859  11.638  0.4650 -0.0916  0.4698
18538TIP3   OH277104   0.212   1.921  10.508  0.0462 -0.1882  0.5403
18538TIP3    H177105   0.287   1.866  10.490  0.6295  0.3513  1.2628
18538TIP3    H277106   0.172   1.936  10.423  2.0939  1.4201 -0.2186
18539TIP3   OH277107   3.393   2.159   4.336 -0.3291 -0.0321  0.2804
18539TIP3    H177108   3.397   2.183   4.429 -1.4306 -2.7473  1.1527
18539TIP3    H277109   3.301   2.135   4.322  0.3735 -2.4315 -0.6564
18540TIP3   OH277110   1.610   1.899  12.816  0.1494  0.4998 -0.1491
18540TIP3    H177111   1.592   1.837  12.887  0.2721 -0.7249 -1.1429
18540TIP3    H277112   1.634   1.980  12.861  0.9060 -0.4245  1.2244
18541TIP3   OH277113   2.023   0.887   3.561  0.6180  0.1803  0.2584
18541TIP3    H177114   2.031   0.793   3.540  2.7686  0.0831  1.2810
18541TIP3    H277115   2.090   0.929   3.507  0.6182  0.9594  0.8568
18542TIP3   OH277116   4.311   2.718   4.877 -0.0284  0.0117 -0.2700
18542TIP3    H177117   4.311   2.808   4.909 -1.1341 -0.1075  0.0927
18542TIP3    H277118   4.403   2.691   4.883  0.0431  0.4905  1.4398
18543TIP3   OH277119   4.597   6.034  13.442 -0.5327  0.9262 -0.3046
18543TIP3    H177120   4.639   6.000  13.363  2.7232 -0.4983  1.8377
18543TIP3    H277121   4.558   5.957  13.484  2.8726  0.3986  2.2664
18544TIP3   OH277122   0.741   2.150   2.789  0.1020 -0.2228  0.6617
18544TIP3    H177123   0.833   2.164   2.810  0.4193 -0.6909 -0.3581
18544TIP3    H277124   0.722   2.062   2.822  0.6590 -1.0461 -1.0726
18545TIP3   OH277125   2.914   2.608  15.342 -0.0163  0.3199  0.1692
18545TIP3    H177126   2.822   2.596  15.368 -0.6258  1.3145 -1.4161
18545TIP3    H277127   2.931   2.536  15.282  0.9508 -1.1162  2.0373
18546TIP3   OH277128   4.721   0.296   0.998  0.1076 -0.3647 -0.0369
18546TIP3    H177129   4.727   0.205   0.970  1.7555 -0.2628 -0.1360
18546TIP3    H277130   4.766   0.299   1.082 -1.8516 -0.0178  1.0646
18547TIP3   OH277131   3.262   0.052   0.350 -1.0786  0.7000  0.2908
18547TIP3    H177132   3.215  -0.007   0.291  0.1351 -1.0200  0.9275
18547TIP3    H277133   3.352   0.050   0.317  0.4572 -2.9109  3.8100
18548TIP3   OH277134   3.912   2.468   5.670  0.7767  0.5321  0.6488
18548TIP3    H177135   3.883   2.391   5.718 -1.4958 -0.0787 -1.4814
18548TIP3    H277136   3.841   2.531   5.680  1.3234  1.2691  0.0138
18549TIP3   OH277137   0.828   1.114   4.648  0.1128 -0.2389  0.0731
18549TIP3    H177138   0.747   1.102   4.598  0.8752 -1.2092 -0.9727
18549TIP3    H277139   0.812   1.067   4.730  0.2844 -2.1416 -0.9165
18550TIP3   OH277140   3.802   3.569  10.622  0.1866 -0.3881  0.6678
18550TIP3    H177141   3.717   3.550  10.583 -0.0973 -0.5384  1.3610
18550TIP3    H277142   3.833   3.485  10.654 -0.1550 -0.0588  1.9061
18551TIP3   OH277143   6.101   4.752  11.782 -0.0966 -0.4711 -0.2874
18551TIP3    H177144   6.047   4.683  11.743 -1.8490  1.1512 -0.8466
18551TIP3    H277145   6.178   4.758  11.725 -0.0137 -1.7823 -0.3443
18552TIP3   OH277146   0.660   5.366   4.782 -0.6170 -0.4411 -0.4047
18552TIP3    H177147   0.650   5.351   4.876 -1.2794 -0.2444 -0.4394
18552TIP3    H277148   0.726   5.303   4.755  0.0720 -0.0505  0.3152
18553TIP3   OH277149   6.629   1.491  14.522 -0.1681 -0.4084 -0.1302
18553TIP3    H177150   6.713   1.459  14.555  1.0062  0.4091 -2.1804
18553TIP3    H277151   6.569   1.477  14.595  1.5168 -1.8724  1.0831
18554TIP3   OH277152   3.134   3.003   3.420  0.1521  0.4259 -0.3928
18554TIP3    H177153   3.076   3.005   3.497  0.8004  0.4471  0.1031
18554TIP3    H277154   3.183   2.921   3.429  1.1914  1.0699 -0.0571
18555TIP3   OH277155   6.140   6.124   5.735 -0.3404 -0.3637 -0.1973
18555TIP3    H177156   6.108   6.060   5.798  0.6247 -1.5519 -0.8738
18555TIP3    H277157   6.203   6.178   5.785  0.1618 -1.0763 -0.0462
18556TIP3   OH277158   0.888   0.718  14.326 -0.1811 -0.0724 -0.2124
18556TIP3    H177159   0.815   0.658  14.339  1.6586 -2.5354 -0.6423
18556TIP3    H277160   0.958   0.684  14.381  0.8180  1.9893 -0.1202
18557TIP3   OH277161   5.256   0.178   3.443 -0.2557  0.2756  0.4131
18557TIP3    H177162   5.289   0.262   3.474  0.8398 -1.1416  3.4551
18557TIP3    H277163   5.239   0.128   3.523  0.4045 -2.8930 -1.2846
18558TIP3   OH277164   1.757   3.091   4.951  0.0938  0.8938 -0.2569
18558TIP3    H177165   1.829   3.136   4.994  1.5198 -2.0811  0.6794
18558TIP3    H277166   1.755   3.004   4.990 -0.5352 -0.9837 -3.9742
18559TIP3   OH277167   0.543   3.564  15.595  0.3822  0.0011  0.2386
18559TIP3    H177168   0.616   3.626  15.595 -0.3949  0.9557  0.3619
18559TIP3    H277169   0.514   3.562  15.503  0.5046 -0.3012  0.2069
18560TIP3   OH277170   6.419   2.221  16.441 -0.4324  0.5639  0.0361
18560TIP3    H177171   6.514   2.212  16.443 -0.5650 -1.7540 -0.9398
18560TIP3    H277172   6.403   2.315  16.452  1.7893  0.7102  3.5425
18561TIP3   OH277173   5.662   6.190  12.152 -0.5052 -0.5732  0.3448
18561TIP3    H177174   5.600   6.190  12.079  2.0171  2.3601 -2.0952
18561TIP3    H277175   5.716   6.112  12.137  0.4590  0.3750 -1.5326
18562TIP3   OH277176   1.791   0.245  14.097 -0.6729  0.5096 -0.1760
18562TIP3    H177177   1.878   0.274  14.125  0.1798 -2.6633  0.8557
18562TIP3    H277178   1.734   0.264  14.171 -0.1678 -0.1844  0.4082
18563TIP3   OH277179   4.774   4.034  13.337 -0.6776 -0.1704  0.5428
18563TIP3    H177180   4.684   4.006  13.322 -1.1008  0.7508  1.2633
18563TIP3    H277181   4.794   4.003  13.425  0.5738 -2.4823 -0.4622
18564TIP3   OH277182   2.223   0.766   0.323 -0.4336 -0.1706  0.0617
18564TIP3    H177183   2.296   0.711   0.352 -1.3205 -1.7720 -0.6349
18564TIP3    H277184   2.237   0.777   0.229  0.4515  1.9710  0.3806
18565TIP3   OH277185   4.931   2.410  11.518 -0.1089 -0.1106 -0.4905
18565TIP3    H177186   5.000   2.411  11.451 -0.3424 -1.2945 -0.7767
18565TIP3    H277187   4.936   2.323  11.556 -0.9829  0.0332 -0.0123
18566TIP3   OH277188   5.584   1.521   5.695 -0.5032 -0.0709 -1.0223
18566TIP3    H177189   5.580   1.429   5.720 -0.8614  0.0633 -0.5666
18566TIP3    H277190   5.675   1.535   5.669  0.4227  0.2178  1.9848
18567TIP3   OH277191   0.584   1.807   1.804  0.5121 -0.1244 -0.2512
18567TIP3    H177192   0.504   1.856   1.819  1.5458  1.6345 -0.2808
18567TIP3    H277193   0.570   1.764   1.720 -1.3429 -1.9032  0.8758
18568TIP3   OH277194   1.232   1.240   1.789  0.2777 -0.1013 -0.8095
18568TIP3    H177195   1.168   1.218   1.721 -0.2188  0.5987 -0.5818
18568TIP3    H277196   1.260   1.155   1.825 -1.9477 -0.3805  0.4016
18569TIP3   OH277197   1.687   6.493   4.467 -0.5481  0.3715 -0.2301
18569TIP3    H177198   1.648   6.481   4.380  1.9927  0.6838 -1.5135
18569TIP3    H277199   1.652   6.577   4.497 -0.3213  1.0130 -1.6594
18570TIP3   OH277200   2.562   5.903   2.288  0.2511  0.1430 -0.7440
18570TIP3    H177201   2.517   5.939   2.211  1.8149  1.0947 -1.2690
18570TIP3    H277202   2.624   5.839   2.251  0.6329  0.2143 -0.2279
18571TIP3   OH277203   6.508   2.022   2.513 -0.1459  0.2387 -0.1476
18571TIP3    H177204   6.518   1.932   2.483  0.1174  0.8163 -1.9167
18571TIP3    H277205   6.597   2.055   2.523 -0.1672 -0.3098  2.6954
18572TIP3   OH277206   2.630   3.662  11.479 -0.1603 -0.2971 -0.4361
18572TIP3    H177207   2.716   3.632  11.449  0.0761 -0.0063 -0.0630
18572TIP3    H277208   2.650   3.728  11.546 -0.6704  0.4439 -1.0013
18573TIP3   OH277209   5.699   5.711   3.829 -0.1925  0.3834 -0.6930
18573TIP3    H177210   5.740   5.643   3.775  0.6751  0.2203  0.1485
18573TIP3    H277211   5.649   5.663   3.895 -0.4960  0.5809 -0.7732
18574TIP3   OH277212   2.932   2.343   3.021  0.3544  0.5752 -0.9712
18574TIP3    H177213   2.975   2.404   3.081  0.2749  0.2309 -0.5558
18574TIP3    H277214   2.993   2.269   3.016 -0.4005 -0.1433  0.0177
18575TIP3   OH277215   1.519   0.873  15.855  1.0124 -0.1898  0.7247
18575TIP3    H177216   1.589   0.899  15.795  2.6801 -0.6812  2.3711
18575TIP3    H277217   1.517   0.778  15.851  2.2266 -0.3450  2.5166
18576TIP3   OH277218   4.959   3.870  13.223  0.7665 -0.7559 -0.9986
18576TIP3    H177219   4.886   3.919  13.261  1.5990  0.2320 -0.6271
18576TIP3    H277220   4.950   3.881  13.129  1.6619  1.2507 -0.8994
18577TIP3   OH277221   0.060   6.783  11.743 -0.0012 -0.1161 -0.3821
18577TIP3    H177222  -0.003   6.852  11.721  1.2493  0.8743 -0.9726
18577TIP3    H277223   0.035   6.755  11.831 -0.7690  0.8118 -0.2944
18578TIP3   OH277224   3.947   0.595   0.948  0.0395  0.3344 -0.2065
18578TIP3    H177225   3.942   0.558   0.860  0.4539 -0.9968  0.3077
18578TIP3    H277226   4.031   0.640   0.951 -1.3297  3.2673 -1.5208
18579TIP3   OH277227   2.013   6.632  11.373  0.0547 -0.3923 -0.2581
18579TIP3    H177228   1.949   6.561  11.376  0.1397 -0.4663 -0.1482
18579TIP3    H277229   2.034   6.648  11.465  0.2471 -0.4192 -0.2967
18580TIP3   OH277230   0.233   0.567   5.933 -0.1032  0.6352 -0.1060
18580TIP3    H177231   0.241   0.499   6.000  0.1157 -0.2405 -0.9836
18580TIP3    H277232   0.140   0.571   5.914 -0.1128  0.5265 -0.0868
18581TIP3   OH277233   1.278   4.390  11.815 -0.5782  0.0682 -0.1932
18581TIP3    H177234   1.279   4.303  11.855  0.9661  0.4310  0.6630
18581TIP3    H277235   1.233   4.445  11.879 -2.1815 -0.2015 -1.0459
18582TIP3   OH277236   3.375   4.343  13.674  0.3416 -0.3667 -0.8582
18582TIP3    H177237   3.298   4.286  13.667 -1.1360  1.5993 -1.2193
18582TIP3    H277238   3.377   4.369  13.766 -0.5455  1.0372 -1.2133
18583TIP3   OH277239   5.883   3.073  14.757 -0.2943  0.3327 -0.0491
18583TIP3    H177240   5.868   3.003  14.694 -1.4463  0.0349  0.5286
18583TIP3    H277241   5.860   3.153  14.709  0.6202  0.3000 -0.5737
18584TIP3   OH277242   2.052   2.658  14.555 -0.1439 -0.1323 -0.0703
18584TIP3    H177243   1.992   2.602  14.505 -0.9766  1.1714 -0.5876
18584TIP3    H277244   1.997   2.693  14.626 -0.1628  1.4677 -0.8361
18585TIP3   OH277245   6.072   6.819  14.640  0.3936 -0.1100 -0.0372
18585TIP3    H177246   6.065   6.914  14.651 -0.6624 -0.1725 -0.1124
18585TIP3    H277247   6.001   6.797  14.580  0.8333 -0.9145 -0.2691
18586TIP3   OH277248   1.742   2.991  16.442  0.2356 -0.8737  0.1039
18586TIP3    H177249   1.650   2.992  16.469 -0.1656  0.3972 -1.2303
18586TIP3    H277250   1.776   3.077  16.470  1.3034 -1.6668  1.4045
18587TIP3   OH277251   4.487   6.483  11.343  0.5845 -0.3474 -0.0545
18587TIP3    H177252   4.562   6.536  11.368  1.5012 -1.1886 -0.9465
18587TIP3    H277253   4.432   6.481  11.422  1.5923  0.1200  0.6808
18588TIP3   OH277254   2.854   4.488   0.779  0.3026 -0.5346 -0.3854
18588TIP3    H177255   2.888   4.416   0.727  1.1666 -0.7316  0.4227
18588TIP3    H277256   2.901   4.482   0.862 -0.7072  0.0502  0.2500
18589TIP3   OH277257   5.510   5.895   2.716  0.4115  0.2316 -0.6264
18589TIP3    H177258   5.507   5.981   2.674  2.4617  0.8062  0.2764
18589TIP3    H277259   5.581   5.849   2.673  1.6800  0.3450  1.2343
18590TIP3   OH277260   2.374   3.883  12.607 -0.1017 -0.3626 -0.1495
18590TIP3    H177261   2.319   3.828  12.550  0.1944 -2.5292  1.5458
18590TIP3    H277262   2.388   3.830  12.685 -0.3275  2.4086  1.9068
18591TIP3   OH277263   0.460   1.836  10.695  0.1504  0.2609  0.2603
18591TIP3    H177264   0.508   1.754  10.705 -1.0477 -0.3727  1.1480
18591TIP3    H277265   0.434   1.860  10.785 -0.8076  0.8040 -0.1426
18592TIP3   OH277266   5.438   6.338   3.929  0.1314  0.4306 -0.2500
18592TIP3    H177267   5.369   6.305   3.986  0.3659 -1.1425 -0.8350
18592TIP3    H277268   5.517   6.291   3.956  0.3916  0.1642 -1.3967
18593TIP3   OH277269   4.500   4.812  13.629 -0.5121 -0.3284  0.2223
18593TIP3    H177270   4.583   4.797  13.585 -0.2482  1.7993 -0.1112
18593TIP3    H277271   4.434   4.800  13.561 -0.6111 -2.8918  0.6868
18594TIP3   OH277272   5.796   1.641   3.756  0.3623 -0.0146 -0.3686
18594TIP3    H177273   5.782   1.557   3.713  0.1089  0.1658 -0.6414
18594TIP3    H277274   5.821   1.618   3.846  1.3391 -0.4028 -0.7285
18595TIP3   OH277275   0.977   3.754   4.328  0.0493  0.7403 -0.0781
18595TIP3    H177276   1.020   3.670   4.310 -1.1953 -0.0316  0.4429
18595TIP3    H277277   1.047   3.809   4.362  0.6789 -0.4218  0.5643
18596TIP3   OH277278   5.271   0.030  12.287  0.4773  0.0304  0.3002
18596TIP3    H177279   5.302   0.035  12.378  1.1455  2.6192  0.0240
18596TIP3    H277280   5.204  -0.037  12.288 -2.2590  2.4371  3.5979
18597TIP3   OH277281   5.406   3.903   3.467 -0.4049  0.6768  0.0305
18597TIP3    H177282   5.376   3.977   3.520 -2.3024  1.1834 -1.6325
18597TIP3    H277283   5.389   3.930   3.377  1.8487 -0.5396 -0.8403
18598TIP3   OH277284   5.801   4.711  11.977 -0.5725 -0.9832  0.0387
18598TIP3    H177285   5.824   4.635  12.030  2.2673 -0.5403 -0.4005
18598TIP3    H277286   5.877   4.725  11.920 -1.7790  1.0626 -1.2189
18599TIP3   OH277287   5.699   5.853   2.526  0.4765  0.0111  0.2447
18599TIP3    H177288   5.744   5.789   2.471 -1.8670 -0.3702 -1.3864
18599TIP3    H277289   5.695   5.933   2.473  0.6685  0.5599  1.0272
18600TIP3   OH277290   5.580   4.420   4.927  0.0602  0.2885 -0.5283
18600TIP3    H177291   5.601   4.513   4.935 -1.1775  0.4765  1.4915
18600TIP3    H277292   5.512   4.405   4.994 -0.1220 -1.9652 -1.1196
18601TIP3   OH277293   3.411   6.564  11.258  0.3640 -0.5906  0.2104
18601TIP3    H177294   3.383   6.515  11.336  0.6685 -1.5801 -0.2868
18601TIP3    H277295   3.496   6.601  11.282  0.8142 -1.5360  0.0876
18602TIP3   OH277296   4.442   4.043  14.006  0.8250 -0.1181 -0.1955
18602TIP3    H177297   4.488   4.109  13.954  0.6500 -0.8924 -1.3672
18602TIP3    H277298   4.364   4.021  13.954  1.2849 -1.8190 -0.2350
18603TIP3   OH277299   6.659   6.619   5.915  0.0130 -0.4361  0.3384
18603TIP3    H177300   6.669   6.633   6.009  0.6409 -0.8410  0.3385
18603TIP3    H277301   6.749   6.623   5.881 -0.3402  1.5741 -0.5189
18604TIP3   OH277302   6.826   0.412  11.447 -0.1301  0.5191  0.0610
18604TIP3    H177303   6.881   0.487  11.468  1.1234 -0.4098  0.2204
18604TIP3    H277304   6.825   0.360  11.528  1.4765 -1.1095 -0.8914
18605TIP3   OH277305   0.517   5.303   1.883 -0.4696 -0.5683 -0.2989
18605TIP3    H177306   0.562   5.336   1.805  2.6520 -3.4300  0.0718
18605TIP3    H277307   0.559   5.348   1.956 -0.1007 -1.2649 -0.0737
18606TIP3   OH277308   0.009   3.880   4.795  0.2540 -0.0920 -0.1246
18606TIP3    H177309   0.017   3.868   4.700 -0.2034 -0.9700 -0.0561
18606TIP3    H277310  -0.057   3.949   4.804  1.0061  0.6957 -0.4560
18607TIP3   OH277311   0.503   3.426  16.347  0.3983 -0.5017 -0.4363
18607TIP3    H177312   0.428   3.397  16.295  0.0286 -0.6209  0.1446
18607TIP3    H277313   0.519   3.516  16.319 -0.7435 -0.0499  0.2859
18608TIP3   OH277314   0.429   3.487  13.092  0.4026  0.4070 -0.4997
18608TIP3    H177315   0.521   3.469  13.073  0.4907  1.2067 -0.8966
18608TIP3    H277316   0.381   3.433  13.030  0.6322  0.7267 -0.9621
18609TIP3   OH277317   4.912   1.316   0.902 -0.2234  0.4368  0.1865
18609TIP3    H177318   4.824   1.354   0.898 -0.4094  0.0412  0.4043
18609TIP3    H277319   4.938   1.325   0.993  1.0329  2.8678 -0.3244
18610TIP3   OH277320   5.193   4.990   1.571  0.2700 -0.6232 -0.1639
18610TIP3    H177321   5.187   4.929   1.644 -0.2235  0.1646  0.4671
18610TIP3    H277322   5.287   4.995   1.552  0.4835 -0.2154  0.9580
18611TIP3   OH277323   3.773   4.112   5.464  0.2000  0.0343 -0.0613
18611TIP3    H177324   3.807   4.188   5.512  0.0877 -0.8043  1.4203
18611TIP3    H277325   3.822   4.038   5.499 -1.7583 -0.9609  0.7672
18612TIP3   OH277326   0.260   1.311   3.557  0.1889 -0.1470  0.6264
18612TIP3    H177327   0.256   1.250   3.631  1.1712  0.2740  1.0540
18612TIP3    H277328   0.233   1.395   3.593  1.3238  0.2095  0.7067
18613TIP3   OH277329   3.805   3.835  12.129 -0.6316 -0.1624 -0.1058
18613TIP3    H177330   3.835   3.751  12.093  0.3965 -1.0090  2.4718
18613TIP3    H277331   3.832   3.900  12.064  1.0751 -1.5809 -0.8935
18614TIP3   OH277332   6.526   4.713   2.644  0.2885  0.0862  0.2403
18614TIP3    H177333   6.474   4.782   2.684 -0.4337  0.5017 -1.3257
18614TIP3    H277334   6.610   4.716   2.689 -0.8102 -0.2138  2.4406
18615TIP3   OH277335   0.327   4.621   0.560 -0.1221 -0.5758 -0.8007
18615TIP3    H177336   0.419   4.639   0.543 -0.1849 -1.2031 -1.8680
18615TIP3    H277337   0.310   4.536   0.519 -1.7037  0.5181 -2.5925
18616TIP3   OH277338   2.806   4.201   4.962  0.2017  0.7860  0.5314
18616TIP3    H177339   2.817   4.268   5.030 -0.7118  0.2933  1.1762
18616TIP3    H277340   2.716   4.213   4.931 -0.0260 -0.2553  0.7768
18617TIP3   OH277341   3.877   1.574   1.115  0.1098 -0.1222 -1.0106
18617TIP3    H177342   3.790   1.607   1.093 -0.6160 -0.1109  1.5717
18617TIP3    H277343   3.862   1.512   1.186  1.9003 -2.7861 -2.7858
18618TIP3   OH277344   0.686   3.805  13.456  0.2102  0.3531 -0.3303
18618TIP3    H177345   0.753   3.811  13.387 -0.1630  0.7288 -0.6685
18618TIP3    H277346   0.703   3.881  13.511  1.7332 -0.9609  1.1474
18619TIP3   OH277347   4.480   1.575   5.984  0.1419  0.1740 -0.1163
18619TIP3    H177348   4.437   1.586   6.068 -0.7289  0.8365 -0.6307
18619TIP3    H277349   4.513   1.485   5.985  3.5759  1.2507  2.4809
18620TIP3   OH277350   4.418   1.094  14.213 -0.1160  0.0180  0.2986
18620TIP3    H177351   4.378   1.164  14.265 -1.5289 -1.7621  1.7497
18620TIP3    H277352   4.354   1.023  14.214  1.6016 -1.6509 -0.3693
18621TIP3   OH277353   1.049   4.796   6.064 -1.0545  0.2072 -0.9915
18621TIP3    H177354   1.009   4.730   6.121  0.2149  0.4981  0.2973
18621TIP3    H277355   0.989   4.870   6.067 -0.9737  0.2450  0.0454
18622TIP3   OH277356   5.740   0.576  12.457  0.0984  0.1718 -0.0035
18622TIP3    H177357   5.744   0.566  12.552 -0.6641 -1.6222 -0.1143
18622TIP3    H277358   5.796   0.506  12.423 -0.6318 -0.0109 -0.8743
18623TIP3   OH277359   4.222   4.292   2.194 -0.2956  0.1958 -0.1337
18623TIP3    H177360   4.155   4.352   2.161  0.4145  0.5292 -1.0103
18623TIP3    H277361   4.181   4.250   2.269 -2.2364 -1.0660 -1.7763
18624TIP3   OH277362   6.410   2.997   4.526 -0.2416 -0.1152 -0.4198
18624TIP3    H177363   6.325   2.955   4.514 -0.5279  0.2975  0.1315
18624TIP3    H277364   6.446   2.956   4.605 -0.4762  0.5806  0.0596
18625TIP3   OH277365   5.600   1.371  14.991  0.0392  0.0748 -0.1486
18625TIP3    H177366   5.540   1.296  14.986 -0.6294  0.5542  0.5764
18625TIP3    H277367   5.547   1.442  15.025  0.7534  0.8100 -0.5408
18626TIP3   OH277368   2.656   5.531   1.593 -0.0894 -0.5092 -0.1182
18626TIP3    H177369   2.626   5.604   1.539  1.5609 -0.9415 -1.7143
18626TIP3    H277370   2.591   5.462   1.578  1.5114 -1.5018 -3.6518
18627TIP3   OH277371   3.488   3.466  12.801  0.0929 -0.2215 -0.1946
18627TIP3    H177372   3.551   3.431  12.864  0.0278 -1.0063 -0.5567
18627TIP3    H277373   3.524   3.442  12.715 -0.3123 -0.0178 -0.4265
18628TIP3   OH277374   0.173   5.249  15.040  0.0911 -0.5366 -0.5095
18628TIP3    H177375   0.159   5.221  15.130 -0.1806 -0.6748 -0.5961
18628TIP3    H277376   0.085   5.262  15.004  0.2068  0.0940 -0.5764
18629TIP3   OH277377   4.179   1.841   1.753  0.4529  0.0881  0.1585
18629TIP3    H177378   4.207   1.818   1.842  0.7045 -1.5457 -0.3110
18629TIP3    H277379   4.257   1.876   1.711  0.8793 -1.0278 -0.0160
18630TIP3   OH277380   5.719   4.893   6.317  0.0320  0.1467 -0.3516
18630TIP3    H177381   5.790   4.918   6.376 -1.0337  0.9339  0.6513
18630TIP3    H277382   5.695   4.804   6.344 -0.2846  0.4108  0.2518
18631TIP3   OH277383   5.821   4.143  14.594 -0.5882 -0.0747  0.3675
18631TIP3    H177384   5.859   4.229  14.610 -0.4351 -0.0412 -0.1441
18631TIP3    H277385   5.775   4.153  14.511 -1.6052 -0.1538  0.9122
18632TIP3   OH277386   0.278   1.864   5.556 -0.6835  0.5533 -0.6128
18632TIP3    H177387   0.320   1.904   5.632  1.4420  0.2541 -1.5507
18632TIP3    H277388   0.264   1.773   5.581 -3.5604  1.2554  0.7438
18633TIP3   OH277389   6.125   0.752   2.992  0.5938  0.6579  0.3320
18633TIP3    H177390   6.200   0.750   3.051 -1.3385 -0.7785  2.9884
18633TIP3    H277391   6.112   0.844   2.971  2.0551  1.0939  1.2489
18634TIP3   OH277392   6.763   3.389  16.210  0.2190  0.6648  0.0815
18634TIP3    H177393   6.757   3.480  16.238 -0.0850  1.5956 -2.6415
18634TIP3    H277394   6.696   3.344  16.260  1.0815  1.6637  2.2654
18635TIP3   OH277395   3.724   3.170   3.351 -0.0558  0.1450 -0.0416
18635TIP3    H177396   3.795   3.203   3.407  1.4543 -0.8326 -1.3035
18635TIP3    H277397   3.709   3.241   3.288  0.2605  0.0980 -0.1722
18636TIP3   OH277398   2.721   5.037   2.512  0.3934  0.3237  0.4173
18636TIP3    H177399   2.645   5.081   2.551 -0.6936 -1.7811  0.8710
18636TIP3    H277400   2.794   5.061   2.568 -0.5932 -0.1888  2.0090
18637TIP3   OH277401   6.662   1.987  16.930 -0.2674  0.3044  0.4710
18637TIP3    H177402   6.645   2.021  16.842  0.7220  1.3310  0.6519
18637TIP3    H277403   6.576   1.979  16.970 -0.5764  2.3863  0.3158
18638TIP3   OH277404   2.203   3.774   1.241  0.1523  0.1452  0.1453
18638TIP3    H177405   2.274   3.822   1.199 -0.4502  0.9007 -0.0393
18638TIP3    H277406   2.125   3.801   1.193 -0.1595 -1.3720 -0.2612
18639TIP3   OH277407   3.588   3.635   4.655 -0.7251  0.6105 -0.0412
18639TIP3    H177408   3.605   3.706   4.716  1.4596 -1.1811  1.6429
18639TIP3    H277409   3.523   3.580   4.699  0.1587 -0.1970  0.2871
18640TIP3   OH277410   4.774   4.219  14.278  0.2858 -0.4487  0.3067
18640TIP3    H177411   4.768   4.315  14.275 -1.3383 -0.4809  1.4772
18640TIP3    H277412   4.819   4.196  14.196 -0.6101  1.2180 -0.7098
18641TIP3   OH277413   6.435   4.153  13.458 -0.3788 -0.7873  0.2856
18641TIP3    H177414   6.411   4.063  13.480 -2.2197 -0.5661 -0.6406
18641TIP3    H277415   6.525   4.147  13.427 -0.1567 -2.1490  1.1206
18642TIP3   OH277416   6.252   2.177   3.114  0.0937  0.0926  0.2572
18642TIP3    H177417   6.206   2.243   3.165  0.6383  1.1217 -0.5521
18642TIP3    H277418   6.203   2.096   3.129 -0.2292  0.5322  1.7470
18643TIP3   OH277419   0.040   5.975   5.345 -0.8641 -0.1208 -0.4061
18643TIP3    H177420  -0.024   5.928   5.292 -0.2575  0.0159 -1.2899
18643TIP3    H277421   0.058   6.055   5.294  0.3817 -0.4023 -0.4300
18644TIP3   OH277422   1.861   4.493  14.883  0.5801  0.2778  0.2468
18644TIP3    H177423   1.767   4.500  14.897  0.9116  1.9320  2.1752
18644TIP3    H277424   1.881   4.400  14.897 -0.7317 -0.0792 -0.1526
18645TIP3   OH277425   1.424   4.095  13.853 -0.1444 -0.2758  0.5278
18645TIP3    H177426   1.509   4.063  13.823 -1.9237 -2.8562 -2.4387
18645TIP3    H277427   1.420   4.186  13.824  0.8817 -0.7035 -1.0474
18646TIP3   OH277428   1.943   6.072   1.578 -0.4671  0.5540 -0.1952
18646TIP3    H177429   1.938   6.115   1.664  1.7557 -1.5050  1.0643
18646TIP3    H277430   1.857   6.089   1.539 -1.6139  1.4962  2.4589
18647TIP3   OH277431   5.608   5.439   2.050 -0.1972 -0.2423 -0.3656
18647TIP3    H177432   5.551   5.493   1.995  0.9589  0.7313 -0.6239
18647TIP3    H277433   5.667   5.395   1.989 -0.3312 -0.8712 -0.0577
18648TIP3   OH277434   3.848   4.720   1.281  0.0991 -0.7428  0.5198
18648TIP3    H177435   3.834   4.678   1.365  0.7006  0.5036  1.2634
18648TIP3    H277436   3.942   4.708   1.263  1.0260  2.8598  2.2521
18649TIP3   OH277437   6.695   4.194  11.486  0.1176  0.1192 -0.5732
18649TIP3    H177438   6.750   4.258  11.532 -0.8460  0.0639  0.7244
18649TIP3    H277439   6.705   4.216  11.393  1.1793  1.0222 -0.2686
18650TIP3   OH277440   6.486   0.537  12.448  0.1314  0.5215  0.3014
18650TIP3    H177441   6.480   0.442  12.453  1.0494  0.2651 -1.9691
18650TIP3    H277442   6.404   0.569  12.484 -0.3736 -1.1346  0.6970
18651TIP3   OH277443   6.338   4.390  14.614 -0.3729  0.5365  0.3103
18651TIP3    H177444   6.357   4.298  14.593  1.1298  0.7262  0.7557
18651TIP3    H277445   6.297   4.425  14.535  1.5871  0.2064 -0.9165
18652TIP3   OH277446   0.799   2.594   6.677  0.0752 -0.2464 -0.4970
18652TIP3    H177447   0.812   2.500   6.691  2.2538  0.0064 -0.4600
18652TIP3    H277448   0.854   2.615   6.602 -0.9774  0.8866 -0.9805
18653TIP3   OH277449   6.577   5.962  16.591 -0.1573 -0.3697  0.1251
18653TIP3    H177450   6.493   5.949  16.547 -0.5232  0.0620  0.6867
18653TIP3    H277451   6.576   5.900  16.663  0.1207 -0.5497 -0.0251
18654TIP3   OH277452   0.061   3.545   1.267  0.1308  0.0940 -0.0087
18654TIP3    H177453   0.145   3.530   1.311 -0.0701 -1.6782 -0.1650
18654TIP3    H277454   0.085   3.572   1.178  0.5195  0.1184  0.1009
18655TIP3   OH277455   2.366   2.626  16.963  0.2091  0.0894 -0.2493
18655TIP3    H177456   2.279   2.591  16.942  0.3203  0.5977 -1.6610
18655TIP3    H277457   2.368   2.712  16.921  0.6718  0.9886  1.4807
18656TIP3   OH277458   1.934   4.026  14.584  0.3354  0.0277 -0.0743
18656TIP3    H177459   1.880   4.083  14.638  0.4550 -1.2922  1.5262
18656TIP3    H277460   1.947   3.948  14.637  1.0726 -1.0554 -1.7530
18657TIP3   OH277461   3.285   6.102   6.500  0.3497 -0.1862 -0.2074
18657TIP3    H177462   3.359   6.075   6.555 -1.4391 -2.6649  1.1780
18657TIP3    H277463   3.259   6.022   6.454 -2.3140  0.2331  0.4190
18658TIP3   OH277464   4.357   6.055   0.339 -0.0813 -0.0029  0.0441
18658TIP3    H177465   4.349   6.021   0.428  0.1641  1.3653  0.6164
18658TIP3    H277466   4.448   6.085   0.334 -0.0464 -0.2304 -0.7405
18659TIP3   OH277467   1.980   5.196   4.813  0.2722 -0.5220 -0.6167
18659TIP3    H177468   1.963   5.102   4.812  0.6640 -0.6040  0.2009
18659TIP3    H277469   1.893   5.235   4.798  0.0281 -1.0026 -0.4886
18660TIP3   OH277470   6.721   6.701   4.522  1.0008  0.2437  0.4128
18660TIP3    H177471   6.784   6.640   4.560  2.4515  1.2620 -0.2603
18660TIP3    H277472   6.642   6.649   4.508  1.9986 -1.3277  0.4136
18661TIP3   OH277473   6.035   2.617  17.059  0.0174 -0.0143 -0.5114
18661TIP3    H177474   6.030   2.703  17.016 -1.7436 -0.4426 -1.2687
18661TIP3    H277475   5.983   2.627  17.139  2.5801  0.5330  1.1714
18662TIP3   OH277476   6.006   2.643   2.385  0.2082  0.3765  0.7526
18662TIP3    H177477   5.943   2.669   2.318  0.6309 -2.1575 -0.7655
18662TIP3    H277478   6.045   2.725   2.415 -2.6417  1.8891  0.6173
18663TIP3   OH277479   1.236   2.473  13.640 -0.1799  0.2654  0.1384
18663TIP3    H177480   1.150   2.515  13.639  0.4958  1.7799 -1.9893
18663TIP3    H277481   1.224   2.394  13.588 -0.3790  0.2196  0.2505
18664TIP3   OH277482   2.772   4.947   5.130  0.1864  0.4914 -0.1473
18664TIP3    H177483   2.715   4.985   5.197 -1.1725 -0.0836 -0.9400
18664TIP3    H277484   2.856   4.992   5.142  0.0337  0.3248  2.0004
18665TIP3   OH277485   5.496   6.561  15.861 -0.5281 -0.3605 -0.0834
18665TIP3    H177486   5.433   6.607  15.805  0.7010  0.4743 -0.8257
18665TIP3    H277487   5.497   6.610  15.943  0.6008  0.8579 -0.7875
18666TIP3   OH277488   6.679   5.492  14.613 -0.2069 -0.3015 -0.2309
18666TIP3    H177489   6.735   5.539  14.674  0.4219 -0.4221 -0.7025
18666TIP3    H277490   6.590   5.506  14.646  0.1006 -0.1509  0.5536
18667TIP3   OH277491   1.787   4.935  14.684  0.3559 -0.4749 -0.0776
18667TIP3    H177492   1.861   4.996  14.680  0.9389 -1.2285 -1.4062
18667TIP3    H277493   1.715   4.982  14.644  0.7513 -0.5671 -0.9182
18668TIP3   OH277494   2.405   0.185   2.572 -0.1920  0.4178 -0.1513
18668TIP3    H177495   2.401   0.213   2.663 -1.3468  0.0952 -0.0884
18668TIP3    H277496   2.422   0.091   2.576 -1.7454  0.1136 -0.2098
18669TIP3   OH277497   1.350   3.043   4.746  0.0254  0.5184  0.6582
18669TIP3    H177498   1.400   3.121   4.719  0.4500  0.6316  1.7568
18669TIP3    H277499   1.416   2.978   4.769 -0.3266  0.3468  1.2105
18670TIP3   OH277500   2.294   5.899  16.122 -0.0816 -0.3025 -0.0954
18670TIP3    H177501   2.389   5.912  16.122  0.0796 -1.4145  0.6033
18670TIP3    H277502   2.282   5.805  16.109 -0.9264 -0.8526  3.5336
18671TIP3   OH277503   6.803   3.379   5.876 -0.1873 -0.1385 -0.1307
18671TIP3    H177504   6.811   3.455   5.933  1.7437 -0.2400 -0.1977
18671TIP3    H277505   6.808   3.304   5.935 -3.9594 -0.3477  0.1754
18672TIP3   OH277506   4.354   5.031  11.071  0.2910 -0.0659 -0.2228
18672TIP3    H177507   4.354   5.032  10.975  3.8068  1.0490 -0.3492
18672TIP3    H277508   4.283   5.089  11.095  0.8705  1.6357 -2.2728
18673TIP3   OH277509   0.861   5.101   4.865  0.5161 -0.0293  0.0679
18673TIP3    H177510   0.768   5.078   4.859  0.2156  1.4354 -2.2138
18673TIP3    H277511   0.904   5.021   4.895 -1.4695 -0.7282  1.2241
18674TIP3   OH277512   0.720   5.070   1.112  0.0721  0.0931 -0.4150
18674TIP3    H177513   0.635   5.038   1.082  0.0028 -1.1758  1.0192
18674TIP3    H277514   0.699   5.145   1.168 -0.3246 -1.4213  1.5726
18675TIP3   OH277515   0.206   4.308  13.844  0.2644 -0.1372  0.3009
18675TIP3    H177516   0.271   4.270  13.903 -0.6202  1.5565  2.5519
18675TIP3    H277517   0.225   4.402  13.844 -0.4324  0.0420 -1.3075
18676TIP3   OH277518   6.174   3.395   0.790 -0.3766  0.6154 -0.0789
18676TIP3    H177519   6.154   3.481   0.827  0.2631  0.4644  0.6456
18676TIP3    H277520   6.172   3.336   0.865 -0.0340  0.1276 -0.4438
18677TIP3   OH277521   1.588   2.191   0.728 -0.1488  0.2061  0.2602
18677TIP3    H177522   1.679   2.219   0.727 -0.1837  0.2988 -0.5110
18677TIP3    H277523   1.538   2.272   0.717 -0.3478  0.2318  1.2745
18678TIP3   OH277524   6.651   2.978  11.915 -0.1073  0.5863 -0.5424
18678TIP3    H177525   6.681   2.899  11.871  2.2639  0.4251  1.1526
18678TIP3    H277526   6.587   2.948  11.978 -0.1596  0.2057 -0.7742
18679TIP3   OH277527   4.671   3.745   5.604  0.2539 -0.7245  0.3783
18679TIP3    H177528   4.682   3.673   5.667 -1.8269  1.2700  3.2762
18679TIP3    H277529   4.577   3.747   5.587  0.3485  0.9925 -0.0695
18680TIP3   OH277530   3.000   1.906   0.996 -0.0468 -0.3367 -0.3053
18680TIP3    H177531   2.955   1.914   1.080 -0.0464 -0.4604 -0.2934
18680TIP3    H277532   3.068   1.974   0.999 -0.1198 -0.2657 -0.2523
18681TIP3   OH277533   6.826   3.330   5.431  0.1430  0.1060 -0.5386
18681TIP3    H177534   6.786   3.244   5.426  1.0656 -0.2704 -1.7658
18681TIP3    H277535   6.896   3.321   5.497  0.2716 -0.0981 -0.7031
18682TIP3   OH277536   0.986   0.705  11.950 -1.2084 -0.2514 -0.1591
18682TIP3    H177537   1.015   0.731  11.863  0.8817  0.6021  0.7080
18682TIP3    H277538   0.933   0.627  11.936  1.0468 -1.5785 -2.0158
18683TIP3   OH277539   0.806   0.132  13.058 -0.0564  0.1379  0.4321
18683TIP3    H177540   0.720   0.107  13.094 -1.2443  1.5607 -1.2212
18683TIP3    H277541   0.802   0.227  13.051  1.4794  0.1836 -0.1203
18684TIP3   OH277542   5.153   5.151   5.205  0.2063 -0.4983  0.1262
18684TIP3    H177543   5.108   5.214   5.262  0.1982 -0.7610  0.4162
18684TIP3    H277544   5.119   5.065   5.232 -0.3186 -0.5783 -0.7541
18685TIP3   OH277545   0.483   0.402   6.364 -0.1790  0.4252 -0.4242
18685TIP3    H177546   0.444   0.400   6.452  1.9710 -1.9890  0.5958
18685TIP3    H277547   0.414   0.368   6.307 -1.7274  2.3398  0.1933
18686TIP3   OH277548   3.002   5.472  12.736 -0.1965 -0.2856  0.6407
18686TIP3    H177549   3.040   5.479  12.823  0.6254  0.5173  0.2282
18686TIP3    H277550   3.002   5.378  12.717 -1.2398 -0.5675  1.8608
18687TIP3   OH277551   2.284   2.704   5.621  0.1174  0.3870  0.0110
18687TIP3    H177552   2.217   2.719   5.554  0.5556 -0.0799 -0.5444
18687TIP3    H277553   2.363   2.683   5.571  0.4577  0.0645  0.6801
18688TIP3   OH277554   2.306   0.334  13.195 -0.1979  0.4635  0.1360
18688TIP3    H177555   2.310   0.352  13.101 -2.1213 -0.6767 -0.2268
18688TIP3    H277556   2.377   0.272  13.211 -1.9916 -2.2017 -1.3880
18689TIP3   OH277557   3.183   1.178  16.899  0.2410 -0.3425 -0.4469
18689TIP3    H177558   3.279   1.181  16.898  0.3482 -2.0027  0.8472
18689TIP3    H277559   3.161   1.090  16.869 -0.8838 -0.0663 -0.4919
18690TIP3   OH277560   5.943   5.865   4.406 -0.1821 -0.6257  0.3087
18690TIP3    H177561   6.028   5.832   4.437 -0.2051 -0.3995  0.6191
18690TIP3    H277562   5.880   5.828   4.467 -0.2716 -0.5210  0.2789
18691TIP3   OH277563   5.727   1.544  11.954 -0.0258 -0.0038 -0.0932
18691TIP3    H177564   5.770   1.484  11.892  0.3153 -0.1498  0.2828
18691TIP3    H277565   5.643   1.564  11.913  0.0634 -0.3557 -0.4560
18692TIP3   OH277566   4.856   0.802  13.056 -0.8654 -0.3792  0.1157
18692TIP3    H177567   4.801   0.867  13.011  0.2773 -0.6803 -1.8507
18692TIP3    H277568   4.909   0.853  13.117  0.6396  0.7779 -1.9916
18693TIP3   OH277569   2.359   4.705  10.632  0.1463  0.4134 -0.0650
18693TIP3    H177570   2.293   4.697  10.562 -1.8521  0.7837  1.6708
18693TIP3    H277571   2.423   4.767  10.597  1.3953 -2.2597 -3.0727
18694TIP3   OH277572   0.272   5.773  13.052  0.4732 -0.1734  0.1726
18694TIP3    H177573   0.184   5.791  13.086  0.4165  0.2599 -0.1921
18694TIP3    H277574   0.308   5.860  13.034  1.1049 -0.3358  0.6371
18695TIP3   OH277575   6.548   4.603   4.295  0.1200 -0.0653 -0.1964
18695TIP3    H177576   6.586   4.580   4.210  1.0902 -1.8156  0.6482
18695TIP3    H277577   6.624   4.614   4.352 -0.5434 -0.7167  0.8446
18696TIP3   OH277578   5.680   6.109  13.608  0.9005  0.0907  0.0637
18696TIP3    H177579   5.654   6.024  13.572  0.1386  0.5266 -0.4422
18696TIP3    H277580   5.680   6.096  13.702 -2.7480  0.4470  0.2372
18697TIP3   OH277581   4.796   5.953   3.634 -0.0929  0.2834  0.3673
18697TIP3    H177582   4.711   5.945   3.676 -1.0183 -0.6428 -1.5644
18697TIP3    H277583   4.841   5.871   3.655 -0.4802 -0.0967 -0.2600
18698TIP3   OH277584   3.639   2.910  17.051  0.4213  0.0483 -0.4481
18698TIP3    H177585   3.583   2.883  16.979  1.0188  0.0157 -0.9049
18698TIP3    H277586   3.704   2.968  17.011  0.1564  0.8346  0.2353
18699TIP3   OH277587   5.301   1.745   0.614  0.5768 -0.3553  0.1802
18699TIP3    H177588   5.252   1.718   0.692 -3.0887 -0.0815 -1.8475
18699TIP3    H277589   5.273   1.835   0.597 -0.0673 -0.9597 -2.3738
18700TIP3   OH277590   5.268   6.630  12.505  0.4741  0.3046 -0.1753
18700TIP3    H177591   5.353   6.590  12.488  0.2860 -0.2928  0.3009
18700TIP3    H277592   5.279   6.721  12.475  1.2793  0.2392 -0.1064
18701TIP3   OH277593   2.233   4.189   3.819  0.3669 -0.5288 -0.3052
18701TIP3    H177594   2.219   4.165   3.727 -0.5066  1.6124 -0.7992
18701TIP3    H277595   2.290   4.120   3.853  0.1717 -1.7558 -2.2519
18702TIP3   OH277596   1.411   4.141  11.933 -0.6812 -0.7205 -0.0303
18702TIP3    H177597   1.440   4.053  11.910 -0.6886 -0.2954 -1.7743
18702TIP3    H277598   1.316   4.132  11.947 -0.5332 -1.1556  0.7433
18703TIP3   OH277599   2.877   6.100   1.243 -0.0125  0.2034  0.1125
18703TIP3    H177600   2.928   6.179   1.225  0.2938  0.0709  0.4084
18703TIP3    H277601   2.918   6.033   1.189 -0.2802  0.2446 -0.1476
18704TIP3   OH277602   0.414   2.053  15.770 -0.5648 -0.5501 -0.0769
18704TIP3    H177603   0.364   2.091  15.698  0.4080 -1.3344 -1.1944
18704TIP3    H277604   0.472   2.123  15.798 -1.3027 -0.0787  0.3022
18705TIP3   OH277605   5.952   0.924   0.925 -0.0136 -0.0305 -0.1226
18705TIP3    H177606   5.960   0.833   0.955  0.2491  0.5316  1.6385
18705TIP3    H277607   5.932   0.917   0.832 -1.6678 -1.9285  0.3083
18706TIP3   OH277608   5.297   3.340  13.116 -0.1698  0.3543  0.2979
18706TIP3    H177609   5.306   3.253  13.155 -3.1085 -0.3301 -0.3356
18706TIP3    H277610   5.358   3.340  13.042 -1.0608 -1.7308 -0.5166
18707TIP3   OH277611   3.871   2.284  12.752 -0.3998  0.2737 -0.2028
18707TIP3    H177612   3.901   2.245  12.834 -2.8232 -0.8593  0.2266
18707TIP3    H277613   3.950   2.319  12.712  1.3349 -1.8079  1.1752
18708TIP3   OH277614   3.714   2.282  14.546 -0.3772 -0.6142  0.1660
18708TIP3    H177615   3.688   2.369  14.513  1.2250 -0.4549 -0.8028
18708TIP3    H277616   3.689   2.283  14.638  1.1359  1.5829  0.6411
18709TIP3   OH277617   2.319   4.400  13.625 -0.3003 -0.0473 -0.0382
18709TIP3    H177618   2.365   4.340  13.684 -2.1088 -0.5413  0.9726
18709TIP3    H277619   2.297   4.475  13.680 -2.3651 -0.6904  0.1036
18710TIP3   OH277620   2.954   5.163  12.799 -0.0125 -0.1791 -0.0742
18710TIP3    H177621   2.888   5.097  12.780 -0.0562 -0.1453 -0.0386
18710TIP3    H277622   2.910   5.225  12.857 -0.9677  1.5551 -2.4691
18711TIP3   OH277623   6.365   1.490  14.122  0.1238 -0.1930  0.0001
18711TIP3    H177624   6.315   1.442  14.056 -0.1669 -0.4106  0.3746
18711TIP3    H277625   6.417   1.553  14.072 -1.6782  1.1214 -0.3316
18712TIP3   OH277626   5.989   2.206   5.469  0.2209 -0.1863  0.4929
18712TIP3    H177627   6.042   2.129   5.492  0.1791 -0.6437 -0.8467
18712TIP3    H277628   5.899   2.173   5.466  0.1919 -0.0723  0.0068
18713TIP3   OH277629   4.677   4.764   5.274 -0.2217 -0.6414 -0.7303
18713TIP3    H177630   4.627   4.693   5.233  0.0169 -0.6278 -1.0436
18713TIP3    H277631   4.743   4.789   5.209 -1.4998  1.1689 -1.4062
18714TIP3   OH277632   6.195   5.634   2.580  0.4929 -0.2910  0.0479
18714TIP3    H177633   6.275   5.676   2.550  0.8107 -0.5847  0.4676
18714TIP3    H277634   6.128   5.703   2.575  0.4766 -0.3803 -1.4976
18715TIP3   OH277635   0.517   3.128   5.329  0.2357  0.1203 -0.1471
18715TIP3    H177636   0.590   3.078   5.291  0.8900  1.4460 -0.7244
18715TIP3    H277637   0.450   3.127   5.261 -0.9937 -2.4287  0.9779
18716TIP3   OH277638   5.062   2.987  12.173 -0.4182 -0.0922  0.1445
18716TIP3    H177639   5.029   2.946  12.253  0.6911  0.6705  1.0209
18716TIP3    H277640   5.149   2.950  12.160 -0.1890  0.5279 -0.1457
18717TIP3   OH277641   4.154   2.613   0.096 -0.3856  0.3758 -0.2027
18717TIP3    H177642   4.237   2.648   0.129 -0.1812 -1.0016  0.7997
18717TIP3    H277643   4.093   2.622   0.168 -0.6666 -0.1557 -0.3687
18718TIP3   OH277644   3.738   4.227  16.694  0.3248  0.0829  0.3249
18718TIP3    H177645   3.818   4.266  16.728  0.9099 -2.7251  2.5347
18718TIP3    H277646   3.767   4.170  16.622 -0.0186  0.7663 -0.3707
18719TIP3   OH277647   4.843   4.536  13.916 -0.5248 -0.4464 -0.5649
18719TIP3    H177648   4.903   4.470  13.881 -1.5645 -1.2270 -0.9122
18719TIP3    H277649   4.847   4.608  13.853  0.0277 -0.4889 -0.5894
18720TIP3   OH277650   2.491   0.995   5.395  0.0011 -0.3035  0.7082
18720TIP3    H177651   2.558   0.928   5.387  0.7752  0.1328  2.9530
18720TIP3    H277652   2.521   1.066   5.338  1.2207 -0.3215  1.2963
18721TIP3   OH277653   2.082   3.354   3.307  0.2538 -0.2570 -0.4843
18721TIP3    H177654   2.032   3.273   3.297 -1.2297  0.7520 -1.7752
18721TIP3    H277655   2.172   3.330   3.285 -0.0769 -1.6474 -0.3934
18722TIP3   OH277656   6.355   4.432   4.389 -0.1558  0.3471 -0.0626
18722TIP3    H177657   6.361   4.356   4.331 -2.2270  0.4948 -0.5448
18722TIP3    H277658   6.414   4.497   4.350  0.3486 -0.4031 -0.5884
18723TIP3   OH277659   4.086   2.184  10.440 -0.0729 -0.1670 -0.0006
18723TIP3    H177660   3.996   2.155  10.457  0.5204 -2.0388  0.1427
18723TIP3    H277661   4.141   2.122  10.487  1.3252  0.8912 -0.1577
18724TIP3   OH277662   0.102   5.239  11.887  0.5661  0.2018  0.8365
18724TIP3    H177663   0.168   5.178  11.920  1.9875  1.5019  0.5018
18724TIP3    H277664   0.029   5.232  11.949  2.1313  0.7130  2.8301
18725TIP3   OH277665   4.304   0.162   4.024  0.1701  0.2620  0.5230
18725TIP3    H177666   4.332   0.232   3.966  0.7486  0.0430  0.5336
18725TIP3    H277667   4.260   0.099   3.966  1.0374 -0.1144  0.2607
18726TIP3   OH277668   0.628   2.047   5.557 -0.0457  0.1404 -0.0771
18726TIP3    H177669   0.688   1.987   5.602  0.4999  0.8142  0.1187
18726TIP3    H277670   0.544   2.033   5.600  0.1239 -0.3350  0.1044
18727TIP3   OH277671   5.056   0.750   1.416 -0.2336  0.1853  0.0521
18727TIP3    H177672   5.046   0.711   1.503 -0.4924  1.5583  0.6567
18727TIP3    H277673   5.045   0.844   1.430 -0.4697  0.4164 -1.4991
18728TIP3   OH277674   2.609   6.216   4.555 -0.1320 -0.3542  0.8518
18728TIP3    H177675   2.515   6.208   4.576 -0.0064  1.4855  2.4357
18728TIP3    H277676   2.611   6.264   4.472 -0.5894 -0.1943  0.9299
18729TIP3   OH277677   6.431   0.548   2.423  0.2121  0.7692 -0.2567
18729TIP3    H177678   6.524   0.563   2.438  0.3970  0.1722 -0.7555
18729TIP3    H277679   6.418   0.455   2.440 -0.4401  0.9817  0.4966
18730TIP3   OH277680   6.688   4.486   2.895 -0.3855  0.5472  0.0778
18730TIP3    H177681   6.601   4.520   2.872 -0.8198 -0.4782  0.1381
18730TIP3    H277682   6.722   4.453   2.812 -0.7269 -0.4969  0.3446
18731TIP3   OH277683   2.238   3.927  11.191 -0.0166  0.0589 -0.3398
18731TIP3    H177684   2.264   3.878  11.269 -0.3446 -0.4990 -0.5738
18731TIP3    H277685   2.149   3.958  11.212 -0.5118 -0.9435 -0.8678
18732TIP3   OH277686   4.875   1.187   0.665 -0.6551 -0.2446  0.4050
18732TIP3    H177687   4.892   1.221   0.752  0.6032 -1.8473  0.8463
18732TIP3    H277688   4.781   1.172   0.662 -0.7079 -0.1554  1.4828
18733TIP3   OH277689   6.520   5.206   0.295  0.1930 -0.3067 -0.0052
18733TIP3    H177690   6.496   5.124   0.338 -0.4460 -0.3715 -0.4723
18733TIP3    H277691   6.588   5.243   0.350 -2.2604  0.8298  2.4817
18734TIP3   OH277692   5.292   2.994  14.624 -0.3208 -0.9076  0.4335
18734TIP3    H177693   5.253   2.954  14.701 -2.3794  0.5682  0.2198
18734TIP3    H277694   5.379   2.954  14.618 -0.7977 -2.3899  2.4377
18735TIP3   OH277695   2.572   5.820  15.150  0.5184  0.5639  0.1417
18735TIP3    H177696   2.486   5.808  15.111  0.6927  0.3650 -0.1800
18735TIP3    H277697   2.557   5.880  15.223  0.3211  1.5973 -0.7213
18736TIP3   OH277698   3.428   3.231  11.523  0.2318  0.2582 -0.4572
18736TIP3    H177699   3.516   3.198  11.540 -0.3812 -1.2637 -0.0581
18736TIP3    H277700   3.406   3.283  11.600  0.9540  1.0754 -0.7841
18737TIP3   OH277701   2.055   0.039   0.183 -0.6802  0.2635  0.4029
18737TIP3    H177702   2.068  -0.053   0.208  1.4424  0.7902  1.4742
18737TIP3    H277703   2.133   0.084   0.214 -0.4520  2.0234 -2.3374
18738TIP3   OH277704   5.273   1.278  13.440  0.2796 -0.0473  0.1534
18738TIP3    H177705   5.322   1.283  13.522  1.4518 -0.6724 -0.4805
18738TIP3    H277706   5.309   1.201  13.396 -1.6334 -0.8455 -0.1293
18739TIP3   OH277707   6.312   6.516   5.381 -0.4149  0.0835  0.0849
18739TIP3    H177708   6.261   6.572   5.439 -0.1832 -0.0016  0.3741
18739TIP3    H277709   6.387   6.489   5.434 -0.5079 -0.4739 -0.0592
18740TIP3   OH277710   1.948   1.321  15.875 -0.0647 -0.0978 -0.1547
18740TIP3    H177711   1.990   1.274  15.947 -0.6800 -0.9003 -0.3082
18740TIP3    H277712   2.021   1.358  15.825  0.3930 -0.2004  0.4224
18741TIP3   OH277713   4.643   2.699   5.855 -0.2870  0.5927  0.7067
18741TIP3    H177714   4.696   2.763   5.807 -1.0263  1.0305  0.4575
18741TIP3    H277715   4.706   2.633   5.884  0.5300  1.5519  1.1788
18742TIP3   OH277716   5.754   4.233   4.829 -0.2774  0.0586  0.1260
18742TIP3    H177717   5.834   4.284   4.843  0.3910 -0.7843 -0.5076
18742TIP3    H277718   5.683   4.293   4.852  0.5383  0.7560  0.8926
18743TIP3   OH277719   2.179   1.131   0.260  0.5126  0.1933  0.4521
18743TIP3    H177720   2.241   1.198   0.287  2.1236 -0.2095 -1.9516
18743TIP3    H277721   2.141   1.165   0.179 -0.8369 -0.5299  0.7542
18744TIP3   OH277722   6.594   5.443  15.355  0.7149 -0.3119  0.0845
18744TIP3    H177723   6.516   5.494  15.377  0.9056 -0.3998  1.0154
18744TIP3    H277724   6.561   5.370  15.303  0.3972  0.5514 -0.9544
18745TIP3   OH277725   0.374   1.780   3.788  0.1257  0.2731  0.3692
18745TIP3    H177726   0.396   1.788   3.881 -1.6449 -1.2427  0.9926
18745TIP3    H277727   0.450   1.738   3.749  0.7496  0.5886  1.2091
18746TIP3   OH277728   3.921   5.278  11.490 -0.3770 -0.2893 -0.6241
18746TIP3    H177729   3.843   5.317  11.451 -0.1515 -0.0234 -0.8138
18746TIP3    H277730   3.896   5.260  11.581 -1.1943 -1.7295 -1.1019
18747TIP3   OH277731   1.593   6.487  15.132  0.3400  0.3274 -0.0252
18747TIP3    H177732   1.640   6.511  15.212  1.2799 -2.3119  0.3103
18747TIP3    H277733   1.503   6.517  15.147  0.3911 -0.4685  2.2303
18748TIP3   OH277734   5.991   5.046   2.002  0.3046 -0.4724  0.2414
18748TIP3    H177735   6.035   5.007   1.927  1.2835 -1.2094  1.1685
18748TIP3    H277736   5.948   4.972   2.045 -4.1523  0.4680 -1.9995
18749TIP3   OH277737   3.694   1.696   3.475  0.4120  0.2521  0.0660
18749TIP3    H177738   3.750   1.686   3.398  0.6692 -1.3821  0.4301
18749TIP3    H277739   3.665   1.787   3.472  1.2949  0.5146 -1.3550
18750TIP3   OH277740   6.063   4.127   2.658 -0.8318 -0.1149 -0.3957
18750TIP3    H177741   6.107   4.050   2.623  1.2940  0.7421  0.1920
18750TIP3    H277742   6.023   4.098   2.740  0.3197 -0.5200  0.0395
18751TIP3   OH277743   4.429   6.587   3.747 -0.4925 -0.1934 -0.0836
18751TIP3    H177744   4.454   6.495   3.753 -1.7117 -0.5498 -0.3217
18751TIP3    H277745   4.387   6.596   3.662 -0.6849  0.5052  0.0777
18752TIP3   OH277746   3.061   2.770   0.006  0.0429 -0.0469  0.4208
18752TIP3    H177747   3.017   2.728  -0.068  0.0700 -1.3704  1.1148
18752TIP3    H277748   2.992   2.822   0.048 -0.1970 -0.0246  0.0083
18753TIP3   OH277749   1.291   5.667   3.340 -0.3201  0.2336 -0.5837
18753TIP3    H177750   1.216   5.626   3.383  0.3465 -0.2948  0.1045
18753TIP3    H277751   1.304   5.749   3.389  0.2658 -0.2350  0.0690
18754TIP3   OH277752   4.412   2.585  16.300 -0.1197  0.1759 -0.3936
18754TIP3    H177753   4.480   2.567  16.365 -1.7497 -0.7144  1.1543
18754TIP3    H277754   4.407   2.506  16.246  0.9403  0.7515 -1.3749
18755TIP3   OH277755   2.712   2.754   3.388 -0.8073 -0.3106 -0.4256
18755TIP3    H177756   2.708   2.693   3.462 -1.4165  0.4268  0.1650
18755TIP3    H277757   2.649   2.719   3.325 -0.1309 -1.0596 -0.6904
18756TIP3   OH277758   4.898   1.473  15.824  0.3927 -0.0618 -0.2931
18756TIP3    H177759   4.871   1.466  15.733 -0.1704  0.4864 -0.1752
18756TIP3    H277760   4.915   1.566  15.837 -0.7288  0.0543  0.4831
18757TIP3   OH277761   6.243   1.415   1.450  0.0134 -0.2437 -0.0811
18757TIP3    H177762   6.299   1.471   1.397 -0.7271 -0.6547 -1.3393
18757TIP3    H277763   6.247   1.330   1.408 -1.0607 -0.4328  0.1580
18758TIP3   OH277764   4.493   4.522   5.513  0.0443  0.1450  0.5430
18758TIP3    H177765   4.511   4.438   5.555  1.5015 -2.2769 -4.1821
18758TIP3    H277766   4.404   4.513   5.479  0.4711  0.1049 -0.6187
18759TIP3   OH277767   1.088   3.091   4.075  0.1278  0.4138  0.1996
18759TIP3    H177768   1.164   3.033   4.082  0.5010  0.9418  0.5953
18759TIP3    H277769   1.053   3.094   4.164 -0.7762 -0.3673 -0.1082
18760TIP3   OH277770   2.480   5.674   1.387  0.3126  0.0164 -0.5155
18760TIP3    H177771   2.485   5.603   1.323 -0.8274 -0.8464  0.3044
18760TIP3    H277772   2.429   5.742   1.343 -0.5687 -0.6169 -0.5123
18761TIP3   OH277773   5.989   1.938  12.347 -0.6741  1.2221 -0.1040
18761TIP3    H177774   6.052   1.894  12.290 -0.6534 -0.0980  0.9028
18761TIP3    H277775   5.995   2.031  12.323  0.7647  0.9536 -0.8474
18762TIP3   OH277776   3.622   6.240   5.601  0.2457  0.4569  0.0791
18762TIP3    H177777   3.665   6.184   5.666  1.0078  2.3299  1.2991
18762TIP3    H277778   3.694   6.286   5.558 -0.2783 -0.4659 -1.9114
18763TIP3   OH277779   1.608   5.830  13.706 -0.1905  0.2606  0.4321
18763TIP3    H177780   1.550   5.755  13.695 -1.4983  1.3315 -0.1629
18763TIP3    H277781   1.572   5.878  13.780  0.3407  0.5828  0.4922
18764TIP3   OH277782   0.186   6.064   1.045 -0.0899  0.7840  0.3326
18764TIP3    H177783   0.174   5.988   0.988  1.9550  0.1916  0.6058
18764TIP3    H277784   0.099   6.083   1.079 -0.8104 -0.8202 -0.5236
18765TIP3   OH277785   4.621   3.843  15.089 -0.2326  0.5214  0.4775
18765TIP3    H177786   4.548   3.781  15.097  1.1647 -1.3456 -0.3903
18765TIP3    H277787   4.609   3.904  15.161 -0.8529 -1.7084  2.3740
18766TIP3   OH277788   4.511   0.634   3.440  0.5954  0.3257 -0.3947
18766TIP3    H177789   4.441   0.588   3.487  0.3408  0.5725 -0.5267
18766TIP3    H277790   4.581   0.569   3.432  1.3986  0.8011  1.9502
18767TIP3   OH277791   0.658   1.363  13.382 -0.2603 -0.6613 -0.1514
18767TIP3    H177792   0.600   1.418  13.434 -2.0153 -2.2331 -0.3551
18767TIP3    H277793   0.632   1.273  13.403  2.2015 -1.4721 -0.1605
18768TIP3   OH277794   6.751   4.111   1.918  0.0824  0.2751  0.0269
18768TIP3    H177795   6.803   4.190   1.901  1.6265 -0.8215 -0.5349
18768TIP3    H277796   6.749   4.104   2.014  0.2568  0.7806  0.0741
18769TIP3   OH277797   3.207   4.486   1.181 -0.0679 -0.8921  0.1579
18769TIP3    H177798   3.207   4.437   1.263 -0.9642 -0.2063  0.5698
18769TIP3    H277799   3.273   4.554   1.194 -0.5672 -0.4720  0.4968
18770TIP3   OH277800   3.069   0.762  14.268  0.1157  0.0108  0.2610
18770TIP3    H177801   3.146   0.768  14.325  0.3001 -0.5145  0.0722
18770TIP3    H277802   3.095   0.700  14.200  0.0600  0.9913 -0.6641
18771TIP3   OH277803   2.238   1.420  15.150 -0.4935 -0.6698  0.1749
18771TIP3    H177804   2.284   1.337  15.142 -1.0503 -0.8955 -0.8028
18771TIP3    H277805   2.272   1.473  15.077  1.0419  0.5740  1.6869
18772TIP3   OH277806   4.987   2.341   0.333 -0.1237 -0.1820 -0.0368
18772TIP3    H177807   4.993   2.310   0.423  0.7883  0.0016 -0.0236
18772TIP3    H277808   5.009   2.265   0.280  2.1195  0.3584 -0.0043
18773TIP3   OH277809   4.582   5.454  11.287  0.2590 -0.2712  0.1441
18773TIP3    H177810   4.543   5.423  11.205 -1.2504 -2.0231  1.4427
18773TIP3    H277811   4.523   5.524  11.316  1.9314  1.8285 -1.2044
18774TIP3   OH277812   1.937   0.945   1.759  0.3634 -0.2907  0.3097
18774TIP3    H177813   1.876   0.969   1.828  0.0506  0.9690 -0.3848
18774TIP3    H277814   1.882   0.919   1.685  0.6860 -2.3992  0.7297
18775TIP3   OH277815   2.048   2.591   1.646 -0.1254  0.3113 -0.5813
18775TIP3    H177816   2.099   2.619   1.722 -1.1803  1.7313 -0.3394
18775TIP3    H277817   2.068   2.655   1.578  2.4863 -2.1215 -2.3667
18776TIP3   OH277818   4.149   0.968   1.725  0.2220  0.2239  0.4224
18776TIP3    H177819   4.163   0.966   1.631 -0.5882  0.1750  0.2981
18776TIP3    H277820   4.216   1.028   1.758  2.1518 -1.6658  0.1314
18777TIP3   OH277821   1.812   1.939  12.279  0.0767  0.5871 -0.6489
18777TIP3    H177822   1.847   1.961  12.193 -0.1250  0.4456 -0.7665
18777TIP3    H277823   1.864   1.864  12.308  1.1048  1.5056 -0.0311
18778TIP3   OH277824   2.786   4.526  12.345  0.1461 -0.2862  0.5528
18778TIP3    H177825   2.766   4.575  12.266 -0.8350 -0.1467  0.8667
18778TIP3    H277826   2.841   4.584  12.397  0.4313 -0.2088  0.1613
18779TIP3   OH277827   0.855   5.807  16.653 -0.3328 -0.3686 -0.0393
18779TIP3    H177828   0.786   5.780  16.592  0.4406 -0.1847 -1.0193
18779TIP3    H277829   0.810   5.861  16.718 -0.9205  0.7936 -1.3578
18780TIP3   OH277830   4.461   2.684   6.310 -0.0342  0.0147  0.7519
18780TIP3    H177831   4.484   2.596   6.338  0.1337 -0.0490  0.4249
18780TIP3    H277832   4.431   2.673   6.219  1.2892  0.4718  0.2340
18781TIP3   OH277833   5.811   5.485  16.674  0.3662  0.4810 -0.4032
18781TIP3    H177834   5.853   5.539  16.742 -1.4853  2.3845 -0.6625
18781TIP3    H277835   5.722   5.471  16.706  0.4868 -1.6428 -0.8483
18782TIP3   OH277836   6.684   6.065   3.399  0.1207  0.1412 -0.4176
18782TIP3    H177837   6.747   6.107   3.458  0.4410 -0.0792 -0.6001
18782TIP3    H277838   6.724   5.981   3.376 -0.8215 -0.5697  0.4779
18783TIP3   OH277839   4.855   3.923  12.639  0.0265 -0.1802 -0.2190
18783TIP3    H177840   4.842   3.930  12.545 -1.3503 -2.5443 -0.2758
18783TIP3    H277841   4.844   3.830  12.659 -0.5462  0.3409  2.3903
18784TIP3   OH277842   6.053   3.121   5.172 -0.3735 -0.1000  0.9592
18784TIP3    H177843   5.974   3.148   5.124  0.8716  2.2780  0.0571
18784TIP3    H277844   6.032   3.035   5.207 -2.4052 -0.7046 -1.4682
18785TIP3   OH277845   5.780   4.223   2.035  0.4114  0.1936 -0.1901
18785TIP3    H177846   5.815   4.160   1.972 -0.1274  0.6536 -0.9591
18785TIP3    H277847   5.858   4.260   2.078  0.7479 -0.6738 -0.0346
18786TIP3   OH277848   5.111   4.390  15.129  0.3125  0.2396  0.5274
18786TIP3    H177849   5.151   4.303  15.136  0.5721  0.2405 -0.7535
18786TIP3    H277850   5.167   4.447  15.182 -1.2109 -0.7514  3.4501
18787TIP3   OH277851   6.056   2.932  11.523  0.1860  0.0892  0.1700
18787TIP3    H177852   6.069   3.001  11.458  0.2895  0.4549  0.5734
18787TIP3    H277853   5.964   2.909  11.516 -0.0045  0.7324  0.4841
18788TIP3   OH277854   6.445   3.247   4.681  0.0839 -0.4003  0.9752
18788TIP3    H177855   6.454   3.168   4.629 -1.1935  0.0715 -0.0253
18788TIP3    H277856   6.490   3.315   4.630 -0.3209 -0.1383  0.9580
18789TIP3   OH277857   2.097   5.418  15.996 -0.6506  0.4182  0.0247
18789TIP3    H177858   2.142   5.422  15.912  0.5507  0.0418  0.6285
18789TIP3    H277859   2.005   5.407  15.974 -0.5219  1.6815 -1.2519
18790TIP3   OH277860   1.792   0.125   0.248  0.6491 -0.5440 -0.3622
18790TIP3    H177861   1.884   0.122   0.223  1.4411  0.7229  2.0888
18790TIP3    H277862   1.785   0.065   0.322 -0.6724 -1.1329 -0.9337
18791TIP3   OH277863   5.841   6.759  12.294 -0.2091  0.5200 -0.0921
18791TIP3    H177864   5.904   6.751  12.365 -0.6613  0.8346  0.3531
18791TIP3    H277865   5.806   6.848  12.304  1.7631  1.6950 -2.4134
18792TIP3   OH277866   5.597   1.990  12.850 -0.2290 -0.2861 -0.4845
18792TIP3    H177867   5.666   2.052  12.875  1.0451 -1.1314 -1.7968
18792TIP3    H277868   5.588   1.934  12.927  0.2324  0.1067 -0.1322
18793TIP3   OH277869   3.091   6.480  12.547 -0.2741 -0.7015 -0.0924
18793TIP3    H177870   3.022   6.523  12.597  1.8225  1.7831  0.9685
18793TIP3    H277871   3.121   6.548  12.485  1.9652 -1.1984  0.3435
18794TIP3   OH277872   1.583   1.529   1.173  0.0751 -0.2295 -0.3175
18794TIP3    H177873   1.540   1.484   1.245  0.3837 -1.6140 -0.9600
18794TIP3    H277874   1.518   1.593   1.142 -0.3099 -0.1059  0.7285
18795TIP3   OH277875   3.398   1.976  13.931 -0.0116 -0.0965  0.2205
18795TIP3    H177876   3.424   1.926  14.009 -0.6256  0.1785  0.6138
18795TIP3    H277877   3.320   1.931  13.898  0.2761 -0.2406 -0.2681
18796TIP3   OH277878   4.688   0.630   4.883  0.5894  0.4186 -0.5507
18796TIP3    H177879   4.645   0.635   4.968  1.1492 -0.8082 -0.1677
18796TIP3    H277880   4.701   0.721   4.857 -1.2905  0.8181 -0.2187
18797TIP3   OH277881   4.306   0.416  15.576  0.0158  0.1060  0.3138
18797TIP3    H177882   4.362   0.385  15.505  0.3331  0.3900  0.4391
18797TIP3    H277883   4.329   0.508  15.587  1.4126 -0.4002  2.1152
18798TIP3   OH277884   0.783   1.327  14.234  0.4984 -0.3830 -0.1757
18798TIP3    H177885   0.722   1.256  14.257  1.7696 -0.7778  2.4152
18798TIP3    H277886   0.728   1.394  14.194 -1.1098 -1.9239 -0.6659
18799TIP3   OH277887   6.779   3.574   6.099 -0.2499 -0.1896  0.0065
18799TIP3    H177888   6.735   3.528   6.171  0.8991 -0.6390  0.4472
18799TIP3    H277889   6.803   3.659   6.136 -1.5079  0.4127 -0.5095
18800TIP3   OH277890   0.380   2.358  11.446 -0.1483  0.2359  0.1669
18800TIP3    H177891   0.301   2.304  11.450  0.4779 -0.6894  0.3921
18800TIP3    H277892   0.377   2.400  11.360 -0.4815 -0.4169 -0.1423
18801TIP3   OH277893   5.992   1.205   0.911 -0.0512  0.1195 -0.2323
18801TIP3    H177894   5.961   1.116   0.891  0.2350  0.2589 -1.3736
18801TIP3    H277895   5.918   1.261   0.890 -0.3152  0.1477  0.7194
18802TIP3   OH277896   3.575   6.404  11.981 -0.2487 -0.2912 -0.6317
18802TIP3    H177897   3.521   6.327  11.966 -0.2499 -0.2488 -0.8487
18802TIP3    H277898   3.594   6.403  12.075 -2.6959  1.0582 -0.0442
18803TIP3   OH277899   3.503   3.763   0.845 -0.2707 -0.0346  0.3489
18803TIP3    H177900   3.421   3.716   0.860 -0.2169 -0.8924 -1.6095
18803TIP3    H277901   3.548   3.762   0.929 -1.1187 -1.8987  0.8251
18804TIP3   OH277902   6.572   4.947  14.773  0.0113  0.8429  0.5588
18804TIP3    H177903   6.639   5.011  14.750  1.4591 -1.2403 -1.4120
18804TIP3    H277904   6.617   4.863  14.770 -2.6073 -0.6325 -0.5525
18805TIP3   OH277905   2.155   4.438   0.914 -1.0990 -0.5250  0.1468
18805TIP3    H177906   2.218   4.480   0.854  0.8900 -0.1011  2.3738
18805TIP3    H277907   2.069   4.467   0.882 -0.0581  0.9164 -1.5717
18806TIP3   OH277908   0.236   0.899  15.140 -0.1808 -0.3853 -1.0021
18806TIP3    H177909   0.317   0.946  15.120  0.2392  0.6075  2.3702
18806TIP3    H277910   0.167   0.952  15.101  0.5333  1.1413 -0.2705
18807TIP3   OH277911   0.277   4.689  16.684 -0.5674 -0.4888  0.2096
18807TIP3    H177912   0.255   4.604  16.645 -0.6044 -0.2530 -0.2877
18807TIP3    H277913   0.325   4.735  16.615  0.0260 -0.3522  0.6986
18808TIP3   OH277914   1.752   2.674   2.830  0.0690  0.2252  0.1161
18808TIP3    H177915   1.844   2.653   2.843  0.4336  0.3414 -1.8937
18808TIP3    H277916   1.725   2.617   2.758 -1.4007  0.2942  0.5827
18809TIP3   OH277917   4.208   3.803   3.906  0.3171  0.5718 -0.1073
18809TIP3    H177918   4.261   3.740   3.857  0.8729  0.9958 -0.0584
18809TIP3    H277919   4.265   3.880   3.916  0.7991 -0.0566  2.5643
18810TIP3   OH277920   5.807   4.936   5.628  0.4835 -0.0070 -0.1839
18810TIP3    H177921   5.738   4.996   5.656  0.5636  0.2673 -0.5689
18810TIP3    H277922   5.762   4.873   5.572  0.4683 -0.0839 -0.0856
18811TIP3   OH277923   3.992   3.754  13.736  0.6060 -0.2547  0.4945
18811TIP3    H177924   4.067   3.747  13.796  1.5567  1.9501 -0.3465
18811TIP3    H277925   3.936   3.679  13.759  2.2589 -1.0360  2.2490
18812TIP3   OH277926   3.201   4.821  11.961 -0.1381 -0.1941 -0.2909
18812TIP3    H177927   3.163   4.905  11.986 -0.1293 -0.2744  0.0074
18812TIP3    H277928   3.292   4.826  11.990  0.3241  0.3083 -1.7419
18813TIP3   OH277929   6.516   0.877  15.901  0.2540  0.1189  0.5242
18813TIP3    H177930   6.593   0.927  15.927 -0.3464  1.5611 -0.4023
18813TIP3    H277931   6.550   0.788  15.889  2.0226  0.9241 -0.9203
18814TIP3   OH277932   4.491   4.741  11.544 -0.3244 -0.4706 -0.1581
18814TIP3    H177933   4.436   4.676  11.588 -0.5270 -0.1794  0.0301
18814TIP3    H277934   4.464   4.824  11.584 -0.3786 -0.2223 -0.7079
18815TIP3   OH277935   1.255   2.119   5.786  0.1100  0.1084 -0.3776
18815TIP3    H177936   1.209   2.145   5.865  1.1470 -1.7297  0.9080
18815TIP3    H277937   1.347   2.141   5.803  0.5089 -1.3071 -0.5982
18816TIP3   OH277938   4.843   3.296  10.741 -0.1745  0.0292  0.1921
18816TIP3    H177939   4.857   3.201  10.743 -0.7136 -0.0727 -0.5662
18816TIP3    H277940   4.928   3.332  10.714  0.5361 -0.0961  2.1059
18817TIP3   OH277941   6.267   3.642   3.109  0.1353  0.3321 -0.5526
18817TIP3    H177942   6.184   3.599   3.131  0.4811 -0.1481 -0.1705
18817TIP3    H277943   6.296   3.682   3.191 -0.3922  1.6872 -0.9904
18818TIP3   OH277944   2.009   3.257   2.325  0.0060 -0.2231 -0.3005
18818TIP3    H177945   2.062   3.224   2.252 -0.8440 -2.4556  0.0066
18818TIP3    H277946   1.971   3.178   2.364 -1.7131  1.1328  0.9004
18819TIP3   OH277947   5.202   2.139   4.794  0.6438  0.1264 -0.3285
18819TIP3    H177948   5.284   2.101   4.763  0.1071 -0.2379 -1.3544
18819TIP3    H277949   5.191   2.219   4.743  0.1316 -0.0725 -0.5414
18820TIP3   OH277950   2.447   3.939   1.221  0.0217 -0.4345  0.8060
18820TIP3    H177951   2.532   3.983   1.221 -0.9081  1.4608  0.8569
18820TIP3    H277952   2.453   3.877   1.294  1.1486  0.1119  1.2179
18821TIP3   OH277953   3.202   5.133  15.292 -0.2207 -0.2222  0.1788
18821TIP3    H177954   3.151   5.177  15.224 -0.8130  1.5805  1.7023
18821TIP3    H277955   3.199   5.041  15.268 -2.2244  0.1117 -1.0743
18822TIP3   OH277956   5.809   6.051  10.731 -0.5740  0.1419  0.6913
18822TIP3    H177957   5.776   5.974  10.778 -0.7940  0.0352  0.3661
18822TIP3    H277958   5.776   6.040  10.642 -1.6627  1.2611  0.9425
18823TIP3   OH277959   5.980   2.361  13.159  0.2167 -0.7907  0.0657
18823TIP3    H177960   5.995   2.268  13.173  0.8624 -0.8880 -1.1298
18823TIP3    H277961   6.030   2.382  13.080  0.0999  0.5751  0.3267
18824TIP3   OH277962   3.725   2.851   3.058 -0.2366 -0.2007  0.3650
18824TIP3    H177963   3.795   2.867   3.121  0.3349 -1.8220  0.1731
18824TIP3    H277964   3.654   2.814   3.110 -0.9831  1.4235  0.5560
18825TIP3   OH277965   0.673   1.083  16.337  0.2306 -0.3127 -0.4648
18825TIP3    H177966   0.732   1.155  16.317 -0.3056  0.5049  0.7477
18825TIP3    H277967   0.592   1.126  16.365  0.7071 -1.2479  2.8232
18826TIP3   OH277968   4.142   1.727   3.489  0.2987 -0.0096  0.0679
18826TIP3    H177969   4.200   1.676   3.432 -1.1231 -0.9890 -0.5639
18826TIP3    H277970   4.135   1.812   3.446  1.0768  0.0437  0.0299
18827TIP3   OH277971   4.880   6.283  11.579  0.4043  0.2257  0.4073
18827TIP3    H177972   4.810   6.219  11.593  1.4126 -1.4308 -1.6007
18827TIP3    H277973   4.859   6.325  11.496  1.9919 -0.6944 -0.5161
18828TIP3   OH277974   4.473   3.961   3.313 -0.4480  0.1645  0.4754
18828TIP3    H177975   4.509   4.033   3.365 -0.5726 -0.5907  1.6503
18828TIP3    H277976   4.386   3.946   3.351 -1.0272  0.3598 -0.7361
18829TIP3   OH277977   6.638   4.500  15.843 -0.8923  0.5813  0.1271
18829TIP3    H177978   6.725   4.494  15.803 -0.8899 -0.3144  0.2374
18829TIP3    H277979   6.622   4.594  15.852  0.0623  0.7602  0.0994
18830TIP3   OH277980   1.734   4.187   3.156 -0.0525  0.6213 -0.2877
18830TIP3    H177981   1.728   4.279   3.183  2.9566  0.1053  2.7994
18830TIP3    H277982   1.721   4.137   3.236 -0.6066 -1.6490 -1.7036
18831TIP3   OH277983   5.078   5.344  16.573 -0.2121  0.2238  0.2093
18831TIP3    H177984   5.093   5.370  16.482 -0.1977  0.2754  0.2263
18831TIP3    H277985   5.071   5.248  16.569  0.4454  0.1656  0.2477
18832TIP3   OH277986   2.185   2.839  14.388 -0.5304  0.0428  0.3552
18832TIP3    H177987   2.236   2.852  14.468 -0.0726 -1.6765  0.3776
18832TIP3    H277988   2.112   2.783  14.415 -0.3052 -0.6523 -0.4483
18833TIP3   OH277989   5.440   0.441  15.463 -0.2469 -0.1761  0.2770
18833TIP3    H177990   5.470   0.527  15.494 -0.3449  0.1038 -0.3849
18833TIP3    H277991   5.392   0.405  15.537 -0.9122  0.6934  0.2901
18834TIP3   OH277992   6.316   5.587  10.607 -0.3451  0.0062 -0.1619
18834TIP3    H177993   6.388   5.558  10.664 -0.6427 -0.3836  0.0197
18834TIP3    H277994   6.355   5.656  10.553  0.2666 -0.4367 -0.3058
18835TIP3   OH277995   5.589   2.229  11.824  0.4955  0.8688 -0.1292
18835TIP3    H177996   5.566   2.278  11.903 -3.2143  1.5956 -1.4860
18835TIP3    H277997   5.622   2.296  11.764  0.3368  0.8262 -0.2620
18836TIP3   OH277998   5.357   5.572   0.392 -0.5695 -0.0781  0.1096
18836TIP3    H177999   5.364   5.647   0.334  0.1270 -0.0904  0.1696
18836TIP3    H278000   5.448   5.546   0.410 -0.7740 -2.1286 -1.4382
18837TIP3   OH278001   4.716   0.159   1.701 -0.4165 -0.3346  0.0023
18837TIP3    H178002   4.723   0.068   1.672  0.2322 -0.1723 -0.3639
18837TIP3    H278003   4.794   0.173   1.754  0.0834  0.3461 -0.8918
18838TIP3   OH278004   6.112   2.875  15.126  0.2411  0.0910  0.0840
18838TIP3    H178005   6.116   2.970  15.142  0.2939 -0.1079  1.3723
18838TIP3    H278006   6.183   2.858  15.065 -0.4146  1.0229 -0.9817
18839TIP3   OH278007   3.179   6.422   2.859 -0.1635  0.3786  0.1379
18839TIP3    H178008   3.118   6.458   2.795 -0.5840  1.5036  1.1307
18839TIP3    H278009   3.252   6.389   2.807 -1.6548 -1.1697 -1.1148
18840TIP3   OH278010   2.090   6.730   1.752  0.0995 -0.1019  0.1210
18840TIP3    H178011   2.081   6.823   1.774  0.5091 -0.1644  0.5834
18840TIP3    H278012   2.017   6.712   1.693 -0.7462  0.2066  1.0367
18841TIP3   OH278013   3.787   3.571   2.929 -0.2968 -0.3852 -0.6351
18841TIP3    H178014   3.742   3.649   2.898 -2.4053 -2.3780 -3.0349
18841TIP3    H278015   3.874   3.576   2.890  0.5829  1.9080  1.3666
18842TIP3   OH278016   4.250   0.255   1.448 -0.5476 -0.2542  0.1278
18842TIP3    H178017   4.279   0.187   1.388 -0.8303 -0.0409 -0.2531
18842TIP3    H278018   4.305   0.243   1.526 -2.9441 -3.2087  1.5423
18843TIP3   OH278019   2.838   5.400   5.836  0.3901  0.3073 -0.6119
18843TIP3    H178020   2.779   5.462   5.879 -0.4782 -0.3839 -0.7794
18843TIP3    H278021   2.843   5.429   5.745  0.5256  0.5270 -0.5338
18844TIP3   OH278022   4.497   3.706   3.607  0.0231  0.0487 -0.2325
18844TIP3    H178023   4.542   3.645   3.548 -0.8486  2.4491 -3.6747
18844TIP3    H278024   4.567   3.754   3.650  0.7320 -0.3065 -0.9641
18845TIP3   OH278025   3.219   0.532  12.566  0.0496 -0.3498  0.0448
18845TIP3    H178026   3.134   0.531  12.610 -0.6186 -0.4991 -1.2105
18845TIP3    H278027   3.276   0.483  12.624 -0.0811  1.7422  2.1012
18846TIP3   OH278028   6.459   2.431  14.862 -0.3207  0.0590 -0.2811
18846TIP3    H178029   6.388   2.383  14.903 -1.1778  1.0736 -0.5400
18846TIP3    H278030   6.533   2.370  14.862 -0.7641 -0.5155  1.2930
18847TIP3   OH278031   1.019   2.436  16.286  0.0247  0.1189  0.0809
18847TIP3    H178032   1.014   2.526  16.255 -0.2636  0.6416  1.5687
18847TIP3    H278033   0.958   2.432  16.360 -0.0459 -1.3278 -0.0107
18848TIP3   OH278034   2.846   3.778  16.347 -0.3333  0.2701 -0.0853
18848TIP3    H178035   2.851   3.802  16.254 -0.6360 -1.2693 -0.5243
18848TIP3    H278036   2.752   3.773  16.365 -0.4354  3.7330  1.2311
18849TIP3   OH278037   1.672   0.039  12.625  0.1003 -0.6125  0.2585
18849TIP3    H178038   1.722   0.022  12.705 -0.6437 -0.8827  0.6742
18849TIP3    H278039   1.731   0.093  12.571  0.8841 -1.0337  0.6761
18850TIP3   OH278040   1.170   1.094   2.133  0.4970  0.1987  0.3744
18850TIP3    H178041   1.109   1.024   2.109 -0.5181  0.7617  1.1856
18850TIP3    H278042   1.198   1.132   2.050 -1.3946  0.8463 -0.0207
18851TIP3   OH278043   0.840   3.474   2.261 -0.4254  0.5483 -0.1197
18851TIP3    H178044   0.925   3.430   2.263 -0.9154 -0.3823  0.4087
18851TIP3    H278045   0.849   3.546   2.324 -0.0784  0.3680  0.0396
18852TIP3   OH278046   4.295   3.573   3.089 -0.4809  0.6090 -0.2099
18852TIP3    H178047   4.380   3.530   3.073 -0.4332  0.7638 -0.3756
18852TIP3    H278048   4.237   3.501   3.114  0.2525  0.7580  2.1712
18853TIP3   OH278049   4.523   6.747  11.030 -0.1434 -0.2663  0.1564
18853TIP3    H178050   4.579   6.824  11.028 -1.7043  0.9861  1.3448
18853TIP3    H278051   4.457   6.763  10.963  0.2640 -1.2031 -0.4834
18854TIP3   OH278052   1.621   1.175   4.460  0.0485 -0.3260 -0.2352
18854TIP3    H178053   1.705   1.174   4.414 -0.6974  1.1811 -1.7366
18854TIP3    H278054   1.557   1.151   4.393 -1.0715  1.9336 -0.0843
18855TIP3   OH278055   5.370   1.531  14.536 -0.7928  0.4076  0.0315
18855TIP3    H178056   5.360   1.615  14.580 -1.5364  0.3279  0.0188
18855TIP3    H278057   5.281   1.499  14.523 -0.5429 -0.0934 -0.5234
18856TIP3   OH278058   3.643   2.053   1.392 -0.1537  0.4768 -0.3009
18856TIP3    H178059   3.711   2.119   1.388 -0.0209  0.3735  0.1877
18856TIP3    H278060   3.689   1.970   1.383  0.2614  0.1619  3.2291
18857TIP3   OH278061   0.361   0.867   4.072  0.7069  0.2908 -0.6389
18857TIP3    H178062   0.408   0.945   4.042  2.6756 -0.9781 -1.0092
18857TIP3    H278063   0.421   0.825   4.134 -0.3607 -0.8930 -0.3538
18858TIP3   OH278064   4.391   6.315   0.181 -0.0419 -0.5266  0.3444
18858TIP3    H178065   4.438   6.267   0.113 -0.4333 -1.4970  0.7307
18858TIP3    H278066   4.457   6.370   0.222  0.4394 -0.7791 -0.0775
18859TIP3   OH278067   0.609   4.344  11.404 -0.6096 -0.4899 -0.6383
18859TIP3    H178068   0.562   4.262  11.422  2.5355 -2.3798 -0.2439
18859TIP3    H278069   0.574   4.373  11.319 -3.5257 -0.8096  0.3502
18860TIP3   OH278070   4.702   4.277  12.475 -0.0450 -0.2445  0.4123
18860TIP3    H178071   4.660   4.284  12.561  0.0275 -0.5862  0.4798
18860TIP3    H278072   4.687   4.362  12.433  0.1461  0.0192  0.8669
18861TIP3   OH278073   2.562   1.933   2.263 -0.2726 -0.4770  0.0353
18861TIP3    H178074   2.474   1.896   2.266 -0.8047  0.7688  2.0911
18861TIP3    H278075   2.582   1.940   2.170 -1.4084 -2.8464 -0.4734
18862TIP3   OH278076   3.860   5.664   5.482 -0.4636 -0.0074  0.1824
18862TIP3    H178077   3.788   5.610   5.516 -0.3775 -0.0539  0.2935
18862TIP3    H278078   3.821   5.712   5.409 -0.7444  0.3388  0.5533
18863TIP3   OH278079   1.477   5.708  14.634  0.6199  0.3694  0.7269
18863TIP3    H178080   1.566   5.724  14.603  1.4228 -1.7249  1.7523
18863TIP3    H278081   1.440   5.647  14.570  0.2302  0.5434  0.7824
18864TIP3   OH278082   5.900   0.823  12.853  0.0937  0.4654  0.3443
18864TIP3    H178083   5.879   0.798  12.943  0.2508 -1.7668 -0.1903
18864TIP3    H278084   5.819   0.863  12.820 -0.4848 -0.1593  0.9829
18865TIP3   OH278085   1.420   5.290  16.111 -0.4981 -0.1539 -0.2538
18865TIP3    H178086   1.377   5.221  16.062 -0.6018 -0.7344  0.6290
18865TIP3    H278087   1.503   5.251  16.141 -0.3699  0.2306 -0.0908
18866TIP3   OH278088   4.707   5.955   2.696  0.2009  0.0902  0.0127
18866TIP3    H178089   4.642   6.006   2.647 -0.3856 -0.2828  0.3880
18866TIP3    H278090   4.719   6.005   2.777 -0.2948 -0.3072  0.3343
18867TIP3   OH278091   6.206   4.103   4.297 -0.8145  0.6233 -0.9518
18867TIP3    H178092   6.144   4.172   4.321 -0.6849  0.6184 -0.5948
18867TIP3    H278093   6.192   4.034   4.362 -2.2875 -0.5416 -2.4339
18868TIP3   OH278094   0.779   2.467  15.850  0.0957  0.7530 -0.2883
18868TIP3    H178095   0.753   2.538  15.909  2.8655  1.3606  0.3345
18868TIP3    H278096   0.788   2.509  15.765  1.1671  1.0539 -0.0384
18869TIP3   OH278097   2.132   5.314  14.507 -0.2020  0.6183 -0.0985
18869TIP3    H178098   2.051   5.278  14.543 -0.6356  0.9192 -0.7452
18869TIP3    H278099   2.126   5.295  14.413 -0.4479  2.3699 -0.4588
18870TIP3   OH278100   6.046   0.329   1.414 -0.7065 -0.0933 -0.4730
18870TIP3    H178101   5.987   0.266   1.456 -1.1639  0.5904 -0.0552
18870TIP3    H278102   6.131   0.285   1.411 -0.3216  0.2784  2.3765
18871TIP3   OH278103   1.734   4.049   1.528  0.0471  0.4505  0.1575
18871TIP3    H178104   1.643   4.022   1.512  0.9071 -0.9801 -3.1932
18871TIP3    H278105   1.752   4.112   1.458  2.7334 -2.3611 -1.9217
18872TIP3   OH278106   0.675   0.695  11.079 -0.0646  0.1587 -0.3808
18872TIP3    H178107   0.678   0.786  11.108 -1.4909  0.6698 -1.6703
18872TIP3    H278108   0.594   0.689  11.027 -0.2754 -1.9696  0.0769
18873TIP3   OH278109   5.257   0.374   4.127 -0.3254 -0.3214  0.8108
18873TIP3    H178110   5.250   0.373   4.032 -0.5828  0.2643  0.8192
18873TIP3    H278111   5.343   0.335   4.145 -0.0143  0.1203  0.3138
18874TIP3   OH278112   3.968   4.428   1.177 -0.3736 -0.1917  0.6264
18874TIP3    H178113   3.995   4.365   1.111  0.9331 -2.1677  2.9005
18874TIP3    H278114   3.994   4.513   1.141 -0.0669 -1.1283 -1.5096
18875TIP3   OH278115   4.422   3.570  12.174 -0.2543 -0.2574 -0.0806
18875TIP3    H178116   4.450   3.662  12.173  1.1961 -0.6743  0.2109
18875TIP3    H278117   4.469   3.532  12.248 -3.6375 -0.4351  2.1954
18876TIP3   OH278118   4.859   5.535   1.917  0.0829  0.2125  0.0854
18876TIP3    H178119   4.852   5.448   1.879 -0.8511 -1.8100  4.2633
18876TIP3    H278120   4.935   5.529   1.975  0.5154  2.5160 -0.1537
18877TIP3   OH278121   6.210   0.114   3.797 -0.6608  0.0780 -0.0797
18877TIP3    H178122   6.156   0.042   3.764 -1.4066  0.6729 -0.1789
18877TIP3    H278123   6.275   0.071   3.852 -0.6271 -0.7398 -0.7387
18878TIP3   OH278124   2.647   0.069  14.012  0.1996 -0.9524  0.0232
18878TIP3    H178125   2.702   0.145  13.994  0.1159 -0.9470 -0.2144
18878TIP3    H278126   2.704  -0.006  13.997  0.0145 -0.9608 -0.6949
18879TIP3   OH278127   5.486   4.754  12.523 -0.2439 -0.5982  0.5921
18879TIP3    H178128   5.528   4.782  12.605 -0.2089 -2.5834  1.2948
18879TIP3    H278129   5.514   4.664  12.512 -0.1378 -0.3290 -1.7228
18880TIP3   OH278130   2.090   4.320  12.763 -0.0898  0.3688 -0.4476
18880TIP3    H178131   2.145   4.343  12.838  0.1871 -0.5376 -0.3636
18880TIP3    H278132   2.102   4.392  12.701 -0.0311  0.9419  0.2226
18881TIP3   OH278133   4.218   2.928  11.157 -0.1689  0.2950  0.2176
18881TIP3    H178134   4.261   3.012  11.171 -0.1146  0.0989  1.2708
18881TIP3    H278135   4.266   2.866  11.212 -1.1353 -0.1351  0.6002
18882TIP3   OH278136   6.154   3.090  14.723 -0.7662 -0.4218  0.0838
18882TIP3    H178137   6.078   3.046  14.760 -0.5992 -0.7383  0.0551
18882TIP3    H278138   6.135   3.183  14.732 -1.0075 -0.4991  0.3835
18883TIP3   OH278139   0.856   6.348   1.936  0.4283  0.0277  0.2710
18883TIP3    H178140   0.903   6.319   1.857 -0.6542 -0.3820 -0.2403
18883TIP3    H278141   0.805   6.271   1.962  2.1063 -0.4424  2.4251
18884TIP3   OH278142   0.387   0.463  16.437  0.0402 -0.0845 -0.2736
18884TIP3    H178143   0.351   0.375  16.424 -0.5333  0.0349  0.4343
18884TIP3    H278144   0.448   0.475  16.364 -0.7849 -0.5935 -1.0639
18885TIP3   OH278145   3.583   2.260  12.851  0.0524  0.2290  0.0959
18885TIP3    H178146   3.576   2.165  12.837  1.1469  0.1626 -0.0515
18885TIP3    H278147   3.677   2.279  12.843  0.2386  0.8747  2.9245
18886TIP3   OH278148   4.077   4.472  13.384  0.5287 -0.4931  0.3243
18886TIP3    H178149   4.109   4.382  13.386  2.1415  0.0490  0.3102
18886TIP3    H278150   4.072   4.494  13.291  0.8469 -0.3264  0.3467
18887TIP3   OH278151   6.562   1.501   5.165 -0.2717  0.0350  0.0403
18887TIP3    H178152   6.480   1.533   5.127  0.0058  0.8160  0.0872
18887TIP3    H278153   6.619   1.578   5.168  0.4058 -0.4618  0.1711
18888TIP3   OH278154   4.909   3.498  14.160 -0.5623  0.5648 -0.0435
18888TIP3    H178155   4.815   3.485  14.169 -0.1637 -1.8129  1.6305
18888TIP3    H278156   4.932   3.451  14.079 -1.0589  3.3237 -1.9436
18889TIP3   OH278157   6.360   3.111  11.997 -0.2462  0.0373 -0.2132
18889TIP3    H178158   6.312   3.184  12.036  1.8054  0.8778  0.8982
18889TIP3    H278159   6.423   3.152  11.938  0.1904 -0.9017 -0.4160
18890TIP3   OH278160   1.505   5.107  11.921  0.4546 -0.1148 -0.3408
18890TIP3    H178161   1.519   5.088  11.828  1.3198  1.0307 -0.4600
18890TIP3    H278162   1.578   5.065  11.966  2.2174  2.5087 -0.5807
18891TIP3   OH278163   2.155   1.851  13.482  0.1559  0.4110 -0.4749
18891TIP3    H178164   2.209   1.774  13.464  1.4681  1.2593 -0.2744
18891TIP3    H278165   2.212   1.910  13.530 -1.4894  0.6562  1.2823
18892TIP3   OH278166   5.612   1.855  16.225 -0.5007  0.2625  0.6185
18892TIP3    H178167   5.577   1.930  16.176  0.3452  1.0424  1.1682
18892TIP3    H278168   5.702   1.845  16.194 -0.6950 -0.7214  0.3455
18893TIP3   OH278169   3.259   1.112  12.904 -0.1868  0.2401 -0.5368
18893TIP3    H178170   3.317   1.131  12.978 -0.3632  1.5244 -0.7061
18893TIP3    H278171   3.303   1.041  12.857  0.2290 -0.1837  0.4515
18894TIP3   OH278172   3.216   6.144   4.534 -0.0068  0.1969 -0.4083
18894TIP3    H178173   3.164   6.191   4.469  0.5464  0.3022 -0.7807
18894TIP3    H278174   3.173   6.058   4.541 -1.0276  0.7450  0.2916
18895TIP3   OH278175   3.404   1.508  16.923  0.2516 -0.1360 -0.0769
18895TIP3    H178176   3.437   1.559  16.849  0.0454 -1.0659 -0.8286
18895TIP3    H278177   3.468   1.522  16.993  0.2014  1.1362 -0.2586
18896TIP3   OH278178   1.792   4.561   0.547 -0.0173 -0.4115  0.0116
18896TIP3    H178179   1.767   4.579   0.456 -0.8687 -0.8551  0.1419
18896TIP3    H278180   1.768   4.642   0.594 -0.6880 -0.6103  0.0296
18897TIP3   OH278181   2.249   6.656   5.134 -0.1956 -0.1958 -0.2828
18897TIP3    H178182   2.166   6.662   5.087 -0.7577 -0.4012  0.6556
18897TIP3    H278183   2.243   6.724   5.202 -0.3831 -1.4435  0.9819
18898TIP3   OH278184   3.217   5.091  11.612  0.3884 -0.4517 -0.5551
18898TIP3    H178185   3.149   5.146  11.572  0.5582  0.1008 -0.1000
18898TIP3    H278186   3.238   5.026  11.545  2.1545  1.6821 -2.2465
18899TIP3   OH278187   0.599   6.150  11.540  0.0314  0.4665  0.0804
18899TIP3    H178188   0.541   6.190  11.474 -0.3126 -0.5975 -0.2844
18899TIP3    H278189   0.588   6.056  11.527 -0.7098  0.2176  2.2467
18900TIP3   OH278190   0.691   0.025   4.308 -0.2191  0.1241 -0.3621
18900TIP3    H178191   0.708  -0.031   4.384 -0.7539 -3.5870 -2.7262
18900TIP3    H278192   0.600   0.006   4.285  0.5919 -0.6979 -3.2152
18901TIP3   OH278193   3.089   4.141   5.674  0.8840 -0.4642 -0.0239
18901TIP3    H178194   3.070   4.061   5.625  0.6586  0.9851 -2.4213
18901TIP3    H278195   3.183   4.137   5.691  1.4006 -0.0703 -2.4641
18902TIP3   OH278196   5.564   4.352  13.123  0.1482  0.2372 -0.1152
18902TIP3    H178197   5.591   4.267  13.088  0.3052 -0.1850  0.9839
18902TIP3    H278198   5.478   4.335  13.162 -0.5109  0.9477 -1.2227
18903TIP3   OH278199   6.392   3.479   0.072 -0.1771 -0.1361  0.2566
18903TIP3    H178200   6.408   3.405   0.014 -0.1414 -0.6985  0.9854
18903TIP3    H278201   6.380   3.441   0.159  0.2864  0.7414  0.7208
18904TIP3   OH278202   0.036   3.193   1.685  0.3444 -0.3309 -0.2365
18904TIP3    H178203  -0.009   3.248   1.749  0.6595 -1.0936  0.6475
18904TIP3    H278204   0.034   3.245   1.604  0.8459  1.0723  0.6273
18905TIP3   OH278205   4.022   0.951   5.644  0.7599 -0.1863 -1.1857
18905TIP3    H178206   4.042   0.858   5.647 -1.3659 -0.6648  0.8082
18905TIP3    H278207   3.926   0.955   5.645  0.6395  1.9513  3.4772
18906TIP3   OH278208   3.199   6.488   5.209  0.0493  0.7231 -0.3648
18906TIP3    H178209   3.110   6.486   5.173 -0.2038  1.3986  0.1996
18906TIP3    H278210   3.189   6.458   5.299  0.7903 -1.7298 -1.0026
18907TIP3   OH278211   1.229   5.340   3.800 -0.8373 -0.6135 -0.1684
18907TIP3    H178212   1.296   5.316   3.736 -0.4287 -1.4531  0.5631
18907TIP3    H278213   1.147   5.309   3.761 -0.4085 -2.6123  0.4210
18908TIP3   OH278214   5.266   5.711  12.203 -0.1597  0.1401 -0.8052
18908TIP3    H178215   5.306   5.661  12.132 -0.0875  0.8110 -1.2457
18908TIP3    H278216   5.172   5.696  12.192 -0.0560 -2.5792  1.0735
18909TIP3   OH278217   4.241   0.154  10.526 -0.4497 -0.4765 -0.0916
18909TIP3    H178218   4.265   0.067  10.496  0.7496 -0.6739  1.2829
18909TIP3    H278219   4.307   0.212  10.489  0.5701 -0.6145  1.4046
18910TIP3   OH278220   5.461   6.248  16.986  0.5024 -0.1993 -0.0555
18910TIP3    H178221   5.372   6.234  17.019  0.0128 -0.5764 -1.4794
18910TIP3    H278222   5.498   6.313  17.046 -0.1177 -1.3002  1.5822
18911TIP3   OH278223   3.952   1.640  13.694 -0.2066  0.5363 -0.5770
18911TIP3    H178224   4.006   1.564  13.716 -0.6011  0.6326  0.8017
18911TIP3    H278225   3.971   1.704  13.762  0.8708  2.1056 -2.2569
18912TIP3   OH278226   3.684   1.013  12.970  0.0507 -0.0421 -0.2308
18912TIP3    H178227   3.740   1.090  12.969 -0.4126  0.3065 -2.2917
18912TIP3    H278228   3.617   1.030  12.903 -0.0742 -2.2051 -0.7209
18913TIP3   OH278229   3.939   1.777  14.558  0.1215  0.2624  0.5931
18913TIP3    H178230   4.006   1.823  14.508  0.5015 -0.8440  0.0482
18913TIP3    H278231   3.857   1.820  14.533  0.4433  0.5139 -0.0656
18914TIP3   OH278232   5.902   1.468   5.957 -0.2687  0.0692  0.5862
18914TIP3    H178233   5.955   1.414   6.015  0.7368  0.8371  0.4003
18914TIP3    H278234   5.841   1.514   6.015  1.7856  2.0710  1.2696
18915TIP3   OH278235   3.741   1.282   5.646  0.3228 -0.0984  0.0700
18915TIP3    H178236   3.735   1.207   5.705  1.5970  0.2486  0.6833
18915TIP3    H278237   3.777   1.246   5.565  0.0356 -0.3182  0.0405
18916TIP3   OH278238   1.460   3.302  14.080 -0.1274  0.1426 -0.1634
18916TIP3    H178239   1.430   3.368  14.142 -2.1369 -0.2169 -0.6562
18916TIP3    H278240   1.390   3.298  14.014  1.4951 -0.1282 -1.9518
18917TIP3   OH278241   0.784   6.525  16.569 -0.4253  0.1052 -0.6599
18917TIP3    H178242   0.849   6.579  16.615  0.5645 -0.7363 -1.0278
18917TIP3    H278243   0.779   6.564  16.481 -1.6985  1.2014 -0.1349
18918TIP3   OH278244   2.526   4.803   4.697  0.3844 -0.2303 -0.2953
18918TIP3    H178245   2.464   4.756   4.641  0.7254 -1.1366  0.0703
18918TIP3    H278246   2.595   4.833   4.637 -0.2684  0.5703 -0.6640
18919TIP3   OH278247   1.344   5.039   0.579  0.4279  0.6899 -0.4189
18919TIP3    H178248   1.253   5.016   0.560  0.2025  1.3105 -0.1136
18919TIP3    H278249   1.349   5.037   0.675  1.2737 -1.3579 -0.4505
18920TIP3   OH278250   5.175   4.645  15.875 -0.2987  0.2364  0.1476
18920TIP3    H178251   5.212   4.577  15.818  1.1466  0.0767  1.2165
18920TIP3    H278252   5.099   4.603  15.915 -0.4944 -0.1249 -0.5805
18921TIP3   OH278253   1.653   5.793   9.984  0.1677 -0.0758  0.5609
18921TIP3    H178254   1.641   5.730  10.055 -1.8706 -1.3604 -0.8333
18921TIP3    H278255   1.584   5.858   9.998  0.0704 -0.0639  0.0472
18922TIP3   OH278256   3.619   5.184  12.337 -0.2732  0.0984  0.0942
18922TIP3    H178257   3.543   5.192  12.279  0.2324 -0.1911 -0.6244
18922TIP3    H278258   3.582   5.189  12.426 -1.0666  0.4735 -0.2456
18923TIP3   OH278259   5.807   3.216  15.211 -0.2275 -0.0596  0.1459
18923TIP3    H178260   5.853   3.234  15.129  0.3542  0.9674  0.6766
18923TIP3    H278261   5.840   3.130  15.239 -0.7836 -0.6382 -0.9170
18924TIP3   OH278262   6.100   6.533  15.332  0.2550  0.1338 -0.0989
18924TIP3    H178263   6.024   6.496  15.286  0.5065  0.2519 -0.6079
18924TIP3    H278264   6.122   6.612  15.283 -0.2842  0.9863  0.9904
18925TIP3   OH278265   4.787   3.329  15.630  0.2309 -0.3345 -0.7509
18925TIP3    H178266   4.745   3.243  15.635  0.0801 -0.3843 -2.3492
18925TIP3    H278267   4.716   3.391  15.644  0.1520 -0.4610 -0.5892
18926TIP3   OH278268   2.981   0.944  10.957  0.5355 -0.1112 -0.0524
18926TIP3    H178269   2.935   0.975  10.880 -0.9106  0.0114  0.8285
18926TIP3    H278270   3.073   0.967  10.942  0.0752  1.0856 -1.1357
18927TIP3   OH278271   2.544   3.795   4.005  0.2972 -0.1695 -0.2982
18927TIP3    H178272   2.534   3.732   3.934 -1.0544 -0.9708  0.5731
18927TIP3    H278273   2.475   3.773   4.067  0.6186  1.3576  0.6468
18928TIP3   OH278274   1.470   5.053   2.540 -0.3269  0.2678 -0.6251
18928TIP3    H178275   1.427   4.967   2.539  1.9929 -0.9719 -0.5812
18928TIP3    H278276   1.497   5.065   2.631 -1.6562  1.6525 -0.3687
18929TIP3   OH278277   4.190   4.007   2.064  0.3328 -0.8424  0.2735
18929TIP3    H178278   4.126   4.066   2.024  0.2736 -1.6522 -0.8821
18929TIP3    H278279   4.266   4.063   2.082  0.6715 -0.5514 -1.7612
18930TIP3   OH278280   5.801   0.581   5.482  0.7244 -0.3711  0.5344
18930TIP3    H178281   5.745   0.505   5.495  0.0942  0.3302  2.1074
18930TIP3    H278282   5.748   0.640   5.428  1.3238 -1.1165 -0.9357
18931TIP3   OH278283   1.771   4.286   4.445 -0.3884  0.4927 -0.2223
18931TIP3    H178284   1.864   4.309   4.442 -0.0867 -0.6118  0.3480
18931TIP3    H278285   1.756   4.234   4.366 -0.4657  0.4615 -0.1869
18932TIP3   OH278286   1.054   4.017  11.284 -0.2974  0.4207  0.3729
18932TIP3    H178287   1.105   4.098  11.283 -2.2528  1.7050 -0.3873
18932TIP3    H278288   0.964   4.045  11.297 -0.8789 -1.7678  1.6227
18933TIP3   OH278289   1.943   6.460   3.779 -0.2579 -0.1198  0.0153
18933TIP3    H178290   1.904   6.378   3.809  0.0970 -0.7200 -1.0961
18933TIP3    H278291   1.917   6.524   3.844 -0.1402 -1.2117  1.1785
18934TIP3   OH278292   0.586   2.110   4.962  0.7408  0.1492 -0.5561
18934TIP3    H178293   0.516   2.047   4.979 -0.3022  1.5735  0.7175
18934TIP3    H278294   0.632   2.075   4.885 -0.2163 -1.7697 -0.3181
18935TIP3   OH278295   0.524   3.752   1.115  0.3386  0.1022 -0.2636
18935TIP3    H178296   0.450   3.783   1.167  1.2684  0.7978  0.6620
18935TIP3    H278297   0.583   3.712   1.178  1.5214  1.0099 -0.7644
18936TIP3   OH278298   4.103   6.016  15.700  0.3628  0.3378  0.3861
18936TIP3    H178299   4.094   6.111  15.689  0.7306  0.4838  1.2535
18936TIP3    H278300   4.055   5.978  15.626 -0.7563  1.1785  0.6550
18937TIP3   OH278301   5.286   0.590   2.813 -0.1801 -0.4142  0.3408
18937TIP3    H178302   5.209   0.573   2.866 -1.3731 -0.1566 -1.2437
18937TIP3    H278303   5.293   0.685   2.812 -1.3522 -0.2997 -1.5095
18938TIP3   OH278304   5.647   5.025  16.803  0.3204 -0.0938 -0.2141
18938TIP3    H178305   5.570   5.068  16.840  0.9532 -0.2030  1.2775
18938TIP3    H278306   5.699   5.097  16.768  0.8322  0.2778  1.2524
18939TIP3   OH278307   6.663   5.306  12.728  0.2762 -0.2970 -0.0496
18939TIP3    H178308   6.617   5.301  12.812  0.6646  1.0229  0.2640
18939TIP3    H278309   6.703   5.219  12.718 -1.2298 -1.0666  0.2565
18940TIP3   OH278310   2.803   2.969  15.449 -0.4767  0.1978  0.7222
18940TIP3    H178311   2.828   2.909  15.519 -0.7485 -0.9210 -0.1169
18940TIP3    H278312   2.857   2.943  15.374  0.0590  1.5968  0.5742
18941TIP3   OH278313   1.023   0.753  11.679  0.1090  0.1938  0.3161
18941TIP3    H178314   0.996   0.667  11.647  0.1686 -0.4138  1.8611
18941TIP3    H278315   1.068   0.793  11.604 -0.8321 -0.6768 -0.7626
18942TIP3   OH278316   1.573   5.321   1.658  0.0137  0.1422  0.0902
18942TIP3    H178317   1.535   5.390   1.713  0.5891 -0.5121  1.3506
18942TIP3    H278318   1.499   5.284   1.611 -0.1965  2.3026 -1.4671
18943TIP3   OH278319   6.744   0.947   4.735  0.8279  0.3735 -0.1645
18943TIP3    H178320   6.774   0.959   4.645  0.8434  0.9950 -0.0803
18943TIP3    H278321   6.729   1.035   4.768  0.4848  0.1377  0.3333
18944TIP3   OH278322   1.735   0.546   4.705  0.0998 -0.5241  0.1158
18944TIP3    H178323   1.768   0.632   4.732 -0.4931 -0.5571  0.9857
18944TIP3    H278324   1.781   0.527   4.623 -0.9146  1.3220 -0.9319
18945TIP3   OH278325   5.054   6.526   5.971 -0.1281 -0.5144 -0.0082
18945TIP3    H178326   5.036   6.433   5.980  0.2582 -0.4536  1.6064
18945TIP3    H278327   5.108   6.532   5.892 -0.5335 -1.5851 -0.3915
18946TIP3   OH278328   0.622   0.416   1.155 -0.2329  0.0223  0.2488
18946TIP3    H178329   0.535   0.441   1.124 -0.0217  2.6266  1.4730
18946TIP3    H278330   0.608   0.391   1.246  0.2070 -0.2362  0.2454
18947TIP3   OH278331   1.662   2.463   3.339  0.8625  0.1231 -0.3568
18947TIP3    H178332   1.635   2.518   3.412  0.8329  1.5633 -1.4141
18947TIP3    H278333   1.641   2.514   3.261  0.4894 -1.5524 -1.4083
18948TIP3   OH278334   6.736   0.316  11.921 -0.1008 -0.0703 -0.2394
18948TIP3    H178335   6.643   0.332  11.909 -0.3338 -0.9267  0.3447
18948TIP3    H278336   6.740   0.233  11.970  0.9549  0.0384 -0.1256
18949TIP3   OH278337   5.026   4.770  15.443  0.2564 -0.1201  0.1309
18949TIP3    H178338   5.022   4.703  15.510 -2.7099  0.7174  0.9092
18949TIP3    H278339   5.096   4.829  15.473  2.1161 -2.1315  0.0059
18950TIP3   OH278340   4.333   3.796  15.023  0.4228  0.2370 -0.0696
18950TIP3    H178341   4.332   3.803  14.927  1.1233  1.6000  0.0034
18950TIP3    H278342   4.280   3.718  15.041 -0.1635  0.2522 -1.5350
18951TIP3   OH278343   3.311   5.782  15.982 -0.5468  0.1203  0.5089
18951TIP3    H178344   3.277   5.711  16.035  1.4861 -1.9099 -0.7289
18951TIP3    H278345   3.288   5.759  15.892  1.4527  0.1610 -0.0668
18952TIP3   OH278346   6.097   6.057  14.218  0.1505 -0.0088 -0.0584
18952TIP3    H178347   6.033   6.128  14.227  0.7329  0.4966  0.1914
18952TIP3    H278348   6.067   5.989  14.278  0.1235  0.4428  0.4505
18953TIP3   OH278349   0.337   6.307   0.360 -0.2642  0.6961  0.2953
18953TIP3    H178350   0.366   6.382   0.307  0.5935  0.1876  0.0371
18953TIP3    H278351   0.378   6.321   0.446 -0.4255  0.7256  0.3682
18954TIP3   OH278352   2.270   4.436  12.951 -0.1300 -0.5683 -0.3966
18954TIP3    H178353   2.324   4.431  13.030  0.1331 -2.8122 -0.6433
18954TIP3    H278354   2.331   4.466  12.883 -0.2432  0.8939  0.0992
18955TIP3   OH278355   1.876   0.727  14.939 -0.0218  0.0102 -0.4618
18955TIP3    H178356   1.887   0.782  15.016 -0.4489 -0.9860  0.3443
18955TIP3    H278357   1.954   0.672  14.937  0.1283  0.2386 -0.9142
18956TIP3   OH278358   6.015   6.231  10.783  0.2676 -0.5509 -0.3565
18956TIP3    H178359   5.944   6.171  10.761  1.1607 -2.4044  1.4238
18956TIP3    H278360   6.049   6.260  10.698 -0.2866 -2.5264 -1.3177
18957TIP3   OH278361   4.586   4.443  15.093 -0.4651 -0.2587 -0.0346
18957TIP3    H178362   4.584   4.520  15.037 -1.1180 -0.4828 -0.3275
18957TIP3    H278363   4.679   4.427  15.110 -0.3208  0.5324 -0.0462
18958TIP3   OH278364   0.364   5.729   0.480  0.0055  0.5317  0.4832
18958TIP3    H178365   0.332   5.733   0.570 -0.4246 -0.1985  0.3685
18958TIP3    H278366   0.460   5.733   0.489  0.0003 -0.3370  1.0324
18959TIP3   OH278367   5.872   5.469   0.588 -0.3212 -0.0393 -0.4641
18959TIP3    H178368   5.806   5.495   0.652 -0.4588 -1.0205 -0.1752
18959TIP3    H278369   5.858   5.526   0.513 -0.2090  1.0877  0.3548
18960TIP3   OH278370   3.507   4.287  15.169 -0.6067  0.0071 -0.2493
18960TIP3    H178371   3.521   4.217  15.233  0.2175 -0.4890 -0.9532
18960TIP3    H278372   3.593   4.304  15.132 -0.7249  1.6318  0.1137
18961TIP3   OH278373   6.062   3.205   3.478  0.6679 -0.2002  0.0749
18961TIP3    H178374   5.976   3.247   3.490  0.6506 -0.8215  2.8809
18961TIP3    H278375   6.123   3.278   3.467  0.1672  0.4208  1.2340
18962TIP3   OH278376   0.370   0.932   0.014 -0.2644 -0.0294 -0.0845
18962TIP3    H178377   0.418   1.015   0.019  1.0634 -0.8113  0.5989
18962TIP3    H278378   0.410   0.885  -0.059 -0.8593 -0.1721 -0.3243
18963TIP3   OH278379   3.119   0.756  12.382 -0.3104 -0.2454  0.0202
18963TIP3    H178380   3.130   0.663  12.401  0.0755 -0.2167 -0.0551
18963TIP3    H278381   3.140   0.801  12.464 -2.0582 -0.2958  0.5381
18964TIP3   OH278382   1.449   1.686   1.834 -0.0720 -0.0890 -0.4416
18964TIP3    H178383   1.373   1.659   1.783 -0.0761 -1.0251  0.0365
18964TIP3    H278384   1.417   1.756   1.890 -0.8670 -1.1661  0.5007
18965TIP3   OH278385   0.614   2.641   2.466  0.4241  0.1678  0.1148
18965TIP3    H178386   0.639   2.550   2.481 -1.3009 -0.1113  1.6692
18965TIP3    H278387   0.673   2.671   2.397  3.3699 -1.0606  1.9239
18966TIP3   OH278388   2.465   5.133  12.993  0.1786  0.2612  0.4634
18966TIP3    H178389   2.500   5.079  13.064 -0.9667 -0.3349  0.6009
18966TIP3    H278390   2.463   5.074  12.917 -2.4830 -0.4572  0.9661
18967TIP3   OH278391   1.855   5.978   6.114  0.3173 -0.1500 -0.0384
18967TIP3    H178392   1.874   5.890   6.083  1.1810 -0.3905  1.1034
18967TIP3    H278393   1.870   6.034   6.037 -3.6712 -1.2426 -1.8530
18968TIP3   OH278394   2.841   2.919   2.332 -0.1942 -0.1586 -0.4810
18968TIP3    H178395   2.831   2.917   2.236 -1.5097 -0.5892 -0.3569
18968TIP3    H278396   2.808   2.834   2.361 -0.6625  0.3263  0.4288
18969TIP3   OH278397   4.236   0.391   0.392 -0.4875 -0.5244  0.3556
18969TIP3    H178398   4.292   0.438   0.330 -0.1168 -1.7750 -0.2755
18969TIP3    H278399   4.267   0.420   0.478 -0.1267  0.2245 -0.0128
18970TIP3   OH278400   3.280   6.076  14.009  0.0151  0.8503  0.1839
18970TIP3    H178401   3.361   6.123  13.989  0.5277 -0.0927 -0.0128
18970TIP3    H278402   3.246   6.049  13.924  1.2382 -1.5823  0.3921
18971TIP3   OH278403   5.406   5.024   3.419  0.4145  0.7632 -0.7038
18971TIP3    H178404   5.318   4.997   3.447  0.8920 -0.6346 -0.4518
18971TIP3    H278405   5.394   5.058   3.330 -0.3186  0.1062 -0.8681
18972TIP3   OH278406   2.076   3.740  13.718  0.2397  0.3350 -0.2168
18972TIP3    H178407   2.102   3.652  13.690 -0.0348 -0.3406  1.5350
18972TIP3    H278408   2.158   3.785  13.737  0.4261  0.7802 -1.9297
18973TIP3   OH278409   1.470   5.586  12.764  0.0913 -0.4710 -0.7254
18973TIP3    H178410   1.382   5.611  12.738  0.3116 -1.0574 -2.0766
18973TIP3    H278411   1.460   5.502  12.808 -0.2411  0.3873  0.9505
18974TIP3   OH278412   2.037   5.438  15.389  0.4776 -0.2894  0.2401
18974TIP3    H178413   2.109   5.381  15.364 -1.2389 -3.0637  1.1886
18974TIP3    H278414   1.990   5.454  15.307  1.5983  0.7812 -0.2238
18975TIP3   OH278415   4.336   4.341  15.108  0.6273  0.3029 -1.1380
18975TIP3    H178416   4.267   4.373  15.165 -0.6246  1.0365 -2.9694
18975TIP3    H278417   4.407   4.405  15.119 -0.3850  1.6021 -1.8828
18976TIP3   OH278418   0.997   1.776   1.570 -0.2301  0.3327 -0.1507
18976TIP3    H178419   0.954   1.737   1.494  0.3282  1.0765 -0.8533
18976TIP3    H278420   0.936   1.759   1.642 -1.4563  0.8762 -1.0177
18977TIP3   OH278421   3.964   0.727   5.443 -0.4147 -1.2432  0.2475
18977TIP3    H178422   3.919   0.746   5.526  0.1877  0.4563  0.2271
18977TIP3    H278423   3.904   0.669   5.396 -1.5996 -0.7714  1.1225
18978TIP3   OH278424   4.105   1.611  16.985  0.5928 -0.0529  0.3323
18978TIP3    H178425   4.043   1.608  16.912  0.5422 -1.7620  0.4093
18978TIP3    H278426   4.140   1.700  16.983 -0.2774  0.2856 -1.0503
18979TIP3   OH278427   3.625   6.565   0.764 -0.2372  0.2688 -0.5790
18979TIP3    H178428   3.658   6.649   0.794 -0.9057 -0.4748  2.6206
18979TIP3    H278429   3.536   6.560   0.799 -0.3480 -1.5902 -1.0096
18980TIP3   OH278430   0.291   2.026   6.425  0.0096  0.5174  0.6589
18980TIP3    H178431   0.286   2.107   6.476 -0.5512  1.5550 -0.9787
18980TIP3    H278432   0.207   2.022   6.379  0.2938 -0.6696  0.2154
18981TIP3   OH278433   1.853   5.136   2.263  0.5955  0.0498 -0.1246
18981TIP3    H178434   1.784   5.074   2.244 -0.2389  0.9693 -0.2020
18981TIP3    H278435   1.856   5.141   2.358  1.4377 -0.9203 -0.0788
18982TIP3   OH278436   0.833   1.555  15.300 -0.6779 -1.3809  0.0424
18982TIP3    H178437   0.759   1.608  15.329  0.2378 -0.4729  0.7890
18982TIP3    H278438   0.835   1.480  15.360 -0.5682 -1.0291  0.4861
18983TIP3   OH278439   4.043   6.659  14.200 -0.4712 -0.0421  0.2070
18983TIP3    H178440   4.033   6.737  14.255  0.6232  1.7171 -1.9204
18983TIP3    H278441   4.138   6.647  14.194 -0.5916 -0.5958 -0.7460
18984TIP3   OH278442   1.664   0.656  12.186  0.0862  0.1603 -0.2735
18984TIP3    H178443   1.600   0.609  12.132 -0.1105  0.6551 -0.4783
18984TIP3    H278444   1.671   0.742  12.145  1.8837 -0.3015 -1.0602
18985TIP3   OH278445   5.946   1.458  14.863 -0.2266 -0.2807 -0.6282
18985TIP3    H178446   5.926   1.551  14.874 -2.2492 -0.4403 -2.3248
18985TIP3    H278447   6.018   1.456  14.801  0.8292  0.1435  0.5345
18986TIP3   OH278448   6.835   1.744  12.323  0.4666  0.1692 -0.6455
18986TIP3    H178449   6.740   1.737  12.319  0.5856 -1.2886 -1.7225
18986TIP3    H278450   6.863   1.752  12.231  1.3882  0.3829 -0.3589
18987TIP3   OH278451   5.534   0.873  13.598  0.0900 -0.5131  0.0375
18987TIP3    H178452   5.589   0.906  13.527 -0.9232 -0.6179 -0.8213
18987TIP3    H278453   5.546   0.778  13.596 -1.3992 -0.7227 -1.3029
18988TIP3   OH278454   3.162   3.322  15.663 -0.0863  0.0152  0.1500
18988TIP3    H178455   3.215   3.313  15.743  0.4252 -1.9386 -0.3474
18988TIP3    H278456   3.148   3.416  15.654 -0.5277  0.2761  2.7631
18989TIP3   OH278457   2.617   5.434  12.293 -0.3294  0.0405  0.0553
18989TIP3    H178458   2.643   5.453  12.383  0.5313 -0.9030  0.0230
18989TIP3    H278459   2.558   5.358  12.301  1.2109 -1.2466 -0.2940
18990TIP3   OH278460   0.198   6.515   3.805  0.4722  0.5941  0.1784
18990TIP3    H178461   0.189   6.443   3.743  0.7406  0.3194  0.4516
18990TIP3    H278462   0.287   6.506   3.840  0.3207  0.7369  0.6091
18991TIP3   OH278463   3.009   3.251  11.140 -0.7111  0.2524  0.0387
18991TIP3    H178464   3.031   3.209  11.223  1.7495 -1.3857 -1.3297
18991TIP3    H278465   2.935   3.201  11.106 -0.2367 -0.5712  0.1982
18992TIP3   OH278466   0.586   4.813  11.603  0.5094  0.5375  0.0253
18992TIP3    H178467   0.657   4.856  11.652  0.9528  0.6226 -0.6725
18992TIP3    H278468   0.627   4.734  11.566  0.4775  1.0039 -1.0493
18993TIP3   OH278469   2.821   0.279  11.305 -0.5042  0.3397 -0.5427
18993TIP3    H178470   2.745   0.252  11.253 -1.2113 -1.3242  1.2165
18993TIP3    H278471   2.833   0.207  11.368  2.4136  0.6708 -0.6127
18994TIP3   OH278472   4.814   3.072   5.328 -0.4100  0.1027 -0.3110
18994TIP3    H178473   4.909   3.068   5.316 -0.4617 -0.0713 -0.6830
18994TIP3    H278474   4.788   3.153   5.284 -0.7607 -1.1622 -2.5844
18995TIP3   OH278475   3.076   4.421  12.239 -0.3615  0.6272 -0.2150
18995TIP3    H178476   3.120   4.417  12.323 -0.7743  0.5272 -0.0005
18995TIP3    H278477   3.073   4.514  12.217 -1.3236  0.7644  0.4558
18996TIP3   OH278478   1.932   0.488  13.563 -0.0241 -0.2895  0.5980
18996TIP3    H178479   2.008   0.529  13.522 -0.6652 -0.2245 -0.5446
18996TIP3    H278480   1.859   0.547  13.544 -0.5566 -0.8687  0.8002
18997TIP3   OH278481   6.035   2.269   1.860  0.1845  0.2376  0.1647
18997TIP3    H178482   6.091   2.345   1.879 -0.0280  0.5427 -0.3831
18997TIP3    H278483   6.001   2.287   1.772  0.3447 -0.6252 -0.0825
18998TIP3   OH278484   3.464   5.650  14.560 -0.6617  0.4382 -0.3115
18998TIP3    H178485   3.535   5.713  14.545 -0.8640  0.1489 -2.9149
18998TIP3    H278486   3.431   5.630  14.472 -1.8609 -1.8729  0.5965
18999TIP3   OH278487   5.095   2.546   6.714  0.1345 -1.0045  0.5315
18999TIP3    H178488   5.034   2.526   6.785  0.3556 -0.9155  0.7454
18999TIP3    H278489   5.174   2.495   6.733  0.9956  0.6186  1.5000
19000TIP3   OH278490   1.627   4.013   4.823 -0.6393  0.2258  0.2453
19000TIP3    H178491   1.662   4.074   4.888  1.9407  0.1924 -1.0025
19000TIP3    H278492   1.609   4.068   4.746 -0.2908 -0.2651 -0.1880
19001TIP3   OH278493   4.594   3.404   3.280 -0.5758  0.6104 -0.0111
19001TIP3    H178494   4.522   3.440   3.331 -0.5405  2.4619 -1.2117
19001TIP3    H278495   4.640   3.480   3.245  0.9025 -0.5635 -0.7521
19002TIP3   OH278496   1.631   4.953  14.140  0.3577  0.5109 -0.0484
19002TIP3    H178497   1.579   4.977  14.063 -0.0744 -1.1074 -0.2937
19002TIP3    H278498   1.713   4.920  14.104 -0.2712 -1.2885  0.0954
19003TIP3   OH278499   0.994   0.065   6.233 -0.4208  0.2633 -0.4378
19003TIP3    H178500   0.940   0.108   6.300  0.8514 -1.1000  1.5764
19003TIP3    H278501   1.084   0.079   6.263  0.1327 -1.2322 -1.3238
19004TIP3   OH278502   0.970   0.012  12.420 -0.3189  0.0722  0.1377
19004TIP3    H178503   0.882   0.012  12.457  0.3902 -1.3021  1.9697
19004TIP3    H278504   1.021   0.066  12.481  0.0965  1.0728 -1.0452
19005TIP3   OH278505   0.993   6.407   5.106  0.4122  0.4142  0.9020
19005TIP3    H178506   1.060   6.468   5.138  2.9275 -0.5257 -2.0185
19005TIP3    H278507   0.946   6.455   5.038  1.4533 -0.3392 -0.4122
19006TIP3   OH278508   3.022   3.568  15.513 -0.1858 -0.2465 -0.3900
19006TIP3    H178509   3.081   3.562  15.437  2.7295 -1.0518  1.7555
19006TIP3    H278510   2.976   3.484  15.513  0.7023 -0.7467 -0.6005
19007TIP3   OH278511   0.636   1.479   1.379 -0.0510  0.8787  0.5226
19007TIP3    H178512   0.592   1.399   1.348 -1.1391  1.4698  0.4874
19007TIP3    H278513   0.710   1.489   1.319 -0.3880  0.3490 -0.0059
19008TIP3   OH278514   6.505   0.382  10.740  0.4329  0.2311  0.3259
19008TIP3    H178515   6.585   0.432  10.728 -0.1204  1.0513 -0.0303
19008TIP3    H278516   6.535   0.293  10.760  1.4246  0.2142 -1.1072
19009TIP3   OH278517   4.708   3.240   5.135  0.3270 -0.2470  0.0187
19009TIP3    H178518   4.615   3.245   5.155  0.0874  0.9472 -1.2091
19009TIP3    H278519   4.711   3.232   5.039  1.4857  0.3613 -0.0138
19010TIP3   OH278520   4.207   2.515  13.548  0.0826  0.5026 -0.2384
19010TIP3    H178521   4.181   2.586  13.490 -0.7595 -0.3888 -1.0005
19010TIP3    H278522   4.171   2.436  13.506 -0.3352 -0.1930  1.3675
19011TIP3   OH278523   5.497   6.336   3.244  0.5218  0.0239  0.1080
19011TIP3    H178524   5.479   6.341   3.338 -0.5018  0.6678 -0.1023
19011TIP3    H278525   5.417   6.369   3.203  1.8409  2.1156 -0.9412
19012TIP3   OH278526   3.087   6.116   3.865  0.4890 -0.0949 -0.3451
19012TIP3    H178527   3.144   6.069   3.926 -0.8679 -0.0664  1.0294
19012TIP3    H278528   3.127   6.103   3.779  2.0352 -0.8276  0.4354
19013TIP3   OH278529   6.613   3.921  14.952 -0.2248  0.4467 -0.5285
19013TIP3    H178530   6.670   3.896  15.025 -0.3831  1.6884  0.0326
19013TIP3    H278531   6.525   3.905  14.984 -0.2655  0.1417 -0.7844
19014TIP3   OH278532   5.444   4.756  14.626 -0.0609  0.0878 -0.3445
19014TIP3    H178533   5.404   4.673  14.599  1.2051 -0.2741 -1.1649
19014TIP3    H278534   5.519   4.766  14.569  1.0406  0.7390  1.1560
19015TIP3   OH278535   0.804   0.553   0.096 -0.1062 -0.1903 -0.0555
19015TIP3    H178536   0.814   0.645   0.123  1.1133 -0.2084 -0.3862
19015TIP3    H278537   0.720   0.526   0.135  0.3380  0.5455  1.5298
19016TIP3   OH278538   3.833   2.810  16.844 -0.4063  0.5768  0.4853
19016TIP3    H178539   3.776   2.742  16.880 -0.6120 -0.4802 -1.6842
19016TIP3    H278540   3.921   2.786  16.872 -0.6806  0.4894  1.2933
19017TIP3   OH278541   6.330   4.009   3.759 -0.1429  0.0868 -0.1125
19017TIP3    H178542   6.254   3.979   3.709  0.3279  0.7179 -1.2285
19017TIP3    H278543   6.386   4.052   3.695  1.9842 -1.8165  0.3192
19018TIP3   OH278544   6.038   5.460  13.127 -0.5633  0.3644 -0.0664
19018TIP3    H178545   6.045   5.397  13.055 -0.2266  1.5120 -1.0757
19018TIP3    H278546   5.969   5.425  13.183  0.3805 -1.4869  0.0233
19019TIP3   OH278547   0.202   6.508  13.586  0.0532  0.1387 -0.2048
19019TIP3    H178548   0.198   6.421  13.625  0.6651  0.4532  0.5999
19019TIP3    H278549   0.158   6.564  13.650  0.2309  0.5117 -0.4087
19020TIP3   OH278550   1.915   4.503  10.273  0.7364 -0.4313 -0.1409
19020TIP3    H178551   1.995   4.506  10.221  1.3159 -0.9678  0.7111
19020TIP3    H278552   1.930   4.434  10.338  0.4058  0.8243  1.3385
19021TIP3   OH278553   5.754   6.735  15.071  0.2319  0.4053  0.3876
19021TIP3    H178554   5.845   6.753  15.046 -0.2668  0.3530 -1.6117
19021TIP3    H278555   5.721   6.821  15.098  0.5035  0.6998 -0.1790
19022TIP3   OH278556   4.802   2.536   5.531 -0.2921  0.2877 -0.3526
19022TIP3    H178557   4.779   2.475   5.461  0.0417  1.7382 -1.7874
19022TIP3    H278558   4.872   2.491   5.580 -0.7341 -0.8746 -0.7522
19023TIP3   OH278559   1.961   4.024  15.093 -0.7281 -0.0935 -0.2148
19023TIP3    H178560   1.932   3.988  15.177 -0.6620 -1.2530 -0.6628
19023TIP3    H278561   2.029   3.963  15.063  1.1567  1.7508  0.1125
19024TIP3   OH278562   5.989   1.172  16.330  0.1156 -0.8158  0.3845
19024TIP3    H178563   6.079   1.159  16.359  0.1572  0.1793  0.7459
19024TIP3    H278564   5.995   1.176  16.235  0.4580 -0.7432  0.4071
19025TIP3   OH278565   5.344   5.054   3.751 -0.3160  0.6270  0.6697
19025TIP3    H178566   5.344   5.045   3.656 -1.7834  0.9777  0.6139
19025TIP3    H278567   5.263   5.011   3.780  0.2921  0.1890  1.7996
19026TIP3   OH278568   3.085   0.002  13.818  0.6825 -0.1878 -0.2436
19026TIP3    H178569   3.065   0.020  13.726 -1.8325 -0.6869  0.1120
19026TIP3    H278570   3.113  -0.089  13.820  0.0481 -0.3968 -0.4742
19027TIP3   OH278571   6.295   4.752  12.011  0.5865 -0.5883  0.0957
19027TIP3    H178572   6.382   4.758  11.971  0.0783 -0.0784 -0.9749
19027TIP3    H278573   6.234   4.761  11.938 -0.3735 -0.6560  0.8652
19028TIP3   OH278574   1.266   1.642  11.276  0.0121 -0.0232 -0.3303
19028TIP3    H178575   1.351   1.683  11.260  0.6310 -1.3187 -0.4367
19028TIP3    H278576   1.249   1.589  11.199 -1.0201  0.3967 -0.4134
19029TIP3   OH278577   4.551   0.078   3.581  0.6455 -0.1965 -0.1830
19029TIP3    H178578   4.565   0.052   3.672  1.6067  0.4263 -0.1449
19029TIP3    H278579   4.639   0.093   3.547  0.1904  2.1501 -0.4481
19030TIP3   OH278580   0.395   5.187   3.825  0.5952 -0.0227  0.0844
19030TIP3    H178581   0.373   5.120   3.761  0.2046  0.4964 -0.3407
19030TIP3    H278582   0.437   5.140   3.897 -1.9187 -1.0937  0.9428
19031TIP3   OH278583   4.999   0.134   5.871  0.1178  0.4308  0.2400
19031TIP3    H178584   5.072   0.117   5.931  1.2966  2.0838 -0.6208
19031TIP3    H278585   4.969   0.222   5.894 -0.1649  0.6323 -0.8271
19032TIP3   OH278586   1.738   4.163   4.194  0.2224  0.2096  0.4425
19032TIP3    H178587   1.815   4.167   4.138 -0.0865  1.5507  0.0854
19032TIP3    H278588   1.664   4.165   4.134 -0.1168 -0.5381  0.8095
19033TIP3   OH278589   1.494   6.585   5.115  0.5340 -0.2308  0.2300
19033TIP3    H178590   1.555   6.536   5.061 -0.2785 -1.1900  0.1504
19033TIP3    H278591   1.427   6.616   5.054  0.3525 -0.1311  0.4757
19034TIP3   OH278592   0.758   5.366   4.478 -0.1123  0.3467  0.5884
19034TIP3    H178593   0.846   5.336   4.457 -0.0723  0.6857  0.2692
19034TIP3    H278594   0.738   5.431   4.410  0.3383  2.0844  2.0414
19035TIP3   OH278595   2.630   1.510   4.253  0.0051 -0.3604 -0.5162
19035TIP3    H178596   2.587   1.571   4.193  0.8543  1.1998  0.4020
19035TIP3    H278597   2.560   1.480   4.311 -0.2097  0.6370 -0.2575
19036TIP3   OH278598   5.448   5.567  11.239  0.0831  0.4450  0.2486
19036TIP3    H178599   5.543   5.575  11.233  0.0661  0.1201 -0.8935
19036TIP3    H278600   5.432   5.523  11.322  1.1702 -2.4378 -0.9386
19037TIP3   OH278601   0.659   1.178  15.258  0.2822  0.1634  0.1876
19037TIP3    H178602   0.611   1.202  15.179  0.3418 -0.0278  0.0896
19037TIP3    H278603   0.637   1.245  15.322  1.9862  1.5874 -0.6641
19038TIP3   OH278604   1.799   4.473  12.429  1.0700 -0.0671 -0.2613
19038TIP3    H178605   1.793   4.401  12.366 -0.1322  0.0927 -0.3505
19038TIP3    H278606   1.790   4.431  12.515 -0.7019  0.0671 -0.3567
19039TIP3   OH278607   3.663   3.612   6.333  0.2777  0.2294  0.4145
19039TIP3    H178608   3.709   3.644   6.411  2.5897 -1.4709 -0.1472
19039TIP3    H278609   3.588   3.563   6.367 -0.3696  1.8304  1.4180
19040TIP3   OH278610   0.567   0.193  16.287  0.3362  0.2395  0.1116
19040TIP3    H178611   0.561   0.283  16.255  0.0458  0.2015  0.0617
19040TIP3    H278612   0.600   0.143  16.213  1.3327  0.4482  0.3893
19041TIP3   OH278613   1.918   3.839   5.706 -0.4718  0.0717 -0.4148
19041TIP3    H178614   1.884   3.924   5.734 -0.0084  0.0097  0.3502
19041TIP3    H278615   1.942   3.794   5.787  0.8306 -0.1420 -0.8917
19042TIP3   OH278616   5.544   0.851  14.384  0.0092  0.0127  0.3331
19042TIP3    H178617   5.526   0.812  14.298  2.7513  2.6642 -1.7037
19042TIP3    H278618   5.613   0.796  14.421  0.2098 -0.0481 -0.1156
19043TIP3   OH278619   3.353   0.604   3.324 -0.1038  0.8814  0.0330
19043TIP3    H178620   3.369   0.643   3.238 -1.2956  1.5698  0.1027
19043TIP3    H278621   3.377   0.673   3.386  2.3660 -0.1754  0.3608
19044TIP3   OH278622   2.112   0.365  16.553 -0.5266  0.0384  0.3409
19044TIP3    H178623   2.102   0.277  16.517  0.7751 -0.4768  1.1618
19044TIP3    H278624   2.198   0.394  16.524 -1.3854  1.5313 -0.8594
19045TIP3   OH278625   4.971   1.795   5.877 -0.0823 -0.1660  0.2377
19045TIP3    H178626   4.888   1.820   5.918  0.0370 -0.6267  0.7756
19045TIP3    H278627   5.016   1.744   5.944 -0.2490 -1.6831 -0.7599
19046TIP3   OH278628   0.952   6.434  13.423  0.1355 -0.0275 -0.0057
19046TIP3    H178629   0.874   6.389  13.453  0.1103 -1.0530 -1.5216
19046TIP3    H278630   1.024   6.392  13.469 -0.1256  0.4038  0.8124
19047TIP3   OH278631   6.354   2.213  15.584  0.2234  0.6521 -0.0939
19047TIP3    H178632   6.330   2.188  15.673 -0.0890  2.4768  0.3747
19047TIP3    H278633   6.282   2.269  15.555 -0.4982 -1.1666 -2.1447
19048TIP3   OH278634   3.037   0.262   2.736  0.3582 -0.4819  0.1156
19048TIP3    H178635   3.056   0.271   2.643 -0.2319  2.7955  0.2036
19048TIP3    H278636   3.102   0.318   2.779 -1.6895  1.0998  1.3252
19049TIP3   OH278637   2.522   2.434   0.820  0.0232 -0.1762  0.6799
19049TIP3    H178638   2.558   2.488   0.749  0.7938 -0.6027  0.7295
19049TIP3    H278639   2.569   2.465   0.898 -0.1130 -0.3729  0.8382
19050TIP3   OH278640   4.943   2.989   1.979  0.2067  0.4542 -0.2419
19050TIP3    H178641   4.972   2.980   2.070  1.0679  0.1620 -0.5363
19050TIP3    H278642   4.909   2.903   1.956 -0.5237  0.6796 -0.0321
19051TIP3   OH278643   5.806   3.821   4.579  0.2955 -0.4362 -0.6016
19051TIP3    H178644   5.837   3.737   4.613  1.6477 -0.1518 -1.0690
19051TIP3    H278645   5.762   3.863   4.653  1.4282 -0.6793  0.2246
19052TIP3   OH278646   4.598   1.871   5.630  0.3135  0.2354 -0.0184
19052TIP3    H178647   4.640   1.847   5.712  1.2759  0.0519 -0.5430
19052TIP3    H278648   4.599   1.967   5.629  0.3202  0.2362  0.1762
19053TIP3   OH278649   6.188   2.463  15.107 -0.3222  0.1126  0.0637
19053TIP3    H178650   6.102   2.487  15.074 -0.3459  1.1893  0.8473
19053TIP3    H278651   6.223   2.544  15.145  1.8023  0.1913 -1.8316
19054TIP3   OH278652   2.514   1.903   6.330  0.3268  0.2925 -0.1115
19054TIP3    H178653   2.496   1.895   6.424  0.0161 -1.7864 -0.2989
19054TIP3    H278654   2.541   1.815   6.303 -1.3505  0.3713 -2.3360
19055TIP3   OH278655   6.244   3.617   5.416  0.5300  0.0953 -0.7869
19055TIP3    H178656   6.278   3.530   5.433 -1.0864 -0.4314 -0.0086
19055TIP3    H278657   6.170   3.604   5.357  0.7438  1.0316 -1.2940
19056TIP3   OH278658   0.873   1.358  15.469  0.4300 -0.5276  0.0978
19056TIP3    H178659   0.824   1.308  15.534 -2.7103  1.6327 -0.3569
19056TIP3    H278660   0.948   1.394  15.518 -0.6365 -0.7183  1.9750
19057TIP3   OH278661   4.942   6.626  12.483 -0.0530 -0.2740  1.1175
19057TIP3    H178662   4.916   6.716  12.462  0.1084 -0.3762  0.4789
19057TIP3    H278663   5.028   6.615  12.442 -0.8191 -1.2762 -0.3083
19058TIP3   OH278664   6.093   3.180  15.457  0.3037  0.2086  0.0849
19058TIP3    H178665   6.102   3.257  15.400  1.0862 -2.7550 -4.3169
19058TIP3    H278666   6.183   3.151  15.473  0.0523 -1.6769 -1.4716
19059TIP3   OH278667   6.622   6.739  13.292  0.3033  0.3982 -0.2986
19059TIP3    H178668   6.689   6.674  13.316 -0.5507 -0.4298 -0.1019
19059TIP3    H278669   6.542   6.705  13.331 -0.6917  0.2145 -2.4041
19060TIP3   OH278670   2.740   3.776   4.780 -0.1522  0.8297  0.3038
19060TIP3    H178671   2.769   3.850   4.727  0.6100  0.3499  0.0396
19060TIP3    H278672   2.814   3.758   4.838  1.2117 -1.9966 -2.0580
19061TIP3   OH278673   2.294   4.677   1.730 -0.0546 -0.0850 -0.3085
19061TIP3    H178674   2.289   4.639   1.642  1.4478  0.3525 -0.6165
19061TIP3    H278675   2.294   4.771   1.716 -0.7155 -0.0002  0.2310
19062TIP3   OH278676   4.894   5.293   2.255  0.1523  0.3271  0.2069
19062TIP3    H178677   4.802   5.317   2.244  0.2857  1.1085  0.7067
19062TIP3    H278678   4.924   5.268   2.168 -0.5911 -0.1527  0.0821
19063TIP3   OH278679   2.739   2.432   3.922 -0.3084 -0.1247 -0.0071
19063TIP3    H178680   2.812   2.474   3.877 -0.1691 -1.3716 -0.9922
19063TIP3    H278681   2.744   2.340   3.897 -1.8870 -0.3505  0.3521
19064TIP3   OH278682   2.569   2.164   3.778 -0.5590 -0.4153 -0.1369
19064TIP3    H178683   2.596   2.138   3.867 -1.4425 -1.7097 -0.2235
19064TIP3    H278684   2.474   2.155   3.779 -0.6265  0.1420 -1.0509
19065TIP3   OH278685   6.794   6.034  12.826 -0.0735 -0.2369  0.4411
19065TIP3    H178686   6.867   6.008  12.882 -0.7214 -0.1724  1.3217
19065TIP3    H278687   6.818   6.120  12.793 -0.4981  0.5484  2.0947
19066TIP3   OH278688   0.681   5.701  15.900  0.3516 -0.0563  0.3134
19066TIP3    H178689   0.617   5.634  15.874 -0.1334  1.3562 -2.5803
19066TIP3    H278690   0.750   5.694  15.834  0.0201  2.5821 -0.4137
19067TIP3   OH278691   4.275   0.412   4.889  0.2680 -0.4501  0.1551
19067TIP3    H178692   4.292   0.501   4.858 -0.5838  0.3158  1.7834
19067TIP3    H278693   4.250   0.422   4.981  2.1758 -2.5634  1.0075
19068TIP3   OH278694   1.323   5.208   1.540 -0.0097 -0.2064  0.1417
19068TIP3    H178695   1.280   5.232   1.622 -0.8905  1.0916 -0.6489
19068TIP3    H278696   1.306   5.115   1.530  0.9965 -0.6081  1.9197
19069TIP3   OH278697   6.237   6.578  11.429 -0.0494 -0.4067  0.4780
19069TIP3    H178698   6.307   6.514  11.443  0.4620 -0.2410 -1.1676
19069TIP3    H278699   6.158   6.533  11.459  0.4572 -1.3781  0.4079
19070TIP3   OH278700   5.569   5.488   4.678  0.2451 -0.3409 -0.5881
19070TIP3    H178701   5.513   5.465   4.604  0.5950 -1.0235 -0.6488
19070TIP3    H278702   5.656   5.458   4.653  0.0662 -2.1737  0.7981
19071TIP3   OH278703   4.007   0.002  14.385  0.2269 -0.3630  0.1372
19071TIP3    H178704   4.100   0.022  14.374 -0.5331  3.4860 -0.5467
19071TIP3    H278705   3.995  -0.003  14.480  1.2714 -2.2053  0.2266
19072TIP3   OH278706   6.464   5.744   0.566  0.1560  0.2928  0.3167
19072TIP3    H178707   6.470   5.811   0.497  3.5125 -0.5478 -0.3999
19072TIP3    H278708   6.377   5.757   0.604 -0.6041  2.8999 -1.9305
19073TIP3   OH278709   2.123   1.697   1.805 -0.3823 -0.2762  0.4747
19073TIP3    H178710   2.130   1.782   1.848 -1.5561 -0.1259  0.4135
19073TIP3    H278711   2.045   1.657   1.844 -1.7607  0.0432 -1.7575
19074TIP3   OH278712   1.758   0.538   3.426 -0.7782 -0.1818 -0.5731
19074TIP3    H178713   1.848   0.570   3.422 -0.6249 -0.5421 -0.1465
19074TIP3    H278714   1.714   0.597   3.487 -0.6790 -0.3372 -0.3447
19075TIP3   OH278715   6.365   2.111  16.184 -0.6851  0.4529  0.3043
19075TIP3    H178716   6.385   2.147  16.270  2.9182  2.3290 -1.0938
19075TIP3    H278717   6.393   2.020  16.188 -0.5233  0.5349  1.1056
19076TIP3   OH278718   0.545   6.441   0.020  0.2319  0.8831  0.2656
19076TIP3    H178719   0.616   6.376   0.028  1.1314  1.8591  0.3778
19076TIP3    H278720   0.529   6.470   0.110 -1.0101 -0.0348  0.3680
19077TIP3   OH278721   4.769   5.512  16.662  0.1952  0.2195  0.1363
19077TIP3    H178722   4.713   5.535  16.588 -1.8267  0.0789  1.5413
19077TIP3    H278723   4.772   5.591  16.716 -0.1680 -0.3345  0.9856
19078TIP3   OH278724   2.330   3.696   1.754  0.2737  0.2412  0.2799
19078TIP3    H178725   2.280   3.688   1.673 -0.0996 -1.1827  0.6177
19078TIP3    H278726   2.421   3.686   1.727  0.2352  0.8472 -0.0912
19079TIP3   OH278727   1.139   4.406   3.931 -0.0091 -0.2947  0.1936
19079TIP3    H178728   1.083   4.388   3.856  0.5595 -0.8198 -0.1164
19079TIP3    H278729   1.225   4.375   3.904  0.3895  0.3183  0.7353
19080TIP3   OH278730   4.759   0.481   1.829 -0.1088  0.3478 -0.3512
19080TIP3    H178731   4.669   0.461   1.803 -0.2758  1.1550 -0.4068
19080TIP3    H278732   4.754   0.567   1.871  0.2474 -0.6877  1.9618
19081TIP3   OH278733   4.466   2.540  16.676  0.5158  0.0562  0.2935
19081TIP3    H178734   4.561   2.551  16.670  0.8375 -2.3403 -0.3436
19081TIP3    H278735   4.434   2.556  16.588  0.3387  0.7057  0.4727
19082TIP3   OH278736   5.333   5.606  10.950  0.0524  0.2537 -0.7003
19082TIP3    H178737   5.398   5.604  11.020 -0.4191 -1.6360 -0.2656
19082TIP3    H278738   5.378   5.647  10.877  1.5876 -0.5684 -0.2614
19083TIP3   OH278739   4.072   6.794  14.681 -0.0791  0.5085 -0.2145
19083TIP3    H178740   4.143   6.770  14.740  1.6191  1.1882 -1.8982
19083TIP3    H278741   4.026   6.865  14.727  0.9079  0.7023  0.5170
19084TIP3   OH278742   0.647   2.386  14.659  0.3094  0.0446  0.1794
19084TIP3    H178743   0.559   2.363  14.691  0.3713  0.2464  0.5050
19084TIP3    H278744   0.697   2.305  14.665  0.5724  0.2697  1.4761
19085TIP3   OH278745   1.626   2.293  14.609  0.3511  0.3678 -0.0463
19085TIP3    H178746   1.593   2.369  14.560  1.8933  0.8556 -0.3751
19085TIP3    H278747   1.721   2.303  14.608  0.5822 -1.5038  0.0344
19086TIP3   OH278748   6.128   2.101  14.269 -0.5514 -0.2646 -0.1386
19086TIP3    H178749   6.148   2.067  14.356  0.7756  0.9246  0.0622
19086TIP3    H278750   6.213   2.105  14.224 -0.7721  1.7178 -0.4941
19087TIP3   OH278751   0.840   6.740   2.608  0.3046 -0.1326 -0.5222
19087TIP3    H178752   0.826   6.671   2.542 -2.0302 -1.2199  0.9655
19087TIP3    H278753   0.752   6.770   2.630  1.2141  2.5296 -0.2314
19088TIP3   OH278754   3.598   5.632   0.001  0.8771 -0.0297 -0.5177
19088TIP3    H178755   3.615   5.704  -0.060  0.0174  1.1155  0.5327
19088TIP3    H278756   3.618   5.669   0.088 -0.4110 -0.7578  0.1147
19089TIP3   OH278757   6.366   3.557   4.958  0.7311 -0.0113  0.1536
19089TIP3    H178758   6.375   3.462   4.955 -1.2805 -0.3597  2.3120
19089TIP3    H278759   6.340   3.582   4.869 -0.0172 -1.6606 -0.1232
19090TIP3   OH278760   0.714   3.833   0.056 -0.6345 -0.2374 -0.1030
19090TIP3    H178761   0.754   3.887   0.124  1.0628  0.7935 -1.8395
19090TIP3    H278762   0.669   3.895  -0.001 -1.3558 -1.0062 -0.3869
19091TIP3   OH278763   5.510   4.607  15.821  0.2849 -0.0155 -0.1684
19091TIP3    H178764   5.560   4.525  15.824  3.2016  1.6614  0.8099
19091TIP3    H278765   5.437   4.589  15.762 -0.7224 -4.0791  1.9225
19092TIP3   OH278766   2.136   6.431  17.022  0.1745  0.4570 -0.1807
19092TIP3    H178767   2.102   6.404  16.936  1.2717  1.9858 -1.1365
19092TIP3    H278768   2.130   6.526  17.021 -0.7799  0.4702  1.9107
19093TIP3   OH278769   0.499   0.071   0.201  0.9242 -0.4074 -0.3438
19093TIP3    H178770   0.491   0.148   0.256  0.7366 -0.2142 -0.6372
19093TIP3    H278771   0.537   0.004   0.258 -0.6034 -0.6473  0.4295
19094TIP3   OH278772   1.405   4.756   5.374 -0.0129 -0.1611 -0.2880
19094TIP3    H178773   1.458   4.687   5.415  0.6107  0.9813  0.9056
19094TIP3    H278774   1.422   4.746   5.281  1.2465 -0.6882 -0.0297
19095TIP3   OH278775   2.913   3.920   6.171  1.1797  0.2623 -0.1894
19095TIP3    H178776   2.912   3.898   6.264 -0.2984 -0.5376 -0.3642
19095TIP3    H278777   2.903   4.016   6.169  0.6436  0.2269  0.4659
19096TIP3   OH278778   3.443   2.194  11.819 -0.4839 -0.4621 -0.3472
19096TIP3    H178779   3.534   2.214  11.840 -0.6255  0.2846 -0.4115
19096TIP3    H278780   3.393   2.267  11.857 -0.8465  0.3606 -2.2848
19097TIP3   OH278781   1.766   2.830  14.506  0.1341  0.2830 -0.3654
19097TIP3    H178782   1.821   2.822  14.584 -2.0218 -0.8714  1.1467
19097TIP3    H278783   1.775   2.745  14.462  0.8902  0.7223 -1.0768
19098TIP3   OH278784   6.358   5.669   3.809 -0.7852  0.0789  0.2926
19098TIP3    H178785   6.314   5.673   3.893 -1.5649  0.4684 -0.1306
19098TIP3    H278786   6.334   5.750   3.764 -1.5119 -0.7260 -0.8510
19099TIP3   OH278787   0.786   2.729  16.079 -0.6632 -0.1818  0.7870
19099TIP3    H178788   0.851   2.697  16.142 -0.1539 -0.7299  0.0080
19099TIP3    H278789   0.838   2.752  16.001 -1.3222  0.0766  0.4183
19100TIP3   OH278790   6.824   2.631   5.213 -0.5493 -0.2135  0.2754
19100TIP3    H178791   6.884   2.591   5.150 -0.8850  0.3820 -0.4367
19100TIP3    H278792   6.755   2.669   5.160 -0.7212  0.5065  0.9902
19101TIP3   OH278793   1.025   2.574   1.392  0.2753  0.3323 -0.0393
19101TIP3    H178794   1.083   2.615   1.456  0.5787  1.5113 -1.0194
19101TIP3    H278795   0.987   2.648   1.344  1.6167 -0.4918 -2.5562
19102TIP3   OH278796   1.274   0.106  12.924  0.4216 -0.0582 -0.2222
19102TIP3    H178797   1.346   0.156  12.962 -0.4438  0.6485  0.5156
19102TIP3    H278798   1.215   0.172  12.886 -1.0220 -0.4355  1.2512
19103TIP3   OH278799   6.349   4.282   3.352 -0.1130  0.0708  0.1664
19103TIP3    H178800   6.416   4.234   3.400 -1.3513 -0.6781  1.2313
19103TIP3    H278801   6.308   4.216   3.296  0.0800  0.5327 -0.5260
19104TIP3   OH278802   1.010   6.668  14.965 -0.1125 -0.0347  0.0475
19104TIP3    H178803   0.955   6.625  14.900  0.4981 -0.7183 -0.0355
19104TIP3    H278804   1.098   6.668  14.926  0.1322  0.1584  0.5805
19105TIP3   OH278805   3.726   2.362  11.660  0.3688  0.5549  0.3827
19105TIP3    H178806   3.686   2.288  11.614  1.7059 -1.4975  2.3320
19105TIP3    H278807   3.735   2.333  11.750  3.5787  1.9516  0.6545
19106TIP3   OH278808   2.396   1.545   2.815 -0.1223 -0.0510  0.5767
19106TIP3    H178809   2.346   1.558   2.895  0.7190 -0.5622  1.2097
19106TIP3    H278810   2.333   1.515   2.751 -0.2702 -3.3492  2.0544
19107TIP3   OH278811   6.374   6.429  16.983 -0.1930  0.1773 -0.3634
19107TIP3    H178812   6.405   6.517  17.003 -0.5748  0.9296 -2.7214
19107TIP3    H278813   6.301   6.414  17.043  1.4096  0.4061  1.7698
19108TIP3   OH278814   5.364   1.222   0.064  0.5801  0.2148 -0.3576
19108TIP3    H178815   5.343   1.306   0.105  2.6727  0.1843  0.9064
19108TIP3    H278816   5.281   1.175   0.061 -0.2077  1.4428  1.0599
19109TIP3   OH278817   3.716   2.976  14.891 -0.0736 -0.4583  0.2807
19109TIP3    H178818   3.730   2.932  14.807  1.8407 -1.3511  1.0239
19109TIP3    H278819   3.678   2.909  14.948  1.3364 -0.7408  0.9385
19110TIP3   OH278820   6.702   5.761   4.152  0.5441  0.0892  0.1641
19110TIP3    H178821   6.686   5.723   4.239 -0.4271  0.4958  0.1787
19110TIP3    H278822   6.713   5.854   4.168 -0.0597  0.2290 -0.1809
19111TIP3   OH278823   2.069   6.260  13.489 -0.0078 -0.2723  0.3736
19111TIP3    H178824   2.036   6.347  13.510 -1.1472 -1.0105  1.7825
19111TIP3    H278825   2.148   6.250  13.542  1.9713  1.0272 -2.1004
19112TIP3   OH278826   2.060   4.490  14.437  0.2191 -0.3435 -0.3119
19112TIP3    H178827   2.030   4.473  14.527  0.1733 -5.5407 -0.9970
19112TIP3    H278828   1.984   4.529  14.394 -0.3615  0.5868  1.4479
19113TIP3   OH278829   3.380   1.531   5.663 -0.5733 -0.0828  0.1663
19113TIP3    H178830   3.406   1.537   5.571 -2.8390 -0.9511 -0.6023
19113TIP3    H278831   3.402   1.442   5.688  0.3720  0.2621  0.6034
19114TIP3   OH278832   4.309   1.117  11.485  0.2395 -0.2362  0.2285
19114TIP3    H178833   4.245   1.128  11.415 -0.6148 -0.7703  0.8986
19114TIP3    H278834   4.273   1.168  11.558  0.5208 -0.6184  0.6380
19115TIP3   OH278835   0.849   4.712  13.020  0.3446 -0.4703 -0.0894
19115TIP3    H178836   0.901   4.684  12.944  0.9099 -2.6757  1.0371
19115TIP3    H278837   0.913   4.745  13.082  0.2277 -1.4864  0.5888
19116TIP3   OH278838   2.516   4.741   2.378 -0.0116 -0.5453 -0.0868
19116TIP3    H178839   2.463   4.819   2.363 -1.7468 -1.5367  0.5894
19116TIP3    H278840   2.604   4.766   2.350 -0.4406  1.7434  0.4390
19117TIP3   OH278841   2.834   2.507  10.523 -0.2392  0.1084 -0.6837
19117TIP3    H178842   2.773   2.574  10.552 -0.4696  0.1738 -1.2993
19117TIP3    H278843   2.920   2.541  10.547 -0.3821  0.4504 -0.6516
19118TIP3   OH278844   2.120   3.611  15.147 -0.2565  0.7864 -0.1981
19118TIP3    H178845   2.180   3.544  15.182  0.6021  1.0073 -1.2183
19118TIP3    H278846   2.088   3.574  15.065  0.1201  1.5640 -0.7056
19119TIP3   OH278847   2.093   5.759   4.635 -0.3358 -0.6067 -0.6109
19119TIP3    H178848   2.019   5.812   4.665 -0.5675 -0.5699 -1.2543
19119TIP3    H278849   2.103   5.780   4.543  1.0737  0.0980 -0.3222
19120TIP3   OH278850   2.124   4.560  16.392  0.1371 -0.3332  0.3377
19120TIP3    H178851   2.201   4.582  16.444  1.3035  0.7958 -1.7315
19120TIP3    H278852   2.134   4.467  16.373  1.7610  0.0803 -1.0217
19121TIP3   OH278853   5.870   3.231   1.267 -0.5912  0.5076  0.7677
19121TIP3    H178854   5.903   3.166   1.205 -1.4172 -0.0013  0.8317
19121TIP3    H278855   5.936   3.300   1.268 -0.6234  0.5955 -0.7795
19122TIP3   OH278856   6.584   1.200   4.318  0.5168  0.0436 -0.9133
19122TIP3    H178857   6.623   1.276   4.360  0.7150  1.2492 -3.1433
19122TIP3    H278858   6.578   1.223   4.225 -1.6045 -1.7399 -1.3192
19123TIP3   OH278859   1.842   0.830  11.758 -0.1871  0.7423  0.2262
19123TIP3    H178860   1.804   0.743  11.748  1.5663  0.0100 -0.5398
19123TIP3    H278861   1.934   0.814  11.781  0.1085  2.3893  0.3336
19124TIP3   OH278862   4.317   0.435   4.165  0.0408  0.3094 -0.2494
19124TIP3    H178863   4.297   0.344   4.186 -0.4679  0.1777 -1.2298
19124TIP3    H278864   4.345   0.433   4.074  0.7415  1.0412 -0.0543
19125TIP3   OH278865   1.585   4.858  11.024 -0.2256  0.4896 -0.1562
19125TIP3    H178866   1.630   4.885  10.944 -0.4212  1.7221  0.1216
19125TIP3    H278867   1.511   4.919  11.032 -1.2631 -0.7402  0.0281
19126TIP3   OH278868   6.598   1.859   3.393 -0.4195 -0.0511 -0.2166
19126TIP3    H178869   6.528   1.893   3.337 -1.0263 -0.7017  0.1317
19126TIP3    H278870   6.676   1.905   3.363 -0.7887 -0.1309 -1.3676
19127TIP3   OH278871   4.734   0.984  15.404  0.0255 -0.0393 -0.2418
19127TIP3    H178872   4.639   0.976  15.403  0.0374 -0.1931 -0.1886
19127TIP3    H278873   4.765   0.894  15.391  0.1593  0.0978 -0.8829
19128TIP3   OH278874   4.659   2.553  16.431 -0.3512  0.1832 -0.5148
19128TIP3    H178875   4.705   2.521  16.353 -0.2410 -0.3093 -0.2464
19128TIP3    H278876   4.674   2.486  16.498  0.8603  1.3325  0.4142
19129TIP3   OH278877   3.714   3.508  12.226  0.3609 -0.6100  0.0129
19129TIP3    H178878   3.799   3.531  12.263 -0.6670  1.5417  1.2311
19129TIP3    H278879   3.668   3.466  12.299 -0.0382 -0.6684 -0.2725
19130TIP3   OH278880   4.920   0.043  12.470 -0.4417 -0.0709  0.4199
19130TIP3    H178881   4.969   0.085  12.400  0.1746  0.5375  1.2001
19130TIP3    H278882   4.903   0.113  12.533 -0.1339 -0.8029  1.3369
19131TIP3   OH278883   2.315   2.772   4.430  0.0146  0.2366 -0.1590
19131TIP3    H178884   2.244   2.832   4.450  0.3796  0.8179 -0.5655
19131TIP3    H278885   2.343   2.797   4.342  1.4974  0.8080  0.4394
19132TIP3   OH278886   2.912   5.535  16.229  0.2659  0.8552  0.4175
19132TIP3    H178887   2.830   5.512  16.273  0.6946  1.1608  1.3896
19132TIP3    H278888   2.885   5.587  16.154 -0.4561  0.6165  0.5048
19133TIP3   OH278889   3.687   4.118  13.508  0.4975 -0.0136 -1.0551
19133TIP3    H178890   3.612   4.108  13.449 -0.1590 -1.9593 -0.0040
19133TIP3    H278891   3.717   4.029  13.524  1.9314  0.6069 -0.0440
19134TIP3   OH278892   4.576   3.196  15.432  0.7111 -0.4564 -0.2310
19134TIP3    H178893   4.483   3.187  15.454  0.7992  0.1107  0.4001
19134TIP3    H278894   4.576   3.228  15.342  0.1950  2.2686  0.6548
19135TIP3   OH278895   2.671   0.088  13.205 -0.0518  0.5222 -0.3761
19135TIP3    H178896   2.750   0.036  13.220  1.2254  2.3892 -0.3910
19135TIP3    H278897   2.673   0.156  13.271 -1.3815  0.9304 -0.7246
19136TIP3   OH278898   2.115   5.649  15.530 -0.2164  0.2446  0.8068
19136TIP3    H178899   2.075   5.589  15.467 -0.0058  0.8208  0.1036
19136TIP3    H278900   2.149   5.592  15.599  0.2812 -0.4797 -0.0123
19137TIP3   OH278901   3.545   1.253   3.509  0.1655  0.1142  0.1199
19137TIP3    H178902   3.576   1.300   3.431 -0.7192  1.0602  0.3215
19137TIP3    H278903   3.577   1.306   3.583 -0.5534  0.2183  0.3587
19138TIP3   OH278904   0.168   6.185   0.787  1.1142  0.1091  0.1882
19138TIP3    H178905   0.233   6.182   0.857  1.8367 -1.4019 -0.4869
19138TIP3    H278906   0.216   6.155   0.709 -0.1324 -0.0371 -0.5559
19139TIP3   OH278907   5.471   4.112   3.243 -0.1389  0.5052 -0.6686
19139TIP3    H178908   5.377   4.098   3.237 -0.2542  1.1603 -0.3947
19139TIP3    H278909   5.489   4.186   3.185  0.1343  0.6878 -0.3562
19140TIP3   OH278910   5.269   1.700   4.463 -0.4803  0.2891 -1.0411
19140TIP3    H178911   5.302   1.789   4.474  1.6620 -0.7205  2.8406
19140TIP3    H278912   5.322   1.664   4.391  2.2220  0.8423  0.5144
19141TIP3   OH278913   5.334   4.162  10.383  0.1757  0.0867 -0.3092
19141TIP3    H178914   5.293   4.229  10.439 -0.7372 -0.1227 -0.7100
19141TIP3    H278915   5.415   4.202  10.353  0.9804  0.0078  1.6078
19142TIP3   OH278916   1.377   5.402  16.950  0.1180 -0.1653  0.2135
19142TIP3    H178917   1.301   5.427  16.897 -0.6539 -1.2752  0.7444
19142TIP3    H278918   1.378   5.463  17.023  0.2958  0.4328 -0.2841
19143TIP3   OH278919   0.594   6.162  12.726  0.0280  0.3576 -0.3256
19143TIP3    H178920   0.617   6.141  12.635 -2.9911 -3.0230 -0.5214
19143TIP3    H278921   0.678   6.163  12.772  1.5065  0.5363 -2.8062
19144TIP3   OH278922   0.105   5.974  13.156 -0.1462 -0.1422 -0.0658
19144TIP3    H178923   0.106   5.959  13.250  1.0376  1.2925  0.1780
19144TIP3    H278924   0.016   5.951  13.129 -0.8957  0.6649  1.6090
19145TIP3   OH278925   3.341   1.357  15.747 -0.0224 -0.2526 -0.1285
19145TIP3    H178926   3.298   1.373  15.831 -0.3074  1.9577 -0.6338
19145TIP3    H278927   3.425   1.402  15.754 -1.7856  3.9151 -2.4426
19146TIP3   OH278928   6.573   2.337  14.179 -0.4393 -0.5790 -0.0975
19146TIP3    H178929   6.507   2.334  14.248  0.2299 -1.3823  0.5284
19146TIP3    H278930   6.533   2.390  14.110 -1.5783 -0.7176  0.4278
19147TIP3   OH278931   4.756   2.312   0.187 -0.0552 -0.2566  0.1511
19147TIP3    H178932   4.810   2.375   0.234 -1.8127  0.3615  1.4671
19147TIP3    H278933   4.700   2.274   0.255 -0.2398 -1.9755 -0.9059
19148TIP3   OH278934   3.189   3.824  13.681 -0.2178 -0.4117  0.0526
19148TIP3    H178935   3.237   3.814  13.599  1.6510 -1.4922  1.2140
19148TIP3    H278936   3.103   3.788  13.662 -0.6539  1.4658 -2.0604
19149TIP3   OH278937   4.462   4.049  16.176 -0.8214 -0.2882 -0.6898
19149TIP3    H178938   4.542   4.101  16.174 -1.2177  0.4736  0.9398
19149TIP3    H278939   4.492   3.958  16.177  0.1327 -0.0121  1.2277
19150TIP3   OH278940   6.547   4.881  16.474 -0.1429 -0.4063  0.0785
19150TIP3    H178941   6.561   4.975  16.462  2.4415 -0.7853 -0.5714
19150TIP3    H278942   6.558   4.844  16.387  0.8946 -1.4819  0.6360
19151TIP3   OH278943   2.784   0.648   2.392 -0.6748  0.2219  0.1165
19151TIP3    H178944   2.873   0.625   2.365 -0.6625  0.6212 -0.1898
19151TIP3    H278945   2.766   0.731   2.348 -1.9703 -0.8333 -1.5061
19152TIP3   OH278946   5.186   5.609   4.558  0.3319 -0.2337 -0.1960
19152TIP3    H178947   5.184   5.600   4.653  0.1084  2.2273  0.1098
19152TIP3    H278948   5.256   5.673   4.542 -0.0129 -0.1885 -1.6356
19153TIP3   OH278949   3.527   3.063   1.376  0.4695  0.4383  0.3051
19153TIP3    H178950   3.558   2.994   1.435 -0.5500 -0.1001  0.2290
19153TIP3    H278951   3.466   3.114   1.430  0.9992  1.1210  0.2760
19154TIP3   OH278952   4.800   5.803   0.601  0.3426 -0.1105  0.5014
19154TIP3    H178953   4.895   5.793   0.601  0.1366 -2.9270 -0.6648
19154TIP3    H278954   4.775   5.791   0.692  1.1122  1.7454  1.0183
19155TIP3   OH278955   1.203   2.592   0.255 -0.1678  0.0917  0.3293
19155TIP3    H178956   1.209   2.580   0.350 -0.4093  0.9706  0.4664
19155TIP3    H278957   1.257   2.522   0.218 -1.2473 -1.1653  1.0582
19156TIP3   OH278958   5.001   0.942   1.665  0.2658  0.7372  0.0554
19156TIP3    H178959   4.968   1.015   1.717 -1.8579 -0.7897  0.9896
19156TIP3    H278960   4.986   0.864   1.719 -1.3452 -0.8574 -2.4088
19157TIP3   OH278961   3.000   6.639   2.120  0.0518  0.2347  0.0306
19157TIP3    H178962   3.040   6.596   2.195 -1.4790 -0.0092  0.7520
19157TIP3    H278963   3.043   6.601   2.044  0.5864 -0.6143  0.7419
19158TIP3   OH278964   2.576   4.722   3.774 -0.0949 -0.3853  0.1890
19158TIP3    H178965   2.552   4.671   3.697 -2.7381 -1.3983  1.5539
19158TIP3    H278966   2.531   4.679   3.846 -1.4661  3.0765  1.6450
19159TIP3   OH278967   6.217   4.357   2.024  0.0196 -0.2131 -0.0253
19159TIP3    H178968   6.291   4.297   2.032  0.7627  0.7182  0.2728
19159TIP3    H278969   6.173   4.351   2.108 -1.5870 -2.4196 -0.9260
19160TIP3   OH278970   1.226   5.836  14.831  0.6376  0.1864 -0.3629
19160TIP3    H178971   1.246   5.900  14.899 -1.7204 -0.0963  0.6990
19160TIP3    H278972   1.283   5.762  14.849  0.7296  0.5067  0.7206
19161TIP3   OH278973   3.679   3.701  11.161  0.2896  0.1238  0.5230
19161TIP3    H178974   3.696   3.788  11.126 -2.0069  0.5386  0.2704
19161TIP3    H278975   3.609   3.713  11.225 -0.0003 -1.5087  0.5746
19162TIP3   OH278976   3.513   0.581   4.070 -0.8137  0.3747 -0.0605
19162TIP3    H178977   3.439   0.526   4.046 -0.8019  0.9642 -1.5778
19162TIP3    H278978   3.517   0.647   4.000  1.8935 -0.3779 -0.7102
19163TIP3   OH278979   6.263   2.421  12.640  0.4159  0.2843  0.3401
19163TIP3    H178980   6.231   2.433  12.729 -1.0869  2.8179 -0.4304
19163TIP3    H278981   6.188   2.382  12.593 -0.1827  2.3979 -0.5663
19164TIP3   OH278982   6.492   6.754   2.881  0.1928 -0.0077  0.5361
19164TIP3    H178983   6.478   6.842   2.915 -0.3504 -0.7366  2.2798
19164TIP3    H278984   6.588   6.747   2.873  0.4982 -0.3608  3.5895
19165TIP3   OH278985   5.751   5.466  16.178 -0.6852  0.0134 -0.3580
19165TIP3    H178986   5.669   5.515  16.170  0.0697  1.4764  0.4385
19165TIP3    H278987   5.796   5.507  16.252  0.7553 -0.7731 -0.7660
19166TIP3   OH278988   0.125   2.868  11.770  0.1555  0.0333 -0.3442
19166TIP3    H178989   0.103   2.944  11.824 -1.5794 -0.4175 -0.3475
19166TIP3    H278990   0.168   2.906  11.693  1.2617  0.8055  0.6080
19167TIP3   OH278991   1.347   3.329   1.943  0.0843 -0.3234 -0.3391
19167TIP3    H178992   1.358   3.301   1.852  0.2819 -1.0217 -0.1072
19167TIP3    H278993   1.257   3.360   1.948  0.4551  0.9651 -1.0920
19168TIP3   OH278994   5.121   2.286   1.599 -0.1991  0.4083 -0.0577
19168TIP3    H178995   5.161   2.259   1.517 -0.9624 -0.6234 -0.1147
19168TIP3    H278996   5.046   2.227   1.609 -0.3372  0.7712  1.1875
19169TIP3   OH278997   2.953   0.628   2.652  0.3215 -0.2046  0.8335
19169TIP3    H178998   2.874   0.598   2.606  1.1699  0.6498 -1.2893
19169TIP3    H278999   3.023   0.572   2.618  1.2635  1.5730 -0.2911
19170TIP3   OH279000   6.310   5.146   3.302  0.1322 -0.2249 -0.0013
19170TIP3    H179001   6.215   5.142   3.294  0.1360 -1.8046  0.2662
19170TIP3    H279002   6.342   5.100   3.224  0.5965 -1.1868  0.7282
19171TIP3   OH279003   0.280   5.599  13.298  0.3971 -0.1007  0.3098
19171TIP3    H179004   0.306   5.681  13.341  0.3927 -0.0840  0.2809
19171TIP3    H279005   0.315   5.606  13.209 -1.6443  0.9509 -0.4820
19172TIP3   OH279006   2.580   3.368  11.190 -0.0840  0.1521 -0.4108
19172TIP3    H179007   2.485   3.380  11.178  0.0114 -0.3351 -1.8401
19172TIP3    H279008   2.617   3.384  11.103  1.5016  3.3191  0.6770
19173TIP3   OH279009   2.509   3.359  14.600 -0.3146 -0.6068  0.3403
19173TIP3    H179010   2.525   3.383  14.691 -2.0215 -1.4462  0.8920
19173TIP3    H279011   2.550   3.273  14.590  1.8161  0.4224 -0.3580
19174TIP3   OH279012   4.448   4.930   0.945  0.1564  0.2547  0.2828
19174TIP3    H179013   4.454   4.850   0.998 -0.2679  0.5745  0.8225
19174TIP3    H279014   4.407   4.902   0.863  2.0826 -0.5224 -0.4830
19175TIP3   OH279015   0.316   6.088  16.478 -0.0134  0.2848  0.0133
19175TIP3    H179016   0.313   6.100  16.383  0.1294 -1.7440 -0.3009
19175TIP3    H279017   0.309   5.993  16.490 -1.0184  0.5638  2.0864
19176TIP3   OH279018   3.444   3.162   1.969 -0.7249  0.1065  0.0883
19176TIP3    H179019   3.388   3.175   2.045 -3.6122 -1.8522 -1.4649
19176TIP3    H279020   3.416   3.229   1.907 -2.1681 -1.4141 -1.0233
19177TIP3   OH279021   6.092   2.402  12.893 -0.2420 -0.4503 -0.5089
19177TIP3    H179022   6.028   2.451  12.842  0.5210  0.0772 -0.9874
19177TIP3    H279023   6.058   2.313  12.897 -0.6356 -0.3418 -1.3802
19178TIP3   OH279024   4.058   4.723  14.889  0.6172 -0.4302 -0.1754
19178TIP3    H179025   4.132   4.665  14.906  0.8744 -0.3495 -0.9836
19178TIP3    H279026   4.017   4.689  14.810  0.3882  0.1106 -0.2989
19179TIP3   OH279027   0.647   5.841  13.082 -0.9296 -0.5086  0.0962
19179TIP3    H179028   0.557   5.839  13.049 -2.0988 -0.3830  2.9633
19179TIP3    H279029   0.669   5.934  13.085 -1.9639 -0.2718  2.2742
19180TIP3   OH279030   4.863   5.571   3.369 -0.3571 -0.1326 -0.0866
19180TIP3    H179031   4.879   5.486   3.410 -0.7767 -1.9284 -3.3031
19180TIP3    H279032   4.948   5.597   3.334 -0.7322 -0.6160 -1.4141
19181TIP3   OH279033   3.993   6.691  13.394 -0.0387  0.0887 -0.0327
19181TIP3    H179034   3.968   6.758  13.330  0.8359 -0.2830 -0.7730
19181TIP3    H279035   4.007   6.612  13.342 -0.7674 -0.6033  0.8018
19182TIP3   OH279036   2.727   0.661  14.049  0.6846  0.1882 -0.6614
19182TIP3    H179037   2.759   0.651  14.138  1.1109  1.2345 -0.6819
19182TIP3    H279038   2.805   0.647  13.994  0.4719 -0.2246 -0.8679
19183TIP3   OH279039   0.623   5.879   6.052 -0.5989  0.2062 -0.2921
19183TIP3    H179040   0.692   5.899   6.115  1.4579 -1.8886 -1.7171
19183TIP3    H279041   0.589   5.965   6.027  1.4859  1.3494  0.5037
19184TIP3   OH279042   5.527   1.786   1.949 -0.4213  0.1325  0.3766
19184TIP3    H179043   5.613   1.815   1.979  0.1314 -2.2275  1.2721
19184TIP3    H279044   5.540   1.760   1.858 -0.0063 -0.7383  0.6677
19185TIP3   OH279045   4.282   5.358   2.864 -0.2825 -0.0036 -0.0671
19185TIP3    H179046   4.369   5.349   2.825  0.4716 -1.5040  1.8225
19185TIP3    H279047   4.297   5.403   2.947 -1.4313  0.3627 -0.0422
19186TIP3   OH279048   4.312   5.765  10.967 -0.4080  0.0980 -0.1816
19186TIP3    H179049   4.401   5.747  10.938 -0.6759 -1.1225 -0.2627
19186TIP3    H279050   4.266   5.682  10.960 -1.3350  0.5122  0.6803
19187TIP3   OH279051   2.843   3.262  14.630 -0.0624  0.1449  0.9009
19187TIP3    H179052   2.921   3.208  14.641  0.3094  0.1415 -1.3803
19187TIP3    H279053   2.777   3.221  14.686  0.5890 -1.8857  0.2542
19188TIP3   OH279054   5.793   6.500  15.239 -0.1792  0.0698  0.1049
19188TIP3    H179055   5.754   6.584  15.215  1.6490  1.2825  1.0620
19188TIP3    H279056   5.818   6.460  15.155 -2.8451 -0.5392 -0.4996
19189TIP3   OH279057   2.251   5.661  13.734 -0.5255 -0.0468  0.3712
19189TIP3    H179058   2.234   5.656  13.640  1.8254  1.1399 -0.2076
19189TIP3    H279059   2.172   5.627  13.775 -1.4111 -1.1058 -2.0345
19190TIP3   OH279060   0.932   5.608   3.192 -0.0745  0.9198 -0.0162
19190TIP3    H179061   0.855   5.642   3.236 -0.1547  0.3204  0.3150
19190TIP3    H279062   0.983   5.686   3.169 -0.1778  1.2517  0.8583
19191TIP3   OH279063   0.731   1.551   3.293 -0.0403 -0.5469  0.2662
19191TIP3    H179064   0.636   1.565   3.292  0.3963  3.8765  1.2711
19191TIP3    H279065   0.758   1.566   3.202 -0.0625  1.9795  0.5941
19192TIP3   OH279066   4.521   1.912   4.893  0.0057  0.6455 -0.9089
19192TIP3    H179067   4.570   1.994   4.882  1.1035  0.3897  1.4601
19192TIP3    H279068   4.514   1.901   4.988  0.5881 -2.4029 -1.1199
19193TIP3   OH279069   2.619   4.989  15.324  0.3397 -0.3767  0.1930
19193TIP3    H179070   2.583   5.000  15.235 -2.3944 -2.8157  0.8427
19193TIP3    H279071   2.686   4.921  15.314 -0.7478 -1.4745  0.0939
19194TIP3   OH279072   3.826   2.548   2.131 -0.2724  0.3565  0.0513
19194TIP3    H179073   3.822   2.493   2.052 -0.7593 -0.2760  0.5041
19194TIP3    H279074   3.916   2.578   2.135  0.4032 -1.5894  0.5597
19195TIP3   OH279075   3.381   3.191   5.501  0.7567  0.0640  0.1275
19195TIP3    H179076   3.402   3.127   5.569 -0.1530  0.3956  0.7341
19195TIP3    H279077   3.467   3.226   5.475  1.0863  0.3426  1.5090
19196TIP3   OH279078   5.642   3.364   3.342 -0.1021 -0.2258  0.1348
19196TIP3    H179079   5.694   3.328   3.413  0.0207  1.0263  0.7114
19196TIP3    H279080   5.552   3.359   3.373  0.0142  1.0549  0.7563
19197TIP3   OH279081   6.589   1.687  12.296 -0.0397  0.4985 -0.3114
19197TIP3    H179082   6.552   1.619  12.353  0.4399 -0.7071 -1.3829
19197TIP3    H279083   6.564   1.660  12.208  1.7076  0.7039 -0.9109
19198TIP3   OH279084   0.598   1.010   0.965 -0.6616 -0.4045  0.1675
19198TIP3    H179085   0.537   0.987   1.036 -0.4085 -0.3834  0.3943
19198TIP3    H279086   0.543   1.016   0.887 -0.7364 -1.7637  0.0979
19199TIP3   OH279087   4.686   0.480   3.777 -0.0122 -0.6135 -0.0789
19199TIP3    H179088   4.661   0.450   3.690 -0.0965 -0.7434 -0.0103
19199TIP3    H279089   4.687   0.576   3.770  0.9172 -0.6425 -0.4772
19200TIP3   OH279090   0.771   1.866   2.802 -0.0299  0.2503 -0.3092
19200TIP3    H179091   0.738   1.777   2.790 -0.4744  0.6762 -2.6814
19200TIP3    H279092   0.799   1.894   2.715 -0.4797  2.6582  0.2413
19201TIP3   OH279093   5.086   5.828   5.089  0.1563  0.0924 -1.1175
19201TIP3    H179094   5.116   5.919   5.096 -1.1760  0.4569  1.2046
19201TIP3    H279095   5.150   5.778   5.140 -0.3531  0.1188 -0.4290
19202TIP3   OH279096   4.755   2.181  12.891 -0.8429 -0.2481 -0.3560
19202TIP3    H179097   4.798   2.098  12.871 -0.3883  0.2387 -1.4747
19202TIP3    H279098   4.724   2.213  12.806 -1.7769  0.3163  0.1795
19203TIP3   OH279099   0.697   3.574  14.886  0.6228 -0.5451  0.5667
19203TIP3    H179100   0.708   3.493  14.836 -0.9314 -0.5573  0.2040
19203TIP3    H279101   0.730   3.643  14.828 -0.4320 -0.6487 -0.1707
19204TIP3   OH279102   3.093   6.535   1.882 -0.2735 -0.1850 -0.5383
19204TIP3    H179103   3.083   6.442   1.861  3.2654 -1.2592  1.6689
19204TIP3    H279104   3.155   6.568   1.817 -1.9599  0.8880 -1.6776
19205TIP3   OH279105   6.103   6.189  11.176 -0.4502 -0.9031 -0.1009
19205TIP3    H179106   6.078   6.096  11.176  0.2285 -1.1010 -0.7212
19205TIP3    H279107   6.029   6.234  11.215  0.0015 -1.9014  2.0794
19206TIP3   OH279108   1.929   2.101  15.836  0.5244 -0.1903 -0.8233
19206TIP3    H179109   1.959   2.061  15.918 -0.9903 -1.2010 -0.7346
19206TIP3    H279110   2.010   2.121  15.789  1.3863 -1.7843 -0.1067
19207TIP3   OH279111   4.592   2.445   4.006  0.3711  0.3087  0.2357
19207TIP3    H179112   4.673   2.393   4.003 -0.5702 -1.2650  0.8759
19207TIP3    H279113   4.527   2.390   3.963 -0.8772  0.5356  1.7457
19208TIP3   OH279114   5.073   0.313   4.657 -0.3354 -0.4733 -0.0074
19208TIP3    H179115   5.139   0.313   4.588 -0.0220 -0.4761  0.2872
19208TIP3    H279116   5.045   0.404   4.664  0.9647 -0.1091  1.1014
19209TIP3   OH279117   4.125   0.571   6.578 -0.2341  0.3292 -0.1923
19209TIP3    H179118   4.150   0.594   6.488  1.4366 -2.6684 -0.6258
19209TIP3    H279119   4.194   0.511   6.607 -1.3256  0.3400  2.7248
19210TIP3   OH279120   6.371   4.842  16.689 -0.1245 -0.6441 -0.4120
19210TIP3    H179121   6.425   4.854  16.612  1.2844 -2.1369  0.2874
19210TIP3    H279122   6.312   4.918  16.690  0.5944 -0.0248 -2.2934
19211TIP3   OH279123   6.240   1.335  11.617  0.0707 -0.0832 -0.4786
19211TIP3    H179124   6.203   1.418  11.588 -2.3160 -1.2100 -0.8954
19211TIP3    H279125   6.241   1.281  11.538 -2.7346 -1.8736  0.5612
19212TIP3   OH279126   0.997   0.919   4.130  0.2806  0.4544  0.6077
19212TIP3    H179127   1.023   0.871   4.051 -0.3195  1.4319 -0.2078
19212TIP3    H279128   1.035   1.006   4.119 -1.9983  1.4698  0.0752
19213TIP3   OH279129   0.582   6.682  13.062  0.4700 -0.1228 -0.1892
19213TIP3    H179130   0.603   6.758  13.007  1.8934 -1.2426 -1.2761
19213TIP3    H279131   0.632   6.610  13.023 -2.0954 -2.0252 -0.1979
19214TIP3   OH279132   4.197   5.692   3.021  0.3370 -0.0208  0.0012
19214TIP3    H179133   4.197   5.625   3.089 -1.1774  0.8308  0.9085
19214TIP3    H279134   4.279   5.739   3.034 -0.5179  1.0226  2.2411
19215TIP3   OH279135   4.412   2.664  13.704  0.7639  0.0199 -0.8965
19215TIP3    H179136   4.347   2.605  13.664 -1.6873  1.8826  0.0631
19215TIP3    H279137   4.456   2.705  13.630  1.1435 -1.5523 -1.5790
19216TIP3   OH279138   3.810   2.141  14.330  0.2547 -0.1876  0.1846
19216TIP3    H179139   3.861   2.077  14.378 -0.0176  1.0438  2.2082
19216TIP3    H279140   3.764   2.191  14.397 -0.9628  0.9446 -1.4122
19217TIP3   OH279141   2.996   5.234   1.691 -0.7564  0.1823  0.1629
19217TIP3    H179142   2.994   5.227   1.595 -0.5284 -0.9301  0.2270
19217TIP3    H279143   2.963   5.322   1.709  1.9010  1.5653 -1.0864
19218TIP3   OH279144   5.270   1.134  13.863  0.4122  0.4886 -0.1247
19218TIP3    H179145   5.274   1.229  13.850  0.8103  0.7860  1.8305
19218TIP3    H279146   5.223   1.101  13.787  1.5259  2.0865 -1.5761
19219TIP3   OH279147   3.201   2.451   4.494  0.3091  0.5794  0.4855
19219TIP3    H179148   3.141   2.456   4.568  1.3413  0.1098  1.3814
19219TIP3    H279149   3.266   2.386   4.520 -1.0803 -2.1263 -2.1757
19220TIP3   OH279150   5.916   4.452  16.839  0.2494 -0.2882 -0.1299
19220TIP3    H179151   5.935   4.456  16.933  0.6562  0.8745 -0.2510
19220TIP3    H279152   5.930   4.541  16.807 -0.9671 -0.4131 -1.0939
19221TIP3   OH279153   3.393   0.290   1.468 -0.3438  0.2004  0.0111
19221TIP3    H179154   3.482   0.296   1.503 -0.0434 -0.8629 -0.5276
19221TIP3    H279155   3.397   0.336   1.384 -0.2329 -0.0524 -0.1244
19222TIP3   OH279156   6.012   6.235   3.248 -0.3553 -0.4218  0.4144
19222TIP3    H179157   6.097   6.274   3.226 -0.7506  0.4425  0.3820
19222TIP3    H279158   5.959   6.245   3.169 -0.1193 -2.1037 -0.0107
19223TIP3   OH279159   2.520   1.574   1.442 -0.0840  0.5640 -0.2465
19223TIP3    H179160   2.431   1.561   1.409  0.2246  0.3746 -1.0180
19223TIP3    H279161   2.508   1.605   1.532 -0.9368  0.9537 -0.4867
19224TIP3   OH279162   0.571   1.534   5.153  0.1793  0.4973 -0.3368
19224TIP3    H179163   0.476   1.528   5.143 -0.0337  2.0387  0.4444
19224TIP3    H279164   0.605   1.457   5.107 -1.3798  0.5001 -1.5855
19225TIP3   OH279165   0.834   4.589   2.154 -0.0166 -0.0738 -0.1658
19225TIP3    H179166   0.888   4.598   2.076 -0.6652 -1.2575 -0.7690
19225TIP3    H279167   0.787   4.507   2.142 -1.7254  0.7594  0.4867
19226TIP3   OH279168   2.124   3.046  16.905  0.5978 -0.1455 -0.1259
19226TIP3    H179169   2.038   3.004  16.910  1.2112 -1.3838  0.6328
19226TIP3    H279170   2.117   3.124  16.960 -0.5287  0.7415 -1.4571
19227TIP3   OH279171   4.915   4.324   3.072  0.7882  0.2070  0.2964
19227TIP3    H179172   5.009   4.320   3.057  0.5291  2.5395 -2.9073
19227TIP3    H279173   4.895   4.243   3.121  4.1965 -1.0602 -0.1583
19228TIP3   OH279174   0.706   3.907   3.289  0.3157  0.0580 -0.0735
19228TIP3    H179175   0.712   3.839   3.222 -0.0975 -0.3783  0.3190
19228TIP3    H279176   0.797   3.925   3.313  0.4343 -0.2901 -0.2487
19229TIP3   OH279177   3.196   0.225  15.819  0.1747 -0.0448  0.5930
19229TIP3    H179178   3.177   0.131  15.818  1.4437 -0.3173  0.3435
19229TIP3    H279179   3.224   0.242  15.909  1.4946 -0.2505  0.2361
19230TIP3   OH279180   3.516   6.147   0.681  0.4389 -0.2510 -0.8431
19230TIP3    H179181   3.420   6.150   0.679  0.4677  0.7254 -1.8099
19230TIP3    H279182   3.537   6.096   0.759 -0.8960 -2.4098 -1.7978
19231TIP3   OH279183   1.327   2.933   4.081 -0.1163  0.0669 -0.8856
19231TIP3    H179184   1.387   2.873   4.036  0.2264 -2.3935  2.5052
19231TIP3    H279185   1.381   2.980   4.144 -1.1399  0.6461 -0.3958
19232TIP3   OH279186   5.079   2.503   5.953  0.4526 -0.2166 -0.3457
19232TIP3    H179187   5.047   2.589   5.977 -0.4653 -0.4923 -0.5369
19232TIP3    H279188   5.068   2.498   5.858  2.4384  0.2188 -0.6324
19233TIP3   OH279189   6.778   4.652   4.547  0.1682  0.1447 -0.4165
19233TIP3    H179190   6.710   4.719   4.540  0.1417  0.0097 -1.6821
19233TIP3    H279191   6.814   4.663   4.635  0.7643  2.3976 -0.8905
19234TIP3   OH279192   1.531   3.361   0.440 -0.9173 -0.3843  0.4295
19234TIP3    H179193   1.492   3.303   0.375 -1.0648 -0.0450  0.2139
19234TIP3    H279194   1.625   3.354   0.424 -0.8399 -1.5399  1.2356
19235TIP3   OH279195   4.563   6.805   3.259  0.0070  0.1056 -0.2309
19235TIP3    H179196   4.489   6.748   3.239  1.5431 -1.2939 -2.2880
19235TIP3    H279197   4.534   6.892   3.232 -1.6847  0.0663  1.2302
19236TIP3   OH279198   3.154   1.773  14.127 -0.4170  0.0596  0.1803
19236TIP3    H179199   3.155   1.854  14.178 -2.2576  0.7485 -0.7871
19236TIP3    H279200   3.074   1.728  14.155 -1.6359  0.5827 -2.1882
19237TIP3   OH279201   3.015   4.753  15.841 -0.1729 -0.0253 -0.0708
19237TIP3    H179202   3.034   4.659  15.842  0.1715  0.0443  0.0643
19237TIP3    H279203   2.934   4.760  15.792  0.7058 -0.2283 -1.6118
19238TIP3   OH279204   4.514   5.692   4.201  0.3186 -0.4599  0.2014
19238TIP3    H179205   4.434   5.718   4.247  0.3747  2.7276 -1.2884
19238TIP3    H279206   4.585   5.721   4.258  0.4780 -2.0721  0.8820
19239TIP3   OH279207   6.649   6.747  16.388  0.1106 -0.1197  0.7284
19239TIP3    H179208   6.677   6.798  16.464  4.0546  1.4995 -1.4541
19239TIP3    H279209   6.683   6.659  16.404  2.2998  0.5852  0.3308
19240TIP3   OH279210   3.550   0.259  13.076  0.0961 -0.0152 -0.4085
19240TIP3    H179211   3.522   0.337  13.028 -0.6059  0.9934  1.5539
19240TIP3    H279212   3.632   0.285  13.117  0.3273 -0.6305 -0.4746
19241TIP3   OH279213   4.412   4.772  10.755 -0.1313 -0.2965  0.3429
19241TIP3    H179214   4.362   4.701  10.715 -0.0508 -0.0573 -0.1934
19241TIP3    H279215   4.353   4.847  10.755  0.0124 -0.1826  0.2883
19242TIP3   OH279216   0.315   5.525   4.545  0.2336  0.5317 -0.8894
19242TIP3    H179217   0.232   5.487   4.575  0.2514 -0.3606 -1.8985
19242TIP3    H279218   0.364   5.542   4.626 -0.3902 -0.2292 -0.3320
19243TIP3   OH279219   1.701   1.170  16.415 -0.6268 -0.1715  0.0369
19243TIP3    H179220   1.698   1.080  16.381 -1.0868  0.7747 -2.7039
19243TIP3    H279221   1.611   1.201  16.408  0.0053  1.3874 -1.8331
19244TIP3   OH279222   6.162   3.919   2.331  0.1498 -0.0165 -0.3904
19244TIP3    H179223   6.121   3.927   2.245  1.0111  0.7902 -0.7376
19244TIP3    H279224   6.207   4.002   2.345 -0.2895  0.0125  1.0121
19245TIP3   OH279225   0.641   0.570   4.927 -0.0894  0.8090 -0.2575
19245TIP3    H179226   0.731   0.571   4.893  0.2017 -1.2170  0.2891
19245TIP3    H279227   0.647   0.614   5.012  0.6730 -0.3760  0.3295
19246TIP3   OH279228   5.136   2.830   5.215 -0.1070  0.1833 -0.3201
19246TIP3    H179229   5.186   2.911   5.205 -1.1791  0.8553 -0.3906
19246TIP3    H279230   5.073   2.849   5.284  1.0391 -1.3244  1.2411
19247TIP3   OH279231   1.918   4.846  10.890 -0.2071 -0.1224 -0.0908
19247TIP3    H179232   1.826   4.865  10.871 -0.0925 -1.3598 -2.2234
19247TIP3    H279233   1.966   4.879  10.814  0.5012 -3.8920 -1.5148
19248TIP3   OH279234   2.540   1.443   5.869 -0.1871  0.2479 -0.4817
19248TIP3    H179235   2.452   1.477   5.885  0.0233  0.6895 -0.2496
19248TIP3    H279236   2.594   1.521   5.858  0.0749 -0.0298 -1.1722
19249TIP3   OH279237   6.800   2.169  15.442 -0.1816  0.2310 -0.0890
19249TIP3    H179238   6.772   2.261  15.449 -0.5768  0.0682  0.5650
19249TIP3    H279239   6.720   2.122  15.417 -0.2141 -0.0636  0.5451
19250TIP3   OH279240   4.770   5.190  11.220 -0.2032  0.1503 -0.2349
19250TIP3    H179241   4.689   5.139  11.208  1.1723 -2.6883  1.4717
19250TIP3    H279242   4.840   5.129  11.197  1.5529  1.3082  1.7137
19251TIP3   OH279243   0.169   4.255  13.591  0.6224  0.5607  0.1316
19251TIP3    H179244   0.149   4.291  13.678  1.4921  1.9394 -0.1995
19251TIP3    H279245   0.096   4.283  13.536 -0.0074 -0.4462  0.4337
19252TIP3   OH279246   0.737   2.989   4.515  0.4956  0.6673 -0.4000
19252TIP3    H179247   0.701   2.992   4.426  0.4840  2.6571 -0.3754
19252TIP3    H279248   0.660   2.978   4.571  0.4770 -0.3162 -0.5980
19253TIP3   OH279249   0.483   4.064   1.594  0.7769 -0.2993 -0.2997
19253TIP3    H179250   0.487   4.062   1.690  1.3095 -1.3468 -0.3347
19253TIP3    H279251   0.469   3.973   1.569  0.3046  0.0150 -1.2140
19254TIP3   OH279252   6.252   3.234  12.485  0.1910 -0.3290 -0.0704
19254TIP3    H179253   6.195   3.167  12.523  0.6076 -0.1952  0.8146
19254TIP3    H279254   6.203   3.316  12.496  1.3961  0.1468  2.7352
19255TIP3   OH279255   3.941   0.210   5.983 -0.2338 -0.1031  0.0072
19255TIP3    H179256   4.006   0.246   6.044  0.6576  0.0439 -1.0171
19255TIP3    H279257   3.985   0.206   5.899 -1.7744  0.6807 -0.8911
19256TIP3   OH279258   1.423   4.779   2.547  0.2012  0.1091  0.6504
19256TIP3    H179259   1.384   4.753   2.463  0.4328  2.0517 -0.1165
19256TIP3    H279260   1.416   4.701   2.602 -0.2721 -1.1129 -1.0570
19257TIP3   OH279261   3.511   1.232   3.911  0.0071  0.1351 -0.0193
19257TIP3    H179262   3.528   1.279   3.829 -2.6667  1.0356 -0.1561
19257TIP3    H279263   3.553   1.285   3.978  0.8343  0.2743 -0.6288
19258TIP3   OH279264   5.027   1.771   4.369 -0.2188  0.1011  0.0104
19258TIP3    H179265   5.061   1.859   4.386 -1.9471  0.5693  1.3430
19258TIP3    H279266   5.085   1.713   4.418 -0.3856  0.7300  0.9831
19259TIP3   OH279267   2.676   4.896  15.600 -0.3208  0.2835  0.0781
19259TIP3    H179268   2.602   4.909  15.541  0.3482  2.2205 -0.4114
19259TIP3    H279269   2.656   4.951  15.676  0.7237  1.0717 -0.1972
19260TIP3   OH279270   1.117   3.928   5.058 -0.3221 -0.1831  0.1771
19260TIP3    H179271   1.084   4.017   5.045 -0.3285 -0.4568 -2.3259
19260TIP3    H279272   1.183   3.917   4.990 -0.1850 -2.0276  0.5519
19261TIP3   OH279273   2.754   6.690   1.050 -0.3386 -0.4673 -0.0904
19261TIP3    H179274   2.676   6.669   1.101  1.0012 -0.3334  2.1696
19261TIP3    H279275   2.823   6.638   1.091  1.0684  0.6120 -1.0022
19262TIP3   OH279276   5.026   5.318   5.394 -0.1271  0.8787  0.3419
19262TIP3    H179277   4.969   5.395   5.402  0.7686  1.5701  0.2154
19262TIP3    H279278   5.102   5.338   5.447  0.0040 -0.0504  0.5264
19263TIP3   OH279279   1.428   5.036  13.463  0.1068  0.3703 -0.0302
19263TIP3    H179280   1.503   5.063  13.516 -0.9480 -2.1916  3.1185
19263TIP3    H279281   1.359   5.017  13.527 -1.4543 -2.5666 -2.3342
19264TIP3   OH279282   3.014   2.897  12.869  0.1560  0.3292 -0.4558
19264TIP3    H179283   3.045   2.889  12.779 -1.2581 -1.4137 -0.8402
19264TIP3    H279284   2.924   2.864  12.867  0.0942  0.2394  1.5962
19265TIP3   OH279285   4.997   1.172   5.400  0.7606 -0.2195 -0.2154
19265TIP3    H179286   4.988   1.211   5.313  0.4517 -1.4031 -0.7283
19265TIP3    H279287   4.955   1.235   5.459 -1.5608 -0.6808 -1.2772
19266TIP3   OH279288   0.066   1.281  15.279 -0.1830 -0.0994 -0.1488
19266TIP3    H179289  -0.026   1.254  15.269 -0.3037  0.2663 -0.0558
19266TIP3    H279290   0.112   1.201  15.303 -0.8075  0.0531  1.7444
19267TIP3   OH279291   3.878   3.556   1.587 -0.4946  0.0843 -0.9028
19267TIP3    H179292   3.792   3.583   1.619 -1.2217 -0.4032 -2.3707
19267TIP3    H279293   3.933   3.553   1.666 -1.7936  0.4670  0.0484
19268TIP3   OH279294   0.010   5.108  15.669  0.0692  0.3383  0.8330
19268TIP3    H179295  -0.019   5.020  15.692 -0.6822  0.5556  0.7476
19268TIP3    H279296  -0.062   5.144  15.618  2.1710 -0.6141 -3.1748
19269TIP3   OH279297   5.579   2.245  10.906  0.6759 -0.5529  0.1513
19269TIP3    H179298   5.542   2.271  10.822 -0.1541 -0.7940  0.4288
19269TIP3    H279299   5.592   2.150  10.899 -1.1048 -0.8991  0.8956
19270TIP3   OH279300   6.126   5.669  11.383  0.6741 -0.7476 -0.1387
19270TIP3    H179301   6.141   5.614  11.306  1.6050 -1.0889  0.2782
19270TIP3    H279302   6.045   5.716  11.362 -0.4043 -2.5658 -0.3425
19271TIP3   OH279303   5.175   5.000  12.404 -0.1764  0.5112 -0.2403
19271TIP3    H179304   5.176   4.982  12.498  0.2369 -0.6623 -0.4437
19271TIP3    H279305   5.233   5.076  12.393 -0.2680  0.6886  0.4528
19272TIP3   OH279306   6.703   3.998  11.766 -0.6328  0.1289  0.3904
19272TIP3    H179307   6.778   3.966  11.815 -1.3880  0.4994  1.8640
19272TIP3    H279308   6.697   4.091  11.788 -0.5158  0.5208 -1.0889
19273TIP3   OH279309   5.548   4.013  12.317 -0.0882 -0.1981  0.0749
19273TIP3    H179310   5.481   4.044  12.257  0.7485  1.9943  0.1957
19273TIP3    H279311   5.542   3.917  12.313 -1.8504 -0.0639 -1.4077
19274TIP3   OH279312   5.504   2.881   4.769 -0.1106  0.6029  0.1922
19274TIP3    H179313   5.408   2.872   4.766 -0.1387  0.2363  1.6424
19274TIP3    H279314   5.530   2.837   4.850  1.1832  1.7268  0.4202
19275TIP3   OH279315   4.726   4.699   1.893 -0.4311 -0.2957  0.4928
19275TIP3    H179316   4.769   4.717   1.809 -0.2757 -1.2737  0.3521
19275TIP3    H279317   4.683   4.614   1.880 -0.9251 -0.1625  1.2054
19276TIP3   OH279318   4.597   3.156  12.646  0.2642 -0.2038 -0.5675
19276TIP3    H179319   4.609   3.065  12.618 -2.4952 -0.6307 -0.7279
19276TIP3    H279320   4.519   3.153  12.701  0.1731  2.0531 -0.4939
19277TIP3   OH279321   6.572   1.193   0.129  0.4587  0.3253  0.0732
19277TIP3    H179322   6.559   1.129   0.059 -2.4004 -0.5489  1.2719
19277TIP3    H279323   6.607   1.141   0.202 -0.4785  0.4021  0.5840
19278TIP3   OH279324   2.262   4.840   1.401 -0.4324  0.4294  0.3924
19278TIP3    H179325   2.285   4.747   1.400 -1.1526  0.2408  0.8909
19278TIP3    H279326   2.256   4.865   1.309 -0.7391 -0.1416  0.2580
19279TIP3   OH279327   2.805   6.520   2.695  0.6298 -0.0752 -0.1804
19279TIP3    H179328   2.709   6.515   2.698  0.5929  0.8038  0.4975
19279TIP3    H279329   2.824   6.612   2.713  1.6993 -0.7398  2.5058
19280TIP3   OH279330   4.642   1.061   5.297 -0.0398  0.0126 -0.4843
19280TIP3    H179331   4.636   1.157   5.296 -1.4851 -0.0570 -1.7905
19280TIP3    H279332   4.684   1.039   5.213  2.4024 -0.4515  0.7534
19281TIP3   OH279333   1.601   6.160  11.514  0.4700  0.0576 -0.1546
19281TIP3    H179334   1.636   6.178  11.427  1.2674  1.4696  0.4061
19281TIP3    H279335   1.560   6.243  11.540 -1.5996 -0.9512  0.0217
19282TIP3   OH279336   3.705   5.409   3.928  0.0604  0.4532 -1.2313
19282TIP3    H179337   3.667   5.490   3.964 -0.0888 -0.1512  0.0101
19282TIP3    H279338   3.641   5.380   3.863 -1.0251  0.1224 -0.0572
19283TIP3   OH279339   6.423   0.989   4.793  0.2013  0.0329 -0.3402
19283TIP3    H179340   6.507   1.029   4.772 -0.8225  0.9225 -3.1517
19283TIP3    H279341   6.372   0.994   4.712 -2.4979 -0.6806  1.1639
19284TIP3   OH279342   2.377   5.879  14.421  1.1680  0.4882  0.0681
19284TIP3    H179343   2.347   5.954  14.472  0.9123  0.2515  0.2730
19284TIP3    H279344   2.455   5.849  14.467  0.1872 -0.5475  1.1307
19285TIP3   OH279345   3.400   4.580  15.997  0.5164 -0.5834  0.0689
19285TIP3    H179346   3.467   4.639  16.029  0.7139 -1.3116  1.0377
19285TIP3    H279347   3.444   4.529  15.929  0.8748 -0.8689  0.5098
19286TIP3   OH279348   3.660   2.947  15.794 -0.1239 -0.2945 -0.2157
19286TIP3    H179349   3.666   2.996  15.877 -0.3704 -0.8545  0.1331
19286TIP3    H279350   3.574   2.905  15.797 -0.9076  1.0843 -1.5454
19287TIP3   OH279351   1.527   5.347   5.661  0.4944 -0.2501 -0.6807
19287TIP3    H179352   1.537   5.339   5.566  0.6851 -1.1996 -0.5859
19287TIP3    H279353   1.585   5.419   5.685 -0.1662  0.5500 -1.3752
19288TIP3   OH279354   0.985   5.842  16.253  0.1740  0.5794 -0.2603
19288TIP3    H179355   0.915   5.784  16.225  1.5250 -1.0519 -0.4685
19288TIP3    H279356   1.010   5.891  16.175 -1.1985  1.7092 -0.0087
19289TIP3   OH279357   1.617   6.758  12.950  0.1419  0.3767 -0.4740
19289TIP3    H179358   1.633   6.794  13.037  0.3460 -1.3998  0.2597
19289TIP3    H279359   1.521   6.755  12.942  0.1160  1.6496 -0.8151
19290TIP3   OH279360   3.968   4.872  15.770 -0.5051  0.5778 -0.9727
19290TIP3    H179361   3.916   4.791  15.771  1.3790 -0.7654  1.2418
19290TIP3    H279362   3.961   4.905  15.860  0.9590  1.3283 -1.1103
19291TIP3   OH279363   3.501   1.454   2.391 -0.1382 -0.1795 -0.0210
19291TIP3    H179364   3.407   1.468   2.388 -0.0659  1.2954  2.0407
19291TIP3    H279365   3.512   1.360   2.380 -1.9424 -0.5267  0.8062
19292TIP3   OH279366   0.023   6.806  12.304  0.0840  0.3729  0.6993
19292TIP3    H179367   0.013   6.899  12.326  1.0086  0.6284  0.1408
19292TIP3    H279368   0.116   6.788  12.319  0.3168  0.0383 -0.9489
19293TIP3   OH279369   4.032   6.147   4.690  0.4726 -0.2907  0.3876
19293TIP3    H179370   4.048   6.121   4.780 -1.2217 -3.6440 -0.1182
19293TIP3    H279371   3.937   6.151   4.682  0.5985  1.6966 -0.8738
19294TIP3   OH279372   0.366   5.801  13.908 -0.6615  0.1550  0.4475
19294TIP3    H179373   0.425   5.821  13.981  0.1078 -1.6015  0.3668
19294TIP3    H279374   0.328   5.716  13.932 -1.2545  0.0988 -0.6749
19295TIP3   OH279375   6.815   2.907   5.805  0.1196 -0.2620 -0.0268
19295TIP3    H179376   6.800   2.919   5.711  1.4916 -1.7798 -0.4935
19295TIP3    H279377   6.730   2.880   5.839 -0.4287  0.4364 -0.7898
19296TIP3   OH279378   0.242   5.957   4.378 -0.3607  0.2399  0.5705
19296TIP3    H179379   0.315   5.917   4.331  0.5111  1.3136  0.9588
19296TIP3    H279380   0.195   6.007   4.311 -0.0305  0.5197  0.5463
19297TIP3   OH279381   0.885   3.387   4.669 -0.3806 -0.4104  0.4900
19297TIP3    H179382   0.903   3.480   4.672  2.8394 -0.9644  1.2146
19297TIP3    H279383   0.796   3.379   4.704 -0.2682  2.2526  1.6166
19298TIP3   OH279384   1.217   6.196   2.974  0.0131 -0.4683  0.0934
19298TIP3    H179385   1.153   6.260   2.944  0.9831  0.0727 -0.8896
19298TIP3    H279386   1.269   6.243   3.039  1.7319  0.3173 -1.7451
19299TIP3   OH279387   5.046   4.060   2.244 -0.6937 -0.2145  0.2754
19299TIP3    H179388   5.009   3.982   2.204  0.1588 -0.6487  0.2949
19299TIP3    H279389   4.980   4.089   2.306 -1.0875 -0.8313  0.1551
19300TIP3   OH279390   3.094   0.227  12.872 -0.1850  0.2860  0.0618
19300TIP3    H179391   3.026   0.160  12.857 -1.3133  1.6998 -1.5615
19300TIP3    H279392   3.141   0.231  12.788 -0.4004  1.7824 -0.0023
19301TIP3   OH279393   4.507   2.800   4.698  0.3847  0.0798  0.1346
19301TIP3    H179394   4.500   2.813   4.603  0.0455  0.4841  0.2127
19301TIP3    H279395   4.559   2.721   4.707 -1.4789 -1.2939 -0.4525
19302TIP3   OH279396   6.345   1.805   1.986 -0.0905  0.1936  0.4172
19302TIP3    H179397   6.349   1.806   2.081  0.3369  0.1640  0.3993
19302TIP3    H279398   6.414   1.865   1.958 -0.5973  0.6569  0.1350
19303TIP3   OH279399   5.464   1.062   6.545  0.4762  0.3433 -0.4084
19303TIP3    H179400   5.555   1.065   6.514  1.0418  1.7988  1.1725
19303TIP3    H279401   5.435   1.153   6.541 -1.3827 -0.2696 -2.0377
19304TIP3   OH279402   5.763   1.060   0.468 -0.0603  0.3178  0.3839
19304TIP3    H179403   5.673   1.051   0.438 -1.3045  0.0524  3.7756
19304TIP3    H279404   5.770   1.152   0.493  1.3982  0.8882 -1.8415
19305TIP3   OH279405   3.815   4.025  13.068  0.4867 -0.0737 -0.4251
19305TIP3    H179406   3.889   3.979  13.028  0.2850 -1.7011  0.9531
19305TIP3    H279407   3.741   4.008  13.010  1.1496  1.5476 -1.8008
19306TIP3   OH279408   4.355   1.854   0.753  0.5183  0.0430  0.0250
19306TIP3    H179409   4.392   1.814   0.832  0.3320  0.3927  0.2960
19306TIP3    H279410   4.266   1.819   0.748  0.3273  0.4712  0.3076
19307TIP3   OH279411   4.128   1.831   0.468 -0.1122  0.2899  0.0998
19307TIP3    H179412   4.176   1.796   0.542  0.6308  0.3715 -0.3351
19307TIP3    H279413   4.073   1.758   0.438  1.1192 -0.4078 -0.5440
19308TIP3   OH279414   5.840   5.448  13.340 -0.3964 -0.4481 -0.4056
19308TIP3    H179415   5.805   5.379  13.397  1.6364 -2.2400 -1.1841
19308TIP3    H279416   5.877   5.512  13.400 -2.4284  0.0988  0.3417
19309TIP3   OH279417   1.275   4.127   2.418  0.3965 -0.3006  0.4039
19309TIP3    H179418   1.312   4.215   2.427  2.3667 -1.0832  0.6584
19309TIP3    H279419   1.184   4.136   2.445 -0.4487  2.2937 -2.6912
19310TIP3   OH279420   3.455   3.571  15.775 -0.4814 -0.2943  0.1042
19310TIP3    H179421   3.511   3.648  15.786 -0.8193  0.0979 -0.7992
19310TIP3    H279422   3.379   3.603  15.726  0.1637 -1.5300 -1.8231
19311TIP3   OH279423   1.542   5.424   5.145 -0.0002  0.1204 -0.3995
19311TIP3    H179424   1.577   5.414   5.234 -0.4867  0.5603 -0.1502
19311TIP3    H279425   1.591   5.498   5.108 -0.7648  0.8501  0.0119
19312TIP3   OH279426   3.957   0.573   2.415  0.4465 -0.1185 -0.1584
19312TIP3    H179427   4.008   0.653   2.404 -0.3388  0.0844 -3.0749
19312TIP3    H279428   4.014   0.503   2.380  0.5868 -0.6592  1.0996
19313TIP3   OH279429   0.743   4.133   5.026  0.3483  0.3146  0.3368
19313TIP3    H179430   0.676   4.187   5.068 -0.4111 -0.0190 -0.4213
19313TIP3    H279431   0.809   4.119   5.094 -1.4312 -1.2567  1.8341
19314TIP3   OH279432   5.926   3.590  12.845 -0.6666 -0.1669  0.1915
19314TIP3    H179433   5.855   3.559  12.789 -1.0365 -1.4509  1.3178
19314TIP3    H279434   5.992   3.621  12.784 -1.4645 -0.5870 -0.9336
19315TIP3   OH279435   3.535   1.949   6.085 -0.5236  0.3341  0.0179
19315TIP3    H179436   3.491   1.910   6.161 -1.2704  0.1556 -0.4986
19315TIP3    H279437   3.606   1.889   6.065  0.3917  0.9608  1.2670
19316TIP3   OH279438   5.229   2.256  14.366 -0.4499 -0.3139 -0.7381
19316TIP3    H179439   5.320   2.229  14.373 -0.7857 -1.6990 -1.4347
19316TIP3    H279440   5.222   2.298  14.281 -0.7859 -1.6790 -1.4199
19317TIP3   OH279441   3.680   4.776   0.608  0.3637 -0.6957 -0.2554
19317TIP3    H179442   3.672   4.719   0.532 -0.3950 -1.2401  0.2142
19317TIP3    H279443   3.602   4.831   0.605  0.3046 -0.7523  0.1450
19318TIP3   OH279444   3.356   2.705  10.131 -0.3352 -0.3666  0.2545
19318TIP3    H179445   3.370   2.685  10.224 -1.4513 -1.2773  0.2569
19318TIP3    H279446   3.381   2.625  10.085 -0.5792 -0.2071 -0.1624
19319TIP3   OH279447   1.565   6.619  13.545 -0.1981 -0.3775 -0.4576
19319TIP3    H179448   1.594   6.710  13.550 -2.1925  0.3481 -1.0220
19319TIP3    H279449   1.633   6.575  13.494 -0.1219  1.2564 -1.8838
19320TIP3   OH279450   1.442   4.642   1.727  0.5376 -0.1066 -0.2647
19320TIP3    H179451   1.476   4.624   1.814 -1.9512 -2.2390  0.3757
19320TIP3    H279452   1.513   4.688   1.683  2.0822  0.5538  2.6732
19321TIP3   OH279453   0.422   3.935   2.104 -0.0148  0.1831  0.8452
19321TIP3    H179454   0.401   4.024   2.135 -0.9521  0.1502  0.3577
19321TIP3    H279455   0.359   3.879   2.149 -0.5897 -0.0087 -0.1635
19322TIP3   OH279456   4.155   4.116   1.243 -0.3394  0.1477  0.7930
19322TIP3    H179457   4.174   4.037   1.193 -1.1840 -0.1778  0.9764
19322TIP3    H279458   4.199   4.102   1.327 -2.3692 -1.1845  1.7094
19323TIP3   OH279459   1.896   5.509   2.097 -0.4743  0.6031 -0.1574
19323TIP3    H179460   1.969   5.460   2.134 -0.3127  1.8499  1.2432
19323TIP3    H279461   1.904   5.597   2.135 -2.8661  0.6873  0.2869
19324TIP3   OH279462   5.165   2.753   5.631  0.3807 -0.9188 -0.5940
19324TIP3    H179463   5.259   2.749   5.613  0.4991  0.9098 -0.5774
19324TIP3    H279464   5.158   2.809   5.709 -0.7640 -0.4627 -1.0018
19325TIP3   OH279465   0.207   5.620  11.550  0.3229 -0.3291 -0.3124
19325TIP3    H179466   0.204   5.535  11.507  0.7681  0.5516 -2.1728
19325TIP3    H279467   0.233   5.600  11.640 -1.3926 -2.2929 -0.1852
19326TIP3   OH279468   0.459   4.818  14.378  0.0957 -0.1017  0.0419
19326TIP3    H179469   0.490   4.765  14.451  1.3717  0.0249 -0.3847
19326TIP3    H279470   0.415   4.893  14.419  0.1669 -0.3989  0.6665
19327TIP3   OH279471   3.964   6.400  14.236  0.8765 -0.3402  0.1388
19327TIP3    H179472   3.986   6.489  14.263  0.5113 -0.3121  0.3621
19327TIP3    H279473   3.905   6.368  14.305 -1.2216  0.2434 -1.2973
19328TIP3   OH279474   3.738   6.627   3.312 -0.3443 -0.0105 -0.2806
19328TIP3    H179475   3.692   6.553   3.273 -0.4816 -0.2222  0.2679
19328TIP3    H279476   3.820   6.589   3.346 -0.1076  0.2191 -0.5929
19329TIP3   OH279477   5.129   1.790  12.243  0.4501 -0.1838 -0.1868
19329TIP3    H179478   5.210   1.743  12.221  1.8656  1.6507  0.8045
19329TIP3    H279479   5.071   1.723  12.278  2.4125 -1.2463  1.2398
19330TIP3   OH279480   1.874   6.644   3.305 -0.1463  0.0296 -0.4114
19330TIP3    H179481   1.787   6.653   3.266  0.4123  0.3919 -1.6368
19330TIP3    H279482   1.870   6.693   3.387 -1.5711 -1.3380  0.3781
19331TIP3   OH279483   3.301   1.120   3.466  0.6292  0.0360 -0.4455
19331TIP3    H179484   3.321   1.078   3.382  0.6918  1.8094 -1.3617
19331TIP3    H279485   3.378   1.172   3.485  0.2678  0.3087  0.2992
19332TIP3   OH279486   5.472   0.974  13.964  0.2716  0.5089  0.2015
19332TIP3    H179487   5.406   0.983  13.896 -0.0985  1.4381  0.6638
19332TIP3    H279488   5.424   0.981  14.046  1.2413  5.6087  0.6867
19333TIP3   OH279489   1.047   2.193   2.847 -0.2016  0.0674 -0.3246
19333TIP3    H179490   1.001   2.147   2.917 -1.7535  0.0802 -1.3023
19333TIP3    H279491   1.117   2.133   2.822  0.5683  0.1870  1.4004
19334TIP3   OH279492   5.669   0.436   2.331 -0.6139  0.1834  0.0937
19334TIP3    H179493   5.647   0.348   2.364  0.8208 -0.3019 -0.1488
19334TIP3    H279494   5.586   0.482   2.328 -1.3573 -1.0718  0.5357
19335TIP3   OH279495   4.922   4.767  16.986  0.8151 -0.4112 -0.1633
19335TIP3    H179496   4.873   4.788  17.065 -0.9229 -2.5978 -0.5607
19335TIP3    H279497   4.870   4.805  16.915  0.8263 -0.9334 -0.4507
19336TIP3   OH279498   3.738   1.046   4.092 -0.3109 -0.4203 -0.4707
19336TIP3    H179499   3.685   0.969   4.114  0.9767 -0.7469  1.8726
19336TIP3    H279500   3.763   1.034   4.001 -1.1356 -2.1595 -0.5034
19337TIP3   OH279501   4.905   4.166   1.676 -0.5845 -0.4750 -0.6818
19337TIP3    H179502   4.913   4.081   1.721  0.1875 -0.3459 -0.5556
19337TIP3    H279503   4.824   4.204   1.711 -1.2405 -1.3935 -1.1572
19338TIP3   OH279504   4.016   1.838   2.091  0.3226  0.0915 -0.6519
19338TIP3    H179505   4.059   1.883   2.163 -0.9347 -1.3667  1.0874
19338TIP3    H279506   4.067   1.758   2.077  0.2466  0.1049 -1.0220
19339TIP3   OH279507   0.445   4.803  16.410 -0.3208 -0.0642 -0.3219
19339TIP3    H179508   0.470   4.712  16.389  0.5601  0.1935 -0.4574
19339TIP3    H279509   0.359   4.814  16.371 -1.0557 -1.2645  0.8862
19340TIP3   OH279510   2.508   5.714   4.520 -0.2105 -0.0593 -0.4832
19340TIP3    H179511   2.441   5.762   4.569 -0.0677 -0.1358 -0.2163
19340TIP3    H279512   2.550   5.781   4.466  1.2190  0.4609  1.2259
19341TIP3   OH279513   5.845   3.818   6.355 -0.0305  0.1879 -0.0270
19341TIP3    H179514   5.762   3.779   6.383 -1.0701  1.2267 -1.4978
19341TIP3    H279515   5.908   3.745   6.359 -1.3866 -1.0595 -0.4683
19342TIP3   OH279516   4.875   5.069   4.075 -0.1935  0.5703  0.2395
19342TIP3    H179517   4.835   4.998   4.125  2.6453 -0.4480  1.2323
19342TIP3    H279518   4.869   5.145   4.134  2.4068 -0.4339  2.0151
19343TIP3   OH279519   4.644   5.805  11.615  0.4424  0.2480  0.5724
19343TIP3    H179520   4.566   5.794  11.669 -0.1581 -0.7265 -0.4526
19343TIP3    H279521   4.715   5.814  11.678 -0.3270 -0.1648  1.5322
19344TIP3   OH279522   2.508   3.367  16.629 -0.1953  0.2236  0.2731
19344TIP3    H179523   2.576   3.425  16.663 -0.4235  0.7543 -0.1642
19344TIP3    H279524   2.492   3.397  16.540 -1.3061  0.3809  0.5024
19345TIP3   OH279525   6.783   2.562  11.157 -0.0860  0.4237 -0.1032
19345TIP3    H179526   6.791   2.605  11.072  0.2275  1.3453  0.3815
19345TIP3    H279527   6.734   2.624  11.211 -0.9858 -0.4929  0.1685
19346TIP3   OH279528   5.975   6.118   0.683  0.5890 -0.0679 -0.1469
19346TIP3    H179529   5.967   6.040   0.628 -1.9968 -0.4849  0.6904
19346TIP3    H279530   5.889   6.159   0.679  1.5052  2.0304  0.5248
19347TIP3   OH279531   6.410   2.472  16.152  1.1650  0.0912 -0.3660
19347TIP3    H179532   6.407   2.563  16.180  1.1996 -0.2295  0.7396
19347TIP3    H279533   6.327   2.435  16.181  1.7443 -0.5766  0.5102
19348TIP3   OH279534   5.986   3.394  15.902 -0.1844  0.3030  0.3835
19348TIP3    H179535   6.010   3.321  15.846  0.6711  1.0026 -0.1852
19348TIP3    H279536   5.988   3.359  15.991  0.4769 -0.2934  0.1372
19349TIP3   OH279537   5.607   4.026  12.706  0.6220 -0.4056 -0.0198
19349TIP3    H179538   5.626   4.087  12.636  1.0290  0.2417  0.6394
19349TIP3    H279539   5.636   3.941  12.673  4.9555  0.4691  0.9168
19350TIP3   OH279540   3.164   0.261   0.706 -0.0947  0.0964  0.4676
19350TIP3    H179541   3.154   0.181   0.654  1.2043 -0.1215  0.5054
19350TIP3    H279542   3.132   0.237   0.793 -0.5339 -0.1094  0.2523
19351TIP3   OH279543   4.967   5.757   4.031  0.0008  0.0288 -0.0263
19351TIP3    H179544   4.975   5.699   4.107 -0.9012 -0.4609 -0.2916
19351TIP3    H279545   4.975   5.845   4.068  0.3853 -0.2229  0.5181
19352TIP3   OH279546   1.528   6.511   3.835 -0.1787  0.0684 -1.0270
19352TIP3    H179547   1.572   6.436   3.876  1.0943  0.3230 -1.8782
19352TIP3    H279548   1.441   6.479   3.814 -0.4038 -0.4921  0.5972
19353TIP3   OH279549   4.088   6.498  13.971  0.3686  0.2887 -0.0978
19353TIP3    H179550   4.072   6.583  14.012  1.9705  1.3444 -1.5400
19353TIP3    H279551   4.063   6.434  14.038 -1.3188  1.8562  0.8509
19354TIP3   OH279552   0.737   3.816   1.487 -0.1090  0.3250  0.1110
19354TIP3    H179553   0.785   3.763   1.423  0.6828 -0.2163  1.1246
19354TIP3    H279554   0.761   3.907   1.466 -0.5383  0.2158 -0.8921
19355TIP3   OH279555   0.233   3.370  17.071  0.2925  0.1895 -0.3430
19355TIP3    H179556   0.239   3.277  17.049  0.2735  0.0089  0.3871
19355TIP3    H279557   0.197   3.411  16.993 -0.4948 -0.5366 -0.3788
19356TIP3   OH279558   1.881   2.881   3.725  0.4530 -0.1368 -0.2365
19356TIP3    H179559   1.849   2.969   3.705  1.9093  0.5023  0.1408
19356TIP3    H279560   1.874   2.834   3.643  0.6981  0.6628 -0.7244
19357TIP3   OH279561   3.593   2.164   5.714  0.3728  0.1626 -0.7063
19357TIP3    H179562   3.654   2.200   5.778  0.6923 -1.0797 -0.2888
19357TIP3    H279563   3.531   2.112   5.766  1.3857 -1.9235 -1.4576
19358TIP3   OH279564   6.764   4.000  14.251 -0.2753 -0.1702 -0.4309
19358TIP3    H179565   6.708   4.068  14.214 -1.1291  0.2898  1.5750
19358TIP3    H279566   6.710   3.956  14.317  1.2676 -0.6461  0.5987
19359TIP3   OH279567   1.128   6.368   4.510  0.0894 -0.5787 -0.2565
19359TIP3    H179568   1.130   6.459   4.539 -0.9166 -0.6336  0.0271
19359TIP3    H279569   1.055   6.365   4.448 -0.5390 -1.4060  0.5075
19360TIP3   OH279570   3.432   5.970   4.397  0.4361 -0.5810  0.0097
19360TIP3    H179571   3.387   6.054   4.398  1.0424 -0.1111 -2.9872
19360TIP3    H279572   3.451   5.951   4.489  1.6026  3.2585  0.7157
19361TIP3   OH279573   1.818   4.833   0.073  0.3752 -0.5103  0.1151
19361TIP3    H179574   1.740   4.780   0.056 -0.0691  0.4630 -1.0304
19361TIP3    H279575   1.790   4.923   0.058  1.7177 -0.1474 -0.3535
19362TIP3   OH279576   6.607   3.148   0.778 -0.0356  0.2068  0.3177
19362TIP3    H179577   6.666   3.073   0.791 -0.9793 -0.5112  0.5210
19362TIP3    H279578   6.544   3.142   0.849  0.4631  1.7914  0.9353
19363TIP3   OH279579   1.551   1.721  13.604  0.3024  0.0408  0.3679
19363TIP3    H179580   1.568   1.630  13.629  1.3508  0.0859 -0.0999
19363TIP3    H279581   1.546   1.769  13.687  1.0833 -0.2423  0.5914
19364TIP3   OH279582   5.851   1.506   5.680 -0.5510 -0.3050 -0.6147
19364TIP3    H179583   5.927   1.508   5.623 -0.5534  0.4555 -0.6028
19364TIP3    H279584   5.888   1.499   5.768 -0.1748  4.3274 -0.1621
19365TIP3   OH279585   1.603   5.034  15.303 -0.7478  0.4978 -0.0855
19365TIP3    H179586   1.517   5.031  15.344 -0.8924 -0.6735 -0.4188
19365TIP3    H279587   1.586   5.066  15.214 -0.8157  0.4731 -0.0818
19366TIP3   OH279588   0.557   3.538  11.588 -0.5385 -0.2425 -0.0607
19366TIP3    H179589   0.573   3.453  11.630  1.2264  0.4891  0.8479
19366TIP3    H279590   0.587   3.603  11.652 -3.1238  1.1863 -0.1510
19367TIP3   OH279591   2.773   3.310  11.405  0.3260  0.2269 -0.1191
19367TIP3    H179592   2.714   3.314  11.329 -0.4324  0.1839  0.4596
19367TIP3    H279593   2.832   3.237  11.385 -1.8948 -1.9389  0.7436
19368TIP3   OH279594   2.635   1.486  15.003 -0.0217 -0.0537  0.1049
19368TIP3    H179595   2.672   1.573  15.021 -1.1395  0.2887  0.8146
19368TIP3    H279596   2.618   1.449  15.090 -2.3659  0.2578 -0.1517
19369TIP3   OH279597   5.415   4.352   0.686  0.3045  0.0911 -0.0870
19369TIP3    H179598   5.323   4.363   0.711  0.9873  0.5031  2.6234
19369TIP3    H279599   5.439   4.436   0.647 -0.6280 -0.3021 -1.6005
19370TIP3   OH279600   6.370   5.468   3.057  0.0578  0.4025 -0.2213
19370TIP3    H179601   6.296   5.448   3.000 -1.5990  0.6092  1.7071
19370TIP3    H279602   6.445   5.478   2.999 -1.0887 -1.4682 -2.1138
19371TIP3   OH279603   5.483   4.468  12.843  0.1269 -0.0693 -0.3293
19371TIP3    H179604   5.579   4.466  12.842  0.1263 -2.5450 -0.9217
19371TIP3    H279605   5.459   4.449  12.934  0.1730  0.5581 -0.1797
19372TIP3   OH279606   4.607   4.684  15.373 -0.2914 -0.2428 -0.5180
19372TIP3    H179607   4.525   4.639  15.394 -0.3418  0.5059  1.0001
19372TIP3    H279608   4.672   4.645  15.432  0.2570 -0.1823 -1.0664
19373TIP3   OH279609   3.477   0.730  13.805  0.5307 -0.0470 -0.3369
19373TIP3    H179610   3.407   0.714  13.740 -0.8295  0.0118  1.0557
19373TIP3    H279611   3.491   0.645  13.846 -0.5953  0.4397  1.1554
19374TIP3   OH279612   4.097   5.086   5.563  0.2329 -0.0894  0.4768
19374TIP3    H179613   4.157   5.142   5.513 -0.6688 -0.3111 -0.9162
19374TIP3    H279614   4.011   5.102   5.524 -0.0800 -2.2991  0.1459
19375TIP3   OH279615   3.470   4.468   2.794 -0.6082  0.6935  0.1837
19375TIP3    H179616   3.401   4.402   2.784  0.7834 -0.7350 -0.3828
19375TIP3    H279617   3.444   4.537   2.733 -0.8025 -0.5023 -1.1583
19376TIP3   OH279618   6.500   0.958  11.233  0.3711  0.6953  0.4505
19376TIP3    H179619   6.476   1.039  11.188  3.2878  2.0241  0.9981
19376TIP3    H279620   6.528   0.987  11.320  1.5886 -0.8852  0.6362
19377TIP3   OH279621   4.062   4.508   3.461  0.0756  0.0676  0.6975
19377TIP3    H179622   4.014   4.431   3.491  0.7291  0.6881  3.6600
19377TIP3    H279623   3.995   4.574   3.445 -0.3746 -0.6279 -0.3929
19378TIP3   OH279624   0.465   3.418   3.852  0.3900  0.1573  0.3972
19378TIP3    H179625   0.524   3.437   3.925  1.7512  1.1837 -0.9205
19378TIP3    H279626   0.405   3.492   3.849  0.2095  0.0213  0.5692
19379TIP3   OH279627   5.270   1.288  14.105  0.2619 -0.4485  0.6587
19379TIP3    H179628   5.268   1.269  14.198 -0.8265 -0.7738  0.5842
19379TIP3    H279629   5.285   1.203  14.063 -0.5266 -0.5136  0.4930
19380TIP3   OH279630   5.307   5.090  10.134  0.4483 -0.1067  0.3163
19380TIP3    H179631   5.330   5.014  10.081 -0.2695 -0.1878  0.1084
19380TIP3    H279632   5.316   5.059  10.224  0.4175 -0.3573  0.2349
19381TIP3   OH279633   5.736   6.024  11.654 -0.1532  0.1057  0.0633
19381TIP3    H179634   5.643   6.032  11.632 -0.2139 -2.3538 -0.8463
19381TIP3    H279635   5.738   5.970  11.732  0.4932  1.2116  0.8351
19382TIP3   OH279636   5.840   3.066  15.680  0.2041 -0.0039  0.1482
19382TIP3    H179637   5.819   3.110  15.763  0.4575  0.3871  0.0067
19382TIP3    H279638   5.815   3.129  15.612  3.2515  1.1700 -0.0355
19383TIP3   OH279639   5.215   3.695   4.197  0.3553 -0.3732 -0.0950
19383TIP3    H179640   5.219   3.600   4.209  0.8328 -0.3619 -0.1340
19383TIP3    H279641   5.218   3.730   4.286  2.3083 -0.3384 -0.1367
19384TIP3   OH279642   1.954   2.457   4.533 -0.8508  0.2256  0.1694
19384TIP3    H179643   1.875   2.486   4.580 -0.2204  1.6283  0.4265
19384TIP3    H279644   2.004   2.407   4.597 -0.9657  0.3742  0.3749
19385TIP3   OH279645   4.742   1.662  16.546 -0.2966 -0.4623 -0.3888
19385TIP3    H179646   4.684   1.704  16.483 -0.6971 -1.1558 -0.4925
19385TIP3    H279647   4.732   1.712  16.627 -1.8231 -1.1709 -0.1052
19386TIP3   OH279648   2.090   0.194  15.644 -0.3110 -0.3223  0.3391
19386TIP3    H179649   2.008   0.148  15.665 -0.9727  0.5225 -0.3250
19386TIP3    H279650   2.102   0.255  15.717 -0.8275  0.2603 -0.0483
19387TIP3   OH279651   4.484   0.928  12.427  0.2554  0.1196 -0.6173
19387TIP3    H179652   4.454   0.855  12.374 -0.4702 -0.3889  0.4636
19387TIP3    H279653   4.410   0.989  12.428 -0.6911 -0.9336  1.6837
19388TIP3   OH279654   0.705   0.816  13.408 -0.4730 -0.0780 -0.1453
19388TIP3    H179655   0.671   0.743  13.356  0.0643 -0.1744 -0.3704
19388TIP3    H279656   0.780   0.848  13.358  0.4318 -0.5594  0.8494
19389TIP3   OH279657   1.150   3.528   4.461  0.1012 -0.1830 -0.1872
19389TIP3    H179658   1.119   3.592   4.525 -0.9933 -0.6939 -0.1878
19389TIP3    H279659   1.073   3.477   4.439  1.2100 -2.5708  1.0253
19390TIP3   OH279660   5.963   1.177  13.450 -0.0130 -0.8070  0.0399
19390TIP3    H179661   6.008   1.183  13.365 -0.1367 -0.1693  0.0122
19390TIP3    H279662   5.871   1.167  13.427 -0.2910  1.1911  0.0595
19391TIP3   OH279663   5.774   0.392  13.442 -0.2456 -0.0308 -0.2559
19391TIP3    H179664   5.695   0.443  13.458 -0.3121 -0.0789 -0.4234
19391TIP3    H279665   5.797   0.412  13.351  0.4363  0.6690  0.0609
19392TIP3   OH279666   0.587   5.399  15.087  0.4286  0.3471  0.1814
19392TIP3    H179667   0.549   5.349  15.159  0.6818 -1.9149 -1.1487
19392TIP3    H279668   0.512   5.426  15.035  0.2712  1.6533  1.0547
19393TIP3   OH279669   5.645   0.221   5.744  0.4621 -0.1765 -0.1499
19393TIP3    H179670   5.571   0.230   5.804 -0.2979  3.5380 -1.3999
19393TIP3    H279671   5.721   0.252   5.793  0.2219  0.8194 -0.3813
19394TIP3   OH279672   1.354   6.694  12.883 -0.0784 -0.3895  0.1951
19394TIP3    H179673   1.323   6.785  12.883 -1.2768 -0.6801  2.9794
19394TIP3    H279674   1.275   6.641  12.881  0.6323 -1.4815 -2.5083
19395TIP3   OH279675   0.000   4.965  16.904 -0.4940 -0.0477 -0.3050
19395TIP3    H179676   0.086   4.936  16.937 -1.1662  0.5811  2.2538
19395TIP3    H279677  -0.037   4.887  16.861  0.1065 -1.2816  1.3012
19396TIP3   OH279678   6.718   4.894   1.223  0.2324 -0.0383  0.2564
19396TIP3    H179679   6.747   4.898   1.314 -0.6995  0.1903  0.5542
19396TIP3    H279680   6.691   4.984   1.203  0.0422 -0.1772 -0.1065
19397TIP3   OH279681   4.495   3.847  13.717  0.0377  0.5836  0.0735
19397TIP3    H179682   4.412   3.879  13.753  1.0799  1.2517  2.0272
19397TIP3    H279683   4.476   3.759  13.686 -1.0500  0.0868  2.0067
19398TIP3   OH279684   5.706   6.666   2.464 -0.0830  0.4561  0.2382
19398TIP3    H179685   5.770   6.678   2.534  0.5310  0.0329 -0.2438
19398TIP3    H279686   5.719   6.741   2.406  1.6696 -0.8505 -1.1528
19399TIP3   OH279687   4.192   1.428  13.793 -0.3783 -0.0131 -0.3569
19399TIP3    H179688   4.222   1.339  13.809  1.2161  0.4805 -0.3434
19399TIP3    H279689   4.186   1.467  13.881  1.3173  0.5778 -0.4679
19400TIP3   OH279690   5.206   5.604  16.135  0.4124  0.6147  0.7415
19400TIP3    H179691   5.219   5.576  16.044  1.2559  1.9166  0.4364
19400TIP3    H279692   5.163   5.529  16.177  0.2405 -0.1065 -0.6584
19401TIP3   OH279693   6.475   6.769  15.393  0.6547  0.0112  0.0793
19401TIP3    H179694   6.426   6.761  15.474  0.4433  0.0732 -0.0399
19401TIP3    H279695   6.543   6.834  15.412  1.2122 -0.6806  0.4918
19402TIP3   OH279696   5.414   0.358   3.209 -0.1607  0.1292  0.5683
19402TIP3    H179697   5.377   0.387   3.292 -1.8137  0.9773 -0.4089
19402TIP3    H279698   5.424   0.439   3.158  0.3443 -0.4248 -0.2392
19403TIP3   OH279699   1.629   1.898   3.750  0.2173 -0.5318  0.4351
19403TIP3    H179700   1.581   1.827   3.707 -1.8343  1.3758 -0.6425
19403TIP3    H279701   1.685   1.934   3.681 -1.2374  0.9530 -0.0316
19404TIP3   OH279702   2.201   1.614  14.684 -0.2505  0.5426 -0.3110
19404TIP3    H179703   2.198   1.709  14.685 -1.3949  0.5379  0.7271
19404TIP3    H279704   2.141   1.588  14.754 -0.6457 -0.9557 -1.1556
19405TIP3   OH279705   1.594   5.632  11.132 -0.4833  0.3381 -0.6712
19405TIP3    H179706   1.616   5.541  11.112  2.3499  1.1697 -1.7185
19405TIP3    H279707   1.529   5.626  11.202  1.3793 -2.4758  0.9815
19406TIP3   OH279708   1.071   4.169   4.936  0.2505  0.3169 -0.1559
19406TIP3    H179709   1.019   4.156   4.857 -0.1795  3.1345 -0.4583
19406TIP3    H279710   1.117   4.252   4.920  1.5225  0.0564  1.8568
19407TIP3   OH279711   5.177   4.097   4.141  0.1143 -0.2857 -0.6901
19407TIP3    H179712   5.119   4.033   4.100 -2.9113  2.7622 -1.6139
19407TIP3    H279713   5.200   4.157   4.070  3.9146 -0.8889 -0.1542
19408TIP3   OH279714   5.713   4.063   1.634  0.4221 -0.6505 -0.2006
19408TIP3    H179715   5.701   4.044   1.541  0.1808  0.6736 -0.4546
19408TIP3    H279716   5.626   4.090   1.664  1.0275  1.4838 -0.2283
19409TIP3   OH279717   1.297   2.609  12.298 -0.0758  0.6282 -0.0940
19409TIP3    H179718   1.227   2.579  12.240 -0.8090  0.4684  0.8407
19409TIP3    H279719   1.377   2.577  12.257 -0.7044 -1.0975 -0.0836
19410TIP3   OH279720   6.840   2.243   2.844 -0.4846  0.2069  0.3076
19410TIP3    H179721   6.848   2.330   2.884 -0.1610  0.5709 -0.5315
19410TIP3    H279722   6.900   2.188   2.894  1.7302  1.1950 -1.1159
19411TIP3   OH279723   5.787   5.210  16.648  0.1845 -0.1096  0.3336
19411TIP3    H179724   5.786   5.306  16.646  0.3145 -0.1190 -0.3455
19411TIP3    H279725   5.803   5.184  16.558  1.1303 -0.7596  0.6645
19412TIP3   OH279726   0.688   6.493   0.616 -1.0063 -0.2875 -0.2556
19412TIP3    H179727   0.701   6.462   0.526 -0.1553  0.7269 -0.5035
19412TIP3    H279728   0.753   6.445   0.667 -2.4648 -1.9669  0.1100
19413TIP3   OH279729   3.463   3.784   0.034 -0.4486 -0.4532 -0.1651
19413TIP3    H179730   3.511   3.864   0.057  0.8646 -1.9171  2.7539
19413TIP3    H279731   3.523   3.735  -0.022 -0.1500 -0.5072  0.1941
19414TIP3   OH279732   6.422   5.675  15.704 -0.1219 -0.0261 -0.0623
19414TIP3    H179733   6.444   5.722  15.784  1.6490 -1.5246  0.3890
19414TIP3    H279734   6.360   5.608  15.732  1.0253 -0.9960  0.2278
19415TIP3   OH279735   1.360   0.031   3.344  0.2610  0.5776  0.3048
19415TIP3    H179736   1.299   0.067   3.408 -1.1899 -0.6786 -0.3197
19415TIP3    H279737   1.338   0.076   3.262 -0.4425 -0.5014 -0.1135
19416TIP3   OH279738   4.613   4.061  12.282  0.0716  0.4718 -0.5399
19416TIP3    H179739   4.674   4.089  12.214 -1.5436 -0.5806 -2.5569
19416TIP3    H279740   4.622   4.126  12.351  2.1265  1.3483 -1.5537
19417TIP3   OH279741   3.176   4.053  15.455 -0.6625 -0.3055 -0.0282
19417TIP3    H179742   3.167   4.027  15.546  0.1470 -0.1208  0.1153
19417TIP3    H279743   3.244   3.995  15.420 -1.0065 -0.4149 -0.5352
19418TIP3   OH279744   6.673   0.950   4.133 -0.0786 -0.7138 -0.1218
19418TIP3    H179745   6.655   1.043   4.126 -1.9800 -1.0836 -0.8200
19418TIP3    H279746   6.736   0.942   4.204  0.1268  1.0934 -0.0737
19419TIP3   OH279747   2.941   4.621   1.364  0.1289 -0.2889  0.0828
19419TIP3    H179748   3.017   4.569   1.336  0.2767 -0.2561  0.4155
19419TIP3    H279749   2.937   4.609   1.459 -0.6738 -0.8110 -0.0109
19420TIP3   OH279750   4.106   1.513  16.020 -0.2989  0.4274  0.6465
19420TIP3    H179751   4.020   1.537  16.055 -0.6180  1.5999 -0.8784
19420TIP3    H279752   4.169   1.545  16.085 -0.8573  2.9204  0.0334
19421TIP3   OH279753   3.693   0.463   4.713 -0.0657 -0.4458  0.0306
19421TIP3    H179754   3.785   0.459   4.741  0.0563  1.5066  0.0544
19421TIP3    H279755   3.659   0.542   4.754 -2.1178 -1.6975  0.9202
19422TIP3   OH279756   3.534   6.149  11.437  0.2501  0.2505 -0.3381
19422TIP3    H179757   3.450   6.194  11.434  0.9688  1.6541  0.0146
19422TIP3    H279758   3.554   6.139  11.530  1.0130  1.0076 -0.4015
19423TIP3   OH279759   5.690   1.714  15.071  0.5873  0.2435 -0.3024
19423TIP3    H179760   5.617   1.658  15.044  0.1473  1.2988 -1.3515
19423TIP3    H279761   5.755   1.652  15.105  0.1787 -0.9388 -1.5468
19424TIP3   OH279762   0.331   2.427   0.957 -0.1787  0.0711  0.1688
19424TIP3    H179763   0.409   2.453   1.005  0.0978 -0.3995 -0.0251
19424TIP3    H279764   0.348   2.338   0.928 -0.9330 -0.1639  0.4195
19425TIP3   OH279765   2.801   1.680   3.879  0.0170 -0.3754 -0.1598
19425TIP3    H179766   2.834   1.758   3.834  2.2951 -1.3374 -0.2594
19425TIP3    H279767   2.859   1.668   3.954 -0.5860 -1.7281  0.1270
19426TIP3   OH279768   4.408   6.077   1.711  0.2699  0.1110 -1.0430
19426TIP3    H179769   4.476   6.071   1.778  0.4807  0.9656 -1.1598
19426TIP3    H279770   4.339   6.018   1.740 -0.4438  1.7617  0.8842
19427TIP3   OH279771   3.294   0.925   4.413 -0.4605 -0.1929 -0.1262
19427TIP3    H179772   3.251   1.007   4.439  1.2435  0.4165  0.8733
19427TIP3    H279773   3.305   0.934   4.318  0.5307  1.1787  0.0856
19428TIP3   OH279774   2.507   4.403  11.150 -0.1839  0.4975  0.1036
19428TIP3    H179775   2.500   4.340  11.078 -0.9062  0.7797 -0.0755
19428TIP3    H279776   2.549   4.353  11.221 -0.8486 -0.2190  0.0018
19429TIP3   OH279777   2.237   4.092   4.099 -0.3834  0.2876  0.3695
19429TIP3    H179778   2.168   4.091   4.166 -1.2517 -1.1137 -0.4949
19429TIP3    H279779   2.217   4.017   4.043  1.4249  0.2911 -0.3509
19430TIP3   OH279780   6.760   5.955  16.366 -0.3555 -0.0857 -0.3093
19430TIP3    H179781   6.714   5.940  16.449  1.6965 -1.8493  0.6236
19430TIP3    H279782   6.839   5.901  16.373  1.1459  1.6837 -2.3862
19431TIP3   OH279783   4.451   2.387  13.449  0.3823  0.8022  0.2476
19431TIP3    H179784   4.414   2.382  13.360 -0.8760  0.3622  0.7685
19431TIP3    H279785   4.401   2.457  13.492  1.8477  1.8941  0.2492
19432TIP3   OH279786   6.677   4.334   5.041  0.2708  0.2169 -0.9136
19432TIP3    H179787   6.619   4.280   5.095 -0.8592  0.8440 -1.4830
19432TIP3    H279788   6.748   4.274   5.016 -1.0449 -1.0865 -1.6729
19433TIP3   OH279789   2.748   6.366   1.400 -0.1716 -0.2475  0.7896
19433TIP3    H179790   2.729   6.416   1.480 -0.8429  0.4127  0.2357
19433TIP3    H279791   2.750   6.432   1.330  1.7956 -0.6222  0.4363
19434TIP3   OH279792   5.449   5.697  15.644 -0.7150  0.0533  0.2137
19434TIP3    H179793   5.381   5.763  15.626 -1.9918 -0.8435  1.4862
19434TIP3    H279794   5.484   5.675  15.558 -2.4714  0.1546 -0.5838
19435TIP3   OH279795   5.587   0.750  16.182 -0.1631 -0.0703 -0.7259
19435TIP3    H179796   5.516   0.813  16.187  1.1882  1.5482 -1.0707
19435TIP3    H279797   5.575   0.708  16.097 -1.2546 -0.5546 -0.3591
19436TIP3   OH279798   6.441   3.419  11.096 -0.7600  0.0737  0.5847
19436TIP3    H179799   6.493   3.443  11.019 -0.5266  0.2287  0.7906
19436TIP3    H279800   6.505   3.387  11.160 -1.0842 -1.4007  0.2129
19437TIP3   OH279801   2.436   3.810  13.196  0.9886 -0.1986  0.3699
19437TIP3    H179802   2.389   3.848  13.270  2.1496 -0.6930  1.3853
19437TIP3    H279803   2.506   3.873  13.178  0.0532  0.4793 -1.0586
19438TIP3   OH279804   2.286   3.971   1.612 -0.0579  0.2951  0.1684
19438TIP3    H179805   2.253   3.885   1.639  0.4422 -0.2659 -0.9537
19438TIP3    H279806   2.375   3.954   1.581  0.2529  1.3219  0.4501
19439TIP3   OH279807   3.595   5.322  11.132 -0.3288 -0.3080  0.4786
19439TIP3    H179808   3.645   5.344  11.211 -0.4593 -1.2921  0.8413
19439TIP3    H279809   3.653   5.347  11.060 -0.1885  0.5591  0.8742
19440TIP3   OH279810   2.361   1.636  13.418  0.2688  0.0283 -0.0862
19440TIP3    H179811   2.455   1.624  13.433  0.0800 -1.6420 -0.1325
19440TIP3    H279812   2.336   1.565  13.359 -1.7109 -1.9284  2.8040
19441TIP3   OH279813   1.178   3.014   2.838 -0.4791 -0.5327 -0.2489
19441TIP3    H179814   1.135   3.083   2.788 -0.3524 -1.6265 -1.9316
19441TIP3    H279815   1.135   2.933   2.811 -0.8113 -1.1308  1.8941
19442TIP3   OH279816   5.114   1.996   2.846 -0.1755 -0.0365 -0.1068
19442TIP3    H179817   5.176   2.058   2.808  0.3415 -2.3130 -3.3379
19442TIP3    H279818   5.063   2.049   2.907  2.3514  2.7886 -0.1881
19443TIP3   OH279819   1.104   1.872   5.983 -0.1318 -0.2161  0.4736
19443TIP3    H179820   1.142   1.919   6.057  0.4064  0.5693 -0.2805
19443TIP3    H279821   1.070   1.941   5.925  0.7928 -0.7335 -0.7210
19444TIP3   OH279822   2.656   4.122  15.457  0.1155 -0.4005  0.1699
19444TIP3    H179823   2.740   4.079  15.474  0.3013  0.1095  0.5952
19444TIP3    H279824   2.681   4.208  15.423 -0.2357 -0.2089  0.3950
19445TIP3   OH279825   0.246   5.738  12.262 -0.1968 -0.4297  0.0685
19445TIP3    H179826   0.190   5.744  12.339  0.8035  2.3883  0.7352
19445TIP3    H279827   0.212   5.805  12.202 -0.4417 -1.9953 -1.6287
19446TIP3   OH279828   1.639   2.595   0.382  0.3956 -0.7393  0.4089
19446TIP3    H179829   1.685   2.655   0.441  0.8634 -0.3768 -0.3238
19446TIP3    H279830   1.623   2.517   0.436  1.0145 -0.5015  0.9516
19447TIP3   OH279831   6.787   5.779  15.057 -0.7150 -0.0404  0.1552
19447TIP3    H179832   6.732   5.702  15.042  1.0670 -1.5032  0.7675
19447TIP3    H279833   6.727   5.844  15.094 -2.2435 -1.1796 -0.1976
19448TIP3   OH279834   3.310   2.235  13.938  0.2552  0.5177  0.0709
19448TIP3    H179835   3.344   2.152  13.906  0.1530  1.1528 -1.8047
19448TIP3    H279836   3.333   2.236  14.031 -1.4383 -2.4174  0.6235
19449TIP3   OH279837   5.338   2.010   0.483 -0.0901 -0.2452 -0.2071
19449TIP3    H179838   5.346   2.082   0.421 -1.7184  0.3634  0.2580
19449TIP3    H279839   5.377   1.935   0.437  0.3553  0.5934 -1.2478
19450TIP3   OH279840   4.472   1.413   4.551  0.0810  0.0835 -0.5093
19450TIP3    H179841   4.385   1.393   4.587  0.7603 -1.5516  0.3141
19450TIP3    H279842   4.529   1.420   4.628  0.6928  1.2733 -1.0373
19451TIP3   OH279843   0.606   0.644  12.764 -0.0731  0.7864 -0.1029
19451TIP3    H179844   0.590   0.713  12.828  2.0079 -0.5229  1.9798
19451TIP3    H279845   0.645   0.689  12.689 -0.6308  2.1078  0.3789
19452TIP3   OH279846   2.244   1.514  13.022 -0.8974  0.1543 -0.0952
19452TIP3    H179847   2.216   1.475  13.105 -1.0906  3.6464  1.6607
19452TIP3    H279848   2.179   1.484  12.958 -1.5156 -1.5668  1.2608
19453TIP3   OH279849   4.214   4.918   3.670  0.5326  0.4886  0.2575
19453TIP3    H179850   4.156   4.994   3.675  0.1916  0.2853 -0.6185
19453TIP3    H279851   4.200   4.873   3.754  0.6853  1.3387  0.7589
19454TIP3   OH279852   3.211   0.071  15.441  0.3716 -0.0386 -0.2436
19454TIP3    H179853   3.145   0.117  15.494  0.1037 -0.9880  0.2816
19454TIP3    H279854   3.215  -0.016  15.480 -0.1958 -0.9395 -2.1204
19455TIP3   OH279855   4.064   2.400  12.588  0.5010  0.5116  0.5895
19455TIP3    H179856   4.122   2.475  12.595  0.2750  0.6996  0.4389
19455TIP3    H279857   4.123   2.325  12.578  0.7514  0.5486  1.7150
19456TIP3   OH279858   3.104   0.063   1.239 -0.1358 -0.0366 -0.0698
19456TIP3    H179859   3.075  -0.027   1.249 -0.2063 -0.0602 -0.4892
19456TIP3    H279860   3.193   0.056   1.205 -0.9157  0.0477 -2.2936
19457TIP3   OH279861   1.306   4.806  12.679  0.4128 -0.5124 -0.3151
19457TIP3    H179862   1.368   4.791  12.751  1.3793 -0.1882 -1.0519
19457TIP3    H279863   1.236   4.858  12.718  0.5677 -0.9265  0.5511
19458TIP3   OH279864   1.155   6.675  11.883  0.3036 -0.1750 -0.3807
19458TIP3    H179865   1.165   6.706  11.793  1.9569  0.1585 -0.1164
19458TIP3    H279866   1.065   6.696  11.906  0.0269  0.2533 -1.7633
19459TIP3   OH279867   2.182   2.725  13.410  0.3266 -0.7171  0.0438
19459TIP3    H179868   2.124   2.801  13.414  1.1764 -0.1089  1.2394
19459TIP3    H279869   2.123   2.650  13.414 -0.4622 -0.1254 -0.2095
19460TIP3   OH279870   0.642   6.642   2.217 -0.2755  0.2455  0.3185
19460TIP3    H179871   0.671   6.720   2.264 -1.7830 -0.0189  1.7982
19460TIP3    H279872   0.585   6.597   2.279 -0.1977 -1.5505 -0.8432
19461TIP3   OH279873   6.581   0.400   6.190  0.1182  0.0637  0.0431
19461TIP3    H179874   6.544   0.468   6.246  0.4097 -0.1296  0.4781
19461TIP3    H279875   6.523   0.325   6.202 -0.5515  0.4111 -0.8990
19462TIP3   OH279876   0.067   2.680   4.052  0.3365  0.3637  0.0503
19462TIP3    H179877   0.066   2.596   4.006 -0.1922  1.0886 -1.3184
19462TIP3    H279878   0.030   2.742   3.989  0.4775  1.5793  1.1293
19463TIP3   OH279879   0.734   0.745  15.155 -0.9388  0.1208  0.1271
19463TIP3    H179880   0.790   0.745  15.077 -0.8186  1.7662  0.1778
19463TIP3    H279881   0.767   0.673  15.208  1.3824  1.1904  0.2871
19464TIP3   OH279882   2.571   2.930   3.683 -0.5559 -0.1198 -0.2150
19464TIP3    H179883   2.510   2.934   3.608 -1.8155  1.2779  0.8153
19464TIP3    H279884   2.539   2.857   3.736 -1.3599  0.5969  0.3123
19465TIP3   OH279885   0.532   5.628   3.808 -0.5014 -0.4707  0.3865
19465TIP3    H179886   0.531   5.680   3.728 -0.3296 -0.5484  0.3339
19465TIP3    H279887   0.535   5.537   3.778 -1.8994 -0.5630  0.4597
19466TIP3   OH279888   2.597   3.751  13.927  0.4149 -0.1498 -0.5007
19466TIP3    H179889   2.621   3.812  13.996 -0.0852 -0.8299  0.2882
19466TIP3    H279890   2.533   3.692  13.967  0.4103 -0.8048 -1.4239
19467TIP3   OH279891   2.631   3.085  15.038  0.5928  0.2056  0.4345
19467TIP3    H179892   2.633   3.108  15.131  2.4312  1.4451  0.1407
19467TIP3    H279893   2.579   3.155  14.997  0.7999  0.3304  0.3819
19468TIP3   OH279894   0.631   4.247   1.955  0.2003 -0.2684 -0.1725
19468TIP3    H179895   0.703   4.203   1.908  0.0379  0.7551 -1.4167
19468TIP3    H279896   0.664   4.257   2.045  1.4807 -0.1211 -0.6391
19469TIP3   OH279897   1.006   1.711  17.019  0.0838 -0.1903  0.1912
19469TIP3    H179898   0.918   1.694  17.054 -0.0881  0.6290  0.1746
19469TIP3    H279899   1.027   1.633  16.969 -1.2308  0.1800 -0.9873
19470TIP3   OH279900   3.247   0.291   5.596 -0.2362  0.0358  0.1945
19470TIP3    H179901   3.179   0.233   5.632 -0.3658 -0.5459 -0.9525
19470TIP3    H279902   3.328   0.241   5.608 -0.5687 -1.3447 -2.6109
19471TIP3   OH279903   5.495   5.360   1.092 -0.5416 -0.3475  0.4900
19471TIP3    H179904   5.493   5.404   1.177 -1.7863 -1.3000  0.9997
19471TIP3    H279905   5.538   5.276   1.109 -1.3683 -0.8170  0.3553
19472TIP3   OH279906   1.507   6.338   3.451 -0.7821 -0.3039  0.0584
19472TIP3    H179907   1.427   6.365   3.496  0.0798 -0.0257  1.4837
19472TIP3    H279908   1.575   6.396   3.486 -0.0819  0.0366 -1.7459
19473TIP3   OH279909   4.755   6.643   6.290 -0.0566  0.4340 -0.2295
19473TIP3    H179910   4.661   6.635   6.309  0.2776  0.2401  1.5455
19473TIP3    H279911   4.782   6.555   6.266  0.2090 -0.2584  2.2585
19474TIP3   OH279912   4.395   0.129   0.676 -0.4226 -0.6433 -0.3680
19474TIP3    H179913   4.484   0.115   0.641 -0.7073 -0.3509 -1.2320
19474TIP3    H279914   4.371   0.045   0.714  1.0282 -0.1856  1.8029
19475TIP3   OH279915   1.794   5.930   3.111 -0.4037 -0.5376  0.1156
19475TIP3    H179916   1.889   5.932   3.118 -0.4099  0.0044  0.0975
19475TIP3    H279917   1.773   5.999   3.048 -0.8098 -0.6408  0.1334
19476TIP3   OH279918   3.224   4.953  14.183  0.0741 -0.5419  0.0527
19476TIP3    H179919   3.267   5.038  14.197  1.4054 -1.3046  0.6819
19476TIP3    H279920   3.168   4.968  14.106 -0.3584  1.1276  0.6289
19477TIP3   OH279921   6.613   3.834  15.992  1.0991 -0.7910 -0.6254
19477TIP3    H179922   6.603   3.872  16.079  2.4684  0.6856 -1.0604
19477TIP3    H279923   6.524   3.822  15.960  0.5696  1.7648 -0.2918
19478TIP3   OH279924   2.964   6.593   5.097  0.2799  0.2062 -0.4443
19478TIP3    H179925   2.913   6.556   5.025  0.8061 -0.2193 -0.6069
19478TIP3    H279926   2.908   6.662   5.133  1.2947  2.7598 -3.3254
19479TIP3   OH279927   5.245   5.591  14.643  0.1067  0.3416  0.0644
19479TIP3    H179928   5.275   5.541  14.719  0.2515  3.0539  1.8907
19479TIP3    H279929   5.326   5.623  14.603 -0.0246 -0.1111 -0.5818
19480TIP3   OH279930   4.312   5.870  12.395 -0.5257 -0.7418  0.4662
19480TIP3    H179931   4.295   5.833  12.482  0.7522 -2.0592  0.1868
19480TIP3    H279932   4.405   5.853  12.379 -0.6217 -0.0709 -0.9553
19481TIP3   OH279933   0.807   2.814   4.124  0.2900 -0.1618 -0.4968
19481TIP3    H179934   0.795   2.811   4.029 -0.4063  0.0614 -0.4212
19481TIP3    H279935   0.896   2.845   4.136  0.3166 -0.0058 -1.0807
19482TIP3   OH279936   2.046   4.915  16.185  0.7419  0.6708 -0.4178
19482TIP3    H179937   2.112   4.963  16.234 -0.8152  1.6200  0.8735
19482TIP3    H279938   1.974   4.902  16.247 -0.5023  0.1491 -1.8819
19483TIP3   OH279939   1.315   6.602  15.096 -0.3513  0.0541 -0.5414
19483TIP3    H179940   1.236   6.561  15.129 -0.6311  0.4104 -0.7567
19483TIP3    H279941   1.295   6.622  15.004  0.8498 -2.0679 -1.3413
19484TIP3   OH279942   1.392   2.209  11.456 -0.4884  0.1272 -0.0683
19484TIP3    H179943   1.486   2.230  11.449 -0.4172 -0.0920  0.1928
19484TIP3    H279944   1.390   2.120  11.491 -0.7957  0.0910 -0.1759
19485TIP3   OH279945   6.332   0.236  15.178  0.7724  0.2185 -0.1906
19485TIP3    H179946   6.311   0.178  15.106  1.9615 -1.3301  0.6517
19485TIP3    H279947   6.254   0.291  15.189 -0.4361 -1.2823 -0.9577
19486TIP3   OH279948   2.854   3.924  16.800 -0.2301 -0.3098 -0.7364
19486TIP3    H179949   2.856   3.970  16.885 -1.7511  1.3087 -1.5036
19486TIP3    H279950   2.762   3.903  16.787 -0.4511  1.7203 -3.0869
19487TIP3   OH279951   2.427   1.569  11.257  0.2801 -0.2628  0.0350
19487TIP3    H179952   2.486   1.638  11.226  1.3884 -1.5160 -0.7461
19487TIP3    H279953   2.342   1.592  11.220  0.3849  1.2329  0.6465
19488TIP3   OH279954   6.815   2.903  13.822  0.1048 -0.1026  0.7036
19488TIP3    H179955   6.832   2.904  13.728 -0.8246  1.7089  0.5166
19488TIP3    H279956   6.886   2.955  13.860 -0.6900  0.9835  0.7453
19489TIP3   OH279957   5.423   1.350  11.522  0.0180 -0.0710  1.0563
19489TIP3    H179958   5.416   1.268  11.473  1.3117  0.4965 -0.1198
19489TIP3    H279959   5.340   1.356  11.569 -0.6897 -1.3326  0.0378
19490TIP3   OH279960   1.010   2.519  17.008 -0.2117  0.5607 -1.0785
19490TIP3    H179961   1.013   2.570  17.089 -1.3135 -2.1183  0.7863
19490TIP3    H279962   0.976   2.434  17.034  3.5183 -2.0001 -3.5387
19491TIP3   OH279963   1.622   1.048  12.358 -0.1850  0.0727 -0.2967
19491TIP3    H179964   1.547   1.105  12.374  0.8641  1.2337  0.7216
19491TIP3    H279965   1.618   0.982  12.428 -0.8870 -0.5948 -0.9412
19492TIP3   OH279966   6.014   2.747  15.462 -0.3895 -0.0353  0.1921
19492TIP3    H179967   5.978   2.717  15.379 -0.2495  0.1798  0.0517
19492TIP3    H279968   6.013   2.670  15.518  0.1244 -0.3454 -0.2124
19493TIP3   OH279969   5.467   4.228  16.001  0.1748 -0.6870  0.0718
19493TIP3    H179970   5.481   4.310  16.049  0.2514 -1.5390  1.5632
19493TIP3    H279971   5.491   4.249  15.911  0.6874  0.7932  0.5165
19494TIP3   OH279972   0.993   3.464   5.474  0.2322  0.3031 -0.1585
19494TIP3    H179973   0.956   3.388   5.520  2.5904  0.6266  2.5190
19494TIP3    H279974   1.060   3.427   5.417 -2.3792 -0.0472 -3.2799
19495TIP3   OH279975   3.289   0.846  16.416  0.0497  0.0705 -0.1535
19495TIP3    H179976   3.240   0.833  16.335  1.6696  0.3047 -1.2094
19495TIP3    H279977   3.375   0.809  16.399  0.1175 -0.8345  1.8485
19496TIP3   OH279978   3.576   1.043  12.455 -0.4247 -0.1804  0.2297
19496TIP3    H179979   3.490   1.000  12.453 -0.5239  0.0267 -0.0532
19496TIP3    H279980   3.619   1.014  12.375 -0.7674  0.7916 -0.3297
19497TIP3   OH279981   2.371   1.508  14.149  0.3438 -0.1212 -0.5076
19497TIP3    H179982   2.290   1.518  14.100  0.5174  0.0067 -0.7734
19497TIP3    H279983   2.364   1.423  14.192 -0.1847  0.1516 -0.0525
19498TIP3   OH279984   6.296   1.548  11.181 -0.7063 -0.0946 -0.2205
19498TIP3    H179985   6.276   1.459  11.152 -0.3752 -0.2454  0.0087
19498TIP3    H279986   6.233   1.603  11.135 -0.9086 -0.4473 -0.3683
19499TIP3   OH279987   6.701   2.861   5.538 -0.0641 -0.0880  0.2719
19499TIP3    H179988   6.669   2.949   5.519  1.2123  0.5433  0.9363
19499TIP3    H279989   6.622   2.812   5.561 -1.0967  0.2534 -2.2112
19500TIP3   OH279990   0.386   6.354   1.488  0.2898  0.5899 -0.3861
19500TIP3    H179991   0.381   6.447   1.464  0.9056  0.7297  0.0221
19500TIP3    H279992   0.313   6.342   1.548 -0.1444  0.6669 -0.8844
19501TIP3   OH279993   0.147   3.524  15.608 -0.3579  0.5840  0.2766
19501TIP3    H179994   0.059   3.539  15.643 -0.5549 -0.4094  0.2474
19501TIP3    H279995   0.185   3.611  15.600 -1.4198  1.0423  0.0788
19502TIP3   OH279996   5.583   2.267   5.772 -0.3705 -0.1258  0.0666
19502TIP3    H179997   5.643   2.336   5.745 -1.0829  1.0424  1.3392
19502TIP3    H279998   5.637   2.205   5.819  0.3018 -0.5332 -1.1876
19503TIP3   OH279999   5.951   6.474   2.500 -0.2470  0.3480  0.0801
19503TIP3    H180000   5.986   6.563   2.498  0.3535  0.2059  1.9741
19503TIP3    H280001   5.893   6.473   2.576  0.0050 -0.9430  0.2879
19504TIP3   OH280002   6.045   2.895   1.694 -0.4783  0.3764 -0.0658
19504TIP3    H180003   5.991   2.817   1.704 -0.9044  0.6183 -0.4736
19504TIP3    H280004   6.131   2.869   1.728 -0.3442 -0.5700 -1.0729
19505TIP3   OH280005   3.750   0.584   3.499 -0.0770 -0.5196 -0.1802
19505TIP3    H180006   3.757   0.670   3.540 -0.4280 -0.3520 -0.4684
19505TIP3    H280007   3.836   0.544   3.513 -0.5069 -0.8819  1.6177
19506TIP3   OH280008   5.339   2.896  13.139 -0.1930 -0.0668  0.1137
19506TIP3    H180009   5.416   2.882  13.084  0.6163 -1.2457  1.4632
19506TIP3    H280010   5.362   2.970  13.195 -0.0049 -0.4393  0.5392
19507TIP3   OH280011   1.833   2.889   5.801 -0.2588  0.1565 -0.2089
19507TIP3    H180012   1.925   2.872   5.784 -0.5582 -2.0328  0.0775
19507TIP3    H280013   1.801   2.932   5.721  1.1103  1.5468 -0.0504
19508TIP3   OH280014   4.764   0.093  16.138 -0.0752  0.0620  0.0378
19508TIP3    H180015   4.693   0.077  16.075 -1.0609  0.4790  0.9942
19508TIP3    H280016   4.794   0.005  16.162  0.4071 -0.0969 -1.0946
19509TIP3   OH280017   3.634   0.740  12.914 -0.5698  0.1195 -0.4382
19509TIP3    H180018   3.591   0.728  12.999 -1.8458  1.2768 -0.8842
19509TIP3    H280019   3.679   0.824  12.921  2.2462 -1.3173  0.2207
19510TIP3   OH280020   6.569   5.314   3.266 -0.4569 -0.3916 -0.2236
19510TIP3    H180021   6.508   5.253   3.307 -0.1996 -1.0925 -0.8609
19510TIP3    H280022   6.514   5.372   3.213 -0.7051 -0.0235  0.4129
19511TIP3   OH280023   2.404   0.075  11.441 -0.2394  0.1056 -0.2300
19511TIP3    H180024   2.466   0.004  11.460  0.6503  0.2151 -2.4171
19511TIP3    H280025   2.454   0.136  11.387 -1.5324  1.5114  0.1159
19512TIP3   OH280026   3.508   1.793   6.439  0.8648 -0.0696 -0.0786
19512TIP3    H180027   3.580   1.851   6.462  1.3827 -0.8077  0.2118
19512TIP3    H280028   3.475   1.761   6.522  0.8442 -0.4992 -0.2504
19513TIP3   OH280029   1.591   4.465  14.888  0.0889 -0.0591  0.0649
19513TIP3    H180030   1.546   4.442  14.807  0.1576 -0.3765  0.1177
19513TIP3    H280031   1.539   4.424  14.958  0.6407 -0.7018  0.1028
19514TIP3   OH280032   3.027   0.557   0.292  0.0629  0.4705 -0.3450
19514TIP3    H180033   2.944   0.550   0.245 -0.7232  0.8415  0.9428
19514TIP3    H280034   3.076   0.625   0.245  0.0112 -0.3354 -1.6149
19515TIP3   OH280035   2.021   5.323   1.334  0.4113  0.0103  0.1929
19515TIP3    H180036   2.008   5.246   1.390  2.4784  0.0848  0.8688
19515TIP3    H280037   2.024   5.397   1.395  3.0987  0.0490  0.1668
19516TIP3   OH280038   6.185   0.539  11.224  0.4977  0.4230  0.7720
19516TIP3    H180039   6.158   0.607  11.162  1.3651 -0.8497 -1.0859
19516TIP3    H280040   6.137   0.461  11.198  1.8266 -0.4677  0.8528
19517TIP3   OH280041   6.231   5.282  11.330 -0.0090  0.3182  0.1788
19517TIP3    H180042   6.322   5.254  11.317 -0.5246 -0.4908 -1.9647
19517TIP3    H280043   6.194   5.216  11.388  0.9629  1.1606  1.8588
19518TIP3   OH280044   0.253   3.017  13.046  0.2370  0.2617  0.0674
19518TIP3    H180045   0.256   3.025  12.950  0.4418 -0.0566  0.0481
19518TIP3    H280046   0.166   2.982  13.064 -0.8841  2.9084  0.1855
19519TIP3   OH280047   4.877   6.373  12.596 -0.0576  0.0009  0.7715
19519TIP3    H180048   4.921   6.294  12.562 -0.5621  0.4101 -0.9352
19519TIP3    H280049   4.901   6.442  12.534 -0.5946  0.9258  1.5722
19520TIP3   OH280050   6.155   6.692   5.668 -0.2427 -0.4009  0.2146
19520TIP3    H180051   6.104   6.753   5.720 -0.0427 -0.3087  0.3045
19520TIP3    H280052   6.246   6.706   5.697  0.0742  0.7198 -1.1955
19521TIP3   OH280053   5.529   1.210   2.458 -0.3026 -0.1531 -0.8323
19521TIP3    H180054   5.439   1.190   2.483 -0.4061  0.4530 -0.6837
19521TIP3    H280055   5.541   1.168   2.373  0.1054 -2.4090  0.2606
19522TIP3   OH280056   3.909   1.960  16.567  0.3497  0.2553 -0.4701
19522TIP3    H180057   3.953   1.953  16.652 -1.0276 -1.4597  0.1639
19522TIP3    H280058   3.833   2.016  16.584  0.2605  0.1929 -0.6564
19523TIP3   OH280059   5.340   3.956  12.522 -0.6672 -0.0462 -0.0359
19523TIP3    H180060   5.306   3.936  12.434 -1.8267 -0.0852  0.4015
19523TIP3    H280061   5.427   3.993  12.506 -1.6524  1.8490 -1.3411
19524TIP3   OH280062   1.462   3.998  16.151  0.4757 -0.1505  0.2203
19524TIP3    H180063   1.490   4.084  16.182 -1.6114  0.4382  0.6800
19524TIP3    H280064   1.456   3.945  16.231  1.6730 -0.7321 -0.0518
19525TIP3   OH280065   1.712   3.769  16.141  0.3858 -0.0778 -0.1399
19525TIP3    H180066   1.620   3.780  16.117  0.1388 -1.3842  0.1356
19525TIP3    H280067   1.737   3.853  16.179 -0.6784  0.3102 -0.2674
19526TIP3   OH280068   1.611   3.296  13.822 -0.2410 -0.6046 -0.1010
19526TIP3    H180069   1.679   3.360  13.842  0.8319 -1.1409 -1.8238
19526TIP3    H280070   1.549   3.303  13.895  0.0497  2.0725  0.0030
19527TIP3   OH280071   2.680   5.562   0.465 -0.6384 -0.0753  0.4181
19527TIP3    H180072   2.586   5.579   0.470 -1.7007 -4.4789  0.3290
19527TIP3    H280073   2.709   5.606   0.385 -2.3185  2.2606  1.0128
19528TIP3   OH280074   2.247   6.803   5.998 -0.0032 -0.0226 -0.5645
19528TIP3    H180075   2.152   6.814   5.996 -0.3632 -2.6890 -0.5799
19528TIP3    H280076   2.268   6.788   6.091  0.4741  0.8667 -0.5134
19529TIP3   OH280077   4.732   2.265  15.048  0.3967  0.5115  0.2021
19529TIP3    H180078   4.720   2.170  15.047 -0.7740  0.6324  0.8684
19529TIP3    H280079   4.703   2.291  15.136  0.8058  1.4753  0.0575
19530TIP3   OH280080   1.674   1.407  14.789  0.0246 -0.0202 -0.0574
19530TIP3    H180081   1.687   1.473  14.721 -1.8972 -0.2893 -0.7363
19530TIP3    H280082   1.615   1.449  14.852  1.5407  0.1180  1.3411
19531TIP3   OH280083   0.019   2.632  12.333 -0.1002  0.3666  0.3833
19531TIP3    H180084   0.073   2.620  12.411 -1.6619  0.3529  1.5085
19531TIP3    H280085   0.035   2.554  12.280 -1.5537 -1.3734  2.3193
19532TIP3   OH280086   5.201   3.470   2.072  0.7399 -0.0377  0.6520
19532TIP3    H180087   5.287   3.474   2.029  0.1713  2.3583 -0.4809
19532TIP3    H280088   5.162   3.556   2.054 -1.9010 -1.0468  1.1364
19533TIP3   OH280089   4.064   0.799   2.521  0.2677  0.3585  0.0970
19533TIP3    H180090   4.134   0.756   2.570  0.8929 -0.3015 -1.3014
19533TIP3    H280091   4.087   0.892   2.522 -0.0821  0.4586  1.5502
19534TIP3   OH280092   1.141   0.616  13.978 -0.3033  0.1626 -0.4374
19534TIP3    H180093   1.175   0.569  13.902  0.1097 -0.8550  0.3457
19534TIP3    H280094   1.047   0.598  13.977 -0.0451 -1.4158  0.2991
19535TIP3   OH280095   4.930   1.315   2.542  0.3419 -0.8411 -0.0315
19535TIP3    H180096   5.012   1.307   2.591  0.1055 -0.7747  0.3798
19535TIP3    H280097   4.957   1.346   2.456  0.8818 -2.0694 -0.3319
19536TIP3   OH280098   3.359   3.113  14.012  0.1813  0.3474  0.1162
19536TIP3    H180099   3.310   3.120  13.930 -0.3452  0.2791  0.4199
19536TIP3    H280100   3.450   3.099  13.985 -0.3295 -2.2234 -0.4585
19537TIP3   OH280101   0.358   2.191  16.801 -0.1759  0.7969 -0.7071
19537TIP3    H180102   0.439   2.217  16.845 -1.3771  0.2546  2.0181
19537TIP3    H280103   0.314   2.273  16.779  0.5035  1.0810 -1.0292
19538TIP3   OH280104   1.998   4.569   1.870 -0.4028 -0.3976 -0.3103
19538TIP3    H180105   1.931   4.628   1.904 -0.9632 -1.1108 -0.1348
19538TIP3    H280106   2.007   4.502   1.938 -0.0267 -0.6912 -0.6471
19539TIP3   OH280107   5.052   1.923   1.967 -0.1192  0.5976 -0.3737
19539TIP3    H180108   5.006   1.966   1.894 -0.3069  3.2663  1.1619
19539TIP3    H280109   5.145   1.934   1.946 -0.1142 -1.4957 -1.6822
19540TIP3   OH280110   6.411   4.071   2.994  0.0588 -0.2707  0.1420
19540TIP3    H180111   6.432   4.160   2.967  0.7332 -0.5102 -0.1323
19540TIP3    H280112   6.473   4.053   3.065  1.4593 -1.3181 -1.2896
19541TIP3   OH280113   5.101   1.629  14.810  0.6687  0.1838  0.2962
19541TIP3    H180114   5.066   1.681  14.738 -0.6769  0.0531  0.8319
19541TIP3    H280115   5.101   1.539  14.777  0.0718  0.1266  0.4413
19542TIP3   OH280116   6.668   4.341  16.822 -0.4147 -0.0193 -0.4601
19542TIP3    H180117   6.617   4.298  16.891 -1.1373 -0.0377 -0.9948
19542TIP3    H280118   6.602   4.384  16.767  0.2534  1.4435 -0.1742
19543TIP3   OH280119   1.084   5.861  12.084  0.1011 -0.1837  0.2454
19543TIP3    H180120   1.150   5.928  12.068  0.1353 -0.1643  0.4651
19543TIP3    H280121   1.101   5.794  12.017 -0.5935  0.5113 -0.6617
19544TIP3   OH280122   6.440   2.756  11.339  0.2959 -0.3007  0.0993
19544TIP3    H180123   6.387   2.836  11.329 -0.0960 -0.5561  0.1097
19544TIP3    H280124   6.478   2.741  11.253 -2.1614 -1.8678 -0.8223
19545TIP3   OH280125   0.801   1.789  12.798 -0.3248  0.4133  0.5418
19545TIP3    H180126   0.881   1.738  12.791  0.4021  1.5654  0.3050
19545TIP3    H280127   0.737   1.739  12.747  0.3133 -0.3444  0.4586
19546TIP3   OH280128   2.465   4.052  11.109 -0.0660 -0.3863 -0.2409
19546TIP3    H180129   2.384   4.024  11.152  1.9771 -1.0851  3.6101
19546TIP3    H280130   2.527   3.981  11.126  2.9007  2.4556  2.2269
19547TIP3   OH280131   1.411   6.624   3.298  0.5437 -0.1137 -0.5261
19547TIP3    H180132   1.343   6.571   3.341  0.5831  0.7842  0.6984
19547TIP3    H280133   1.386   6.714   3.317  2.2330  0.2349  0.2289
19548TIP3   OH280134   6.702   4.018   5.462  0.4981 -0.5657 -0.1093
19548TIP3    H180135   6.655   4.027   5.379 -1.4074  3.1079  1.1392
19548TIP3    H280136   6.635   3.986   5.524  1.2679 -1.0493  0.4878
19549TIP3   OH280137   6.117   3.757  14.829  0.6921 -0.0019  0.5066
19549TIP3    H180138   6.057   3.692  14.793  2.0340 -1.8803  1.4687
19549TIP3    H280139   6.073   3.841  14.816 -1.4240 -1.1481 -0.1610
19550TIP3   OH280140   6.494   0.798   0.376  0.4326  0.3297  0.1273
19550TIP3    H180141   6.419   0.740   0.388  0.3260  0.2891 -0.7023
19550TIP3    H280142   6.501   0.809   0.281  1.1231  0.7944  0.2272
19551TIP3   OH280143   5.284   3.921   2.740 -0.2771 -0.5068  0.5026
19551TIP3    H180144   5.326   3.847   2.695 -0.6680  0.0841 -0.8986
19551TIP3    H280145   5.193   3.920   2.709 -1.2727 -1.5129  3.1604
19552TIP3   OH280146   3.909   1.007   6.098  0.6087 -0.6034  0.3102
19552TIP3    H180147   3.920   1.083   6.041 -0.8078  0.4952  1.4233
19552TIP3    H280148   3.816   0.984   6.089  0.2314 -0.1289  2.4287
19553TIP3   OH280149   0.363   1.647  11.631  0.1564  0.4200  0.3824
19553TIP3    H180150   0.360   1.708  11.558  1.1617 -0.1264 -0.1368
19553TIP3    H280151   0.391   1.700  11.705 -1.3730  1.0914  0.5275
19554TIP3   OH280152   2.543   6.285   4.877 -0.2978 -0.2208  0.3114
19554TIP3    H180153   2.548   6.286   4.781  2.6159 -0.6624  0.3620
19554TIP3    H280154   2.527   6.376   4.901 -1.2877 -0.1358 -0.5773
19555TIP3   OH280155   0.756   3.019  16.118 -0.4961 -0.1364 -0.0547
19555TIP3    H180156   0.663   3.020  16.139 -0.1711 -2.2954  1.8275
19555TIP3    H280157   0.769   2.938  16.069  0.4899 -0.2483  0.3666
19556TIP3   OH280158   2.871   2.966  13.711 -0.8237  0.1917  0.3868
19556TIP3    H180159   2.801   3.019  13.749 -1.7736 -0.7694  0.0113
19556TIP3    H280160   2.832   2.926  13.634  0.1387 -0.3889  0.1872
19557TIP3   OH280161   4.232   0.841  14.755 -0.1526 -0.2350 -0.0195
19557TIP3    H180162   4.273   0.928  14.753 -0.8082  0.0648 -1.8454
19557TIP3    H280163   4.246   0.806  14.667 -5.8536  0.8956 -1.7644
19558TIP3   OH280164   0.828   5.092   0.445  0.0380  0.0389  0.2474
19558TIP3    H180165   0.810   5.026   0.377  0.5435 -2.1129  2.0593
19558TIP3    H280166   0.784   5.171   0.414 -0.9939 -1.2569 -1.8674
19559TIP3   OH280167   3.724   4.506   4.303 -0.3113 -0.4213  0.7292
19559TIP3    H180168   3.642   4.463   4.278 -0.5140  0.4025 -0.0609
19559TIP3    H280169   3.769   4.520   4.220  0.2027 -0.0145  1.0765
19560TIP3   OH280170   1.142   2.339  12.279  0.3571  0.3165 -0.1513
19560TIP3    H180171   1.148   2.369  12.369 -1.5448 -2.2312  0.9593
19560TIP3    H280172   1.192   2.257  12.278 -0.4591 -0.1999 -1.1180
19561TIP3   OH280173   5.004   0.423  16.762 -0.1165  0.3077  0.6579
19561TIP3    H180174   5.024   0.492  16.824 -0.3364  1.9466 -1.0145
19561TIP3    H280175   4.930   0.457  16.711 -0.1808 -1.1304 -0.2813
19562TIP3   OH280176   4.298   4.306  14.306  0.2495 -0.5224 -0.1461
19562TIP3    H180177   4.285   4.345  14.392  0.4445  1.1154 -0.8181
19562TIP3    H280178   4.392   4.286  14.302  0.3205 -0.1928 -0.1350
19563TIP3   OH280179   2.669   3.867  13.018  0.4242 -0.2872 -0.0056
19563TIP3    H180180   2.621   3.784  13.017 -3.4526  1.7122 -0.2437
19563TIP3    H280181   2.709   3.872  12.931  0.8121 -1.9134  0.0469
19564TIP3   OH280182   1.259   6.676   1.335 -0.1405  0.3176  0.2830
19564TIP3    H180183   1.198   6.715   1.398 -1.3776 -0.2354 -0.5254
19564TIP3    H280184   1.215   6.596   1.306  1.8508 -1.1645  1.0999
19565TIP3   OH280185   6.846   0.930  15.297 -0.0707  0.5004 -0.0953
19565TIP3    H180186   6.835   0.867  15.368  0.3176 -0.8609 -1.2067
19565TIP3    H280187   6.940   0.948  15.295  0.1947 -0.8899 -1.4169
19566TIP3   OH280188   4.514   0.932  16.277  0.1234 -0.0708  0.0492
19566TIP3    H180189   4.479   0.850  16.240  0.1260  1.3580 -3.5818
19566TIP3    H280190   4.603   0.936  16.242  0.0694  1.5200  0.0629
19567TIP3   OH280191   0.293   5.441   3.659 -0.0042  0.0292 -0.7032
19567TIP3    H180192   0.243   5.457   3.739 -0.2168 -0.6146 -0.6980
19567TIP3    H280193   0.368   5.388   3.689  1.0323  1.4799 -0.6090
19568TIP3   OH280194   4.999   4.344  12.462 -0.1077 -0.5121  0.8392
19568TIP3    H180195   4.976   4.428  12.501 -1.9094  0.1389 -1.4049
19568TIP3    H280196   4.918   4.294  12.463 -0.0697 -0.7265 -1.2685
19569TIP3   OH280197   1.089   4.888   2.880  0.6089 -0.2696  0.2902
19569TIP3    H180198   1.065   4.970   2.923 -0.3870  0.1669 -1.0222
19569TIP3    H280199   1.183   4.880   2.895  0.3720  0.0738  2.1235
19570TIP3   OH280200   3.834   5.891  11.325 -0.0638 -0.7210 -0.3762
19570TIP3    H180201   3.878   5.861  11.246 -0.5836 -0.5192 -0.7531
19570TIP3    H280202   3.902   5.895  11.391  0.8343  1.2135 -1.3577
19571TIP3   OH280203   5.751   3.010   0.139 -0.1282  0.4116  0.2393
19571TIP3    H180204   5.691   2.952   0.185 -1.4837  0.5623 -1.2550
19571TIP3    H280205   5.835   2.999   0.185 -1.0353 -0.5434  1.7607
19572TIP3   OH280206   5.056   5.966  15.027  0.6466  0.2730 -0.3878
19572TIP3    H180207   5.106   6.044  15.051  0.3994  0.2484  0.2221
19572TIP3    H280208   5.108   5.926  14.957  0.2044  1.5822 -1.5286
19573TIP3   OH280209   6.154   1.211  12.976  0.4037  0.3125 -0.2200
19573TIP3    H180210   6.199   1.160  13.044 -0.0243 -1.6844 -1.3494
19573TIP3    H280211   6.182   1.301  12.991 -0.4788  0.1645  3.2481
19574TIP3   OH280212   3.216   0.252  15.003 -0.3465 -0.2759  0.2141
19574TIP3    H180213   3.221   0.179  15.065 -1.0582 -0.6274 -0.1294
19574TIP3    H280214   3.279   0.316  15.036  0.9232 -1.3964  0.0378
19575TIP3   OH280215   1.345   1.855  12.225  0.5700 -0.1632 -0.0895
19575TIP3    H180216   1.267   1.811  12.259  0.4304  1.3326  1.6759
19575TIP3    H280217   1.411   1.840  12.291  1.2524  0.1670 -0.6849
19576TIP3   OH280218   6.594   5.749  14.728  0.5061  0.0517  0.9040
19576TIP3    H180219   6.499   5.747  14.739  0.2869 -1.7297 -0.7092
19576TIP3    H280220   6.628   5.699  14.802  0.4036  2.3651  2.6155
19577TIP3   OH280221   6.163   5.065   2.768  0.0862 -0.6014  0.5933
19577TIP3    H180222   6.119   5.149   2.766 -1.0470 -1.1688  0.7567
19577TIP3    H280223   6.092   5.001   2.778  0.9111 -1.5768  0.3779
19578TIP3   OH280224   6.154   3.390   0.376 -0.2769  0.1032  0.5456
19578TIP3    H180225   6.079   3.426   0.424  1.1712  1.5706  1.7834
19578TIP3    H280226   6.132   3.403   0.284 -0.4248  2.9690  0.9245
19579TIP3   OH280227   3.586   0.939   4.951 -0.3648  0.0768 -0.2421
19579TIP3    H180228   3.514   0.963   5.010  0.5059  0.1135  0.8361
19579TIP3    H280229   3.543   0.907   4.872 -1.5619  0.9954  0.0152
19580TIP3   OH280230   1.398   1.071   5.807 -0.0276  0.0856 -0.2833
19580TIP3    H180231   1.382   1.159   5.841 -3.0102 -0.3838 -0.2576
19580TIP3    H280232   1.379   1.012   5.881  1.2110 -0.6556 -0.5149
19581TIP3   OH280233   5.075   5.992  12.354  0.3950 -0.3829 -0.0896
19581TIP3    H180234   5.013   5.919  12.349  0.3921 -0.3744 -0.1769
19581TIP3    H280235   5.139   5.964  12.420 -0.0909 -0.0890  0.5156
19582TIP3   OH280236   2.008   0.029   4.147 -0.0206 -0.1256 -0.2036
19582TIP3    H180237   2.044  -0.001   4.064 -1.6251  0.4231 -1.1361
19582TIP3    H280238   1.913   0.032   4.134 -0.2325  1.1996  1.2156
19583TIP3   OH280239   4.782   2.124  14.759 -0.8067  0.0285 -0.3680
19583TIP3    H180240   4.779   2.199  14.700  0.0090 -0.1973 -0.7094
19583TIP3    H280241   4.773   2.048  14.701 -2.0238 -0.1427  0.0106
19584TIP3   OH280242   1.279   6.658   4.967 -1.1179  0.1543  0.2539
19584TIP3    H180243   1.249   6.569   4.949 -2.2574  0.7418 -0.8554
19584TIP3    H280244   1.273   6.703   4.883  2.4272  0.4846  0.0337
19585TIP3   OH280245   3.408   0.446  15.103 -0.4357 -0.0352  0.3253
19585TIP3    H180246   3.479   0.508  15.121 -0.1110 -0.6748  1.3491
19585TIP3    H280247   3.357   0.443  15.184 -0.6835 -0.7786  0.1499
19586TIP3   OH280248   5.754   5.459  11.790 -0.2060 -0.5511  0.2091
19586TIP3    H180249   5.798   5.503  11.717  2.3758  0.3451  2.1441
19586TIP3    H280250   5.661   5.476  11.776  0.1024 -0.9689 -3.1455
19587TIP3   OH280251   5.095   1.641   4.996 -0.5114  0.5470  0.0097
19587TIP3    H180252   5.032   1.570   4.989 -1.4952  1.4468 -0.5090
19587TIP3    H280253   5.064   1.694   5.070  1.6727 -0.9328  2.1270
19588TIP3   OH280254   1.342   2.437  11.237  0.1242 -0.5151  0.0617
19588TIP3    H180255   1.302   2.487  11.167  2.3355  1.1175 -0.1542
19588TIP3    H280256   1.385   2.363  11.193  2.4919  1.1350 -0.5713
19589TIP3   OH280257   4.597   1.553  15.190  0.1227  0.8246 -0.0275
19589TIP3    H180258   4.648   1.480  15.225 -0.8361  0.3645  0.4529
19589TIP3    H280259   4.524   1.512  15.144  0.4081  1.4660 -1.0739
19590TIP3   OH280260   1.659   6.643  15.790 -0.3260  0.1648  0.1199
19590TIP3    H180261   1.636   6.581  15.859  0.1244 -1.2370 -0.9244
19590TIP3    H280262   1.575   6.664  15.748 -0.4403 -0.0629  0.2312
19591TIP3   OH280263   0.988   5.867   0.400  0.2686 -0.0256  0.1240
19591TIP3    H180264   1.062   5.823   0.442  0.3240  1.0825  1.2615
19591TIP3    H280265   0.927   5.797   0.380  1.3037 -0.8693 -0.1530
19592TIP3   OH280266   4.797   3.234   3.229  0.9997 -0.4123 -0.3554
19592TIP3    H180267   4.872   3.260   3.282 -0.6574  0.0474  1.8930
19592TIP3    H280268   4.726   3.290   3.259 -0.9231 -2.6714 -0.4384
19593TIP3   OH280269   3.322   3.149   0.303  0.2693  0.3795  0.4865
19593TIP3    H180270   3.327   3.056   0.279 -1.1180  0.1958  0.7902
19593TIP3    H280271   3.347   3.151   0.396 -0.0761  0.2446  0.5850
19594TIP3   OH280272   2.116   5.847  12.193  0.8455  0.2348 -0.3221
19594TIP3    H180273   2.110   5.936  12.158  4.5585  0.6357 -0.3799
19594TIP3    H280274   2.130   5.860  12.287 -0.4598 -0.4234 -0.0188
19595TIP3   OH280275   4.626   3.760  11.609  0.2894 -0.0423  0.2327
19595TIP3    H180276   4.704   3.813  11.625 -0.6238  1.2751  0.5265
19595TIP3    H280277   4.595   3.789  11.523 -0.1719 -0.1472  0.3594
19596TIP3   OH280278   5.074   3.380   4.490  0.0926 -0.2894  0.3362
19596TIP3    H180279   5.090   3.474   4.500  1.5491 -0.6962  2.5468
19596TIP3    H280280   4.989   3.366   4.530 -1.3132  0.3669 -2.1931
19597TIP3   OH280281   5.087   2.413  16.838 -0.2768 -0.2516  0.7005
19597TIP3    H180282   5.039   2.334  16.812  0.9029 -1.1210  1.0651
19597TIP3    H280283   5.124   2.447  16.756 -0.2333 -0.4659  0.6306
19598TIP3   OH280284   4.261   4.108   5.932 -0.3716 -0.0725  0.2626
19598TIP3    H180285   4.301   4.057   5.861  0.1417 -1.3366  1.4271
19598TIP3    H280286   4.261   4.198   5.899  3.7121  0.1077  0.2517
19599TIP3   OH280287   0.089   2.420   3.283  0.3191 -0.3275  0.0190
19599TIP3    H180288   0.161   2.464   3.329  0.0468 -0.6512  0.7639
19599TIP3    H280289   0.121   2.331   3.267  0.6903 -0.0199 -1.0800
19600TIP3   OH280290   3.715   0.239  12.838 -0.2453  0.1573 -0.3275
19600TIP3    H180291   3.633   0.229  12.887 -0.4156 -0.0974 -0.6495
19600TIP3    H280292   3.690   0.221  12.747  0.4275 -1.3074 -0.2507
19601TIP3   OH280293   1.245   4.894  14.655 -0.2591  0.5813  0.0061
19601TIP3    H180294   1.329   4.914  14.696  0.8612 -1.2666 -1.2215
19601TIP3    H280295   1.251   4.801  14.631 -1.4553  1.1067 -2.8124
19602TIP3   OH280296   3.033   5.446   2.108  0.5569 -0.5541  0.1330
19602TIP3    H180297   3.068   5.481   2.190 -0.4684 -2.0006  1.2337
19602TIP3    H280298   3.107   5.448   2.048  1.6462 -0.5150  1.4280
19603TIP3   OH280299   6.041   1.908   1.352 -0.1202  0.1687 -0.5613
19603TIP3    H180300   6.103   1.918   1.424 -1.8970  0.5700  0.9968
19603TIP3    H280301   6.048   1.816   1.327 -1.0433 -0.5939  1.7094
19604TIP3   OH280302   1.547   2.750   5.782  0.3957  0.1418 -0.3929
19604TIP3    H180303   1.627   2.700   5.764  0.6511  0.8248 -1.2605
19604TIP3    H280304   1.509   2.766   5.695 -0.6581 -0.1268  0.0047
19605TIP3   OH280305   6.472   6.464  16.339  0.3520  0.0607 -0.4548
19605TIP3    H180306   6.512   6.377  16.337  2.0658  0.7606  1.1172
19605TIP3    H280307   6.488   6.500  16.251  0.2581 -0.8964 -0.8825
19606TIP3   OH280308   0.540   1.171  12.478 -0.8893  0.1253  0.3310
19606TIP3    H180309   0.622   1.195  12.435 -2.1998 -0.1985 -2.6483
19606TIP3    H280310   0.474   1.175  12.408 -3.2290 -0.6943  2.3257
19607TIP3   OH280311   0.820   1.675  15.654  0.3805 -0.4132 -0.1487
19607TIP3    H180312   0.793   1.752  15.704  0.8996 -0.3300  0.0055
19607TIP3    H280313   0.898   1.704  15.607 -0.2982 -0.3727 -1.2964
19608TIP3   OH280314   1.688   5.516   0.941  0.2388  0.2597  0.7687
19608TIP3    H180315   1.622   5.447   0.944  1.0476 -0.6015 -0.2426
19608TIP3    H280316   1.755   5.488   1.003  1.6745 -1.1331 -1.2508
19609TIP3   OH280317   6.029   4.984   3.921  0.0904 -0.4241 -0.6566
19609TIP3    H180318   6.089   4.941   3.982 -1.3741 -0.2090  0.9875
19609TIP3    H280319   5.976   4.913   3.885  0.8161 -0.5249 -1.5687
19610TIP3   OH280320   5.680   5.240  15.168 -0.1653  0.2015  0.5011
19610TIP3    H180321   5.703   5.183  15.241 -0.8589  1.7173  1.9482
19610TIP3    H280322   5.597   5.205  15.135 -0.1244 -0.1693  0.7881
19611TIP3   OH280323   2.298   4.523   4.796 -0.6800 -0.7790 -0.0652
19611TIP3    H180324   2.363   4.500   4.729 -1.1258 -1.0331 -0.4192
19611TIP3    H280325   2.345   4.517   4.879  0.1999  0.6332 -0.4149
19612TIP3   OH280326   6.313   4.571   0.811 -0.9049  0.3471 -0.6866
19612TIP3    H180327   6.375   4.499   0.808 -0.9879  0.2993 -1.6024
19612TIP3    H280328   6.320   4.612   0.725 -1.9541  0.4946 -0.7122
19613TIP3   OH280329   2.890   5.761  13.407 -0.1673 -0.1555  0.1268
19613TIP3    H180330   2.953   5.807  13.351 -1.5551  2.0013  0.2460
19613TIP3    H280331   2.809   5.759  13.356  0.0002 -3.2610 -0.1983
19614TIP3   OH280332   3.972   5.210   4.949  0.5279 -0.0577 -0.3913
19614TIP3    H180333   3.948   5.195   5.040  0.4575  0.1108 -0.3819
19614TIP3    H280334   3.966   5.123   4.908  2.3559 -0.4839  0.1647
19615TIP3   OH280335   3.665   2.190   3.661  0.0326 -0.0576 -0.3135
19615TIP3    H180336   3.704   2.271   3.629  3.2438 -0.9272  0.9849
19615TIP3    H280337   3.729   2.122   3.637 -1.2954 -1.8152  0.8879
19616TIP3   OH280338   6.806   6.182   1.191 -0.1587  0.4242 -0.1804
19616TIP3    H180339   6.748   6.218   1.259 -0.5565 -1.6279  0.6360
19616TIP3    H280340   6.796   6.087   1.199  0.0389  0.1087 -2.9376
19617TIP3   OH280341   1.613   6.377  12.322 -0.4710  0.5565 -0.3112
19617TIP3    H180342   1.618   6.441  12.393 -1.9734 -0.5696  0.8682
19617TIP3    H280343   1.564   6.421  12.253  1.0188  1.6689 -0.7242
19618TIP3   OH280344   3.478   4.049  13.294 -0.0849 -0.4706 -0.3931
19618TIP3    H180345   3.388   4.020  13.304 -0.5265  1.2437  1.1791
19618TIP3    H280346   3.478   4.099  13.211 -1.0451  0.9520  0.4199
19619TIP3   OH280347   4.530   3.040   1.733 -0.0544  0.1347  0.0708
19619TIP3    H180348   4.493   3.029   1.821 -2.4156  2.5409 -0.5157
19619TIP3    H280349   4.625   3.044   1.748 -0.2710 -1.1046  2.2646
19620TIP3   OH280350   4.549   1.927  12.608  0.2278  0.1874  0.3075
19620TIP3    H180351   4.631   1.894  12.571 -0.3908 -1.3753  0.2372
19620TIP3    H280352   4.546   1.890  12.696 -0.2275  0.5406  0.4445
19621TIP3   OH280353   3.332   4.627   4.878 -0.0069  0.1203 -0.2290
19621TIP3    H180354   3.421   4.594   4.870  0.1861  0.7018 -0.5579
19621TIP3    H280355   3.330   4.674   4.961 -0.1907 -0.4392  0.0850
19622TIP3   OH280356   1.509   3.461   0.717  0.6278  0.6210  0.9296
19622TIP3    H180357   1.473   3.375   0.739  1.7332  0.1030  0.7918
19622TIP3    H280358   1.572   3.443   0.647  0.3564  1.6506  0.3919
19623TIP3   OH280359   3.289   2.329   5.681  0.5396 -0.6666  0.4690
19623TIP3    H180360   3.355   2.332   5.751 -0.4402 -2.0526  1.5093
19623TIP3    H280361   3.265   2.237   5.675  0.3001 -0.5099 -1.4492
19624TIP3   OH280362   4.644   5.785   3.408 -0.6513  0.0621 -0.6054
19624TIP3    H180363   4.645   5.869   3.364 -0.3410  0.0191 -0.6807
19624TIP3    H280364   4.630   5.806   3.500 -0.4576  0.2000 -0.6090
19625TIP3   OH280365   0.658   3.463  13.511 -0.0063  0.1118  0.0159
19625TIP3    H180366   0.598   3.403  13.554  0.7869 -0.3399  0.5118
19625TIP3    H280367   0.621   3.475  13.424 -1.0383  0.1777  0.4448
19626TIP3   OH280368   0.308   0.777  14.123  0.1368 -0.0528  0.3464
19626TIP3    H180369   0.266   0.720  14.058  1.0037  0.2991 -0.5452
19626TIP3    H280370   0.241   0.841  14.146 -0.0197  0.1321 -0.5979
19627TIP3   OH280371   4.405   0.476   1.794  0.2604 -0.1640 -0.5283
19627TIP3    H180372   4.383   0.432   1.712  0.0887 -0.7140 -0.1909
19627TIP3    H280373   4.399   0.570   1.774 -0.0811 -0.2971 -1.0580
19628TIP3   OH280374   0.549   5.289  15.582  0.0284 -0.0403  0.7514
19628TIP3    H180375   0.580   5.378  15.564  0.1816 -0.2243  0.0563
19628TIP3    H280376   0.541   5.284  15.677 -0.3241  0.8308  0.7720
19629TIP3   OH280377   2.378   1.887   3.965 -0.1970 -0.3697 -0.3252
19629TIP3    H180378   2.340   1.928   3.887  2.2634  0.6035 -1.1185
19629TIP3    H280379   2.366   1.953   4.034  0.1100 -0.0287 -0.5914
19630TIP3   OH280380   2.698   3.852  11.666  0.0601  0.0391 -0.0722
19630TIP3    H180381   2.673   3.944  11.669  0.8393  0.3945 -2.4303
19630TIP3    H280382   2.791   3.852  11.688  0.6025  0.1569 -2.1058
19631TIP3   OH280383   4.980   5.245  15.928  0.9031  0.0399 -0.2901
19631TIP3    H180384   4.974   5.333  15.892  2.2717  0.0910 -0.4089
19631TIP3    H280385   4.961   5.187  15.854  0.7457  0.2075 -0.3821
19632TIP3   OH280386   3.228   1.002  15.960 -0.3245  0.3853 -0.1563
19632TIP3    H180387   3.171   0.952  16.018 -0.5714  0.4306 -0.3573
19632TIP3    H280388   3.309   1.012  16.009  0.2412 -1.4154 -0.6502
19633TIP3   OH280389   2.303   3.884   0.314  0.4061  0.2608  0.4257
19633TIP3    H180390   2.289   3.900   0.408 -0.4075 -0.2520  0.4082
19633TIP3    H280391   2.372   3.944   0.289  1.1033 -0.0669  1.5086
19634TIP3   OH280392   0.519   1.133   4.304 -0.1245  0.1983 -0.0428
19634TIP3    H180393   0.529   1.161   4.395  0.5762 -0.1050 -0.0209
19634TIP3    H280394   0.459   1.197   4.266  1.2632  1.6115  0.0640
19635TIP3   OH280395   0.920   5.018  16.669 -0.2239 -0.4394 -0.2761
19635TIP3    H180396   0.882   5.082  16.609 -1.8793 -1.5525 -0.4839
19635TIP3    H280397   0.848   4.996  16.729  0.3052 -2.0975 -0.2207
19636TIP3   OH280398   0.986   4.586  14.560 -0.6656  0.0784  0.2407
19636TIP3    H180399   1.023   4.510  14.514  2.1167 -1.2480  4.0900
19636TIP3    H280400   1.021   4.662  14.513 -0.1157 -1.0968 -1.3184
19637TIP3   OH280401   2.051   6.504  15.904 -0.0172 -0.0302  0.4992
19637TIP3    H180402   2.034   6.503  15.810  0.9259 -1.3049  0.3189
19637TIP3    H280403   1.967   6.527  15.943 -0.3362  0.8533 -0.6609
19638TIP3   OH280404   1.102   6.614  12.749  0.1505  0.2147  0.0494
19638TIP3    H180405   1.028   6.556  12.762 -0.3924  0.9222  0.1878
19638TIP3    H280406   1.074   6.698  12.786  0.7224  0.7130 -0.6089
19639TIP3   OH280407   2.160   5.051   3.300  0.1433 -0.4065 -0.7166
19639TIP3    H180408   2.243   5.010   3.278 -0.3824 -1.6148 -0.5452
19639TIP3    H280409   2.102   5.029   3.227 -0.3541 -0.6083 -0.2752
19640TIP3   OH280410   5.041   4.288   1.495 -0.1312 -0.2872 -0.5070
19640TIP3    H180411   4.972   4.255   1.553  1.7337 -0.3804  1.8379
19640TIP3    H280412   5.024   4.382   1.489  0.3266 -0.0452  1.3172
19641TIP3   OH280413   2.427   2.602  13.827  0.0594  0.1108 -0.1526
19641TIP3    H180414   2.360   2.630  13.889  0.0840  0.0294 -0.0893
19641TIP3    H280415   2.407   2.651  13.747  1.5657  2.1695  0.6510
19642TIP3   OH280416   3.281   4.770  13.789 -0.1802  0.1394  0.0526
19642TIP3    H180417   3.317   4.853  13.758  1.1609 -1.0668 -1.8005
19642TIP3    H280418   3.320   4.758  13.875  0.2149  1.0617  0.0155
19643TIP3   OH280419   1.541   2.712   3.410 -0.1234  0.0221  0.7110
19643TIP3    H180420   1.448   2.696   3.425 -0.1158 -1.4485 -0.5518
19643TIP3    H280421   1.544   2.803   3.381 -0.9492  0.5920  2.2981
19644TIP3   OH280422   6.479   3.395  12.107  0.3100  0.5121 -0.0342
19644TIP3    H180423   6.531   3.410  12.186  2.5910  0.7236 -1.4903
19644TIP3    H280424   6.415   3.466  12.106 -0.7279 -0.2753  2.2879
19645TIP3   OH280425   4.915   3.291   2.163 -0.8662  0.0197 -0.0206
19645TIP3    H180426   4.995   3.290   2.216 -0.0019 -1.0989 -1.2509
19645TIP3    H280427   4.899   3.383   2.145  0.3790  0.2487 -0.0568
19646TIP3   OH280428   2.636   0.406  16.695 -0.0093 -0.0814  0.0186
19646TIP3    H180429   2.706   0.342  16.679  0.6844  0.9908 -1.3898
19646TIP3    H280430   2.592   0.372  16.773  1.9032 -0.9317  0.8205
19647TIP3   OH280431   1.747   4.344  11.143 -0.0810 -0.6440 -0.1323
19647TIP3    H180432   1.746   4.249  11.157  0.4542 -0.4327  1.5642
19647TIP3    H280433   1.835   4.371  11.168 -0.5193  0.4078  0.3281
19648TIP3   OH280434   4.444   6.407  13.986  0.1830 -0.2086  0.1428
19648TIP3    H180435   4.387   6.384  13.913  1.4835 -1.1173 -0.6149
19648TIP3    H280436   4.411   6.355  14.059 -0.9233  0.4681  0.1523
19649TIP3   OH280437   3.313   5.217  16.427 -0.1361  0.2885  0.3483
19649TIP3    H180438   3.263   5.194  16.349  0.5900  2.0836 -0.7002
19649TIP3    H280439   3.311   5.138  16.481 -0.0479 -1.2796 -1.8071
19650TIP3   OH280440   2.096   6.846  12.397  0.1250  0.2002  0.6821
19650TIP3    H180441   2.054   6.826  12.314  0.3128 -2.5240  1.1609
19650TIP3    H280442   2.182   6.880  12.373 -0.1504  0.2876 -0.2147
19651TIP3   OH280443   0.048   1.866   0.408 -0.1573 -0.5817 -0.1613
19651TIP3    H180444   0.092   1.896   0.329 -2.0982  0.2120 -1.0278
19651TIP3    H280445   0.022   1.776   0.390 -1.1500 -0.2030 -0.7330
19652TIP3   OH280446   5.878   4.068  16.133  0.5467 -0.3853  0.6702
19652TIP3    H180447   5.834   4.019  16.203  0.5384  1.5374  2.0966
19652TIP3    H280448   5.968   4.077  16.164  0.5163  0.5795  0.4961
19653TIP3   OH280449   4.084   1.873   3.725  0.1425 -0.1424 -0.2743
19653TIP3    H180450   4.090   1.822   3.644 -1.4718 -1.8203  0.5864
19653TIP3    H280451   3.990   1.881   3.741  0.3752  2.3367  0.1551
19654TIP3   OH280452   6.511   1.197   5.540  0.0651 -0.5699 -0.1523
19654TIP3    H180453   6.464   1.124   5.581  0.8138 -0.1816  1.4859
19654TIP3    H280454   6.445   1.242   5.488 -0.4905 -2.2066 -0.9486
19655TIP3   OH280455   2.281   1.731  12.763  0.5144  0.0114 -0.3004
19655TIP3    H180456   2.332   1.756  12.840  2.1300  0.4863 -1.4648
19655TIP3    H280457   2.270   1.813  12.715 -0.6235 -0.2525 -0.5203
19656TIP3   OH280458   3.919   5.828   2.363  0.1481 -0.1907  0.2674
19656TIP3    H180459   3.970   5.847   2.441  1.1798  0.8117 -0.6125
19656TIP3    H280460   3.982   5.829   2.292 -1.0525  0.9380 -0.8441
19657TIP3   OH280461   2.451   2.025   1.278 -0.1773 -0.5030  0.6115
19657TIP3    H180462   2.454   2.021   1.183  0.6428  0.4633  0.5882
19657TIP3    H280463   2.360   2.045   1.299 -0.0260  0.9788 -0.0488
19658TIP3   OH280464   1.779   6.352  16.275  0.0441 -0.9044 -0.1120
19658TIP3    H180465   1.738   6.267  16.287  1.0348 -1.1102  2.2647
19658TIP3    H280466   1.873   6.333  16.272  0.4660  0.2287  2.9251
19659TIP3   OH280467   4.984   3.422  15.807  0.4117  0.4401  0.1845
19659TIP3    H180468   4.912   3.375  15.765  0.3726  0.8138 -0.1709
19659TIP3    H280469   4.981   3.393  15.899  1.0585 -1.0583 -0.2451
19660TIP3   OH280470   3.869   3.229   4.308  0.1073  0.2723  0.1562
19660TIP3    H180471   3.837   3.141   4.293 -0.2855  0.7257 -1.9193
19660TIP3    H280472   3.964   3.222   4.298  0.0783  0.0833  0.0191
19661TIP3   OH280473   3.696   4.297   3.289 -0.5142 -0.8410 -0.0551
19661TIP3    H180474   3.738   4.213   3.306 -0.7884 -1.0088 -0.1871
19661TIP3    H280475   3.676   4.296   3.195 -2.1978 -1.4278  0.2735
19662TIP3   OH280476   2.299   2.626  14.702 -0.0885  0.0733  0.4323
19662TIP3    H180477   2.207   2.643  14.683  0.3465  3.5236  0.8132
19662TIP3    H280478   2.323   2.554  14.644 -2.6918 -0.1027 -0.5450
19663TIP3   OH280479   6.071   0.804  16.080  0.1680 -0.0133  0.0354
19663TIP3    H180480   6.003   0.743  16.051 -0.7238  0.0084  1.9261
19663TIP3    H280481   6.137   0.802  16.010 -0.3163 -2.3626 -0.4405
19664TIP3   OH280482   1.368   2.960  15.472  0.6283 -0.3194 -0.2974
19664TIP3    H180483   1.300   2.959  15.539 -0.8329  1.2204 -1.6553
19664TIP3    H280484   1.393   3.053  15.465  1.7642 -0.6493 -0.9087
19665TIP3   OH280485   6.142   1.512  14.661 -0.1092  0.4355 -0.1861
19665TIP3    H180486   6.170   1.602  14.640 -0.7189  0.7007  0.1136
19665TIP3    H280487   6.219   1.458  14.642  0.0811  0.9482 -0.9336
19666TIP3   OH280488   3.550   3.595  11.528 -0.1398 -0.6159 -0.1037
19666TIP3    H180489   3.520   3.635  11.447  1.2342  0.7136  0.0049
19666TIP3    H280490   3.644   3.581  11.514  0.6533  1.8132  2.0509
19667TIP3   OH280491   6.252   3.555  12.122  0.6925 -0.5594  0.1063
19667TIP3    H180492   6.171   3.606  12.121 -0.1046 -1.6848  1.9148
19667TIP3    H280493   6.292   3.572  12.036 -0.5779  1.3654 -0.1762
19668TIP3   OH280494   1.031   0.321  11.143  0.4510 -0.0181 -0.0715
19668TIP3    H180495   0.963   0.305  11.078  0.6122 -1.2103  0.0347
19668TIP3    H280496   1.019   0.252  11.208  0.3676  1.0725  1.1183
19669TIP3   OH280497   2.390   5.536   0.496  0.4064 -0.0844  0.3240
19669TIP3    H180498   2.342   5.619   0.489 -1.9814 -1.3578  0.5804
19669TIP3    H280499   2.392   5.519   0.590  2.0105  0.2506  0.3766
19670TIP3   OH280500   2.602   1.264   4.064  0.1213 -0.0638 -0.0228
19670TIP3    H180501   2.588   1.337   4.123  2.0542  0.2984  0.0568
19670TIP3    H280502   2.685   1.284   4.019  0.6847 -2.1371 -0.0524
19671TIP3   OH280503   6.474   1.665  13.450 -0.3418  0.0021 -0.3293
19671TIP3    H180504   6.390   1.619  13.444  0.5295 -1.5775 -1.0121
19671TIP3    H280505   6.533   1.613  13.396  0.9418  1.4359 -0.3587
19672TIP3   OH280506   5.336   5.818   4.878  0.9067  0.3414  0.1772
19672TIP3    H180507   5.303   5.735   4.842 -1.7809  1.4988 -0.2665
19672TIP3    H280508   5.348   5.801   4.971  1.7107 -0.8887 -0.1243
19673TIP3   OH280509   2.805   1.772   2.028 -0.0176 -0.0322  0.6867
19673TIP3    H180510   2.795   1.866   2.042 -1.2564  0.1070 -0.7736
19673TIP3    H280511   2.715   1.740   2.020  0.4113 -1.0191 -0.5776
19674TIP3   OH280512   1.824   5.298  11.939  0.2323 -0.2873 -0.0901
19674TIP3    H180513   1.870   5.223  11.902 -2.0128 -1.5895 -0.4480
19674TIP3    H280514   1.815   5.278  12.032 -0.4573 -0.5438 -0.2039
19675TIP3   OH280515   2.810   1.689   0.592 -0.1554  0.4061 -0.4888
19675TIP3    H180516   2.814   1.758   0.526  1.2076  0.3072 -0.5392
19675TIP3    H280517   2.885   1.706   0.649 -0.5411 -0.2947  0.2488
19676TIP3   OH280518   4.644   4.155   3.469  0.2670  0.1734  0.0117
19676TIP3    H180519   4.730   4.170   3.508 -0.1495  2.1799  0.3018
19676TIP3    H280520   4.606   4.243   3.461 -2.3377 -0.7266  1.2143
19677TIP3   OH280521   1.809   4.083   3.507  0.2722  0.0914  0.4313
19677TIP3    H180522   1.828   4.009   3.565  0.4470  0.2153  0.5323
19677TIP3    H280523   1.815   4.160   3.564  1.5980  0.3155  0.0006
19678TIP3   OH280524   3.284   6.273   4.783  0.1629  0.2732  0.2761
19678TIP3    H180525   3.192   6.290   4.761  0.4171  0.5033 -0.6316
19678TIP3    H280526   3.314   6.213   4.714  1.1075  1.3808 -0.3162
19679TIP3   OH280527   5.002   5.241  15.456  0.1219 -0.1251 -0.5255
19679TIP3    H180528   4.920   5.195  15.438 -0.7708  2.0256 -2.5336
19679TIP3    H280529   4.978   5.309  15.519  0.7454 -0.4913  0.1161
19680TIP3   OH280530   3.920   1.194   1.604 -0.4270  0.0458  0.5338
19680TIP3    H180531   3.839   1.243   1.614 -0.7627 -0.5082  0.5316
19680TIP3    H280532   3.967   1.208   1.687  0.9679  2.9980 -0.5800
19681TIP3   OH280533   6.743   5.466  14.009 -0.7171  0.4741  0.1423
19681TIP3    H180534   6.720   5.417  13.930 -0.9681 -0.7662  0.9442
19681TIP3    H280535   6.659   5.488  14.049 -0.6011  1.4362 -0.1117
19682TIP3   OH280536   5.237   0.092   3.714 -0.0050 -0.0532  0.4311
19682TIP3    H180537   5.160   0.136   3.751 -0.1994  0.2093 -0.2666
19682TIP3    H280538   5.292   0.073   3.790 -0.4581  0.3472  0.8723
19683TIP3   OH280539   5.931   4.315   1.555  0.3770  0.0174  0.4410
19683TIP3    H180540   5.939   4.235   1.504  1.0143 -0.3181  1.0630
19683TIP3    H280541   5.860   4.363   1.513  0.8161 -0.3059 -0.6833
19684TIP3   OH280542   6.230   6.068   0.718 -0.1605 -0.1713  0.1962
19684TIP3    H180543   6.249   5.977   0.695  1.3376  0.6659 -2.2313
19684TIP3    H280544   6.135   6.074   0.717 -0.2616 -1.3242 -1.4394
19685TIP3   OH280545   0.995   5.137   4.606  0.5280 -0.2459 -0.3034
19685TIP3    H180546   0.912   5.090   4.617 -0.4094  1.5161  0.4327
19685TIP3    H280547   1.021   5.161   4.695  1.7341 -0.5790 -0.5483
19686TIP3   OH280548   3.108   4.188  13.378 -0.4027  0.0154  0.0973
19686TIP3    H180549   3.027   4.162  13.421 -0.1898 -1.2521 -0.2336
19686TIP3    H280550   3.089   4.274  13.342 -0.9468  0.6150  1.7259
19687TIP3   OH280551   6.097   4.715   5.779  0.0393  0.0287  0.4608
19687TIP3    H180552   6.067   4.761   5.701 -1.0668 -2.4151 -0.6423
19687TIP3    H280553   6.018   4.674   5.815  0.5362  1.0311  2.8630
19688TIP3   OH280554   4.532   6.043  14.324  0.6931  0.2017 -0.3353
19688TIP3    H180555   4.555   5.970  14.267 -1.4457  0.6827 -1.9451
19688TIP3    H280556   4.449   6.016  14.364  0.6401  1.1352  0.2075
19689TIP3   OH280557   6.604   0.962  11.719  0.7463 -0.3503 -0.5423
19689TIP3    H180558   6.659   1.021  11.771  0.0283  0.7352 -0.9810
19689TIP3    H280559   6.665   0.919  11.659  1.2017  0.3755 -0.6075
19690TIP3   OH280560   2.395   1.286  10.209 -0.5872  0.6993 -0.1996
19690TIP3    H180561   2.305   1.286  10.240 -1.7603  1.0903 -3.2441
19690TIP3    H280562   2.394   1.228  10.133  1.7926  0.6019 -0.2426
19691TIP3   OH280563   2.618   0.800   0.511 -0.2232 -0.7965  0.0357
19691TIP3    H180564   2.540   0.752   0.483 -0.0437 -0.8295 -0.4015
19691TIP3    H280565   2.584   0.877   0.557 -0.5172 -0.5579 -0.5738
19692TIP3   OH280566   4.135   3.185  13.400  0.0030  0.3510 -0.0006
19692TIP3    H180567   4.095   3.225  13.478 -1.9363 -2.7481  0.7654
19692TIP3    H280568   4.150   3.094  13.425  2.4775  0.0155 -2.2254
19693TIP3   OH280569   4.340   2.131  13.862 -0.1532 -0.4603 -0.3944
19693TIP3    H180570   4.263   2.180  13.889 -0.9001 -1.7160 -0.1521
19693TIP3    H280571   4.395   2.128  13.940 -0.3011 -0.3662 -0.2866
19694TIP3   OH280572   5.376   0.864   2.346 -0.1965 -0.0250  0.6820
19694TIP3    H180573   5.360   0.914   2.426 -1.4249  0.2724  0.2741
19694TIP3    H280574   5.311   0.794   2.348  0.9240 -1.1016  0.7991
19695TIP3   OH280575   2.510   4.847  10.453 -0.4612 -0.5588 -0.0510
19695TIP3    H180576   2.540   4.822  10.366 -0.0844  1.2705 -0.4925
19695TIP3    H280577   2.497   4.942  10.447 -0.4250 -0.4023  1.8937
19696TIP3   OH280578   6.478   4.319  15.710  0.2845 -0.0979  0.2301
19696TIP3    H180579   6.531   4.242  15.694  2.2749  0.8799  1.6933
19696TIP3    H280580   6.525   4.367  15.779 -1.1011  2.1775 -0.2959
19697TIP3   OH280581   5.601   0.134  11.327  0.0612 -0.2837 -0.2692
19697TIP3    H180582   5.581   0.088  11.246  1.0377  1.2677 -1.4440
19697TIP3    H280583   5.519   0.130  11.377 -1.0731  0.0543 -2.0012
19698TIP3   OH280584   2.232   5.328  16.967 -0.1862  0.2373  0.7358
19698TIP3    H180585   2.229   5.324  16.871  0.4368  0.7389  0.6848
19698TIP3    H280586   2.212   5.239  16.995  0.8459 -0.2203  0.0956
19699TIP3   OH280587   4.591   5.728  10.869  0.5978 -0.3522  0.4526
19699TIP3    H180588   4.680   5.738  10.835  0.0622  0.1463 -0.8583
19699TIP3    H280589   4.573   5.811  10.913  1.1259 -0.8293  1.6139
19700TIP3   OH280590   6.128   3.486   3.800  0.2714  0.0990  0.2080
19700TIP3    H180591   6.080   3.430   3.860  0.4292  0.9108  1.1198
19700TIP3    H280592   6.106   3.575   3.827  0.8244  0.4839 -0.5529
19701TIP3   OH280593   1.356   4.866   2.955 -0.2963  0.2336 -0.1932
19701TIP3    H180594   1.371   4.910   3.038 -0.9413 -0.5065  0.3342
19701TIP3    H280595   1.394   4.924   2.889  1.0015  0.4087  0.6864
19702TIP3   OH280596   5.612   5.708   1.880  0.1876 -0.2794 -0.1772
19702TIP3    H180597   5.682   5.736   1.822 -0.9969  0.0154 -1.5209
19702TIP3    H280598   5.551   5.660   1.823 -1.6159  1.0264  0.5318
19703TIP3   OH280599   4.700   5.033   4.693 -0.3664  0.0023 -0.0788
19703TIP3    H180600   4.689   5.125   4.671 -0.6319  0.5647  2.2025
19703TIP3    H280601   4.658   4.986   4.621  1.9965  1.5162 -2.6315
19704TIP3   OH280602   0.374   6.342   2.559  0.1576  0.3644 -0.1101
19704TIP3    H180603   0.317   6.406   2.602  1.4039  2.0226 -0.7757
19704TIP3    H280604   0.316   6.272   2.531 -1.3686  1.4733  0.1774
19705TIP3   OH280605   0.741   4.746  12.347 -0.2484  0.1994  0.3347
19705TIP3    H180606   0.645   4.741  12.353 -0.2068  0.4498  1.3682
19705TIP3    H280607   0.757   4.784  12.260 -1.0843  0.1408  0.1421
19706TIP3   OH280608   1.003   2.363   2.390  0.5143 -0.2909  0.7675
19706TIP3    H180609   1.044   2.307   2.456  0.4869 -0.3593  0.7277
19706TIP3    H280610   0.991   2.305   2.314  1.5315  0.0705  0.3238
19707TIP3   OH280611   2.644   0.674  11.105 -0.1272 -0.2350  0.3559
19707TIP3    H180612   2.703   0.602  11.129  2.1215  1.0565 -0.8940
19707TIP3    H280613   2.683   0.710  11.026 -2.6870  0.7229 -0.5541
19708TIP3   OH280614   1.366   1.656  12.849 -0.1976  0.1800 -0.2546
19708TIP3    H180615   1.412   1.674  12.767 -1.5629  0.4659 -0.9939
19708TIP3    H280616   1.430   1.675  12.918  0.9182  0.0973 -1.2432
19709TIP3   OH280617   2.978   0.123   5.465 -0.7915  0.5684 -0.1752
19709TIP3    H180618   3.009   0.032   5.462  0.3762  0.9696 -0.8971
19709TIP3    H280619   2.976   0.145   5.558  0.8437  0.4248 -0.0877
19710TIP3   OH280620   6.442   0.421  13.814 -0.2123 -0.4044 -0.2016
19710TIP3    H180621   6.486   0.338  13.832  3.3220  1.7808  2.7283
19710TIP3    H280622   6.431   0.461  13.900 -2.3368  1.9739 -1.4464
19711TIP3   OH280623   3.741   3.528   3.954 -0.4064 -0.4961  0.0132
19711TIP3    H180624   3.780   3.445   3.982  0.3362  0.4978  2.1236
19711TIP3    H280625   3.811   3.592   3.965 -0.9653  0.4339 -1.5978
19712TIP3   OH280626   5.722   2.946   1.076 -0.2754 -0.5534 -0.6868
19712TIP3    H180627   5.732   2.945   0.981 -1.7341 -0.3687 -0.8749
19712TIP3    H280628   5.678   3.029   1.094 -1.6697 -1.3869 -0.0808
19713TIP3   OH280629   1.205   3.504  16.070 -0.0093  0.3335 -0.1989
19713TIP3    H180630   1.156   3.423  16.086 -0.4210  0.3956 -1.0322
19713TIP3    H280631   1.289   3.491  16.112  0.2512 -0.8894 -1.0601
19714TIP3   OH280632   3.416   4.467  12.305 -0.4300 -0.3396 -0.6740
19714TIP3    H180633   3.346   4.508  12.356  0.2675 -1.2137  1.0496
19714TIP3    H280634   3.382   4.466  12.215 -1.4731  1.7157 -0.3504
19715TIP3   OH280635   2.543   1.364   3.465 -0.3432 -0.0487  0.1726
19715TIP3    H180636   2.487   1.439   3.483 -0.5656 -0.3204  0.6106
19715TIP3    H280637   2.544   1.313   3.546 -1.2005 -1.1769 -0.4895
19716TIP3   OH280638   5.843   0.080  12.545  0.0124 -0.3132 -0.0566
19716TIP3    H180639   5.857   0.136  12.621  0.5311 -1.3464  0.6274
19716TIP3    H280640   5.859  -0.009  12.577 -0.4393 -0.8272 -1.2051
19717TIP3   OH280641   6.846   2.018   0.620  0.0853 -0.2714 -0.6698
19717TIP3    H180642   6.845   1.961   0.544 -0.8488 -0.0471 -0.8316
19717TIP3    H280643   6.845   1.959   0.695  2.3191 -0.5335 -0.7860
19718TIP3   OH280644   5.109   0.967  12.772 -0.2031 -0.8167  0.1403
19718TIP3    H180645   5.079   0.914  12.845  1.9624 -0.7244  1.1733
19718TIP3    H280646   5.094   1.057  12.800 -1.5025 -0.8076 -0.5311
19719TIP3   OH280647   0.330   4.878   0.221  0.2608 -0.1585 -0.3698
19719TIP3    H180648   0.285   4.798   0.245 -1.1996  0.3000 -1.4306
19719TIP3    H280649   0.275   4.918   0.153  1.6677  1.0295 -0.8863
19720TIP3   OH280650   0.727   6.548   0.992  0.2248  0.6540  0.0192
19720TIP3    H180651   0.778   6.594   0.925 -0.4259 -0.4367 -1.2736
19720TIP3    H280652   0.638   6.581   0.982 -0.0437 -0.1219 -0.2445
19721TIP3   OH280653   4.705   5.933   2.273 -0.5231  0.0019 -0.4845
19721TIP3    H180654   4.717   5.879   2.195 -0.6061  1.2779 -1.4011
19721TIP3    H280655   4.626   5.984   2.256 -0.6846  0.1224  0.5419
19722TIP3   OH280656   0.263   3.170  14.173 -0.8532  0.3239  0.2322
19722TIP3    H180657   0.348   3.155  14.132 -0.9140  0.0971  0.1879
19722TIP3    H280658   0.283   3.177  14.267 -0.6604  1.2620  0.1302
19723TIP3   OH280659   0.984   1.990   4.745  0.0119 -0.0005  0.7967
19723TIP3    H180660   0.966   2.016   4.835  0.0699  0.8135  0.5771
19723TIP3    H280661   1.054   2.048   4.716  0.2785 -0.5279  0.3557
19724TIP3   OH280662   3.150   2.781   2.592  0.0758  0.5404  0.0770
19724TIP3    H180663   3.171   2.714   2.527 -0.1571  0.4032  0.1427
19724TIP3    H280664   3.062   2.759   2.622 -0.1770  1.1278 -0.2194
19725TIP3   OH280665   0.849   1.271   1.478 -0.3481  0.5502 -0.0317
19725TIP3    H180666   0.835   1.254   1.385 -1.4158  0.6926  0.0892
19725TIP3    H280667   0.940   1.245   1.494 -0.7247 -1.3114 -0.6801
19726TIP3   OH280668   2.103   1.194   5.290  0.3094  0.0340  0.4973
19726TIP3    H180669   2.088   1.271   5.236 -1.2202  0.3006  1.2688
19726TIP3    H280670   2.109   1.227   5.379  1.2999 -0.5713  0.6717
19727TIP3   OH280671   3.783   5.117   3.253 -0.1624  0.1471 -0.4016
19727TIP3    H180672   3.861   5.076   3.216 -1.6094 -1.5037 -1.8138
19727TIP3    H280673   3.816   5.175   3.321  2.2759 -0.4990 -0.9449
19728TIP3   OH280674   5.491   0.269   4.201 -0.3919  0.2718 -0.1801
19728TIP3    H180675   5.545   0.347   4.186 -0.1282  0.0448 -0.4211
19728TIP3    H280676   5.537   0.198   4.156 -1.7104  0.3755 -1.7936
19729TIP3   OH280677   2.555   4.498   5.399 -0.6375 -0.1540 -0.1209
19729TIP3    H180678   2.573   4.500   5.304  0.4210  1.7382  0.0734
19729TIP3    H280679   2.611   4.427   5.432 -0.6984 -0.5538 -0.8457
19730TIP3   OH280680   1.212   4.929   1.103 -0.1436 -0.0804  0.4077
19730TIP3    H180681   1.218   4.835   1.123  2.5404  0.1766  1.1724
19730TIP3    H280682   1.200   4.971   1.188  0.1250  0.3472  0.2380
19731TIP3   OH280683   3.664   0.592   2.852 -0.1603 -0.1033 -0.1422
19731TIP3    H180684   3.586   0.610   2.904  0.0455  1.0603 -0.2183
19731TIP3    H280685   3.631   0.554   2.770 -0.7051  1.0407 -0.4670
19732TIP3   OH280686   5.597   1.992  13.709 -0.4800  0.7983  0.5227
19732TIP3    H180687   5.513   1.947  13.718 -1.3233  2.3428  0.6240
19732TIP3    H280688   5.654   1.949  13.773 -0.5176 -1.6520 -0.9332
19733TIP3   OH280689   2.191   5.456  15.731  0.2196 -0.4937  0.0691
19733TIP3    H180690   2.190   5.372  15.685 -0.7095 -1.5198  1.8662
19733TIP3    H280691   2.274   5.456  15.779 -1.2903 -2.1010  2.9230
19734TIP3   OH280692   3.429   3.975  14.675 -0.1777  0.3662  0.7499
19734TIP3    H180693   3.335   3.993  14.676 -0.5557 -0.5442 -3.1573
19734TIP3    H280694   3.435   3.880  14.667  0.8957  0.5714 -1.6873
19735TIP3   OH280695   3.542   0.240   4.738 -0.1159  0.1275 -0.1104
19735TIP3    H180696   3.586   0.320   4.710 -0.4673 -0.1895 -1.6592
19735TIP3    H280697   3.566   0.230   4.830 -0.1729  2.0792  0.1609
19736TIP3   OH280698   5.017   2.418   5.002  0.0402  0.3473 -0.0412
19736TIP3    H180699   5.048   2.329   5.014  0.8405  0.7515  1.1246
19736TIP3    H280700   4.983   2.443   5.088 -0.8522  0.9185 -0.5433
19737TIP3   OH280701   6.767   2.472   0.213  0.3197  0.0580 -0.0153
19737TIP3    H180702   6.784   2.557   0.171 -0.7450 -0.4215 -1.5421
19737TIP3    H280703   6.684   2.485   0.259  1.0951  0.3532  1.3455
19738TIP3   OH280704   4.012   4.293   1.453 -0.4280  0.4123  0.2337
19738TIP3    H180705   3.986   4.351   1.381  2.4300  0.9788 -0.4875
19738TIP3    H280706   4.068   4.228   1.412 -0.3263 -0.4595  1.6834
19739TIP3   OH280707   6.093   0.310  12.611  0.0863  0.2287  0.3954
19739TIP3    H180708   6.052   0.312  12.524  0.8281 -0.5382  0.0144
19739TIP3    H280709   6.020   0.299  12.672 -0.3843  0.1103 -0.1769
19740TIP3   OH280710   5.727   5.935  15.659 -0.4472  0.0810 -0.2710
19740TIP3    H180711   5.810   5.919  15.704  0.2357  0.4564 -1.3569
19740TIP3    H280712   5.676   5.988  15.721  1.1895  2.1773 -0.6171
19741TIP3   OH280713   3.461   6.729   1.084  0.4528  0.2038  0.1441
19741TIP3    H180714   3.543   6.699   1.123  0.2992 -0.4289 -0.0023
19741TIP3    H280715   3.425   6.651   1.040 -0.2715  0.4442  0.2842
19742TIP3   OH280716   6.695   1.171   5.786  0.2092  0.0459 -0.4209
19742TIP3    H180717   6.651   1.165   5.701  2.0550 -0.6465 -1.3676
19742TIP3    H280718   6.624   1.163   5.850 -1.3208  1.3460 -1.8572
19743TIP3   OH280719   3.605   4.225   4.239  0.3706 -0.3058 -0.2003
19743TIP3    H180720   3.701   4.230   4.241  0.5262 -2.3386  0.1475
19743TIP3    H280721   3.587   4.132   4.225 -1.5707  0.2662 -2.0181
19744TIP3   OH280722   2.192   0.763  16.028 -0.2778 -0.1800  0.1315
19744TIP3    H180723   2.262   0.826  16.015 -1.9365  1.5511 -0.8630
19744TIP3    H280724   2.178   0.725  15.941 -0.9474 -0.0784  0.1893
19745TIP3   OH280725   1.357   5.730  16.893 -0.4544 -0.5715  0.4328
19745TIP3    H180726   1.377   5.763  16.981 -0.1156 -1.9584  0.9031
19745TIP3    H280727   1.275   5.773  16.870  1.6463  3.4614 -0.5596
19746TIP3   OH280728   3.903   4.044  10.883 -0.0668  0.4963 -0.3351
19746TIP3    H180729   3.923   3.955  10.855 -0.1879  0.2385  0.3816
19746TIP3    H280730   3.957   4.100  10.826 -1.0151  0.0517 -1.7271
19747TIP3   OH280731   1.145   4.031   0.971 -0.6185 -0.5901  0.4714
19747TIP3    H180732   1.199   3.989   1.037 -2.2374 -0.2510  2.0891
19747TIP3    H280733   1.203   4.095   0.929  1.0911 -2.4240 -0.1230
19748TIP3   OH280734   1.897   0.867   5.095 -0.4116 -0.3213  0.1950
19748TIP3    H180735   1.824   0.928   5.091 -1.2164 -1.2826 -0.0712
19748TIP3    H280736   1.975   0.922   5.089 -1.1254  0.6104 -0.7975
19749TIP3   OH280737   5.900   4.254  12.419  0.0001  0.1347  0.2614
19749TIP3    H180738   5.915   4.174  12.370  1.3234 -0.0141  0.8573
19749TIP3    H280739   5.969   4.314  12.390 -0.2436  0.6369  0.6884
19750TIP3   OH280740   4.837   0.042  16.669  0.4821 -0.0353 -0.1912
19750TIP3    H180741   4.812   0.130  16.697 -3.0502 -0.8648 -0.2417
19750TIP3    H280742   4.853  -0.005  16.750 -2.8415 -0.5989  0.2784
19751TIP3   OH280743   5.724   0.580  11.965  0.3891 -0.0871 -0.3166
19751TIP3    H180744   5.811   0.603  11.998 -0.0138  2.1602 -0.6576
19751TIP3    H280745   5.738   0.564  11.872  0.2766  1.6831 -0.6793
19752TIP3   OH280746   3.554   5.099   0.469 -0.0475 -0.3127 -0.5403
19752TIP3    H180747   3.533   5.138   0.555  0.3802 -0.9965 -0.1218
19752TIP3    H280748   3.480   5.123   0.414  0.2063  1.1258 -0.3027
19753TIP3   OH280749   1.773   2.813   1.857  0.4592  0.4625  0.0136
19753TIP3    H180750   1.747   2.741   1.916  2.6172 -0.2617  0.1702
19753TIP3    H280751   1.693   2.864   1.845 -1.1833 -1.9486 -0.0903
19754TIP3   OH280752   2.121   2.041   6.492 -0.0464  0.7171  0.0003
19754TIP3    H180753   2.035   2.038   6.534  0.4548 -2.8998  1.1431
19754TIP3    H280754   2.175   2.095   6.550 -1.3426  2.5644 -0.4451
19755TIP3   OH280755   5.886   6.675   2.682 -0.6083 -0.3144 -0.2205
19755TIP3    H180756   5.926   6.637   2.761  0.2864  1.6949  0.3648
19755TIP3    H280757   5.950   6.739   2.651 -1.0078 -0.9454 -2.5389
19756TIP3   OH280758   5.257   1.372  16.912 -0.0040 -0.2514  0.0880
19756TIP3    H180759   5.340   1.349  16.869  0.9711  1.2035  1.0997
19756TIP3    H280760   5.227   1.450  16.866 -0.9264 -0.8511 -0.3684
19757TIP3   OH280761   6.257   5.794   4.072 -0.1215  0.0580  0.2223
19757TIP3    H180762   6.343   5.836   4.076  0.7909 -1.3181 -2.4893
19757TIP3    H280763   6.273   5.706   4.107 -0.0194 -0.6643 -1.5309
19758TIP3   OH280764   3.313   5.098  10.966 -0.1688 -0.3158 -0.0275
19758TIP3    H180765   3.244   5.032  10.975 -2.5237  2.1469  1.3767
19758TIP3    H280766   3.277   5.161  10.903  1.7951 -0.0360 -0.9418
19759TIP3   OH280767   5.322   0.489   2.575  0.1950 -0.4154  0.2150
19759TIP3    H180768   5.286   0.523   2.656  1.7163  2.0172 -0.0259
19759TIP3    H280769   5.417   0.485   2.590  0.5270  0.2024 -1.4533
19760TIP3   OH280770   6.322   6.590  13.272 -0.2230 -0.5646  0.1666
19760TIP3    H180771   6.378   6.541  13.332  0.8282 -0.8883 -1.0400
19760TIP3    H280772   6.305   6.529  13.200 -2.9273 -0.8197  0.8764
19761TIP3   OH280773   4.128   2.596  16.458 -0.8720  0.6307  0.3676
19761TIP3    H180774   4.054   2.539  16.437  0.1868 -0.1821 -1.3859
19761TIP3    H280775   4.161   2.625  16.373  2.4477 -1.1749  0.8932
19762TIP3   OH280776   6.330   0.321   4.382  0.1795 -0.6647  0.3209
19762TIP3    H180777   6.305   0.411   4.402 -0.4737 -0.6752 -0.4304
19762TIP3    H280778   6.426   0.324   4.378  0.3110 -0.4673  2.4432
19763TIP3   OH280779   6.559   2.188   0.449 -0.0253 -0.4396 -0.5875
19763TIP3    H180780   6.563   2.238   0.368 -1.5361  0.1317 -0.3531
19763TIP3    H280781   6.490   2.231   0.500 -0.7396 -2.1884  0.0068
19764TIP3   OH280782   5.745   3.628  16.207  0.0469  0.5779 -0.2535
19764TIP3    H180783   5.723   3.626  16.300  1.4521 -0.4382  0.0782
19764TIP3    H280784   5.702   3.551  16.170 -0.5483  1.0050 -0.4847
19765TIP3   OH280785   1.110   6.448   2.906  0.4178 -0.3830 -0.6304
19765TIP3    H180786   1.156   6.495   2.837  0.0655 -0.4105 -0.8863
19765TIP3    H280787   1.030   6.498   2.920 -0.4493 -1.4451 -1.6008
19766TIP3   OH280788   5.036   6.192   2.849  0.2037 -0.6231 -0.3160
19766TIP3    H180789   5.028   6.258   2.780  2.2879 -0.0434 -0.0722
19766TIP3    H280790   4.995   6.114   2.812 -0.3324  0.1728 -1.4823
19767TIP3   OH280791   5.321   5.354  10.764  0.4397  0.1393 -0.0077
19767TIP3    H180792   5.331   5.375  10.857 -0.6517  2.4216 -0.3312
19767TIP3    H280793   5.383   5.413  10.720 -0.1107  0.1425 -0.7927
19768TIP3   OH280794   0.366   5.029   2.595 -0.4863 -0.3627  0.4412
19768TIP3    H180795   0.303   5.040   2.523 -0.6227  0.3630  0.6620
19768TIP3    H280796   0.449   5.063   2.560 -0.7954  1.0163  0.9612
19769TIP3   OH280797   5.884   2.990  15.367 -0.0631  0.4276 -0.2002
19769TIP3    H180798   5.942   3.063  15.388 -0.3407  0.8041 -0.7161
19769TIP3    H280799   5.937   2.912  15.384 -0.4049  0.6589  2.3472
19770TIP3   OH280800   4.814   1.393  16.092  0.3063 -0.4035  0.2719
19770TIP3    H180801   4.893   1.398  16.146  0.6750 -2.4844 -0.0072
19770TIP3    H280802   4.846   1.407  16.003  0.4251 -1.5953  0.1222
19771TIP3   OH280803   2.495   0.526  13.389 -0.1098  0.1468 -0.0934
19771TIP3    H180804   2.479   0.532  13.484 -1.0204 -1.6324 -0.0821
19771TIP3    H280805   2.409   0.502  13.353  0.6018 -0.8870 -1.1493
19772TIP3   OH280806   0.508   3.256  13.634 -0.1845  0.5163 -0.3556
19772TIP3    H180807   0.437   3.277  13.696  0.1307 -1.3582  0.7157
19772TIP3    H280808   0.462   3.232  13.553 -0.7915 -0.2120  0.1815
19773TIP3   OH280809   0.565   2.148  11.528  0.3818  0.1387  0.4196
19773TIP3    H180810   0.510   2.119  11.601  1.6741  0.9357  1.7712
19773TIP3    H280811   0.522   2.228  11.497  0.5425  0.5548  1.2244
19774TIP3   OH280812   3.102   6.252   1.102 -0.2773 -0.5031  0.1291
19774TIP3    H180813   3.080   6.186   1.037  1.6551 -0.7896 -0.2817
19774TIP3    H280814   3.145   6.322   1.053  1.1525 -0.6912  1.0369
19775TIP3   OH280815   4.711   0.752  12.219 -0.1534 -0.0231  0.0708
19775TIP3    H180816   4.712   0.847  12.204  1.1549  0.2355  1.5091
19775TIP3    H280817   4.734   0.714  12.134  1.0346  1.0635 -0.1292
19776TIP3   OH280818   5.103   6.788  12.863 -0.6649 -0.4968 -0.3222
19776TIP3    H180819   5.064   6.875  12.860 -1.6351 -0.7890  1.9388
19776TIP3    H280820   5.079   6.748  12.779 -2.9010  0.3345 -0.1409
19777TIP3   OH280821   1.956   3.763  13.949  0.0361 -0.5125 -0.2007
19777TIP3    H180822   2.002   3.840  13.981 -0.8073 -0.5278  1.1708
19777TIP3    H280823   1.977   3.758  13.856  1.4778  0.3742  0.0508
19778TIP3   OH280824   5.156   0.149   2.159  0.1828  0.3424 -0.4082
19778TIP3    H180825   5.149   0.215   2.090 -1.9095  0.7193  0.0777
19778TIP3    H280826   5.153   0.199   2.240 -0.9938 -0.2774 -0.0418
19779TIP3   OH280827   2.903   1.722  12.802 -0.4009  0.5855  0.2606
19779TIP3    H180828   2.833   1.767  12.850  0.5802  1.1866  1.1736
19779TIP3    H280829   2.983   1.767  12.829  0.4750 -0.8845  0.2048
19780TIP3   OH280830   1.739   5.854   4.016  0.2389  0.3040 -0.6674
19780TIP3    H180831   1.809   5.806   3.973 -1.5951 -3.4291  0.0975
19780TIP3    H280832   1.774   5.877   4.102 -0.0920 -3.9619  0.8306
19781TIP3   OH280833   6.583   0.837  14.024 -0.1254  0.3222 -0.3147
19781TIP3    H180834   6.638   0.842  14.103  1.2879 -0.5554 -1.1946
19781TIP3    H280835   6.541   0.922  14.019 -0.9237  0.1236  1.8374
19782TIP3   OH280836   1.698   0.100  15.439  0.1406 -0.0902  0.3821
19782TIP3    H180837   1.612   0.085  15.398 -0.0815  1.2377  0.3139
19782TIP3    H280838   1.707   0.029  15.502 -1.0605 -0.2058  0.4538
19783TIP3   OH280839   2.398   3.619  11.326 -0.8227  0.1679 -0.2002
19783TIP3    H180840   2.354   3.541  11.360  1.3262 -0.8796  0.3678
19783TIP3    H280841   2.482   3.621  11.373  0.3858  1.1923 -2.2657
19784TIP3   OH280842   0.677   3.109   3.409 -0.2198 -0.0911 -0.6003
19784TIP3    H180843   0.741   3.174   3.381 -0.5291 -0.2194 -1.6564
19784TIP3    H280844   0.727   3.028   3.418  0.2150  0.3180  0.9598
19785TIP3   OH280845   5.522   2.600  13.461 -0.0450  0.0132 -0.2157
19785TIP3    H180846   5.508   2.525  13.404  2.0721  0.5542 -1.5334
19785TIP3    H280847   5.451   2.661  13.439 -0.3573 -0.5754 -0.8679
19786TIP3   OH280848   5.074   6.627   2.787 -0.4371 -0.4072  0.5223
19786TIP3    H180849   4.994   6.630   2.735 -0.4183 -1.3407  0.4191
19786TIP3    H280850   5.043   6.617   2.877 -0.4564  0.5475  0.6272
19787TIP3   OH280851   4.432   5.313  11.478 -0.2886  0.6059  0.1694
19787TIP3    H180852   4.456   5.347  11.392 -0.8190  1.4241  0.3330
19787TIP3    H280853   4.338   5.299  11.473 -0.4007  1.1278  0.7748
19788TIP3   OH280854   0.465   2.459  17.070  0.1078  0.9412 -0.4313
19788TIP3    H180855   0.494   2.472  17.160 -0.6106  0.5060 -0.1297
19788TIP3    H280856   0.388   2.515  17.061 -1.4609 -1.0247  0.0814
19789TIP3   OH280857   0.422   2.650   5.933  0.2002  0.2457  0.0647
19789TIP3    H180858   0.477   2.724   5.906  1.2185 -0.5985 -0.2486
19789TIP3    H280859   0.376   2.682   6.010  2.7949  0.3083  1.7322
19790TIP3   OH280860   5.269   6.733  15.806  0.6915  0.3072 -0.3778
19790TIP3    H180861   5.248   6.680  15.883  0.7406  0.1704 -0.4568
19790TIP3    H280862   5.194   6.720  15.747  0.2524  1.1013  0.0051
19791TIP3   OH280863   2.807   0.967  12.529 -0.1927 -0.4043  0.3281
19791TIP3    H180864   2.888   1.012  12.553  0.5321 -1.8561  0.7197
19791TIP3    H280865   2.776   0.928  12.610 -1.4821  0.3697  0.2460
19792TIP3   OH280866   2.099   6.107   3.681  0.0008 -0.9196  0.0225
19792TIP3    H180867   2.115   6.158   3.601 -1.8658 -0.8150 -0.3323
19792TIP3    H280868   2.008   6.077   3.672 -0.9328  0.6799  2.9612
19793TIP3   OH280869   6.705   5.236   5.252  1.0652  0.3036  0.3526
19793TIP3    H180870   6.703   5.257   5.345  0.0293 -0.9844  0.6541
19793TIP3    H280871   6.798   5.239   5.229  1.3435  0.5647  1.4422
19794TIP3   OH280872   2.012   1.181  10.086 -0.1044  0.4741  0.2362
19794TIP3    H180873   2.088   1.155  10.034 -0.4590  0.2203 -0.1739
19794TIP3    H280874   2.048   1.226  10.162  0.5341 -0.8865  0.7807
19795TIP3   OH280875   3.902   3.656   3.177  0.2521  0.3607  0.2988
19795TIP3    H180876   3.988   3.691   3.200  0.6714  0.3495 -1.2005
19795TIP3    H280877   3.887   3.685   3.088 -1.8961  1.4326  0.9544
19796TIP3   OH280878   3.442   2.317   2.830  1.0614 -0.3123 -0.4688
19796TIP3    H180879   3.353   2.281   2.827  1.0391 -0.6056  1.7939
19796TIP3    H280880   3.475   2.307   2.741 -0.0504 -3.1298 -0.6821
19797TIP3   OH280881   6.180   5.815   3.399 -0.2482 -0.5897 -0.4449
19797TIP3    H180882   6.158   5.869   3.323 -0.2937  0.4586  0.2928
19797TIP3    H280883   6.276   5.809   3.397  0.2984  3.5514  2.0211
19798TIP3   OH280884   5.908   1.881  12.620 -0.0188 -0.1151 -0.5413
19798TIP3    H180885   5.855   1.958  12.601  0.1909  0.1914  0.0840
19798TIP3    H280886   5.968   1.873  12.546 -0.2634  0.1285 -0.7657
19799TIP3   OH280887   5.972   0.342  12.373 -0.1247 -0.4395  0.0900
19799TIP3    H180888   5.990   0.429  12.336 -1.1330  0.4288  1.5004
19799TIP3    H280889   5.921   0.297  12.305  0.2345  0.1472 -0.5819
19800TIP3   OH280890   2.478   1.352   2.251 -0.2705 -0.2849  0.6478
19800TIP3    H180891   2.515   1.420   2.194 -0.8400 -0.7396 -0.3054
19800TIP3    H280892   2.385   1.351   2.228 -0.4596 -0.6819  1.4046
19801TIP3   OH280893   0.774   0.228   3.978 -0.2018  0.3419  0.2420
19801TIP3    H180894   0.843   0.213   4.043  0.6382 -1.7070 -1.0044
19801TIP3    H280895   0.699   0.178   4.010 -0.2464  0.4537  0.3126
19802TIP3   OH280896   0.647   6.427   3.354 -0.4488 -0.0619 -0.1040
19802TIP3    H180897   0.613   6.340   3.335  1.0824 -0.7941  0.3488
19802TIP3    H280898   0.616   6.447   3.442 -0.9554 -0.0634 -0.2807
19803TIP3   OH280899   5.975   4.366  13.415  0.6115  0.2294 -0.4121
19803TIP3    H180900   6.037   4.379  13.487  0.1585 -1.7854  0.4248
19803TIP3    H280901   5.960   4.454  13.380 -1.5999  1.9464  4.0023
19804TIP3   OH280902   2.942   0.924  14.105 -0.3218  0.6057  0.2712
19804TIP3    H180903   3.023   0.948  14.061  0.0628  0.6152  0.9738
19804TIP3    H280904   2.968   0.857  14.169 -1.3999 -2.1768 -1.9664
19805TIP3   OH280905   0.637   1.495  16.462  0.0285 -0.5576  0.8781
19805TIP3    H180906   0.702   1.496  16.392  0.7203 -1.9093  1.4634
19805TIP3    H280907   0.689   1.493  16.542 -0.6709 -2.7638  1.3393
19806TIP3   OH280908   2.826   6.798  16.996  0.0984 -0.2729  0.8360
19806TIP3    H180909   2.844   6.747  16.916  2.3236  1.3424  0.1841
19806TIP3    H280910   2.760   6.747  17.043  0.8362 -2.7871 -0.6341
19807TIP3   OH280911   5.564   2.021  16.717 -1.3639  0.1589 -0.4974
19807TIP3    H180912   5.554   2.053  16.628 -0.2015  1.3748 -0.2156
19807TIP3    H280913   5.495   2.064  16.766 -0.1648  1.8773 -0.2370
19808TIP3   OH280914   5.414   6.631   2.113 -0.7090 -0.5758 -0.0684
19808TIP3    H180915   5.434   6.661   2.202 -2.6892 -0.4810  0.3885
19808TIP3    H280916   5.411   6.536   2.120 -1.7982 -0.5345  0.2123
19809TIP3   OH280917   6.659   4.624   2.385 -0.0120  0.1571  0.3161
19809TIP3    H180918   6.629   4.661   2.467 -2.8294 -2.6271  0.7420
19809TIP3    H280919   6.753   4.612   2.397  0.5557  4.1973  1.1485
19810TIP3   OH280920   5.738   1.041  13.940 -0.3391  0.3634  0.1852
19810TIP3    H180921   5.644   1.024  13.936 -0.2772 -0.1313  0.7801
19810TIP3    H280922   5.764   1.052  13.848 -1.3604  2.7152  0.1181
19811TIP3   OH280923   3.099   0.045  16.121 -0.2887 -0.2731  0.2059
19811TIP3    H180924   3.190   0.062  16.142 -0.2645 -0.0717 -0.0628
19811TIP3    H280925   3.050   0.117  16.162  0.0295  1.9710 -3.0678
19812TIP3   OH280926   6.466   4.386   2.248  0.2238 -0.2932  0.3386
19812TIP3    H180927   6.387   4.439   2.246  0.0439 -0.5738  0.0830
19812TIP3    H280928   6.502   4.401   2.336  0.6203  0.9039 -0.0006
19813TIP3   OH280929   3.125   1.890   2.824 -0.1085  0.2973 -0.2056
19813TIP3    H180930   3.182   1.814   2.839 -0.6565 -0.1540 -0.3877
19813TIP3    H280931   3.055   1.857   2.767  0.5804  1.3609 -1.7432
19814TIP3   OH280932   3.949   1.412  12.279 -0.8303  0.1382 -0.1595
19814TIP3    H180933   3.913   1.492  12.240  0.2837  0.3150 -0.8854
19814TIP3    H280934   4.042   1.432  12.291 -0.2092 -1.5436 -1.7336
19815TIP3   OH280935   6.739   1.182  11.900 -0.2618 -0.5175 -0.8495
19815TIP3    H180936   6.808   1.132  11.943 -0.2905 -0.2561 -0.4909
19815TIP3    H280937   6.669   1.185  11.965 -1.4035 -2.4313 -1.8947
19816TIP3   OH280938   6.293   4.706  17.104  0.0379 -0.5796 -0.1642
19816TIP3    H180939   6.302   4.681  17.012  0.8537 -0.1479 -0.2026
19816TIP3    H280940   6.252   4.792  17.102 -0.9402 -1.0225 -0.0803
19817TIP3   OH280941   5.010   5.388  13.910  0.2242  0.3849 -0.6125
19817TIP3    H180942   5.059   5.354  13.836 -0.5053 -1.0451 -0.4734
19817TIP3    H280943   4.933   5.431  13.871 -0.3943 -0.7606 -0.6903
19818TIP3   OH280944   5.350   0.574  16.685  0.0696  0.3835 -0.1205
19818TIP3    H180945   5.279   0.570  16.621  0.9853 -0.7629 -1.1107
19818TIP3    H280946   5.356   0.667  16.708 -0.0850  0.8848 -1.9448
19819TIP3   OH280947   3.885   2.671  15.466 -0.2559  0.2010 -0.1192
19819TIP3    H180948   3.910   2.588  15.425  0.3025 -0.2114  1.0008
19819TIP3    H280949   3.790   2.673  15.461 -0.1841  0.8318 -2.6507
19820TIP3   OH280950   6.844   2.950  12.558  0.1866  0.0700  0.0182
19820TIP3    H180951   6.767   2.914  12.514  0.1798 -0.7351  0.6652
19820TIP3    H280952   6.860   2.890  12.631  1.5324  0.1048 -0.2175
19821TIP3   OH280953   1.592   4.024   0.645 -0.2400 -0.1668 -0.0453
19821TIP3    H180954   1.561   4.025   0.555  1.3068  0.3370 -0.6173
19821TIP3    H280955   1.615   3.932   0.661  0.4800 -0.0893 -0.5572
19822TIP3   OH280956   4.404   6.404   1.727 -0.1660  0.0479  0.5314
19822TIP3    H180957   4.375   6.317   1.756 -2.2472  0.4327 -0.2403
19822TIP3    H280958   4.408   6.397   1.632 -0.1222  0.7424  0.4829
19823TIP3   OH280959   4.108   4.680  15.598  0.2316 -0.4173 -0.1594
19823TIP3    H180960   4.048   4.675  15.524  1.1759  0.2522 -0.9853
19823TIP3    H280961   4.078   4.757  15.648  1.4458  1.0431 -1.5574
19824TIP3   OH280962   2.577   6.466  13.931  0.5012  0.6391 -0.3611
19824TIP3    H180963   2.585   6.393  13.992  1.7555  0.2263 -0.9752
19824TIP3    H280964   2.553   6.541  13.985  0.1200 -0.0292  0.4123
19825TIP3   OH280965   1.200   1.316   5.728 -0.0294  0.2819  0.3370
19825TIP3    H180966   1.216   1.297   5.820  0.5637 -2.2102 -0.1968
19825TIP3    H280967   1.249   1.396   5.711  0.6329  0.2662  1.9709
19826TIP3   OH280968   5.116   2.382   6.981 -0.1169 -0.0875  0.1417
19826TIP3    H180969   5.043   2.366   7.040  0.2491  3.4494  1.8099
19826TIP3    H280970   5.194   2.373   7.036  0.4507  0.1294 -0.6081
19827TIP3   OH280971   1.088   1.134   1.521 -0.3113 -1.3645 -0.8285
19827TIP3    H180972   1.032   1.079   1.575  1.4451  0.3925  3.2195
19827TIP3    H280973   1.173   1.091   1.523  0.3228 -0.1355 -0.2215
19828TIP3   OH280974   4.075   4.164  11.700 -0.5138  0.2166 -0.1907
19828TIP3    H180975   4.000   4.223  11.707  0.4484  1.5660 -0.7625
19828TIP3    H280976   4.089   4.154  11.606 -0.1050 -0.2098 -0.0888
19829TIP3   OH280977   4.252   1.314  16.911  0.0824 -0.7222  0.4473
19829TIP3    H180978   4.220   1.389  16.960 -2.8908 -0.4220 -1.6786
19829TIP3    H280979   4.305   1.352  16.841 -1.8600 -0.4151 -0.9534
19830TIP3   OH280980   1.476   3.063   2.367  0.9066 -0.6822  0.3237
19830TIP3    H180981   1.428   3.141   2.398  3.3865  0.2487  2.1931
19830TIP3    H280982   1.510   3.088   2.282 -0.1559 -0.5882 -0.0901
19831TIP3   OH280983   4.800   6.027  15.100 -0.4253  0.6518  0.2559
19831TIP3    H180984   4.886   6.000  15.068  0.1721 -0.6654  2.7490
19831TIP3    H280985   4.772   5.957  15.159 -0.8987  3.3008  3.4964
19832TIP3   OH280986   1.738   3.721  14.137  0.0930 -0.9198  0.1339
19832TIP3    H180987   1.735   3.799  14.193 -0.6523  1.2953 -2.7667
19832TIP3    H280988   1.824   3.725  14.095 -0.8826 -0.1008 -1.9438
19833TIP3   OH280989   0.231   3.126   3.485  0.4260  0.2256  0.4103
19833TIP3    H180990   0.254   3.034   3.492 -0.7426 -0.0197  1.3343
19833TIP3    H280991   0.205   3.152   3.573  0.2709  1.3183  0.0692
19834TIP3   OH280992   1.239   2.522   1.756 -0.1190 -0.2000  0.1075
19834TIP3    H180993   1.171   2.559   1.813 -0.6706 -0.8828 -0.0944
19834TIP3    H280994   1.193   2.456   1.703  0.9411 -1.5999  0.8561
19835TIP3   OH280995   4.005   0.259  14.713  0.7581 -0.3390  0.4063
19835TIP3    H180996   3.915   0.254  14.744  0.2600 -0.7616 -1.0387
19835TIP3    H280997   4.025   0.352  14.713 -0.5940 -0.0056 -1.7027
19836TIP3   OH280998   3.363   1.101  10.694 -0.1584  0.2639  0.3887
19836TIP3    H180999   3.438   1.044  10.679 -0.0767  0.5843 -0.4889
19836TIP3    H281000   3.399   1.190  10.692 -0.4544  0.3928  0.6220
19837TIP3   OH281001   3.813   6.417   4.866 -0.0508 -0.2401 -0.0137
19837TIP3    H181002   3.835   6.476   4.794  1.0494 -0.5339  0.0654
19837TIP3    H281003   3.802   6.331   4.825  1.0654 -0.5050  0.2158
19838TIP3   OH281004   3.154   2.471  10.257  0.4442  0.2257 -0.4808
19838TIP3    H181005   3.217   2.473  10.185 -0.1086  1.0346 -0.9606
19838TIP3    H281006   3.206   2.488  10.336  0.8298  0.8630 -0.8704
19839TIP3   OH281007   4.815   4.707  13.004 -0.1691 -0.1729 -0.4251
19839TIP3    H181008   4.794   4.706  12.911 -0.4120  2.6004 -0.4833
19839TIP3    H281009   4.907   4.733  13.007  0.3285 -1.8453  0.1231
19840TIP3   OH281010   0.777   2.290   1.688 -0.6195  0.2237 -0.0174
19840TIP3    H181011   0.750   2.267   1.599 -0.2808  1.0391 -0.3371
19840TIP3    H281012   0.804   2.207   1.727 -1.6621 -0.2900 -0.3586
19841TIP3   OH281013   2.511   6.715   5.310 -0.3340 -0.7326 -0.2855
19841TIP3    H181014   2.499   6.794   5.256 -1.2423  0.0218  0.9600
19841TIP3    H281015   2.427   6.704   5.355  1.0775  0.0893  2.7895
19842TIP3   OH281016   0.307   0.935  16.477 -0.0133  0.1532  0.0933
19842TIP3    H181017   0.329   0.885  16.398  1.1310  0.9847 -0.1290
19842TIP3    H281018   0.365   0.900  16.544 -0.6581 -0.2230  0.4703
19843TIP3   OH281019   6.794   0.908   0.121 -0.5021  0.3776 -0.2331
19843TIP3    H181020   6.848   0.984   0.097  1.4741 -0.9796 -0.2840
19843TIP3    H281021   6.796   0.851   0.045 -1.2651 -0.1183  0.1050
19844TIP3   OH281022   1.123   5.581   0.209 -0.2403  0.3130  0.3858
19844TIP3    H181023   1.037   5.565   0.247  0.5303 -1.4577  1.5336
19844TIP3    H281024   1.115   5.665   0.165 -3.2705 -0.8882 -1.7338
19845TIP3   OH281025   3.107   0.111  11.651  0.0328  0.0219  0.1534
19845TIP3    H181026   3.155   0.034  11.683  0.4243  0.0052 -0.4460
19845TIP3    H281027   3.021   0.105  11.693 -0.4304 -1.4897 -0.9257
19846TIP3   OH281028   2.218   1.707   3.696 -0.6253  0.1662 -0.4835
19846TIP3    H181029   2.297   1.696   3.750 -1.0794 -0.4756  0.0793
19846TIP3    H281030   2.175   1.784   3.733 -0.6197  0.0987 -0.3344
19847TIP3   OH281031   2.114   4.444   3.629 -0.0541 -0.0464 -0.2033
19847TIP3    H181032   2.164   4.448   3.548  1.6916  2.6411  0.8503
19847TIP3    H281033   2.175   4.407   3.693 -0.0647  1.3745  0.6653
19848TIP3   OH281034   2.426   4.065  12.353  0.1949 -0.0540  0.3575
19848TIP3    H181035   2.420   4.021  12.438 -0.0125  2.4632  1.7608
19848TIP3    H281036   2.407   3.997  12.289 -1.3229 -1.7018  2.4084
19849TIP3   OH281037   1.044   4.011   3.854  0.6795  0.4102 -0.4366
19849TIP3    H181038   0.980   3.967   3.910  1.2690 -0.2192 -0.2395
19849TIP3    H281039   0.993   4.077   3.807 -0.4304 -1.1270 -1.4853
19850TIP3   OH281040   4.759   6.405   0.178 -0.4253  0.4736  0.3911
19850TIP3    H181041   4.693   6.450   0.231 -0.6487 -0.2652  0.7445
19850TIP3    H281042   4.828   6.382   0.240 -0.6411 -0.3020  0.3537
19851TIP3   OH281043   3.220   5.248   4.930 -0.1589 -0.6429  0.0308
19851TIP3    H181044   3.134   5.245   4.889 -0.3415 -0.7106  0.4202
19851TIP3    H281045   3.269   5.177   4.888  0.2628  0.4575 -1.4141
19852TIP3   OH281046   5.626   0.035   1.719  0.4979 -0.6035 -0.0656
19852TIP3    H181047   5.629  -0.005   1.806 -1.2494  0.6778  0.6555
19852TIP3    H281048   5.685   0.110   1.725 -0.7457  0.3765  0.5730
19853TIP3   OH281049   2.038   6.250   0.734 -0.0601  0.1661  0.0329
19853TIP3    H181050   2.068   6.325   0.683  1.9702  0.7258  1.8881
19853TIP3    H281051   1.959   6.280   0.778 -1.1943  0.0352 -1.8177
19854TIP3   OH281052   4.466   5.848  15.099  0.5640  0.2444 -0.0382
19854TIP3    H181053   4.443   5.908  15.027 -0.7527 -0.4746 -0.2596
19854TIP3    H281054   4.387   5.846  15.153  1.6600  1.0361  1.6404
19855TIP3   OH281055   3.809   6.087   2.363  0.3551 -0.3112  0.1838
19855TIP3    H181056   3.808   6.125   2.451  2.0656  1.5646 -0.5459
19855TIP3    H281057   3.856   6.004   2.374  1.3986  0.3438  0.9213
19856TIP3   OH281058   4.394   6.828  11.624 -0.1846  0.8052  0.1882
19856TIP3    H181059   4.428   6.914  11.648 -3.1433  1.8012  1.3272
19856TIP3    H281060   4.302   6.845  11.601 -0.3966 -1.8276 -1.2365
19857TIP3   OH281061   4.776   0.326  12.879 -0.2703  0.3430  0.2867
19857TIP3    H181062   4.802   0.360  12.965  0.0443 -1.2185  0.8255
19857TIP3    H281063   4.855   0.288  12.842 -0.2636  1.4933 -0.9775
19858TIP3   OH281064   2.541   1.704   1.995 -0.4210  0.0467 -0.1325
19858TIP3    H181065   2.449   1.679   2.006 -0.7558  1.6477  1.1086
19858TIP3    H281066   2.539   1.774   1.930  0.3069 -1.8936 -2.3394
19859TIP3   OH281067   1.580   4.425   2.935 -0.2478  0.0395  0.5837
19859TIP3    H181068   1.540   4.415   2.849 -0.9656  0.1233  0.9048
19859TIP3    H281069   1.674   4.410   2.920 -0.7476 -3.9184  0.4460
19860TIP3   OH281070   2.511   5.980  10.237  0.5872  0.5497 -0.1123
19860TIP3    H181071   2.447   6.044  10.205  0.8325  1.3880  1.0096
19860TIP3    H281072   2.472   5.895  10.219 -0.7610  1.0487  0.3551
19861TIP3   OH281073   3.719   5.307  15.546  0.2852  0.7575  0.8491
19861TIP3    H181074   3.648   5.271  15.599 -0.1773  2.2436  1.3023
19861TIP3    H281075   3.679   5.320  15.460  0.5036  0.0460  0.6355
19862TIP3   OH281076   6.809   5.804   0.745 -0.3271 -0.6606 -0.3452
19862TIP3    H181077   6.779   5.856   0.671 -2.8425 -1.4875 -0.0237
19862TIP3    H281078   6.900   5.828   0.757 -0.5962  1.4494 -2.0326
19863TIP3   OH281079   5.983   2.314  14.198 -0.1648 -0.0159 -0.1023
19863TIP3    H181080   6.034   2.252  14.250 -0.2478  0.0807  0.0950
19863TIP3    H281081   6.047   2.358  14.143 -0.1626 -0.6146 -0.5926
19864TIP3   OH281082   6.790   1.736  13.007  0.8765 -0.1205 -0.2492
19864TIP3    H181083   6.704   1.779  13.006 -0.6434 -2.9553 -0.4004
19864TIP3    H281084   6.825   1.756  13.094 -0.4742  0.1246  0.2606
19865TIP3   OH281085   6.580   6.274   0.273  0.5994 -0.2854  0.0971
19865TIP3    H181086   6.659   6.327   0.286  0.1565  1.1104 -2.3373
19865TIP3    H281087   6.586   6.243   0.182 -1.8675  0.3053 -0.3422
19866TIP3   OH281088   6.124   3.867  16.496  0.3817  0.4392 -0.1987
19866TIP3    H181089   6.061   3.863  16.424  1.4876  0.7452 -1.2134
19866TIP3    H281090   6.198   3.815  16.465  0.6719  0.1748  0.9284
19867TIP3   OH281091   1.433   1.423   2.249 -0.4095  0.0430 -0.3451
19867TIP3    H181092   1.476   1.408   2.165  1.1340 -2.5558  0.7600
19867TIP3    H281093   1.386   1.341   2.267 -2.7969  1.4509  0.2362
19868TIP3   OH281094   0.053   3.491   4.688  0.5410  0.0952 -0.1917
19868TIP3    H181095   0.058   3.564   4.627 -0.3348 -1.2648 -2.0066
19868TIP3    H281096  -0.025   3.509   4.740 -0.6198 -0.2386 -1.7100
19869TIP3   OH281097   6.773   3.192  11.817 -0.9616  0.0537  0.1602
19869TIP3    H181098   6.702   3.131  11.836 -0.1162 -1.1684 -0.5112
19869TIP3    H281099   6.781   3.190  11.722 -1.2290  1.5884  0.0801
19870TIP3   OH281100   2.945   5.157  11.211 -0.2573  0.3975 -0.0987
19870TIP3    H181101   2.864   5.170  11.261  0.2767  0.5939  0.7374
19870TIP3    H281102   3.014   5.185  11.270  0.5352 -1.0605 -0.2813
19871TIP3   OH281103   0.782   2.429   3.940  0.3816  0.6129 -0.2182
19871TIP3    H181104   0.739   2.473   4.013 -1.0438  0.3388 -0.8705
19871TIP3    H281105   0.763   2.484   3.864 -0.1699 -0.3463 -0.7890
19872TIP3   OH281106   6.731   5.537   3.353  0.2388  0.0329  0.1021
19872TIP3    H181107   6.674   5.485   3.296 -2.2210  2.6132 -0.0287
19872TIP3    H281108   6.731   5.490   3.437  1.7971 -2.4411 -1.1791
19873TIP3   OH281109   4.246   1.087  12.307  0.2456 -0.1170  0.4474
19873TIP3    H181110   4.181   1.139  12.355  0.8018  0.0070  1.0810
19873TIP3    H281111   4.306   1.152  12.270 -0.9534 -0.1128 -1.6431
19874TIP3   OH281112   3.158   1.478  12.574  0.5874  0.0350 -0.1841
19874TIP3    H181113   3.212   1.496  12.497  2.3441 -1.5175  0.5981
19874TIP3    H281114   3.206   1.410  12.622 -0.4544  0.9033  2.2716
19875TIP3   OH281115   4.379   6.244  15.314  0.0599 -0.2110 -0.0853
19875TIP3    H181116   4.284   6.232  15.323 -0.1006  0.0297 -1.3548
19875TIP3    H281117   4.416   6.164  15.353 -0.5808  0.2604  1.6128
19876TIP3   OH281118   6.163   4.525  12.629 -0.2477  0.4798  0.7353
19876TIP3    H181119   6.172   4.572  12.546 -1.0512 -0.4634  0.0852
19876TIP3    H281120   6.245   4.542  12.675  0.1114  1.2333 -0.1326
19877TIP3   OH281121   2.536   4.199  15.193 -0.2031 -0.0571  0.6230
19877TIP3    H181122   2.561   4.132  15.256  1.6010  1.4212  1.5630
19877TIP3    H281123   2.534   4.153  15.109  2.1079 -1.0769  1.0593
19878TIP3   OH281124   1.995   0.990  13.271 -0.0251  0.3834  0.2454
19878TIP3    H181125   1.983   1.072  13.319 -1.9096 -0.3190  1.0233
19878TIP3    H281126   1.907   0.963  13.246  0.5976 -1.2081 -0.3665
19879TIP3   OH281127   0.488   0.622  12.361  0.1485  0.2490 -0.5586
19879TIP3    H181128   0.428   0.666  12.422  0.1674 -1.4312  0.7338
19879TIP3    H281129   0.479   0.529  12.381  0.4198 -0.3563 -2.9157
19880TIP3   OH281130   3.784   2.248  13.955  0.2425  0.1238  0.6288
19880TIP3    H181131   3.691   2.266  13.938  0.2268 -0.1525  0.4122
19880TIP3    H281132   3.803   2.295  14.036 -0.3884 -0.7546  1.2995
19881TIP3   OH281133   0.031   2.711   0.773 -0.3136  0.1647  0.1107
19881TIP3    H181134   0.065   2.647   0.711 -2.3775  0.1976 -1.1712
19881TIP3    H281135   0.045   2.672   0.859  1.8294 -0.2791 -0.3809
19882TIP3   OH281136   3.182   6.811  14.535  0.1462  0.0054  0.8244
19882TIP3    H181137   3.213   6.797  14.446 -0.9415  0.3550  0.3667
19882TIP3    H281138   3.117   6.881  14.527  0.5092  0.5032  1.9941
19883TIP3   OH281139   4.093   2.056  13.352 -0.2500 -0.1930  0.0269
19883TIP3    H181140   4.146   2.036  13.275  0.5986 -0.6148  0.7016
19883TIP3    H281141   4.011   2.008  13.338  0.6078 -1.8139  0.2256
19884TIP3   OH281142   6.354   3.265   3.273  0.0862 -0.2873  0.8418
19884TIP3    H181143   6.280   3.292   3.218  1.2698  1.2556 -0.1189
19884TIP3    H281144   6.396   3.348   3.298  1.2880 -1.1004  1.6114
19885TIP3   OH281145   6.527   6.549   5.121  0.0502  0.1705  0.0344
19885TIP3    H181146   6.564   6.627   5.162  2.2787 -0.4391 -0.6692
19885TIP3    H281147   6.573   6.476   5.163 -1.5204 -0.7579  0.2204
19886TIP3   OH281148   3.191   3.476   2.149  0.1822 -0.0831 -0.0511
19886TIP3    H181149   3.174   3.568   2.168  0.9490 -0.0382  0.4523
19886TIP3    H281150   3.190   3.433   2.235 -0.0244 -0.5199 -0.2667
19887TIP3   OH281151   5.303   0.324  12.853  0.3180 -0.1254 -0.0437
19887TIP3    H181152   5.294   0.405  12.904  1.3424  0.4355 -0.7224
19887TIP3    H281153   5.385   0.286  12.882  0.7656  0.0485 -1.0422
19888TIP3   OH281154   1.513   5.402   0.408 -0.1427  0.0268 -0.2278
19888TIP3    H181155   1.473   5.321   0.376 -0.0394  0.5513 -1.7757
19888TIP3    H281156   1.498   5.401   0.502 -2.3829 -0.5679 -0.5285
19889TIP3   OH281157   3.956   5.625  15.443  0.1590 -0.1352  0.2392
19889TIP3    H181158   4.005   5.559  15.490 -1.4798 -0.9901  0.8379
19889TIP3    H281159   3.978   5.610  15.351 -1.6431 -2.9142  0.1296
19890TIP3   OH281160   5.188   6.184  15.054 -0.0841 -0.2145 -0.7362
19890TIP3    H181161   5.183   6.204  14.961 -0.5124  0.6569 -0.5356
19890TIP3    H281162   5.139   6.254  15.097  2.3527  0.9523  0.3500
19891TIP3   OH281163   5.905   5.218   5.079 -0.3398  0.2520 -0.5139
19891TIP3    H181164   5.854   5.175   5.148  2.2146 -1.9967  0.1579
19891TIP3    H281165   5.881   5.170   4.999 -2.0960  1.8032 -0.9868
19892TIP3   OH281166   5.135   4.825   6.434 -0.1400 -0.2632 -0.4731
19892TIP3    H181167   5.151   4.891   6.367 -0.9174 -0.7730 -1.1846
19892TIP3    H281168   5.068   4.863   6.491  1.9468  1.0195  1.2839
19893TIP3   OH281169   6.710   6.031  15.676  0.4258  0.2726 -0.4575
19893TIP3    H181170   6.665   5.956  15.637  0.4731 -0.8428  1.4763
19893TIP3    H281171   6.754   6.074  15.603 -0.6026 -0.8707 -1.8018
19894TIP3   OH281172   6.173   2.435   1.077  0.9506  0.2103 -0.8784
19894TIP3    H181173   6.137   2.478   1.000  1.3957  1.6008 -0.3387
19894TIP3    H281174   6.179   2.342   1.052 -1.1971  0.2163 -1.6368
19895TIP3   OH281175   1.614   1.515   0.871 -0.3636  0.2432 -0.6440
19895TIP3    H181176   1.552   1.442   0.863 -0.1414 -0.3008  1.9312
19895TIP3    H281177   1.650   1.507   0.959  2.8439  1.0108 -1.7639
19896TIP3   OH281178   4.044   3.292  12.218  0.2313  0.6273  0.2399
19896TIP3    H181179   4.038   3.260  12.128 -2.4862  0.9348  0.2419
19896TIP3    H281180   4.091   3.376  12.210  0.2288  0.5400 -0.8384
19897TIP3   OH281181   3.110   3.857  16.453  0.1984  0.0862 -0.3597
19897TIP3    H181182   3.035   3.815  16.412  1.6757 -1.5827 -1.5027
19897TIP3    H281183   3.176   3.862  16.384  1.1907  1.4275  0.6144
19898TIP3   OH281184   5.395   0.970   6.801 -0.0938 -0.0759  0.4758
19898TIP3    H181185   5.453   1.005   6.733  0.6553  0.6355  1.4583
19898TIP3    H281186   5.454   0.934   6.867 -0.8008 -0.3193  0.9822
19899TIP3   OH281187   2.105   1.039  11.923  0.6861 -0.0769 -0.2647
19899TIP3    H181188   2.063   0.989  11.992 -1.8919  0.3120 -1.4626
19899TIP3    H281189   2.096   1.130  11.950 -0.8507  0.1166 -1.3248
19900TIP3   OH281190   2.058   6.678  16.894  0.0386  0.2330 -0.4827
19900TIP3    H181191   1.969   6.648  16.913  0.6756 -1.4923  0.0066
19900TIP3    H281192   2.071   6.653  16.802 -0.2229  1.1661 -0.7825
19901TIP3   OH281193   1.132   4.187  13.998 -0.2206  0.2178 -0.6808
19901TIP3    H181194   1.055   4.239  13.975  0.1186  0.4778 -1.2577
19901TIP3    H281195   1.191   4.250  14.041 -0.2396  0.0716 -0.4415
19902TIP3   OH281196   0.121   0.031  11.278  0.3254  0.0013  0.2547
19902TIP3    H181197   0.173  -0.016  11.212  1.2988 -1.9134  2.2631
19902TIP3    H281198   0.152   0.122  11.273  1.5517 -0.4433 -0.7945
19903TIP3   OH281199   0.737   1.764  13.986  0.2407 -0.1464 -0.2953
19903TIP3    H181200   0.684   1.839  14.014  1.0311 -0.0036  0.9123
19903TIP3    H281201   0.779   1.792  13.905  0.2662  0.5947 -0.0294
19904TIP3   OH281202   4.104   1.619  12.103 -0.4243 -0.1566  0.2393
19904TIP3    H181203   4.096   1.647  12.011  0.4331  0.2217  0.2747
19904TIP3    H281204   4.156   1.539  12.100  0.5448  0.4460  0.4733
19905TIP3   OH281205   2.619   3.296   1.200  0.0409  0.1839  0.1875
19905TIP3    H181206   2.636   3.206   1.174  1.9809 -0.0724  2.0738
19905TIP3    H281207   2.564   3.331   1.131 -0.2336 -2.2483 -0.9156
19906TIP3   OH281208   5.795   3.287   2.453 -0.0440 -0.1537 -0.8537
19906TIP3    H181209   5.803   3.262   2.545  0.6595 -0.3435 -0.9607
19906TIP3    H281210   5.775   3.380   2.455  1.3097  0.1582 -0.5222
19907TIP3   OH281211   6.610   0.519   0.246 -0.1178  0.2304 -0.4627
19907TIP3    H181212   6.674   0.586   0.224 -0.7714  0.7787 -0.6936
19907TIP3    H281213   6.529   0.566   0.263 -0.7257 -0.5326 -1.1460
19908TIP3   OH281214   2.011   2.116   2.450  0.4499 -0.2744  0.3815
19908TIP3    H181215   2.021   2.125   2.545 -0.7547 -1.1897  0.6200
19908TIP3    H281216   1.946   2.182   2.426  0.4833 -0.2885  0.2506
19909TIP3   OH281217   2.233   5.217   3.625 -0.7189 -0.3698  0.2214
19909TIP3    H181218   2.279   5.296   3.655 -1.5019 -0.9776  3.3443
19909TIP3    H281219   2.293   5.145   3.646 -1.2032 -0.8186  0.0809
19910TIP3   OH281220   2.368   0.281  14.608  0.2917 -0.3640  0.1039
19910TIP3    H181221   2.400   0.312  14.693  2.4191 -0.5587 -0.5845
19910TIP3    H281222   2.273   0.279  14.618  0.4006  1.0565  1.9896
19911TIP3   OH281223   3.399   5.363  14.359 -0.0380  0.3061  0.2300
19911TIP3    H181224   3.467   5.346  14.424 -1.4167  1.0789  1.9461
19911TIP3    H281225   3.389   5.458  14.359  0.2827  0.3721 -1.5242
19912TIP3   OH281226   4.894   4.212  12.079 -0.4949  0.1981 -0.0273
19912TIP3    H181227   4.889   4.212  11.983  2.5132 -1.6941 -0.3501
19912TIP3    H281228   4.922   4.301  12.102 -1.9748  0.8866 -0.7939
19913TIP3   OH281229   4.961   3.781   3.712  0.1146  1.1249  0.1385
19913TIP3    H181230   5.009   3.849   3.664 -1.4999  0.8997 -1.9539
19913TIP3    H281231   5.014   3.702   3.701  1.5824  1.8101  1.8827
19914TIP3   OH281232   4.679   4.353   4.829 -0.3434 -0.1903  0.1509
19914TIP3    H181233   4.625   4.394   4.762  1.0964 -0.6018 -1.3442
19914TIP3    H281234   4.625   4.281   4.862 -1.5779  0.8129  0.3969
19915TIP3   OH281235   0.451   4.171   5.892 -0.1491  0.5477  0.2943
19915TIP3    H181236   0.535   4.159   5.937 -0.9911  1.0975  2.1395
19915TIP3    H281237   0.404   4.089   5.905  0.6201 -0.3413 -2.0586
19916TIP3   OH281238   3.530   6.144   1.396 -0.1061 -0.2777  0.4031
19916TIP3    H181239   3.434   6.149   1.393 -0.0821 -0.0477 -1.6862
19916TIP3    H281240   3.549   6.100   1.478 -2.0283 -0.8252  0.6191
19917TIP3   OH281241   3.215   0.387  11.192  0.3133 -0.0818  1.0734
19917TIP3    H181242   3.235   0.478  11.212 -0.6001  0.4076 -0.1121
19917TIP3    H281243   3.295   0.353  11.151  0.7788  0.0673  1.8394
19918TIP3   OH281244   6.473   0.554  10.455  0.6133 -0.1017 -0.4318
19918TIP3    H181245   6.519   0.470  10.457  0.1792 -0.3540 -0.7508
19918TIP3    H281246   6.533   0.614  10.410 -0.2284 -0.9785 -2.8770
19919TIP3   OH281247   3.242   0.588  13.697 -0.1815 -0.0603 -0.6238
19919TIP3    H181248   3.257   0.582  13.602  1.1197  0.0445 -0.4415
19919TIP3    H281249   3.227   0.497  13.724  3.0293 -0.6235 -0.4121
19920TIP3   OH281250   4.294   3.764   4.581 -0.3123 -0.2337 -0.5426
19920TIP3    H181251   4.356   3.750   4.509 -0.3889  0.4158 -0.7402
19920TIP3    H281252   4.209   3.773   4.538 -0.3312  0.3462 -0.3846
19921TIP3   OH281253   2.932   5.129  12.015 -0.1517  0.3385 -0.2448
19921TIP3    H181254   2.990   5.055  12.034  1.4074  1.6660  0.3638
19921TIP3    H281255   2.874   5.134  12.091  0.7808  0.6982  0.4593
19922TIP3   OH281256   6.585   3.313  15.664  0.0245  0.0846  0.1093
19922TIP3    H181257   6.588   3.322  15.759 -0.6848 -1.5901  0.3294
19922TIP3    H281258   6.651   3.247  15.644  1.3314  1.6106 -0.7730
19923TIP3   OH281259   0.412   5.174  11.339  0.5022 -0.3279 -0.0130
19923TIP3    H181260   0.452   5.125  11.267 -0.9588 -1.7308  0.0693
19923TIP3    H281261   0.320   5.150  11.336  0.3658 -0.3277  2.2448
19924TIP3   OH281262   2.076   0.110   2.970  0.1670 -0.1243 -0.8150
19924TIP3    H181263   2.067   0.064   2.887  1.2449 -1.1521 -0.3793
19924TIP3    H281264   1.993   0.097   3.015 -0.2637  0.0830 -1.5495
19925TIP3   OH281265   4.557   3.851  16.515  0.1536  0.4885 -1.0833
19925TIP3    H181266   4.506   3.775  16.541  1.5539 -0.5254 -1.2036
19925TIP3    H281267   4.515   3.925  16.559  0.2086 -0.6576  1.0051
19926TIP3   OH281268   6.666   0.722  14.918  0.0432  0.4952  0.2448
19926TIP3    H181269   6.589   0.778  14.911 -0.8143 -0.4050  1.8827
19926TIP3    H281270   6.719   0.744  14.841 -2.4133  0.3012 -1.6111
19927TIP3   OH281271   3.561   1.453   0.299  0.4971 -0.1446  0.0946
19927TIP3    H181272   3.640   1.425   0.344  1.5495  0.5279 -1.2787
19927TIP3    H281273   3.493   1.392   0.329  1.8601 -1.7010  0.1124
19928TIP3   OH281274   0.728   5.510   2.777  0.2197 -0.2188 -0.1919
19928TIP3    H181275   0.776   5.482   2.699  2.5153  1.0127  0.6595
19928TIP3    H281276   0.750   5.603   2.787  0.6619 -0.4957  2.2994
19929TIP3   OH281277   3.663   3.143   2.123  0.6329 -0.4055 -0.9535
19929TIP3    H181278   3.642   3.218   2.179  1.0329 -0.5334 -0.6285
19929TIP3    H281279   3.577   3.109   2.097  0.4043 -0.9712  0.4289
19930TIP3   OH281280   0.219   1.847   6.700  0.0008 -0.2411  0.3266
19930TIP3    H181281   0.169   1.844   6.618  2.5098  0.9649 -1.4185
19930TIP3    H281282   0.182   1.921   6.749 -0.4454  0.1386 -0.5603
19931TIP3   OH281283   1.093   4.522   1.387 -0.2730  0.6606  0.7487
19931TIP3    H181284   1.016   4.552   1.338  0.9723  0.6275 -1.3409
19931TIP3    H281285   1.060   4.502   1.474 -2.6926  0.3426 -0.1786
19932TIP3   OH281286   5.789   2.415  10.819 -0.7389  0.0228 -0.0733
19932TIP3    H181287   5.716   2.365  10.853 -0.8189  0.5537  0.5620
19932TIP3    H281288   5.787   2.497  10.869  0.4678 -0.0795  0.1732
19933TIP3   OH281289   4.918   0.446   2.426 -0.1085 -0.5514  0.3801
19933TIP3    H181290   4.919   0.493   2.509  0.0196  0.3385 -0.1205
19933TIP3    H281291   5.000   0.396   2.426 -0.1000 -0.5413  0.7743
19934TIP3   OH281292   3.405   2.349  16.787  0.5707 -0.0324  0.2655
19934TIP3    H181293   3.489   2.304  16.779  0.0666 -0.8911 -0.4169
19934TIP3    H281294   3.345   2.282  16.820 -0.7738 -0.6506 -3.0646
19935TIP3   OH281295   6.465   5.593   5.062 -0.3192 -0.1535  0.0215
19935TIP3    H181296   6.507   5.591   4.976  0.0938  1.1224  0.1688
19935TIP3    H281297   6.490   5.678   5.099 -2.4163  0.3475  0.4288
19936TIP3   OH281298   5.603   0.823   2.690  0.4526 -0.2990 -0.3428
19936TIP3    H181299   5.686   0.775   2.702  1.2768  0.9042 -1.0488
19936TIP3    H281300   5.606   0.855   2.600 -0.7564 -0.1528 -0.3470
19937TIP3   OH281301   6.329   0.017  15.977  0.3524 -0.8345 -0.0284
19937TIP3    H181302   6.362   0.039  16.064  0.2133 -2.2419  0.4058
19937TIP3    H281303   6.395   0.050  15.917  0.0931  0.8376  0.5446
19938TIP3   OH281304   0.439   1.771  12.567  0.5481 -0.2037  0.4376
19938TIP3    H181305   0.421   1.786  12.660  2.3697 -0.6514  0.9096
19938TIP3    H281306   0.531   1.746  12.564  1.2263  2.0672 -1.7359
19939TIP3   OH281307   6.007   1.762  11.772 -0.1143 -0.0532 -0.4991
19939TIP3    H181308   5.986   1.834  11.832  2.4642  1.0198 -0.7739
19939TIP3    H281309   6.016   1.686  11.830  2.5189  0.9966  0.6445
19940TIP3   OH281310   2.140   4.954   4.287 -0.5289 -0.3151 -0.5087
19940TIP3    H181311   2.061   4.992   4.248 -1.2025 -0.9316  0.2062
19940TIP3    H281312   2.125   4.960   4.382  0.0106 -0.9787 -0.3762
19941TIP3   OH281313   3.116   4.701  15.418  0.1184 -0.5510  0.6511
19941TIP3    H181314   3.201   4.676  15.453 -0.0959 -1.3079  0.6388
19941TIP3    H281315   3.120   4.678  15.325  0.0829 -0.1022  0.5344
19942TIP3   OH281316   0.751   1.133   4.137 -1.4535  0.3872  0.5258
19942TIP3    H181317   0.803   1.203   4.176 -2.0530  1.2753 -0.2263
19942TIP3    H281318   0.709   1.089   4.211  0.0024 -0.0668  1.1050
19943TIP3   OH281319   1.514   5.157  16.931 -0.1470 -0.9650  0.3945
19943TIP3    H181320   1.464   5.238  16.939  1.7614  0.5251 -1.6236
19943TIP3    H281321   1.496   5.126  16.843  0.1615 -2.0569  0.6979
19944TIP3   OH281322   4.804   3.678   5.934  0.0738  0.4394  0.0396
19944TIP3    H181323   4.774   3.624   6.006 -0.9343  1.7672  0.6487
19944TIP3    H281324   4.899   3.680   5.944 -0.0359  0.4689  1.2336
19945TIP3   OH281325   0.615   4.009   0.568 -0.1498 -0.1739 -0.1781
19945TIP3    H181326   0.547   4.006   0.635 -0.0322 -2.1890 -0.0758
19945TIP3    H281327   0.582   3.954   0.497  0.7581 -0.0413 -0.7213
19946TIP3   OH281328   6.142   0.422  15.213  0.1606  0.2220 -0.4068
19946TIP3    H181329   6.074   0.393  15.274  0.3783  1.8545  0.6756
19946TIP3    H281330   6.110   0.507  15.181 -0.8726 -1.3492 -4.1029
19947TIP3   OH281331   3.141   6.101   3.243  0.0387 -0.2981  0.5342
19947TIP3    H181332   3.075   6.067   3.302  0.3710  0.0270  1.0995
19947TIP3    H281333   3.207   6.140   3.300 -0.3409  1.3289 -0.0887
19948TIP3   OH281334   0.501   0.504  15.182  0.1876  0.5264 -0.1502
19948TIP3    H181335   0.550   0.454  15.117 -0.7677 -0.2029 -0.3307
19948TIP3    H281336   0.492   0.591  15.142  2.2485  1.0306  0.3681
19949TIP3   OH281337   1.147   3.283   0.781 -0.7121  0.3375  0.3566
19949TIP3    H181338   1.204   3.258   0.854  0.0591 -0.9820 -0.6561
19949TIP3    H281339   1.058   3.278   0.818 -0.4157 -1.3783  0.9375
19950TIP3   OH281340   0.850   2.628  15.617  0.8526  0.3182  0.1062
19950TIP3    H181341   0.767   2.668  15.591  0.7715  0.6571  0.8620
19950TIP3    H281342   0.911   2.649  15.545  0.3608  0.3039 -0.3164
19951TIP3   OH281343   5.469   4.827   1.125 -0.2657  0.5302  0.4954
19951TIP3    H181344   5.436   4.895   1.183 -1.4256  0.8178 -0.4660
19951TIP3    H281345   5.420   4.838   1.044 -0.8056 -1.6891  0.4315
19952TIP3   OH281346   5.147   3.423   2.356 -0.6519 -0.2900 -0.4056
19952TIP3    H181347   5.193   3.435   2.273  1.7436  1.4374  1.0517
19952TIP3    H281348   5.091   3.500   2.364 -0.6125 -0.2727 -0.2839
19953TIP3   OH281349   0.251   1.255  13.781 -0.1110  0.4789 -0.3472
19953TIP3    H181350   0.241   1.314  13.706  0.2624  0.1500 -0.6633
19953TIP3    H281351   0.234   1.310  13.857 -1.3634  0.6248 -0.7024
19954TIP3   OH281352   2.397   5.391  14.526 -0.3110 -0.4073  0.1297
19954TIP3    H181353   2.304   5.373  14.535 -0.2163 -2.1503 -1.5694
19954TIP3    H281354   2.408   5.414  14.434  0.9662 -0.4003  0.2661
19955TIP3   OH281355   4.329   2.342  15.290 -0.0669  0.1280  0.4710
19955TIP3    H181356   4.333   2.437  15.277  0.6249  0.0574  0.1163
19955TIP3    H281357   4.254   2.314  15.237  0.5894  0.3049 -0.5873
19956TIP3   OH281358   3.275   0.209  16.502 -0.3136 -0.5294  0.8439
19956TIP3    H181359   3.303   0.299  16.519  1.9477 -0.2257 -3.2472
19956TIP3    H281360   3.319   0.157  16.570  0.3553  1.1916  1.7904
19957TIP3   OH281361   2.582   1.134  11.386  0.2726  0.7048  0.0443
19957TIP3    H181362   2.559   1.077  11.459  1.3162  0.1984  0.0058
19957TIP3    H281363   2.539   1.217  11.404  0.6898  0.6510  1.3353
19958TIP3   OH281364   3.954   4.772   5.699  0.5370 -0.1025  0.4946
19958TIP3    H181365   4.030   4.786   5.642  0.6326 -1.7268  0.1795
19958TIP3    H281366   3.879   4.769   5.639  0.6627 -2.0399  0.3680
19959TIP3   OH281367   2.137   4.369  10.862 -0.9741 -0.2660  0.3185
19959TIP3    H181368   2.221   4.402  10.891 -0.3557  0.6501 -2.2552
19959TIP3    H281369   2.081   4.447  10.857 -0.8004 -0.2169 -1.5931
19960TIP3   OH281370   0.552   2.345   2.667 -0.3188 -0.3034  0.0803
19960TIP3    H181371   0.598   2.391   2.737 -0.3791  0.1407 -0.1703
19960TIP3    H281372   0.465   2.326   2.703 -0.0645 -0.8365  0.4302
19961TIP3   OH281373   0.715   5.673   0.837 -0.1152 -0.2335 -0.4785
19961TIP3    H181374   0.624   5.641   0.842  0.4323 -1.7663  0.7065
19961TIP3    H281375   0.741   5.682   0.928  0.7086  0.8854 -0.8185
19962TIP3   OH281376   6.477   2.067  11.359  0.1760 -0.1270 -0.0105
19962TIP3    H181377   6.448   2.079  11.449 -0.9287  0.9465 -0.4785
19962TIP3    H281378   6.416   2.002  11.323  0.2339 -0.1018 -0.1556
19963TIP3   OH281379   4.567   1.569  12.697  0.4698 -0.7081 -0.0703
19963TIP3    H181380   4.618   1.645  12.726 -0.5487  1.7896 -4.0869
19963TIP3    H281381   4.478   1.588  12.726  0.1784 -0.1991 -1.2496
19964TIP3   OH281382   4.270   5.460   4.297 -0.4890  0.2072 -0.7867
19964TIP3    H181383   4.176   5.459   4.318 -0.6358  0.4807 -1.4041
19964TIP3    H281384   4.302   5.543   4.332 -0.2824 -0.2806  0.2128
19965TIP3   OH281385   0.063   3.865   4.506  0.0067  0.3279 -0.1383
19965TIP3    H181386   0.146   3.857   4.554 -1.8367 -3.1658  2.9536
19965TIP3    H281387   0.079   3.818   4.424  1.6545  1.7254 -0.6958
19966TIP3   OH281388   2.235   3.583   4.840  0.2928  0.1203 -0.1219
19966TIP3    H181389   2.176   3.599   4.913 -0.5280 -1.4178 -0.4079
19966TIP3    H281390   2.305   3.528   4.876  0.4953  0.2953 -0.2421
19967TIP3   OH281391   0.395   3.649   5.228 -0.1824  0.0011 -0.3143
19967TIP3    H181392   0.487   3.669   5.246 -0.3238 -0.1089  0.6034
19967TIP3    H281393   0.397   3.595   5.149  0.5861 -0.4170 -0.0217
19968TIP3   OH281394   5.342   0.773   4.583 -0.6278  0.0987 -0.1275
19968TIP3    H181395   5.366   0.768   4.491 -2.5425 -0.5964 -0.6243
19968TIP3    H281396   5.382   0.855   4.613  0.5628  0.0237 -1.3748
19969TIP3   OH281397   4.053   4.704  12.358 -0.1529  0.7744 -0.6538
19969TIP3    H181398   4.016   4.701  12.270 -1.7219 -2.1035 -0.0085
19969TIP3    H281399   3.983   4.743  12.411  0.7133  2.3204 -0.5817
19970TIP3   OH281400   1.003   3.238  13.785 -0.2626 -0.5654  0.3725
19970TIP3    H181401   1.045   3.312  13.741  1.0014 -1.7311 -0.4452
19970TIP3    H281402   0.928   3.217  13.729 -0.6359  0.0721  0.6129
19971TIP3   OH281403   1.629   0.108   3.456 -0.4500  0.7230 -0.1057
19971TIP3    H181404   1.566   0.074   3.393 -2.2787 -0.6390  2.2904
19971TIP3    H281405   1.580   0.172   3.507  0.4888  0.6095  0.9802
19972TIP3   OH281406   6.072   2.474  10.349  0.9487  0.3561 -0.2749
19972TIP3    H181407   6.057   2.467  10.443 -0.0043  1.8343 -0.2922
19972TIP3    H281408   6.149   2.530  10.340  2.6615 -1.8846 -0.3578
19973TIP3   OH281409   0.321   6.469   4.158 -0.1278  0.0872 -0.4145
19973TIP3    H181410   0.254   6.535   4.175 -2.2359 -1.4161 -2.2751
19973TIP3    H281411   0.375   6.506   4.089  0.9520  1.2569  1.0071
19974TIP3   OH281412   1.875   2.839  15.347 -0.5277  0.3083  0.1720
19974TIP3    H181413   1.910   2.927  15.361  0.7878 -0.1682 -0.0101
19974TIP3    H281414   1.782   2.846  15.370 -1.2069  2.4718 -2.6208
19975TIP3   OH281415   0.702   2.556   5.248 -0.2349  0.5557  0.2793
19975TIP3    H181416   0.722   2.505   5.327 -0.0200 -1.0485 -0.7784
19975TIP3    H281417   0.670   2.491   5.185 -3.0870  2.1631 -0.0924
19976TIP3   OH281418   5.566   1.573   2.510  0.4323  0.4569  0.0009
19976TIP3    H181419   5.628   1.563   2.583  1.4244  0.9368 -0.7486
19976TIP3    H281420   5.611   1.533   2.435 -0.5500  0.0258 -0.3746
19977TIP3   OH281421   4.847   3.022  13.947  0.1665  0.3697 -0.3346
19977TIP3    H181422   4.828   2.974  14.028  1.6166 -1.8239 -1.2090
19977TIP3    H281423   4.784   3.094  13.947 -2.2579 -1.6009  1.0084
19978TIP3   OH281424   5.748   2.128   5.401  0.6002  0.2300  0.3043
19978TIP3    H181425   5.725   2.044   5.362  0.3434  0.3226  0.2477
19978TIP3    H281426   5.667   2.156   5.444  0.9283  0.0547  1.0387
19979TIP3   OH281427   1.590   3.020  11.789  0.4142  0.0235 -0.1452
19979TIP3    H181428   1.540   3.033  11.709  1.2913  0.3780 -0.6484
19979TIP3    H281429   1.640   2.940  11.773  0.5018  0.0291  0.0916
19980TIP3   OH281430   0.774   3.931  16.488 -0.2053 -0.1516 -0.0235
19980TIP3    H181431   0.679   3.932  16.475 -0.1129 -1.1397 -0.9356
19980TIP3    H281432   0.787   3.882  16.570 -0.4385 -1.0667 -0.5238
19981TIP3   OH281433   2.387   2.617   5.159 -0.6261  0.0426  0.1757
19981TIP3    H181434   2.422   2.705   5.144 -0.1262 -0.1601  0.1213
19981TIP3    H281435   2.350   2.591   5.075 -0.0735 -0.1023 -0.0289
19982TIP3   OH281436   6.532   3.279  17.002  0.2528 -0.4119  0.0826
19982TIP3    H181437   6.579   3.223  16.940 -0.5411 -0.3084 -0.6419
19982TIP3    H281438   6.592   3.290  17.076  1.5063  0.0347 -0.9727
19983TIP3   OH281439   0.190   4.396   3.588 -0.3181  0.0154 -0.0570
19983TIP3    H181440   0.109   4.401   3.538 -0.0500 -1.4557 -0.7155
19983TIP3    H281441   0.169   4.434   3.673 -1.8231 -0.7425 -0.0587
19984TIP3   OH281442   4.672   2.575   4.759  0.0437 -0.3808  0.6335
19984TIP3    H181443   4.766   2.559   4.758  0.0384 -0.4601 -0.5706
19984TIP3    H281444   4.634   2.499   4.716 -0.4502  0.2531 -0.0786
19985TIP3   OH281445   5.494   1.647   1.248 -0.0940  0.4540  0.1993
19985TIP3    H181446   5.448   1.699   1.182  1.3784  0.8079 -0.5901
19985TIP3    H281447   5.438   1.571   1.261  0.5983 -0.8354 -3.2375
19986TIP3   OH281448   0.630   1.859   3.212  0.3041  0.5594  0.5478
19986TIP3    H181449   0.641   1.918   3.138 -1.8338  0.2712 -0.0617
19986TIP3    H281450   0.592   1.780   3.174  1.2581 -0.4693  1.6522
19987TIP3   OH281451   4.773   5.055  14.201 -0.3030 -0.4699  0.5351
19987TIP3    H181452   4.735   5.141  14.184  0.8353  0.0300  0.4097
19987TIP3    H281453   4.755   5.004  14.122 -0.8801 -0.3106  0.5627
19988TIP3   OH281454   4.848   1.770   2.029 -0.5363  0.1799  0.7201
19988TIP3    H181455   4.916   1.832   2.006  1.5656 -2.5541 -1.0376
19988TIP3    H281456   4.775   1.791   1.971  0.5983  0.3056 -0.7165
19989TIP3   OH281457   2.335   3.309  11.086  0.2612 -0.0701 -0.2905
19989TIP3    H181458   2.244   3.321  11.060  0.2256 -0.5237 -0.3862
19989TIP3    H281459   2.381   3.288  11.004  0.2453 -0.9628 -0.0894
19990TIP3   OH281460   5.700   3.602   1.595 -0.7945 -0.1107 -0.5519
19990TIP3    H181461   5.789   3.637   1.599 -0.9206  0.1654 -0.0839
19990TIP3    H281462   5.647   3.665   1.645 -1.4841  0.4321 -1.9132
19991TIP3   OH281463   3.430   6.352  15.357  0.4821  0.1266 -0.1335
19991TIP3    H181464   3.504   6.408  15.335  0.2462  0.6405  0.3441
19991TIP3    H281465   3.353   6.408  15.345  0.2384 -0.1132  0.2706
19992TIP3   OH281466   0.629   1.336  12.091 -0.1392  0.2206 -0.1026
19992TIP3    H181467   0.667   1.411  12.046 -0.7598 -0.0035 -1.0371
19992TIP3    H281468   0.674   1.260  12.053  0.0432  0.0822  0.3840
19993TIP3   OH281469   0.469   4.231   0.891  0.2074 -0.3102  0.0701
19993TIP3    H181470   0.532   4.162   0.912 -0.4966 -0.7614  0.7593
19993TIP3    H281471   0.397   4.216   0.952  0.5145  1.7016  0.9889
19994TIP3   OH281472   6.707   3.653  11.079 -0.1491 -0.4683  0.7500
19994TIP3    H181473   6.698   3.741  11.043 -1.6702 -0.6181  0.7216
19994TIP3    H281474   6.664   3.657  11.164  0.3999 -1.0202  1.0663
19995TIP3   OH281475   5.747   1.307  14.217  0.2614 -0.1914  0.5477
19995TIP3    H181476   5.675   1.353  14.173  1.3227  0.0919 -0.9742
19995TIP3    H281477   5.706   1.230  14.256 -1.4553  1.5886  2.5838
19996TIP3   OH281478   5.065   0.884   5.952  0.2461  0.0498 -0.0867
19996TIP3    H181479   5.042   0.960   6.004  0.7244  0.2479 -0.1651
19996TIP3    H281480   4.981   0.852   5.918  0.1490  1.2507 -1.0312
19997TIP3   OH281481   1.097   2.827  12.203 -0.0913 -0.4970 -0.2521
19997TIP3    H181482   1.130   2.737  12.201  1.1103 -0.0719 -1.2007
19997TIP3    H281483   1.002   2.818  12.209  0.0968 -1.7964  1.7696
19998TIP3   OH281484   5.375   3.346   5.661 -0.4174 -0.3089  0.1848
19998TIP3    H181485   5.345   3.263   5.625 -2.8482  0.8359 -0.6407
19998TIP3    H281486   5.406   3.395   5.585  0.1127 -0.0983  0.5318
19999TIP3   OH281487   4.585   5.032   5.419 -0.0489 -0.0826  0.1456
19999TIP3    H181488   4.680   5.026   5.426 -0.0613 -0.7764 -0.1511
19999TIP3    H281489   4.560   5.097   5.484  0.5175 -0.8378  1.1566
20000TIP3   OH281490   3.537   5.724  15.110  0.3357 -0.0017  0.3895
20000TIP3    H181491   3.571   5.748  15.196  0.2361 -0.1319  0.4653
20000TIP3    H281492   3.497   5.804  15.076  0.2969  0.0258  0.5014
20001TIP3   OH281493   6.184   6.525  13.828  0.6598  0.0542 -0.3472
20001TIP3    H181494   6.199   6.561  13.740  3.5483  0.6872  0.2918
20001TIP3    H281495   6.138   6.442  13.812 -0.2436  0.8731 -2.3083
20002TIP3   OH281496   5.855   4.576   6.088 -0.1744 -0.0065 -0.1958
20002TIP3    H181497   5.928   4.639   6.089 -1.5616  1.6650  0.9382
20002TIP3    H281498   5.822   4.579   5.998  0.7060 -0.2600 -0.5385
20003TIP3   OH281499   3.139   5.598   0.468  0.0916  0.8762  0.3237
20003TIP3    H181500   3.112   5.520   0.518  1.4351  0.2577  0.1404
20003TIP3    H281501   3.161   5.662   0.535 -0.3668  0.8604  0.4908
20004TIP3   OH281502   1.706   5.752  16.526  0.2871  0.1434  0.6426
20004TIP3    H181503   1.675   5.723  16.611 -0.1877  0.3496  0.5488
20004TIP3    H281504   1.696   5.848  16.529  0.2178  0.1466  0.3420
20005TIP3   OH281505   6.057   4.602   3.183  0.0928  0.3456  0.4856
20005TIP3    H181506   6.069   4.696   3.201 -0.6764  0.1450  2.2472
20005TIP3    H281507   5.983   4.599   3.123  0.6720  0.8884 -0.2860
20006TIP3   OH281508   1.097   2.082  11.452 -0.0305 -0.4083 -0.0420
20006TIP3    H181509   1.050   2.080  11.368  1.2064 -0.7500 -0.7497
20006TIP3    H281510   1.139   2.168  11.454  0.7116 -0.7543 -0.2319
20007TIP3   OH281511   6.300   0.686  12.856  0.8897 -0.0115  0.3001
20007TIP3    H181512   6.275   0.719  12.771  0.4440  1.5757  1.0140
20007TIP3    H281513   6.338   0.761  12.901  1.0985 -0.8087  1.5134
20008TIP3   OH281514   0.596   2.680   3.162 -0.2838  0.2421 -0.0437
20008TIP3    H181515   0.555   2.626   3.095 -0.3961 -1.0226  0.9984
20008TIP3    H281516   0.578   2.635   3.245  2.7922 -0.1820  0.5390
20009TIP3   OH281517   5.211   3.426  14.723 -0.0326 -0.4228  0.6669
20009TIP3    H181518   5.225   3.350  14.666  0.5644  0.8389 -0.9126
20009TIP3    H281519   5.150   3.481  14.675  1.1940  1.1080  0.8095
20010TIP3   OH281520   4.241   6.427  17.081 -0.5168 -0.3842 -0.1427
20010TIP3    H181521   4.213   6.340  17.051  1.0345 -0.8655 -0.3232
20010TIP3    H281522   4.312   6.409  17.143 -1.1612  0.7272  0.9551
20011TIP3   OH281523   2.026   4.659  17.053  0.3546  0.0826  0.5739
20011TIP3    H181524   1.952   4.688  17.106  0.1296  0.8550 -0.1525
20011TIP3    H281525   2.088   4.731  17.057  0.9819 -0.4623  0.9862
20012TIP3   OH281526   0.485   5.223   5.887 -0.1085 -0.0287 -0.6253
20012TIP3    H181527   0.571   5.218   5.928 -0.8919 -0.0369  1.0977
20012TIP3    H281528   0.425   5.191   5.954 -1.5667  0.9958 -1.4009
20013TIP3   OH281529   5.701   1.927   1.014  0.3023 -0.6876 -0.1368
20013TIP3    H181530   5.611   1.956   1.031  0.5843 -0.8663  1.8586
20013TIP3    H281531   5.728   1.977   0.937 -1.0606  0.3482  0.0266
20014TIP3   OH281532   4.707   1.927  16.986  0.2728  0.2756 -0.0005
20014TIP3    H181533   4.626   1.955  16.944  0.2083 -1.5553 -1.2356
20014TIP3    H281534   4.710   1.974  17.069 -0.7820  2.2580 -1.0414
20015TIP3   OH281535   6.151   4.470   3.994 -0.7370  0.1511 -0.9030
20015TIP3    H181536   6.160   4.378   4.018 -0.6686  0.6328  1.0673
20015TIP3    H281537   6.214   4.483   3.923  1.3611 -0.6579  0.7234
20016TIP3   OH281538   2.874   5.252  13.075  0.0445 -0.1625 -0.0392
20016TIP3    H181539   2.798   5.308  13.056 -0.9609 -2.0839 -2.1711
20016TIP3    H281540   2.940   5.312  13.109 -0.9713  2.3417 -2.1626
20017TIP3   OH281541   4.685   2.633   0.113  0.2316  0.7924  0.1389
20017TIP3    H181542   4.768   2.594   0.140  0.4319  0.4793 -0.8711
20017TIP3    H281543   4.627   2.622   0.188  0.6583 -0.3266  0.3169
20018TIP3   OH281544   3.698   0.299  14.487 -0.5089  0.0588 -0.0370
20018TIP3    H181545   3.682   0.206  14.501 -0.8621  0.0880 -0.2321
20018TIP3    H281546   3.772   0.303  14.426  1.2917 -0.0727  2.0117
20019TIP3   OH281547   5.565   1.353  12.143  0.2262 -0.1867 -0.1087
20019TIP3    H181548   5.614   1.436  12.141  0.6073 -0.0859  3.8604
20019TIP3    H281549   5.629   1.287  12.116  1.7721  0.3081  2.0118
20020TIP3   OH281550   5.869   1.537   3.989  0.1248  0.3501 -0.5312
20020TIP3    H181551   5.962   1.533   4.011 -0.2012  0.4122  1.0167
20020TIP3    H281552   5.835   1.451   4.014 -0.1915  0.2346 -1.3372
20021TIP3   OH281553   3.489   5.551  13.601 -0.0900  0.3343 -0.6168
20021TIP3    H181554   3.461   5.639  13.576  0.6488  0.3916 -1.3084
20021TIP3    H281555   3.585   5.555  13.598  0.0040  0.0085  1.1698
20022TIP3   OH281556   5.522   3.716   4.486 -0.6474 -0.0010 -0.4185
20022TIP3    H181557   5.608   3.759   4.490 -0.5100 -0.3916  1.4266
20022TIP3    H281558   5.532   3.638   4.540 -2.2992  0.1812  0.1961
20023TIP3   OH281559   2.644   6.588  14.427  0.2585 -0.3680 -0.8676
20023TIP3    H181560   2.613   6.664  14.378  0.3396  1.1622  1.3046
20023TIP3    H281561   2.597   6.592  14.510  2.2696 -1.0922  0.3873
20024TIP3   OH281562   2.029   1.146  11.669 -0.6943  0.3912  0.2911
20024TIP3    H181563   2.044   1.099  11.751 -0.4535 -0.3857 -0.1846
20024TIP3    H281564   2.031   1.078  11.601 -2.8238  0.7031 -0.1882
20025TIP3   OH281565   6.020   3.091  12.558 -0.4252  0.7291 -0.5226
20025TIP3    H181566   5.960   3.153  12.600 -0.1824  0.1729  0.6742
20025TIP3    H281567   5.980   3.074  12.472 -3.1989 -1.2740  0.9933
20026TIP3   OH281568   3.929   3.075  12.629  0.6719 -0.1186 -0.4523
20026TIP3    H181569   3.848   3.081  12.679  1.9876 -0.5338  1.8905
20026TIP3    H281570   3.964   3.164  12.628 -0.1468  0.2128 -2.1361
20027TIP3   OH281571   4.851   0.600  11.521  0.5745  0.0292 -0.1340
20027TIP3    H181572   4.775   0.650  11.550 -0.0151 -1.4466  0.9891
20027TIP3    H281573   4.925   0.639  11.567  0.0105 -0.5894  1.3416
20028TIP3   OH281574   3.348   1.002  14.510  0.9233 -0.1121  1.0550
20028TIP3    H181575   3.284   0.936  14.484 -0.7464  1.9392 -0.3785
20028TIP3    H281576   3.312   1.040  14.590  1.2380 -0.0444  1.1686
20029TIP3   OH281577   1.076   1.890  11.963  0.3673  0.4445 -0.2585
20029TIP3    H181578   1.057   1.908  11.871  1.0343  3.8837  0.1393
20029TIP3    H281579   1.171   1.879  11.967  0.3698  0.5598  0.0481
20030TIP3   OH281580   1.573   2.802  12.334  0.7880  0.2353  0.1265
20030TIP3    H181581   1.551   2.875  12.276  1.8327 -0.1448 -0.7755
20030TIP3    H281582   1.529   2.824  12.416  1.1275  1.9187 -0.0935
20031TIP3   OH281583   1.353   4.291  16.491  0.0697 -0.3428  0.0863
20031TIP3    H181584   1.437   4.246  16.496 -0.8352 -2.0544  3.2611
20031TIP3    H281585   1.336   4.302  16.397  2.7937 -1.9304 -0.6929
20032TIP3   OH281586   0.566   6.830   2.678  1.0818 -0.4476  0.2880
20032TIP3    H181587   0.496   6.810   2.616  1.6484 -0.1002 -0.4877
20032TIP3    H281588   0.567   6.926   2.684  3.6162 -0.1536 -2.3512
20033TIP3   OH281589   2.448   2.231   0.651 -0.0686 -0.6427 -0.0584
20033TIP3    H181590   2.519   2.167   0.650  1.1323  0.6352 -0.8490
20033TIP3    H281591   2.473   2.293   0.719 -1.3438 -1.1219  0.8754
20034TIP3   OH281592   2.939   2.951  16.579 -0.0999  0.4841  0.5245
20034TIP3    H181593   2.864   3.011  16.584 -0.1286  0.5173 -0.2205
20034TIP3    H281594   2.928   2.905  16.496 -0.0919 -0.5802  1.0863
20035TIP3   OH281595   3.340   0.979  12.169  0.3702  0.8073  0.5464
20035TIP3    H181596   3.244   0.985  12.170  0.3368  0.4624  1.9066
20035TIP3    H281597   3.369   1.069  12.155 -0.1416  0.8389 -0.4208
20036TIP3   OH281598   4.316   1.301   2.471  0.1005  0.4142 -0.1855
20036TIP3    H181599   4.246   1.365   2.459  0.3213  0.7650  0.3403
20036TIP3    H281600   4.334   1.268   2.383  0.9025  2.0660 -0.6800
20037TIP3   OH281601   1.081   1.453   1.052 -0.2288  0.5618 -0.3606
20037TIP3    H181602   1.122   1.437   0.967  1.3603 -1.0222  0.6479
20037TIP3    H281603   1.155   1.470   1.112 -1.0837 -1.1585  1.2731
20038TIP3   OH281604   0.840   2.530   0.438  0.3727 -0.1970  0.3400
20038TIP3    H181605   0.831   2.625   0.425  0.2948 -0.3144 -0.5172
20038TIP3    H281606   0.762   2.505   0.488  1.2837  0.4646  2.1964
20039TIP3   OH281607   1.925   4.280  10.421  0.2307 -0.4098 -0.4180
20039TIP3    H181608   1.898   4.189  10.403 -0.8782 -0.2130  0.1691
20039TIP3    H281609   2.007   4.272  10.469 -1.3980 -1.2700  2.4664
20040TIP3   OH281610   1.159   4.796  12.229 -0.2005  0.0474  0.6196
20040TIP3    H181611   1.238   4.793  12.176 -0.5469  0.4139  0.0769
20040TIP3    H281612   1.159   4.884  12.267 -0.9535  0.4706 -0.3291
20041TIP3   OH281613   4.074   1.996   1.435  0.6012  0.0981  0.1533
20041TIP3    H181614   4.065   1.902   1.419 -2.2441 -0.0195  1.7845
20041TIP3    H281615   4.077   2.035   1.347  2.1006 -1.4525 -0.5559
20042TIP3   OH281616   2.454   2.033  15.160  0.2143 -0.5814 -0.2212
20042TIP3    H181617   2.479   1.976  15.232  1.4743 -0.7154 -0.7331
20042TIP3    H281618   2.430   1.973  15.089  0.1180 -0.4720 -0.2807
20043TIP3   OH281619   1.312   1.021   3.854  0.1798 -0.4050 -1.0066
20043TIP3    H181620   1.346   0.948   3.905 -1.8331  0.4051  1.7228
20043TIP3    H281621   1.280   0.981   3.773  0.7092 -2.2581 -0.3366
20044TIP3   OH281622   5.461   5.688  16.185 -0.0218 -0.2627 -0.1897
20044TIP3    H181623   5.479   5.724  16.098 -0.0350  1.8391  0.6346
20044TIP3    H281624   5.366   5.695  16.195 -0.1843 -1.6471 -0.4366
20045TIP3   OH281625   2.397   0.212   3.397  0.0915  0.1573  0.2432
20045TIP3    H181626   2.428   0.221   3.487 -0.1869 -1.1438  0.4894
20045TIP3    H281627   2.369   0.121   3.390  3.3641 -0.8499 -2.2010
20046TIP3   OH281628   5.925   5.181  16.122  0.1011 -0.4036  0.0774
20046TIP3    H181629   5.977   5.260  16.132  1.1388 -0.9998 -0.4454
20046TIP3    H281630   5.841   5.202  16.163  0.6401  0.6776  0.6587
20047TIP3   OH281631   0.792   0.431  11.057  0.3996 -0.0655 -0.1160
20047TIP3    H181632   0.741   0.504  11.093  1.1254 -0.4007  1.7144
20047TIP3    H281633   0.751   0.353  11.094  0.9725 -0.4472 -0.2711
20048TIP3   OH281634   5.730   2.564   5.076  0.0847 -0.1309 -0.5945
20048TIP3    H181635   5.680   2.492   5.037  1.0142 -0.5258 -1.0742
20048TIP3    H281636   5.821   2.545   5.054  0.3867  0.9504 -0.3251
20049TIP3   OH281637   3.502   5.882   0.485  0.3308  0.6599  0.0329
20049TIP3    H181638   3.514   5.970   0.522 -1.1075  0.1377  1.9436
20049TIP3    H281639   3.426   5.890   0.428 -0.5030  0.4855  1.0707
20050TIP3   OH281640   2.984   4.633   0.158 -0.1980  0.3405  0.0520
20050TIP3    H181641   2.937   4.688   0.095  0.3722  0.2750 -0.4337
20050TIP3    H281642   2.961   4.670   0.244  0.8699  1.9027 -0.2884
20051TIP3   OH281643   5.547   0.369  12.633 -0.1758 -0.3126  0.5864
20051TIP3    H181644   5.617   0.419  12.673  0.5814  0.1130 -1.1591
20051TIP3    H281645   5.466   0.413  12.660  0.4544  1.8381 -0.7930
20052TIP3   OH281646   6.141   0.953   3.534 -0.1287 -0.6992  0.1324
20052TIP3    H181647   6.230   0.918   3.543 -0.1823 -1.0308 -0.5979
20052TIP3    H281648   6.084   0.878   3.553 -0.2524 -0.5776  0.2441
20053TIP3   OH281649   5.891   5.006  13.863 -0.0456 -0.2452 -0.2024
20053TIP3    H181650   5.944   5.025  13.785 -2.4506  1.5218 -1.5429
20053TIP3    H281651   5.914   5.075  13.925  1.0826 -1.0274  0.2864
20054TIP3   OH281652   0.419   2.091   3.802  0.5504 -0.3520  0.4772
20054TIP3    H181653   0.503   2.049   3.822  0.4570 -0.2292  1.1384
20054TIP3    H281654   0.428   2.180   3.835 -0.5353 -0.8925  2.3919
20055TIP3   OH281655   0.142   1.621   2.929 -0.8361  0.4626 -0.6337
20055TIP3    H181656   0.174   1.531   2.920 -0.6952  0.6431 -2.1870
20055TIP3    H281657   0.066   1.613   2.987  0.8599 -0.2152  1.6793
20056TIP3   OH281658   1.974   4.697  14.283 -0.2192 -0.6723 -0.1568
20056TIP3    H181659   1.993   4.765  14.347 -1.8788 -2.3163  2.2844
20056TIP3    H281660   2.020   4.724  14.204  2.9359  0.9559  2.0142
20057TIP3   OH281661   6.435   2.906   2.425 -0.6332  0.4232 -0.0881
20057TIP3    H181662   6.453   2.829   2.372 -0.6780  0.0366  0.4440
20057TIP3    H281663   6.368   2.877   2.487 -1.0417  1.0454 -0.2280
20058TIP3   OH281664   2.122   3.480   0.032 -0.5105 -0.3025  0.3661
20058TIP3    H181665   2.172   3.533   0.094 -1.4854  1.9006 -0.6567
20058TIP3    H281666   2.032   3.509   0.041 -0.7266 -0.0781 -1.8694
20059TIP3   OH281667   2.579   0.574   3.673  0.8339 -0.1387 -0.0872
20059TIP3    H181668   2.657   0.623   3.649  0.7503  0.7631  1.3763
20059TIP3    H281669   2.507   0.622   3.630  0.8876  0.2176  0.2184
20060TIP3   OH281670   3.756   3.437   3.270  0.3545  0.1719 -0.0712
20060TIP3    H181671   3.730   3.440   3.362  1.6673 -0.1973  0.3415
20060TIP3    H281672   3.797   3.522   3.254 -0.6899  0.5879 -0.5853
20061TIP3   OH281673   0.269   6.807   3.697 -0.4805 -0.3874 -0.0966
20061TIP3    H181674   0.230   6.722   3.678 -0.9742 -0.3102  0.5151
20061TIP3    H281675   0.257   6.818   3.791 -0.4566  0.3723 -0.1749
20062TIP3   OH281676   5.618   6.852  16.785  0.4604 -0.3873 -0.4322
20062TIP3    H181677   5.591   6.908  16.712  1.0971 -0.2807 -0.5880
20062TIP3    H281678   5.541   6.849  16.841  0.3975  0.6387 -0.4301
20063TIP3   OH281679   5.612   6.750  13.676 -0.0440 -0.3152  0.1338
20063TIP3    H181680   5.702   6.775  13.654  0.1043  0.2599  1.3006
20063TIP3    H281681   5.567   6.746  13.592  0.3795  2.2106 -0.3021
20064TIP3   OH281682   3.397   1.167  15.160  0.6116  0.7309 -0.1438
20064TIP3    H181683   3.332   1.182  15.229  0.5951 -0.3953  0.1045
20064TIP3    H281684   3.357   1.101  15.104  1.5422  0.0337  0.0012
20065TIP3   OH281685   2.534   2.266   4.328 -0.0156  0.8175  0.2687
20065TIP3    H181686   2.490   2.349   4.348 -0.5856  0.8076 -0.8773
20065TIP3    H281687   2.616   2.271   4.377 -0.8713  1.2330  1.7110
20066TIP3   OH281688   2.250   1.278   5.766 -0.2959  0.2529 -0.1213
20066TIP3    H181689   2.285   1.339   5.830  4.2300 -0.8718 -1.1120
20066TIP3    H281690   2.273   1.191   5.801 -3.8096 -0.8609 -0.1929
20067TIP3   OH281691   4.465   0.069  16.488 -0.1720 -0.0905 -0.4232
20067TIP3    H181692   4.475   0.049  16.581 -0.9639 -0.7144 -0.4610
20067TIP3    H281693   4.372   0.056  16.470 -0.1115  0.4671 -1.2061
20068TIP3   OH281694   4.896   5.476  15.154 -0.4867  0.5731  0.1246
20068TIP3    H181695   4.856   5.527  15.225  0.9260  1.4079  0.3715
20068TIP3    H281696   4.904   5.539  15.082  0.0951  0.3393 -0.0169
20069TIP3   OH281697   1.027   2.635   1.922 -0.4397  0.4217  0.2907
20069TIP3    H181698   1.045   2.719   1.963 -2.0055  0.3132  1.3038
20069TIP3    H281699   0.934   2.640   1.897 -0.0182 -0.2431 -1.5211
20070TIP3   OH281700   0.993   3.460   1.019  0.3584 -0.1155  0.1086
20070TIP3    H181701   0.909   3.417   1.037 -0.6517  2.3033  1.5170
20070TIP3    H281702   1.058   3.395   1.046 -1.0870 -0.5128  3.0154
20071TIP3   OH281703   1.059   0.010   3.538  0.8374  0.4317  1.0291
20071TIP3    H181704   1.076   0.080   3.475  0.6454 -1.4526 -1.2560
20071TIP3    H281705   0.979   0.037   3.583  0.9639  1.8315  0.4762
20072TIP3   OH281706   6.007   4.333  10.746  0.4221  0.3254  0.0258
20072TIP3    H181707   6.085   4.293  10.783 -0.4561 -0.3028  1.2785
20072TIP3    H281708   5.980   4.275  10.675 -0.2013 -0.7477  1.1025
20073TIP3   OH281709   3.868   0.817   0.418  1.0261 -0.6278 -0.3555
20073TIP3    H181710   3.927   0.892   0.410 -1.0448  1.0796 -0.4694
20073TIP3    H281711   3.824   0.811   0.333 -2.2864  1.1703  1.0575
20074TIP3   OH281712   1.810   6.439  11.393 -0.8157  0.1778  0.2533
20074TIP3    H181713   1.739   6.500  11.373 -1.4200 -0.2779  0.9409
20074TIP3    H281714   1.789   6.361  11.341  0.7393  1.0193 -1.7769
20075TIP3   OH281715   0.996   5.457   5.306  0.3172 -0.7800 -0.2732
20075TIP3    H181716   1.076   5.440   5.355  1.5332  1.4065 -1.3614
20075TIP3    H281717   0.926   5.441   5.369  1.7725  0.6939  1.8462
20076TIP3   OH281718   2.874   4.500  13.818 -0.1533 -0.1128 -0.2233
20076TIP3    H181719   2.814   4.438  13.860  0.0444 -0.3951 -0.3557
20076TIP3    H281720   2.867   4.481  13.725 -1.7293  1.5031 -0.4978
20077TIP3   OH281721   5.178   3.554   3.651  0.0928  0.3055 -0.0285
20077TIP3    H181722   5.199   3.515   3.566 -1.4487 -0.0583 -0.2622
20077TIP3    H281723   5.260   3.549   3.700  1.0127  0.5171 -1.4773
20078TIP3   OH281724   0.303   2.632   2.574 -0.7927 -0.2320  0.4276
20078TIP3    H181725   0.365   2.614   2.504 -0.4757  1.1024  0.3275
20078TIP3    H281726   0.217   2.615   2.535 -0.7217  1.8517 -0.8046
20079TIP3   OH281727   4.136   2.672   5.743 -0.4910 -0.0931 -0.0249
20079TIP3    H181728   4.129   2.589   5.696  2.3363  1.1402 -2.9302
20079TIP3    H281729   4.070   2.729   5.703  0.1672  0.1726 -0.7573
20080TIP3   OH281730   5.845   5.440  12.879  0.8804 -0.3176 -0.2757
20080TIP3    H181731   5.870   5.530  12.857 -0.9875  0.3013 -0.0349
20080TIP3    H281732   5.899   5.386  12.822  1.0095  0.9994 -1.4617
20081TIP3   OH281733   0.747   0.023   3.446 -0.4625  0.7544  0.2524
20081TIP3    H181734   0.761  -0.045   3.380 -0.7154 -0.1827  1.1521
20081TIP3    H281735   0.689  -0.017   3.510  0.3175  1.4153  1.4073
20082TIP3   OH281736   2.313   2.327  13.323 -0.4191 -0.5282  0.0001
20082TIP3    H181737   2.380   2.281  13.273  0.8184  1.2322 -0.0431
20082TIP3    H281738   2.247   2.260  13.343  0.5317 -1.9238 -1.3794
20083TIP3   OH281739   4.814   1.503  13.494 -0.3140  0.0478  0.2641
20083TIP3    H181740   4.908   1.523  13.494 -0.2245 -0.3658  0.6146
20083TIP3    H281741   4.772   1.589  13.487  0.0822  0.2916  0.7635
20084TIP3   OH281742   6.336   5.900  14.315  0.3420 -0.4867  0.4552
20084TIP3    H181743   6.329   5.856  14.399 -0.7388  0.3200  0.8042
20084TIP3    H281744   6.277   5.975  14.322 -0.2145 -0.7342 -1.2327
20085TIP3   OH281745   6.725   5.569  12.653  0.0682  0.3993  0.1340
20085TIP3    H181746   6.738   5.486  12.698 -2.4400 -1.1753 -1.8143
20085TIP3    H281747   6.656   5.552  12.590  1.0479  3.3927 -1.9672
20086TIP3   OH281748   0.375   3.610   6.881  0.0474  0.1131 -0.0284
20086TIP3    H181749   0.327   3.680   6.924 -0.8489 -0.6178  0.2051
20086TIP3    H281750   0.388   3.641   6.791 -0.5049  0.5063  0.0181
20087TIP3   OH281751   4.699   4.512   2.220  0.0537 -0.5254 -0.0227
20087TIP3    H181752   4.621   4.462   2.243 -0.1657  0.4510  1.4891
20087TIP3    H281753   4.678   4.553   2.136 -0.5382 -1.3047 -0.2656
20088TIP3   OH281754   3.338   1.755   6.245  0.3123 -0.2893  0.0260
20088TIP3    H181755   3.375   1.756   6.333 -0.2574  3.1770  0.3841
20088TIP3    H281756   3.246   1.733   6.258  0.0973  0.7896  0.4021
20089TIP3   OH281757   0.232   6.398   5.506  0.5420 -0.2789  0.1127
20089TIP3    H181758   0.242   6.304   5.523  0.4198 -0.1124  1.1215
20089TIP3    H281759   0.284   6.413   5.427  1.7599 -0.9207  0.7632
20090TIP3   OH281760   6.349   0.204   6.428 -0.4818  0.5714  0.4417
20090TIP3    H181761   6.298   0.285   6.427  0.5989  1.3020  1.5947
20090TIP3    H281762   6.440   0.233   6.426 -0.0313 -0.7173 -2.1610
20091TIP3   OH281763   4.635   2.027  11.249 -0.0946  0.0440 -0.2709
20091TIP3    H181764   4.580   2.057  11.321  0.8022  0.6632  0.1817
20091TIP3    H281765   4.577   1.976  11.193 -0.8100 -0.4532  0.8906
20092TIP3   OH281766   1.050   0.765  13.695 -0.0599 -0.0943 -0.5828
20092TIP3    H181767   1.050   0.860  13.708  1.2126  0.0730 -1.5806
20092TIP3    H281768   0.981   0.733  13.752 -0.0739  1.3657  0.2678
20093TIP3   OH281769   3.947   0.527   1.391  0.3960 -0.4993  0.1875
20093TIP3    H181770   3.876   0.477   1.433 -0.1521 -0.4476 -0.6500
20093TIP3    H281771   3.967   0.597   1.453  0.1978 -0.9279  0.7475
20094TIP3   OH281772   3.269   4.157  14.137  0.4960  0.0835 -0.5451
20094TIP3    H181773   3.178   4.137  14.159  0.3430  0.0580 -1.1961
20094TIP3    H281774   3.318   4.130  14.214  0.0817 -1.0590 -0.6607
20095TIP3   OH281775   6.499   4.840  16.187  0.2187  0.3507 -0.0870
20095TIP3    H181776   6.531   4.799  16.106  0.3177 -0.8999  0.5602
20095TIP3    H281777   6.449   4.916  16.157  1.3338  0.6661 -1.2609
20096TIP3   OH281778   5.394   6.628  14.362 -0.3309  0.4208 -0.1270
20096TIP3    H181779   5.384   6.596  14.451  2.5175 -0.5202 -0.0736
20096TIP3    H281780   5.388   6.550  14.307  0.2874  0.6661 -0.5507
20097TIP3   OH281781   5.767   1.665  11.424 -0.2527 -0.2420 -0.0858
20097TIP3    H181782   5.860   1.666  11.448 -0.0319  2.8041 -0.6653
20097TIP3    H281783   5.756   1.585  11.373  1.7724 -1.2063  0.8642
20098TIP3   OH281784   5.242   6.729   1.449 -0.1140  0.1205  0.3860
20098TIP3    H181785   5.224   6.650   1.499  1.1223 -0.5382 -0.1612
20098TIP3    H281786   5.187   6.796   1.489 -0.6475 -0.8480  1.3219
20099TIP3   OH281787   0.141   1.880  16.294  0.0092 -0.0790  0.2400
20099TIP3    H181788   0.167   1.966  16.326 -1.0558  0.9598 -1.4869
20099TIP3    H281789   0.108   1.897  16.205  0.5887 -2.4025 -0.4867
20100TIP3   OH281790   0.876   3.778   1.950  0.5515  0.5644 -0.0166
20100TIP3    H181791   0.822   3.804   1.875  0.7137  0.7970 -0.0539
20100TIP3    H281792   0.816   3.781   2.025 -0.2191 -1.8732 -0.4478
20101TIP3   OH281793   5.913   2.107  15.431 -0.4053  0.3270 -0.1028
20101TIP3    H181794   5.967   2.176  15.391  0.1593  0.0674  0.1954
20101TIP3    H281795   5.934   2.112  15.525 -0.0178 -0.5359 -0.1319
20102TIP3   OH281796   6.764   1.901   1.843  0.6014  0.1220  0.1470
20102TIP3    H181797   6.753   1.850   1.763  3.9589 -1.0726  0.2670
20102TIP3    H281798   6.769   1.992   1.813  0.1680 -0.1456 -0.7816
20103TIP3   OH281799   1.475   4.960  14.766  0.0301  0.1101 -1.4826
20103TIP3    H181800   1.545   5.018  14.796 -0.4713  0.8742 -1.7759
20103TIP3    H281801   1.476   4.888  14.830  0.0621  0.8861 -0.5828
20104TIP3   OH281802   4.148   3.236   1.943 -0.1093 -0.2461  0.2169
20104TIP3    H181803   4.175   3.150   1.975 -1.4027 -1.2048 -1.1147
20104TIP3    H281804   4.066   3.254   1.989 -0.4169 -0.2527 -0.3189
20105TIP3   OH281805   3.720   3.826   2.571  0.0887 -0.2705  0.5506
20105TIP3    H181806   3.632   3.787   2.563  0.0450 -0.1359  0.3618
20105TIP3    H281807   3.779   3.752   2.569  0.1037 -0.2648 -1.2881
20106TIP3   OH281808   4.014   1.062   1.075  0.0855  0.7174 -0.2714
20106TIP3    H181809   4.081   1.071   1.143 -0.4981 -1.0657  0.6022
20106TIP3    H281810   3.955   0.994   1.108 -0.8384  0.5758 -2.0819
20107TIP3   OH281811   2.788   6.513  15.519 -0.6933 -0.5667 -0.2438
20107TIP3    H181812   2.733   6.533  15.595 -1.4945  1.2364 -1.2259
20107TIP3    H281813   2.728   6.519  15.444  0.9413  2.6984 -1.5023
20108TIP3   OH281814   5.383   5.007   4.333 -0.0192  0.7824 -0.5496
20108TIP3    H181815   5.355   5.055   4.255  2.1490  2.5344 -0.3498
20108TIP3    H281816   5.325   5.039   4.402 -0.9425  0.3846 -1.1287
20109TIP3   OH281817   6.110   3.364   5.754 -0.1554  0.4309 -0.5074
20109TIP3    H181818   6.174   3.367   5.683 -0.7131 -0.0277 -1.0382
20109TIP3    H281819   6.055   3.288   5.733 -0.3289  0.2962  0.4083
20110TIP3   OH281820   2.103   1.227   5.548  1.0201 -0.5827  0.2984
20110TIP3    H181821   2.072   1.138   5.562  3.4933 -1.7486 -1.0913
20110TIP3    H281822   2.135   1.255   5.634 -2.1557  0.1090  1.4148
20111TIP3   OH281823   3.790   0.408   3.958 -0.0820  0.0070 -0.2435
20111TIP3    H181824   3.881   0.423   3.936  0.2107 -3.5900 -2.2959
20111TIP3    H281825   3.740   0.438   3.882 -0.5434  0.8653  0.3743
20112TIP3   OH281826   6.793   2.478  12.700  0.6151  0.4741  0.7884
20112TIP3    H181827   6.710   2.520  12.726  0.6248  2.2195 -1.6961
20112TIP3    H281828   6.767   2.391  12.670 -0.1129  0.5170  1.2443
20113TIP3   OH281829   5.425   1.157  16.152  0.0763 -0.1073 -0.4075
20113TIP3    H181830   5.510   1.160  16.108 -0.4746  1.1897 -1.4745
20113TIP3    H281831   5.445   1.155  16.245  1.2808 -1.4462 -0.6752
20114TIP3   OH281832   5.276   5.674   2.657 -0.1425  0.2886 -0.0891
20114TIP3    H181833   5.311   5.763   2.662  0.5107  0.0377 -0.1311
20114TIP3    H281834   5.300   5.643   2.570 -1.5538  0.5468 -0.6077
20115TIP3   OH281835   5.032   2.874   1.645  0.1636  0.2353 -0.4062
20115TIP3    H181836   4.986   2.816   1.706  1.7042 -0.6352 -0.0114
20115TIP3    H281837   5.111   2.826   1.621 -0.4962  0.4156 -3.3536
20116TIP3   OH281838   4.622   5.897  10.278  0.0811  0.1644  0.3539
20116TIP3    H181839   4.542   5.951  10.277 -0.5059 -0.6933 -0.0031
20116TIP3    H281840   4.632   5.869  10.188 -0.4246 -1.4764  0.7776
20117TIP3   OH281841   4.046   3.859   4.116  0.2091  0.3389 -0.0694
20117TIP3    H181842   3.957   3.824   4.114  0.4390 -0.3171  0.6800
20117TIP3    H281843   4.083   3.834   4.031  0.0241 -0.3149  0.0389
20118TIP3   OH281844   0.560   3.380   6.581  0.7005 -0.0395  0.0084
20118TIP3    H181845   0.482   3.432   6.564 -1.0042 -2.6135 -0.5651
20118TIP3    H281846   0.631   3.427   6.535  0.0357  3.3868  2.0683
20119TIP3   OH281847   3.554   1.516   6.314  0.6742  0.0433  0.1238
20119TIP3    H181848   3.519   1.601   6.341 -0.2194 -1.3545  3.9000
20119TIP3    H281849   3.648   1.532   6.305  0.4567  1.5452  0.1122
20120TIP3   OH281850   2.313   0.392  11.359 -0.1336  0.3238 -0.1328
20120TIP3    H181851   2.406   0.391  11.337  0.5456  0.6561  2.3539
20120TIP3    H281852   2.299   0.312  11.410 -1.0087  0.6585  0.1759
20121TIP3   OH281853   5.099   3.334   1.469  0.2745 -0.2302 -0.0546
20121TIP3    H181854   5.093   3.280   1.390 -0.1242 -0.1766 -0.0636
20121TIP3    H281855   5.078   3.274   1.541 -1.5889  0.2180 -0.1837
20122TIP3   OH281856   6.835   1.825   4.502  0.0781  0.4152 -0.2185
20122TIP3    H181857   6.779   1.788   4.434  0.9299 -1.1478 -0.1125
20122TIP3    H281858   6.893   1.753   4.528  0.1037  1.1019  1.8333
20123TIP3   OH281859   3.705   4.761  13.471 -0.0998  0.3028  0.8953
20123TIP3    H181860   3.661   4.692  13.422  1.5708  1.1667 -2.1359
20123TIP3    H281861   3.780   4.718  13.512 -0.0481 -0.0046  0.4824
20124TIP3   OH281862   3.022   0.370  16.973  0.1629  0.5419 -0.2054
20124TIP3    H181863   2.941   0.382  17.021  1.0721  0.5565  1.3790
20124TIP3    H281864   3.002   0.301  16.909 -0.2712 -1.8563  2.2863
20125TIP3   OH281865   0.536   5.830  15.073 -0.6202  0.5345  0.4077
20125TIP3    H181866   0.500   5.751  15.113 -0.0215  0.3092  0.4984
20125TIP3    H281867   0.569   5.881  15.147 -0.3237  0.5273  0.2798
20126TIP3   OH281868   4.183   3.336  15.820 -0.5482 -0.0513 -0.7288
20126TIP3    H181869   4.185   3.352  15.914 -1.5711 -2.8357 -0.1195
20126TIP3    H281870   4.151   3.246  15.812 -1.2946  0.3736 -3.7930
20127TIP3   OH281871   2.201   2.758  13.891  0.6503 -0.3697 -0.2213
20127TIP3    H181872   2.106   2.744  13.882  0.8209 -1.3967 -0.5634
20127TIP3    H281873   2.226   2.799  13.808  0.3581  0.8419  0.2653
20128TIP3   OH281874   0.742   3.784   4.721  0.3227 -0.1804  0.4520
20128TIP3    H181875   0.676   3.717   4.735 -0.5533  0.6154  0.1811
20128TIP3    H281876   0.769   3.811   4.809 -0.7161  0.4620  0.5889
20129TIP3   OH281877   6.316   6.665  10.860  0.8966  0.4104 -0.4509
20129TIP3    H181878   6.267   6.681  10.941  0.0661 -1.7904 -0.4520
20129TIP3    H281879   6.251   6.668  10.791  1.0399 -0.7723 -0.6584
20130TIP3   OH281880   1.691   3.271  13.528  0.0019  0.2568 -0.0012
20130TIP3    H181881   1.664   3.208  13.461 -0.4805 -1.2504  1.5354
20130TIP3    H281882   1.637   3.250  13.604  0.6100  1.8315  0.9273
20131TIP3   OH281883   3.869   4.104   5.907  0.3921  0.0748 -0.3163
20131TIP3    H181884   3.780   4.108   5.942  1.4826  3.0961  2.6313
20131TIP3    H281885   3.863   4.144   5.820 -1.0925  0.3048 -0.1255
20132TIP3   OH281886   1.670   1.988   6.301 -0.1020 -0.1167  0.0133
20132TIP3    H181887   1.601   1.938   6.257 -1.8701  1.7088  0.5293
20132TIP3    H281888   1.671   2.072   6.256  1.6871 -0.0345  0.1547
20133TIP3   OH281889   1.647   0.380   3.199  0.0743 -0.6386  0.4236
20133TIP3    H181890   1.718   0.320   3.178  0.7195 -0.3208  1.6079
20133TIP3    H281891   1.684   0.440   3.263 -1.1515 -0.2218  0.7801
20134TIP3   OH281892   4.016   5.849   4.612  0.0380 -0.3338 -0.7418
20134TIP3    H181893   4.015   5.824   4.705  0.5220 -0.8554 -0.8702
20134TIP3    H281894   4.106   5.876   4.596  0.0048 -0.4488 -1.1160
20135TIP3   OH281895   5.466   2.036  14.424  0.2580  0.6056 -0.2507
20135TIP3    H181896   5.480   2.050  14.330 -1.6680 -2.9940 -1.2536
20135TIP3    H281897   5.502   1.949  14.441 -1.8146  0.0476  1.7072
20136TIP3   OH281898   2.173   4.716   3.182  0.0529 -0.1378 -0.3878
20136TIP3    H181899   2.222   4.795   3.159 -1.9840  1.2848 -0.1326
20136TIP3    H281900   2.221   4.645   3.140  2.0182  1.2146 -0.5380
20137TIP3   OH281901   4.382   4.108  11.087 -0.9136  0.1469  0.1539
20137TIP3    H181902   4.445   4.157  11.140 -0.3199 -1.1565  0.7241
20137TIP3    H281903   4.336   4.052  11.151 -0.2185 -1.4308 -0.6741
20138TIP3   OH281904   3.446   3.307   4.729 -0.6876  0.0926 -0.0701
20138TIP3    H181905   3.383   3.238   4.749  0.3208 -0.3609  1.7860
20138TIP3    H281906   3.422   3.380   4.786  0.8557 -0.3555  1.2131
20139TIP3   OH281907   1.249   2.363  15.870  0.2152  0.7691 -0.1310
20139TIP3    H181908   1.177   2.353  15.932 -1.4639  0.8707 -1.9809
20139TIP3    H281909   1.320   2.402  15.922 -1.3490  1.5035  1.5484
20140TIP3   OH281910   4.427   6.855   1.111 -0.3923 -0.3379  0.6012
20140TIP3    H181911   4.337   6.856   1.079 -0.3706  2.6116  0.3913
20140TIP3    H281912   4.473   6.797   1.050 -2.2121 -2.5084  1.1473
20141TIP3   OH281913   4.788   2.650  13.297  0.3693  0.9601  0.5701
20141TIP3    H181914   4.782   2.561  13.331 -0.4614  1.4580  1.8111
20141TIP3    H281915   4.705   2.691  13.323  0.3774  1.8549 -0.7070
20142TIP3   OH281916   3.531   1.548   2.754  0.0627 -0.0894  0.0258
20142TIP3    H181917   3.456   1.607   2.765  0.5879  1.0987 -2.2613
20142TIP3    H281918   3.509   1.495   2.678  0.0245 -2.2737  1.4832
20143TIP3   OH281919   1.211   0.456  10.838  0.5878  0.2865 -0.3316
20143TIP3    H181920   1.236   0.480  10.748  0.1051 -0.2231 -0.6096
20143TIP3    H281921   1.126   0.498  10.850  1.0683  1.1400  0.2365
20144TIP3   OH281922   2.437   5.570  13.458 -0.8102  0.4483 -0.2118
20144TIP3    H181923   2.490   5.564  13.379 -1.6361  0.4152 -0.7655
20144TIP3    H281924   2.352   5.603  13.429 -1.5055 -0.6529  0.4741
20145TIP3   OH281925   3.366   5.546  15.239  0.1818  0.3225 -0.0310
20145TIP3    H181926   3.397   5.479  15.178 -0.5134 -0.3771  0.3598
20145TIP3    H281927   3.395   5.629  15.201 -0.1429 -0.1088 -1.2497
20146TIP3   OH281928   3.104   3.589   3.323 -0.1258  0.0378  0.4162
20146TIP3    H181929   3.195   3.561   3.310 -0.1235 -0.0019  0.5150
20146TIP3    H281930   3.108   3.646   3.400 -0.1703  0.1111  0.3647
20147TIP3   OH281931   2.925   3.288   0.229 -0.2700  0.3107  0.3332
20147TIP3    H181932   2.944   3.309   0.138 -1.5473 -2.2813 -0.6084
20147TIP3    H281933   2.838   3.325   0.245 -1.4435 -1.8828 -0.5657
20148TIP3   OH281934   2.450   4.734  14.088 -0.5058 -0.1947  0.1622
20148TIP3    H181935   2.419   4.672  14.021 -2.1374  0.3164  0.4194
20148TIP3    H281936   2.395   4.717  14.164  0.8441 -0.2524  1.1520
20149TIP3   OH281937   3.640   6.727   2.065 -0.4928 -0.0572 -0.4172
20149TIP3    H181938   3.553   6.697   2.038 -0.5235 -0.4648  0.1204
20149TIP3    H281939   3.698   6.655   2.041 -0.1085  0.6943 -1.8722
20150TIP3   OH281940   1.513   3.911   5.982 -0.1284  0.2256 -0.0943
20150TIP3    H181941   1.557   3.826   5.974  0.1909  0.4756 -1.0502
20150TIP3    H281942   1.477   3.911   6.071  0.0374 -0.8279 -0.0187
20151TIP3   OH281943   6.105   0.206   1.021 -0.8886  0.1374 -0.1545
20151TIP3    H181944   6.137   0.131   1.071 -0.5336 -0.0066 -0.5810
20151TIP3    H281945   6.114   0.179   0.929  1.9353  1.7159 -0.4641
20152TIP3   OH281946   2.782   1.850  15.812 -0.2906 -0.5010 -0.4914
20152TIP3    H181947   2.731   1.837  15.732 -0.2858 -1.5167 -0.3511
20152TIP3    H281948   2.716   1.864  15.880 -0.6112 -3.6629  0.0430
20153TIP3   OH281949   1.935   3.842   1.555  0.7702  0.5400  0.2526
20153TIP3    H181950   1.883   3.922   1.549 -0.4749 -0.2620 -0.1825
20153TIP3    H281951   1.872   3.775   1.582  1.4042 -0.6230 -1.0086
20154TIP3   OH281952   6.699   1.609   2.216 -0.2252 -0.3420  0.6410
20154TIP3    H181953   6.741   1.585   2.134  1.4963  0.3531  1.2785
20154TIP3    H281954   6.687   1.526   2.262  0.1681 -0.5857  0.3101
20155TIP3   OH281955   0.057   0.441   1.186  0.0328 -0.4610  0.4971
20155TIP3    H181956   0.130   0.483   1.140 -0.2087 -1.0888 -0.4732
20155TIP3    H281957   0.029   0.506   1.251 -0.4279  0.9599 -1.0550
20156TIP3   OH281958   5.163   0.124  11.360  0.4029 -0.7550  0.1749
20156TIP3    H181959   5.081   0.125  11.310  0.9610  1.1042 -0.8158
20156TIP3    H281960   5.229   0.155  11.299  1.6745 -1.2158  1.2607
20157TIP3   OH281961   1.928   3.303  11.580 -0.6707  0.7481 -0.0989
20157TIP3    H181962   1.964   3.220  11.612 -1.5645 -0.0094 -1.0037
20157TIP3    H281963   2.004   3.348  11.543 -0.4916 -0.5779 -1.4616
20158TIP3   OH281964   5.103   3.153   0.062 -0.3232  0.3315  0.6343
20158TIP3    H181965   5.152   3.081   0.101  0.7146  0.2233 -0.7739
20158TIP3    H281966   5.011   3.127   0.070 -0.0301 -0.5464  1.2842
20159TIP3   OH281967   1.444   6.067  13.670 -0.2438  0.4939 -0.1419
20159TIP3    H181968   1.426   6.031  13.757 -0.5462  0.8881 -0.0405
20159TIP3    H281969   1.468   6.158  13.686 -2.5553  1.2589 -0.6354
20160TIP3   OH281970   6.642   3.198  16.573  0.0032 -0.2059 -0.3959
20160TIP3    H181971   6.729   3.232  16.592  0.1229 -1.0117  0.5474
20160TIP3    H281972   6.620   3.235  16.488  0.8523  0.8047 -0.1902
20161TIP3   OH281973   0.301   1.468  13.975 -0.7037  0.0648 -0.3085
20161TIP3    H181974   0.365   1.522  13.928 -2.0428  0.8914 -1.2662
20161TIP3    H281975   0.224   1.525  13.983 -1.1411 -0.7001  1.3104
20162TIP3   OH281976   5.742   3.288  15.479 -0.3891 -0.1915 -0.2261
20162TIP3    H181977   5.773   3.378  15.470  1.9195 -0.6279  1.9946
20162TIP3    H281978   5.722   3.260  15.390 -1.0067  2.4257 -0.9903
20163TIP3   OH281979   2.740   3.480   2.348  0.0595  0.1434  0.3090
20163TIP3    H181980   2.659   3.500   2.301 -1.1864 -1.1257  1.8132
20163TIP3    H281981   2.717   3.492   2.440  1.5106 -0.5387  0.7822
20164TIP3   OH281982   4.760   0.117  11.911 -0.3620  0.3056 -0.0413
20164TIP3    H181983   4.680   0.078  11.946  0.4947 -1.6748 -0.1478
20164TIP3    H281984   4.816   0.129  11.988  1.5845 -4.1964 -0.4330
20165TIP3   OH281985   1.979   4.742  16.770 -0.2387  0.2121  0.4049
20165TIP3    H181986   1.946   4.658  16.739  2.5164 -0.8020 -0.0127
20165TIP3    H281987   1.992   4.729  16.864 -2.2315  1.0994  0.8690
20166TIP3   OH281988   3.538   5.894   4.142 -0.1371 -0.3219  0.1561
20166TIP3    H181989   3.498   5.880   4.228  0.2348  1.0700  0.5835
20166TIP3    H281990   3.601   5.964   4.156  1.6775 -1.6710 -0.7471
20167TIP3   OH281991   6.116   6.438   3.575  0.2595  0.0306  0.0169
20167TIP3    H181992   6.131   6.418   3.483 -0.9005 -0.1035 -0.1641
20167TIP3    H281993   6.050   6.374   3.603  0.7257 -0.0437  0.9873
20168TIP3   OH281994   5.075   3.994  14.873 -0.5734 -0.2562  0.1702
20168TIP3    H181995   5.070   3.943  14.953 -0.4514 -2.1034 -0.9587
20168TIP3    H281996   5.165   3.982  14.842 -0.0683  1.8953  0.6406
20169TIP3   OH281997   4.510   2.069   1.363 -0.4603  0.3210 -0.3200
20169TIP3    H181998   4.604   2.088   1.362 -0.7966  2.1869  0.0280
20169TIP3    H281999   4.470   2.144   1.319 -1.7912 -0.5776 -0.7237
20170TIP3   OH282000   0.487   4.304   5.657 -0.2226 -0.4781 -0.3366
20170TIP3    H182001   0.494   4.229   5.597  0.1089 -0.0047 -0.8942
20170TIP3    H282002   0.444   4.268   5.735 -0.4606 -1.1516 -0.7680
20171TIP3   OH282003   2.637   4.213  12.305  0.4024 -0.0487 -0.7130
20171TIP3    H182004   2.569   4.147  12.301 -0.1366  0.3777  0.9299
20171TIP3    H282005   2.590   4.297  12.300  0.6547  0.2737  1.4349
20172TIP3   OH282006   0.566   0.982  12.099 -0.0714  0.0054 -0.0882
20172TIP3    H182007   0.610   0.899  12.120 -2.2065 -1.5429 -1.2413
20172TIP3    H282008   0.503   0.995  12.170 -1.6555 -0.9206 -1.2423
20173TIP3   OH282009   3.971   1.679  11.349  0.2935 -0.0697 -0.3473
20173TIP3    H182010   3.911   1.750  11.326  0.3796  0.0652 -0.1605
20173TIP3    H282011   3.935   1.601  11.306 -0.5603 -0.1942  0.5640
20174TIP3   OH282012   5.723   5.177  15.443 -0.5589  0.7934 -0.0984
20174TIP3    H182013   5.756   5.139  15.525  0.0885 -1.4796 -1.3321
20174TIP3    H282014   5.628   5.182  15.455 -0.3983  1.3070  1.0872
20175TIP3   OH282015   1.002   6.115   2.209 -0.3362  0.0390 -0.2474
20175TIP3    H182016   1.078   6.079   2.254  0.3655  1.7397  0.0086
20175TIP3    H282017   1.036   6.185   2.155 -1.8363  1.7858  0.9398
20176TIP3   OH282018   4.676   4.097  10.504  0.0239 -0.8518 -0.0138
20176TIP3    H182019   4.758   4.139  10.527 -0.4137 -0.9999  2.0379
20176TIP3    H282020   4.642   4.063  10.587 -1.9409 -1.0892 -0.8395
20177TIP3   OH282021   0.201   6.264  11.918 -0.1746 -0.1028 -0.8261
20177TIP3    H182022   0.125   6.312  11.950  0.6169  0.3220  0.5348
20177TIP3    H282023   0.274   6.296  11.972  0.3785 -3.0202  0.3646
20178TIP3   OH282024   4.775   1.052   2.467  0.6039  0.6617  0.0326
20178TIP3    H182025   4.717   1.123   2.439  0.8728  0.8145 -0.1458
20178TIP3    H282026   4.845   1.095   2.517  1.7530  0.7718 -1.5753
20179TIP3   OH282027   2.087   5.955   9.972 -0.3286  0.1185  0.3014
20179TIP3    H182028   2.012   5.976  10.028  0.1058  1.8506  0.2828
20179TIP3    H282029   2.053   5.888   9.912 -1.0249 -1.1893  2.0552
20180TIP3   OH282030   2.222   0.878   4.802  0.0213  0.4368 -0.1427
20180TIP3    H182031   2.312   0.903   4.783 -0.3200  1.1620 -0.8934
20180TIP3    H282032   2.188   0.949   4.857 -0.5033  0.8789 -1.0226
20181TIP3   OH282033   1.124   5.024  11.477 -0.3420  0.1879  1.1175
20181TIP3    H182034   1.216   5.047  11.468 -0.1807 -0.6068  0.5980
20181TIP3    H282035   1.083   5.101  11.515  0.2120  1.1902 -0.2458
20182TIP3   OH282036   5.429   5.536   6.317  0.2677  0.3866 -0.4590
20182TIP3    H182037   5.482   5.553   6.239 -1.1076  0.7495 -1.3459
20182TIP3    H282038   5.340   5.524   6.283 -0.6557  2.1433  1.1876
20183TIP3   OH282039   5.435   6.288   3.511  0.2721 -0.1156 -0.2202
20183TIP3    H182040   5.349   6.328   3.520 -0.0800 -0.9232  0.1511
20183TIP3    H282041   5.440   6.225   3.583  1.1456 -0.1267 -0.2793
20184TIP3   OH282042   0.183   6.279  11.223  0.4203  0.1395  0.5626
20184TIP3    H182043   0.229   6.256  11.143 -1.6907 -0.0294 -0.6767
20184TIP3    H282044   0.196   6.373  11.233  1.4291  0.0116  0.5277
20185TIP3   OH282045   5.016   6.497  14.684 -0.3221 -0.2007 -0.1947
20185TIP3    H182046   5.000   6.543  14.767  0.2537 -0.2506 -0.0522
20185TIP3    H282047   5.061   6.417  14.710  0.7965  0.2682 -0.6323
20186TIP3   OH282048   1.494   2.772   4.866  0.4747 -0.5352 -0.1626
20186TIP3    H182049   1.586   2.778   4.895  0.2038 -0.1095  0.6298
20186TIP3    H282050   1.492   2.693   4.812  0.7836 -2.0734  1.9200
20187TIP3   OH282051   6.469   2.476   4.594  0.1793  0.4987  0.0670
20187TIP3    H182052   6.510   2.407   4.542  0.8664  0.5416  0.5354
20187TIP3    H282053   6.494   2.558   4.551  1.6440  0.5954  1.0476
20188TIP3   OH282054   2.952   1.893   2.473  0.0259  0.0105 -0.3021
20188TIP3    H182055   2.936   1.879   2.567 -2.0360  1.9184 -0.2859
20188TIP3    H282056   3.047   1.904   2.467  0.0867  1.3737  1.8272
20189TIP3   OH282057   6.042   3.544   5.257 -0.3307  0.0110 -0.0093
20189TIP3    H182058   6.086   3.463   5.282 -0.6481  0.1627  1.0763
20189TIP3    H282059   5.954   3.517   5.230 -0.9526  0.1142  1.7844
20190TIP3   OH282060   2.397   5.851   3.001  0.3514  0.3893  0.4747
20190TIP3    H182061   2.437   5.937   2.988  1.6128 -0.0931  1.0039
20190TIP3    H282062   2.345   5.861   3.081  1.2581  0.4238  1.0806
20191TIP3   OH282063   2.469   0.654  14.475 -0.5416 -0.2298  0.1770
20191TIP3    H182064   2.393   0.613  14.517  0.1926 -2.0576 -0.1556
20191TIP3    H282065   2.530   0.670  14.547 -0.4105 -0.7426  0.1871
20192TIP3   OH282066   1.343   2.144  17.006  0.4889  0.2383 -0.3158
20192TIP3    H182067   1.424   2.104  16.974 -0.6461 -1.8434 -0.7245
20192TIP3    H282068   1.338   2.118  17.098  0.4750  0.7408 -0.1666
20193TIP3   OH282069   2.460   2.061  11.858  0.3581 -0.0932  0.3111
20193TIP3    H182070   2.446   2.154  11.877  1.4676 -0.0483  1.0118
20193TIP3    H282071   2.458   2.057  11.762  1.3073  0.8553  0.2172
20194TIP3   OH282072   2.154   1.877  16.331 -0.0573  0.2357  0.4104
20194TIP3    H182073   2.186   1.878  16.421 -1.1029  2.3597  0.8138
20194TIP3    H282074   2.063   1.851  16.338 -0.2525  0.8035  0.0178
20195TIP3   OH282075   4.638   5.383   5.469  0.4407 -0.2309 -0.3588
20195TIP3    H182076   4.662   5.331   5.546 -1.3309  0.6207  0.8343
20195TIP3    H282077   4.708   5.447   5.460  0.2181  0.2443  1.1193
20196TIP3   OH282078   4.429   5.645  11.503  0.7293  0.0770 -0.0238
20196TIP3    H182079   4.469   5.571  11.548  0.5036  1.0000  1.7928
20196TIP3    H282080   4.406   5.706  11.573  0.4985  1.6694 -1.4222
20197TIP3   OH282081   1.850   1.380   1.012 -0.0248  0.0085  0.2667
20197TIP3    H182082   1.876   1.350   1.099  0.2322  0.1039  0.2259
20197TIP3    H282083   1.899   1.462   1.000 -0.5052  0.3022  0.2688
20198TIP3   OH282084   5.632   1.828  14.439 -0.2426  0.2447 -0.0736
20198TIP3    H182085   5.606   1.749  14.392 -1.9014  0.3388  0.5844
20198TIP3    H282086   5.679   1.881  14.375  0.6539 -1.1501 -0.5923
20199TIP3   OH282087   0.926   2.763  13.555  0.3848  0.4855 -0.0557
20199TIP3    H182088   0.842   2.765  13.601 -0.1960 -0.9219 -0.9773
20199TIP3    H282089   0.919   2.688  13.497  2.0750  0.7044 -0.5840
20200TIP3   OH282090   3.616   4.765   3.522 -0.8974  0.0865  0.1706
20200TIP3    H182091   3.576   4.847   3.549 -0.4127 -0.1539  1.7397
20200TIP3    H282092   3.621   4.713   3.603  0.8473 -0.5972 -0.3270
20201TIP3   OH282093   4.916   2.323   3.277  0.0131 -0.2679  0.0163
20201TIP3    H182094   5.007   2.323   3.248  0.0181 -1.6681 -0.0185
20201TIP3    H282095   4.917   2.374   3.358  0.6858  0.3373 -0.3546
20202TIP3   OH282096   4.070   4.464   0.590  0.2789  0.1261  0.0056
20202TIP3    H182097   4.060   4.460   0.685 -0.4741  2.0512  0.0533
20202TIP3    H282098   4.163   4.449   0.575  0.2664 -1.0613  0.9522
20203TIP3   OH282099   6.702   0.278   0.003  0.0966  0.7181 -0.1030
20203TIP3    H182100   6.711   0.373   0.005  2.3299  0.5452  0.0235
20203TIP3    H282101   6.708   0.255  -0.090  0.7772  0.6270 -0.0437
20204TIP3   OH282102   1.797   4.409  12.688  0.1632  0.0552 -0.1680
20204TIP3    H182103   1.759   4.422  12.775 -0.4650 -1.7229 -0.1284
20204TIP3    H282104   1.868   4.346  12.703  0.8411  0.6579 -0.7843
20205TIP3   OH282105   2.844   1.344   5.243  0.0023  0.0240  0.0796
20205TIP3    H182106   2.834   1.348   5.338  0.3429 -0.7004  0.1520
20205TIP3    H282107   2.781   1.408   5.209 -0.6014 -0.2064  0.7609
20206TIP3   OH282108   3.432   3.377   1.222  0.2982 -0.3969 -0.2614
20206TIP3    H182109   3.422   3.380   1.317 -0.7044 -2.4412 -0.2520
20206TIP3    H282110   3.516   3.334   1.208  0.6652  0.3158 -0.3361
20207TIP3   OH282111   2.743   0.746  10.849  0.2134  0.2890 -0.1144
20207TIP3    H182112   2.826   0.700  10.834  0.5676  0.8233  0.1999
20207TIP3    H282113   2.728   0.794  10.768  1.2938  1.8689  0.5765
20208TIP3   OH282114   3.064   3.306  12.239 -0.0136 -0.3447 -0.2476
20208TIP3    H182115   2.985   3.279  12.285 -1.6694  0.6428 -2.3253
20208TIP3    H282116   3.096   3.226  12.196 -0.3402 -0.5953 -0.0238
20209TIP3   OH282117   1.455   1.736  15.305  0.6053  0.5464 -0.0550
20209TIP3    H182118   1.382   1.798  15.303  0.4584  0.3633 -0.4336
20209TIP3    H282119   1.496   1.749  15.390  0.7786  1.3994 -0.2633
20210TIP3   OH282120   5.928   1.880  12.917  0.1212 -0.6666  0.6777
20210TIP3    H182121   5.899   1.790  12.932 -3.0267  0.1583  0.2853
20210TIP3    H282122   5.925   1.890  12.822 -0.2274  0.0298  0.7586
20211TIP3   OH282123   2.698   4.683  12.075  0.0340  0.1129  0.1191
20211TIP3    H182124   2.607   4.703  12.097 -0.5526 -1.5393 -0.6904
20211TIP3    H282125   2.721   4.748  12.009 -1.2083 -0.5922 -1.0696
20212TIP3   OH282126   1.204   4.615   4.370  0.1529  0.0256  0.7454
20212TIP3    H182127   1.260   4.654   4.303 -0.7180  0.7347  0.4101
20212TIP3    H282128   1.159   4.543   4.326 -1.6938  1.5355  0.0446
20213TIP3   OH282129   0.043   4.326   0.418 -0.5292 -0.0470 -0.0060
20213TIP3    H182130   0.138   4.327   0.425 -0.3167 -0.4642 -2.0569
20213TIP3    H282131   0.012   4.354   0.504  1.4339  0.2361  0.6636
20214TIP3   OH282132   1.747   0.390   3.833  0.9423  0.3664 -0.9564
20214TIP3    H182133   1.673   0.431   3.878 -0.7439 -0.7878 -2.5420
20214TIP3    H282134   1.725   0.297   3.831  3.1060 -0.2112 -0.3328
20215TIP3   OH282135   2.087   5.046  11.178 -0.0721 -0.2970 -0.0451
20215TIP3    H182136   2.005   4.996  11.183 -0.7958  0.7857 -0.6240
20215TIP3    H282137   2.102   5.078  11.267 -0.3292 -0.4344  0.0493
20216TIP3   OH282138   2.155   0.778  14.352  0.3911  0.0228  0.0595
20216TIP3    H182139   2.125   0.804  14.264  1.5977  0.1058 -0.3440
20216TIP3    H282140   2.144   0.683  14.354  0.5103  0.0018 -0.2435
20217TIP3   OH282141   1.661   5.482  16.889  0.5262 -0.1755  0.2426
20217TIP3    H182142   1.671   5.430  16.808  0.2886  0.6581 -0.3310
20217TIP3    H282143   1.571   5.467  16.916 -0.0641  1.2392 -0.8524
20218TIP3   OH282144   3.095   2.736  13.376  0.1377 -0.6176 -0.0008
20218TIP3    H182145   3.121   2.791  13.303 -0.0709  0.3188  0.6104
20218TIP3    H282146   2.999   2.731  13.370  0.1045 -0.3880  0.3051
20219TIP3   OH282147   5.973   4.054   1.521  0.5391  0.1129  0.4936
20219TIP3    H182148   5.898   4.068   1.579 -0.7155 -0.7018 -0.8480
20219TIP3    H282149   5.998   3.963   1.535  1.3667  0.4050  0.9981
20220TIP3   OH282150   3.564   0.043  12.342  0.0557 -0.5567 -0.1521
20220TIP3    H182151   3.574   0.113  12.277  0.3859 -0.4404  0.0204
20220TIP3    H282152   3.513  -0.024  12.298 -0.0803 -0.2956 -0.3925
20221TIP3   OH282153   1.020   4.363  12.137  0.2527  0.0179 -0.1276
20221TIP3    H182154   0.944   4.355  12.194  0.1970 -2.8417 -0.4674
20221TIP3    H282155   1.095   4.343  12.193  0.3600 -1.0382 -0.6281
20222TIP3   OH282156   6.729   5.191  12.026  0.0489 -0.1791 -0.1591
20222TIP3    H182157   6.783   5.224  12.098 -0.2803 -3.7628  1.9935
20222TIP3    H282158   6.639   5.212  12.051  0.0411  0.0890 -0.4120
20223TIP3   OH282159   5.045   0.915   5.618  0.7402 -0.0964 -0.1675
20223TIP3    H182160   4.981   0.973   5.659  1.0633  0.7119 -0.7547
20223TIP3    H282161   4.995   0.866   5.553  0.3171 -1.0463  0.8430
20224TIP3   OH282162   2.393   6.784   0.987 -0.3041  0.1411 -0.1411
20224TIP3    H182163   2.419   6.766   0.896 -0.9454  0.1576 -0.3285
20224TIP3    H282164   2.405   6.878   0.997  1.7475 -0.1343  0.4284
20225TIP3   OH282165   4.645   4.733  15.965 -0.2115  0.1406  0.7861
20225TIP3    H182166   4.685   4.653  15.931 -2.4441 -0.4566 -0.7108
20225TIP3    H282167   4.560   4.705  15.998 -2.0186  2.0875 -1.7621
20226TIP3   OH282168   1.555   1.383  16.926 -0.1163  0.2335 -0.0134
20226TIP3    H182169   1.647   1.356  16.928  0.1506  1.1360  0.7636
20226TIP3    H282170   1.550   1.449  16.857 -0.0919  0.4875  0.2279
20227TIP3   OH282171   6.812   3.960  15.152 -0.1705 -0.1242  0.0326
20227TIP3    H182172   6.890   3.969  15.207  0.0196 -0.1814 -0.2235
20227TIP3    H282173   6.806   3.866  15.134  0.6512  0.0576 -1.2988
20228TIP3   OH282174   4.556   6.468   5.328 -0.3402  0.2196 -0.4007
20228TIP3    H182175   4.610   6.434   5.258 -0.2126  0.1414 -0.2641
20228TIP3    H282176   4.554   6.563   5.313 -0.0011  0.2454 -0.2883
20229TIP3   OH282177   2.686   6.654   1.385  0.1292 -0.4167 -0.0838
20229TIP3    H182178   2.680   6.729   1.444  0.9992 -0.7494  0.4551
20229TIP3    H282179   2.631   6.677   1.310 -0.6057  0.2202  0.6360
20230TIP3   OH282180   0.658   0.115  16.032  0.0835 -0.1534 -0.6013
20230TIP3    H182181   0.686   0.029  16.001 -2.8020 -1.4957  0.2180
20230TIP3    H282182   0.615   0.155  15.957  0.1849  0.0012 -0.5783
20231TIP3   OH282183   3.715   0.526  12.208  0.7142  0.3627 -0.1081
20231TIP3    H182184   3.743   0.518  12.299 -0.1079 -1.9840 -0.0015
20231TIP3    H282185   3.728   0.619  12.187  1.8463  0.7569  2.0697
20232TIP3   OH282186   0.326   0.083   5.513  0.4574 -0.7971  0.0878
20232TIP3    H182187   0.389   0.125   5.571  0.0572 -0.0754  0.0162
20232TIP3    H282188   0.372   0.075   5.429  0.4100 -0.1302 -0.0090
20233TIP3   OH282189   3.050   1.718  14.604 -0.2213  0.0690 -0.4730
20233TIP3    H182190   3.091   1.801  14.629  0.2217 -0.6904  1.5069
20233TIP3    H282191   3.123   1.657  14.596 -0.6825 -0.5239 -0.2054
20234TIP3   OH282192   3.396   3.383  14.273 -0.3281  0.3103  0.5770
20234TIP3    H182193   3.449   3.433  14.335  0.9844  0.0130 -0.2504
20234TIP3    H282194   3.337   3.331  14.328 -0.4585  1.3868  1.4965
20235TIP3   OH282195   0.873   2.379  11.664 -0.1115  0.2275  0.1964
20235TIP3    H182196   0.784   2.373  11.701 -0.8307  3.1979 -0.7440
20235TIP3    H282197   0.928   2.400  11.739 -0.0814 -1.7994  0.8200
20236TIP3   OH282198   2.305   4.605   5.421 -0.6209 -0.1572 -0.2980
20236TIP3    H182199   2.389   4.591   5.377 -1.2741  0.0173 -1.6614
20236TIP3    H282200   2.292   4.527   5.475  0.2245 -0.3668 -0.3973
20237TIP3   OH282201   4.052   2.853  15.266 -0.1440  0.0672  0.0410
20237TIP3    H182202   3.961   2.823  15.270 -0.7886  2.0317  1.4322
20237TIP3    H282203   4.082   2.827  15.179 -1.6621 -1.5654 -0.0684
20238TIP3   OH282204   2.133   4.776   2.166  0.4082  0.5098 -0.0829
20238TIP3    H182205   2.216   4.755   2.207  0.1656 -2.1743 -0.7786
20238TIP3    H282206   2.067   4.756   2.233  0.1956 -0.3971 -0.5486
20239TIP3   OH282207   3.286   5.828   3.418  0.2401  0.3240 -0.4861
20239TIP3    H182208   3.257   5.905   3.370  0.1928 -0.0678 -1.0912
20239TIP3    H282209   3.214   5.765   3.409  1.3003 -0.7162 -2.1355
20240TIP3   OH282210   1.971   1.973  14.308  0.2320  0.1672 -0.1847
20240TIP3    H182211   1.956   2.064  14.286  0.2653 -0.3297 -2.5472
20240TIP3    H282212   2.018   1.937  14.233  2.2363 -1.2931  1.6213
20241TIP3   OH282213   4.076   2.258  13.523 -0.1152  0.4984  0.6876
20241TIP3    H182214   3.990   2.242  13.561 -1.4200  0.8411 -1.9197
20241TIP3    H282215   4.080   2.201  13.446  2.5083 -0.3820  1.3352
20242TIP3   OH282216   5.382   6.452  12.111 -0.4448  0.6192 -1.3650
20242TIP3    H182217   5.398   6.367  12.150  0.0047  1.3812  0.1918
20242TIP3    H282218   5.447   6.510  12.151 -2.2219  2.1926 -0.5919
20243TIP3   OH282219   3.970   3.113  14.074 -0.0467 -0.4593 -0.3122
20243TIP3    H182220   3.994   3.020  14.071 -0.1328 -0.5069  0.3360
20243TIP3    H282221   4.044   3.158  14.034  1.3537 -0.5678  1.9942
20244TIP3   OH282222   0.607   3.100   2.643  0.1184  0.1546 -0.1298
20244TIP3    H182223   0.578   3.017   2.681  1.5627 -0.6264 -0.6502
20244TIP3    H282224   0.527   3.150   2.630 -0.5706 -0.0574  2.6810
20245TIP3   OH282225   2.946   5.594  10.562 -0.3756 -0.3706  0.0884
20245TIP3    H182226   2.937   5.562  10.473 -0.4522 -1.5846  0.5184
20245TIP3    H282227   2.875   5.658  10.572 -1.6780 -1.7555 -0.0672
20246TIP3   OH282228   1.263   0.224  12.003  0.6916  0.3441  0.4557
20246TIP3    H182229   1.200   0.217  11.931 -0.3830 -1.4142  1.5092
20246TIP3    H282230   1.330   0.159  11.981 -0.4534 -1.3582  1.7600
20247LIG      O82231   4.737   1.931  10.623  0.0400 -0.4466  1.2713
20247LIG      N82232   4.677   1.708  10.801 -1.1989 -1.3256 -0.4713
20247LIG     C182233   4.663   1.928  10.399  0.7593 -0.1289  0.3109
20247LIG     C282234   4.636   1.878  10.539 -0.0554  0.1180 -0.3406
20247LIG     C382235   4.634   2.077  10.365 -0.4501 -0.1175  0.1283
20247LIG     C482236   4.810   1.893  10.349 -0.0824  0.1894  0.3618
20247LIG     C582237   4.641   1.722  10.556  0.9574 -0.1435 -0.0975
20247LIG     C682238   4.670   2.107  10.214 -0.4932 -0.3070  0.0211
20247LIG     C782239   4.831   1.917  10.208 -0.3284 -0.4055  0.4188
20247LIG     C882240   4.813   2.071  10.177  0.0724  0.3336 -0.3883
20247LIG     C982241   4.595   1.657  10.688  0.0434  0.0216 -0.3021
20247LIG    C1082242   4.484   1.916  10.579  0.0013  0.4953 -0.0853
20247LIG    C1182243   4.603   1.724  10.925  0.1085 -0.4187  0.6383
20247LIG    C1282244   4.805   1.640  10.829  0.8066 -0.0497  0.7118
20247LIG    C1382245   4.563   1.583  10.977 -0.5016  0.3138  0.7464
20247LIG    C1482246   4.772   1.494  10.879  0.1219  0.3030  0.9352
20247LIG    C1582247   4.685   1.495  11.007 -0.5125  0.0886 -0.3870
20247LIG    C1682248   4.458   2.014  10.676 -0.6436  0.1805 -0.3584
20247LIG    C1782249   4.378   1.864  10.501 -0.4249  0.0535  0.7743
20247LIG    C1882250   4.333   2.064  10.692  0.4402 -0.2156 -0.2794
20247LIG    C1982251   4.248   1.912  10.522 -1.0945 -0.1328  0.3917
20247LIG    C2082252   4.225   2.008  10.621  0.2261  0.6616  0.5956
20247LIG     H182253   4.592   1.876  10.332  0.9257 -0.7959  0.6424
20247LIG     H282254   4.702   2.134  10.431  0.0343 -0.5391  0.0073
20247LIG     H382255   4.530   2.103  10.393 -0.7955 -2.3768  1.2079
20247LIG     H482256   4.821   1.785  10.375 -1.4859 -0.1700 -0.4272
20247LIG     H582257   4.884   1.946  10.412  0.6140  0.5008 -0.6921
20247LIG     H682258   4.745   1.691  10.531  0.5785 -0.5200 -1.2969
20247LIG     H782259   4.565   1.685  10.484  0.2801  0.1978  0.4220
20247LIG     H882260   4.651   2.215  10.194 -1.3707 -0.3511  0.5791
20247LIG     H982261   4.604   2.044  10.150  0.0328 -1.6927  0.7998
20247LIG    H1082262   4.752   1.860  10.156 -1.2210  2.0247 -1.0642
20247LIG    H1182263   4.934   1.892  10.173 -1.0177 -3.3971  0.2834
20247LIG    H1282264   4.883   2.123  10.246 -0.3514 -0.2545  0.5038
20247LIG    H1382265   4.834   2.091  10.069 -0.4603 -0.2894 -0.6107
20247LIG    H1482266   4.488   1.676  10.712  0.8376  0.6574  3.3136
20247LIG    H1582267   4.601   1.547  10.677  0.1329  0.0993 -1.1281
20247LIG    H1682268   4.511   1.786  10.911  0.7258  0.8525  1.9040
20247LIG    H1782269   4.666   1.781  10.996  0.4617 -0.8038  0.6331
20247LIG    H1882270   4.856   1.690  10.914 -0.1785 -0.1510  1.3954
20247LIG    H1982271   4.868   1.642  10.738 -2.0938  3.2629 -1.4646
20247LIG    H2082272   4.736   1.871  10.698  2.0598 -0.2452  1.5219
20247LIG    H2182273   4.499   1.531  10.902 -1.5875  0.6640  1.4071
20247LIG    H2282274   4.502   1.604  11.068 -0.1037 -0.9887  1.3365
20247LIG    H2382275   4.870   1.449  10.905  0.1693 -0.2122 -0.0775
20247LIG    H2482276   4.738   1.426  10.798  1.9446 -1.8311  1.8360
20247LIG    H2582277   4.675   1.392  11.048 -2.9950  0.8772  1.2725
20247LIG    H2682278   4.746   1.548  11.084 -2.5525  0.1133  1.3073
20247LIG    H2782279   4.536   2.051  10.741 -0.6599 -0.5918  0.1054
20247LIG    H2882280   4.384   1.781  10.432 -0.1931  1.9818 -1.6360
20247LIG    H2982281   4.312   2.142  10.764 -3.1218 -0.9485 -0.3571
20247LIG    H3082282   4.178   1.862  10.456 -0.6106  0.4751 -0.6022
20247LIG    H3182283   4.128   2.031  10.662  0.7887  2.9210  0.7835
   6.85534   6.85534  17.10737
