;;
;; Generated by CHARMM-GUI (http://www.charmm-gui.org) v1.7
;;
;; psf2itp_mol.py
;;
;; Correspondance:
;; jul316@lehigh.edu or wonpil@lehigh.edu
;;
;; GROMACS topology file for LIG
;;


[ moleculetype ]
; name	nrexcl
LIG	     3

[ atoms ]
; nr	type	resnr	residu	atom	cgnr	charge	mass
     1      SG311      1      LIG      S      1     -0.294    32.0600   ; qtot -0.294
     2       FGA2      1      LIG     F1      2     -0.203    18.9980   ; qtot -0.497
     3       FGA2      1      LIG     F2      3     -0.203    18.9980   ; qtot -0.700
     4     OG2R50      1      LIG      O      4     -0.075    15.9994   ; qtot -0.775
     5      NG301      1      LIG     N1      5     -0.489    14.0070   ; qtot -1.264
     6     NG2R51      1      LIG     N2      6      0.204    14.0070   ; qtot -1.060
     7     NG2R50      1      LIG     N3      7     -0.503    14.0070   ; qtot -1.563
     8     NG2R50      1      LIG     N4      8     -0.358    14.0070   ; qtot -1.921
     9     NG2R50      1      LIG     N5      9     -0.329    14.0070   ; qtot -2.250
    10     NG2R50      1      LIG     N6     10     -0.334    14.0070   ; qtot -2.584
    11      CG321      1      LIG     C1     11     -0.019    12.0110   ; qtot -2.603
    12      CG321      1      LIG     C2     12     -0.019    12.0110   ; qtot -2.622
    13      CG321      1      LIG     C3     13     -0.033    12.0110   ; qtot -2.655
    14      CG321      1      LIG     C4     14     -0.027    12.0110   ; qtot -2.682
    15      CG321      1      LIG     C5     15     -0.027    12.0110   ; qtot -2.709
    16     CG2R61      1      LIG     C6     16      0.004    12.0110   ; qtot -2.705
    17     CG2R61      1      LIG     C7     17     -0.124    12.0110   ; qtot -2.829
    18     CG2R61      1      LIG     C8     18     -0.122    12.0110   ; qtot -2.951
    19     CG2R61      1      LIG     C9     19      0.054    12.0110   ; qtot -2.897
    20     CG2R51      1      LIG    C10     20      0.381    12.0110   ; qtot -2.516
    21     CG2R61      1      LIG    C11     21     -0.109    12.0110   ; qtot -2.625
    22     CG2R61      1      LIG    C12     22     -0.117    12.0110   ; qtot -2.742
    23      CG321      1      LIG    C13     23      0.100    12.0110   ; qtot -2.642
    24     CG2R51      1      LIG    C14     24     -0.274    12.0110   ; qtot -2.916
    25     CG2R61      1      LIG    C15     25     -0.004    12.0110   ; qtot -2.920
    26     CG2R61      1      LIG    C16     26     -0.119    12.0110   ; qtot -3.039
    27     CG2R61      1      LIG    C17     27     -0.119    12.0110   ; qtot -3.158
    28     CG2R61      1      LIG    C18     28      0.066    12.0110   ; qtot -3.092
    29     CG2R61      1      LIG    C19     29     -0.111    12.0110   ; qtot -3.203
    30     CG2R61      1      LIG    C20     30     -0.111    12.0110   ; qtot -3.314
    31     CG2R53      1      LIG    C21     31      0.335    12.0110   ; qtot -2.979
    32     CG2R53      1      LIG    C22     32     -0.094    12.0110   ; qtot -3.073
    33      CG312      1      LIG    C23     33      0.725    12.0110   ; qtot -2.348
    34       HGA2      1      LIG     H1     34      0.090     1.0080   ; qtot -2.258
    35       HGA2      1      LIG     H2     35      0.090     1.0080   ; qtot -2.168
    36       HGA2      1      LIG     H3     36      0.090     1.0080   ; qtot -2.078
    37       HGA2      1      LIG     H4     37      0.090     1.0080   ; qtot -1.988
    38       HGA2      1      LIG     H5     38      0.090     1.0080   ; qtot -1.898
    39       HGA2      1      LIG     H6     39      0.090     1.0080   ; qtot -1.808
    40       HGA2      1      LIG     H7     40      0.090     1.0080   ; qtot -1.718
    41       HGA2      1      LIG     H8     41      0.090     1.0080   ; qtot -1.628
    42       HGA2      1      LIG     H9     42      0.090     1.0080   ; qtot -1.538
    43       HGA2      1      LIG    H10     43      0.090     1.0080   ; qtot -1.448
    44      HGR61      1      LIG    H11     44      0.115     1.0080   ; qtot -1.333
    45      HGR61      1      LIG    H12     45      0.115     1.0080   ; qtot -1.218
    46      HGR61      1      LIG    H13     46      0.115     1.0080   ; qtot -1.103
    47      HGR61      1      LIG    H14     47      0.115     1.0080   ; qtot -0.988
    48       HGA2      1      LIG    H15     48      0.090     1.0080   ; qtot -0.898
    49       HGA2      1      LIG    H16     49      0.090     1.0080   ; qtot -0.808
    50      HGR52      1      LIG    H17     50      0.224     1.0080   ; qtot -0.584
    51      HGR61      1      LIG    H18     51      0.115     1.0080   ; qtot -0.469
    52      HGR61      1      LIG    H19     52      0.115     1.0080   ; qtot -0.354
    53      HGR61      1      LIG    H20     53      0.115     1.0080   ; qtot -0.239
    54      HGR61      1      LIG    H21     54      0.115     1.0080   ; qtot -0.124
    55       HGA7      1      LIG    H22     55      0.124     1.0080   ; qtot -0.000

[ bonds ]
; ai	aj	funct	b0	Kb
    1    14     1
    1    15     1
    2    33     1
    3    33     1
    4    31     1
    4    32     1
    5    11     1
    5    12     1
    5    13     1
    6     8     1
    6    23     1
    6    24     1
    7     8     1
    7    20     1
    9    10     1
    9    31     1
   10    32     1
   11    14     1
   11    34     1
   11    35     1
   12    15     1
   12    36     1
   12    37     1
   13    16     1
   13    38     1
   13    39     1
   14    40     1
   14    41     1
   15    42     1
   15    43     1
   16    17     1
   16    18     1
   17    19     1
   17    44     1
   18    21     1
   18    45     1
   19    20     1
   19    22     1
   20    24     1
   21    22     1
   21    47     1
   22    46     1
   23    25     1
   23    48     1
   23    49     1
   24    50     1
   25    26     1
   25    27     1
   26    29     1
   26    51     1
   27    30     1
   27    52     1
   28    29     1
   28    30     1
   28    31     1
   29    53     1
   30    54     1
   32    33     1
   33    55     1

[ pairs ]
; ai	aj	funct	c6	c12
    1     5     1 
    1    34     1 
    1    35     1 
    1    36     1 
    1    37     1 
    2     4     1 
    2    10     1 
    3     4     1 
    3    10     1 
    4    29     1 
    4    30     1 
    4    55     1 
    5    17     1 
    5    18     1 
    5    40     1 
    5    41     1 
    5    42     1 
    5    43     1 
    6    19     1 
    6    26     1 
    6    27     1 
    7    17     1 
    7    22     1 
    7    23     1 
    7    50     1 
    8    19     1 
    8    25     1 
    8    48     1 
    8    49     1 
    8    50     1 
    9    29     1 
    9    30     1 
    9    33     1 
   10    28     1 
   10    55     1 
   11    15     1 
   11    16     1 
   11    36     1 
   11    37     1 
   11    38     1 
   11    39     1 
   12    14     1 
   12    16     1 
   12    34     1 
   12    35     1 
   12    38     1 
   12    39     1 
   13    14     1 
   13    15     1 
   13    19     1 
   13    21     1 
   13    34     1 
   13    35     1 
   13    36     1 
   13    37     1 
   13    44     1 
   13    45     1 
   14    42     1 
   14    43     1 
   15    40     1 
   15    41     1 
   16    20     1 
   16    22     1 
   16    47     1 
   17    21     1 
   17    24     1 
   17    38     1 
   17    39     1 
   17    45     1 
   17    46     1 
   18    19     1 
   18    38     1 
   18    39     1 
   18    44     1 
   18    46     1 
   19    47     1 
   19    50     1 
   20    21     1 
   20    23     1 
   20    44     1 
   20    46     1 
   22    24     1 
   22    44     1 
   22    45     1 
   23    29     1 
   23    30     1 
   23    50     1 
   23    51     1 
   23    52     1 
   24    25     1 
   24    48     1 
   24    49     1 
   25    28     1 
   25    53     1 
   25    54     1 
   26    30     1 
   26    31     1 
   26    48     1 
   26    49     1 
   26    52     1 
   27    29     1 
   27    31     1 
   27    48     1 
   27    49     1 
   27    51     1 
   28    32     1 
   28    51     1 
   28    52     1 
   29    54     1 
   30    53     1 
   31    33     1 
   31    53     1 
   31    54     1 
   34    40     1 
   34    41     1 
   35    40     1 
   35    41     1 
   36    42     1 
   36    43     1 
   37    42     1 
   37    43     1 
   45    47     1 
   46    47     1 
   51    53     1 
   52    54     1 

[ angles ] 
; ai	aj	ak	funct	th0	cth	S0	Kub
   14     1    15     5
   31     4    32     5
   11     5    12     5
   11     5    13     5
   12     5    13     5
    8     6    23     5
    8     6    24     5
   23     6    24     5
    8     7    20     5
    6     8     7     5
   10     9    31     5
    9    10    32     5
    5    11    14     5
    5    11    34     5
    5    11    35     5
   14    11    34     5
   14    11    35     5
   34    11    35     5
    5    12    15     5
    5    12    36     5
    5    12    37     5
   15    12    36     5
   15    12    37     5
   36    12    37     5
    5    13    16     5
    5    13    38     5
    5    13    39     5
   16    13    38     5
   16    13    39     5
   38    13    39     5
    1    14    11     5
    1    14    40     5
    1    14    41     5
   11    14    40     5
   11    14    41     5
   40    14    41     5
    1    15    12     5
    1    15    42     5
    1    15    43     5
   12    15    42     5
   12    15    43     5
   42    15    43     5
   13    16    17     5
   13    16    18     5
   17    16    18     5
   16    17    19     5
   16    17    44     5
   19    17    44     5
   16    18    21     5
   16    18    45     5
   21    18    45     5
   17    19    20     5
   17    19    22     5
   20    19    22     5
    7    20    19     5
    7    20    24     5
   19    20    24     5
   18    21    22     5
   18    21    47     5
   22    21    47     5
   19    22    21     5
   19    22    46     5
   21    22    46     5
    6    23    25     5
    6    23    48     5
    6    23    49     5
   25    23    48     5
   25    23    49     5
   48    23    49     5
    6    24    20     5
    6    24    50     5
   20    24    50     5
   23    25    26     5
   23    25    27     5
   26    25    27     5
   25    26    29     5
   25    26    51     5
   29    26    51     5
   25    27    30     5
   25    27    52     5
   30    27    52     5
   29    28    30     5
   29    28    31     5
   30    28    31     5
   26    29    28     5
   26    29    53     5
   28    29    53     5
   27    30    28     5
   27    30    54     5
   28    30    54     5
    4    31     9     5
    4    31    28     5
    9    31    28     5
    4    32    10     5
    4    32    33     5
   10    32    33     5
    2    33     3     5
    2    33    32     5
    2    33    55     5
    3    33    32     5
    3    33    55     5
   32    33    55     5

[ dihedrals ]
; ai	aj	ak	al	funct	phi0	cp	mult
   15     1    14    40     9
   15     1    14    41     9
   14     1    15    42     9
   14     1    15    43     9
   31     4    32    33     9
   12     5    11    14     9
   12     5    11    34     9
   12     5    11    35     9
   13     5    11    14     9
   13     5    11    34     9
   13     5    11    35     9
   11     5    12    15     9
   11     5    12    36     9
   11     5    12    37     9
   13     5    12    15     9
   13     5    12    36     9
   13     5    12    37     9
   11     5    13    16     9
   11     5    13    38     9
   11     5    13    39     9
   12     5    13    16     9
   12     5    13    38     9
   12     5    13    39     9
    8     6    23    25     9
    8     6    23    48     9
    8     6    23    49     9
   24     6    23    25     9
   24     6    23    48     9
   24     6    23    49     9
    8     6    24    20     9
    8     6    24    50     9
   23     6    24    50     9
    8     7    20    19     9
    8     7    20    24     9
    7     8     6    23     9
    7     8     6    24     9
    6     8     7    20     9
   31     9    10    32     9
   10     9    31    28     9
    9    10    32    33     9
    5    11    14    40     9
    5    11    14    41     9
   34    11    14    40     9
   34    11    14    41     9
   35    11    14    40     9
   35    11    14    41     9
    5    12    15    42     9
    5    12    15    43     9
   36    12    15    42     9
   36    12    15    43     9
   37    12    15    42     9
   37    12    15    43     9
    5    13    16    17     9
    5    13    16    18     9
   11    14     1    15     9
    1    14    11     5     9
    1    14    11    34     9
    1    14    11    35     9
   12    15     1    14     9
    1    15    12     5     9
    1    15    12    36     9
    1    15    12    37     9
   17    16    13    38     9
   17    16    13    39     9
   18    16    13    38     9
   18    16    13    39     9
   13    16    17    19     9
   13    16    17    44     9
   18    16    17    19     9
   18    16    17    44     9
   13    16    18    21     9
   13    16    18    45     9
   17    16    18    21     9
   17    16    18    45     9
   16    17    19    20     9
   16    17    19    22     9
   16    18    21    22     9
   16    18    21    47     9
   45    18    21    47     9
   20    19    17    44     9
   22    19    17    44     9
   17    19    20    24     9
   22    19    20    24     9
   17    19    22    21     9
   17    19    22    46     9
   20    19    22    21     9
   20    19    22    46     9
    7    20    19    17     9
    7    20    19    22     9
    7    20    24    50     9
   19    20    24    50     9
   22    21    18    45     9
   18    21    22    19     9
   18    21    22    46     9
   19    22    21    47     9
   46    22    21    47     9
    6    23    25    26     9
    6    23    25    27     9
   20    24     6    23     9
    6    24    20     7     9
    6    24    20    19     9
   26    25    23    48     9
   26    25    23    49     9
   27    25    23    48     9
   27    25    23    49     9
   23    25    26    29     9
   23    25    26    51     9
   27    25    26    29     9
   27    25    26    51     9
   23    25    27    30     9
   23    25    27    52     9
   26    25    27    30     9
   26    25    27    52     9
   25    26    29    28     9
   25    26    29    53     9
   51    26    29    53     9
   25    27    30    28     9
   25    27    30    54     9
   52    27    30    54     9
   30    28    29    53     9
   31    28    29    53     9
   29    28    30    54     9
   31    28    30    54     9
   28    29    26    51     9
   26    29    28    30     9
   26    29    28    31     9
   28    30    27    52     9
   27    30    28    29     9
   27    30    28    31     9
    9    31     4    32     9
   28    31     4    32     9
    4    31     9    10     9
    4    31    28    29     9
    4    31    28    30     9
    9    31    28    29     9
    9    31    28    30     9
   10    32     4    31     9
    4    32    10     9     9
    4    32    33    55     9
   10    32    33    55     9
    2    33    32     4     9
    2    33    32    10     9
    3    33    32     4     9
    3    33    32    10     9
