Title
42785
    1SAPS     N    1   6.050   3.011   6.613  0.1031  0.7151 -0.8278
    1SAPS   HN1    2   6.093   2.926   6.572  0.9461 -0.8771  2.9549
    1SAPS   HN2    3   6.015   3.078   6.541  0.6996  0.6670 -1.1731
    1SAPS   HN3    4   6.112   3.059   6.681  0.1179  0.7563 -0.8703
    1SAPS   C12    5   5.928   2.964   6.683  0.4264  0.0125  0.3095
    1SAPS  H12A    6   5.949   2.885   6.753 -1.5875  0.8141  1.9017
    1SAPS   C13    7   5.859   3.075   6.758  0.4119 -0.2254 -0.1154
    1SAPS  O13A    8   5.874   3.197   6.723 -0.9414 -0.0461 -0.1345
    1SAPS  O13B    9   5.817   3.045   6.873  0.0601  0.6588  0.2288
    1SAPS   C11   10   5.835   2.906   6.577  0.7908 -0.0126 -0.1573
    1SAPS  H11A   11   5.829   2.969   6.486 -0.0852 -2.1395 -1.6520
    1SAPS  H11B   12   5.731   2.890   6.614  1.4416 -0.1418  1.7389
    1SAPS     P   13   5.961   2.722   6.425  0.0632  0.0593 -0.1081
    1SAPS   O13   14   6.103   2.757   6.447  0.4325  0.5949  0.9241
    1SAPS   O14   15   5.948   2.575   6.403 -0.0371  0.2064  0.1824
    1SAPS   O12   16   5.881   2.771   6.547 -0.1480  0.1859 -0.0072
    1SAPS   O11   17   5.895   2.795   6.305 -0.1740 -0.0189 -0.1727
    1SAPS    C1   18   5.932   2.927   6.251 -0.1355 -0.2325 -0.2368
    1SAPS    HA   19   5.846   2.988   6.216  0.9799  1.3397 -0.3811
    1SAPS    HB   20   6.003   2.985   6.314  2.8160 -0.2657 -3.2726
    1SAPS    C2   21   6.021   2.902   6.122  0.5974 -0.7623  0.2254
    1SAPS    HS   22   5.959   2.856   6.042  1.4437  0.0580 -0.9323
    1SAPS   O21   23   6.125   2.811   6.166  0.4472  0.5741 -0.2089
    1SAPS   C21   24   6.195   2.758   6.065 -0.2291 -0.3531 -0.4623
    1SAPS   O22   25   6.175   2.766   5.947 -0.3112  0.6912  0.1429
    1SAPS   C22   26   6.325   2.700   6.134  0.2067  0.3923 -0.1564
    1SAPS   H2R   27   6.317   2.718   6.244  2.5537 -1.4453  0.3874
    1SAPS   H2S   28   6.317   2.591   6.116 -1.7220  0.5210 -0.2767
    1SAPS    C3   29   6.080   3.039   6.077 -0.4716 -0.7727  0.4558
    1SAPS    HX   30   6.174   3.058   6.132  1.3929  1.8890 -3.1849
    1SAPS    HY   31   6.008   3.122   6.091 -0.0267 -0.1623 -0.7110
    1SAPS   O31   32   6.124   3.024   5.941 -0.1709 -0.6345 -0.4378
    1SAPS   C31   33   6.038   3.040   5.844  0.5121 -0.1829 -0.0974
    1SAPS   O32   34   5.921   3.059   5.866  0.1396 -0.8439 -0.4605
    1SAPS   C32   35   6.114   3.019   5.711 -0.0954 -0.3530  0.1308
    1SAPS   H2X   36   6.170   2.925   5.727 -0.4362 -0.0183  4.8605
    1SAPS   H2Y   37   6.190   3.100   5.708  1.5529 -1.8724 -0.6556
    1SAPS   C23   38   6.461   2.749   6.080  0.1168 -0.3000 -0.8806
    1SAPS   H3R   39   6.464   2.736   5.970 -1.0878 -0.8695 -0.8597
    1SAPS   H3S   40   6.545   2.692   6.125 -0.5590  0.5160  1.5804
    1SAPS   C24   41   6.487   2.899   6.104  0.9068  0.1200  0.1328
    1SAPS   H4R   42   6.501   2.901   6.214 -0.3049 -0.7872  0.3300
    1SAPS   H4S   43   6.398   2.956   6.069  0.4577  0.0935  1.1936
    1SAPS   C25   44   6.611   2.955   6.043 -0.3999  0.3085  0.8519
    1SAPS   H5R   45   6.699   2.927   6.103 -0.4817 -1.0840  0.3500
    1SAPS   C26   46   6.637   3.012   5.921  0.0373  0.4101  0.9282
    1SAPS   H6R   47   6.736   3.050   5.893  0.7066  0.0893  2.7772
    1SAPS   C27   48   6.520   3.047   5.829 -0.4990 -0.3969  0.5537
    1SAPS   H7R   49   6.571   3.123   5.765 -1.3962  1.1621  1.6334
    1SAPS   H7S   50   6.446   3.116   5.874  0.1083  0.5495  0.1474
    1SAPS   C28   51   6.452   2.945   5.753 -0.2454  0.7958 -0.2656
    1SAPS   H8R   52   6.369   2.886   5.797 -0.1149 -0.6575 -1.8472
    1SAPS   C29   53   6.481   2.908   5.632 -0.8479  0.2821  0.0195
    1SAPS   H9R   54   6.421   2.827   5.588 -0.3446  0.3566 -0.8177
    1SAPS  C210   55   6.612   2.939   5.563 -0.1013  0.2123 -0.4510
    1SAPS  H10R   56   6.686   2.871   5.610 -0.1342  0.7771  0.4422
    1SAPS  H10S   57   6.655   3.036   5.597  1.1201 -1.1798  2.2536
    1SAPS  C211   58   6.623   2.932   5.408  0.4657 -0.2867 -0.8416
    1SAPS  H11R   59   6.564   3.008   5.355  3.0828  1.5243 -1.3625
    1SAPS  C212   60   6.704   2.856   5.344 -0.1048  0.7791 -0.5683
    1SAPS  H12R   61   6.692   2.858   5.234  0.3644  2.3984 -0.6115
    1SAPS  C213   62   6.798   2.747   5.402 -0.0441 -0.3361  0.3840
    1SAPS  H13R   63   6.771   2.710   5.503 -1.0626 -0.3711  0.1142
    1SAPS  H13S   64   6.905   2.772   5.419 -0.3917 -0.6474  3.7211
    1SAPS  C214   65   6.793   2.626   5.314  0.8523 -0.4671  0.1925
    1SAPS  H14R   66   6.726   2.548   5.351 -1.6651 -0.7078 -4.2238
    1SAPS  C215   67   6.870   2.600   5.203 -0.5775 -0.2712  0.0878
    1SAPS  H15R   68   6.870   2.499   5.159 -0.4634 -0.4026  0.3888
    1SAPS  C216   69   6.969   2.699   5.141 -0.0505 -0.0160 -0.2143
    1SAPS  H16R   70   7.077   2.675   5.158  0.2665  0.8864 -0.8796
    1SAPS  H16S   71   6.968   2.798   5.191 -1.0376  0.2463 -0.7441
    1SAPS  C217   72   6.954   2.723   4.987  0.4225 -0.3621 -0.0090
    1SAPS  H17R   73   6.954   2.621   4.945 -2.3217  0.7364 -3.0802
    1SAPS  H17S   74   7.048   2.760   4.941 -0.0421 -1.0152 -1.5297
    1SAPS  C218   75   6.840   2.808   4.949  0.3771  1.1250  0.0099
    1SAPS  H18R   76   6.865   2.909   4.989  1.2358  0.9626 -0.0896
    1SAPS  H18S   77   6.744   2.777   4.995  1.1269 -0.0643  0.8525
    1SAPS  C219   78   6.804   2.818   4.796 -0.2625  0.1896  0.4963
    1SAPS  H19R   79   6.721   2.891   4.789  0.6161  1.1684 -0.0423
    1SAPS  H19S   80   6.772   2.717   4.763  1.2677  0.2973 -1.4780
    1SAPS  C220   81   6.921   2.869   4.711  0.5568  0.4370  0.5825
    1SAPS  H20R   82   6.975   2.952   4.762  0.0120  1.6044 -0.6703
    1SAPS  H20S   83   6.879   2.891   4.610 -1.0244  0.9206  1.3198
    1SAPS  H20T   84   6.982   2.777   4.699 -2.4582 -1.4395 -1.9252
    1SAPS   C33   85   6.018   3.015   5.597  0.3923 -0.7729  0.5759
    1SAPS   H3X   86   5.960   3.110   5.601  1.1166 -0.3478  1.0579
    1SAPS   H3Y   87   5.952   2.926   5.611 -1.5872  0.3100 -1.1311
    1SAPS   C34   88   6.083   3.032   5.461 -0.0703 -0.2527  0.0310
    1SAPS   H4X   89   6.141   3.127   5.468 -1.9007  0.8413  1.1539
    1SAPS   H4Y   90   6.006   3.059   5.386 -0.3837 -0.3886  0.2987
    1SAPS   C35   91   6.157   2.906   5.422  0.1040 -0.5922 -0.2114
    1SAPS   H5X   92   6.079   2.828   5.420 -1.2591  0.6154  1.7742
    1SAPS   H5Y   93   6.227   2.883   5.506  0.6587  2.1019  0.1831
    1SAPS   C36   94   6.239   2.911   5.293  0.5049  0.3025 -0.1977
    1SAPS   H6X   95   6.315   2.992   5.294 -0.1318  0.9017 -0.3842
    1SAPS   H6Y   96   6.170   2.915   5.206 -0.7280 -1.0122  0.6809
    1SAPS   C37   97   6.306   2.776   5.272  0.7187 -0.1392  0.0344
    1SAPS   H7X   98   6.237   2.692   5.296  0.8058 -0.8382 -1.9466
    1SAPS   H7Y   99   6.391   2.775   5.342 -0.3138 -0.6895  1.3209
    1SAPS   C38  100   6.353   2.771   5.128  0.0500 -0.1059 -0.2174
    1SAPS   H8X  101   6.398   2.871   5.109 -2.0580  0.7556 -1.0759
    1SAPS   H8Y  102   6.269   2.775   5.054 -0.5547  0.7699  0.4984
    1SAPS   C39  103   6.435   2.647   5.099  0.6098  0.1499 -0.2772
    1SAPS   H9X  104   6.391   2.553   5.138  2.4885 -1.0429 -0.8860
    1SAPS   H9Y  105   6.533   2.648   5.151  0.8074  0.4873 -0.6471
    1SAPS  C310  106   6.456   2.628   4.948  0.2271  0.0623  0.4736
    1SAPS  H10X  107   6.534   2.691   4.898  1.7379 -1.8437  0.3042
    1SAPS  H10Y  108   6.361   2.638   4.890 -0.6505 -0.3893  1.7910
    1SAPS  C311  109   6.484   2.483   4.906  0.5467  0.0094  0.7859
    1SAPS  H11X  110   6.452   2.455   4.804 -1.0187 -0.0346  1.2716
    1SAPS  H11Y  111   6.445   2.413   4.983 -1.1931  2.6124  2.4179
    1SAPS  C312  112   6.634   2.456   4.921  0.8030 -0.0444 -0.8385
    1SAPS  H12X  113   6.656   2.452   5.030  0.0288  0.5639 -0.6569
    1SAPS  H12Y  114   6.676   2.556   4.893 -1.1069  1.0008 -0.1215
    1SAPS  C313  115   6.679   2.339   4.839 -0.3011 -0.1308  0.6639
    1SAPS  H13X  116   6.678   2.355   4.729 -0.7031 -2.2620  0.3046
    1SAPS  H13Y  117   6.623   2.245   4.862 -0.3260 -0.5487 -1.0186
    1SAPS  C314  118   6.833   2.314   4.865 -0.3621 -0.1197  0.3790
    1SAPS  H14X  119   6.835   2.281   4.971  0.2544  0.5522  0.5871
    1SAPS  H14Y  120   6.894   2.407   4.857 -2.0284  0.8706 -2.4944
    1SAPS  C315  121   6.886   2.195   4.780  0.2820  0.2501 -0.1340
    1SAPS  H15X  122   6.997   2.198   4.774  0.2746  0.7431 -0.0232
    1SAPS  H15Y  123   6.863   2.204   4.671  2.1195 -0.1412 -0.5935
    1SAPS  C316  124   6.835   2.057   4.822 -0.4865  0.1984  0.1747
    1SAPS  H16X  125   6.734   2.033   4.783 -0.1449  1.5776 -1.7105
    1SAPS  H16Y  126   6.821   2.049   4.932 -1.0754  1.3645  0.1996
    1SAPS  C317  127   6.928   1.946   4.774  0.2306  0.0274  0.5485
    1SAPS  H17X  128   7.036   1.964   4.792 -0.1584  2.5012  0.8082
    1SAPS  H17Y  129   6.936   1.944   4.663  0.9301 -0.8355  0.6087
    1SAPS  C318  130   6.871   1.815   4.822  0.2836  0.5331 -0.2586
    1SAPS  H18X  131   6.766   1.796   4.791  0.9428 -1.0105 -1.7406
    1SAPS  H18Y  132   6.876   1.810   4.933  1.7201  1.0398 -0.2779
    1SAPS  H18Z  133   6.927   1.726   4.785  1.7627  1.6219 -0.7100
    2SAPS     N  134   6.108   3.363   6.689  0.0333 -0.0644  0.0630
    2SAPS   HN1  135   6.065   3.451   6.654 -2.5010 -1.7123 -1.3101
    2SAPS   HN2  136   6.172   3.322   6.617  0.7047 -0.8354  1.0742
    2SAPS   HN3  137   6.031   3.294   6.698  0.1445 -0.1099  0.7319
    2SAPS   C12  138   6.185   3.377   6.819  0.2132 -0.3146 -0.0283
    2SAPS  H12A  139   6.108   3.405   6.889  0.2709 -0.3723  0.0571
    2SAPS   C13  140   6.239   3.239   6.860  0.6503 -0.1714  0.7295
    2SAPS  O13A  141   6.214   3.134   6.785 -0.0651 -0.1022  0.6910
    2SAPS  O13B  142   6.279   3.215   6.977  0.2793 -1.0809 -0.3799
    2SAPS   C11  143   6.302   3.478   6.807 -0.4697  0.4535  0.3092
    2SAPS  H11A  144   6.363   3.470   6.900  1.7378 -1.1650 -1.1545
    2SAPS  H11B  145   6.257   3.579   6.797 -0.5331  0.5888  1.7229
    2SAPS     P  146   6.517   3.525   6.680 -0.2993  0.1496  0.0479
    2SAPS   O13  147   6.531   3.642   6.765  1.0756 -0.0096  0.2126
    2SAPS   O14  148   6.624   3.426   6.684 -0.0102 -0.3468 -0.3671
    2SAPS   O12  149   6.380   3.444   6.692 -0.3773 -0.3320 -0.1582
    2SAPS   O11  150   6.508   3.564   6.532 -0.4068  0.4347 -0.1749
    2SAPS    C1  151   6.464   3.460   6.444  0.3489  0.1672  0.0987
    2SAPS    HA  152   6.498   3.358   6.473 -0.2792 -0.3417 -0.9001
    2SAPS    HB  153   6.354   3.466   6.435  0.4034  0.0445 -0.6942
    2SAPS    C2  154   6.517   3.486   6.298  0.0462  0.1063  0.2433
    2SAPS    HS  155   6.627   3.473   6.289 -0.1597 -1.5199 -0.2681
    2SAPS   O21  156   6.480   3.619   6.258 -0.2131 -0.2410 -0.3461
    2SAPS   C21  157   6.559   3.688   6.175  0.1316 -0.2003 -0.3110
    2SAPS   O22  158   6.664   3.652   6.130 -0.4502  0.5967 -0.2163
    2SAPS   C22  159   6.517   3.836   6.158 -0.0753  0.9979  0.9614
    2SAPS   H2R  160   6.439   3.849   6.080  0.4224  1.2242  0.4967
    2SAPS   H2S  161   6.474   3.871   6.254 -0.6716  1.5135  0.5162
    2SAPS    C3  162   6.446   3.379   6.215  0.3598  0.6683  0.5094
    2SAPS    HX  163   6.338   3.405   6.210  0.4476  0.8037 -1.6785
    2SAPS    HY  164   6.474   3.285   6.267 -0.3175  0.0176 -0.2680
    2SAPS   O31  165   6.489   3.379   6.078 -0.0188  0.5320 -0.1176
    2SAPS   C31  166   6.612   3.342   6.051  0.0220 -0.5743 -0.0679
    2SAPS   O32  167   6.693   3.296   6.125 -0.6114  0.1384  0.4153
    2SAPS   C32  168   6.654   3.390   5.913 -0.0455 -0.3697 -0.2472
    2SAPS   H2X  169   6.625   3.497   5.900  0.6445 -0.0007  0.9946
    2SAPS   H2Y  170   6.592   3.330   5.843 -2.8957  0.7503  1.1352
    2SAPS   C23  171   6.636   3.931   6.127 -0.0701 -0.3398  0.2855
    2SAPS   H3R  172   6.684   3.900   6.031  1.0875  2.3168 -0.0732
    2SAPS   H3S  173   6.710   3.906   6.206  1.3844 -2.1784 -1.5585
    2SAPS   C24  174   6.587   4.082   6.129 -0.6973 -0.4504 -0.1427
    2SAPS   H4R  175   6.567   4.111   6.234 -0.5492 -2.8377  0.6075
    2SAPS   H4S  176   6.493   4.091   6.070 -1.7838  0.7117  1.6668
    2SAPS   C25  177   6.698   4.168   6.069 -0.0276 -0.3285  0.6795
    2SAPS   H5R  178   6.733   4.230   6.152 -0.4326  0.8814 -0.0273
    2SAPS   C26  179   6.739   4.177   5.946 -0.2051 -0.3627 -0.1657
    2SAPS   H6R  180   6.825   4.240   5.920 -0.5871 -0.1956 -1.0729
    2SAPS   C27  181   6.674   4.101   5.832  0.1518 -1.0081 -0.7305
    2SAPS   H7R  182   6.568   4.072   5.850 -0.7799  2.9937  1.5931
    2SAPS   H7S  183   6.736   4.010   5.822 -0.7728 -1.5424 -1.7993
    2SAPS   C28  184   6.690   4.182   5.714 -0.6560  0.4829 -0.4003
    2SAPS   H8R  185   6.669   4.289   5.726 -0.3381  0.3269  1.9937
    2SAPS   C29  186   6.728   4.140   5.592  0.0697  0.4803  0.5334
    2SAPS   H9R  187   6.729   4.219   5.515 -2.1009  0.5346  0.5073
    2SAPS  C210  188   6.777   4.005   5.544  0.4365 -0.6793  0.0302
    2SAPS  H10R  189   6.866   3.968   5.600  2.5248  1.0483 -1.9283
    2SAPS  H10S  190   6.818   4.018   5.441  0.2058  0.4360  0.0678
    2SAPS  C211  191   6.665   3.903   5.546 -0.6284 -1.0275 -0.2701
    2SAPS  H11R  192   6.598   3.911   5.633  0.3510  0.4225  0.3848
    2SAPS  C212  193   6.640   3.806   5.456  0.5622  0.5905  0.0738
    2SAPS  H12R  194   6.546   3.748   5.462  1.9977 -2.3062 -2.7909
    2SAPS  C213  195   6.722   3.779   5.332 -0.1679 -0.0125 -0.3252
    2SAPS  H13R  196   6.709   3.670   5.317  1.8627 -0.4090  0.5544
    2SAPS  H13S  197   6.823   3.812   5.365 -2.1894  3.6274  3.1282
    2SAPS  C214  198   6.667   3.850   5.209  0.8032  0.1056 -0.3198
    2SAPS  H14R  199   6.643   3.958   5.216 -0.0985 -0.0875 -0.3224
    2SAPS  C215  200   6.654   3.806   5.088  0.0349  0.3573 -0.5329
    2SAPS  H15R  201   6.612   3.872   5.011  1.8039  1.4221 -0.6363
    2SAPS  C216  202   6.711   3.683   5.031 -0.0051  0.5847  0.0188
    2SAPS  H16R  203   6.624   3.617   5.011  1.4854 -1.7006  0.6120
    2SAPS  H16S  204   6.776   3.614   5.089  1.4283  1.0027 -1.0197
    2SAPS  C217  205   6.791   3.723   4.899  0.3677  0.4118  0.0139
    2SAPS  H17R  206   6.888   3.773   4.921 -0.0265  1.5056 -0.6499
    2SAPS  H17S  207   6.730   3.802   4.850  0.0460  0.8817  1.1571
    2SAPS  C218  208   6.821   3.609   4.810  0.4044  0.3293  0.5372
    2SAPS  H18R  209   6.725   3.561   4.780  1.1787 -0.4328 -0.8907
    2SAPS  H18S  210   6.885   3.531   4.855  2.2087  1.3927 -0.0940
    2SAPS  C219  211   6.886   3.657   4.674  0.3549 -0.1166 -0.1620
    2SAPS  H19R  212   6.806   3.713   4.623 -0.0469 -1.1634 -0.7052
    2SAPS  H19S  213   6.898   3.559   4.622  1.6139  0.3362 -0.7666
    2SAPS  C220  214   7.028   3.721   4.687  0.2769 -0.6798  0.0568
    2SAPS  H20R  215   7.107   3.657   4.732  0.3962  0.6802  1.8925
    2SAPS  H20S  216   7.017   3.812   4.749  0.5551  0.8725 -2.0546
    2SAPS  H20T  217   7.060   3.770   4.593 -0.3901 -1.3160 -0.5163
    2SAPS   C33  218   6.806   3.376   5.890 -0.0798  0.9724 -0.2622
    2SAPS   H3X  219   6.852   3.274   5.895  2.0342  1.8547 -0.5413
    2SAPS   H3Y  220   6.857   3.442   5.964 -0.4351 -0.6762  1.5403
    2SAPS   C34  221   6.851   3.440   5.753  0.5085 -0.2583  0.0220
    2SAPS   H4X  222   6.961   3.459   5.762  0.4687  0.2766 -0.6133
    2SAPS   H4Y  223   6.797   3.532   5.724 -0.3709 -1.4200 -2.2083
    2SAPS   C35  224   6.827   3.335   5.640 -0.2990 -0.1821 -0.0668
    2SAPS   H5X  225   6.721   3.302   5.637 -0.3705  0.0124  0.2533
    2SAPS   H5Y  226   6.891   3.246   5.664  0.9742  0.1017 -2.1980
    2SAPS   C36  227   6.857   3.390   5.499 -0.0398 -0.9614 -0.5801
    2SAPS   H6X  228   6.966   3.412   5.490 -0.3247  1.8596  1.4293
    2SAPS   H6Y  229   6.815   3.490   5.478  1.8548 -0.4872 -2.4796
    2SAPS   C37  230   6.804   3.292   5.397  0.6738 -0.5545 -0.1670
    2SAPS   H7X  231   6.700   3.262   5.420  0.5704  0.3473  0.6199
    2SAPS   H7Y  232   6.857   3.194   5.402 -0.2783 -1.0342  0.9446
    2SAPS   C38  233   6.813   3.339   5.255  0.6066 -0.0403  0.4045
    2SAPS   H8X  234   6.919   3.363   5.231 -0.1258  3.5826  0.2770
    2SAPS   H8Y  235   6.772   3.439   5.231  2.4003  0.0687 -2.7290
    2SAPS   C39  236   6.770   3.238   5.149  0.2029 -0.3164 -0.1390
    2SAPS   H9X  237   6.662   3.214   5.146 -0.0081  0.6579 -1.1731
    2SAPS   H9Y  238   6.813   3.137   5.164  1.2716  0.0724 -0.5201
    2SAPS  C310  239   6.800   3.278   5.009  0.5049 -0.3008  0.3468
    2SAPS  H10X  240   6.908   3.288   4.983  0.1896 -1.6583 -1.6794
    2SAPS  H10Y  241   6.746   3.374   4.994 -3.6137 -2.3698  0.6636
    2SAPS  C311  242   6.754   3.174   4.913  0.2872  0.4680 -0.2263
    2SAPS  H11X  243   6.660   3.135   4.958 -0.4127  3.5214  1.2450
    2SAPS  H11Y  244   6.811   3.079   4.911  0.2127  0.2670  2.7519
    2SAPS  C312  245   6.721   3.228   4.775 -0.2697 -0.3842  0.0869
    2SAPS  H12X  246   6.660   3.319   4.792 -1.6899 -1.2708 -0.0956
    2SAPS  H12Y  247   6.654   3.161   4.717  0.3063 -1.0440  0.1699
    2SAPS  C313  248   6.847   3.259   4.705 -0.5486 -0.4000  0.0855
    2SAPS  H13X  249   6.931   3.188   4.725 -0.3583  0.0334  0.8374
    2SAPS  H13Y  250   6.881   3.357   4.743  1.3406 -0.0471 -2.2609
    2SAPS  C314  251   6.808   3.258   4.564 -1.0492  0.0755 -0.1721
    2SAPS  H14X  252   6.725   3.331   4.551 -0.6400  0.2564 -2.2243
    2SAPS  H14Y  253   6.768   3.160   4.530 -0.4875 -0.4658  0.6933
    2SAPS  C315  254   6.932   3.304   4.486  0.4700 -0.0453  0.3636
    2SAPS  H15X  255   7.002   3.218   4.479  2.2450  1.2139  1.6598
    2SAPS  H15Y  256   7.001   3.370   4.542  1.9605 -1.1693 -0.0840
    2SAPS  C316  257   6.914   3.364   4.348  0.6397  0.3806  0.6988
    2SAPS  H16X  258   6.839   3.446   4.344  1.9331  1.6353  1.4432
    2SAPS  H16Y  259   6.869   3.279   4.291  1.7174  0.2074  0.0889
    2SAPS  C317  260   7.041   3.423   4.291 -0.1210  0.4801 -0.1042
    2SAPS  H17X  261   7.035   3.448   4.183  0.7615 -2.4590 -0.9160
    2SAPS  H17Y  262   7.127   3.354   4.298 -2.5426 -2.5929  1.5903
    2SAPS  C318  263   7.068   3.545   4.371  0.1312 -1.0289 -0.3692
    2SAPS  H18X  264   6.976   3.606   4.381  0.2436 -0.7602 -0.9176
    2SAPS  H18Y  265   7.149   3.609   4.330 -0.1362  0.0917  0.7685
    2SAPS  H18Z  266   7.089   3.526   4.479 -0.9277  0.5659  0.1530
    3SAPS     N  267   6.762   1.778   7.098  0.0584 -0.3318  0.1626
    3SAPS   HN1  268   6.759   1.779   6.994  0.9171 -0.4744  0.1257
    3SAPS   HN2  269   6.857   1.738   7.113  1.0541  2.3017  1.6173
    3SAPS   HN3  270   6.687   1.722   7.143 -1.0216 -0.3932 -1.6417
    3SAPS   C12  271   6.758   1.914   7.162  0.4343 -0.4439 -0.4115
    3SAPS  H12A  272   6.654   1.943   7.155  0.8271  1.4214  0.8068
    3SAPS   C13  273   6.801   1.928   7.310 -0.2996 -0.1623 -0.0001
    3SAPS  O13A  274   6.842   1.825   7.369  0.5083 -0.1949  0.2390
    3SAPS  O13B  275   6.788   2.038   7.371  0.1601  0.1104  0.0631
    3SAPS   C11  276   6.845   2.009   7.067  0.6092 -0.0654 -0.7162
    3SAPS  H11A  277   6.942   1.960   7.088  0.1697  0.2046  2.3097
    3SAPS  H11B  278   6.840   2.114   7.102 -0.0857 -0.5715  0.7829
    3SAPS     P  279   6.826   2.064   6.793  0.0199  0.1866 -0.6563
    3SAPS   O13  280   6.701   2.068   6.713 -0.2419  0.2599  0.1169
    3SAPS   O14  281   6.902   2.188   6.827 -0.5501 -0.6346  0.1932
    3SAPS   O12  282   6.796   1.985   6.933  0.0730 -0.6567  0.3855
    3SAPS   O11  283   6.923   1.960   6.719  0.6274 -0.0651 -0.2909
    3SAPS    C1  284   7.067   1.978   6.740 -0.0515 -0.5707 -0.7846
    3SAPS    HA  285   7.089   2.008   6.845  0.7127 -0.1976 -1.0460
    3SAPS    HB  286   7.125   1.885   6.727 -1.4598 -1.5522 -0.3173
    3SAPS    C2  287   7.127   2.098   6.644  0.2057  0.0832  0.0147
    3SAPS    HS  288   7.097   2.189   6.701 -1.4109  0.4439 -1.3184
    3SAPS   O21  289   7.071   2.090   6.509  0.5507  0.6899  0.6281
    3SAPS   C21  290   7.036   2.209   6.451  0.2381 -0.1406 -0.3157
    3SAPS   O22  291   7.044   2.315   6.508  0.2906  0.0006 -0.4708
    3SAPS   C22  292   6.966   2.186   6.315 -0.1430  0.2524 -0.1660
    3SAPS   H2R  293   6.973   2.078   6.289 -0.8459  0.2562 -0.3877
    3SAPS   H2S  294   6.859   2.216   6.324  0.0867  1.0455  0.0264
    3SAPS    C3  295   7.276   2.095   6.648  0.1149  0.2506  0.1156
    3SAPS    HX  296   7.312   1.998   6.608  2.2467  1.7144 -1.7625
    3SAPS    HY  297   7.314   2.100   6.752  0.9106 -0.3829 -0.1431
    3SAPS   O31  298   7.334   2.201   6.572  0.1326  0.1619 -0.0311
    3SAPS   C31  299   7.332   2.319   6.634 -0.0090 -0.0552 -0.7445
    3SAPS   O32  300   7.298   2.341   6.752 -0.0639  0.4105 -0.2088
    3SAPS   C32  301   7.377   2.426   6.529  0.3921  0.2368 -0.0230
    3SAPS   H2X  302   7.379   2.368   6.434 -1.0821 -0.9559  0.6359
    3SAPS   H2Y  303   7.481   2.452   6.559  0.7922 -0.1037 -1.0794
    3SAPS   C23  304   7.039   2.266   6.199  0.6587 -0.1813 -0.8062
    3SAPS   H3R  305   6.982   2.234   6.109 -2.7862  0.2294  1.0670
    3SAPS   H3S  306   7.144   2.228   6.202  0.6364 -0.2535 -0.9207
    3SAPS   C24  307   7.053   2.419   6.210 -0.0414 -0.1330 -0.5477
    3SAPS   H4R  308   7.100   2.465   6.121  1.1368 -1.5348 -0.7025
    3SAPS   H4S  309   7.116   2.463   6.291  0.6214 -0.5054 -0.8478
    3SAPS   C25  310   6.916   2.484   6.229  0.0451  0.3146 -0.2183
    3SAPS   H5R  311   6.879   2.483   6.333  0.2750  0.4367 -0.1344
    3SAPS   C26  312   6.835   2.531   6.131 -0.1533 -0.5021  0.2994
    3SAPS   H6R  313   6.733   2.567   6.152 -0.1466 -1.1742  1.6011
    3SAPS   C27  314   6.898   2.527   5.989 -0.0422  0.6651  0.8254
    3SAPS   H7R  315   6.913   2.422   5.956  1.1788  1.7484 -2.4260
    3SAPS   H7S  316   6.995   2.581   5.991  0.6415 -0.5165  0.2845
    3SAPS   C28  317   6.817   2.594   5.880  0.1368  0.7191 -0.1465
    3SAPS   H8R  318   6.758   2.679   5.919  0.2078  0.2906  0.9362
    3SAPS   C29  319   6.827   2.575   5.746  0.2127  0.4522  0.6576
    3SAPS   H9R  320   6.754   2.630   5.684  2.3699  2.2837 -0.4281
    3SAPS  C210  321   6.913   2.470   5.673 -0.0376 -0.0942 -0.1374
    3SAPS  H10R  322   6.988   2.438   5.749 -0.8455 -1.9217 -0.0556
    3SAPS  H10S  323   6.967   2.517   5.588 -1.1348  0.8992 -0.3198
    3SAPS  C211  324   6.843   2.350   5.622  0.2094  0.1581 -0.1280
    3SAPS  H11R  325   6.740   2.325   5.653 -0.6939  1.9643 -1.4554
    3SAPS  C212  326   6.883   2.269   5.524  0.5083  0.2991  0.2328
    3SAPS  H12R  327   6.810   2.190   5.506 -3.3724  3.3951  1.0143
    3SAPS  C213  328   7.010   2.267   5.445 -0.0469  0.0923 -0.4039
    3SAPS  H13R  329   7.072   2.179   5.469 -0.7386 -0.1108  0.6865
    3SAPS  H13S  330   7.079   2.347   5.479  2.2316 -1.3069 -1.4879
    3SAPS  C214  331   6.981   2.292   5.294  0.6616  0.3688 -0.5708
    3SAPS  H14R  332   6.882   2.330   5.265  1.0038  0.3280 -1.8844
    3SAPS  C215  333   7.062   2.257   5.191 -0.1316 -0.4799  0.2465
    3SAPS  H15R  334   7.029   2.264   5.086 -1.4926 -0.0395  0.6881
    3SAPS  C216  335   7.198   2.184   5.214  0.5363 -0.9437  0.1418
    3SAPS  H16R  336   7.241   2.210   5.312  0.5486  1.1052 -0.3726
    3SAPS  H16S  337   7.260   2.236   5.137  1.8869 -1.9760  0.4775
    3SAPS  C217  338   7.195   2.032   5.207  0.5409 -0.0634  0.2880
    3SAPS  H17R  339   7.113   1.998   5.273 -1.4938  1.3905 -1.3548
    3SAPS  H17S  340   7.291   1.989   5.243 -0.0003 -1.5927 -0.0403
    3SAPS  C218  341   7.168   1.986   5.059  0.7142  0.5472  0.4024
    3SAPS  H18R  342   7.245   2.041   5.000  0.7234  2.1805  1.8584
    3SAPS  H18S  343   7.071   2.017   5.014  0.5800  0.3136  0.5290
    3SAPS  C219  344   7.189   1.832   5.034  0.6437 -0.1993  0.0338
    3SAPS  H19R  345   7.189   1.811   4.925 -0.1006 -0.2406  0.0382
    3SAPS  H19S  346   7.282   1.788   5.076 -0.3698 -1.5515  0.9363
    3SAPS  C220  347   7.088   1.744   5.103  0.0418  0.0527 -0.2049
    3SAPS  H20R  348   7.035   1.678   5.031  2.1611 -0.0979 -1.6901
    3SAPS  H20S  349   7.008   1.809   5.145 -2.2899 -1.5776 -1.8484
    3SAPS  H20T  350   7.136   1.677   5.178  1.7243  0.7274 -0.6365
    3SAPS   C33  351   7.295   2.558   6.519  0.6357 -0.7022 -0.0398
    3SAPS   H3X  352   7.270   2.595   6.621  0.5371 -0.5700 -0.1108
    3SAPS   H3Y  353   7.201   2.534   6.465  0.9984  1.6903 -1.9456
    3SAPS   C34  354   7.374   2.668   6.455 -0.3752  0.0522 -0.4584
    3SAPS   H4X  355   7.472   2.679   6.505 -0.5565 -0.1594 -0.0547
    3SAPS   H4Y  356   7.323   2.765   6.470 -0.1517 -0.0158  0.8411
    3SAPS   C35  357   7.385   2.653   6.305 -0.2685 -0.2665  0.2258
    3SAPS   H5X  358   7.434   2.558   6.273 -2.0410 -2.7860  4.2020
    3SAPS   H5Y  359   7.281   2.633   6.272 -0.7813 -2.3021  2.7638
    3SAPS   C36  360   7.443   2.778   6.236  0.6214  0.2200  0.0797
    3SAPS   H6X  361   7.545   2.789   6.280  0.7815 -2.2555  0.4850
    3SAPS   H6Y  362   7.379   2.866   6.260 -2.1600 -1.2207 -1.5969
    3SAPS   C37  363   7.458   2.751   6.083  0.6544  0.4957  0.8867
    3SAPS   H7X  364   7.356   2.729   6.044  0.2325  0.8339  1.7610
    3SAPS   H7Y  365   7.530   2.670   6.061 -0.2817  0.0313 -0.6316
    3SAPS   C38  366   7.514   2.882   6.012  0.2491  0.1015  0.0682
    3SAPS   H8X  367   7.622   2.881   6.037 -0.0189  0.0691  1.3309
    3SAPS   H8Y  368   7.472   2.975   6.057 -2.7492 -1.0694 -0.0890
    3SAPS   C39  369   7.482   2.878   5.864 -0.1410  0.0347  0.1622
    3SAPS   H9X  370   7.373   2.893   5.847 -0.4462 -2.9763 -1.0800
    3SAPS   H9Y  371   7.487   2.770   5.837 -1.1050 -0.3826  1.5268
    3SAPS  C310  372   7.575   2.963   5.775 -0.6861 -0.4853 -0.0614
    3SAPS  H10X  373   7.679   2.934   5.801 -0.2917  1.1391  0.2744
    3SAPS  H10Y  374   7.570   3.073   5.787  0.0758 -0.0806 -2.7210
    3SAPS  C311  375   7.566   2.933   5.619  1.0902 -0.2005  0.0320
    3SAPS  H11X  376   7.461   2.964   5.596  1.5074  0.0102 -1.6867
    3SAPS  H11Y  377   7.566   2.823   5.604  0.0230 -0.6399  2.6216
    3SAPS  C312  378   7.674   2.995   5.542 -0.5206 -0.1609  0.4803
    3SAPS  H12X  379   7.771   2.946   5.565 -0.7664 -2.0561 -2.0008
    3SAPS  H12Y  380   7.675   3.102   5.571 -3.0397 -0.1594  0.7576
    3SAPS  C313  381   7.652   2.993   5.387 -0.1693  0.3770  0.4565
    3SAPS  H13X  382   7.547   3.016   5.361 -0.7395  0.1765  2.4067
    3SAPS  H13Y  383   7.674   2.889   5.352 -0.3239 -0.2933  2.2614
    3SAPS  C314  384   7.738   3.092   5.313 -0.2854 -0.2116 -0.2418
    3SAPS  H14X  385   7.843   3.084   5.348 -0.1100 -0.8480 -0.8685
    3SAPS  H14Y  386   7.704   3.189   5.353  1.4501 -0.4727  2.0452
    3SAPS  C315  387   7.730   3.085   5.160  0.6379 -0.4138 -0.4732
    3SAPS  H15X  388   7.774   3.180   5.121  2.2080 -0.4115  1.1830
    3SAPS  H15Y  389   7.621   3.075   5.144  0.7433 -2.5374 -0.1580
    3SAPS  C316  390   7.795   2.963   5.102 -0.3385  0.4165 -0.5168
    3SAPS  H16X  391   7.735   2.871   5.119 -0.5540  0.4184 -1.2053
    3SAPS  H16Y  392   7.899   2.954   5.140 -0.4816  0.2981 -0.1500
    3SAPS  C317  393   7.781   2.974   4.951  0.3736  0.2638  0.0795
    3SAPS  H17X  394   7.832   3.062   4.906  0.0584  1.3605  1.7790
    3SAPS  H17Y  395   7.676   2.961   4.918  0.9360 -1.3701 -1.2075
    3SAPS  C318  396   7.850   2.844   4.903  0.0304 -0.8146 -0.3099
    3SAPS  H18X  397   7.932   2.811   4.969 -1.9459 -1.4111  1.9889
    3SAPS  H18Y  398   7.872   2.860   4.795 -1.0619  0.9700 -0.3069
    3SAPS  H18Z  399   7.778   2.759   4.900 -0.2323 -0.9011  3.7697
    4SAPS     N  400   4.704   1.700   6.803 -0.0913 -0.0420  0.5513
    4SAPS   HN1  401   4.737   1.782   6.748  1.7473 -1.5738 -0.7575
    4SAPS   HN2  402   4.751   1.615   6.766 -3.0695 -1.9494  0.8302
    4SAPS   HN3  403   4.603   1.685   6.784 -0.1789 -0.3589  1.2310
    4SAPS   C12  404   4.716   1.725   6.946 -0.6173 -0.6112 -0.4275
    4SAPS  H12A  405   4.650   1.808   6.966 -0.4689 -0.3884 -0.8464
    4SAPS   C13  406   4.663   1.613   7.040  0.4096  0.4051 -0.6974
    4SAPS  O13A  407   4.640   1.499   6.993  0.1794  0.2748 -0.3955
    4SAPS  O13B  408   4.667   1.634   7.168 -0.3023 -0.4458 -0.0760
    4SAPS   C11  409   4.861   1.765   6.983  0.2144  0.0861 -0.0437
    4SAPS  H11A  410   4.915   1.678   6.941  0.7963 -0.1635  1.1719
    4SAPS  H11B  411   4.870   1.769   7.094  2.4030 -1.6979 -0.0956
    4SAPS     P  412   5.039   1.917   6.850  0.4198  0.2811  0.1957
    4SAPS   O13  413   5.040   2.037   6.766  0.1874 -0.2213  0.0917
    4SAPS   O14  414   5.151   1.894   6.947  0.4110 -0.4840  0.0212
    4SAPS   O12  415   4.901   1.890   6.922  0.1007 -0.5281 -0.4320
    4SAPS   O11  416   5.036   1.798   6.752  0.8841 -0.1593  0.0933
    4SAPS    C1  417   5.150   1.722   6.721 -0.5257  0.0095  0.4453
    4SAPS    HA  418   5.197   1.691   6.817 -1.4257  0.1750  0.9516
    4SAPS    HB  419   5.115   1.627   6.675  2.2601 -1.3053  0.8384
    4SAPS    C2  420   5.250   1.786   6.621  0.0888 -0.1192 -0.3819
    4SAPS    HS  421   5.227   1.894   6.626 -1.9700 -0.5433  0.1311
    4SAPS   O21  422   5.241   1.748   6.488  0.1590 -0.1417  0.6737
    4SAPS   C21  423   5.142   1.798   6.417  0.0026  0.5465 -0.3291
    4SAPS   O22  424   5.068   1.890   6.447  0.0142 -0.1082  0.1262
    4SAPS   C22  425   5.152   1.735   6.274 -0.0683 -0.4809 -0.0599
    4SAPS   H2R  426   5.058   1.678   6.265 -0.3834 -0.2278  1.4008
    4SAPS   H2S  427   5.151   1.819   6.201 -1.5561 -0.8006 -0.4395
    4SAPS    C3  428   5.406   1.776   6.658 -0.1140  1.0015 -0.2969
    4SAPS    HX  429   5.437   1.669   6.655 -0.3495  0.8653  1.2898
    4SAPS    HY  430   5.416   1.800   6.766  0.0247  0.3908 -0.1678
    4SAPS   O31  431   5.490   1.862   6.577  0.2104  0.2958  0.1494
    4SAPS   C31  432   5.574   1.805   6.487 -0.5834  0.4136  0.6237
    4SAPS   O32  433   5.609   1.687   6.487  0.3677 -0.5051 -0.1467
    4SAPS   C32  434   5.617   1.905   6.372 -0.2372  0.5009 -1.0724
    4SAPS   H2X  435   5.695   1.975   6.409 -0.2645 -0.4133  0.8474
    4SAPS   H2Y  436   5.535   1.976   6.347  0.6821  1.4691 -1.4160
    4SAPS   C23  437   5.284   1.661   6.245  0.0704  0.6425 -0.8845
    4SAPS   H3R  438   5.306   1.585   6.322 -0.7789  1.0041 -0.2683
    4SAPS   H3S  439   5.365   1.738   6.246  0.0472  0.6663  0.0790
    4SAPS   C24  440   5.271   1.579   6.110  0.8027 -0.4277 -0.0165
    4SAPS   H4R  441   5.237   1.656   6.038  1.3453  0.6169  0.8104
    4SAPS   H4S  442   5.198   1.498   6.133  0.3032 -0.0129 -0.1315
    4SAPS   C25  443   5.403   1.510   6.079  0.0208 -0.4004  0.3328
    4SAPS   H5R  444   5.474   1.484   6.159  0.1743 -0.7796  0.0744
    4SAPS   C26  445   5.458   1.505   5.954  0.0276 -1.0144  0.5692
    4SAPS   H6R  446   5.559   1.463   5.949  1.0564  1.3959 -0.8312
    4SAPS   C27  447   5.394   1.531   5.815  0.5682 -0.5351  0.3859
    4SAPS   H7R  448   5.284   1.516   5.812  0.4478  0.3814 -2.3587
    4SAPS   H7S  449   5.433   1.446   5.755  0.2730  0.0560 -0.6586
    4SAPS   C28  450   5.422   1.670   5.756  0.2627 -0.0022 -0.2487
    4SAPS   H8R  451   5.401   1.754   5.824 -1.4003  0.9417 -1.8136
    4SAPS   C29  452   5.437   1.709   5.629 -0.6255  0.1742  0.6938
    4SAPS   H9R  453   5.455   1.814   5.606 -0.9859 -0.3130 -2.0998
    4SAPS  C210  454   5.447   1.607   5.514  0.2872 -0.4557 -0.3581
    4SAPS  H10R  455   5.420   1.663   5.422 -0.4727 -2.3732 -1.3581
    4SAPS  H10S  456   5.373   1.527   5.531 -0.2168  0.3516  1.4455
    4SAPS  C211  457   5.576   1.540   5.476 -0.3598  0.1510  0.0261
    4SAPS  H11R  458   5.655   1.544   5.553 -0.3423  2.2589 -0.0548
    4SAPS  C212  459   5.590   1.460   5.368  0.1905  0.9061 -0.0317
    4SAPS  H12R  460   5.686   1.407   5.354  0.4941  1.1141  1.1143
    4SAPS  C213  461   5.495   1.440   5.251  0.0550  0.0568 -0.6745
    4SAPS  H13R  462   5.387   1.451   5.275 -0.2623  0.1419 -2.0536
    4SAPS  H13S  463   5.500   1.333   5.220 -1.5765  0.6154 -3.0656
    4SAPS  C214  464   5.534   1.535   5.141 -0.2483  0.7891  0.4203
    4SAPS  H14R  465   5.558   1.638   5.167  0.3518  1.0217 -0.9587
    4SAPS  C215  466   5.554   1.514   5.010  0.2036  0.8120  0.9514
    4SAPS  H15R  467   5.593   1.589   4.940 -0.9461 -0.0751 -0.7266
    4SAPS  C216  468   5.527   1.382   4.943  0.0518  0.4540  0.1926
    4SAPS  H16R  469   5.473   1.302   4.998 -2.5720  2.4686  0.7838
    4SAPS  H16S  470   5.629   1.344   4.925 -0.5946 -1.4186  0.2981
    4SAPS  C217  471   5.444   1.395   4.816 -0.4440 -0.2348  0.5388
    4SAPS  H17R  472   5.371   1.478   4.824  1.2081  1.2345  0.9206
    4SAPS  H17S  473   5.394   1.297   4.801 -0.2899 -0.0462 -1.4810
    4SAPS  C218  474   5.539   1.411   4.696  0.4565  0.5477 -0.4222
    4SAPS  H18R  475   5.615   1.331   4.707 -0.7580 -0.6322 -0.3232
    4SAPS  H18S  476   5.575   1.516   4.698 -2.5821  1.6892  0.6964
    4SAPS  C219  477   5.462   1.373   4.564 -0.8044 -0.3058 -1.0188
    4SAPS  H19R  478   5.404   1.463   4.536  1.7285  1.7212 -0.1807
    4SAPS  H19S  479   5.393   1.287   4.575 -0.8775 -0.2418 -0.9776
    4SAPS  C220  480   5.555   1.324   4.442 -0.4646  0.0022 -0.3570
    4SAPS  H20R  481   5.629   1.247   4.474  0.3512  0.8632 -0.1136
    4SAPS  H20S  482   5.623   1.407   4.414  1.6283 -1.5112 -0.0991
    4SAPS  H20T  483   5.492   1.309   4.352 -0.8133  2.2642 -0.5474
    4SAPS   C33  484   5.661   1.830   6.245  0.7095  0.0338 -0.2309
    4SAPS   H3X  485   5.583   1.752   6.230  0.1624  0.6584 -0.7228
    4SAPS   H3Y  486   5.753   1.768   6.256  0.2080 -0.6183  0.3553
    4SAPS   C34  487   5.640   1.920   6.122  0.2725  0.1090 -0.3930
    4SAPS   H4X  488   5.708   2.008   6.117  0.6075 -0.2224 -3.2159
    4SAPS   H4Y  489   5.537   1.960   6.125  0.0449 -0.5057  1.5272
    4SAPS   C35  490   5.680   1.844   5.996 -0.3568 -0.1398 -0.1150
    4SAPS   H5X  491   5.586   1.795   5.963  0.3513 -0.5757 -1.5174
    4SAPS   H5Y  492   5.762   1.776   6.027 -1.8008 -1.4482  1.0388
    4SAPS   C36  493   5.749   1.923   5.882 -0.1037 -0.1286  0.2357
    4SAPS   H6X  494   5.835   1.982   5.921 -1.1764 -0.4108  3.3023
    4SAPS   H6Y  495   5.677   1.989   5.830  1.0483  1.8015  0.9769
    4SAPS   C37  496   5.804   1.837   5.761  0.3804  0.2412  0.0522
    4SAPS   H7X  497   5.728   1.759   5.740  0.2067  0.0368  1.3569
    4SAPS   H7Y  498   5.894   1.785   5.800  1.1204  2.4155  1.4715
    4SAPS   C38  499   5.835   1.936   5.647  0.4888 -0.0612 -0.5754
    4SAPS   H8X  500   5.910   2.009   5.687  0.0967  0.6453 -1.1012
    4SAPS   H8Y  501   5.744   1.991   5.614 -0.2248 -2.3507 -2.7124
    4SAPS   C39  502   5.899   1.838   5.542  0.5314  0.6217 -0.6734
    4SAPS   H9X  503   5.839   1.745   5.533  0.9610  0.3834 -1.1471
    4SAPS   H9Y  504   5.995   1.814   5.591 -0.2527  0.1222  0.6698
    4SAPS  C310  505   5.936   1.901   5.405  0.5961  0.0219  0.0299
    4SAPS  H10X  506   5.971   1.816   5.344 -0.6510 -0.5541  0.0897
    4SAPS  H10Y  507   6.015   1.979   5.413  0.2843  0.2760  0.7924
    4SAPS  C311  508   5.822   1.959   5.319  0.5612  0.4825  0.8138
    4SAPS  H11X  509   5.787   2.056   5.360  2.0742  0.2532  2.7835
    4SAPS  H11Y  510   5.736   1.888   5.327  0.5385  0.5114  0.8265
    4SAPS  C312  511   5.854   1.971   5.169 -0.0888 -0.0971  0.0019
    4SAPS  H12X  512   5.944   2.034   5.152 -0.1623 -0.0771 -0.3124
    4SAPS  H12Y  513   5.764   2.018   5.124 -0.7105 -1.5161 -0.3029
    4SAPS  C313  514   5.879   1.832   5.087  0.3816 -0.4668  0.1062
    4SAPS  H13X  515   5.795   1.768   5.120 -0.2768 -0.0381 -0.6983
    4SAPS  H13Y  516   5.967   1.776   5.125 -0.1469 -0.8508  0.7875
    4SAPS  C314  517   5.889   1.849   4.932 -0.3079 -0.3381 -0.8787
    4SAPS  H14X  518   5.966   1.924   4.907  0.8085 -0.5951  1.4961
    4SAPS  H14Y  519   5.792   1.881   4.889 -0.1184 -0.1574 -1.1710
    4SAPS  C315  520   5.938   1.726   4.854 -0.2794 -0.2471 -0.3702
    4SAPS  H15X  521   5.860   1.654   4.886 -3.1722  2.6960 -0.3334
    4SAPS  H15Y  522   6.037   1.691   4.890  0.4789  0.8006 -1.3783
    4SAPS  C316  523   5.963   1.770   4.706  0.8450 -0.0688  0.0125
    4SAPS  H16X  524   6.042   1.848   4.705 -0.9636  1.8396 -0.3331
    4SAPS  H16Y  525   5.874   1.821   4.664  1.6565  0.3072 -1.3405
    4SAPS  C317  526   5.997   1.647   4.620 -0.0077  0.0008  0.4670
    4SAPS  H17X  527   5.923   1.565   4.625 -0.2633 -0.0944 -2.7825
    4SAPS  H17Y  528   6.096   1.614   4.658  0.8927 -1.1574 -2.5934
    4SAPS  C318  529   5.998   1.685   4.469 -0.0288 -0.3297 -0.3180
    4SAPS  H18X  530   5.916   1.753   4.440  1.1390  1.2442 -0.0699
    4SAPS  H18Y  531   5.979   1.589   4.416  2.3298 -1.0448  0.0221
    4SAPS  H18Z  532   6.091   1.742   4.446  0.7527 -1.7833 -0.8779
    5SAPS     N  533   0.415   3.539   7.021  1.0576 -1.1988  0.4412
    5SAPS   HN1  534   0.378   3.449   6.984  0.0621 -0.5644 -0.1614
    5SAPS   HN2  535   0.349   3.619   7.009  1.2469 -1.1892 -0.5950
    5SAPS   HN3  536   0.502   3.564   6.971  1.2941 -0.4427  1.2035
    5SAPS   C12  537   0.448   3.501   7.158 -0.1384  0.0625  0.4715
    5SAPS  H12A  538   0.502   3.583   7.203 -2.4713  1.2418  1.2744
    5SAPS   C13  539   0.326   3.475   7.248  0.3787  0.3160  0.6692
    5SAPS  O13A  540   0.224   3.437   7.187  0.5071 -0.6358 -0.3667
    5SAPS  O13B  541   0.343   3.454   7.370  0.6150  0.1315 -0.0610
    5SAPS   C11  542   0.545   3.384   7.142 -0.6860 -0.0861  0.2767
    5SAPS  H11A  543   0.571   3.349   7.245  0.2234 -0.1457  0.0328
    5SAPS  H11B  544   0.638   3.420   7.094 -0.9995 -1.5396 -1.5445
    5SAPS     P  545   0.595   3.203   6.952 -0.6724  0.0055  0.2982
    5SAPS   O13  546   0.728   3.205   7.013 -0.3695 -0.0610 -0.7418
    5SAPS   O14  547   0.541   3.071   6.915  0.5399 -0.5694  0.0857
    5SAPS   O12  548   0.501   3.264   7.066  0.9473  0.0049  0.0439
    5SAPS   O11  549   0.581   3.306   6.836 -0.0094  0.2755 -0.0386
    5SAPS    C1  550   0.458   3.315   6.759 -1.3582  0.4518 -0.2505
    5SAPS    HA  551   0.377   3.301   6.834 -0.1032  1.5620  1.4007
    5SAPS    HB  552   0.443   3.420   6.727  2.9197  0.6818 -2.2100
    5SAPS    C2  553   0.447   3.228   6.635 -0.4493  0.5737 -0.4377
    5SAPS    HS  554   0.459   3.123   6.669 -1.5879  0.4192 -0.4446
    5SAPS   O21  555   0.548   3.261   6.544 -0.1721 -0.4241  0.5727
    5SAPS   C21  556   0.610   3.160   6.483 -0.4470 -0.0829  0.8404
    5SAPS   O22  557   0.609   3.047   6.526 -0.3881  0.3518 -0.0681
    5SAPS   C22  558   0.681   3.216   6.361 -0.8201  0.2188 -0.6646
    5SAPS   H2R  559   0.597   3.263   6.305 -3.0040 -3.2071 -0.6012
    5SAPS   H2S  560   0.748   3.291   6.406 -1.2653 -0.3515  1.0387
    5SAPS    C3  561   0.295   3.213   6.584  0.4463  0.2032 -0.0047
    5SAPS    HX  562   0.262   3.314   6.550  1.4799 -0.0401 -1.8408
    5SAPS    HY  563   0.213   3.193   6.657  0.9979 -0.9416  0.3277
    5SAPS   O31  564   0.286   3.124   6.468  0.1516 -0.3806 -0.3574
    5SAPS   C31  565   0.269   2.999   6.505  0.7334  0.3081  0.6104
    5SAPS   O32  566   0.258   2.961   6.623  0.5011 -0.5244  0.0167
    5SAPS   C32  567   0.286   2.905   6.393 -0.3201  0.4257  0.6991
    5SAPS   H2X  568   0.229   2.816   6.426 -1.7860  1.1883  0.2948
    5SAPS   H2Y  569   0.395   2.882   6.389 -0.6128 -0.9772 -2.7153
    5SAPS   C23  570   0.776   3.120   6.282  0.3440 -0.3888 -0.9363
    5SAPS   H3R  571   0.718   3.030   6.251 -0.7825  0.0014 -0.0345
    5SAPS   H3S  572   0.860   3.085   6.345  1.1866  1.8815 -0.7028
    5SAPS   C24  573   0.848   3.181   6.164  0.3886  0.9680 -0.1899
    5SAPS   H4R  574   0.772   3.218   6.091 -1.3143  2.5470  2.2097
    5SAPS   H4S  575   0.904   3.096   6.121 -0.3518  1.1885 -1.6664
    5SAPS   C25  576   0.950   3.283   6.200 -0.7030  0.2723  0.0206
    5SAPS   H5R  577   0.994   3.288   6.301 -3.1187 -0.8100  1.2233
    5SAPS   C26  578   0.994   3.382   6.119 -0.0375  0.0394 -0.7741
    5SAPS   H6R  579   1.066   3.457   6.156  0.8903 -1.0492 -0.3147
    5SAPS   C27  580   0.950   3.397   5.981  0.1698 -0.1592 -0.0170
    5SAPS   H7R  581   0.978   3.499   5.946 -0.7306 -0.0494 -0.4478
    5SAPS   H7S  582   0.839   3.400   5.978  0.0808  2.6538  2.1611
    5SAPS   C28  583   1.003   3.300   5.886 -0.8275  0.1932  0.6685
    5SAPS   H8R  584   0.969   3.196   5.896  0.3368 -0.2170  0.5251
    5SAPS   C29  585   1.079   3.326   5.778 -0.1972 -0.3278  1.1380
    5SAPS   H9R  586   1.117   3.245   5.714 -0.8379  0.7918 -0.7291
    5SAPS  C210  587   1.145   3.459   5.752  0.0212  0.5780 -0.1558
    5SAPS  H10R  588   1.070   3.541   5.762 -0.1071  0.3565  0.8226
    5SAPS  H10S  589   1.171   3.468   5.644 -2.9468 -1.3070 -1.1480
    5SAPS  C211  590   1.266   3.481   5.835  0.1483  0.7469 -0.6646
    5SAPS  H11R  591   1.246   3.531   5.931  1.5696 -1.2247  0.7355
    5SAPS  C212  592   1.395   3.457   5.801 -0.9857  0.1112  0.7236
    5SAPS  H12R  593   1.475   3.484   5.873 -0.0575  1.5017 -0.7683
    5SAPS  C213  594   1.450   3.404   5.669  0.5278 -0.4362  0.4546
    5SAPS  H13R  595   1.389   3.313   5.651 -0.4664 -0.5423  3.6260
    5SAPS  H13S  596   1.553   3.371   5.693 -0.4335 -3.0302  1.3363
    5SAPS  C214  597   1.441   3.512   5.557  0.1078  0.1599  0.6248
    5SAPS  H14R  598   1.423   3.616   5.589  2.1884  0.4411  0.9966
    5SAPS  C215  599   1.461   3.501   5.421  0.3029 -0.7888 -1.1229
    5SAPS  H15R  600   1.470   3.593   5.363 -1.0735  0.8426  1.0938
    5SAPS  C216  601   1.481   3.374   5.344 -0.0863 -0.5234  1.3120
    5SAPS  H16R  602   1.500   3.286   5.409  0.2731 -1.8373 -0.4720
    5SAPS  H16S  603   1.566   3.390   5.274 -0.7924  0.9697  0.7440
    5SAPS  C217  604   1.369   3.339   5.246  0.2012  0.7704  0.1831
    5SAPS  H17R  605   1.274   3.326   5.303  0.6508  0.8937  0.9803
    5SAPS  H17S  606   1.389   3.240   5.200 -0.0806  0.9333 -0.2962
    5SAPS  C218  607   1.367   3.439   5.129 -0.0905  0.7919 -0.5905
    5SAPS  H18R  608   1.453   3.428   5.060  0.4489 -0.1211  0.2027
    5SAPS  H18S  609   1.369   3.544   5.163  1.2949  1.2812 -2.0699
    5SAPS  C219  610   1.243   3.411   5.037  0.4399  0.7848  0.0068
    5SAPS  H19R  611   1.147   3.421   5.094 -1.4840  1.2637 -3.0881
    5SAPS  H19S  612   1.248   3.309   4.996 -1.8636  0.3773  0.5817
    5SAPS  C220  613   1.225   3.503   4.916 -0.3423 -0.1336 -0.0393
    5SAPS  H20R  614   1.136   3.467   4.860 -0.2554 -0.6483  0.1446
    5SAPS  H20S  615   1.306   3.489   4.841 -2.2469 -3.0210 -1.7502
    5SAPS  H20T  616   1.221   3.610   4.948 -0.1572 -0.5650  1.5085
    5SAPS   C33  617   0.232   2.950   6.255  0.2605 -0.2751  0.0191
    5SAPS   H3X  618   0.257   3.055   6.227 -1.6393  0.1261 -0.3106
    5SAPS   H3Y  619   0.121   2.950   6.250  0.2711  2.2209 -2.9922
    5SAPS   C34  620   0.260   2.851   6.135 -0.3128 -0.0884  0.0567
    5SAPS   H4X  621   0.233   2.747   6.160 -1.3810  0.2288  0.2536
    5SAPS   H4Y  622   0.370   2.848   6.120 -0.3978 -1.4397 -0.3630
    5SAPS   C35  623   0.186   2.885   6.004  0.1747 -0.5041  1.0426
    5SAPS   H5X  624   0.179   2.996   6.002  1.6655 -0.3051 -2.7009
    5SAPS   H5Y  625   0.083   2.845   6.009  0.5263 -1.5459  0.3673
    5SAPS   C36  626   0.267   2.854   5.881 -0.0535  0.1619  0.1484
    5SAPS   H6X  627   0.265   2.747   5.850  0.5005  0.6711 -1.7612
    5SAPS   H6Y  628   0.373   2.880   5.905 -0.6580  2.0319  0.9897
    5SAPS   C37  629   0.234   2.944   5.758  0.8365 -0.4332 -0.2122
    5SAPS   H7X  630   0.264   3.047   5.786  1.2143 -0.0325 -1.9614
    5SAPS   H7Y  631   0.124   2.938   5.741  0.7875  0.6633 -0.3464
    5SAPS   C38  632   0.319   2.914   5.632  0.3447  0.6505 -1.2439
    5SAPS   H8X  633   0.309   2.807   5.604 -0.1359  0.1230  0.7406
    5SAPS   H8Y  634   0.428   2.925   5.651  0.2614  1.8498 -1.4056
    5SAPS   C39  635   0.290   3.006   5.514 -0.0243 -0.0461 -0.0472
    5SAPS   H9X  636   0.320   3.109   5.542  2.2736 -1.0422  1.5877
    5SAPS   H9Y  637   0.179   3.010   5.506 -0.1712 -0.0400  1.5715
    5SAPS  C310  638   0.363   2.974   5.386  0.3474 -0.6644 -0.7543
    5SAPS  H10X  639   0.349   2.866   5.363 -0.7924 -0.9874  1.1761
    5SAPS  H10Y  640   0.472   2.993   5.395  0.5584 -0.9304 -2.5497
    5SAPS  C311  641   0.321   3.069   5.271 -1.1900 -0.1205  0.1021
    5SAPS  H11X  642   0.342   3.169   5.314  1.2570  0.3172 -1.8362
    5SAPS  H11Y  643   0.210   3.079   5.263 -1.1517  2.4544  1.8443
    5SAPS  C312  644   0.386   3.042   5.139 -0.3670  0.0797  0.5926
    5SAPS  H12X  645   0.392   3.138   5.084 -2.4301  0.4672  0.9648
    5SAPS  H12Y  646   0.313   2.985   5.078  0.0728  0.9330 -0.7637
    5SAPS  C313  647   0.519   2.958   5.137  0.0542 -0.4851 -0.1565
    5SAPS  H13X  648   0.492   2.853   5.162  0.1616 -0.4994 -0.1015
    5SAPS  H13Y  649   0.588   2.986   5.220 -1.2457  3.2222 -0.1251
    5SAPS  C314  650   0.597   2.964   5.005  0.1124  0.2407 -0.0863
    5SAPS  H14X  651   0.694   2.915   5.026  0.2887  0.7645  0.3516
    5SAPS  H14Y  652   0.622   3.067   4.969  2.7427 -0.4212 -0.4013
    5SAPS  C315  653   0.529   2.885   4.894 -0.4862 -0.3884  0.8309
    5SAPS  H15X  654   0.436   2.934   4.858  0.4261  1.5182  0.9230
    5SAPS  H15Y  655   0.509   2.780   4.923 -1.0390 -1.1218 -1.9187
    5SAPS  C316  656   0.624   2.864   4.773 -0.1944  0.1652  0.4289
    5SAPS  H16X  657   0.574   2.795   4.701  0.5565  2.2838 -2.2947
    5SAPS  H16Y  658   0.715   2.806   4.800 -1.4274 -1.5197  1.1286
    5SAPS  C317  659   0.662   2.982   4.694  0.4455 -0.2872  0.0176
    5SAPS  H17X  660   0.732   2.938   4.620 -1.5516 -1.8509 -1.0222
    5SAPS  H17Y  661   0.730   3.049   4.753  1.4025  0.7209 -2.1315
    5SAPS  C318  662   0.547   3.058   4.629 -0.9479  0.5321  0.5016
    5SAPS  H18X  663   0.482   3.107   4.705 -1.9803 -1.6045  1.0820
    5SAPS  H18Y  664   0.481   2.992   4.569 -0.2658  0.2392  0.0597
    5SAPS  H18Z  665   0.587   3.132   4.558  1.3701 -0.5411  0.5952
    6SAPS     N  666   3.703   3.477   6.779  0.2393 -0.3117  0.7299
    6SAPS   HN1  667   3.627   3.476   6.851  1.7915 -4.1388  2.5822
    6SAPS   HN2  668   3.731   3.573   6.753 -2.0773  0.1340 -0.4317
    6SAPS   HN3  669   3.661   3.445   6.689 -0.5457  1.8534  0.2568
    6SAPS   C12  670   3.811   3.387   6.824  0.2876  0.0151 -0.2937
    6SAPS  H12A  671   3.860   3.446   6.900  1.1544 -0.9849 -0.0497
    6SAPS   C13  672   3.765   3.250   6.891  0.0780 -0.5359 -0.0012
    6SAPS  O13A  673   3.647   3.252   6.940 -0.6046 -0.9348 -0.3257
    6SAPS  O13B  674   3.853   3.178   6.939 -0.8051 -0.0400 -0.1049
    6SAPS   C11  675   3.911   3.367   6.708  0.4067 -0.1798 -0.9492
    6SAPS  H11A  676   3.856   3.323   6.622  0.3776 -2.1266  0.0058
    6SAPS  H11B  677   3.990   3.295   6.741  1.5636  0.1751 -2.8237
    6SAPS     P  678   4.091   3.548   6.729 -0.0373 -0.5553 -0.4478
    6SAPS   O13  679   4.062   3.690   6.752 -0.1321 -0.1131  0.0801
    6SAPS   O14  680   4.117   3.472   6.856  0.1260  0.3099  0.0918
    6SAPS   O12  681   3.963   3.486   6.666 -0.3458  0.0263 -0.0720
    6SAPS   O11  682   4.203   3.535   6.621  0.2168 -0.2067  0.6348
    6SAPS    C1  683   4.269   3.412   6.579 -0.5172  0.3371  0.1549
    6SAPS    HA  684   4.378   3.429   6.590 -0.4348  0.8078 -1.1679
    6SAPS    HB  685   4.241   3.325   6.642 -1.3376  0.7201  0.3296
    6SAPS    C2  686   4.255   3.375   6.429  0.6899 -0.0816 -0.4644
    6SAPS    HS  687   4.311   3.449   6.368 -0.2861  0.1495 -1.1135
    6SAPS   O21  688   4.114   3.383   6.391  0.6356  0.2277  0.0790
    6SAPS   C21  689   4.067   3.493   6.351 -0.6497  0.5502  0.2807
    6SAPS   O22  690   4.129   3.595   6.316 -0.0052 -0.5296  0.3582
    6SAPS   C22  691   3.915   3.472   6.335  0.5535 -0.5263  0.6400
    6SAPS   H2R  692   3.888   3.381   6.392 -0.4531  0.4373  1.7646
    6SAPS   H2S  693   3.865   3.560   6.382 -1.5062 -0.6409 -1.1684
    6SAPS    C3  694   4.327   3.231   6.395  0.0139  0.2801 -0.2247
    6SAPS    HX  695   4.271   3.152   6.449  1.0971 -1.7419 -1.9259
    6SAPS    HY  696   4.426   3.247   6.441 -0.5187  1.6708  0.5140
    6SAPS   O31  697   4.336   3.209   6.243  0.4951 -0.8766 -0.5897
    6SAPS   C31  698   4.257   3.115   6.191  0.0190 -0.1953 -0.1054
    6SAPS   O32  699   4.175   3.046   6.253  0.1908 -0.5160  0.2403
    6SAPS   C32  700   4.310   3.080   6.049 -0.4769 -0.4796  0.2718
    6SAPS   H2X  701   4.359   2.982   6.064  0.4014  0.0623  1.1096
    6SAPS   H2Y  702   4.392   3.147   6.014  0.7585 -2.5973 -1.0984
    6SAPS   C23  703   3.869   3.454   6.186 -0.5796 -0.0863 -0.8018
    6SAPS   H3R  704   3.892   3.550   6.136 -2.3290  1.1756  0.6762
    6SAPS   H3S  705   3.758   3.447   6.178 -0.8602  1.8992  0.6970
    6SAPS   C24  706   3.934   3.331   6.113  0.4106  0.1164 -0.5446
    6SAPS   H4R  707   3.884   3.238   6.147 -2.5593  0.9692 -2.2456
    6SAPS   H4S  708   4.042   3.328   6.139  0.7351 -0.0910 -1.8669
    6SAPS   C25  709   3.922   3.331   5.966  0.7263 -0.2601 -0.5796
    6SAPS   H5R  710   3.829   3.284   5.930  0.6500 -0.2168 -0.4384
    6SAPS   C26  711   3.987   3.399   5.871  0.3328 -0.2275 -0.6141
    6SAPS   H6R  712   3.952   3.395   5.767 -1.0352  0.3197 -0.2067
    6SAPS   C27  713   4.121   3.483   5.889  0.0749  0.4408 -0.5811
    6SAPS   H7R  714   4.100   3.565   5.961 -0.9076 -0.5004  0.2340
    6SAPS   H7S  715   4.158   3.531   5.796  1.5644 -1.5768 -1.1076
    6SAPS   C28  716   4.250   3.420   5.936  0.4274 -0.2182  0.7590
    6SAPS   H8R  717   4.248   3.406   6.045 -1.6434  1.7800  1.0591
    6SAPS   C29  718   4.362   3.391   5.865 -0.8745 -0.4827 -0.0708
    6SAPS   H9R  719   4.443   3.342   5.922  0.1755 -0.0248 -1.1216
    6SAPS  C210  720   4.396   3.413   5.721 -0.3058  0.3493 -0.5129
    6SAPS  H10R  721   4.493   3.362   5.705 -0.9225 -0.4059 -2.1149
    6SAPS  H10S  722   4.418   3.521   5.707 -0.3314  0.1793 -2.0718
    6SAPS  C211  723   4.296   3.368   5.617  0.2856 -0.2223 -1.1388
    6SAPS  H11R  724   4.201   3.332   5.659  0.0937 -0.2987 -1.6384
    6SAPS  C212  725   4.308   3.362   5.488 -0.4445  0.5153 -0.1058
    6SAPS  H12R  726   4.225   3.321   5.428  0.5965 -0.4372 -0.9404
    6SAPS  C213  727   4.432   3.410   5.410 -0.0358 -0.9037  0.2101
    6SAPS  H13R  728   4.484   3.320   5.371 -0.3549 -0.9179 -0.1901
    6SAPS  H13S  729   4.502   3.456   5.483  1.7222 -0.0474 -1.9091
    6SAPS  C214  730   4.401   3.510   5.295 -0.3360 -0.4791 -0.4110
    6SAPS  H14R  731   4.435   3.612   5.319  0.1804 -0.9201  0.8094
    6SAPS  C215  732   4.364   3.479   5.166  0.0487  0.3651  0.0813
    6SAPS  H15R  733   4.348   3.559   5.092  1.2541  1.2164  0.7056
    6SAPS  C216  734   4.338   3.341   5.121  0.3655 -0.1297  0.4333
    6SAPS  H16R  735   4.228   3.339   5.106  0.3359  1.8974 -0.0045
    6SAPS  H16S  736   4.371   3.263   5.193  0.7206  0.1973  0.6308
    6SAPS  C217  737   4.401   3.290   4.987 -0.0064 -0.3485  0.0713
    6SAPS  H17R  738   4.366   3.188   4.963 -1.7020  0.1244  0.3838
    6SAPS  H17S  739   4.511   3.288   4.972 -0.2141 -1.1156 -1.5369
    6SAPS  C218  740   4.347   3.369   4.866  0.2232 -0.8699  0.1464
    6SAPS  H18R  741   4.400   3.466   4.856  0.2891 -0.9989 -0.8161
    6SAPS  H18S  742   4.239   3.390   4.882  0.6948  1.6518  0.4509
    6SAPS  C219  743   4.361   3.299   4.727  0.0417  0.0945 -0.2144
    6SAPS  H19R  744   4.283   3.338   4.658  0.5803  0.9411 -0.3567
    6SAPS  H19S  745   4.330   3.195   4.749 -1.2166  0.9754  2.5714
    6SAPS  C220  746   4.500   3.317   4.661 -0.0524  0.1674 -0.1548
    6SAPS  H20R  747   4.505   3.304   4.551  2.2143 -1.0439  0.0349
    6SAPS  H20S  748   4.568   3.242   4.707 -0.1175  0.7443  0.9197
    6SAPS  H20T  749   4.543   3.417   4.682  0.9192 -0.1742 -0.4580
    6SAPS   C33  750   4.197   3.062   5.951  0.3429 -0.0722  0.0495
    6SAPS   H3X  751   4.139   3.156   5.941 -2.1012 -1.5167 -0.1714
    6SAPS   H3Y  752   4.123   2.993   5.995 -1.2205  1.1159 -0.6128
    6SAPS   C34  753   4.239   3.004   5.811 -0.1659 -0.2633 -0.6358
    6SAPS   H4X  754   4.259   2.897   5.829 -1.8805 -0.3939  0.6557
    6SAPS   H4Y  755   4.333   3.061   5.793 -0.7855  2.1682  2.7482
    6SAPS   C35  756   4.147   3.016   5.702 -0.4337 -0.4794  0.0517
    6SAPS   H5X  757   4.097   3.116   5.709 -1.4719 -0.7908 -2.0954
    6SAPS   H5Y  758   4.069   2.937   5.711 -1.4639  0.5190  0.1973
    6SAPS   C36  759   4.217   3.017   5.560  0.3954  0.4746  0.3295
    6SAPS   H6X  760   4.263   2.918   5.539 -2.9444 -1.5311  1.6387
    6SAPS   H6Y  761   4.297   3.092   5.548  0.8297 -0.3126 -2.2310
    6SAPS   C37  762   4.099   3.047   5.466 -0.3687 -0.4609  1.1667
    6SAPS   H7X  763   4.055   3.145   5.491  1.1744  0.6104 -0.0908
    6SAPS   H7Y  764   4.044   2.960   5.506  1.9933 -1.5607  2.2745
    6SAPS   C38  765   4.137   3.046   5.313 -0.2754 -0.2217 -0.2716
    6SAPS   H8X  766   4.214   2.969   5.290  0.3695  0.1147  0.6889
    6SAPS   H8Y  767   4.180   3.147   5.299 -0.1779  0.0030  1.4523
    6SAPS   C39  768   4.015   3.024   5.226 -1.2939 -0.1514 -0.7420
    6SAPS   H9X  769   3.936   3.097   5.254 -0.9670  0.4907 -1.4330
    6SAPS   H9Y  770   3.966   2.925   5.238  0.7968 -1.1502  0.0430
    6SAPS  C310  771   4.023   3.059   5.071  0.4840  0.3972 -0.2139
    6SAPS  H10X  772   4.035   3.170   5.064  0.6975  0.3738 -0.2443
    6SAPS  H10Y  773   3.925   3.035   5.026  0.4874  0.7324 -0.4090
    6SAPS  C311  774   4.137   2.988   5.003 -0.4702  0.1584 -0.6916
    6SAPS  H11X  775   4.233   2.995   5.058 -0.4419 -1.3619 -0.5200
    6SAPS  H11Y  776   4.165   3.049   4.914 -0.8239 -0.5664 -1.3084
    6SAPS  C312  777   4.113   2.842   4.945  0.0401 -0.4142  0.2396
    6SAPS  H12X  778   4.019   2.801   4.988 -2.7076  3.3221 -1.6816
    6SAPS  H12Y  779   4.197   2.772   4.964  0.1946 -1.5673 -3.7766
    6SAPS  C313  780   4.076   2.843   4.800  0.0828  0.1649  0.6058
    6SAPS  H13X  781   4.038   2.742   4.774  5.1966 -1.9873  0.4798
    6SAPS  H13Y  782   4.164   2.835   4.732  1.5826 -1.5389  2.6361
    6SAPS  C314  783   3.973   2.949   4.743  0.5965  0.2419 -0.4943
    6SAPS  H14X  784   4.022   3.049   4.749  1.6906 -0.3228  4.1849
    6SAPS  H14Y  785   3.889   2.946   4.816  2.2107  0.7684  1.4909
    6SAPS  C315  786   3.927   2.914   4.598 -0.0221 -0.3679 -0.5804
    6SAPS  H15X  787   3.899   2.806   4.600  1.5137 -0.7823  0.1801
    6SAPS  H15Y  788   4.017   2.919   4.533 -1.1258 -1.0110 -2.2152
    6SAPS  C316  789   3.816   2.997   4.539 -0.4394  0.4417 -0.1129
    6SAPS  H16X  790   3.807   2.955   4.436 -0.7685 -1.5058  0.6769
    6SAPS  H16Y  791   3.850   3.103   4.527  1.4062 -0.2830 -2.0197
    6SAPS  C317  792   3.681   2.974   4.611 -1.4101  0.0739 -0.5734
    6SAPS  H17X  793   3.700   2.998   4.717 -1.0579 -2.6789  0.0609
    6SAPS  H17Y  794   3.663   2.864   4.605 -0.9497 -0.1702  1.6092
    6SAPS  C318  795   3.561   3.048   4.556 -0.0747  0.2813  0.0649
    6SAPS  H18X  796   3.564   3.026   4.447  1.2428 -1.4811  0.4153
    6SAPS  H18Y  797   3.591   3.155   4.559  0.8199  0.0346  3.0733
    6SAPS  H18Z  798   3.466   3.047   4.612  0.3692 -0.6189  0.8286
    7SAPS     N  799   6.098   4.647   6.558  0.2629  0.4966 -0.7087
    7SAPS   HN1  800   6.197   4.618   6.575 -0.2060 -0.0372  1.4826
    7SAPS   HN2  801   6.114   4.729   6.496  1.5751  0.8342  0.0242
    7SAPS   HN3  802   6.050   4.665   6.649 -1.6706 -1.8391 -1.1784
    7SAPS   C12  803   6.013   4.557   6.473  0.2223  0.4063 -0.1930
    7SAPS  H12A  804   5.993   4.470   6.533  3.4246 -0.9182 -0.8100
    7SAPS   C13  805   5.878   4.609   6.423 -0.5733 -0.0466  0.2037
    7SAPS  O13A  806   5.838   4.722   6.456  0.3291  0.4988  0.2670
    7SAPS  O13B  807   5.800   4.527   6.363 -0.0750  0.2568 -0.0799
    7SAPS   C11  808   6.102   4.537   6.339  0.4189  0.5004 -0.1149
    7SAPS  H11A  809   6.085   4.620   6.267  1.5050 -0.0764 -1.0645
    7SAPS  H11B  810   6.045   4.449   6.303 -0.6571 -0.0840  2.7674
    7SAPS     P  811   6.308   4.393   6.312 -0.0535  0.0204  0.1696
    7SAPS   O13  812   6.449   4.402   6.359  0.5399  0.2377 -0.6072
    7SAPS   O14  813   6.232   4.273   6.353  0.6528 -0.0015  0.4066
    7SAPS   O12  814   6.243   4.526   6.355  0.1951 -0.3662  0.3768
    7SAPS   O11  815   6.294   4.400   6.156 -0.4612 -0.4832 -0.1757
    7SAPS    C1  816   6.387   4.482   6.077  0.2320 -0.2373 -0.3064
    7SAPS    HA  817   6.388   4.589   6.107  2.0892 -0.4423  0.5254
    7SAPS    HB  818   6.488   4.441   6.100  0.4631  0.6962  0.4036
    7SAPS    C2  819   6.353   4.472   5.932  0.5754  0.2500  0.2938
    7SAPS    HS  820   6.409   4.550   5.875  0.0250  0.6789  0.3384
    7SAPS   O21  821   6.211   4.473   5.902 -0.6250 -0.2379 -0.2563
    7SAPS   C21  822   6.168   4.592   5.863  0.6253 -0.1053  0.6784
    7SAPS   O22  823   6.233   4.690   5.833  0.7214  0.3974  0.8139
    7SAPS   C22  824   6.018   4.577   5.848  0.1564 -0.6586  0.4194
    7SAPS   H2R  825   5.976   4.489   5.903 -0.1199 -0.4465  0.5520
    7SAPS   H2S  826   5.981   4.673   5.891 -0.6793  0.2578 -2.2015
    7SAPS    C3  827   6.413   4.340   5.883 -0.0752 -0.8260  0.2576
    7SAPS    HX  828   6.385   4.253   5.946 -0.6446 -0.1969  0.8916
    7SAPS    HY  829   6.521   4.341   5.910 -0.3801  2.1632  1.7406
    7SAPS   O31  830   6.399   4.324   5.740  0.3643 -0.1417  0.2702
    7SAPS   C31  831   6.301   4.243   5.706  0.0120 -0.2173  0.1982
    7SAPS   O32  832   6.220   4.187   5.776 -0.0209 -0.5168 -0.2471
    7SAPS   C32  833   6.298   4.231   5.557  0.5931 -0.2507 -0.1795
    7SAPS   H2X  834   6.371   4.153   5.528  0.8056 -0.5185  1.0207
    7SAPS   H2Y  835   6.340   4.322   5.510 -1.5847  0.4948 -0.8335
    7SAPS   C23  836   5.961   4.592   5.704  0.2317 -0.0988  0.7286
    7SAPS   H3R  837   6.044   4.617   5.633  0.5036  0.2132  1.1487
    7SAPS   H3S  838   5.895   4.681   5.698 -1.6237 -1.5175 -2.3816
    7SAPS   C24  839   5.880   4.472   5.665 -0.2004  0.1262 -0.0354
    7SAPS   H4R  840   5.935   4.386   5.707  2.1363  1.6682  0.2731
    7SAPS   H4S  841   5.877   4.470   5.554  2.0643  2.5922 -0.2455
    7SAPS   C25  842   5.736   4.488   5.721 -0.6748  0.3980  0.1665
    7SAPS   H5R  843   5.724   4.459   5.827 -0.0664  1.2587  0.4805
    7SAPS   C26  844   5.629   4.537   5.649  0.3477 -0.0332 -0.2952
    7SAPS   H6R  845   5.529   4.527   5.694  1.3798 -3.0935  1.6010
    7SAPS   C27  846   5.635   4.591   5.507  0.2941  0.5870 -0.8251
    7SAPS   H7R  847   5.730   4.647   5.496  0.4134  0.3774 -0.8542
    7SAPS   H7S  848   5.556   4.669   5.503  1.1811  1.5148 -0.6152
    7SAPS   C28  849   5.624   4.480   5.410  0.1123 -0.0609 -0.3322
    7SAPS   H8R  850   5.585   4.386   5.451 -1.4761  0.9722  0.6002
    7SAPS   C29  851   5.674   4.485   5.290  0.0756  0.4869  0.3857
    7SAPS   H9R  852   5.646   4.403   5.222 -0.8044  0.2875  0.9716
    7SAPS  C210  853   5.758   4.596   5.232  0.6461  0.2641  0.0625
    7SAPS  H10R  854   5.699   4.681   5.272 -0.6616  0.5270 -2.2324
    7SAPS  H10S  855   5.746   4.603   5.122 -0.9484 -0.9502  0.1269
    7SAPS  C211  856   5.903   4.593   5.281 -0.0749 -0.4855  0.8390
    7SAPS  H11R  857   5.925   4.606   5.388  0.7592  0.3153  0.5814
    7SAPS  C212  858   6.014   4.571   5.209  0.6542  1.0580  0.0444
    7SAPS  H12R  859   6.112   4.576   5.259  1.8250  3.0817 -2.2534
    7SAPS  C213  860   6.023   4.552   5.058 -0.2675 -0.1332 -0.3940
    7SAPS  H13R  861   5.938   4.593   5.001  0.1570 -2.0128 -2.5056
    7SAPS  H13S  862   6.022   4.442   5.047 -0.3575 -0.1824  0.0761
    7SAPS  C214  863   6.130   4.640   5.005  0.2085 -0.3075 -0.3200
    7SAPS  H14R  864   6.108   4.747   5.016  1.2329 -0.3073  2.2704
    7SAPS  C215  865   6.238   4.601   4.932  0.2421  0.0023 -0.8838
    7SAPS  H15R  866   6.294   4.685   4.889  0.8909  1.2074  2.0561
    7SAPS  C216  867   6.277   4.457   4.908 -0.2887 -0.1642 -0.8209
    7SAPS  H16R  868   6.207   4.391   4.963  0.3876 -2.0146 -2.0751
    7SAPS  H16S  869   6.377   4.447   4.956 -0.8878 -0.9838  0.3159
    7SAPS  C217  870   6.288   4.408   4.768  0.0596  0.1083  0.3379
    7SAPS  H17R  871   6.352   4.317   4.765  0.4700  0.4067 -1.3291
    7SAPS  H17S  872   6.351   4.473   4.704  1.3890 -1.9061 -0.4985
    7SAPS  C218  873   6.152   4.394   4.696 -0.9697 -0.3036 -0.1132
    7SAPS  H18R  874   6.102   4.492   4.712 -1.3902 -0.4433 -0.5416
    7SAPS  H18S  875   6.077   4.329   4.745 -0.5998  1.1019  2.4615
    7SAPS  C219  876   6.180   4.383   4.543  0.3163  0.4806 -0.2188
    7SAPS  H19R  877   6.275   4.327   4.532 -0.1552  0.0729 -2.7611
    7SAPS  H19S  878   6.202   4.486   4.507  1.7121  1.3854  2.8810
    7SAPS  C220  879   6.066   4.304   4.473  0.4214 -0.3160 -0.4166
    7SAPS  H20R  880   6.070   4.314   4.362 -3.1702  1.0499 -0.5386
    7SAPS  H20S  881   5.971   4.340   4.517  0.1171 -1.5320 -0.0454
    7SAPS  H20T  882   6.076   4.197   4.503 -0.4800 -0.1851  0.3873
    7SAPS   C33  883   6.155   4.215   5.500 -0.4898 -0.0204 -0.1564
    7SAPS   H3X  884   6.093   4.293   5.549 -0.2868 -0.3666  0.6803
    7SAPS   H3Y  885   6.108   4.122   5.539  0.7242 -0.0327  1.3866
    7SAPS   C34  886   6.151   4.220   5.348  0.3549 -0.7538 -0.1487
    7SAPS   H4X  887   6.216   4.300   5.307  1.1577 -0.1687  2.1211
    7SAPS   H4Y  888   6.044   4.225   5.319  0.1129 -0.6445  0.7193
    7SAPS   C35  889   6.216   4.089   5.282  0.4627  0.1804 -0.3892
    7SAPS   H5X  890   6.165   4.004   5.332  0.4165  1.1562  1.3014
    7SAPS   H5Y  891   6.323   4.082   5.310  0.7268 -0.6562 -1.5258
    7SAPS   C36  892   6.193   4.102   5.130  0.1809  1.1911  0.3076
    7SAPS   H6X  893   6.261   4.181   5.094  1.3016  0.3202  0.4620
    7SAPS   H6Y  894   6.086   4.122   5.105  0.4071  0.5972 -1.2243
    7SAPS   C37  895   6.244   3.965   5.061  0.6100 -0.0706  0.0688
    7SAPS   H7X  896   6.171   3.884   5.083 -0.0019  1.2189  3.3863
    7SAPS   H7Y  897   6.342   3.947   5.109  0.9316  1.8117  0.1788
    7SAPS   C38  898   6.272   3.983   4.913  0.0401 -0.0207 -0.2843
    7SAPS   H8X  899   6.342   4.067   4.892  3.2856 -2.0842  1.4706
    7SAPS   H8Y  900   6.172   4.004   4.869 -0.0499 -1.7388 -0.9849
    7SAPS   C39  901   6.326   3.859   4.846  0.6771 -0.0761  0.2374
    7SAPS   H9X  902   6.242   3.793   4.818  0.7774 -0.8049  1.5883
    7SAPS   H9Y  903   6.390   3.811   4.924 -1.1470 -0.0904  1.8061
    7SAPS  C310  904   6.411   3.905   4.722 -0.2830  0.3324 -0.5213
    7SAPS  H10X  905   6.508   3.946   4.757 -0.2668  1.2794 -1.6543
    7SAPS  H10Y  906   6.359   3.992   4.678  2.0503  1.6216 -0.8747
    7SAPS  C311  907   6.450   3.802   4.612  0.0110 -0.3050 -0.0320
    7SAPS  H11X  908   6.364   3.736   4.588  0.5996 -0.6881 -1.1542
    7SAPS  H11Y  909   6.533   3.736   4.645 -0.1527 -0.5073 -0.0200
    7SAPS  C312  910   6.488   3.875   4.480 -0.2654  0.3139 -0.0694
    7SAPS  H12X  911   6.577   3.939   4.498  0.5834 -0.9373  0.2977
    7SAPS  H12Y  912   6.398   3.938   4.463 -0.1080  1.1946  2.0130
    7SAPS  C313  913   6.517   3.781   4.361 -0.2854  0.1495 -0.5844
    7SAPS  H13X  914   6.426   3.750   4.305 -0.4591  0.9454 -0.7547
    7SAPS  H13Y  915   6.553   3.687   4.409 -1.6607 -1.0472 -1.7958
    7SAPS  C314  916   6.631   3.829   4.279  0.2185  0.1940 -0.2075
    7SAPS  H14X  917   6.724   3.833   4.339  1.0011  2.9428 -1.4408
    7SAPS  H14Y  918   6.611   3.930   4.238 -1.8911 -0.4420 -0.9051
    7SAPS  C315  919   6.645   3.730   4.166 -0.2717  0.5724 -0.0185
    7SAPS  H15X  920   6.552   3.736   4.105 -1.1364  2.4901  1.4007
    7SAPS  H15Y  921   6.661   3.624   4.196 -1.8495  0.8719  2.1224
    7SAPS  C316  922   6.763   3.753   4.071  0.1032  0.3041  0.1704
    7SAPS  H16X  923   6.846   3.791   4.133 -0.0860  1.2978 -0.1750
    7SAPS  H16Y  924   6.739   3.840   4.006  2.7555 -0.1549 -1.5714
    7SAPS  C317  925   6.818   3.633   3.987 -0.0822  0.1257 -0.1444
    7SAPS  H17X  926   6.800   3.553   4.062 -2.6636  1.3982  0.7064
    7SAPS  H17Y  927   6.927   3.647   3.973 -0.0142  1.1733  1.1932
    7SAPS  C318  928   6.745   3.593   3.856 -0.2461 -0.4104 -0.3831
    7SAPS  H18X  929   6.649   3.543   3.879  0.8395 -1.2153  2.9978
    7SAPS  H18Y  930   6.815   3.519   3.812  1.7865  1.8057 -1.0883
    7SAPS  H18Z  931   6.739   3.677   3.784  3.1832 -0.0371 -0.4174
    8SAPS     N  932   5.235   5.708   6.573 -0.2017  0.2111  0.1055
    8SAPS   HN1  933   5.233   5.624   6.512  3.5185  0.9471 -1.3294
    8SAPS   HN2  934   5.143   5.754   6.563 -0.5733 -0.6334 -0.4217
    8SAPS   HN3  935   5.309   5.769   6.532 -0.3234  0.4014  0.1692
    8SAPS   C12  936   5.269   5.674   6.714  0.4313  0.0368  1.0604
    8SAPS  H12A  937   5.198   5.595   6.737 -0.0823  0.1263 -0.1308
    8SAPS   C13  938   5.399   5.601   6.745 -0.0329 -0.2259  0.0878
    8SAPS  O13A  939   5.472   5.572   6.648  0.0280 -0.4108  0.1233
    8SAPS  O13B  940   5.405   5.530   6.851 -0.0824 -0.5650 -0.1671
    8SAPS   C11  941   5.244   5.795   6.807 -0.4618  0.1916  0.3466
    8SAPS  H11A  942   5.252   5.757   6.912  0.7028 -2.1049 -0.4901
    8SAPS  H11B  943   5.138   5.822   6.788  0.0036  1.5893 -0.3570
    8SAPS     P  944   5.401   5.987   6.879  0.0204  0.1981 -0.2222
    8SAPS   O13  945   5.312   6.105   6.906 -0.3917 -0.5942  0.2815
    8SAPS   O14  946   5.438   5.911   7.006 -0.1628  0.0599  0.3223
    8SAPS   O12  947   5.340   5.892   6.773  0.5894  0.3623 -0.1582
    8SAPS   O11  948   5.534   6.030   6.792 -0.4939 -0.2988 -0.3059
    8SAPS    C1  949   5.569   5.980   6.664 -0.1748 -0.0337 -0.5159
    8SAPS    HA  950   5.677   5.995   6.647 -0.3038 -0.2111 -1.5705
    8SAPS    HB  951   5.550   5.872   6.647  2.7224 -0.6717 -0.1627
    8SAPS    C2  952   5.512   6.044   6.534  0.4910 -0.6053 -0.8271
    8SAPS    HS  953   5.402   6.027   6.533  0.4570 -0.6178  0.7176
    8SAPS   O21  954   5.576   5.979   6.421 -0.1907 -0.5973  0.4762
    8SAPS   C21  955   5.509   5.875   6.371  0.2204  0.0435 -0.1658
    8SAPS   O22  956   5.407   5.824   6.411  0.0061 -0.0740  0.6216
    8SAPS   C22  957   5.588   5.832   6.244 -0.1031 -0.0989 -0.1755
    8SAPS   H2R  958   5.699   5.828   6.255  0.0623  0.3554 -1.5582
    8SAPS   H2S  959   5.562   5.731   6.206 -0.8236  0.1186 -0.2674
    8SAPS    C3  960   5.529   6.202   6.518 -0.5938  0.0917  0.6940
    8SAPS    HX  961   5.637   6.221   6.536 -0.3059 -0.7706 -0.0784
    8SAPS    HY  962   5.462   6.246   6.596  1.6760 -1.1179  3.5028
    8SAPS   O31  963   5.503   6.242   6.382  0.3663 -0.1563  0.3460
    8SAPS   C31  964   5.372   6.271   6.359 -0.1150 -0.0021  0.2908
    8SAPS   O32  965   5.281   6.249   6.436 -0.1979  0.0278 -0.0721
    8SAPS   C32  966   5.364   6.330   6.220 -0.0102  0.5246 -0.1083
    8SAPS   H2X  967   5.379   6.242   6.155  0.1827 -0.1170  0.7848
    8SAPS   H2Y  968   5.445   6.403   6.202  2.5938 -2.0918  0.2797
    8SAPS   C23  969   5.542   5.920   6.120  0.0620  0.1822 -0.3047
    8SAPS   H3R  970   5.539   6.026   6.153  3.2736 -0.2286  1.7362
    8SAPS   H3S  971   5.437   5.898   6.093 -0.4128  1.8396  0.1011
    8SAPS   C24  972   5.658   5.917   6.013  0.3235  0.9056 -0.2227
    8SAPS   H4R  973   5.676   5.813   5.980 -0.7187  0.4474  0.6080
    8SAPS   H4S  974   5.742   5.956   6.074  0.6581 -1.1166  0.6897
    8SAPS   C25  975   5.622   6.014   5.904 -0.7339 -0.1116 -0.0089
    8SAPS   H5R  976   5.602   6.114   5.946 -3.5934 -1.1788  1.4718
    8SAPS   C26  977   5.639   5.997   5.769  0.6724 -0.0594 -0.2570
    8SAPS   H6R  978   5.605   6.073   5.698  0.4246 -0.8649 -1.0100
    8SAPS   C27  979   5.699   5.874   5.696 -0.0733 -0.5429 -0.2154
    8SAPS   H7R  980   5.627   5.795   5.665 -0.9766 -1.0728  2.8860
    8SAPS   H7S  981   5.771   5.815   5.757  1.3952 -1.0168 -2.2754
    8SAPS   C28  982   5.772   5.922   5.573  0.2932 -0.4142 -0.3116
    8SAPS   H8R  983   5.717   5.994   5.510  1.6771  0.8721 -0.1072
    8SAPS   C29  984   5.894   5.892   5.536 -0.6185  0.5177  0.3062
    8SAPS   H9R  985   5.918   5.940   5.440 -2.2206 -2.4662 -1.7199
    8SAPS  C210  986   5.987   5.785   5.595  0.0780  0.5915  0.7072
    8SAPS  H10R  987   5.947   5.686   5.564 -0.6166  1.4725 -1.3126
    8SAPS  H10S  988   5.976   5.792   5.706 -0.1371  0.1285  0.7192
    8SAPS  C211  989   6.131   5.792   5.562  0.4431  0.2171 -0.1791
    8SAPS  H11R  990   6.189   5.860   5.626  1.2793  0.1573 -0.8515
    8SAPS  C212  991   6.190   5.727   5.456 -0.0072 -0.4745  0.4283
    8SAPS  H12R  992   6.299   5.747   5.452 -0.3842  1.9589  0.8230
    8SAPS  C213  993   6.130   5.637   5.354 -0.6661  0.3966  0.5579
    8SAPS  H13R  994   6.068   5.557   5.400  0.6570 -0.2003  1.3536
    8SAPS  H13S  995   6.224   5.595   5.313  0.3258  0.5271  2.5711
    8SAPS  C214  996   6.048   5.709   5.258 -0.3714 -0.0948  0.8630
    8SAPS  H14R  997   6.046   5.818   5.271  2.5635  0.0862  0.4557
    8SAPS  C215  998   5.968   5.650   5.164 -0.4106  0.5196 -0.1521
    8SAPS  H15R  999   5.924   5.715   5.087  1.3590  2.5156  0.4439
    8SAPS  C216 1000   5.949   5.496   5.144  0.3235 -0.2746  0.3926
    8SAPS  H16R 1001   5.852   5.474   5.194 -0.6852  2.2446 -0.2879
    8SAPS  H16S 1002   6.020   5.434   5.203 -0.7645  0.5659  2.7330
    8SAPS  C217 1003   5.946   5.462   4.996 -0.4083  0.5473  0.1070
    8SAPS  H17R 1004   5.868   5.520   4.940 -0.4233  1.3056  0.8862
    8SAPS  H17S 1005   5.925   5.354   4.987  1.6472  0.1317 -0.0583
    8SAPS  C218 1006   6.087   5.492   4.924  0.4492  0.1970 -0.5928
    8SAPS  H18R 1007   6.161   5.461   5.001 -0.9239 -1.3692  0.1482
    8SAPS  H18S 1008   6.101   5.601   4.905 -1.0925  0.1352 -2.3948
    8SAPS  C219 1009   6.104   5.422   4.786  0.1771  0.6938 -0.6700
    8SAPS  H19R 1010   6.008   5.413   4.730  0.1477 -2.4893 -0.2899
    8SAPS  H19S 1011   6.132   5.316   4.803 -2.3871  0.1874  0.9791
    8SAPS  C220 1012   6.214   5.487   4.704  0.3568 -0.1209 -0.9474
    8SAPS  H20R 1013   6.204   5.463   4.596  1.8014  1.4207 -1.4715
    8SAPS  H20S 1014   6.313   5.450   4.736  0.3584  1.8115  1.6144
    8SAPS  H20T 1015   6.218   5.598   4.716  2.2381 -0.1764 -0.8150
    8SAPS   C33 1016   5.232   6.402   6.206 -0.3148  1.2350  0.0721
    8SAPS   H3X 1017   5.232   6.494   6.268  0.9943  0.1632  1.7357
    8SAPS   H3Y 1018   5.146   6.337   6.233  2.3107 -2.7112 -0.2988
    8SAPS   C34 1019   5.218   6.460   6.068 -0.1202 -0.5221 -0.0125
    8SAPS   H4X 1020   5.239   6.378   5.995 -1.2924 -1.8251  1.0689
    8SAPS   H4Y 1021   5.285   6.548   6.057 -2.1913  1.3579  1.6306
    8SAPS   C35 1022   5.079   6.516   6.047  0.5137 -0.1895 -1.0208
    8SAPS   H5X 1023   5.039   6.574   6.133 -0.6753 -0.0157 -1.6641
    8SAPS   H5Y 1024   5.018   6.423   6.052  2.4973 -1.7434 -3.5293
    8SAPS   C36 1025   5.073   6.598   5.918 -0.6899  0.2152  0.0349
    8SAPS   H6X 1026   5.112   6.700   5.938 -2.3460  0.5724  1.7771
    8SAPS   H6Y 1027   4.971   6.614   5.877 -0.5687  0.3945 -0.1992
    8SAPS   C37 1028   5.146   6.540   5.794  0.1175 -0.0247  0.4167
    8SAPS   H7X 1029   5.097   6.443   5.773  1.0348 -0.1218 -1.4923
    8SAPS   H7Y 1030   5.255   6.530   5.815  0.3999  0.0311 -0.8963
    8SAPS   C38 1031   5.133   6.619   5.657  0.0003  0.0798  0.2689
    8SAPS   H8X 1032   5.151   6.727   5.677 -1.2749  0.9526 -2.7478
    8SAPS   H8Y 1033   5.023   6.609   5.645 -0.3256  1.5806  1.5687
    8SAPS   C39 1034   5.208   6.549   5.546 -0.5145 -0.1241 -0.2307
    8SAPS   H9X 1035   5.199   6.439   5.546  1.2611 -0.3363 -2.2445
    8SAPS   H9Y 1036   5.314   6.581   5.544 -0.2172 -1.0219  0.5785
    8SAPS  C310 1037   5.158   6.607   5.411  0.0495  0.0240 -0.6637
    8SAPS  H10X 1038   5.197   6.710   5.400  2.7896 -1.1522 -3.0631
    8SAPS  H10Y 1039   5.047   6.613   5.410  0.0070 -0.1128  0.7199
    8SAPS  C311 1040   5.209   6.523   5.300 -0.1091 -0.3278 -0.0234
    8SAPS  H11X 1041   5.143   6.434   5.301 -0.5850 -0.0024 -0.9887
    8SAPS  H11Y 1042   5.314   6.489   5.309  1.1432  2.6616 -1.6401
    8SAPS  C312 1043   5.212   6.580   5.161 -0.1909 -0.0040 -0.4043
    8SAPS  H12X 1044   5.270   6.674   5.164  0.1836 -0.1962 -1.2594
    8SAPS  H12Y 1045   5.105   6.605   5.144 -0.8696 -0.9917  1.9425
    8SAPS  C313 1046   5.269   6.487   5.050 -0.1086  0.4025 -0.1174
    8SAPS  H13X 1047   5.198   6.401   5.059 -0.0953  0.0789 -2.5542
    8SAPS  H13Y 1048   5.370   6.452   5.078 -1.0288 -2.3507  0.0958
    8SAPS  C314 1049   5.274   6.540   4.905  0.5137  0.1099 -0.0903
    8SAPS  H14X 1050   5.346   6.624   4.899 -1.6321  2.1521  0.9347
    8SAPS  H14Y 1051   5.173   6.580   4.882  0.4121  1.0458  1.8139
    8SAPS  C315 1052   5.310   6.429   4.803  0.7903 -0.7977 -0.2099
    8SAPS  H15X 1053   5.243   6.342   4.820 -1.0294  0.8169  1.2823
    8SAPS  H15Y 1054   5.416   6.402   4.823  1.6076  2.1493 -0.1596
    8SAPS  C316 1055   5.289   6.490   4.658 -0.5379  0.6324 -0.5734
    8SAPS  H16X 1056   5.343   6.587   4.659  0.2230  0.2186 -0.5789
    8SAPS  H16Y 1057   5.180   6.507   4.647 -0.5460  0.6009 -0.5458
    8SAPS  C317 1058   5.319   6.396   4.541 -0.6477 -0.7909  0.2777
    8SAPS  H17X 1059   5.421   6.358   4.564 -0.2290  0.3920  0.4381
    8SAPS  H17Y 1060   5.318   6.459   4.450  2.9142 -0.9645  0.0023
    8SAPS  C318 1061   5.212   6.291   4.523  0.1501  0.0829  0.1464
    8SAPS  H18X 1062   5.199   6.250   4.421 -1.1110 -1.4505  0.8630
    8SAPS  H18Y 1063   5.110   6.318   4.559  0.3509  0.9262  0.0859
    8SAPS  H18Z 1064   5.241   6.201   4.582  0.2668  0.4996  0.7291
    9SAPS     N 1065   2.719   3.516   6.936 -0.5421 -0.1792 -0.7453
    9SAPS   HN1 1066   2.750   3.420   6.911  0.6679 -0.2896  0.9546
    9SAPS   HN2 1067   2.712   3.577   6.852 -0.1022  1.4310  0.3368
    9SAPS   HN3 1068   2.768   3.550   7.022 -2.5596  1.0486 -0.0040
    9SAPS   C12 1069   2.586   3.492   6.982  0.4091  0.3604 -0.1554
    9SAPS  H12A 1070   2.595   3.426   7.067 -0.9586  2.6289  1.8565
    9SAPS   C13 1071   2.500   3.621   7.010 -0.3192 -0.3567 -0.8893
    9SAPS  O13A 1072   2.556   3.731   7.008  0.4887 -0.5313 -0.0600
    9SAPS  O13B 1073   2.386   3.608   7.058 -0.1390 -0.0286  0.0422
    9SAPS   C11 1074   2.514   3.406   6.866  0.5549  0.4536  0.4078
    9SAPS  H11A 1075   2.476   3.466   6.781 -3.2288  0.9529  2.2481
    9SAPS  H11B 1076   2.417   3.386   6.915  0.6351  0.1055  0.4282
    9SAPS     P 1077   2.515   3.197   6.727 -0.1163  0.1946 -0.2801
    9SAPS   O13 1078   2.599   3.085   6.696 -0.2800 -0.1499  0.1220
    9SAPS   O14 1079   2.375   3.166   6.773 -0.2623 -0.4851  0.6742
    9SAPS   O12 1080   2.583   3.283   6.827  0.0389 -0.2006 -0.5715
    9SAPS   O11 1081   2.507   3.285   6.595  0.8945  0.3866  0.1125
    9SAPS    C1 1082   2.613   3.348   6.529 -0.5485 -0.1590  0.9183
    9SAPS    HA 1083   2.604   3.459   6.540  1.0157 -0.0625  1.4825
    9SAPS    HB 1084   2.712   3.333   6.576  0.1795  1.5538  0.0370
    9SAPS    C2 1085   2.611   3.305   6.384  0.2474 -0.2371  0.5000
    9SAPS    HS 1086   2.638   3.197   6.395  0.9811  0.0855  2.3452
    9SAPS   O21 1087   2.706   3.383   6.303  0.0997  0.4854 -0.1464
    9SAPS   C21 1088   2.830   3.334   6.313 -0.2044 -0.4334 -0.3771
    9SAPS   O22 1089   2.859   3.242   6.383 -0.8425  0.6233  0.0612
    9SAPS   C22 1090   2.919   3.401   6.213 -0.1354  1.1263  0.3079
    9SAPS   H2R 1091   2.908   3.341   6.120 -0.4512  1.7594 -0.0678
    9SAPS   H2S 1092   2.879   3.500   6.183 -1.5967  0.5673  0.3100
    9SAPS    C3 1093   2.467   3.332   6.329 -0.2240 -0.5196 -0.0953
    9SAPS    HX 1094   2.448   3.441   6.333  1.3106 -0.2340 -0.1171
    9SAPS    HY 1095   2.389   3.280   6.389 -0.8622 -1.2169 -1.4756
    9SAPS   O31 1096   2.451   3.284   6.195 -0.7310  0.0048  0.5580
    9SAPS   C31 1097   2.406   3.149   6.182 -0.2440  0.0806 -0.3891
    9SAPS   O32 1098   2.388   3.069   6.274 -0.1200  0.1592  0.2387
    9SAPS   C32 1099   2.381   3.110   6.040 -0.6394 -0.0133 -0.0073
    9SAPS   H2X 1100   2.294   3.041   6.042 -1.4469  0.9847  0.2313
    9SAPS   H2Y 1101   2.464   3.048   6.001 -0.4503  2.4380 -4.0898
    9SAPS   C23 1102   3.065   3.415   6.264 -0.1503 -0.1392  0.5938
    9SAPS   H3R 1103   3.105   3.312   6.277  0.6146  0.1292  0.4471
    9SAPS   H3S 1104   3.073   3.472   6.359 -0.0678 -2.6360  2.1651
    9SAPS   C24 1105   3.144   3.487   6.152 -0.0043  0.1333 -1.1237
    9SAPS   H4R 1106   3.244   3.490   6.201  0.0049  1.2559 -1.1764
    9SAPS   H4S 1107   3.115   3.594   6.144 -0.5947  0.0279 -0.4153
    9SAPS   C25 1108   3.166   3.418   6.020 -1.2139 -1.0574  0.1247
    9SAPS   H5R 1109   3.214   3.319   6.022  0.9954 -0.2167 -2.8578
    9SAPS   C26 1110   3.119   3.464   5.906 -0.3225 -0.3333  0.3905
    9SAPS   H6R 1111   3.135   3.394   5.822  1.9572 -0.1171  0.5908
    9SAPS   C27 1112   3.034   3.588   5.872  0.0781 -0.4033  0.0374
    9SAPS   H7R 1113   3.100   3.677   5.869 -0.4406  0.0010  0.3722
    9SAPS   H7S 1114   2.962   3.609   5.954 -0.9898 -1.2984 -0.6409
    9SAPS   C28 1115   2.966   3.592   5.737  0.3632 -0.3347 -0.5078
    9SAPS   H8R 1116   2.858   3.569   5.746  0.3967 -0.5824 -0.7616
    9SAPS   C29 1117   3.017   3.596   5.617 -0.4672 -0.3240  0.2937
    9SAPS   H9R 1118   2.958   3.587   5.525  2.6191  0.7168 -1.9461
    9SAPS  C210 1119   3.165   3.594   5.588  0.7219  0.0241  0.0901
    9SAPS  H10R 1120   3.228   3.577   5.678  0.9097 -0.5716 -0.1420
    9SAPS  H10S 1121   3.199   3.695   5.556  2.3186 -0.3409  0.5107
    9SAPS  C211 1122   3.209   3.485   5.494  0.4360 -0.4221  0.0282
    9SAPS  H11R 1123   3.218   3.385   5.539 -0.6084  0.9790  3.7547
    9SAPS  C212 1124   3.206   3.502   5.357 -0.4378  0.7338 -0.8552
    9SAPS  H12R 1125   3.244   3.422   5.291  3.5056  0.2325  1.6920
    9SAPS  C213 1126   3.178   3.631   5.281  0.2709  0.1263 -0.8452
    9SAPS  H13R 1127   3.279   3.670   5.260  0.8931 -0.2435  1.2375
    9SAPS  H13S 1128   3.129   3.707   5.346  0.3391 -0.4930 -0.0602
    9SAPS  C214 1129   3.089   3.607   5.160 -0.2549 -0.5013  0.4567
    9SAPS  H14R 1130   2.985   3.572   5.174  0.2116 -1.9422  0.4293
    9SAPS  C215 1131   3.114   3.633   5.032  0.1754 -0.0173  0.1324
    9SAPS  H15R 1132   3.041   3.619   4.951  3.1749  2.7231 -3.3771
    9SAPS  C216 1133   3.244   3.687   4.971  0.1345  0.6126 -0.1863
    9SAPS  H16R 1134   3.305   3.749   5.041  0.1789  2.0782 -1.4747
    9SAPS  H16S 1135   3.235   3.744   4.877  0.4284  1.5280  0.3284
    9SAPS  C217 1136   3.350   3.579   4.938 -0.3990  0.4952 -0.0992
    9SAPS  H17R 1137   3.396   3.541   5.032 -0.8314  0.7717  0.2249
    9SAPS  H17S 1138   3.420   3.642   4.879 -0.8707  1.1284  0.0149
    9SAPS  C218 1139   3.290   3.483   4.836  0.7432  0.2969 -0.1407
    9SAPS  H18R 1140   3.241   3.536   4.752 -0.1268 -0.6654 -0.2668
    9SAPS  H18S 1141   3.214   3.415   4.881  0.0836 -0.9421 -2.8910
    9SAPS  C219 1142   3.394   3.388   4.775 -0.1219  0.4699  0.3489
    9SAPS  H19R 1143   3.436   3.449   4.693 -0.0047  0.1564  0.1770
    9SAPS  H19S 1144   3.334   3.307   4.730  1.3717  0.5617 -1.9766
    9SAPS  C220 1145   3.504   3.342   4.871  0.3266  0.2972  0.1107
    9SAPS  H20R 1146   3.565   3.427   4.909  0.7292 -0.0510  0.2399
    9SAPS  H20S 1147   3.574   3.277   4.814  0.5173  0.1449  0.5116
    9SAPS  H20T 1148   3.456   3.289   4.957  0.6930 -0.3811 -0.0969
    9SAPS   C33 1149   2.358   3.230   5.945  0.7981  0.6754  0.0353
    9SAPS   H3X 1150   2.417   3.321   5.968  1.0214  0.9231 -1.4138
    9SAPS   H3Y 1151   2.252   3.261   5.962  0.1350 -1.7900  0.8503
    9SAPS   C34 1152   2.374   3.195   5.798 -0.6765  0.2964 -1.4977
    9SAPS   H4X 1153   2.295   3.117   5.785 -0.4026 -0.7142  1.9902
    9SAPS   H4Y 1154   2.474   3.153   5.774  0.0415  1.8530 -1.3370
    9SAPS   C35 1155   2.348   3.305   5.699 -0.2357  0.0598 -0.3225
    9SAPS   H5X 1156   2.431   3.376   5.721  0.9746 -0.4657 -2.8400
    9SAPS   H5Y 1157   2.262   3.366   5.735  0.1499 -0.3532  1.4216
    9SAPS   C36 1158   2.351   3.252   5.560  0.5250  0.1806 -0.1377
    9SAPS   H6X 1159   2.275   3.171   5.568  1.7630 -0.9162  0.9752
    9SAPS   H6Y 1160   2.450   3.202   5.546 -0.0014 -0.3692 -2.2879
    9SAPS   C37 1161   2.313   3.347   5.454 -0.5748 -0.3045  0.1052
    9SAPS   H7X 1162   2.371   3.440   5.471  1.2275 -1.5753  1.2221
    9SAPS   H7Y 1163   2.205   3.370   5.469 -0.3262  1.6500 -0.8011
    9SAPS   C38 1164   2.338   3.273   5.320 -0.5962  0.9831 -0.1144
    9SAPS   H8X 1165   2.289   3.174   5.308  0.7184 -0.0000  2.1213
    9SAPS   H8Y 1166   2.442   3.238   5.309 -0.4195  1.7773 -1.0947
    9SAPS   C39 1167   2.283   3.346   5.198  0.3040  0.4950  0.1650
    9SAPS   H9X 1168   2.310   3.453   5.205  1.7397  0.1472  0.2362
    9SAPS   H9Y 1169   2.173   3.361   5.199  0.3631  0.9131  0.7401
    9SAPS  C310 1170   2.322   3.297   5.059 -0.3397  0.5866 -0.3156
    9SAPS  H10X 1171   2.259   3.337   4.977 -2.6732 -2.5549 -0.2678
    9SAPS  H10Y 1172   2.289   3.192   5.077 -1.4828  0.8131 -0.9778
    9SAPS  C311 1173   2.472   3.298   5.023  0.0696 -0.1133 -0.1271
    9SAPS  H11X 1174   2.527   3.221   5.082 -1.9724 -0.5013  1.3703
    9SAPS  H11Y 1175   2.517   3.392   5.061  0.7283 -1.3229  2.3315
    9SAPS  C312 1176   2.500   3.263   4.882  0.1242  0.0917 -0.0446
    9SAPS  H12X 1177   2.608   3.281   4.864  0.3910 -0.6363  0.7630
    9SAPS  H12Y 1178   2.452   3.334   4.812 -1.8034  0.1227  1.2430
    9SAPS  C313 1179   2.466   3.116   4.840 -0.1263 -0.1851  0.1876
    9SAPS  H13X 1180   2.355   3.115   4.846 -0.2468 -3.8842 -0.6286
    9SAPS  H13Y 1181   2.519   3.044   4.905  1.7416  0.5184 -0.5061
    9SAPS  C314 1182   2.498   3.100   4.689  0.2025  0.1066 -0.5415
    9SAPS  H14X 1183   2.604   3.129   4.669 -0.3952  5.0111  2.0038
    9SAPS  H14Y 1184   2.439   3.176   4.635 -1.1596 -0.3834  0.2167
    9SAPS  C315 1185   2.468   2.965   4.627  0.2910 -0.6310 -0.4248
    9SAPS  H15X 1186   2.368   2.923   4.651  0.7319 -0.9688  0.8936
    9SAPS  H15Y 1187   2.549   2.903   4.670 -1.1900 -2.1220  0.3363
    9SAPS  C316 1188   2.465   2.961   4.478  0.2955 -0.4451  0.4237
    9SAPS  H16X 1189   2.384   3.024   4.434  0.2885 -0.5736  0.2510
    9SAPS  H16Y 1190   2.428   2.862   4.443 -2.5356  1.1205 -1.4367
    9SAPS  C317 1191   2.604   2.990   4.407  0.2330  0.5471  0.8531
    9SAPS  H17X 1192   2.650   3.087   4.434  1.5608 -0.4426  2.3452
    9SAPS  H17Y 1193   2.577   2.996   4.299 -0.6639  0.7178  1.0830
    9SAPS  C318 1194   2.715   2.876   4.412 -0.3122 -0.8556 -0.0013
    9SAPS  H18X 1195   2.665   2.780   4.388 -1.4081 -0.4801  0.6831
    9SAPS  H18Y 1196   2.747   2.855   4.516 -2.4453  0.8004  1.0688
    9SAPS  H18Z 1197   2.801   2.901   4.346 -1.2750  1.3919 -0.5193
   10SAPS     N 1198   2.522   2.847   6.619 -0.2179 -0.4378 -0.4614
   10SAPS   HN1 1199   2.427   2.845   6.577  0.0366  0.2741 -1.0892
   10SAPS   HN2 1200   2.539   2.948   6.633  0.5023 -0.6365  0.1669
   10SAPS   HN3 1201   2.596   2.821   6.550  0.1298 -1.1840  0.1850
   10SAPS   C12 1202   2.540   2.763   6.745  0.2289  0.4378  0.0190
   10SAPS  H12A 1203   2.625   2.800   6.802 -0.5462 -1.6528  2.7359
   10SAPS   C13 1204   2.421   2.754   6.843  0.6959  0.3811  0.0170
   10SAPS  O13A 1205   2.305   2.796   6.812 -0.1931  0.2455 -0.2435
   10SAPS  O13B 1206   2.435   2.677   6.944  0.6042  0.0367  0.3858
   10SAPS   C11 1207   2.559   2.614   6.691 -0.2406  0.7365  0.4607
   10SAPS  H11A 1208   2.464   2.577   6.647  0.0493  0.4169  0.0957
   10SAPS  H11B 1209   2.585   2.557   6.784 -1.5018 -0.2965  0.2169
   10SAPS     P 1210   2.807   2.555   6.613  0.0702  0.0594 -0.0946
   10SAPS   O13 1211   2.912   2.662   6.589 -0.3332 -0.0825 -0.1786
   10SAPS   O14 1212   2.809   2.484   6.742  0.2454  0.1442 -0.1922
   10SAPS   O12 1213   2.659   2.614   6.593 -0.2209 -0.3015 -0.4233
   10SAPS   O11 1214   2.813   2.445   6.495  0.6761 -0.7593 -0.3113
   10SAPS    C1 1215   2.693   2.376   6.458 -0.3259  0.2682 -0.0260
   10SAPS    HA 1216   2.719   2.273   6.426 -0.8937  0.5424 -1.4412
   10SAPS    HB 1217   2.617   2.368   6.539 -0.1613 -2.9067 -0.0861
   10SAPS    C2 1218   2.635   2.431   6.324 -0.0678  0.5575  0.0689
   10SAPS    HS 1219   2.567   2.348   6.294 -0.6582  0.7492  0.8489
   10SAPS   O21 1220   2.741   2.451   6.225  0.0619  0.0032  0.1014
   10SAPS   C21 1221   2.772   2.341   6.160 -0.2287 -0.2274 -0.4866
   10SAPS   O22 1222   2.722   2.233   6.174  0.2679 -0.5611 -0.1822
   10SAPS   C22 1223   2.870   2.369   6.050  0.3230 -0.5344  0.0710
   10SAPS   H2R 1224   2.855   2.475   6.020 -1.5682 -0.9010 -0.4401
   10SAPS   H2S 1225   2.973   2.338   6.079  0.3613 -1.9126 -1.4413
   10SAPS    C3 1226   2.542   2.553   6.326  0.4553 -0.1202  0.3092
   10SAPS    HX 1227   2.588   2.653   6.341 -1.6156  0.7337  1.4050
   10SAPS    HY 1228   2.474   2.548   6.414 -0.5380 -0.1985 -0.4374
   10SAPS   O31 1229   2.457   2.546   6.202 -0.2513 -0.1928 -0.3204
   10SAPS   C31 1230   2.498   2.629   6.104 -0.2305 -0.0487 -0.1161
   10SAPS   O32 1231   2.598   2.695   6.102  0.6217 -0.1817  0.3830
   10SAPS   C32 1232   2.404   2.612   5.982 -0.5702  0.1187  0.2221
   10SAPS   H2X 1233   2.302   2.627   6.023 -0.2088  0.8491  0.8586
   10SAPS   H2Y 1234   2.404   2.505   5.953 -1.8235  0.1026  0.2352
   10SAPS   C23 1235   2.828   2.295   5.917  0.0689 -0.1969 -0.4862
   10SAPS   H3R 1236   2.788   2.194   5.938 -0.9268 -0.0844 -1.7213
   10SAPS   H3S 1237   2.915   2.281   5.850  0.2764 -0.4961 -0.1558
   10SAPS   C24 1238   2.722   2.367   5.835  0.7750  0.0717  0.0742
   10SAPS   H4R 1239   2.651   2.399   5.914  0.9268 -3.3664  1.7844
   10SAPS   H4S 1240   2.677   2.296   5.762 -0.1598  0.5066  0.2210
   10SAPS   C25 1241   2.778   2.475   5.753  0.1738 -0.8626 -0.0798
   10SAPS   H5R 1242   2.870   2.520   5.793 -1.8098  4.4085 -0.6512
   10SAPS   C26 1243   2.742   2.501   5.625 -0.3173 -0.1545 -0.2499
   10SAPS   H6R 1244   2.786   2.579   5.561  0.8729  0.3971  1.1689
   10SAPS   C27 1245   2.623   2.426   5.566 -0.4161  0.3178 -0.1875
   10SAPS   H7R 1246   2.534   2.446   5.628  1.3192  0.1195  2.5367
   10SAPS   H7S 1247   2.641   2.319   5.538  1.6745  0.1101  1.6471
   10SAPS   C28 1248   2.599   2.495   5.434  0.2542  0.5224 -0.3646
   10SAPS   H8R 1249   2.512   2.563   5.438 -0.1017  0.0371  0.5389
   10SAPS   C29 1250   2.660   2.464   5.317 -0.3235  0.5138 -0.4584
   10SAPS   H9R 1251   2.651   2.536   5.234  0.3513 -0.5737 -1.5073
   10SAPS  C210 1252   2.772   2.365   5.300 -0.3942 -0.2587  0.0198
   10SAPS  H10R 1253   2.810   2.340   5.402 -1.1268  0.7187  0.5476
   10SAPS  H10S 1254   2.864   2.405   5.253 -0.4949 -0.4249 -0.3207
   10SAPS  C211 1255   2.730   2.240   5.224  0.3041  0.6985  0.1318
   10SAPS  H11R 1256   2.677   2.162   5.279  0.6537  0.2911 -0.1017
   10SAPS  C212 1257   2.755   2.222   5.093  0.3406 -0.2658 -0.1187
   10SAPS  H12R 1258   2.720   2.134   5.037  1.4270  0.7014 -2.4168
   10SAPS  C213 1259   2.819   2.322   4.996  0.5274  1.0189  0.2070
   10SAPS  H13R 1260   2.786   2.427   5.009  1.5746  1.4579 -0.5968
   10SAPS  H13S 1261   2.785   2.285   4.897  0.1106 -0.9177  1.0283
   10SAPS  C214 1262   2.967   2.338   4.983 -0.1405  0.6624  0.4786
   10SAPS  H14R 1263   3.027   2.337   5.075  0.9151  3.0307 -0.1045
   10SAPS  C215 1264   3.034   2.369   4.871 -0.4520  0.3288  0.5472
   10SAPS  H15R 1265   3.143   2.373   4.879 -0.3323  0.5171 -0.9744
   10SAPS  C216 1266   2.987   2.381   4.729  0.5553  0.3148 -0.1509
   10SAPS  H16R 1267   2.916   2.466   4.720 -1.2428 -0.8394  2.0822
   10SAPS  H16S 1268   2.928   2.294   4.694 -0.1227  0.9559 -0.6249
   10SAPS  C217 1269   3.106   2.392   4.633  0.4727  0.0203  1.0947
   10SAPS  H17R 1270   3.172   2.303   4.639  0.1355 -0.3508 -0.3128
   10SAPS  H17S 1271   3.150   2.493   4.649 -1.4093  0.9359  0.8218
   10SAPS  C218 1272   3.057   2.394   4.484  1.1255 -0.5053 -1.1786
   10SAPS  H18R 1273   2.993   2.304   4.475 -1.1349  0.6725  1.5132
   10SAPS  H18S 1274   3.141   2.372   4.415  2.5264  0.9484 -0.0320
   10SAPS  C219 1275   2.972   2.515   4.444 -0.3449 -0.5885  0.2746
   10SAPS  H19R 1276   3.036   2.604   4.459 -1.8860  0.1963  2.6697
   10SAPS  H19S 1277   2.887   2.527   4.513  0.9256 -0.7821  1.9424
   10SAPS  C220 1278   2.924   2.504   4.303  0.5050 -0.3285 -0.7391
   10SAPS  H20R 1279   2.866   2.596   4.279  0.4906 -0.1543 -0.0671
   10SAPS  H20S 1280   2.847   2.424   4.309  0.8295 -0.5810  0.2666
   10SAPS  H20T 1281   3.012   2.483   4.240  1.9559 -0.4719  1.2431
   10SAPS   C33 1282   2.456   2.717   5.878 -0.1173 -0.2815 -0.8157
   10SAPS   H3X 1283   2.554   2.690   5.834  0.1005  0.7764 -1.0268
   10SAPS   H3Y 1284   2.462   2.819   5.923 -0.9667 -0.5676 -0.0223
   10SAPS   C34 1285   2.348   2.733   5.774 -0.4050 -0.3483  0.0819
   10SAPS   H4X 1286   2.275   2.814   5.799 -0.7833  0.5174 -3.3303
   10SAPS   H4Y 1287   2.305   2.636   5.742  1.1601 -1.4572  1.1806
   10SAPS   C35 1288   2.403   2.790   5.637  0.2394  0.4284  0.4212
   10SAPS   H5X 1289   2.471   2.719   5.587  1.0958  0.2788  1.7411
   10SAPS   H5Y 1290   2.466   2.876   5.668 -0.7075  1.8240 -1.2954
   10SAPS   C36 1291   2.287   2.841   5.547 -0.3963 -0.2148  0.0087
   10SAPS   H6X 1292   2.215   2.909   5.596  0.1709  0.7704 -0.4891
   10SAPS   H6Y 1293   2.221   2.760   5.508 -0.0619 -0.0290 -0.9921
   10SAPS   C37 1294   2.335   2.919   5.428  0.3486 -0.5816 -0.3126
   10SAPS   H7X 1295   2.417   2.989   5.457 -1.2378  1.9641 -1.5608
   10SAPS   H7Y 1296   2.245   2.976   5.394 -0.8172 -2.8945 -1.3065
   10SAPS   C38 1297   2.381   2.835   5.309 -0.1565 -0.2752 -0.0240
   10SAPS   H8X 1298   2.302   2.762   5.279 -1.8406  1.0053  1.0628
   10SAPS   H8Y 1299   2.466   2.777   5.350 -2.2188 -1.2408  3.2384
   10SAPS   C39 1300   2.441   2.920   5.188  0.1567 -0.2081  0.0922
   10SAPS   H9X 1301   2.510   2.988   5.244 -0.3493 -1.7692  2.7968
   10SAPS   H9Y 1302   2.366   2.986   5.139  0.5128 -0.6726 -1.0947
   10SAPS  C310 1303   2.523   2.834   5.087 -0.6780 -0.3804 -0.5086
   10SAPS  H10X 1304   2.581   2.758   5.144 -3.5951 -1.3151  1.4594
   10SAPS  H10Y 1305   2.598   2.893   5.031 -0.0654 -0.9412 -0.2884
   10SAPS  C311 1306   2.443   2.754   4.989 -0.4620  0.2893  0.8413
   10SAPS  H11X 1307   2.392   2.833   4.930  1.2646  0.3924 -0.5895
   10SAPS  H11Y 1308   2.385   2.669   5.031  0.5771 -0.2941  1.1081
   10SAPS  C312 1309   2.536   2.681   4.879  0.3863 -0.3587 -0.5701
   10SAPS  H12X 1310   2.616   2.623   4.929 -0.2915 -0.0393  0.9378
   10SAPS  H12Y 1311   2.585   2.757   4.815  1.8274 -2.2674 -1.8338
   10SAPS  C313 1312   2.457   2.581   4.793  0.2693  0.5333 -0.1290
   10SAPS  H13X 1313   2.373   2.641   4.750 -1.5812 -1.6222  0.3041
   10SAPS  H13Y 1314   2.418   2.508   4.866  1.0103 -3.4372 -3.3418
   10SAPS  C314 1315   2.537   2.498   4.697  0.1661  0.0746  0.1779
   10SAPS  H14X 1316   2.642   2.489   4.730  0.5016 -2.5368 -1.2927
   10SAPS  H14Y 1317   2.539   2.545   4.596 -2.3462 -2.0984 -0.9979
   10SAPS  C315 1318   2.470   2.364   4.688 -0.3596 -0.1107 -0.1853
   10SAPS  H15X 1319   2.366   2.400   4.671 -0.4164  0.0434  0.4804
   10SAPS  H15Y 1320   2.480   2.290   4.770  2.4908  0.3002 -0.0587
   10SAPS  C316 1321   2.512   2.281   4.560 -0.5458 -0.1685 -0.1985
   10SAPS  H16X 1322   2.491   2.342   4.470  1.0905  1.9581  0.7933
   10SAPS  H16Y 1323   2.466   2.179   4.564 -1.2335  0.1265 -0.4403
   10SAPS  C317 1324   2.664   2.257   4.548  0.2478  0.4762  0.4459
   10SAPS  H17X 1325   2.700   2.209   4.642  1.5842 -0.1343 -0.3406
   10SAPS  H17Y 1326   2.700   2.362   4.539  0.4832  0.4071  0.5768
   10SAPS  C318 1327   2.701   2.179   4.423 -0.2332  0.1508  0.1820
   10SAPS  H18X 1328   2.689   2.247   4.335 -0.2600 -1.2396 -0.9211
   10SAPS  H18Y 1329   2.659   2.078   4.406  2.5127 -0.7585 -1.8876
   10SAPS  H18Z 1330   2.812   2.170   4.423 -0.2784 -0.4222  0.6480
   11SAPS     N 1331   3.664   1.900   2.387  0.2448 -0.3865 -0.2239
   11SAPS   HN1 1332   3.701   1.803   2.397  0.1212 -0.3471  0.6587
   11SAPS   HN2 1333   3.604   1.930   2.466  1.4270 -1.5855  1.1851
   11SAPS   HN3 1334   3.622   1.914   2.293  1.7900 -0.5144 -0.9625
   11SAPS   C12 1335   3.788   1.986   2.362 -0.2228 -0.9312  0.2697
   11SAPS  H12A 1336   3.830   1.949   2.270 -0.5688  0.0415 -0.3023
   11SAPS   C13 1337   3.757   2.129   2.322  0.3122  0.0656 -0.3537
   11SAPS  O13A 1338   3.637   2.160   2.308 -0.1544 -0.1810 -0.0928
   11SAPS  O13B 1339   3.853   2.209   2.302 -0.0781 -0.7027 -0.2654
   11SAPS   C11 1340   3.876   1.964   2.486 -0.1325 -0.5459 -0.4202
   11SAPS  H11A 1341   3.870   1.867   2.538 -0.8171 -0.3079 -0.0448
   11SAPS  H11B 1342   3.828   2.036   2.555  3.9124  0.8629  1.2206
   11SAPS     P 1343   4.123   1.907   2.455 -0.2807  0.1539  0.3630
   11SAPS   O13 1344   4.066   1.820   2.351 -0.4258 -0.7772  0.9991
   11SAPS   O14 1345   4.251   1.977   2.423  0.3881  0.2523  0.1268
   11SAPS   O12 1346   4.010   2.013   2.482  0.1229  0.5415  0.0993
   11SAPS   O11 1347   4.144   1.831   2.594 -0.7135 -0.1185  0.2455
   11SAPS    C1 1348   4.166   1.910   2.710  0.1311 -0.3376  0.2193
   11SAPS    HA 1349   4.199   2.013   2.683  0.4819 -0.6283 -0.4853
   11SAPS    HB 1350   4.072   1.916   2.770 -0.5472  2.8292 -0.9284
   11SAPS    C2 1351   4.279   1.847   2.796 -0.2346  0.1711 -0.3573
   11SAPS    HS 1352   4.372   1.839   2.737  0.4874 -0.3451  0.8198
   11SAPS   O21 1353   4.236   1.718   2.843 -0.2938 -0.1887  1.0775
   11SAPS   C21 1354   4.331   1.643   2.892  0.8220  0.3832  0.3276
   11SAPS   O22 1355   4.451   1.650   2.869 -0.4021  0.3226 -0.0417
   11SAPS   C22 1356   4.272   1.535   2.982 -1.1353  0.0244  0.2222
   11SAPS   H2R 1357   4.172   1.576   3.006 -1.2126  0.4570 -0.7937
   11SAPS   H2S 1358   4.276   1.443   2.921  0.4510  0.0120  0.2911
   11SAPS    C3 1359   4.315   1.944   2.913 -0.7790 -0.5055  0.2871
   11SAPS    HX 1360   4.230   1.947   2.984 -1.8875  4.8949 -0.8626
   11SAPS    HY 1361   4.332   2.044   2.869  3.4856 -1.1343  0.0500
   11SAPS   O31 1362   4.437   1.911   2.991  0.0811 -0.6080 -0.6707
   11SAPS   C31 1363   4.549   1.963   2.946  0.5188 -0.2338  0.1287
   11SAPS   O32 1364   4.565   2.014   2.834 -0.1629  0.1056 -0.1737
   11SAPS   C32 1365   4.658   1.939   3.042  0.3811 -0.0103  0.3291
   11SAPS   H2X 1366   4.750   1.902   2.992  0.0848 -0.2323 -0.0507
   11SAPS   H2Y 1367   4.635   1.868   3.124  1.3446 -1.4186 -0.5879
   11SAPS   C23 1368   4.353   1.519   3.116  0.5571 -0.5105  0.5642
   11SAPS   H3R 1369   4.460   1.521   3.086  0.2795  2.1809 -0.5380
   11SAPS   H3S 1370   4.321   1.421   3.159 -3.3021  0.4695  0.2834
   11SAPS   C24 1371   4.327   1.616   3.222 -0.3559 -0.2441 -0.3528
   11SAPS   H4R 1372   4.217   1.608   3.241 -0.3293 -0.5443 -0.3268
   11SAPS   H4S 1373   4.337   1.720   3.182  2.0329  0.9479  2.9124
   11SAPS   C25 1374   4.399   1.600   3.355  0.2486  0.2369  0.2955
   11SAPS   H5R 1375   4.378   1.508   3.411 -3.3143  0.6234 -0.1591
   11SAPS   C26 1376   4.471   1.699   3.421 -0.1298  0.1818 -0.1262
   11SAPS   H6R 1377   4.516   1.674   3.518  1.7437 -2.0459 -1.4707
   11SAPS   C27 1378   4.468   1.843   3.378  0.1597  0.3880 -0.1127
   11SAPS   H7R 1379   4.459   1.849   3.267  0.5656 -1.3890 -0.2768
   11SAPS   H7S 1380   4.566   1.888   3.403 -0.1446 -0.1587  2.3633
   11SAPS   C28 1381   4.364   1.921   3.452 -0.9220  0.2671  0.5385
   11SAPS   H8R 1382   4.370   1.918   3.562 -2.4439  2.8159  0.7837
   11SAPS   C29 1383   4.247   1.976   3.400 -0.4852 -0.0216 -0.6723
   11SAPS   H9R 1384   4.169   2.011   3.470 -1.1261 -0.0935 -1.3488
   11SAPS  C210 1385   4.195   1.981   3.262 -0.9705 -0.6852  0.5482
   11SAPS  H10R 1386   4.198   1.881   3.213  2.6096 -0.7468  0.6870
   11SAPS  H10S 1387   4.243   2.057   3.196 -3.5040  0.4469 -0.1358
   11SAPS  C211 1388   4.048   2.009   3.255  0.0410 -0.1164 -0.1351
   11SAPS  H11R 1389   3.979   1.924   3.267 -0.7061  0.1450 -2.2404
   11SAPS  C212 1390   3.993   2.133   3.259 -0.7960  0.5761  0.0640
   11SAPS  H12R 1391   3.886   2.149   3.238 -0.2892  2.1772 -1.5772
   11SAPS  C213 1392   4.059   2.268   3.253  0.3879  0.3023 -0.5569
   11SAPS  H13R 1393   4.132   2.271   3.337  0.5441  1.0438 -0.7171
   11SAPS  H13S 1394   3.977   2.338   3.280 -1.1674 -1.2283 -1.1026
   11SAPS  C214 1395   4.127   2.314   3.123 -0.0884 -0.1890  0.0408
   11SAPS  H14R 1396   4.232   2.346   3.125 -0.2822  0.4453  2.5094
   11SAPS  C215 1397   4.068   2.305   3.004  0.4591 -0.0497 -0.4633
   11SAPS  H15R 1398   4.129   2.343   2.921 -0.3442 -0.0433 -1.0593
   11SAPS  C216 1399   3.930   2.264   2.979 -0.7011  0.2895  0.3053
   11SAPS  H16R 1400   3.876   2.341   2.920 -1.0075 -0.5651 -0.5609
   11SAPS  H16S 1401   3.873   2.257   3.074  0.2619 -1.1102  0.8162
   11SAPS  C217 1402   3.936   2.131   2.889  0.2280  0.2215 -0.9707
   11SAPS  H17R 1403   4.001   2.059   2.944 -1.0687  0.6793  1.3019
   11SAPS  H17S 1404   3.997   2.132   2.796 -0.1433  2.0356 -1.2256
   11SAPS  C218 1405   3.801   2.063   2.872  0.8573 -0.1147 -0.6391
   11SAPS  H18R 1406   3.804   1.964   2.822 -2.6958 -1.3546  1.2353
   11SAPS  H18S 1407   3.736   2.127   2.807 -2.5505  0.0695  2.6095
   11SAPS  C219 1408   3.727   2.033   3.008 -0.1649  0.0448  0.0807
   11SAPS  H19R 1409   3.719   2.130   3.061  1.9032  0.2466  0.0894
   11SAPS  H19S 1410   3.793   1.974   3.075 -1.0821 -2.1833 -0.8595
   11SAPS  C220 1411   3.593   1.963   2.993 -0.0083 -0.3002 -0.4033
   11SAPS  H20R 1412   3.550   1.932   3.091 -1.2393 -3.3479 -1.7666
   11SAPS  H20S 1413   3.589   1.877   2.922 -0.8215 -0.9209  0.3661
   11SAPS  H20T 1414   3.524   2.039   2.951  0.0162  0.4131  0.8027
   11SAPS   C33 1415   4.710   2.073   3.095 -0.6383 -0.7660 -0.6614
   11SAPS   H3X 1416   4.742   2.137   3.009 -0.2443 -0.8264 -0.5619
   11SAPS   H3Y 1417   4.802   2.048   3.152 -0.9474 -0.9814 -0.2502
   11SAPS   C34 1418   4.609   2.143   3.185  0.2822  0.3169  0.6871
   11SAPS   H4X 1419   4.566   2.076   3.263 -0.9679  2.1454  1.6401
   11SAPS   H4Y 1420   4.516   2.166   3.128 -0.6015 -2.6504  0.7490
   11SAPS   C35 1421   4.651   2.274   3.260 -0.3967 -0.8787 -0.4653
   11SAPS   H5X 1422   4.641   2.356   3.185  0.1591 -0.1903  0.1997
   11SAPS   H5Y 1423   4.757   2.265   3.292 -0.1300  2.4328 -0.0547
   11SAPS   C36 1424   4.575   2.302   3.395 -0.5501  0.3918  0.4996
   11SAPS   H6X 1425   4.543   2.205   3.436 -1.5655  1.1861  1.6423
   11SAPS   H6Y 1426   4.478   2.353   3.373 -0.7206 -0.5925 -1.2070
   11SAPS   C37 1427   4.657   2.391   3.485  0.6899  0.0539 -0.1949
   11SAPS   H7X 1428   4.658   2.494   3.442 -2.5685  0.6345  0.8605
   11SAPS   H7Y 1429   4.760   2.359   3.511  0.3951 -0.0964  0.8169
   11SAPS   C38 1430   4.573   2.421   3.612 -0.3261  0.6064 -0.2568
   11SAPS   H8X 1431   4.571   2.328   3.672  2.1049  0.9306  0.4368
   11SAPS   H8Y 1432   4.468   2.455   3.595 -0.0976  1.7056  0.4167
   11SAPS   C39 1433   4.662   2.511   3.700 -0.1931 -0.4286 -0.3972
   11SAPS   H9X 1434   4.718   2.588   3.643  1.6736 -0.4155  1.3204
   11SAPS   H9Y 1435   4.745   2.446   3.738  0.2734  0.2239 -0.2871
   11SAPS  C310 1436   4.588   2.594   3.800  0.3937 -0.4561  1.0660
   11SAPS  H10X 1437   4.509   2.660   3.757  0.4275 -1.5309 -0.7351
   11SAPS  H10Y 1438   4.662   2.649   3.862  0.5338  0.1982  0.3299
   11SAPS  C311 1439   4.515   2.499   3.898  0.6994 -0.2808  1.2759
   11SAPS  H11X 1440   4.590   2.421   3.923  2.1053  0.7116  0.3359
   11SAPS  H11Y 1441   4.438   2.437   3.848  0.2913  1.2690 -0.1073
   11SAPS  C312 1442   4.462   2.571   4.022 -0.2700 -0.2532  0.0115
   11SAPS  H12X 1443   4.431   2.676   4.002  0.9717  0.2926  0.8172
   11SAPS  H12Y 1444   4.553   2.581   4.085 -0.6673 -0.6406  0.6548
   11SAPS  C313 1445   4.382   2.484   4.117 -0.6165  0.1099  0.7507
   11SAPS  H13X 1446   4.445   2.395   4.138  1.6576  1.3602 -0.4455
   11SAPS  H13Y 1447   4.299   2.434   4.062  0.2527  0.1570 -0.6537
   11SAPS  C314 1448   4.343   2.551   4.251 -0.0508 -0.0284 -0.2935
   11SAPS  H14X 1449   4.276   2.639   4.241 -0.7066 -0.2811  1.5315
   11SAPS  H14Y 1450   4.437   2.590   4.295 -1.2700  0.1462  2.3443
   11SAPS  C315 1451   4.279   2.451   4.350 -0.5448  0.4034  0.9900
   11SAPS  H15X 1452   4.335   2.355   4.351  2.7328  2.1489 -0.0221
   11SAPS  H15Y 1453   4.186   2.417   4.299  0.1663  0.2709 -0.2439
   11SAPS  C316 1454   4.260   2.509   4.492 -0.1089 -0.1807 -0.5911
   11SAPS  H16X 1455   4.216   2.610   4.489  4.5824  2.2424  1.7365
   11SAPS  H16Y 1456   4.362   2.517   4.536  0.7537 -2.2752 -2.0019
   11SAPS  C317 1457   4.168   2.423   4.580 -0.0649 -0.1672 -0.4423
   11SAPS  H17X 1458   4.185   2.446   4.688 -0.5835  2.7315 -0.8756
   11SAPS  H17Y 1459   4.191   2.317   4.557 -1.4630 -0.4083 -0.8429
   11SAPS  C318 1460   4.019   2.433   4.568 -0.0951 -0.2691  0.0752
   11SAPS  H18X 1461   3.974   2.359   4.638 -2.4171  1.6717  0.7598
   11SAPS  H18Y 1462   3.990   2.408   4.464  0.1699  0.0643 -0.0820
   11SAPS  H18Z 1463   3.974   2.531   4.597 -2.6729 -1.1376 -0.7401
   12SAPS     N 1464   3.415   2.150   2.164 -0.3044  0.3756  0.2995
   12SAPS   HN1 1465   3.500   2.143   2.224  0.4071 -0.1327 -0.7246
   12SAPS   HN2 1466   3.443   2.166   2.065 -1.0287 -1.3717 -0.2345
   12SAPS   HN3 1467   3.356   2.223   2.208 -1.9740  0.1629 -1.4403
   12SAPS   C12 1468   3.346   2.013   2.173 -0.5674 -0.2197 -0.1973
   12SAPS  H12A 1469   3.265   2.015   2.101 -0.5536  0.2302 -0.2066
   12SAPS   C13 1470   3.437   1.894   2.152 -0.0785 -1.1499  0.7624
   12SAPS  O13A 1471   3.561   1.914   2.155 -0.7459 -0.7174  0.4544
   12SAPS  O13B 1472   3.385   1.781   2.152 -0.4799 -0.0115  0.1632
   12SAPS   C11 1473   3.277   2.003   2.310 -0.1168 -0.7439  0.5808
   12SAPS  H11A 1474   3.352   2.013   2.391  1.0912  0.8220 -0.6667
   12SAPS  H11B 1475   3.228   1.903   2.310 -0.0322 -0.7976 -0.3195
   12SAPS     P 1476   3.028   2.090   2.311 -0.2849  0.2303  0.3583
   12SAPS   O13 1477   2.978   2.226   2.281  0.3353 -0.7307  0.0467
   12SAPS   O14 1478   2.999   1.976   2.216  0.1077  0.4396 -0.0205
   12SAPS   O12 1479   3.179   2.103   2.329  0.2942 -0.6604  0.1628
   12SAPS   O11 1480   2.978   2.036   2.452 -0.1279 -0.5045  0.7363
   12SAPS    C1 1481   3.041   2.069   2.577 -0.0258 -1.1707  0.7994
   12SAPS    HA 1482   3.139   2.119   2.565 -0.0978 -1.4393 -1.4159
   12SAPS    HB 1483   2.976   2.147   2.623  2.0858  1.3753 -0.3236
   12SAPS    C2 1484   3.074   1.953   2.680  0.3187 -0.0514 -0.3722
   12SAPS    HS 1485   2.977   1.904   2.702  1.0836 -1.5789 -0.1944
   12SAPS   O21 1486   3.146   2.001   2.795  0.7135 -0.2236 -0.1312
   12SAPS   C21 1487   3.090   2.060   2.892  0.1917  1.1884 -0.1758
   12SAPS   O22 1488   2.970   2.078   2.902 -0.3810 -0.2507 -1.2412
   12SAPS   C22 1489   3.191   2.118   2.991 -0.6056  0.6675 -0.8291
   12SAPS   H2R 1490   3.292   2.115   2.944 -0.8949 -0.7855 -1.4268
   12SAPS   H2S 1491   3.157   2.222   3.007  1.2078  1.1606  0.0823
   12SAPS    C3 1492   3.148   1.833   2.625  0.6801 -0.0533  0.0758
   12SAPS    HX 1493   3.244   1.866   2.578  1.3440 -0.0692  1.3799
   12SAPS    HY 1494   3.091   1.788   2.541 -0.5573  2.0083 -0.2431
   12SAPS   O31 1495   3.161   1.731   2.729  0.3244 -0.6604 -0.1232
   12SAPS   C31 1496   3.285   1.729   2.787 -0.2309 -0.6359  0.4839
   12SAPS   O32 1497   3.381   1.800   2.751 -0.3868  0.1787 -0.2970
   12SAPS   C32 1498   3.289   1.629   2.897 -0.5862  0.7684  0.4503
   12SAPS   H2X 1499   3.298   1.536   2.838  0.7919 -0.2975  2.2352
   12SAPS   H2Y 1500   3.190   1.621   2.946 -0.3768 -1.3748  0.6130
   12SAPS   C23 1501   3.208   2.041   3.127 -0.7426  0.4696 -0.4886
   12SAPS   H3R 1502   3.258   1.944   3.103  0.7035  1.1161 -0.2323
   12SAPS   H3S 1503   3.108   2.039   3.175 -1.5186 -0.2979 -2.0799
   12SAPS   C24 1504   3.293   2.127   3.227 -0.5107  0.4645 -0.2181
   12SAPS   H4R 1505   3.239   2.224   3.214 -0.8175  1.0449  3.9732
   12SAPS   H4S 1506   3.393   2.141   3.180 -0.2580 -1.4252 -0.3195
   12SAPS   C25 1507   3.307   2.082   3.373 -0.2751 -0.4458  0.5312
   12SAPS   H5R 1508   3.399   2.025   3.392  0.2386 -0.4085 -1.6102
   12SAPS   C26 1509   3.214   2.094   3.469 -0.2578 -0.3980 -0.5256
   12SAPS   H6R 1510   3.232   2.043   3.564 -0.4072  0.0021 -0.2798
   12SAPS   C27 1511   3.076   2.153   3.458 -0.4419 -0.1999  0.5558
   12SAPS   H7R 1512   3.004   2.069   3.456 -0.4256 -0.1990 -0.4335
   12SAPS   H7S 1513   3.065   2.193   3.355 -0.1488 -1.3731  0.0598
   12SAPS   C28 1514   3.050   2.253   3.569 -0.3530  0.0061 -0.0442
   12SAPS   H8R 1515   3.037   2.353   3.527  2.2217  0.8926  1.0851
   12SAPS   C29 1516   3.028   2.226   3.699  0.0436 -0.1373 -0.1511
   12SAPS   H9R 1517   3.017   2.310   3.769 -0.6870 -0.1907 -0.1959
   12SAPS  C210 1518   3.041   2.084   3.758  0.2356  0.0023 -0.3208
   12SAPS  H10R 1519   3.032   2.007   3.679 -1.2902 -1.3297  1.0527
   12SAPS  H10S 1520   2.951   2.067   3.822  0.3389 -1.7182 -0.5968
   12SAPS  C211 1521   3.152   2.051   3.855  0.6590 -0.6456 -0.0480
   12SAPS  H11R 1522   3.247   2.026   3.807 -0.8871 -1.7867 -2.7217
   12SAPS  C212 1523   3.162   2.046   3.992 -0.4803 -0.1247  0.7104
   12SAPS  H12R 1524   3.259   2.031   4.043  0.1886  1.2508 -0.1032
   12SAPS  C213 1525   3.062   2.097   4.087  0.6910 -0.5020 -0.1536
   12SAPS  H13R 1526   3.025   2.194   4.049  0.6624  0.0605  1.2434
   12SAPS  H13S 1527   3.118   2.122   4.180  0.7981 -0.2655 -0.2799
   12SAPS  C214 1528   2.937   2.020   4.122 -0.4772  0.6918 -0.6622
   12SAPS  H14R 1529   2.843   2.047   4.070 -0.8798 -1.2814 -1.0399
   12SAPS  C215 1530   2.939   1.931   4.225 -0.2994 -0.0696 -0.1437
   12SAPS  H15R 1531   2.851   1.874   4.258  2.0569 -3.7954  0.1949
   12SAPS  C216 1532   3.051   1.890   4.317  0.0832 -0.9495 -0.6251
   12SAPS  H16R 1533   3.151   1.917   4.275  1.4625 -2.2281  1.6662
   12SAPS  H16S 1534   3.048   1.780   4.335 -1.1021 -0.4903  2.5727
   12SAPS  C217 1535   3.035   1.966   4.451 -0.8178  0.4783 -0.2117
   12SAPS  H17R 1536   2.932   1.963   4.492 -0.0606  1.2734  1.9136
   12SAPS  H17S 1537   3.063   2.071   4.427  2.8746 -0.5795 -1.1936
   12SAPS  C218 1538   3.125   1.922   4.564 -0.0817  0.4358  0.6076
   12SAPS  H18R 1539   3.234   1.936   4.546  0.2876  1.3921  3.2492
   12SAPS  H18S 1540   3.107   1.814   4.576  3.7917 -0.4052  0.2673
   12SAPS  C219 1541   3.084   1.992   4.697 -0.0052  0.0173 -0.3992
   12SAPS  H19R 1542   2.973   1.989   4.701 -0.0720  1.6144 -0.2998
   12SAPS  H19S 1543   3.121   2.096   4.706  0.7699 -0.3812  1.5325
   12SAPS  C220 1544   3.128   1.915   4.829 -0.2461  0.7555 -0.5798
   12SAPS  H20R 1545   3.236   1.922   4.854 -0.1381  0.7119 -1.0269
   12SAPS  H20S 1546   3.105   1.808   4.812 -2.2579  0.9215  0.7563
   12SAPS  H20T 1547   3.067   1.948   4.916  2.6320  0.9985  1.5229
   12SAPS   C33 1548   3.404   1.646   3.000 -0.3900 -0.1147 -0.2522
   12SAPS   H3X 1549   3.385   1.729   3.071  3.2572  0.1569  0.5583
   12SAPS   H3Y 1550   3.505   1.668   2.961  0.2365 -1.0341  0.8211
   12SAPS   C34 1551   3.423   1.515   3.086  0.6528 -0.4121  0.0496
   12SAPS   H4X 1552   3.505   1.529   3.161  0.2403 -0.8360  0.5911
   12SAPS   H4Y 1553   3.461   1.443   3.010  0.7063  1.6992 -2.0428
   12SAPS   C35 1554   3.292   1.471   3.150  0.3137  0.2835 -0.1641
   12SAPS   H5X 1555   3.224   1.433   3.070  1.6535  0.5813 -1.4947
   12SAPS   H5Y 1556   3.243   1.549   3.211  2.1595  1.3221  0.0778
   12SAPS   C36 1557   3.326   1.359   3.246  0.4729 -0.1825 -0.3186
   12SAPS   H6X 1558   3.402   1.385   3.323 -1.5716  0.3031  1.6796
   12SAPS   H6Y 1559   3.380   1.274   3.201  4.0932 -0.9397  4.5715
   12SAPS   C37 1560   3.192   1.295   3.314  0.1486 -0.4561  0.1991
   12SAPS   H7X 1561   3.159   1.226   3.234  0.7440 -1.2499  0.6248
   12SAPS   H7Y 1562   3.119   1.378   3.327  0.5336  0.2156 -1.6673
   12SAPS   C38 1563   3.217   1.235   3.441  0.0680  0.5465  0.3613
   12SAPS   H8X 1564   3.245   1.314   3.515  1.2953 -0.2308  0.7510
   12SAPS   H8Y 1565   3.291   1.153   3.439 -0.5103  0.0062  0.5010
   12SAPS   C39 1566   3.097   1.152   3.494 -0.0725 -0.2157  0.0167
   12SAPS   H9X 1567   3.082   1.058   3.437  1.3132  0.1968 -1.0902
   12SAPS   H9Y 1568   3.014   1.218   3.461 -0.0314 -0.4801 -0.6306
   12SAPS  C310 1569   3.097   1.129   3.647 -0.2033 -0.3708  0.3476
   12SAPS  H10X 1570   2.992   1.108   3.676 -0.3995 -0.1469 -0.1816
   12SAPS  H10Y 1571   3.142   1.220   3.690 -1.6119  0.3522  0.3636
   12SAPS  C311 1572   3.192   1.010   3.687 -0.0620 -0.8167 -0.6377
   12SAPS  H11X 1573   3.296   1.038   3.663  0.1691 -0.4221  0.7129
   12SAPS  H11Y 1574   3.166   0.926   3.619 -0.0359 -0.5266 -1.0111
   12SAPS  C312 1575   3.175   0.963   3.833 -0.1172 -0.1062 -0.6837
   12SAPS  H12X 1576   3.209   0.857   3.838  2.2771  0.6369 -0.2799
   12SAPS  H12Y 1577   3.067   0.965   3.861  0.0868  1.7473  0.0561
   12SAPS  C313 1578   3.264   1.038   3.930 -0.6095 -0.4213  0.2965
   12SAPS  H13X 1579   3.245   1.147   3.919  1.4068  0.1903  2.2015
   12SAPS  H13Y 1580   3.370   1.016   3.906 -0.3649 -1.3399  2.0713
   12SAPS  C314 1581   3.244   0.988   4.078 -0.9057 -0.6087 -0.7794
   12SAPS  H14X 1582   3.279   0.885   4.101  0.4619  0.2037  0.9577
   12SAPS  H14Y 1583   3.136   0.997   4.101 -0.3251  2.1923  1.3392
   12SAPS  C315 1584   3.305   1.084   4.177 -0.1002 -0.2536  0.2792
   12SAPS  H15X 1585   3.255   1.180   4.154  0.0762  0.3692  2.2665
   12SAPS  H15Y 1586   3.412   1.103   4.154 -1.1372  3.3522 -2.5818
   12SAPS  C316 1587   3.286   1.044   4.323  0.1966 -0.5919  0.1947
   12SAPS  H16X 1588   3.177   1.027   4.339  0.1366  0.2192  0.6684
   12SAPS  H16Y 1589   3.287   1.132   4.389  1.2723 -0.3036 -0.1921
   12SAPS  C317 1590   3.372   0.936   4.383  0.8374 -0.1795  0.2706
   12SAPS  H17X 1591   3.475   0.973   4.401  0.9759 -0.2957 -0.2708
   12SAPS  H17Y 1592   3.378   0.859   4.303 -2.1462  0.3063 -0.5342
   12SAPS  C318 1593   3.296   0.889   4.505 -0.5875  0.0115  0.0251
   12SAPS  H18X 1594   3.193   0.851   4.488 -1.9402  2.9084  1.0997
   12SAPS  H18Y 1595   3.285   0.975   4.575  2.1535  1.1007 -0.7622
   12SAPS  H18Z 1596   3.356   0.806   4.548 -1.1602 -1.2927 -1.5691
   13SAPS     N 1597   4.716   1.387   1.799  0.2869 -0.9289  0.3897
   13SAPS   HN1 1598   4.753   1.306   1.745 -1.7953 -1.1032 -0.9042
   13SAPS   HN2 1599   4.770   1.413   1.883 -0.8609  2.1143  0.3109
   13SAPS   HN3 1600   4.621   1.355   1.829 -0.3820  1.5730  1.1686
   13SAPS   C12 1601   4.708   1.505   1.706  0.5963  0.4348  0.8040
   13SAPS  H12A 1602   4.791   1.488   1.639 -1.2416 -2.6277 -0.9463
   13SAPS   C13 1603   4.584   1.510   1.607  0.6296  0.2827 -0.7064
   13SAPS  O13A 1604   4.508   1.407   1.604  0.1488  0.4409  0.2642
   13SAPS  O13B 1605   4.558   1.608   1.537  0.0604 -0.6387 -0.1486
   13SAPS   C11 1606   4.718   1.635   1.786  0.0696  0.1741 -0.5742
   13SAPS  H11A 1607   4.625   1.646   1.845 -2.3160  0.4587 -4.1045
   13SAPS  H11B 1608   4.710   1.714   1.709  0.3552 -1.8903 -2.8231
   13SAPS     P 1609   4.986   1.675   1.804  0.1139  0.1196  0.1909
   13SAPS   O13 1610   5.056   1.546   1.788  0.4598  0.1418 -0.3110
   13SAPS   O14 1611   4.974   1.751   1.682 -0.5623  0.2096  0.1794
   13SAPS   O12 1612   4.840   1.643   1.866  0.1253  0.0106 -0.0734
   13SAPS   O11 1613   5.065   1.753   1.917 -0.4591 -0.0539  0.4871
   13SAPS    C1 1614   5.049   1.889   1.939 -0.9374 -0.2006 -0.5519
   13SAPS    HA 1615   5.091   1.948   1.856  1.5892  2.6127  2.4589
   13SAPS    HB 1616   4.941   1.915   1.949 -0.9140 -0.2199 -0.2212
   13SAPS    C2 1617   5.101   1.936   2.077  0.6692  0.0898  0.6815
   13SAPS    HS 1618   5.065   2.040   2.094 -0.9677 -0.4007  0.4288
   13SAPS   O21 1619   5.242   1.924   2.073  0.2264  0.7162 -0.0114
   13SAPS   C21 1620   5.319   2.027   2.108  0.4321  0.9656 -0.1605
   13SAPS   O22 1621   5.286   2.134   2.142 -0.0566  0.0278  0.3574
   13SAPS   C22 1622   5.465   1.986   2.092  0.2950  0.1843 -0.4334
   13SAPS   H2R 1623   5.466   1.888   2.039  0.2687 -0.6803  1.1070
   13SAPS   H2S 1624   5.513   2.050   2.015  0.6693 -2.3871 -2.5127
   13SAPS    C3 1625   5.051   1.841   2.186  0.4029  0.0658 -0.6199
   13SAPS    HX 1626   5.107   1.746   2.176  1.5816  0.9160 -2.9844
   13SAPS    HY 1627   4.946   1.819   2.155  0.8479 -1.4478 -1.1478
   13SAPS   O31 1628   5.059   1.895   2.317  0.3493 -0.4195  0.2969
   13SAPS   C31 1629   4.963   1.985   2.354  1.3590 -0.3426  0.2990
   13SAPS   O32 1630   4.885   2.038   2.275 -0.4605 -0.1607 -0.1259
   13SAPS   C32 1631   4.962   2.009   2.504  0.0710 -0.9637  0.6387
   13SAPS   H2X 1632   5.065   2.035   2.535  0.1212  2.0511 -1.6207
   13SAPS   H2Y 1633   4.926   1.914   2.551  0.6435 -0.4849  2.0836
   13SAPS   C23 1634   5.552   1.992   2.217  0.9264  0.1023  0.1896
   13SAPS   H3R 1635   5.545   2.083   2.280  2.3380  0.6620 -0.4228
   13SAPS   H3S 1636   5.658   1.989   2.185  1.1469  2.8546  0.4311
   13SAPS   C24 1637   5.554   1.866   2.314  0.4325  0.3312  0.0422
   13SAPS   H4R 1638   5.579   1.781   2.247  1.8632 -2.1443  3.3746
   13SAPS   H4S 1639   5.455   1.863   2.365  1.6562  0.0953  2.5747
   13SAPS   C25 1640   5.658   1.871   2.427  0.4373 -0.3158  1.1703
   13SAPS   H5R 1641   5.760   1.899   2.398  0.7041 -1.3412  1.0923
   13SAPS   C26 1642   5.637   1.835   2.554 -0.4780 -0.5310 -0.3898
   13SAPS   H6R 1643   5.717   1.825   2.629  0.0515  0.0404 -0.8673
   13SAPS   C27 1644   5.510   1.775   2.605 -0.0344  0.0151  0.6693
   13SAPS   H7R 1645   5.416   1.828   2.577  0.7363  2.0325  1.7150
   13SAPS   H7S 1646   5.508   1.779   2.716  0.5274 -0.0523  0.6830
   13SAPS   C28 1647   5.493   1.623   2.578 -0.2086  0.2093 -0.0906
   13SAPS   H8R 1648   5.501   1.590   2.474 -2.1424  0.0153 -0.2061
   13SAPS   C29 1649   5.492   1.525   2.673  0.3709  0.1745  0.3150
   13SAPS   H9R 1650   5.497   1.420   2.643  1.3318  0.6234 -1.2141
   13SAPS  C210 1651   5.499   1.551   2.825 -0.1221  0.0735 -0.3225
   13SAPS  H10R 1652   5.396   1.584   2.851 -0.9814 -4.0478  2.5151
   13SAPS  H10S 1653   5.564   1.638   2.848 -1.9506  1.3023  0.4347
   13SAPS  C211 1654   5.529   1.431   2.912  0.5086  0.0162 -0.1120
   13SAPS  H11R 1655   5.597   1.358   2.865  4.1419  3.1164 -0.1967
   13SAPS  C212 1656   5.483   1.405   3.038  0.0020 -0.4894 -0.8397
   13SAPS  H12R 1657   5.529   1.320   3.091  2.4754 -0.9136 -3.4702
   13SAPS  C213 1658   5.392   1.508   3.112  0.1810  0.0814 -0.3272
   13SAPS  H13R 1659   5.314   1.457   3.173 -2.8014  1.8807 -2.3834
   13SAPS  H13S 1660   5.329   1.563   3.039  1.6672  1.4761 -0.5841
   13SAPS  C214 1661   5.469   1.607   3.195 -0.2028  0.4330 -0.1636
   13SAPS  H14R 1662   5.565   1.645   3.160  0.1577 -1.2545 -1.1215
   13SAPS  C215 1663   5.426   1.659   3.305  0.4661 -1.0950  0.0078
   13SAPS  H15R 1664   5.477   1.746   3.349 -2.6912  0.6942  0.5066
   13SAPS  C216 1665   5.306   1.622   3.387  0.0973  0.2805  0.0397
   13SAPS  H16R 1666   5.269   1.524   3.352 -1.3340  1.5094 -2.1073
   13SAPS  H16S 1667   5.225   1.698   3.393 -0.3574 -0.2204  0.2054
   13SAPS  C217 1668   5.343   1.601   3.533 -0.7157 -0.0470 -0.3149
   13SAPS  H17R 1669   5.416   1.518   3.545  0.7407  1.1978 -0.1755
   13SAPS  H17S 1670   5.250   1.580   3.590 -0.6663  1.6420  0.4459
   13SAPS  C218 1671   5.401   1.715   3.612 -0.6324 -0.0769  0.3184
   13SAPS  H18R 1672   5.333   1.802   3.599  0.9006  1.2065  0.5453
   13SAPS  H18S 1673   5.509   1.730   3.589 -1.0694  0.5757 -1.4318
   13SAPS  C219 1674   5.410   1.677   3.762 -0.6679 -0.2758  0.0081
   13SAPS  H19R 1675   5.504   1.624   3.785 -0.0509  1.3733  1.5286
   13SAPS  H19S 1676   5.320   1.621   3.796 -1.0782  0.7458  0.6475
   13SAPS  C220 1677   5.417   1.808   3.842  0.6472 -0.2517 -0.2452
   13SAPS  H20R 1678   5.316   1.854   3.849  1.1198  0.8347 -0.3736
   13SAPS  H20S 1679   5.487   1.880   3.795  1.1215  0.6506  1.7094
   13SAPS  H20T 1680   5.453   1.792   3.946  0.8881 -1.1645 -0.4538
   13SAPS   C33 1681   4.875   2.138   2.536 -0.0877 -0.3836 -0.5408
   13SAPS   H3X 1682   4.859   2.126   2.645  1.2308  0.0263 -0.2804
   13SAPS   H3Y 1683   4.779   2.135   2.481 -0.1124 -2.7690 -0.4562
   13SAPS   C34 1684   4.946   2.278   2.523  0.1329 -0.7237 -0.5831
   13SAPS   H4X 1685   4.874   2.356   2.489  0.4348 -1.9396 -4.5340
   13SAPS   H4Y 1686   5.011   2.270   2.433  0.6499  4.8780 -1.0230
   13SAPS   C35 1687   5.038   2.314   2.645 -0.0858  0.0215  0.1599
   13SAPS   H5X 1688   5.113   2.393   2.622  1.5213 -1.2566  0.7765
   13SAPS   H5Y 1689   5.111   2.233   2.665 -0.6443 -0.2199  1.2791
   13SAPS   C36 1690   4.973   2.325   2.785 -0.0678 -0.4965  0.0560
   13SAPS   H6X 1691   4.930   2.226   2.813 -1.2596 -0.0423 -0.0950
   13SAPS   H6Y 1692   4.889   2.396   2.773  0.3487 -0.1877 -1.1716
   13SAPS   C37 1693   5.065   2.376   2.892 -0.2344 -0.0907 -0.3484
   13SAPS   H7X 1694   5.119   2.466   2.856 -0.4945  0.1679 -0.0999
   13SAPS   H7Y 1695   5.146   2.300   2.899  0.6345  0.6703 -1.6282
   13SAPS   C38 1696   5.008   2.397   3.027  0.1209  0.0627 -0.5465
   13SAPS   H8X 1697   4.982   2.299   3.071  0.5855  0.7386  1.3099
   13SAPS   H8Y 1698   4.920   2.464   3.024  0.8016  1.0041 -0.2176
   13SAPS   C39 1699   5.110   2.453   3.123 -0.0465  0.4823  0.0149
   13SAPS   H9X 1700   5.182   2.522   3.074  2.5343 -1.6962  0.4844
   13SAPS   H9Y 1701   5.184   2.376   3.157  0.1345  0.7044  0.1327
   13SAPS  C310 1702   5.052   2.517   3.250  0.1961  0.4471  0.4608
   13SAPS  H10X 1703   4.954   2.469   3.273 -0.4572 -0.2634 -3.1294
   13SAPS  H10Y 1704   5.038   2.625   3.231  0.9366  0.5821  0.6722
   13SAPS  C311 1705   5.143   2.505   3.371  0.2346 -0.0353 -0.4186
   13SAPS  H11X 1706   5.235   2.560   3.342 -0.1369 -0.1489 -1.8908
   13SAPS  H11Y 1707   5.174   2.406   3.413 -0.3840 -0.3618 -0.7138
   13SAPS  C312 1708   5.087   2.562   3.502  0.4025 -0.5427 -0.5113
   13SAPS  H12X 1709   5.132   2.514   3.592  0.3218  0.0035 -0.1717
   13SAPS  H12Y 1710   4.980   2.535   3.504 -0.1323  1.3749  1.3453
   13SAPS  C313 1711   5.093   2.721   3.511  0.0171 -0.6335 -0.1143
   13SAPS  H13X 1712   5.039   2.764   3.424  0.7289  2.4990  0.8605
   13SAPS  H13Y 1713   5.196   2.751   3.483 -0.0357 -0.5582 -0.2248
   13SAPS  C314 1714   5.037   2.785   3.637 -0.1191 -0.2008  0.1484
   13SAPS  H14X 1715   4.933   2.748   3.647  1.1648 -4.1428  0.7187
   13SAPS  H14Y 1716   5.042   2.896   3.627  2.0746 -0.2327  0.5007
   13SAPS  C315 1717   5.108   2.747   3.766 -0.4888  0.0114 -0.4906
   13SAPS  H15X 1718   5.210   2.789   3.771 -0.0483 -0.8414 -1.7416
   13SAPS  H15Y 1719   5.127   2.638   3.774 -1.3973 -0.0702  1.0865
   13SAPS  C316 1720   5.030   2.780   3.894 -1.2139  0.6628 -0.7319
   13SAPS  H16X 1721   4.919   2.778   3.891 -1.3734 -0.7688  2.6532
   13SAPS  H16Y 1722   5.051   2.888   3.909  0.3987  0.6442 -2.4823
   13SAPS  C317 1723   5.080   2.693   4.012 -0.5875  0.0603 -0.3141
   13SAPS  H17X 1724   5.048   2.754   4.099  4.1782  2.0340  0.3834
   13SAPS  H17Y 1725   5.190   2.684   4.025 -0.6517 -1.4209 -0.6836
   13SAPS  C318 1726   5.017   2.555   4.020 -0.3742 -0.6685 -0.7561
   13SAPS  H18X 1727   4.908   2.570   4.035  0.1515  1.5545  1.6268
   13SAPS  H18Y 1728   5.055   2.494   4.104 -0.5374 -1.9022 -1.5499
   13SAPS  H18Z 1729   5.025   2.498   3.925 -0.5516 -0.0663 -1.1376
   14SAPS     N 1730   6.448   2.862   1.963 -0.7163  0.0157 -0.3900
   14SAPS   HN1 1731   6.448   2.880   1.860 -1.6043 -1.1928 -0.6359
   14SAPS   HN2 1732   6.435   2.945   2.024 -0.5543 -0.3279  0.1189
   14SAPS   HN3 1733   6.545   2.837   1.990 -0.5312 -1.3544 -2.0895
   14SAPS   C12 1734   6.362   2.748   2.020  0.0826  0.0297  0.0194
   14SAPS  H12A 1735   6.259   2.766   1.993 -0.2154 -0.7980  0.5638
   14SAPS   C13 1736   6.394   2.612   1.971 -0.4446  0.0427  0.0529
   14SAPS  O13A 1737   6.493   2.595   1.893  0.5499 -0.2147 -0.1315
   14SAPS  O13B 1738   6.332   2.515   2.028  0.0623  0.0949  0.1665
   14SAPS   C11 1739   6.355   2.747   2.174  0.4366 -0.3569 -0.0872
   14SAPS  H11A 1740   6.453   2.726   2.223 -0.4973 -2.4037  1.0552
   14SAPS  H11B 1741   6.284   2.674   2.218 -0.8531  1.6983  1.4365
   14SAPS     P 1742   6.163   2.895   2.277  0.2386  0.1223  0.6206
   14SAPS   O13 1743   6.142   3.036   2.311 -0.1278  0.4564 -0.3653
   14SAPS   O14 1744   6.068   2.841   2.172  0.2311  0.4091  0.0285
   14SAPS   O12 1745   6.310   2.874   2.223 -0.3706  0.5756 -0.0747
   14SAPS   O11 1746   6.150   2.805   2.402 -0.2604 -0.2022  0.0616
   14SAPS    C1 1747   6.246   2.741   2.483  0.4995  0.0050  0.5500
   14SAPS    HA 1748   6.244   2.630   2.478 -0.0463  0.0462 -0.4233
   14SAPS    HB 1749   6.347   2.782   2.463  0.4892 -0.9110 -1.6099
   14SAPS    C2 1750   6.218   2.782   2.630  0.4254  0.2693 -0.6589
   14SAPS    HS 1751   6.285   2.714   2.687 -1.3586 -1.1676 -0.1529
   14SAPS   O21 1752   6.082   2.763   2.669  0.1123 -0.3013 -0.6074
   14SAPS   C21 1753   6.030   2.641   2.653  0.4594  0.3245 -0.0488
   14SAPS   O22 1754   6.098   2.541   2.641  0.2122 -0.0905  0.3129
   14SAPS   C22 1755   5.874   2.644   2.670 -0.3211  0.0119 -0.3145
   14SAPS   H2R 1756   5.846   2.726   2.739 -0.2852 -0.1013 -0.1631
   14SAPS   H2S 1757   5.831   2.659   2.569 -1.3349 -2.1266 -0.2451
   14SAPS    C3 1758   6.260   2.930   2.658 -0.3781  0.1855 -0.4828
   14SAPS    HX 1759   6.215   2.996   2.581  0.6914 -1.2941 -2.4732
   14SAPS    HY 1760   6.368   2.952   2.643 -0.1376  1.3454  2.4369
   14SAPS   O31 1761   6.227   2.970   2.788 -0.3930 -0.2111  0.4252
   14SAPS   C31 1762   6.292   3.076   2.837 -0.5293 -0.3447 -0.2881
   14SAPS   O32 1763   6.381   3.133   2.779  0.0544 -0.0819 -0.0613
   14SAPS   C32 1764   6.232   3.100   2.980  0.0418 -0.0045  0.5759
   14SAPS   H2X 1765   6.312   3.083   3.056 -1.3970  0.6256  2.3121
   14SAPS   H2Y 1766   6.136   3.047   2.999  0.5388 -0.6038  1.4920
   14SAPS   C23 1767   5.816   2.508   2.723 -0.0837 -0.3093  0.1735
   14SAPS   H3R 1768   5.858   2.424   2.664  2.0591  0.8887 -0.1076
   14SAPS   H3S 1769   5.705   2.510   2.727 -0.1027  1.0241 -0.3791
   14SAPS   C24 1770   5.853   2.492   2.873 -0.5570 -0.9272 -0.8151
   14SAPS   H4R 1771   5.804   2.581   2.917 -0.8179 -1.2855 -0.3780
   14SAPS   H4S 1772   5.963   2.498   2.888 -0.7476  0.5700  0.2153
   14SAPS   C25 1773   5.789   2.364   2.929 -0.2678  0.5232  0.0171
   14SAPS   H5R 1774   5.825   2.272   2.882 -2.2779 -0.3941  0.1747
   14SAPS   C26 1775   5.692   2.348   3.017 -0.0529 -0.6818 -1.0463
   14SAPS   H6R 1776   5.648   2.249   3.033 -1.2850  0.0695  0.4861
   14SAPS   C27 1777   5.623   2.464   3.091 -0.3589 -0.6363 -0.3717
   14SAPS   H7R 1778   5.551   2.513   3.023 -1.6103 -0.9934  0.6576
   14SAPS   H7S 1779   5.696   2.536   3.133  0.6706 -2.5170  1.2528
   14SAPS   C28 1780   5.524   2.408   3.193 -0.2751  0.4095  0.9459
   14SAPS   H8R 1781   5.477   2.315   3.161 -3.1928  1.9220  0.5192
   14SAPS   C29 1782   5.488   2.474   3.305  0.4830  0.0004  0.7595
   14SAPS   H9R 1783   5.412   2.424   3.367  0.3343 -0.6605  0.0613
   14SAPS  C210 1784   5.538   2.602   3.362 -0.3828  0.0160 -0.2088
   14SAPS  H10R 1785   5.489   2.694   3.322 -2.1197  0.9694  3.6370
   14SAPS  H10S 1786   5.648   2.613   3.348 -0.6722  1.1598 -1.8323
   14SAPS  C211 1787   5.512   2.607   3.509 -0.0884  0.5710 -0.0576
   14SAPS  H11R 1788   5.404   2.594   3.525 -0.0515 -3.5099 -1.8190
   14SAPS  C212 1789   5.597   2.620   3.613 -0.2296  0.2585 -0.6002
   14SAPS  H12R 1790   5.557   2.638   3.714  3.1343  2.1548  0.5417
   14SAPS  C213 1791   5.750   2.639   3.609 -0.1797  0.5363 -1.1066
   14SAPS  H13R 1792   5.763   2.747   3.635 -1.4347  0.1577  1.3889
   14SAPS  H13S 1793   5.800   2.632   3.510  0.3935  1.7808 -0.9287
   14SAPS  C214 1794   5.829   2.552   3.704 -0.2150  0.2805 -0.0035
   14SAPS  H14R 1795   5.875   2.469   3.648 -1.5518  0.0660 -0.8280
   14SAPS  C215 1796   5.863   2.574   3.832 -0.1061 -0.7067 -0.3494
   14SAPS  H15R 1797   5.935   2.505   3.879  1.8787 -0.3466 -2.6335
   14SAPS  C216 1798   5.818   2.687   3.921 -0.0601  0.2175 -0.5792
   14SAPS  H16R 1799   5.755   2.761   3.866 -0.5155  0.5627  0.3807
   14SAPS  H16S 1800   5.911   2.739   3.953  0.4997  0.3815 -2.3986
   14SAPS  C217 1801   5.741   2.632   4.045 -0.0715  0.6786 -0.1468
   14SAPS  H17R 1802   5.722   2.703   4.128 -3.6588  0.6626 -0.8231
   14SAPS  H17S 1803   5.821   2.567   4.087  1.2187  1.2758 -1.5833
   14SAPS  C218 1804   5.604   2.570   4.015  0.0045 -0.2142  0.2873
   14SAPS  H18R 1805   5.602   2.485   3.943  1.5471 -0.0630  0.0313
   14SAPS  H18S 1806   5.539   2.648   3.969  0.0297  0.3768  1.2243
   14SAPS  C219 1807   5.532   2.524   4.145  0.3263  0.1543  0.3943
   14SAPS  H19R 1808   5.424   2.504   4.129  0.5489  0.2200 -1.4477
   14SAPS  H19S 1809   5.539   2.617   4.206  2.3551  0.6002 -0.4209
   14SAPS  C220 1810   5.607   2.415   4.229 -0.4551 -0.0327  0.2490
   14SAPS  H20R 1811   5.539   2.361   4.299  0.5996 -1.1839  0.4238
   14SAPS  H20S 1812   5.681   2.462   4.297 -1.4548 -0.1008  1.4283
   14SAPS  H20T 1813   5.664   2.347   4.162 -0.8742 -0.4574  0.3159
   14SAPS   C33 1814   6.204   3.248   2.990 -0.2038  0.9651  0.2638
   14SAPS   H3X 1815   6.130   3.277   2.913 -0.1422  1.2904  0.3264
   14SAPS   H3Y 1816   6.300   3.302   2.973  1.8497 -1.6678  2.4016
   14SAPS   C34 1817   6.162   3.301   3.129 -0.7920 -0.0687 -0.6552
   14SAPS   H4X 1818   6.075   3.239   3.162 -0.6632 -1.4289 -2.6802
   14SAPS   H4Y 1819   6.121   3.403   3.111  0.4551  0.3754 -1.0628
   14SAPS   C35 1820   6.271   3.306   3.231 -0.7555 -0.5746  0.0728
   14SAPS   H5X 1821   6.338   3.388   3.197 -1.4491  0.7084  1.6535
   14SAPS   H5Y 1822   6.330   3.212   3.234 -0.3756 -0.4985 -2.5073
   14SAPS   C36 1823   6.232   3.341   3.374  0.1955 -0.7851  0.0334
   14SAPS   H6X 1824   6.191   3.249   3.420 -2.3893  0.9117  1.3799
   14SAPS   H6Y 1825   6.160   3.426   3.381  1.0352 -0.1853  1.8477
   14SAPS   C37 1826   6.354   3.389   3.455 -0.1287 -0.0440 -0.3422
   14SAPS   H7X 1827   6.386   3.489   3.420 -1.7407  0.2579 -1.0214
   14SAPS   H7Y 1828   6.432   3.316   3.423 -0.2611 -0.2990 -0.0967
   14SAPS   C38 1829   6.314   3.385   3.609  0.4803  0.3482 -0.2330
   14SAPS   H8X 1830   6.287   3.282   3.643 -0.5373 -0.0676 -2.1516
   14SAPS   H8Y 1831   6.226   3.452   3.609  1.0631  1.1362 -1.6254
   14SAPS   C39 1832   6.420   3.448   3.700 -0.4230 -0.8878 -0.9210
   14SAPS   H9X 1833   6.460   3.543   3.661 -0.6271  0.7618  2.5225
   14SAPS   H9Y 1834   6.502   3.375   3.719  0.6371  0.9449  2.2555
   14SAPS  C310 1835   6.373   3.476   3.850 -1.0952 -0.1771  1.0686
   14SAPS  H10X 1836   6.444   3.551   3.891  0.1232 -0.3806 -0.5873
   14SAPS  H10Y 1837   6.398   3.382   3.904  0.6437 -0.1622  0.3380
   14SAPS  C311 1838   6.228   3.514   3.877 -0.2735 -0.8642 -0.4952
   14SAPS  H11X 1839   6.162   3.424   3.878  1.8673 -2.5315 -1.7519
   14SAPS  H11Y 1840   6.193   3.576   3.792 -0.0199  2.4261  1.6109
   14SAPS  C312 1841   6.214   3.583   4.009  0.2484 -1.3378 -0.1291
   14SAPS  H12X 1842   6.247   3.689   4.003 -0.4002 -1.1621 -0.6693
   14SAPS  H12Y 1843   6.287   3.542   4.082  2.0311 -2.4837 -2.4251
   14SAPS  C313 1844   6.079   3.588   4.065 -0.5632  0.2010 -0.0655
   14SAPS  H13X 1845   6.056   3.484   4.094 -0.3334 -0.1385 -1.0740
   14SAPS  H13Y 1846   5.997   3.611   3.994 -1.1935 -2.0324 -0.1342
   14SAPS  C314 1847   6.081   3.678   4.191  0.1260  1.1336  0.4436
   14SAPS  H14X 1848   6.009   3.762   4.189 -0.5332  0.5624 -1.4298
   14SAPS  H14Y 1849   6.171   3.743   4.191  1.2331 -0.3194  1.4128
   14SAPS  C315 1850   6.073   3.604   4.325  0.2897  0.1904 -0.0514
   14SAPS  H15X 1851   6.168   3.549   4.346 -0.1754 -0.0810  1.4882
   14SAPS  H15Y 1852   5.993   3.527   4.328  1.2781 -0.8331  0.6424
   14SAPS  C316 1853   6.060   3.714   4.438 -0.2232  0.4799  0.3048
   14SAPS  H16X 1854   5.954   3.745   4.424 -0.0317  0.6617 -0.8434
   14SAPS  H16Y 1855   6.131   3.795   4.414 -0.7321  0.4767 -1.3256
   14SAPS  C317 1856   6.076   3.659   4.585 -0.5107 -0.0095  0.7465
   14SAPS  H17X 1857   6.185   3.655   4.609  0.4052 -0.6212 -2.9335
   14SAPS  H17Y 1858   6.030   3.559   4.599 -0.5355 -0.2073 -0.6385
   14SAPS  C318 1859   6.007   3.755   4.679 -0.9308  0.3710  0.3449
   14SAPS  H18X 1860   6.007   3.722   4.786 -1.2741  1.0952  0.5735
   14SAPS  H18Y 1861   5.898   3.760   4.659 -0.9052 -1.1377 -0.3276
   14SAPS  H18Z 1862   6.052   3.856   4.669  1.0143 -0.5185 -0.4604
   15SAPS     N 1863   5.465   2.530   1.410 -0.5269  0.2851 -0.5157
   15SAPS   HN1 1864   5.364   2.516   1.428 -0.6271  1.2856 -0.2199
   15SAPS   HN2 1865   5.480   2.552   1.309 -0.2033 -1.2988 -0.8443
   15SAPS   HN3 1866   5.517   2.441   1.421 -0.9232  0.1940  0.7438
   15SAPS   C12 1867   5.519   2.633   1.497 -0.6583 -0.2157  0.0009
   15SAPS  H12A 1868   5.625   2.632   1.478 -0.5853 -1.4260  0.3335
   15SAPS   C13 1869   5.466   2.773   1.467 -0.2694  0.5982 -0.1157
   15SAPS  O13A 1870   5.380   2.791   1.381  0.9563  0.2014 -0.3383
   15SAPS  O13B 1871   5.530   2.868   1.520  0.4369 -0.3654 -0.0689
   15SAPS   C11 1872   5.507   2.592   1.644 -0.3540 -0.5114  0.2634
   15SAPS  H11A 1873   5.396   2.596   1.656 -0.4698 -1.7495 -0.2371
   15SAPS  H11B 1874   5.557   2.662   1.714 -0.0868 -1.7733  1.3925
   15SAPS     P 1875   5.520   2.364   1.770  0.1483  0.4188 -0.2381
   15SAPS   O13 1876   5.379   2.339   1.729 -0.1776 -0.1819  0.2061
   15SAPS   O14 1877   5.609   2.244   1.790  1.1790  0.0955  0.0657
   15SAPS   O12 1878   5.574   2.465   1.655  0.2459  0.1785  0.3548
   15SAPS   O11 1879   5.517   2.445   1.901 -0.0727  0.1687 -1.0729
   15SAPS    C1 1880   5.450   2.396   2.022 -0.0381  0.0934 -0.6961
   15SAPS    HA 1881   5.341   2.391   2.004  0.1840 -1.1387 -1.8599
   15SAPS    HB 1882   5.481   2.290   2.031 -1.7764 -0.5088 -1.4287
   15SAPS    C2 1883   5.497   2.456   2.153 -0.5071 -0.0277 -0.6589
   15SAPS    HS 1884   5.606   2.439   2.158 -0.4572  0.5957  0.8504
   15SAPS   O21 1885   5.426   2.389   2.264 -0.7097  0.1192 -0.1032
   15SAPS   C21 1886   5.491   2.412   2.379 -0.6782  0.5970 -0.1034
   15SAPS   O22 1887   5.583   2.492   2.402  0.5269  0.8857  0.0466
   15SAPS   C22 1888   5.434   2.317   2.481  0.7523 -0.2592 -0.5710
   15SAPS   H2R 1889   5.334   2.356   2.508  0.0145 -0.5402 -2.6726
   15SAPS   H2S 1890   5.412   2.218   2.434 -0.5262  0.0156 -0.5841
   15SAPS    C3 1891   5.460   2.608   2.154  0.2283  0.0674  0.0945
   15SAPS    HX 1892   5.353   2.623   2.130 -0.1163  0.9939  2.0020
   15SAPS    HY 1893   5.520   2.642   2.067 -0.0924  1.9766  0.5658
   15SAPS   O31 1894   5.482   2.685   2.278 -0.0773  0.3089 -0.7434
   15SAPS   C31 1895   5.589   2.760   2.292  0.1897  0.1131  0.3194
   15SAPS   O32 1896   5.683   2.765   2.217 -0.0899 -0.3754  0.2968
   15SAPS   C32 1897   5.573   2.844   2.416  0.5912 -0.0760  0.4693
   15SAPS   H2X 1898   5.518   2.934   2.378  0.2505 -0.4372  0.0939
   15SAPS   H2Y 1899   5.672   2.885   2.447  0.4996  0.1841  0.4220
   15SAPS   C23 1900   5.521   2.287   2.605  0.3409  0.2551  0.6683
   15SAPS   H3R 1901   5.580   2.377   2.632  1.1502 -0.5159  1.5359
   15SAPS   H3S 1902   5.600   2.210   2.592  1.4434  1.1225  1.9565
   15SAPS   C24 1903   5.433   2.249   2.726 -0.3657 -0.0032 -0.3614
   15SAPS   H4R 1904   5.349   2.321   2.729  0.5453  1.0970 -0.4628
   15SAPS   H4S 1905   5.497   2.257   2.816 -1.3207 -1.7167  0.5256
   15SAPS   C25 1906   5.382   2.112   2.698  0.5894 -0.6099 -0.2423
   15SAPS   H5R 1907   5.367   2.077   2.595 -1.8172 -3.2272  0.8541
   15SAPS   C26 1908   5.347   2.017   2.784 -0.0246  0.3629  0.1857
   15SAPS   H6R 1909   5.307   1.926   2.735  2.6025 -0.9445  0.2831
   15SAPS   C27 1910   5.357   2.011   2.936  0.3401 -0.5342 -0.0992
   15SAPS   H7R 1911   5.356   2.115   2.975 -1.4118 -0.1039 -1.1849
   15SAPS   H7S 1912   5.452   1.969   2.976 -0.4217 -1.3041  0.9693
   15SAPS   C28 1913   5.256   1.911   2.990 -0.2214  0.1383  0.3325
   15SAPS   H8R 1914   5.270   1.810   2.950 -2.4926 -0.0138 -0.2116
   15SAPS   C29 1915   5.159   1.930   3.085 -0.1099 -0.0341  0.5942
   15SAPS   H9R 1916   5.080   1.856   3.106 -1.6223  1.3483 -0.0121
   15SAPS  C210 1917   5.124   2.057   3.162 -0.0457  0.0441 -0.1171
   15SAPS  H10R 1918   5.015   2.079   3.164  0.3776  2.3212  0.2081
   15SAPS  H10S 1919   5.159   2.151   3.116 -2.1979  2.8056  3.3889
   15SAPS  C211 1920   5.198   2.043   3.292  0.7777  0.5001 -0.3432
   15SAPS  H11R 1921   5.306   2.027   3.279  1.0969 -0.6734  2.7189
   15SAPS  C212 1922   5.149   2.024   3.419 -0.3963  0.0365  0.3577
   15SAPS  H12R 1923   5.226   2.004   3.495 -0.5305 -2.4074 -0.0823
   15SAPS  C213 1924   5.005   2.049   3.460  0.0887  0.1359  0.9363
   15SAPS  H13R 1925   4.938   1.989   3.395  2.2811 -0.9139 -0.4408
   15SAPS  H13S 1926   4.972   2.154   3.475  0.7784  0.1359  2.6993
   15SAPS  C214 1927   4.992   1.992   3.602 -0.2679 -0.8970  0.5599
   15SAPS  H14R 1928   5.085   1.960   3.653 -0.8267  0.9778  2.9227
   15SAPS  C215 1929   4.879   1.974   3.670 -0.0909  0.4235  0.1221
   15SAPS  H15R 1930   4.875   1.916   3.763 -1.7171 -0.2636 -0.3379
   15SAPS  C216 1931   4.741   2.003   3.613 -0.3887  0.1752 -0.1054
   15SAPS  H16R 1932   4.681   1.916   3.579  0.2052  0.1602 -1.1672
   15SAPS  H16S 1933   4.743   2.061   3.518  0.3128 -0.1496 -0.3012
   15SAPS  C217 1934   4.650   2.084   3.705  0.5532  0.0047  0.6006
   15SAPS  H17R 1935   4.582   2.115   3.622  2.4542 -1.9163 -1.8193
   15SAPS  H17S 1936   4.710   2.171   3.736  3.0902 -1.7039  0.7743
   15SAPS  C218 1937   4.584   2.018   3.823 -0.5521 -0.4170 -1.0846
   15SAPS  H18R 1938   4.666   1.963   3.873  0.5208  1.0522 -1.1724
   15SAPS  H18S 1939   4.502   1.946   3.802 -1.6424  0.8450 -1.2729
   15SAPS  C219 1940   4.545   2.117   3.939  0.4575 -0.0947 -0.4670
   15SAPS  H19R 1941   4.625   2.194   3.953 -1.4461  1.7500  0.7850
   15SAPS  H19S 1942   4.542   2.049   4.026  1.5744 -0.1389 -0.4464
   15SAPS  C220 1943   4.407   2.179   3.913  0.6493  0.3997 -0.4505
   15SAPS  H20R 1944   4.336   2.098   3.885  0.6706  0.6683 -1.2803
   15SAPS  H20S 1945   4.416   2.247   3.826  0.7958  3.1149  1.5635
   15SAPS  H20T 1946   4.368   2.237   3.999 -0.7496  0.0418 -0.8190
   15SAPS   C33 1947   5.505   2.754   2.524 -0.9606  0.2064  0.2523
   15SAPS   H3X 1948   5.560   2.660   2.542 -0.5617  0.4232  0.1892
   15SAPS   H3Y 1949   5.399   2.735   2.497 -0.5436 -1.4510 -0.2883
   15SAPS   C34 1950   5.514   2.821   2.662  0.2542  0.1992  1.1102
   15SAPS   H4X 1951   5.453   2.912   2.646 -0.9510 -0.6273  0.8182
   15SAPS   H4Y 1952   5.619   2.850   2.683  0.7177 -1.2697  0.9348
   15SAPS   C35 1953   5.453   2.734   2.765 -0.1286  0.2112 -0.5792
   15SAPS   H5X 1954   5.530   2.666   2.810 -2.3224 -0.4604  2.4654
   15SAPS   H5Y 1955   5.374   2.661   2.736 -0.9539 -0.4092  2.7940
   15SAPS   C36 1956   5.376   2.823   2.864  0.0464  1.0264  0.2377
   15SAPS   H6X 1957   5.310   2.899   2.817  0.3009  0.7140 -0.6469
   15SAPS   H6Y 1958   5.452   2.886   2.915  0.9139  0.0583  0.1751
   15SAPS   C37 1959   5.309   2.742   2.977 -0.9451 -0.7038  0.0397
   15SAPS   H7X 1960   5.379   2.664   3.014  1.7487 -0.4748 -3.9672
   15SAPS   H7Y 1961   5.222   2.692   2.928 -0.6559 -0.0748 -1.1414
   15SAPS   C38 1962   5.237   2.842   3.070 -0.0072 -0.2117 -0.1448
   15SAPS   H8X 1963   5.175   2.782   3.140  1.0458  0.8389  1.7659
   15SAPS   H8Y 1964   5.172   2.910   3.011  1.4380  0.5569 -0.9239
   15SAPS   C39 1965   5.335   2.921   3.156  0.6088  0.0158  0.2411
   15SAPS   H9X 1966   5.385   2.995   3.091  0.4196  0.1089  0.2026
   15SAPS   H9Y 1967   5.409   2.850   3.200 -0.7116 -1.0317  0.8645
   15SAPS  C310 1968   5.264   2.997   3.271  1.1658  0.2611  0.4111
   15SAPS  H10X 1969   5.179   2.947   3.322  0.2587  1.4899  0.1333
   15SAPS  H10Y 1970   5.215   3.086   3.226  2.5985  0.5424 -0.6763
   15SAPS  C311 1971   5.364   3.040   3.376 -0.4810  0.5410 -0.7354
   15SAPS  H11X 1972   5.449   3.097   3.332 -0.1292  0.1521 -0.5662
   15SAPS  H11Y 1973   5.411   2.947   3.416  2.2035  1.7467 -0.8935
   15SAPS  C312 1974   5.307   3.127   3.487 -0.2805  0.0300 -1.1640
   15SAPS  H12X 1975   5.230   3.067   3.540 -0.8354  1.6055 -0.1412
   15SAPS  H12Y 1976   5.264   3.218   3.439 -0.7099  0.0556 -0.7370
   15SAPS  C313 1977   5.406   3.182   3.584 -0.6357  0.0939 -0.3088
   15SAPS  H13X 1978   5.348   3.250   3.650 -0.2785 -1.3151  1.5341
   15SAPS  H13Y 1979   5.489   3.234   3.532  2.0570 -2.0988  1.4876
   15SAPS  C314 1980   5.460   3.083   3.685 -0.6650  0.2149 -0.2515
   15SAPS  H14X 1981   5.538   3.018   3.640  1.9544  1.1029  2.6723
   15SAPS  H14Y 1982   5.376   3.023   3.727 -0.9242  0.2607 -0.6964
   15SAPS  C315 1983   5.510   3.153   3.813  0.1184  0.4935  0.0534
   15SAPS  H15X 1984   5.425   3.213   3.852 -1.8398 -1.3238 -1.1723
   15SAPS  H15Y 1985   5.592   3.220   3.779  0.5194  0.4179  0.8630
   15SAPS  C316 1986   5.568   3.061   3.925  0.0316  0.4755 -0.0398
   15SAPS  H16X 1987   5.653   3.004   3.881  0.5381  1.2178 -0.0446
   15SAPS  H16Y 1988   5.488   2.989   3.948  0.8174 -0.6003 -0.5705
   15SAPS  C317 1989   5.613   3.119   4.057  0.5307 -0.2862 -0.0123
   15SAPS  H17X 1990   5.615   3.029   4.122  1.2140 -0.8638 -0.8059
   15SAPS  H17Y 1991   5.526   3.175   4.098 -0.5072 -1.0988 -1.0094
   15SAPS  C318 1992   5.753   3.188   4.050  0.1717  0.1270  0.3076
   15SAPS  H18X 1993   5.756   3.265   3.970  0.3607 -3.2620 -3.2322
   15SAPS  H18Y 1994   5.833   3.113   4.032 -1.4583 -2.5704  3.2417
   15SAPS  H18Z 1995   5.769   3.245   4.144 -0.3964  1.7768 -0.5631
   16SAPS     N 1996   6.164   4.880   1.914 -0.0099  0.3695 -0.4437
   16SAPS   HN1 1997   6.099   4.940   1.969 -0.3616 -0.9229  0.6130
   16SAPS   HN2 1998   6.228   4.822   1.972  0.6002 -0.6587 -2.0744
   16SAPS   HN3 1999   6.217   4.937   1.845 -0.4991  2.4407  0.8035
   16SAPS   C12 2000   6.069   4.778   1.845  0.0161  0.3413 -0.0315
   16SAPS  H12A 2001   5.981   4.767   1.906 -0.5774 -2.2802 -1.2054
   16SAPS   C13 2002   6.032   4.809   1.698 -0.3183 -0.0665 -0.0510
   16SAPS  O13A 2003   6.099   4.898   1.634 -0.2802 -0.0179 -0.4348
   16SAPS  O13B 2004   5.968   4.726   1.633  0.3094  0.1045  0.5396
   16SAPS   C11 2005   6.137   4.636   1.849 -0.1444 -0.0001  0.3350
   16SAPS  H11A 2006   6.235   4.641   1.798 -0.6034  0.3431 -0.5262
   16SAPS  H11B 2007   6.090   4.563   1.779  0.1422 -0.1815  0.3296
   16SAPS     P 2008   6.029   4.481   2.023  0.5254 -0.2090 -0.1474
   16SAPS   O13 2009   5.899   4.526   1.967 -0.0232  1.0453  0.4517
   16SAPS   O14 2010   6.073   4.341   2.003  0.0740  0.4169 -0.3084
   16SAPS   O12 2011   6.150   4.575   1.977 -0.2464  1.0602 -0.1781
   16SAPS   O11 2012   6.019   4.513   2.179 -0.2305  0.1654 -0.0841
   16SAPS    C1 2013   6.143   4.506   2.245 -0.7447 -0.4667 -0.0876
   16SAPS    HA 2014   6.183   4.403   2.238 -1.4063 -0.6780 -1.1383
   16SAPS    HB 2015   6.218   4.584   2.220  1.1098 -1.6816  1.4107
   16SAPS    C2 2016   6.113   4.549   2.393 -0.3324  0.0610  0.5142
   16SAPS    HS 2017   6.214   4.556   2.440  0.9106  0.4115 -2.0779
   16SAPS   O21 2018   6.038   4.453   2.465 -0.0235 -0.4783  0.5142
   16SAPS   C21 2019   6.073   4.329   2.473 -0.3703  0.5154 -0.3255
   16SAPS   O22 2020   6.178   4.275   2.434  0.3562 -0.0727 -0.3353
   16SAPS   C22 2021   5.967   4.266   2.560 -0.2064 -0.1891  0.3279
   16SAPS   H2R 2022   5.992   4.307   2.660 -2.7257 -0.0088  0.9516
   16SAPS   H2S 2023   5.866   4.300   2.528 -0.3416 -0.4881  0.4284
   16SAPS    C3 2024   6.051   4.681   2.405  0.0030 -0.0238 -0.6734
   16SAPS    HX 2025   5.953   4.689   2.354  1.0603  2.6966 -2.5156
   16SAPS    HY 2026   6.107   4.761   2.352 -0.5335  1.2078  0.5778
   16SAPS   O31 2027   6.039   4.723   2.538 -0.0033 -0.0600 -0.2251
   16SAPS   C31 2028   5.931   4.671   2.605  0.0912  0.2605  0.4366
   16SAPS   O32 2029   5.838   4.613   2.554  0.4388  0.2588 -0.5034
   16SAPS   C32 2030   5.963   4.681   2.758 -0.2280  0.6126 -0.0657
   16SAPS   H2X 2031   5.993   4.784   2.785  0.4645  0.6444 -0.9338
   16SAPS   H2Y 2032   6.058   4.623   2.764 -1.9148 -2.3474 -0.1608
   16SAPS   C23 2033   5.981   4.113   2.559  0.4282  0.1134 -0.3150
   16SAPS   H3R 2034   6.071   4.081   2.502  1.0206 -1.0756  1.2200
   16SAPS   H3S 2035   5.892   4.071   2.507  0.0912  2.8421 -2.1569
   16SAPS   C24 2036   6.021   4.045   2.701  0.8832 -0.4442  0.3405
   16SAPS   H4R 2037   6.115   4.095   2.734  0.2041  1.3259 -0.2626
   16SAPS   H4S 2038   6.054   3.942   2.675  1.3509  0.0553 -1.1859
   16SAPS   C25 2039   5.917   4.059   2.803  0.3710 -0.0166 -0.5098
   16SAPS   H5R 2040   5.814   4.029   2.778  0.2270  1.9295 -2.5663
   16SAPS   C26 2041   5.928   4.134   2.915  0.3981 -0.1086 -0.4843
   16SAPS   H6R 2042   5.842   4.121   2.983  0.2544  1.9750 -0.1825
   16SAPS   C27 2043   6.054   4.196   2.971 -0.2599 -0.2126 -0.4773
   16SAPS   H7R 2044   6.099   4.257   2.890 -1.1884  0.8563 -0.2061
   16SAPS   H7S 2045   6.122   4.109   2.984 -0.0559  0.0494  0.2353
   16SAPS   C28 2046   6.028   4.285   3.091 -1.3167  0.1370  0.2242
   16SAPS   H8R 2047   6.037   4.394   3.076  0.8208 -0.2625 -1.9238
   16SAPS   C29 2048   5.997   4.237   3.210 -0.0516  0.6193  0.0646
   16SAPS   H9R 2049   5.971   4.309   3.289 -0.1676  1.9483 -1.1474
   16SAPS  C210 2050   6.003   4.093   3.267 -0.8068 -0.3606  0.1844
   16SAPS  H10R 2051   6.003   4.010   3.193  2.0691  1.3505 -1.9480
   16SAPS  H10S 2052   5.905   4.072   3.315 -0.7090  0.3916  0.7204
   16SAPS  C211 2053   6.128   4.074   3.350  0.5237 -0.0154  0.3254
   16SAPS  H11R 2054   6.217   4.064   3.285 -1.0808  2.1258 -2.4274
   16SAPS  C212 2055   6.142   4.090   3.483  0.2631  0.0823 -0.3788
   16SAPS  H12R 2056   6.241   4.081   3.530  0.2587 -0.2748 -0.4332
   16SAPS  C213 2057   6.032   4.141   3.573  0.4102 -0.3375  0.1916
   16SAPS  H13R 2058   5.961   4.204   3.515  0.2199 -0.2070  0.5574
   16SAPS  H13S 2059   6.082   4.205   3.649 -1.4881  2.8556 -1.0175
   16SAPS  C214 2060   5.961   4.021   3.624  0.1236  0.9509  0.2127
   16SAPS  H14R 2061   5.917   3.959   3.545 -0.2486 -0.1372  1.2523
   16SAPS  C215 2062   5.917   3.995   3.746 -0.1182 -0.3214 -0.0734
   16SAPS  H15R 2063   5.861   3.903   3.766 -1.2312  0.5606  1.0396
   16SAPS  C216 2064   5.934   4.085   3.861  0.1216 -0.5853 -0.8764
   16SAPS  H16R 2065   5.836   4.132   3.881  1.2888  2.2876 -1.3572
   16SAPS  H16S 2066   5.991   4.179   3.848 -0.1670 -0.0878  1.1658
   16SAPS  C217 2067   5.974   4.010   3.992  0.4857  0.1948 -0.1754
   16SAPS  H17R 2068   6.067   3.957   3.963  1.3512  2.4382 -1.7410
   16SAPS  H17S 2069   5.898   3.937   4.026  2.2400 -1.0349  1.2754
   16SAPS  C218 2070   5.998   4.102   4.112 -0.3012 -0.1265 -0.1513
   16SAPS  H18R 2071   6.080   4.172   4.083  0.0943 -0.2386  0.6756
   16SAPS  H18S 2072   6.023   4.040   4.200 -1.3719 -2.0868 -1.1548
   16SAPS  C219 2073   5.871   4.184   4.149 -0.2700 -0.6052 -0.6603
   16SAPS  H19R 2074   5.829   4.246   4.066  0.7937  0.0316 -0.7383
   16SAPS  H19S 2075   5.909   4.255   4.225 -1.9360 -1.3118  0.9300
   16SAPS  C220 2076   5.770   4.107   4.218  0.3773 -0.1517  0.2761
   16SAPS  H20R 2077   5.702   4.073   4.137 -1.4312  1.8428  0.8515
   16SAPS  H20S 2078   5.716   4.178   4.285  1.8437  0.4151  0.9083
   16SAPS  H20T 2079   5.823   4.030   4.278 -0.4496 -1.2140 -0.3190
   16SAPS   C33 2080   5.869   4.608   2.860 -1.3252  0.6109 -0.0078
   16SAPS   H3X 2081   5.845   4.500   2.845  2.0326 -0.3533  0.8091
   16SAPS   H3Y 2082   5.766   4.650   2.853 -2.3256 -1.8125 -1.1769
   16SAPS   C34 2083   5.937   4.611   2.995  0.6422 -0.3153 -0.8529
   16SAPS   H4X 2084   6.040   4.573   2.981  0.4520 -0.7549 -1.0787
   16SAPS   H4Y 2085   5.896   4.541   3.070  0.0335  1.2791  0.3724
   16SAPS   C35 2086   5.946   4.747   3.056  0.5869 -0.3777 -0.1008
   16SAPS   H5X 2087   5.844   4.791   3.053  0.1374 -0.6865  3.9700
   16SAPS   H5Y 2088   6.014   4.820   3.007  1.2742 -1.8203 -1.3445
   16SAPS   C36 2089   5.988   4.735   3.208 -0.0723  0.0948  0.1995
   16SAPS   H6X 2090   6.098   4.719   3.213  0.1788  1.8877  1.1796
   16SAPS   H6Y 2091   5.932   4.649   3.250  0.8471 -0.2389  0.7676
   16SAPS   C37 2092   5.952   4.864   3.285  0.7469  0.5577 -0.7223
   16SAPS   H7X 2093   5.841   4.863   3.277  0.6792  0.5266  0.1250
   16SAPS   H7Y 2094   5.991   4.955   3.234 -1.5355  1.2986 -1.2801
   16SAPS   C38 2095   6.012   4.866   3.427  0.3469 -0.3601 -0.0240
   16SAPS   H8X 2096   6.120   4.883   3.411  0.3407  0.5058  0.7565
   16SAPS   H8Y 2097   5.988   4.775   3.486 -2.1931 -1.1310 -2.0328
   16SAPS   C39 2098   5.961   4.980   3.509  0.1214 -0.1438  0.3604
   16SAPS   H9X 2099   5.850   4.979   3.516  0.2353 -0.3692  2.7938
   16SAPS   H9Y 2100   5.990   5.072   3.454  1.0816 -0.5959  0.0784
   16SAPS  C310 2101   6.021   4.980   3.647  0.1837 -0.1563 -0.0083
   16SAPS  H10X 2102   6.129   5.005   3.641 -0.1357  1.1229 -0.7569
   16SAPS  H10Y 2103   6.020   4.876   3.689 -3.0167 -0.4433 -0.5190
   16SAPS  C311 2104   5.941   5.054   3.754  0.2994  0.1607 -0.4628
   16SAPS  H11X 2105   5.832   5.058   3.737  0.2322  2.7359  0.2257
   16SAPS  H11Y 2106   5.961   5.161   3.736 -0.1110  0.6762  1.8413
   16SAPS  C312 2107   5.979   5.011   3.896 -0.1618  0.1664 -0.4519
   16SAPS  H12X 2108   6.089   5.018   3.912 -0.4764  1.4758  1.4767
   16SAPS  H12Y 2109   5.961   4.902   3.909 -0.9538  0.2533 -0.7632
   16SAPS  C313 2110   5.904   5.088   4.004  0.4931  0.1909  0.0939
   16SAPS  H13X 2111   5.795   5.073   3.989  0.4181  1.1453 -0.3813
   16SAPS  H13Y 2112   5.919   5.198   4.005  1.2230  0.1027 -0.4233
   16SAPS  C314 2113   5.925   5.029   4.141  0.4013 -0.1073 -0.1404
   16SAPS  H14X 2114   6.030   5.032   4.177  0.5167  1.4200 -0.5239
   16SAPS  H14Y 2115   5.915   4.920   4.122  0.8551  0.2181 -2.5805
   16SAPS  C315 2116   5.823   5.062   4.251 -0.2659  0.8239  0.3049
   16SAPS  H15X 2117   5.851   4.988   4.329 -1.6712 -2.0999 -1.7783
   16SAPS  H15Y 2118   5.718   5.049   4.218  0.0906 -1.2706 -0.1558
   16SAPS  C316 2119   5.853   5.189   4.328 -0.0269 -0.0402  0.2402
   16SAPS  H16X 2120   5.847   5.270   4.253 -1.5988  0.0576  0.4521
   16SAPS  H16Y 2121   5.953   5.180   4.376  0.3464  0.1664 -0.4691
   16SAPS  C317 2122   5.756   5.224   4.442  0.0910  0.5851 -0.0357
   16SAPS  H17X 2123   5.783   5.320   4.490 -2.5819  1.8387 -0.8343
   16SAPS  H17Y 2124   5.751   5.147   4.522  2.6213 -1.5575 -1.7789
   16SAPS  C318 2125   5.607   5.255   4.398  0.1744 -0.1845 -0.1385
   16SAPS  H18X 2126   5.602   5.314   4.304  0.0236 -0.9852 -0.6388
   16SAPS  H18Y 2127   5.555   5.314   4.477  0.4673 -0.0930 -0.0132
   16SAPS  H18Z 2128   5.550   5.161   4.383  1.1462 -0.6634 -0.9096
   17SAPS     N 2129   2.910   3.814   1.771 -0.2550  0.1315 -0.1231
   17SAPS   HN1 2130   2.811   3.819   1.740  0.4967 -0.4309 -2.9272
   17SAPS   HN2 2131   2.971   3.897   1.760  1.4941 -0.8102  1.7561
   17SAPS   HN3 2132   2.954   3.738   1.714  1.2874  1.3907 -0.6948
   17SAPS   C12 2133   2.907   3.764   1.915  0.9506  0.3355 -0.2919
   17SAPS  H12A 2134   2.845   3.830   1.974 -0.0296 -1.1378  0.4025
   17SAPS   C13 2135   2.852   3.612   1.912 -0.5148 -0.7727  0.0691
   17SAPS  O13A 2136   2.797   3.561   1.810 -0.2760 -0.6042  0.0992
   17SAPS  O13B 2137   2.847   3.553   2.021 -0.2542 -0.5681 -0.6175
   17SAPS   C11 2138   3.050   3.748   1.977 -0.1876  0.6028  0.0606
   17SAPS  H11A 2139   3.111   3.681   1.914 -0.4915 -0.5115  0.9213
   17SAPS  H11B 2140   3.053   3.700   2.077  1.6550 -1.0650 -0.7221
   17SAPS     P 2141   3.275   3.887   1.965  0.4369 -0.2948 -0.2881
   17SAPS   O13 2142   3.313   3.849   1.826 -0.1878 -0.7165  0.5881
   17SAPS   O14 2143   3.321   4.020   2.004 -0.1359 -0.5236  0.1505
   17SAPS   O12 2144   3.121   3.877   1.974  0.2393  0.2918  0.2626
   17SAPS   O11 2145   3.338   3.784   2.059 -0.3018 -0.6168 -0.3418
   17SAPS    C1 2146   3.326   3.793   2.204  0.0599 -0.0106 -0.0884
   17SAPS    HA 2147   3.257   3.871   2.243  1.2494  0.5236  1.0164
   17SAPS    HB 2148   3.290   3.694   2.239 -0.0890  0.5882  1.5074
   17SAPS    C2 2149   3.466   3.800   2.277 -0.2714  0.3914  0.2537
   17SAPS    HS 2150   3.523   3.735   2.208  0.4098  0.0892  1.0868
   17SAPS   O21 2151   3.456   3.743   2.407  0.0666  0.3337 -0.3087
   17SAPS   C21 2152   3.574   3.690   2.448  0.6139  0.8469 -0.4762
   17SAPS   O22 2153   3.671   3.688   2.380 -0.7293  0.0989  1.0028
   17SAPS   C22 2154   3.561   3.630   2.587  0.3244 -0.6089 -0.0350
   17SAPS   H2R 2155   3.480   3.553   2.592  2.4471 -2.9995 -0.3721
   17SAPS   H2S 2156   3.650   3.564   2.597 -0.2050 -1.3747 -0.2096
   17SAPS    C3 2157   3.531   3.942   2.264  0.2403  0.4390  0.1005
   17SAPS    HX 2158   3.544   3.958   2.155  0.4574  0.1162  0.0774
   17SAPS    HY 2159   3.630   3.947   2.315  0.1104 -2.3452  0.7980
   17SAPS   O31 2160   3.433   4.030   2.319  0.5521  0.6601  0.0743
   17SAPS   C31 2161   3.469   4.129   2.391  0.0613  0.0380  0.2425
   17SAPS   O32 2162   3.584   4.160   2.410  0.1527 -0.1668  0.1265
   17SAPS   C32 2163   3.345   4.198   2.439 -0.1023  0.5794 -0.4735
   17SAPS   H2X 2164   3.268   4.197   2.359 -1.6561 -2.9507  0.8402
   17SAPS   H2Y 2165   3.357   4.304   2.470 -1.0803  0.5426  0.0496
   17SAPS   C23 2166   3.559   3.724   2.701  0.1383 -0.0619 -0.1783
   17SAPS   H3R 2167   3.462   3.779   2.704  0.7353  1.2692 -2.6047
   17SAPS   H3S 2168   3.640   3.801   2.703  0.4994 -0.4099 -1.1024
   17SAPS   C24 2169   3.569   3.654   2.838 -0.1416 -0.3297  0.3335
   17SAPS   H4R 2170   3.673   3.618   2.849  0.6271  1.0665 -1.7044
   17SAPS   H4S 2171   3.501   3.569   2.860  0.2071 -0.2678  1.7788
   17SAPS   C25 2172   3.533   3.741   2.959  0.3460 -0.4103 -0.1057
   17SAPS   H5R 2173   3.426   3.762   2.977  0.8706  2.7188 -0.1543
   17SAPS   C26 2174   3.621   3.801   3.038 -0.3060  0.7656 -0.6313
   17SAPS   H6R 2175   3.589   3.845   3.134  1.7974  0.5344  0.2192
   17SAPS   C27 2176   3.771   3.801   3.034 -0.1353  0.1493 -0.7998
   17SAPS   H7R 2177   3.799   3.891   3.092  0.9802 -0.5536 -0.2126
   17SAPS   H7S 2178   3.820   3.832   2.939  2.0177 -2.2495 -0.5633
   17SAPS   C28 2179   3.851   3.684   3.090 -0.6803  0.0226  0.6544
   17SAPS   H8R 2180   3.847   3.605   3.014 -1.1959  0.2287  0.4660
   17SAPS   C29 2181   3.917   3.667   3.207 -0.4455  0.3902  0.7289
   17SAPS   H9R 2182   3.957   3.567   3.232  1.2798  1.2845  1.7522
   17SAPS  C210 2183   3.921   3.767   3.317  0.2464 -0.6325  0.0291
   17SAPS  H10R 2184   3.889   3.866   3.277  0.3251 -0.9543 -0.8349
   17SAPS  H10S 2185   4.022   3.783   3.361 -0.6664 -0.8088  2.3587
   17SAPS  C211 2186   3.824   3.744   3.432 -0.6738  0.2664 -0.5658
   17SAPS  H11R 2187   3.726   3.706   3.401 -1.6678  0.4817  2.0880
   17SAPS  C212 2188   3.845   3.746   3.567  0.4682 -0.7800 -0.0700
   17SAPS  H12R 2189   3.754   3.736   3.627  0.5016  0.4545  0.2057
   17SAPS  C213 2190   3.972   3.769   3.640  0.5793  0.2973 -0.1325
   17SAPS  H13R 2191   3.941   3.830   3.727 -0.1545  2.5174 -1.8672
   17SAPS  H13S 2192   4.032   3.843   3.582  0.1572  1.6671  1.1084
   17SAPS  C214 2193   4.056   3.641   3.651 -0.1389 -0.5242 -1.0272
   17SAPS  H14R 2194   4.073   3.594   3.553 -0.9315 -1.7354 -0.5997
   17SAPS  C215 2195   4.087   3.572   3.763 -0.1424 -0.3793 -0.4529
   17SAPS  H15R 2196   4.157   3.487   3.767  0.4364  0.0808 -0.5920
   17SAPS  C216 2197   4.043   3.604   3.899 -0.4919  0.7486 -0.1964
   17SAPS  H16R 2198   3.968   3.524   3.914 -0.9290  1.2147  0.1277
   17SAPS  H16S 2199   4.001   3.707   3.906 -2.4057  0.0227 -0.4341
   17SAPS  C217 2200   4.153   3.584   4.005 -0.4207  0.1919  0.2511
   17SAPS  H17R 2201   4.117   3.619   4.104  0.7213 -1.1783  1.1817
   17SAPS  H17S 2202   4.244   3.640   3.976  1.2455 -3.1583 -1.4695
   17SAPS  C218 2203   4.215   3.443   4.025  0.8802  0.7773  0.7118
   17SAPS  H18R 2204   4.278   3.421   3.936 -1.3498 -1.8215 -0.3789
   17SAPS  H18S 2205   4.128   3.375   4.022  1.3545  0.1991 -1.8183
   17SAPS  C219 2206   4.303   3.429   4.155  0.0296  0.4088  0.3540
   17SAPS  H19R 2207   4.251   3.473   4.243  1.4167  1.9054  0.4762
   17SAPS  H19S 2208   4.396   3.490   4.148  0.7884 -0.5464  1.6201
   17SAPS  C220 2209   4.337   3.288   4.199  0.5221  0.2887 -1.1781
   17SAPS  H20R 2210   4.362   3.222   4.114 -2.0974 -1.9148 -0.3898
   17SAPS  H20S 2211   4.249   3.243   4.251  1.5943 -0.7179 -0.1884
   17SAPS  H20T 2212   4.413   3.302   4.278 -1.4301 -2.7309  1.4861
   17SAPS   C33 2213   3.291   4.108   2.560 -0.2355 -0.1519  0.2635
   17SAPS   H3X 2214   3.277   4.007   2.515  0.6308  0.9458 -2.7052
   17SAPS   H3Y 2215   3.188   4.144   2.581  0.3983  1.5982  0.5362
   17SAPS   C34 2216   3.375   4.110   2.695 -0.1357 -0.1490  0.4848
   17SAPS   H4X 2217   3.397   4.215   2.724  1.0824 -0.4784  0.7807
   17SAPS   H4Y 2218   3.471   4.055   2.688  0.0883  0.2929 -0.0698
   17SAPS   C35 2219   3.302   4.042   2.811 -0.5301 -0.3375 -0.5851
   17SAPS   H5X 2220   3.306   3.932   2.791 -1.2272 -0.1615 -1.7190
   17SAPS   H5Y 2221   3.195   4.068   2.806 -1.2465 -3.0241 -1.0153
   17SAPS   C36 2222   3.368   4.086   2.945 -0.1129 -0.0427 -0.5287
   17SAPS   H6X 2223   3.378   4.197   2.946 -1.0293  0.0789 -1.8559
   17SAPS   H6Y 2224   3.467   4.049   2.979  0.2801  1.4964  0.0698
   17SAPS   C37 2225   3.267   4.056   3.063 -0.5166  0.1889 -0.1444
   17SAPS   H7X 2226   3.252   3.946   3.062 -1.5759  0.3037 -1.7169
   17SAPS   H7Y 2227   3.168   4.093   3.028 -0.0624  0.6675 -0.9630
   17SAPS   C38 2228   3.293   4.100   3.209 -0.3596 -0.5724 -0.6366
   17SAPS   H8X 2229   3.200   4.123   3.264  0.9224  0.8261  1.0794
   17SAPS   H8Y 2230   3.349   4.196   3.211 -0.8033 -0.3163 -0.3250
   17SAPS   C39 2231   3.365   3.989   3.292  0.1100  0.2727 -0.5910
   17SAPS   H9X 2232   3.467   3.959   3.261  0.7732 -0.1684  1.8559
   17SAPS   H9Y 2233   3.302   3.897   3.298 -1.2731  1.2740  3.7379
   17SAPS  C310 2234   3.394   4.019   3.439  0.2171 -0.4529 -0.4080
   17SAPS  H10X 2235   3.306   4.065   3.489 -0.0218  1.3202 -2.3543
   17SAPS  H10Y 2236   3.473   4.096   3.455 -0.5566  0.1672  0.5716
   17SAPS  C311 2237   3.432   3.898   3.521 -0.1553  0.7864  0.0680
   17SAPS  H11X 2238   3.525   3.864   3.471 -0.1524  2.1995 -0.9618
   17SAPS  H11Y 2239   3.352   3.822   3.511 -0.0019  0.1702  2.6251
   17SAPS  C312 2240   3.462   3.940   3.663  0.1339 -0.1945 -0.2392
   17SAPS  H12X 2241   3.386   4.007   3.708  3.1556  3.7242 -0.4782
   17SAPS  H12Y 2242   3.555   4.000   3.675 -0.8566  1.8456 -2.1349
   17SAPS  C313 2243   3.449   3.821   3.757 -0.1608 -0.3222 -0.0418
   17SAPS  H13X 2244   3.525   3.745   3.731 -0.3513 -0.2267 -0.8872
   17SAPS  H13Y 2245   3.351   3.768   3.746  0.1021 -1.0441  0.8844
   17SAPS  C314 2246   3.473   3.862   3.904  0.6530  0.1071  0.0496
   17SAPS  H14X 2247   3.386   3.924   3.936  0.5341 -0.7780  1.5035
   17SAPS  H14Y 2248   3.560   3.932   3.905  1.2985 -0.6942  0.2834
   17SAPS  C315 2249   3.496   3.750   3.995  0.3358  0.5276 -0.0981
   17SAPS  H15X 2250   3.537   3.662   3.941  0.2020  1.8243 -2.4720
   17SAPS  H15Y 2251   3.395   3.734   4.037  0.6170  3.2527  1.8866
   17SAPS  C316 2252   3.592   3.788   4.112  0.7987  0.7890  0.3213
   17SAPS  H16X 2253   3.700   3.793   4.086  0.8844 -0.5786  0.3326
   17SAPS  H16Y 2254   3.583   3.709   4.190 -1.8529 -0.5775 -1.2299
   17SAPS  C317 2255   3.554   3.923   4.178 -0.1562 -0.4474 -0.3410
   17SAPS  H17X 2256   3.446   3.930   4.205 -0.4549  0.1782 -1.5891
   17SAPS  H17Y 2257   3.575   4.008   4.109 -0.0002 -1.5031 -1.6386
   17SAPS  C318 2258   3.634   3.941   4.311 -0.2277  0.0277  0.0367
   17SAPS  H18X 2259   3.643   3.842   4.360  2.7197 -0.0098 -0.3495
   17SAPS  H18Y 2260   3.582   4.020   4.370  0.1801 -0.3988  0.9898
   17SAPS  H18Z 2261   3.738   3.973   4.287 -0.2003 -0.0939 -0.0054
   18SAPS     N 2262   6.662   1.365   2.093  0.7403 -0.1417  0.1106
   18SAPS   HN1 2263   6.729   1.406   2.161  0.4764  0.2516  0.1375
   18SAPS   HN2 2264   6.673   1.412   2.001 -0.8418 -2.1900 -1.2035
   18SAPS   HN3 2265   6.563   1.385   2.119  0.5965 -1.5591  0.7515
   18SAPS   C12 2266   6.680   1.221   2.079 -0.1062 -0.2535 -1.0679
   18SAPS  H12A 2267   6.635   1.190   1.985 -1.3519  1.2289 -1.0011
   18SAPS   C13 2268   6.822   1.168   2.083  0.1227 -0.2631 -1.1915
   18SAPS  O13A 2269   6.911   1.251   2.111 -0.4021  0.2004  0.4741
   18SAPS  O13B 2270   6.843   1.046   2.090 -0.1665  0.3503 -0.3022
   18SAPS   C11 2271   6.596   1.153   2.183 -0.5618  0.3782 -0.1282
   18SAPS  H11A 2272   6.622   1.196   2.282 -2.6092 -1.2415  1.1922
   18SAPS  H11B 2273   6.629   1.048   2.180  0.1206  0.5630  0.6994
   18SAPS     P 2274   6.348   1.059   2.202 -0.5083  0.0716 -0.1754
   18SAPS   O13 2275   6.220   1.110   2.142  0.5572  1.0019  0.6762
   18SAPS   O14 2276   6.391   0.927   2.164  0.1369  0.2800  0.4008
   18SAPS   O12 2277   6.452   1.170   2.161 -0.0049 -0.2826  0.5186
   18SAPS   O11 2278   6.370   1.070   2.363 -0.4519 -0.1838 -0.1994
   18SAPS    C1 2279   6.378   1.196   2.430  0.3129  0.0590 -0.2556
   18SAPS    HA 2280   6.472   1.202   2.489  0.4207 -1.0013 -0.3060
   18SAPS    HB 2281   6.396   1.284   2.365  0.1818 -0.4982 -1.0564
   18SAPS    C2 2282   6.266   1.228   2.533 -0.0084  0.4630  0.4152
   18SAPS    HS 2283   6.306   1.319   2.582 -1.0697  0.2756  1.6827
   18SAPS   O21 2284   6.248   1.118   2.618  0.1954 -0.1394 -0.2876
   18SAPS   C21 2285   6.316   1.136   2.735 -0.0634  0.3079  0.9857
   18SAPS   O22 2286   6.368   1.240   2.771 -0.3381 -0.2913 -0.3867
   18SAPS   C22 2287   6.315   1.009   2.825  0.2650 -0.1857 -0.4668
   18SAPS   H2R 2288   6.209   0.979   2.840  0.9983 -1.7204  2.3880
   18SAPS   H2S 2289   6.353   0.931   2.755 -2.1358  0.2431 -2.3635
   18SAPS    C3 2290   6.138   1.269   2.447  0.1637 -0.2182  0.7932
   18SAPS    HX 2291   6.118   1.181   2.383 -0.1168  1.3044 -1.3277
   18SAPS    HY 2292   6.160   1.363   2.391  0.3483 -1.7276 -1.8046
   18SAPS   O31 2293   6.027   1.287   2.535 -0.4473 -0.4210 -0.4811
   18SAPS   C31 2294   6.030   1.409   2.588 -0.4003  0.9631  0.3808
   18SAPS   O32 2295   6.114   1.491   2.582  0.0927  0.3698 -0.2864
   18SAPS   C32 2296   5.894   1.428   2.653 -0.2836 -0.9734 -0.2350
   18SAPS   H2X 2297   5.846   1.335   2.690  0.4379 -1.3499 -0.2377
   18SAPS   H2Y 2298   5.827   1.485   2.585 -0.8075 -0.5084  0.6417
   18SAPS   C23 2299   6.408   1.009   2.950 -0.2543  1.0387 -0.1258
   18SAPS   H3R 2300   6.469   1.101   2.961  0.0914  0.6097  1.9269
   18SAPS   H3S 2301   6.481   0.926   2.959 -0.0938  1.1656 -0.2512
   18SAPS   C24 2302   6.336   1.008   3.082 -0.1559 -0.4254 -0.5941
   18SAPS   H4R 2303   6.414   0.990   3.159  0.3304 -0.9979 -1.2125
   18SAPS   H4S 2304   6.261   0.927   3.074 -1.3312  0.6338 -0.5759
   18SAPS   C25 2305   6.255   1.136   3.115  0.1452  0.1028  0.6055
   18SAPS   H5R 2306   6.227   1.202   3.031 -0.7536 -0.3292  0.5538
   18SAPS   C26 2307   6.222   1.181   3.236 -0.0369 -0.0532  0.1151
   18SAPS   H6R 2308   6.175   1.280   3.249  1.1663  1.0745 -3.1949
   18SAPS   C27 2309   6.253   1.097   3.359  0.2131 -0.4504  0.3718
   18SAPS   H7R 2310   6.335   1.151   3.410 -1.0649  1.9099  0.0987
   18SAPS   H7S 2311   6.287   0.993   3.345 -2.0530 -1.4659  1.8247
   18SAPS   C28 2312   6.133   1.105   3.455 -0.2751  0.7706 -0.0527
   18SAPS   H8R 2313   6.117   1.198   3.511  0.9579  1.3637 -0.6516
   18SAPS   C29 2314   6.051   1.004   3.478  0.6283  0.1348 -0.3419
   18SAPS   H9R 2315   5.974   1.020   3.555 -0.3167  2.1883 -1.6411
   18SAPS  C210 2316   6.049   0.861   3.430  0.7002  0.3821  0.2590
   18SAPS  H10R 2317   6.088   0.796   3.511  0.3874  0.0693  0.1593
   18SAPS  H10S 2318   6.112   0.839   3.342 -0.2358  1.1843 -0.6449
   18SAPS  C211 2319   5.911   0.811   3.409  0.4585  0.4131 -0.3163
   18SAPS  H11R 2320   5.836   0.826   3.488  0.0057 -1.2323 -0.3871
   18SAPS  C212 2321   5.872   0.717   3.321 -0.3267  0.1814  0.5671
   18SAPS  H12R 2322   5.767   0.688   3.309 -0.5877  0.6694  1.5001
   18SAPS  C213 2323   5.961   0.654   3.212 -0.0686 -0.4012  0.4730
   18SAPS  H13R 2324   5.935   0.547   3.196  1.5423 -0.8721  0.7903
   18SAPS  H13S 2325   6.068   0.658   3.242 -0.2932  1.5645  1.1534
   18SAPS  C214 2326   5.946   0.731   3.083  0.1069 -0.0168 -0.7726
   18SAPS  H14R 2327   5.874   0.813   3.097 -0.6586 -0.3186 -2.6585
   18SAPS  C215 2328   6.002   0.704   2.965 -0.1637 -0.3300  0.0855
   18SAPS  H15R 2329   5.982   0.774   2.882  2.3960  0.6578  0.2098
   18SAPS  C216 2330   6.099   0.591   2.942 -0.8103  0.0852  0.2740
   18SAPS  H16R 2331   6.093   0.512   3.021 -2.1669  0.1782  0.2823
   18SAPS  H16S 2332   6.196   0.645   2.941 -0.8280  0.1155 -1.0362
   18SAPS  C217 2333   6.087   0.529   2.804  0.3284 -0.7438  0.3980
   18SAPS  H17R 2334   6.184   0.482   2.777  0.7429 -0.3795  1.2208
   18SAPS  H17S 2335   6.078   0.606   2.724 -0.3589 -0.1918  1.0008
   18SAPS  C218 2336   5.985   0.419   2.788  0.3429  0.6339 -0.8884
   18SAPS  H18R 2337   5.907   0.432   2.867 -0.7451 -1.4688 -1.5354
   18SAPS  H18S 2338   6.031   0.321   2.813 -0.6627  0.1874 -0.7185
   18SAPS  C219 2339   5.925   0.413   2.652 -0.4130  0.1542  0.1251
   18SAPS  H19R 2340   5.878   0.513   2.640  1.7214  1.1858 -0.2503
   18SAPS  H19S 2341   5.845   0.336   2.655 -0.2423 -0.0007  1.8541
   18SAPS  C220 2342   6.023   0.393   2.528 -0.4654  0.1002  0.6081
   18SAPS  H20R 2343   6.094   0.478   2.541  1.0201 -1.2521  1.6953
   18SAPS  H20S 2344   5.958   0.397   2.438  0.3606  0.4645  0.0094
   18SAPS  H20T 2345   6.074   0.295   2.525  0.0909  0.4015 -0.0924
   18SAPS   C33 2346   5.901   1.520   2.782  0.5693 -0.0391  0.2533
   18SAPS   H3X 2347   5.808   1.574   2.809 -1.5676 -2.1585 -2.2197
   18SAPS   H3Y 2348   5.965   1.609   2.763 -0.8314  1.0185  0.3682
   18SAPS   C34 2349   5.941   1.439   2.911 -0.4439 -0.0904 -0.7129
   18SAPS   H4X 2350   6.046   1.406   2.895 -1.3061 -1.9461 -3.1307
   18SAPS   H4Y 2351   5.876   1.350   2.926  0.6155 -1.2092 -2.4601
   18SAPS   C35 2352   5.937   1.531   3.031 -0.6744 -0.2855 -0.5121
   18SAPS   H5X 2353   5.848   1.597   3.024  0.9071  1.9948 -0.0255
   18SAPS   H5Y 2354   6.022   1.603   3.029  0.0354 -0.9955  1.3761
   18SAPS   C36 2355   5.928   1.458   3.166  0.2126 -0.0382 -0.5900
   18SAPS   H6X 2356   6.011   1.386   3.183 -1.6807 -2.1724  0.1273
   18SAPS   H6Y 2357   5.835   1.398   3.161 -0.9368  1.7297 -1.3981
   18SAPS   C37 2358   5.915   1.558   3.288 -1.1457 -0.2888  0.3286
   18SAPS   H7X 2359   5.810   1.593   3.289 -1.4275 -1.0157  3.1187
   18SAPS   H7Y 2360   5.970   1.654   3.280  2.3688 -2.0773  0.9678
   18SAPS   C38 2361   5.954   1.512   3.424 -0.0632 -0.6549  0.3354
   18SAPS   H8X 2362   6.064   1.500   3.417  0.0658 -0.3053  1.5258
   18SAPS   H8Y 2363   5.912   1.411   3.443 -0.8817 -0.3557  0.1555
   18SAPS   C39 2364   5.908   1.613   3.533 -0.3333  0.6255 -0.0290
   18SAPS   H9X 2365   5.799   1.633   3.519 -0.6735 -1.0448  0.0112
   18SAPS   H9Y 2366   5.955   1.713   3.518  0.3173  0.5160  1.1778
   18SAPS  C310 2367   5.921   1.578   3.682 -0.6556  0.3993 -0.0593
   18SAPS  H10X 2368   6.031   1.582   3.696 -0.5650 -0.7364 -0.3780
   18SAPS  H10Y 2369   5.881   1.475   3.696 -1.8458  0.9123  0.4781
   18SAPS  C311 2370   5.838   1.670   3.773 -0.8411  0.0053 -0.1660
   18SAPS  H11X 2371   5.736   1.660   3.728 -0.1563  0.6814 -1.9891
   18SAPS  H11Y 2372   5.876   1.774   3.776  0.4302 -0.4582  1.8542
   18SAPS  C312 2373   5.824   1.625   3.918 -0.2535  0.3152 -0.1548
   18SAPS  H12X 2374   5.916   1.634   3.979  1.0031 -2.4936 -1.4781
   18SAPS  H12Y 2375   5.808   1.515   3.927  1.7670  0.0414  0.5123
   18SAPS  C313 2376   5.713   1.709   3.986  0.0618 -1.1970 -0.5408
   18SAPS  H13X 2377   5.614   1.666   3.959 -0.0066  0.4649 -3.3239
   18SAPS  H13Y 2378   5.721   1.815   3.952 -2.3668 -0.9946 -0.6670
   18SAPS  C314 2379   5.731   1.705   4.138 -0.6103  0.2730 -0.3073
   18SAPS  H14X 2380   5.829   1.754   4.155  0.8806 -2.1572 -1.4375
   18SAPS  H14Y 2381   5.739   1.596   4.157  1.3853 -0.6710 -5.2371
   18SAPS  C315 2382   5.616   1.766   4.221 -0.1222 -0.5213  0.1831
   18SAPS  H15X 2383   5.522   1.707   4.224 -0.5674  0.1755  0.1432
   18SAPS  H15Y 2384   5.598   1.852   4.153  0.0385 -0.1256  0.6417
   18SAPS  C316 2385   5.669   1.817   4.354 -0.5138 -0.5744 -0.9815
   18SAPS  H16X 2386   5.756   1.882   4.334 -0.9818  0.3967  0.0399
   18SAPS  H16Y 2387   5.725   1.737   4.408  0.6582  1.1112  0.3752
   18SAPS  C317 2388   5.562   1.878   4.455  0.3684 -0.0751 -0.9370
   18SAPS  H17X 2389   5.495   1.940   4.391 -0.1121  1.2412  0.7648
   18SAPS  H17Y 2390   5.613   1.941   4.530 -4.6738  1.4225  1.6792
   18SAPS  C318 2391   5.493   1.759   4.525 -0.0140 -1.2369 -0.0079
   18SAPS  H18X 2392   5.422   1.707   4.457 -0.2548  0.7556 -1.3570
   18SAPS  H18Y 2393   5.429   1.805   4.603 -2.6513  0.2727 -2.8580
   18SAPS  H18Z 2394   5.565   1.685   4.567  0.6400  0.9245  3.0550
   19SAPS     N 2395   5.057   5.568   2.193  0.7240 -0.3040  0.6238
   19SAPS   HN1 2396   4.991   5.620   2.254  1.8678  1.5560  0.3670
   19SAPS   HN2 2397   5.008   5.494   2.139  0.7109  0.3324 -0.2623
   19SAPS   HN3 2398   5.126   5.517   2.252 -0.9309 -2.2004  1.0191
   19SAPS   C12 2399   5.110   5.670   2.104 -0.7831  0.6587  0.2283
   19SAPS  H12A 2400   5.168   5.611   2.035 -2.2815 -2.4856  1.4426
   19SAPS   C13 2401   5.006   5.737   2.010  0.1312 -0.0519 -0.2692
   19SAPS  O13A 2402   4.885   5.703   2.011 -0.0969  0.3804  0.1360
   19SAPS  O13B 2403   5.051   5.828   1.927 -0.5911 -0.7655  0.8082
   19SAPS   C11 2404   5.201   5.765   2.189  0.3210  0.2230 -0.2048
   19SAPS  H11A 2405   5.144   5.804   2.276  0.9910 -0.6578  0.6522
   19SAPS  H11B 2406   5.229   5.855   2.130 -1.2140  0.0004 -1.3478
   19SAPS     P 2407   5.455   5.735   2.183 -0.0194  0.2224 -0.1473
   19SAPS   O13 2408   5.561   5.669   2.265  0.5437 -0.7781  0.0184
   19SAPS   O14 2409   5.457   5.722   2.035 -0.6452  0.3404  0.2676
   19SAPS   O12 2410   5.314   5.691   2.235  0.1748 -0.3930  0.6128
   19SAPS   O11 2411   5.449   5.889   2.209 -0.4610  0.0566  0.0407
   19SAPS    C1 2412   5.414   5.943   2.342 -0.1362 -0.2323  0.2520
   19SAPS    HA 2413   5.340   6.023   2.321 -0.2923 -0.5729 -0.5320
   19SAPS    HB 2414   5.372   5.867   2.411 -2.7033  0.1988 -0.7547
   19SAPS    C2 2415   5.549   5.982   2.411 -0.1351 -0.5891  0.1245
   19SAPS    HS 2416   5.614   5.891   2.416  0.0502 -0.4262  0.9521
   19SAPS   O21 2417   5.513   6.020   2.543 -0.1081  0.0651  0.2113
   19SAPS   C21 2418   5.618   6.053   2.626  0.3868 -0.5750 -0.6671
   19SAPS   O22 2419   5.734   6.029   2.600 -0.5880  0.3282 -0.4162
   19SAPS   C22 2420   5.559   6.140   2.744 -0.3513  0.0450 -1.0355
   19SAPS   H2R 2421   5.475   6.207   2.714 -0.5305 -0.2302 -1.1530
   19SAPS   H2S 2422   5.516   6.068   2.817 -1.7068  0.9669 -0.8850
   19SAPS    C3 2423   5.628   6.086   2.330  0.6393  0.1085 -0.4304
   19SAPS    HX 2424   5.628   6.041   2.228 -2.0200  0.5022 -0.6662
   19SAPS    HY 2425   5.733   6.077   2.367  0.6817 -1.6324 -0.8770
   19SAPS   O31 2426   5.552   6.208   2.321  0.3762  0.1640 -0.0169
   19SAPS   C31 2427   5.621   6.318   2.322  0.4775  0.2313 -0.4128
   19SAPS   O32 2428   5.744   6.327   2.336  0.3892 -0.3792  0.4759
   19SAPS   C32 2429   5.529   6.435   2.305 -0.3537 -0.5587  0.4800
   19SAPS   H2X 2430   5.461   6.424   2.218  1.0202  1.8178 -1.0198
   19SAPS   H2Y 2431   5.594   6.521   2.280  0.6781 -2.0789 -2.4915
   19SAPS   C23 2432   5.664   6.227   2.811 -0.0033  0.9808  0.2059
   19SAPS   H3R 2433   5.704   6.306   2.743 -0.3353  2.0897  1.2673
   19SAPS   H3S 2434   5.753   6.167   2.836 -0.4476 -1.0846 -2.6583
   19SAPS   C24 2435   5.600   6.291   2.932  0.0694 -0.4387  0.0206
   19SAPS   H4R 2436   5.560   6.215   3.003  1.5814 -2.2343 -0.9575
   19SAPS   H4S 2437   5.515   6.349   2.890 -0.3403 -2.3638 -1.9974
   19SAPS   C25 2438   5.697   6.385   3.006  0.0757 -0.2453 -0.0570
   19SAPS   H5R 2439   5.755   6.455   2.944  0.8831  0.5586  1.5437
   19SAPS   C26 2440   5.724   6.382   3.135  0.0576  0.1831 -0.0438
   19SAPS   H6R 2441   5.801   6.445   3.179 -0.9266  0.1547  1.8317
   19SAPS   C27 2442   5.656   6.291   3.235 -0.4399 -0.1838 -0.0717
   19SAPS   H7R 2443   5.714   6.308   3.328  1.6820  3.9828 -1.9122
   19SAPS   H7S 2444   5.666   6.184   3.207  2.1709 -0.4096  1.4062
   19SAPS   C28 2445   5.511   6.315   3.267 -0.5722  0.0151 -0.6155
   19SAPS   H8R 2446   5.455   6.371   3.190 -0.4276  1.5813  0.3634
   19SAPS   C29 2447   5.449   6.306   3.388  0.3844  0.5718  0.5635
   19SAPS   H9R 2448   5.342   6.332   3.388 -0.6293 -2.9768  1.2080
   19SAPS  C210 2449   5.507   6.250   3.515 -0.2602  0.0454  0.6540
   19SAPS  H10R 2450   5.617   6.232   3.518 -0.4411 -2.3842 -2.4923
   19SAPS  H10S 2451   5.466   6.150   3.540 -1.8729  0.2170 -1.1582
   19SAPS  C211 2452   5.474   6.349   3.632 -0.9633  0.6291 -0.0613
   19SAPS  H11R 2453   5.369   6.376   3.644 -0.8438  0.2062  2.4333
   19SAPS  C212 2454   5.570   6.409   3.709  0.7577  0.3774 -0.3141
   19SAPS  H12R 2455   5.539   6.469   3.796  0.6810  1.2129 -0.9073
   19SAPS  C213 2456   5.720   6.400   3.711  0.2617  0.1398 -0.2037
   19SAPS  H13R 2457   5.759   6.410   3.607  2.0656  1.5849  0.5406
   19SAPS  H13S 2458   5.764   6.305   3.749  0.8096  1.2416  2.1218
   19SAPS  C214 2459   5.787   6.520   3.777 -0.2868  0.2274  0.3648
   19SAPS  H14R 2460   5.828   6.598   3.712  0.1977 -1.6104 -1.6506
   19SAPS  C215 2461   5.784   6.532   3.912 -0.0279 -0.1755 -0.8956
   19SAPS  H15R 2462   5.829   6.621   3.960 -0.0601  0.4022 -1.9073
   19SAPS  C216 2463   5.709   6.440   4.009  0.4033  0.2433 -0.6892
   19SAPS  H16R 2464   5.743   6.334   4.001 -0.8596 -0.2442  0.0502
   19SAPS  H16S 2465   5.600   6.455   3.998  0.4973  0.4143 -1.4304
   19SAPS  C217 2466   5.737   6.481   4.157 -0.3170  0.1846  0.1132
   19SAPS  H17R 2467   5.722   6.590   4.173 -0.5509  0.4254 -1.5745
   19SAPS  H17S 2468   5.845   6.463   4.177  0.1230  2.9529  0.5712
   19SAPS  C218 2469   5.648   6.405   4.261 -0.2906 -0.6352 -0.0522
   19SAPS  H18R 2470   5.690   6.303   4.251  1.6745  0.2570 -1.8643
   19SAPS  H18S 2471   5.549   6.388   4.214 -0.8610 -0.3025  1.0124
   19SAPS  C219 2472   5.654   6.456   4.409 -0.2420  0.2681  0.2817
   19SAPS  H19R 2473   5.761   6.459   4.438 -0.0041 -0.0713 -0.5514
   19SAPS  H19S 2474   5.596   6.385   4.472  1.1067 -0.3363  0.8841
   19SAPS  C220 2475   5.595   6.599   4.424 -0.8882  0.1938 -0.2014
   19SAPS  H20R 2476   5.614   6.622   4.532 -0.6528 -0.4799 -0.0937
   19SAPS  H20S 2477   5.487   6.604   4.402 -0.6503 -0.4273 -1.6084
   19SAPS  H20T 2478   5.650   6.677   4.368 -0.8718  1.5179  1.5472
   19SAPS   C33 2479   5.434   6.474   2.421  0.5306  0.5089 -0.2206
   19SAPS   H3X 2480   5.369   6.385   2.436  0.1412  0.7596 -0.4107
   19SAPS   H3Y 2481   5.372   6.562   2.395  0.6884  1.1482  1.4655
   19SAPS   C34 2482   5.503   6.516   2.553  0.1844 -0.0134  0.3206
   19SAPS   H4X 2483   5.573   6.599   2.529 -2.3729  2.1939  0.1185
   19SAPS   H4Y 2484   5.572   6.432   2.578  0.2535 -0.1786 -0.3962
   19SAPS   C35 2485   5.409   6.539   2.667 -0.1546  0.2580 -0.4738
   19SAPS   H5X 2486   5.369   6.440   2.697  2.1954 -0.9864 -1.1344
   19SAPS   H5Y 2487   5.323   6.597   2.630  0.1147  1.6317  0.9617
   19SAPS   C36 2488   5.479   6.612   2.777 -0.3241 -0.2716  0.1419
   19SAPS   H6X 2489   5.511   6.716   2.757 -1.3221  0.1947  0.9166
   19SAPS   H6Y 2490   5.563   6.547   2.811 -0.4581 -0.5465 -0.0447
   19SAPS   C37 2491   5.386   6.626   2.905  0.0711 -0.5760  0.0455
   19SAPS   H7X 2492   5.357   6.527   2.946 -1.9305 -0.4245 -0.9109
   19SAPS   H7Y 2493   5.292   6.667   2.864 -1.0853 -1.3094  1.8425
   19SAPS   C38 2494   5.448   6.707   3.022  0.0066  0.8299 -0.1497
   19SAPS   H8X 2495   5.473   6.809   2.988  2.0064  0.2881 -0.4047
   19SAPS   H8Y 2496   5.538   6.652   3.054  0.3083  0.1048 -2.0845
   19SAPS   C39 2497   5.353   6.719   3.142  0.0614  0.2933  0.1123
   19SAPS   H9X 2498   5.331   6.621   3.188 -0.7767 -0.0958 -1.0615
   19SAPS   H9Y 2499   5.251   6.759   3.122 -0.4180  0.5087  2.6742
   19SAPS  C310 2500   5.415   6.811   3.249 -0.0397 -0.1123  0.3860
   19SAPS  H10X 2501   5.400   6.919   3.230  0.5582 -0.4075 -1.9676
   19SAPS  H10Y 2502   5.521   6.781   3.233  0.5388  0.1153  3.1819
   19SAPS  C311 2503   5.368   6.780   3.391  0.3017 -0.3957  0.3336
   19SAPS  H11X 2504   5.422   6.844   3.465 -0.0812  0.8021 -0.4056
   19SAPS  H11Y 2505   5.403   6.678   3.417 -0.0730 -0.9845 -1.3950
   19SAPS  C312 2506   5.222   6.807   3.415  0.2274 -0.7767  0.5622
   19SAPS  H12X 2507   5.174   6.871   3.338  0.1845  0.3588  1.5121
   19SAPS  H12Y 2508   5.211   6.856   3.514 -3.7344  0.3141 -0.2402
   19SAPS  C313 2509   5.143   6.678   3.441 -0.3251 -0.2462  0.1700
   19SAPS  H13X 2510   5.194   6.617   3.517 -0.7072 -2.9013 -1.5641
   19SAPS  H13Y 2511   5.143   6.618   3.347 -0.8349 -0.4085  0.2704
   19SAPS  C314 2512   4.998   6.709   3.480  0.3194 -0.3819 -0.6740
   19SAPS  H14X 2513   4.949   6.611   3.460  0.2773 -0.3822 -0.5687
   19SAPS  H14Y 2514   4.981   6.788   3.404 -0.6736 -0.6402 -0.7377
   19SAPS  C315 2515   4.975   6.769   3.624  0.3269 -0.1626  0.2420
   19SAPS  H15X 2516   5.026   6.868   3.628 -0.2375  0.1687 -0.5108
   19SAPS  H15Y 2517   5.018   6.694   3.693  1.0147 -0.0844 -0.0902
   19SAPS  C316 2518   4.825   6.793   3.656  0.3247 -0.5417  0.1545
   19SAPS  H16X 2519   4.774   6.695   3.640  0.2721 -0.6128  0.7423
   19SAPS  H16Y 2520   4.787   6.864   3.580 -0.7766  0.5775  1.6941
   19SAPS  C317 2521   4.813   6.864   3.790  0.6111  0.8160  0.1643
   19SAPS  H17X 2522   4.724   6.931   3.793 -0.7558 -0.9588  2.7913
   19SAPS  H17Y 2523   4.906   6.914   3.824  0.9046 -0.0645  0.6927
   19SAPS  C318 2524   4.788   6.767   3.903  0.5938  0.0701  0.0100
   19SAPS  H18X 2525   4.794   6.821   4.000  1.1846 -1.4748  0.8675
   19SAPS  H18Y 2526   4.872   6.697   3.883 -0.6510 -1.3198 -0.4916
   19SAPS  H18Z 2527   4.690   6.715   3.893 -0.7818  2.2600  1.3061
   20SAPS     N 2528   0.987   0.323   2.479  0.9070 -0.0188  0.2860
   20SAPS   HN1 2529   1.085   0.289   2.477  1.3990  1.0867  2.4210
   20SAPS   HN2 2530   0.975   0.413   2.429  0.0409 -0.3355 -0.1014
   20SAPS   HN3 2531   0.965   0.331   2.581  0.5653 -3.0648  0.5675
   20SAPS   C12 2532   0.894   0.223   2.417  0.4754  0.5492  0.1393
   20SAPS  H12A 2533   0.929   0.220   2.315 -1.8592  0.9186 -0.7393
   20SAPS   C13 2534   0.895   0.068   2.463  0.4485 -0.2676  0.1405
   20SAPS  O13A 2535   0.963   0.050   2.564 -0.3144  0.7491 -0.1197
   20SAPS  O13B 2536   0.825  -0.016   2.400 -0.3840 -0.2628 -0.0551
   20SAPS   C11 2537   0.750   0.276   2.423 -0.6561  0.0561  0.2558
   20SAPS  H11A 2538   0.706   0.259   2.524 -0.5039 -0.0379  0.3069
   20SAPS  H11B 2539   0.685   0.212   2.360 -0.2408 -0.8058  0.6808
   20SAPS     P 2540   0.597   0.471   2.328 -0.0980 -0.0811  0.2262
   20SAPS   O13 2541   0.619   0.519   2.188 -0.4247 -0.2178 -0.2337
   20SAPS   O14 2542   0.495   0.364   2.351  0.5464  1.0389 -0.0687
   20SAPS   O12 2543   0.733   0.415   2.380 -0.4870 -0.1063  0.1871
   20SAPS   O11 2544   0.582   0.599   2.425  0.6028 -0.2363  0.7634
   20SAPS    C1 2545   0.702   0.661   2.485  0.2985  0.1524  0.0019
   20SAPS    HA 2546   0.790   0.654   2.417  0.7992  0.2830  0.6344
   20SAPS    HB 2547   0.671   0.767   2.489  0.7342  0.2475  0.9776
   20SAPS    C2 2548   0.740   0.603   2.630 -0.0008  0.5041  0.4326
   20SAPS    HS 2549   0.810   0.518   2.623  0.2035  0.6591  0.5857
   20SAPS   O21 2550   0.626   0.571   2.706  0.0119  0.2084  0.1673
   20SAPS   C21 2551   0.633   0.458   2.780 -0.0894 -0.6271 -0.1846
   20SAPS   O22 2552   0.716   0.368   2.776 -0.1683 -0.4603  0.4298
   20SAPS   C22 2553   0.515   0.443   2.869  0.0098 -0.2852  0.2591
   20SAPS   H2R 2554   0.436   0.519   2.853  0.3264  0.0875  0.4361
   20SAPS   H2S 2555   0.463   0.353   2.832  1.4455 -0.2686 -2.0480
   20SAPS    C3 2556   0.818   0.711   2.707 -0.0562 -0.1006 -0.3142
   20SAPS    HX 2557   0.762   0.806   2.716 -0.0743 -0.1126 -0.2997
   20SAPS    HY 2558   0.915   0.720   2.652  0.0278  0.6523 -0.0603
   20SAPS   O31 2559   0.857   0.669   2.838 -0.4144  0.0844 -0.4906
   20SAPS   C31 2560   0.829   0.740   2.948  0.3732 -0.4976  0.4589
   20SAPS   O32 2561   0.766   0.843   2.951  0.0903  0.3628 -0.1640
   20SAPS   C32 2562   0.876   0.666   3.074 -0.6701 -0.2965 -0.3310
   20SAPS   H2X 2563   0.980   0.637   3.049 -0.4528  0.9746 -0.9809
   20SAPS   H2Y 2564   0.804   0.582   3.083 -0.8508 -0.1692 -0.5695
   20SAPS   C23 2565   0.550   0.453   3.010  0.0914  0.0815 -0.7197
   20SAPS   H3R 2566   0.563   0.562   3.031 -0.9986  0.2621 -0.9129
   20SAPS   H3S 2567   0.650   0.408   3.032  0.2976 -0.2371 -2.2274
   20SAPS   C24 2568   0.451   0.396   3.108  0.2931  0.3776 -0.3523
   20SAPS   H4R 2569   0.349   0.414   3.068 -0.8084 -1.1469  1.5991
   20SAPS   H4S 2570   0.456   0.456   3.202  2.7666  0.3858 -0.4186
   20SAPS   C25 2571   0.477   0.251   3.124  0.4267  0.2828 -0.4918
   20SAPS   H5R 2572   0.451   0.188   3.037 -1.0704 -1.7731  1.3340
   20SAPS   C26 2573   0.500   0.189   3.240  0.6638  0.7120  0.5313
   20SAPS   H6R 2574   0.515   0.081   3.236  2.4928  0.9200  1.0549
   20SAPS   C27 2575   0.523   0.260   3.367  0.1593  0.0565  0.7944
   20SAPS   H7R 2576   0.503   0.180   3.442 -0.2511 -1.0019 -0.4100
   20SAPS   H7S 2577   0.443   0.336   3.384  1.2932  1.3214  0.5961
   20SAPS   C28 2578   0.651   0.332   3.375 -0.6961  0.0335 -0.3470
   20SAPS   H8R 2579   0.675   0.373   3.276  0.7850 -1.3160 -0.5864
   20SAPS   C29 2580   0.730   0.343   3.484  0.4342  0.0167  0.6499
   20SAPS   H9R 2581   0.808   0.420   3.479  0.5161 -0.1188 -0.5162
   20SAPS  C210 2582   0.689   0.300   3.620  0.4059 -0.1959 -0.6290
   20SAPS  H10R 2583   0.770   0.246   3.674 -1.5402 -1.8325  0.8342
   20SAPS  H10S 2584   0.604   0.229   3.611  0.7918 -0.4430 -2.6645
   20SAPS  C211 2585   0.640   0.419   3.709 -0.6566 -0.3768  0.2349
   20SAPS  H11R 2586   0.648   0.522   3.671 -3.7792 -1.0158 -2.7398
   20SAPS  C212 2587   0.578   0.399   3.831 -0.1789 -0.5929  0.5094
   20SAPS  H12R 2588   0.531   0.480   3.887  0.2474  0.8300 -1.1250
   20SAPS  C213 2589   0.565   0.264   3.897 -0.1146 -0.8657 -0.1401
   20SAPS  H13R 2590   0.619   0.185   3.841  1.4302  1.5609 -2.2874
   20SAPS  H13S 2591   0.457   0.239   3.906 -0.2037 -0.3068  0.3858
   20SAPS  C214 2592   0.632   0.248   4.030 -0.8939 -0.4257 -0.2407
   20SAPS  H14R 2593   0.742   0.245   4.019 -0.4525  2.8967  1.6602
   20SAPS  C215 2594   0.584   0.265   4.155 -0.1116 -0.3538 -0.2498
   20SAPS  H15R 2595   0.633   0.218   4.242 -3.3441 -0.0307  1.8767
   20SAPS  C216 2596   0.443   0.293   4.185 -0.5530  0.8768  0.7714
   20SAPS  H16R 2597   0.380   0.280   4.095  1.1450  0.8219 -0.4677
   20SAPS  H16S 2598   0.426   0.390   4.236 -1.9151  0.4803  1.1100
   20SAPS  C217 2599   0.401   0.192   4.292  0.0119  0.2260 -0.5941
   20SAPS  H17R 2600   0.471   0.201   4.377 -0.3063 -1.2445 -0.1364
   20SAPS  H17S 2601   0.392   0.087   4.255  1.0500 -0.8285  1.9416
   20SAPS  C218 2602   0.264   0.218   4.361 -0.3256  0.6718 -0.1670
   20SAPS  H18R 2603   0.185   0.184   4.291 -0.3884  0.2886  0.0865
   20SAPS  H18S 2604   0.250   0.328   4.374 -1.0060  1.0593 -3.3520
   20SAPS  C219 2605   0.268   0.147   4.500  0.2307  0.1233  0.0641
   20SAPS  H19R 2606   0.176   0.173   4.556  0.0496 -1.6659  0.6629
   20SAPS  H19S 2607   0.359   0.181   4.553  0.9106 -1.0237 -0.3304
   20SAPS  C220 2608   0.286  -0.010   4.499  0.2152 -1.0248 -0.0230
   20SAPS  H20R 2609   0.382  -0.031   4.446 -0.2104  0.8595 -1.6662
   20SAPS  H20S 2610   0.199  -0.059   4.451 -1.8609  0.3920  2.0650
   20SAPS  H20T 2611   0.296  -0.038   4.606 -2.1337  1.1389  0.8751
   20SAPS   C33 2612   0.864   0.754   3.201  1.2435 -0.4496  0.4968
   20SAPS   H3X 2613   0.779   0.826   3.195  0.9846 -0.8038 -0.1792
   20SAPS   H3Y 2614   0.946   0.826   3.219  0.9839  0.7766 -2.6612
   20SAPS   C34 2615   0.834   0.674   3.334 -0.0847  0.2349 -0.0513
   20SAPS   H4X 2616   0.886   0.577   3.338 -1.5614 -0.6421 -1.1032
   20SAPS   H4Y 2617   0.724   0.662   3.344 -0.1896  1.3365  0.3109
   20SAPS   C35 2618   0.894   0.762   3.451  0.2836  0.3139 -0.4315
   20SAPS   H5X 2619   0.843   0.859   3.470  0.1110 -0.1311  1.5735
   20SAPS   H5Y 2620   1.001   0.779   3.429  0.3172  0.0551 -0.4679
   20SAPS   C36 2621   0.883   0.686   3.589 -0.5737  0.5003  0.4730
   20SAPS   H6X 2622   0.937   0.589   3.587 -1.4096 -0.0569 -3.2083
   20SAPS   H6Y 2623   0.776   0.656   3.596 -0.7673  0.2049 -2.3817
   20SAPS   C37 2624   0.909   0.778   3.708 -0.3998 -0.5952  0.2751
   20SAPS   H7X 2625   0.845   0.868   3.695 -1.0891 -1.3188 -1.5226
   20SAPS   H7Y 2626   1.016   0.807   3.706 -1.1713  2.6463 -1.3864
   20SAPS   C38 2627   0.864   0.720   3.848  0.2991 -0.0366  0.4234
   20SAPS   H8X 2628   0.895   0.614   3.863 -3.3166 -1.5654 -1.6192
   20SAPS   H8Y 2629   0.753   0.721   3.843  0.3226  0.9605 -0.0067
   20SAPS   C39 2630   0.907   0.817   3.961 -0.5262 -0.5128  0.0465
   20SAPS   H9X 2631   0.860   0.917   3.950 -0.6888 -0.5882  0.0397
   20SAPS   H9Y 2632   1.015   0.819   3.937 -0.3232 -0.7622  0.9121
   20SAPS  C310 2633   0.896   0.761   4.109  0.3052  0.1745  1.0973
   20SAPS  H10X 2634   0.931   0.656   4.116 -0.4402 -0.4006 -2.0944
   20SAPS  H10Y 2635   0.790   0.773   4.139 -0.6156 -0.6962 -1.5296
   20SAPS  C311 2636   0.980   0.858   4.200 -0.1142  0.4184 -0.3587
   20SAPS  H11X 2637   0.934   0.958   4.188 -0.6910  0.0684 -1.2510
   20SAPS  H11Y 2638   1.084   0.867   4.164  0.7901 -0.5760  1.8338
   20SAPS  C312 2639   0.969   0.817   4.346  0.0769  0.5937 -0.3385
   20SAPS  H12X 2640   1.001   0.711   4.357 -0.9106 -0.0237 -2.8850
   20SAPS  H12Y 2641   0.869   0.840   4.387  0.9453  1.4627  1.4115
   20SAPS  C313 2642   1.060   0.904   4.434  0.1225 -0.8892 -0.2249
   20SAPS  H13X 2643   1.067   1.005   4.389 -1.5529 -0.4929  0.3101
   20SAPS  H13Y 2644   1.163   0.866   4.417  0.3458 -0.3580 -0.0796
   20SAPS  C314 2645   1.012   0.918   4.581 -0.3003  0.0980  0.1612
   20SAPS  H14X 2646   0.985   0.820   4.625  0.8389 -0.1329  0.3632
   20SAPS  H14Y 2647   0.913   0.966   4.567 -0.0279  0.5292 -0.3110
   20SAPS  C315 2648   1.092   0.999   4.685  0.3034 -0.3644 -0.0823
   20SAPS  H15X 2649   1.116   1.101   4.650 -1.1658  0.0342  0.0302
   20SAPS  H15Y 2650   1.190   0.946   4.688  0.5107  0.0479  0.6880
   20SAPS  C316 2651   1.042   0.984   4.829 -0.4089  0.0151 -0.2779
   20SAPS  H16X 2652   1.108   1.040   4.898  0.8183  0.3798 -1.6964
   20SAPS  H16Y 2653   1.042   0.875   4.852  0.2177  0.1083  0.1846
   20SAPS  C317 2654   0.904   1.029   4.861  1.0223  0.1274  0.2344
   20SAPS  H17X 2655   0.834   0.964   4.803  0.5652  0.2957  0.5882
   20SAPS  H17Y 2656   0.884   1.133   4.827  0.1648  0.3399  1.3062
   20SAPS  C318 2657   0.866   1.028   5.005  0.1482 -0.2254 -0.7190
   20SAPS  H18X 2658   0.760   1.045   5.034  0.1504 -0.0932 -0.7832
   20SAPS  H18Y 2659   0.941   1.085   5.064  1.9046 -2.5234 -0.6109
   20SAPS  H18Z 2660   0.892   0.926   5.039 -1.0335  0.2694  1.9279
   21CHL1    C3 2661   3.667   1.574   6.286  0.7438  0.7408  0.2065
   21CHL1    H3 2662   3.656   1.464   6.283 -2.1432  0.9699 -0.3908
   21CHL1    O3 2663   3.708   1.610   6.414 -0.0259 -0.2171  0.2060
   21CHL1   H3' 2664   3.665   1.552   6.477  0.3282 -0.3677  0.3140
   21CHL1    C4 2665   3.793   1.609   6.207 -0.6922 -0.0157 -0.1492
   21CHL1   H4A 2666   3.820   1.715   6.230  0.5249 -0.4511  0.5262
   21CHL1   H4B 2667   3.879   1.552   6.248  0.3863  1.3973 -0.3817
   21CHL1    C5 2668   3.782   1.589   6.061 -0.0810  0.0092  0.1668
   21CHL1    C6 2669   3.876   1.516   5.985  0.2777 -0.0250 -0.4120
   21CHL1    H6 2670   3.970   1.477   6.026  0.7006  0.0001 -1.3271
   21CHL1    C7 2671   3.866   1.494   5.841 -0.2322  0.6194  0.3670
   21CHL1   H7A 2672   3.967   1.507   5.797  1.7101 -4.3855  2.6056
   21CHL1   H7B 2673   3.824   1.392   5.824  0.0629  0.6481 -0.6399
   21CHL1    C8 2674   3.761   1.594   5.765 -0.0239 -0.2332  0.0548
   21CHL1    H8 2675   3.809   1.694   5.768  1.1313 -0.7671 -0.0756
   21CHL1   C14 2676   3.736   1.564   5.620  0.1627  0.9126 -0.8909
   21CHL1   H14 2677   3.702   1.458   5.628  0.5377  0.7581 -1.2691
   21CHL1   C15 2678   3.860   1.548   5.528  0.1174  0.1012 -0.3562
   21CHL1  H15A 2679   3.910   1.646   5.520  1.2364 -0.4962 -0.8936
   21CHL1  H15B 2680   3.935   1.468   5.546  0.2691  0.4467  0.6315
   21CHL1   C16 2681   3.792   1.531   5.389  1.1118 -0.7410  0.1914
   21CHL1  H16A 2682   3.839   1.582   5.303 -1.5853  0.0857 -0.8986
   21CHL1  H16B 2683   3.800   1.424   5.362  0.2304 -0.7201 -0.1918
   21CHL1   C17 2684   3.644   1.573   5.407  0.6231  0.2460 -0.2411
   21CHL1   H17 2685   3.599   1.472   5.424  1.2084  0.1213  0.6211
   21CHL1   C13 2686   3.630   1.637   5.541  0.4990 -0.5626  0.4311
   21CHL1   C18 2687   3.662   1.783   5.539  0.1255 -0.3189  0.7329
   21CHL1  H18A 2688   3.668   1.815   5.645 -0.5367  0.5965  0.4988
   21CHL1  H18B 2689   3.764   1.807   5.500 -0.2046  0.5452  0.3798
   21CHL1  H18C 2690   3.586   1.840   5.483  1.3456 -0.5778 -1.3222
   21CHL1   C12 2691   3.500   1.613   5.622 -0.2105  0.7403 -0.9546
   21CHL1  H12A 2692   3.407   1.665   5.591 -1.3752 -0.6886  0.0393
   21CHL1  H12B 2693   3.470   1.508   5.605  0.6708  0.7951 -3.1830
   21CHL1   C11 2694   3.511   1.656   5.776 -0.3552  0.3342 -0.0551
   21CHL1  H11A 2695   3.507   1.767   5.777 -0.7752  0.3199  0.1199
   21CHL1  H11B 2696   3.423   1.610   5.827  0.6377  0.5912  1.9719
   21CHL1    C9 2697   3.630   1.595   5.852 -0.9074  0.3467  0.9611
   21CHL1    H9 2698   3.609   1.487   5.867  0.4178 -0.1502 -0.4609
   21CHL1   C10 2699   3.655   1.643   5.994  0.0481 -0.5775 -0.3886
   21CHL1   C19 2700   3.666   1.800   5.985 -0.4432 -0.3776 -1.2356
   21CHL1  H19A 2701   3.565   1.840   5.960  0.2244  2.5112  0.2101
   21CHL1  H19B 2702   3.706   1.840   6.081  2.7336 -4.8842 -0.3345
   21CHL1  H19C 2703   3.738   1.829   5.906  0.2088 -0.2831 -0.6166
   21CHL1    C1 2704   3.530   1.605   6.082  0.6281 -0.3487 -0.0695
   21CHL1   H1A 2705   3.437   1.654   6.045  0.9745  0.9191  0.6591
   21CHL1   H1B 2706   3.517   1.495   6.075  2.9718 -0.6098 -1.4236
   21CHL1    C2 2707   3.548   1.647   6.222  0.4732  0.4124 -0.1063
   21CHL1   H2A 2708   3.456   1.623   6.280 -0.1283  1.5080 -0.5923
   21CHL1   H2B 2709   3.561   1.757   6.227  2.5658  0.1817  0.4939
   21CHL1   C20 2710   3.580   1.639   5.282 -0.2370 -0.1443  0.1811
   21CHL1   H20 2711   3.637   1.730   5.257  1.2832 -1.0173  0.3442
   21CHL1   C21 2712   3.431   1.676   5.301 -0.4796 -0.0682  0.5196
   21CHL1  H21A 2713   3.378   1.711   5.209 -0.5927  0.0617  0.6335
   21CHL1  H21B 2714   3.422   1.766   5.365 -0.3479  0.5108 -0.2569
   21CHL1  H21C 2715   3.372   1.591   5.343  2.1354 -1.4195  1.6649
   21CHL1   C22 2716   3.584   1.539   5.165 -0.0889  0.5949  0.3705
   21CHL1  H22A 2717   3.675   1.476   5.161 -0.0062  0.5764  1.8873
   21CHL1  H22B 2718   3.497   1.472   5.178  0.4740 -0.0373  0.9231
   21CHL1   C23 2719   3.591   1.612   5.032 -0.0410 -0.4764 -0.2565
   21CHL1  H23A 2720   3.499   1.673   5.021  0.3116  0.1849  0.3717
   21CHL1  H23B 2721   3.682   1.674   5.042  0.7455 -1.8667  2.3586
   21CHL1   C24 2722   3.607   1.520   4.910 -0.6654  0.1842 -0.4731
   21CHL1  H24A 2723   3.710   1.478   4.923  0.4188  1.8794 -2.8100
   21CHL1  H24B 2724   3.535   1.436   4.911 -0.7664  0.2386  1.7212
   21CHL1   C25 2725   3.610   1.596   4.776  0.4350  0.6197 -0.8985
   21CHL1   H25 2726   3.538   1.680   4.780 -1.8557 -1.2170 -1.2945
   21CHL1   C26 2727   3.747   1.649   4.735 -0.0372  0.4000 -0.1163
   21CHL1  H26A 2728   3.798   1.705   4.816 -1.3436  0.5449  0.6366
   21CHL1  H26B 2729   3.815   1.570   4.695  0.9394  0.2530  1.6799
   21CHL1  H26C 2730   3.735   1.721   4.652 -1.1833 -1.0775 -1.3088
   21CHL1   C27 2731   3.558   1.505   4.665  0.5125  0.6095  0.2345
   21CHL1  H27A 2732   3.625   1.419   4.641 -2.4722 -2.5700  2.2576
   21CHL1  H27B 2733   3.451   1.483   4.682  0.3810 -0.1722 -1.4132
   21CHL1  H27C 2734   3.556   1.551   4.564  0.1338 -0.5399 -0.3017
   22CHL1    C3 2735   6.560   1.318   6.158 -0.6615  0.5229 -0.2505
   22CHL1    H3 2736   6.646   1.249   6.168  1.5269  3.0201 -0.7298
   22CHL1    O3 2737   6.509   1.345   6.287  0.1588 -0.2218  0.2208
   22CHL1   H3' 2738   6.507   1.263   6.337  0.5494 -0.2235  0.2372
   22CHL1    C4 2739   6.626   1.447   6.111  0.1104 -0.4470  0.0966
   22CHL1   H4A 2740   6.554   1.532   6.120 -0.7817 -1.3061  1.6168
   22CHL1   H4B 2741   6.703   1.475   6.186 -0.3945 -0.6088  0.6817
   22CHL1    C5 2742   6.671   1.439   5.966  0.1276 -0.1736 -0.4025
   22CHL1    C6 2743   6.799   1.479   5.927  0.0752  0.0137  0.1368
   22CHL1    H6 2744   6.862   1.522   6.006 -0.9841  1.0075  0.4736
   22CHL1    C7 2745   6.850   1.471   5.784 -0.0795  1.0021 -0.3252
   22CHL1   H7A 2746   6.913   1.560   5.767 -1.3889  2.5891  2.3889
   22CHL1   H7B 2747   6.912   1.380   5.768  0.2334  1.1824 -0.1532
   22CHL1    C8 2748   6.725   1.468   5.686 -0.5512 -0.3943  0.0792
   22CHL1    H8 2749   6.687   1.572   5.688 -2.2702 -0.9740 -0.4374
   22CHL1   C14 2750   6.776   1.446   5.540 -0.0609 -0.4925 -0.7930
   22CHL1   H14 2751   6.833   1.351   5.547  1.6394  0.4748 -0.8778
   22CHL1   C15 2752   6.874   1.561   5.486 -0.4929 -0.0368 -0.2015
   22CHL1  H15A 2753   6.829   1.661   5.507  2.8497  0.9777  3.3353
   22CHL1  H15B 2754   6.978   1.554   5.524 -0.5979 -0.5303 -0.0039
   22CHL1   C16 2755   6.872   1.529   5.336 -0.0703  0.3982  0.7843
   22CHL1  H16A 2756   6.851   1.614   5.267  0.7927 -0.1638 -0.1918
   22CHL1  H16B 2757   6.968   1.480   5.308  1.4324  3.8641 -0.7083
   22CHL1   C17 2758   6.761   1.417   5.310 -0.4772  0.4284 -0.2358
   22CHL1   H17 2759   6.799   1.312   5.315 -0.9163  0.3212  2.4057
   22CHL1   C13 2760   6.667   1.430   5.436  0.8582 -0.5590  0.3429
   22CHL1   C18 2761   6.571   1.555   5.429 -0.3180 -0.2454 -0.0438
   22CHL1  H18A 2762   6.639   1.638   5.398  2.2467 -2.2988 -0.2958
   22CHL1  H18B 2763   6.501   1.538   5.345  0.9177 -0.0974 -1.1471
   22CHL1  H18C 2764   6.529   1.566   5.531  1.5074 -0.4463  0.7675
   22CHL1   C12 2765   6.581   1.299   5.474  0.0460 -0.5091 -0.0857
   22CHL1  H12A 2766   6.490   1.300   5.411 -0.8284  0.9523  1.1249
   22CHL1  H12B 2767   6.643   1.207   5.479  0.1217 -0.7111 -2.9989
   22CHL1   C11 2768   6.527   1.321   5.619 -0.2604 -0.1529 -0.6139
   22CHL1  H11A 2769   6.456   1.406   5.618 -0.0855  0.0841  1.5410
   22CHL1  H11B 2770   6.459   1.243   5.658 -0.6849  0.2551 -0.5345
   22CHL1    C9 2771   6.624   1.358   5.730 -0.3059 -0.5069 -0.0353
   22CHL1    H9 2772   6.694   1.272   5.731  0.6674  0.2591  0.1515
   22CHL1   C10 2773   6.568   1.378   5.872  0.6792 -0.6094 -0.4643
   22CHL1   C19 2774   6.460   1.491   5.854  0.3934  0.4809 -0.1865
   22CHL1  H19A 2775   6.422   1.519   5.954  0.4722 -1.6242  0.4835
   22CHL1  H19B 2776   6.496   1.575   5.791 -1.2998  2.5948  1.5245
   22CHL1  H19C 2777   6.377   1.437   5.803 -0.0225  0.4627  0.5089
   22CHL1    C1 2778   6.502   1.249   5.931 -0.0971  0.8139 -0.2217
   22CHL1   H1A 2779   6.426   1.209   5.860  1.4053 -0.4722 -1.1708
   22CHL1   H1B 2780   6.571   1.163   5.934 -0.3915  0.5844  0.0092
   22CHL1    C2 2781   6.448   1.257   6.073  0.1460  0.5930 -0.4014
   22CHL1   H2A 2782   6.425   1.159   6.119  1.1623  0.5026 -0.0547
   22CHL1   H2B 2783   6.362   1.326   6.089  0.7913  1.4043 -0.3351
   22CHL1   C20 2784   6.697   1.437   5.176  0.5403 -0.5711  0.0396
   22CHL1   H20 2785   6.668   1.543   5.163 -2.2375 -1.3464 -0.8177
   22CHL1   C21 2786   6.584   1.334   5.146  0.1217  0.4885 -0.1492
   22CHL1  H21A 2787   6.629   1.235   5.168 -1.0113 -0.3357 -1.3658
   22CHL1  H21B 2788   6.557   1.347   5.039  0.1505 -0.8236 -0.3334
   22CHL1  H21C 2789   6.495   1.355   5.209  0.3640  0.3881  0.2368
   22CHL1   C22 2790   6.805   1.413   5.063 -0.0513 -0.1644 -0.2789
   22CHL1  H22A 2791   6.905   1.459   5.077  0.0603 -0.4732 -0.0580
   22CHL1  H22B 2792   6.827   1.305   5.077 -1.0261 -0.5738 -1.6929
   22CHL1   C23 2793   6.763   1.445   4.919  0.4113 -0.3976 -0.1694
   22CHL1  H23A 2794   6.655   1.424   4.904 -0.0818  1.5833  0.3341
   22CHL1  H23B 2795   6.765   1.553   4.894 -1.1250 -0.4086 -0.4251
   22CHL1   C24 2796   6.844   1.376   4.806  0.4218 -0.2623 -0.7812
   22CHL1  H24A 2797   6.933   1.441   4.798 -0.7306  2.4190  4.0828
   22CHL1  H24B 2798   6.873   1.271   4.827  2.7823  0.3185 -0.9330
   22CHL1   C25 2799   6.770   1.371   4.671 -0.2012  0.2507  0.4590
   22CHL1   H25 2800   6.670   1.332   4.697 -0.6964  1.4618  0.4121
   22CHL1   C26 2801   6.753   1.509   4.599  0.0866 -0.2543  0.3607
   22CHL1  H26A 2802   6.851   1.521   4.548  0.5119  0.0134  1.2178
   22CHL1  H26B 2803   6.672   1.517   4.523 -0.9497 -2.2735  1.1675
   22CHL1  H26C 2804   6.728   1.594   4.667 -2.0064 -0.5947  0.0890
   22CHL1   C27 2805   6.838   1.259   4.591 -0.0109  0.1116 -0.3643
   22CHL1  H27A 2806   6.940   1.299   4.572 -0.4990  1.8381  0.4916
   22CHL1  H27B 2807   6.828   1.160   4.639 -0.6831 -0.1618 -1.0440
   22CHL1  H27C 2808   6.799   1.240   4.489  0.0555  0.2217 -0.4102
   23CHL1    C3 2809   4.033   1.052   5.882  0.2701  0.0179  0.4751
   23CHL1    H3 2810   3.930   1.093   5.897 -0.1315 -0.7655 -0.0609
   23CHL1    O3 2811   4.075   0.996   6.005 -0.8103 -0.1046  0.4206
   23CHL1   H3' 2812   4.028   0.913   6.017 -0.3916 -0.5448 -0.8066
   23CHL1    C4 2813   4.036   0.940   5.780 -0.2194  0.0174  0.7979
   23CHL1   H4A 2814   4.127   0.878   5.793  1.3063  1.8052 -0.7603
   23CHL1   H4B 2815   3.956   0.866   5.802 -0.7551 -0.1341 -1.4504
   23CHL1    C5 2816   4.020   0.984   5.637  0.0012  0.0912 -1.0764
   23CHL1    C6 2817   3.923   0.922   5.562  0.7880 -0.5654 -0.7095
   23CHL1    H6 2818   3.867   0.836   5.600 -0.8878  0.8654  0.2214
   23CHL1    C7 2819   3.910   0.968   5.424  0.1597 -0.0316  0.3245
   23CHL1   H7A 2820   3.876   0.880   5.365  2.5299 -0.9980  0.2901
   23CHL1   H7B 2821   3.826   1.039   5.408  1.5221  1.8772  1.1922
   23CHL1    C8 2822   4.032   1.039   5.365 -0.1612 -0.3537  0.0544
   23CHL1    H8 2823   4.114   0.965   5.356  2.5507  2.6350 -3.0763
   23CHL1   C14 2824   3.995   1.096   5.230 -0.2395 -0.6984 -0.0083
   23CHL1   H14 2825   3.906   1.163   5.237  0.6303  0.3554  1.8845
   23CHL1   C15 2826   3.942   0.997   5.121  0.2591  0.1931  0.1887
   23CHL1  H15A 2827   4.021   0.919   5.112  2.1768  2.1377 -0.6687
   23CHL1  H15B 2828   3.847   0.953   5.158 -0.5240  2.5917  1.1821
   23CHL1   C16 2829   3.937   1.076   4.999 -0.0598  0.0372  0.1923
   23CHL1  H16A 2830   3.975   1.026   4.908 -0.9284  0.2229 -0.2774
   23CHL1  H16B 2831   3.832   1.108   4.983 -0.0860 -0.3655 -0.4512
   23CHL1   C17 2832   4.023   1.205   5.027 -0.3601 -0.2878  0.1498
   23CHL1   H17 2833   3.950   1.283   5.054 -0.0243  0.2722 -0.5370
   23CHL1   C13 2834   4.101   1.177   5.161 -0.8722  0.0941 -0.0783
   23CHL1   C18 2835   4.230   1.090   5.143  0.1969 -0.1233 -0.5052
   23CHL1  H18A 2836   4.278   1.048   5.234 -0.4125 -1.2402 -0.6796
   23CHL1  H18B 2837   4.221   1.001   5.076  1.1033 -0.6069 -0.0034
   23CHL1  H18C 2838   4.302   1.166   5.107 -0.5283  1.8425  1.9318
   23CHL1   C12 2839   4.133   1.297   5.257  0.5159  0.0363  0.1756
   23CHL1  H12A 2840   4.219   1.354   5.214 -0.3641  0.3053 -1.3085
   23CHL1  H12B 2841   4.040   1.358   5.253 -0.7232 -1.7246  0.8443
   23CHL1   C11 2842   4.176   1.251   5.396  0.7064  0.7633 -0.0074
   23CHL1  H11A 2843   4.270   1.194   5.381  0.7619  1.3987 -2.4103
   23CHL1  H11B 2844   4.192   1.335   5.467  0.4879  1.7448 -1.0967
   23CHL1    C9 2845   4.065   1.150   5.459 -0.3224  0.3862  1.0072
   23CHL1    H9 2846   3.968   1.203   5.468  0.8207  2.7574  0.2242
   23CHL1   C10 2847   4.114   1.098   5.593  0.2777  0.5597 -0.7726
   23CHL1   C19 2848   4.256   1.032   5.579 -0.4913  0.8400  0.0271
   23CHL1  H19A 2849   4.256   0.961   5.494  1.9166  0.1556  0.5187
   23CHL1  H19B 2850   4.340   1.103   5.560 -0.6896  0.8863 -0.6935
   23CHL1  H19C 2851   4.287   0.975   5.669  0.1088  1.7343  0.4107
   23CHL1    C1 2852   4.112   1.202   5.703  0.2011 -0.2865  0.1841
   23CHL1   H1A 2853   4.189   1.279   5.683  0.1747  0.8408  3.6664
   23CHL1   H1B 2854   4.014   1.254   5.697  0.9812  1.2510  0.2209
   23CHL1    C2 2855   4.133   1.160   5.849 -0.0433  0.0259  0.3915
   23CHL1   H2A 2856   4.111   1.245   5.917 -0.6484  0.1448  0.0616
   23CHL1   H2B 2857   4.236   1.120   5.854  0.0367  0.2867  0.8681
   23CHL1   C20 2858   4.106   1.243   4.903 -0.0095  0.6996 -0.1959
   23CHL1   H20 2859   4.174   1.157   4.884  0.5810  0.4562  2.6372
   23CHL1   C21 2860   4.193   1.366   4.938 -0.1813 -0.5062 -0.3070
   23CHL1  H21A 2861   4.237   1.406   4.844 -3.1514  0.5160 -1.3962
   23CHL1  H21B 2862   4.265   1.362   5.022  0.8693  0.3065 -1.1408
   23CHL1  H21C 2863   4.122   1.448   4.964  1.4155  0.0153  2.7987
   23CHL1   C22 2864   4.014   1.280   4.782  0.2661  0.7336  0.6358
   23CHL1  H22A 2865   3.932   1.206   4.776  1.6506 -1.0513  2.2952
   23CHL1  H22B 2866   3.965   1.379   4.800  0.2396  0.7445  0.5022
   23CHL1   C23 2867   4.094   1.281   4.645 -0.0327  0.5875 -0.0168
   23CHL1  H23A 2868   4.017   1.308   4.570  0.4961 -0.9003 -1.1367
   23CHL1  H23B 2869   4.167   1.365   4.658  0.0176  0.2026  2.6170
   23CHL1   C24 2870   4.159   1.154   4.595 -0.3778  0.4074 -0.2573
   23CHL1  H24A 2871   4.234   1.112   4.666  3.3187  0.5888 -3.6757
   23CHL1  H24B 2872   4.086   1.070   4.590 -0.4655  0.2460  2.2982
   23CHL1   C25 2873   4.235   1.165   4.453  0.2300 -0.2568  0.3368
   23CHL1   H25 2874   4.178   1.244   4.400  0.4803  0.5297  1.2038
   23CHL1   C26 2875   4.382   1.214   4.470  0.0961 -0.2016  0.1861
   23CHL1  H26A 2876   4.389   1.318   4.509  0.1795 -0.1360 -0.0052
   23CHL1  H26B 2877   4.443   1.139   4.525  1.6992  1.1554  0.3470
   23CHL1  H26C 2878   4.425   1.224   4.368 -0.3068  2.4717  0.1883
   23CHL1   C27 2879   4.249   1.029   4.376  0.7996  0.2031  0.3074
   23CHL1  H27A 2880   4.150   0.981   4.361  0.1680  1.7742 -0.8000
   23CHL1  H27B 2881   4.281   1.055   4.273  0.3313  1.5393  0.4818
   23CHL1  H27C 2882   4.323   0.961   4.423  0.3374 -0.0643  0.6577
   24CHL1    C3 2883   6.011   2.396   6.116  0.5925  0.0298 -0.5827
   24CHL1    H3 2884   6.089   2.475   6.110  1.3656 -0.2879  2.9541
   24CHL1    O3 2885   5.990   2.351   6.253  0.4284  0.1323 -0.2801
   24CHL1   H3' 2886   5.987   2.433   6.302 -0.3378 -0.7521  1.2180
   24CHL1    C4 2887   5.884   2.457   6.059 -0.3178  0.7970 -0.1812
   24CHL1   H4A 2888   5.800   2.385   6.073 -0.3275  0.6206 -1.1182
   24CHL1   H4B 2889   5.854   2.542   6.125 -1.2237 -0.7462  1.4846
   24CHL1    C5 2890   5.891   2.500   5.915 -0.4532 -0.1009  0.4400
   24CHL1    C6 2891   5.862   2.623   5.875 -0.1561 -0.1903  1.1507
   24CHL1    H6 2892   5.834   2.700   5.948 -0.7343 -0.0588  0.7936
   24CHL1    C7 2893   5.864   2.668   5.725  0.2500  0.4621 -0.7594
   24CHL1   H7A 2894   5.785   2.739   5.694 -1.3006 -0.7073  0.3513
   24CHL1   H7B 2895   5.955   2.726   5.696 -0.0778  1.5253  0.2664
   24CHL1    C8 2896   5.847   2.542   5.629 -0.3351 -0.2040  0.1679
   24CHL1    H8 2897   5.743   2.504   5.631 -0.4167  0.0313  0.5040
   24CHL1   C14 2898   5.871   2.593   5.489 -0.2499  0.4003  0.5108
   24CHL1   H14 2899   5.969   2.646   5.485 -1.7897  3.4687  0.7622
   24CHL1   C15 2900   5.780   2.697   5.425  0.6601  0.5435 -0.0594
   24CHL1  H15A 2901   5.673   2.672   5.443  0.4883  0.9886 -0.4464
   24CHL1  H15B 2902   5.805   2.793   5.474  0.2606  0.8672 -0.4841
   24CHL1   C16 2903   5.811   2.685   5.276  0.3458  0.4427 -0.1426
   24CHL1  H16A 2904   5.710   2.666   5.232 -0.8735  1.5549  1.9978
   24CHL1  H16B 2905   5.849   2.779   5.230 -0.2853  0.5495 -0.4586
   24CHL1   C17 2906   5.904   2.563   5.254  0.2615 -0.3435 -0.2729
   24CHL1   H17 2907   6.009   2.597   5.267 -0.0654  0.3101  0.7676
   24CHL1   C13 2908   5.882   2.481   5.381 -0.2322  0.2922 -0.6964
   24CHL1   C18 2909   5.743   2.407   5.362  0.6580  0.3677 -0.2870
   24CHL1  H18A 2910   5.745   2.320   5.293 -0.2886 -0.0521  0.2032
   24CHL1  H18B 2911   5.709   2.361   5.458 -0.3832 -2.0990 -1.7351
   24CHL1  H18C 2912   5.662   2.476   5.331 -1.1905  1.0079  4.9376
   24CHL1   C12 2913   5.993   2.378   5.426 -1.3065  0.2958  0.0936
   24CHL1  H12A 2914   5.995   2.290   5.358 -2.3255 -0.5437  1.1015
   24CHL1  H12B 2915   6.092   2.428   5.429 -1.4915  0.6318  2.7656
   24CHL1   C11 2916   5.960   2.319   5.569  0.3165  0.0436  0.1516
   24CHL1  H11A 2917   5.865   2.264   5.557  0.8234 -0.6507 -0.8331
   24CHL1  H11B 2918   6.035   2.240   5.594 -1.1909 -1.2079  0.8794
   24CHL1    C9 2919   5.949   2.435   5.666 -0.0146  0.5202  0.5486
   24CHL1    H9 2920   6.046   2.489   5.669  0.0346  0.5710 -0.9280
   24CHL1   C10 2921   5.920   2.384   5.812 -0.5243  0.1636  0.1446
   24CHL1   C19 2922   5.805   2.284   5.812 -0.6743  0.7691 -0.1526
   24CHL1  H19A 2923   5.783   2.238   5.911 -0.7177  2.3996  0.6353
   24CHL1  H19B 2924   5.710   2.327   5.776  1.1118  3.3009 -2.2308
   24CHL1  H19C 2925   5.831   2.197   5.748 -1.1568  0.4936  0.0289
   24CHL1    C1 2926   6.057   2.329   5.867 -0.2061 -1.0171 -0.2762
   24CHL1   H1A 2927   6.086   2.242   5.804 -2.2844 -1.3078 -0.9083
   24CHL1   H1B 2928   6.144   2.396   5.849 -0.8858 -0.2691 -0.7808
   24CHL1    C2 2929   6.056   2.284   6.016  0.0271 -0.0101  0.6529
   24CHL1   H2A 2930   6.155   2.250   6.055  0.4826  0.8458  0.2827
   24CHL1   H2B 2931   5.996   2.190   6.015  2.6637 -1.8195  1.3951
   24CHL1   C20 2932   5.901   2.505   5.112  0.3149 -0.3956 -0.4361
   24CHL1   H20 2933   5.812   2.440   5.104  0.6942 -0.7617 -2.0903
   24CHL1   C21 2934   6.025   2.414   5.094  0.0341 -0.1102 -0.3566
   24CHL1  H21A 2935   6.024   2.360   4.997  1.6788 -2.4994  0.8634
   24CHL1  H21B 2936   6.028   2.329   5.165  1.9297 -1.0493 -1.4845
   24CHL1  H21C 2937   6.119   2.473   5.101 -0.6567  1.0064 -0.1114
   24CHL1   C22 2938   5.889   2.604   4.990 -0.1967  0.5287  0.3493
   24CHL1  H22A 2939   5.822   2.688   5.017 -3.0014 -1.3020 -0.5006
   24CHL1  H22B 2940   5.990   2.641   4.962  1.0678 -0.5409  3.1548
   24CHL1   C23 2941   5.827   2.536   4.864 -0.1879 -0.2014 -0.1397
   24CHL1  H23A 2942   5.895   2.454   4.835  2.1681  1.2084  1.0986
   24CHL1  H23B 2943   5.731   2.487   4.892 -0.0331  0.4366  1.6647
   24CHL1   C24 2944   5.823   2.632   4.748 -0.0492  0.2511  0.3264
   24CHL1  H24A 2945   5.751   2.713   4.772  1.5179  1.3411  1.5685
   24CHL1  H24B 2946   5.923   2.679   4.743 -0.9650  2.3724  0.9396
   24CHL1   C25 2947   5.788   2.571   4.611  0.0734  0.2027  0.6524
   24CHL1   H25 2948   5.860   2.488   4.595  1.3896  1.1124  1.6039
   24CHL1   C26 2949   5.644   2.523   4.605  0.3671 -0.4188 -0.0443
   24CHL1  H26A 2950   5.623   2.454   4.521 -0.9117  0.2351 -0.2787
   24CHL1  H26B 2951   5.619   2.474   4.702 -0.8298  1.7641  0.8145
   24CHL1  H26C 2952   5.572   2.607   4.604  0.9311  0.0729 -1.2623
   24CHL1   C27 2953   5.814   2.669   4.501  0.1761 -0.1144  0.2715
   24CHL1  H27A 2954   5.919   2.706   4.497  0.0756  0.1541  0.0787
   24CHL1  H27B 2955   5.789   2.630   4.400 -1.5136  0.1827  0.5409
   24CHL1  H27C 2956   5.754   2.762   4.513 -1.8151 -1.2714 -0.2644
   25CHL1    C3 2957   2.387   5.219   6.091  0.3647  0.0187 -0.1379
   25CHL1    H3 2958   2.426   5.320   6.116  0.1029 -0.2842  1.6122
   25CHL1    O3 2959   2.377   5.148   6.215 -0.0301  0.5006  0.4434
   25CHL1   H3' 2960   2.285   5.130   6.233 -0.7676  1.9103 -1.4972
   25CHL1    C4 2961   2.243   5.231   6.026 -0.0994 -0.1372  0.0612
   25CHL1   H4A 2962   2.202   5.128   6.028  0.2641 -0.2873 -0.0169
   25CHL1   H4B 2963   2.196   5.297   6.102 -0.9820 -0.2894 -0.3455
   25CHL1    C5 2964   2.236   5.290   5.890 -1.0056 -0.3089  0.8955
   25CHL1    C6 2965   2.168   5.396   5.859  0.5738  0.1849 -0.8694
   25CHL1    H6 2966   2.107   5.447   5.935  2.1364  1.5240 -0.4867
   25CHL1    C7 2967   2.156   5.460   5.726 -0.1427 -0.4342 -0.7790
   25CHL1   H7A 2968   2.051   5.482   5.696 -0.1606  0.6486 -0.0064
   25CHL1   H7B 2969   2.212   5.555   5.713 -0.4627 -0.2685 -0.9644
   25CHL1    C8 2970   2.215   5.371   5.613 -0.6795  0.8168 -0.0328
   25CHL1    H8 2971   2.146   5.295   5.570  0.6313 -0.5887  0.2854
   25CHL1   C14 2972   2.256   5.455   5.493  0.0536 -0.0833 -0.2410
   25CHL1   H14 2973   2.327   5.528   5.538  0.3753 -0.7083  0.2830
   25CHL1   C15 2974   2.140   5.528   5.425  0.0302 -0.0037 -0.0178
   25CHL1  H15A 2975   2.072   5.440   5.426 -0.8429  0.6327 -1.0606
   25CHL1  H15B 2976   2.098   5.615   5.480  1.3709 -1.0265  2.8099
   25CHL1   C16 2977   2.195   5.558   5.281 -0.1325 -0.4594  0.4058
   25CHL1  H16A 2978   2.125   5.505   5.212 -0.7820 -1.1368  1.5397
   25CHL1  H16B 2979   2.184   5.663   5.246 -0.0368 -0.7803 -0.6270
   25CHL1   C17 2980   2.339   5.499   5.276 -0.3048 -0.2328 -0.4189
   25CHL1   H17 2981   2.410   5.576   5.312 -0.0704 -0.7725  0.2950
   25CHL1   C13 2982   2.326   5.385   5.383 -0.0672 -0.1440  0.2878
   25CHL1   C18 2983   2.255   5.264   5.326 -0.0816  0.3605  0.2950
   25CHL1  H18A 2984   2.312   5.217   5.243  0.2291 -0.6718  1.0782
   25CHL1  H18B 2985   2.226   5.193   5.406 -1.8095  0.4914 -0.1761
   25CHL1  H18C 2986   2.156   5.291   5.284  0.3212 -0.8018 -1.5003
   25CHL1   C12 2987   2.463   5.335   5.440 -0.0081 -0.1045  0.3132
   25CHL1  H12A 2988   2.520   5.283   5.359 -0.3098  0.0571 -0.0029
   25CHL1  H12B 2989   2.529   5.415   5.482 -1.7183  0.2433  2.4929
   25CHL1   C11 2990   2.438   5.244   5.560  0.1214 -0.0798 -0.1292
   25CHL1  H11A 2991   2.404   5.146   5.520  0.8440 -0.1373 -0.6156
   25CHL1  H11B 2992   2.532   5.220   5.615 -0.1796 -2.9267 -0.6872
   25CHL1    C9 2993   2.340   5.303   5.663 -0.2743  0.4214  0.3319
   25CHL1    H9 2994   2.400   5.386   5.707  2.2613 -1.8455  1.4305
   25CHL1   C10 2995   2.333   5.220   5.791  0.8320 -0.0073 -0.1118
   25CHL1   C19 2996   2.291   5.070   5.758  0.2164  0.1882  0.1323
   25CHL1  H19A 2997   2.214   5.063   5.678  0.8927  1.5010 -0.6681
   25CHL1  H19B 2998   2.376   5.014   5.715 -0.3088 -0.3018 -0.2759
   25CHL1  H19C 2999   2.262   5.014   5.850 -0.1457  0.8143  0.4070
   25CHL1    C1 3000   2.477   5.217   5.856 -0.3481 -0.1898 -0.5304
   25CHL1   H1A 3001   2.550   5.158   5.797 -1.2197  1.0338 -3.0142
   25CHL1   H1B 3002   2.530   5.315   5.854 -1.5317  0.4760 -2.0429
   25CHL1    C2 3003   2.488   5.156   6.003 -0.7645  0.2765 -0.1445
   25CHL1   H2A 3004   2.594   5.166   6.035 -0.2544 -0.8352 -1.4055
   25CHL1   H2B 3005   2.462   5.048   5.996  0.2642 -0.0122  0.2663
   25CHL1   C20 3006   2.384   5.461   5.129  0.7572  0.0814  0.3881
   25CHL1   H20 3007   2.370   5.354   5.102 -0.6134  0.1348  0.8258
   25CHL1   C21 3008   2.537   5.476   5.133 -0.2611 -0.6792  0.0155
   25CHL1  H21A 3009   2.571   5.581   5.144 -2.6429  0.1903 -0.3513
   25CHL1  H21B 3010   2.567   5.445   5.031 -2.9577 -0.6520 -0.8750
   25CHL1  H21C 3011   2.584   5.414   5.213  0.3281  0.6439  0.7307
   25CHL1   C22 3012   2.330   5.545   5.018  0.4885  1.0015  1.0006
   25CHL1  H22A 3013   2.219   5.550   5.023  0.1840 -0.8488 -1.7415
   25CHL1  H22B 3014   2.363   5.649   5.039 -0.3928  1.6704 -0.7029
   25CHL1   C23 3015   2.381   5.505   4.878  0.1693 -0.1107 -0.2404
   25CHL1  H23A 3016   2.491   5.517   4.868  0.4315 -1.4569  0.7142
   25CHL1  H23B 3017   2.367   5.398   4.852  2.8299 -0.3831 -0.8039
   25CHL1   C24 3018   2.301   5.582   4.770 -0.3066  0.1726  0.2407
   25CHL1  H24A 3019   2.191   5.584   4.781 -0.3155  1.7008  0.0166
   25CHL1  H24B 3020   2.339   5.686   4.767 -1.4121  0.6540  1.7255
   25CHL1   C25 3021   2.333   5.514   4.637 -0.4876 -0.9087  0.4512
   25CHL1   H25 3022   2.443   5.499   4.640  0.3301  3.4485 -0.1000
   25CHL1   C26 3023   2.248   5.391   4.611 -0.1033 -0.1316  0.2665
   25CHL1  H26A 3024   2.146   5.413   4.573 -0.0304 -0.4999 -0.1585
   25CHL1  H26B 3025   2.290   5.318   4.538  0.3427  0.0368  0.3464
   25CHL1  H26C 3026   2.239   5.338   4.709  0.7297 -0.4823  0.1709
   25CHL1   C27 3027   2.306   5.619   4.529  0.3311  0.2396 -0.3626
   25CHL1  H27A 3028   2.288   5.570   4.431 -1.5146  0.6840 -0.2892
   25CHL1  H27B 3029   2.211   5.677   4.535  1.5013  2.2723 -0.2968
   25CHL1  H27C 3030   2.390   5.693   4.531  0.9421 -0.4598  0.8621
   26CHL1    C3 3031   5.879   1.334   6.164 -0.1612 -0.2648  0.6118
   26CHL1    H3 3032   5.795   1.263   6.144  0.2080 -0.3401 -0.7605
   26CHL1    O3 3033   5.880   1.370   6.296  0.8895  0.1039  1.1971
   26CHL1   H3' 3034   5.952   1.434   6.300  0.9145  0.4180 -1.7820
   26CHL1    C4 3035   6.016   1.287   6.119 -0.6192  1.5826 -0.1131
   26CHL1   H4A 3036   6.097   1.357   6.147  1.3988  0.3287 -2.3985
   26CHL1   H4B 3037   6.033   1.195   6.178  0.3085  1.1329 -1.0437
   26CHL1    C5 3038   6.027   1.264   5.970 -0.4757 -0.1369  0.7319
   26CHL1    C6 3039   6.071   1.147   5.912  0.6846 -0.6444  0.2049
   26CHL1    H6 3040   6.100   1.063   5.977  0.0155 -0.7356  0.3919
   26CHL1    C7 3041   6.103   1.131   5.769  0.1683 -0.1977 -1.1222
   26CHL1   H7A 3042   6.198   1.073   5.765  0.3511 -0.3049  2.2155
   26CHL1   H7B 3043   6.022   1.066   5.729 -0.5980 -0.0454  0.1178
   26CHL1    C8 3044   6.098   1.265   5.693 -0.5539 -0.2073 -0.0189
   26CHL1    H8 3045   6.194   1.314   5.717 -1.0273 -1.0978  4.4261
   26CHL1   C14 3046   6.091   1.237   5.545  0.2442 -0.4283 -0.0628
   26CHL1   H14 3047   5.994   1.185   5.534 -0.9509  1.5336  0.6518
   26CHL1   C15 3048   6.203   1.151   5.482  0.3286  0.7622 -0.1390
   26CHL1  H15A 3049   6.296   1.199   5.518  1.7099 -1.0337 -1.1156
   26CHL1  H15B 3050   6.204   1.045   5.515 -3.1244 -0.3737 -2.8814
   26CHL1   C16 3051   6.183   1.186   5.333 -0.7361 -0.1436 -0.3892
   26CHL1  H16A 3052   6.277   1.237   5.302 -1.5176  2.1128  0.7264
   26CHL1  H16B 3053   6.157   1.100   5.267  0.4856  0.3059 -1.5011
   26CHL1   C17 3054   6.070   1.292   5.319  0.1589 -0.4536  0.8944
   26CHL1   H17 3055   5.975   1.235   5.305 -1.0869  2.0193 -1.7778
   26CHL1   C13 3056   6.065   1.362   5.455  0.0956  0.4838 -0.3465
   26CHL1   C18 3057   6.183   1.458   5.458  0.7004  0.2553  0.5334
   26CHL1  H18A 3058   6.269   1.395   5.427  0.5780 -1.2118  2.9019
   26CHL1  H18B 3059   6.166   1.552   5.402  1.1497 -0.2280 -0.4423
   26CHL1  H18C 3060   6.205   1.488   5.563  2.8210 -0.0486  0.2270
   26CHL1   C12 3061   5.933   1.428   5.493  0.7365  0.1810  0.4928
   26CHL1  H12A 3062   5.910   1.511   5.423  1.9561 -0.2242 -0.4313
   26CHL1  H12B 3063   5.853   1.351   5.497  0.3263  0.6592  2.9927
   26CHL1   C11 3064   5.941   1.466   5.644  0.6024  0.4098  0.2311
   26CHL1  H11A 3065   6.007   1.555   5.653  1.8415 -0.0535 -2.8979
   26CHL1  H11B 3066   5.842   1.509   5.668  1.3688  1.6716  1.3134
   26CHL1    C9 3067   5.983   1.353   5.741  0.1899  0.3195  0.4846
   26CHL1    H9 3068   5.898   1.284   5.725  0.7822 -0.4091  0.4523
   26CHL1   C10 3069   5.988   1.389   5.891  0.6953 -0.5670 -0.1230
   26CHL1   C19 3070   6.100   1.492   5.913  0.0070 -0.4027  0.7667
   26CHL1  H19A 3071   6.108   1.501   6.023  0.4662 -0.0018  0.7038
   26CHL1  H19B 3072   6.195   1.457   5.868 -1.6239 -0.2344 -3.2270
   26CHL1  H19C 3073   6.073   1.590   5.869 -1.2797 -0.5167  1.2697
   26CHL1    C1 3074   5.851   1.434   5.941  0.4113  0.4228 -0.2881
   26CHL1   H1A 3075   5.821   1.525   5.885 -0.6525  1.4532  1.8421
   26CHL1   H1B 3076   5.776   1.360   5.906  0.1786 -0.4429  1.8727
   26CHL1    C2 3077   5.830   1.458   6.093  0.3411  0.7194 -0.5305
   26CHL1   H2A 3078   5.722   1.466   6.119 -0.5475 -1.5334 -3.0523
   26CHL1   H2B 3079   5.877   1.554   6.121 -1.2861  1.0854  1.1189
   26CHL1   C20 3080   6.084   1.379   5.189 -0.6011 -0.2142  0.0865
   26CHL1   H20 3081   6.149   1.467   5.207 -2.7822  1.8137 -1.2355
   26CHL1   C21 3082   5.948   1.439   5.164  0.8015  0.4734 -0.2594
   26CHL1  H21A 3083   5.926   1.535   5.214  1.1281  1.1063 -1.3035
   26CHL1  H21B 3084   5.871   1.366   5.197  0.9284 -0.1255 -1.2575
   26CHL1  H21C 3085   5.929   1.452   5.055  1.7309 -1.9621 -0.7930
   26CHL1   C22 3086   6.142   1.306   5.060 -0.0372  0.4936  0.1611
   26CHL1  H22A 3087   6.237   1.259   5.094 -1.2932 -1.3074  1.3944
   26CHL1  H22B 3088   6.070   1.225   5.033  0.9245 -0.1308 -0.6119
   26CHL1   C23 3089   6.185   1.413   4.947  0.6781 -0.7604 -0.5670
   26CHL1  H23A 3090   6.095   1.437   4.887  1.5289  2.0438 -0.8395
   26CHL1  H23B 3091   6.224   1.499   5.005  1.1446 -1.1296 -0.3221
   26CHL1   C24 3092   6.284   1.338   4.859 -0.8741  0.3952  0.2566
   26CHL1  H24A 3093   6.387   1.325   4.899 -0.5834  0.2706 -0.5144
   26CHL1  H24B 3094   6.244   1.235   4.851  0.9253 -0.3713  0.6499
   26CHL1   C25 3095   6.309   1.395   4.723 -0.0923  0.2895 -0.0957
   26CHL1   H25 3096   6.204   1.406   4.689 -0.2495 -1.8635 -0.4239
   26CHL1   C26 3097   6.386   1.525   4.740 -0.2256 -0.4520 -0.5463
   26CHL1  H26A 3098   6.478   1.517   4.803 -1.0717 -0.7898  0.6862
   26CHL1  H26B 3099   6.412   1.573   4.644 -2.7781  1.5766 -0.3096
   26CHL1  H26C 3100   6.323   1.600   4.791  0.8784  0.2105 -0.1038
   26CHL1   C27 3101   6.376   1.294   4.624 -0.3879 -0.1920  0.3238
   26CHL1  H27A 3102   6.466   1.244   4.668 -0.6177 -1.8082 -0.9632
   26CHL1  H27B 3103   6.311   1.205   4.609  0.4055 -0.3866 -2.3802
   26CHL1  H27C 3104   6.411   1.339   4.529  1.7886  1.7432  1.9131
   27CHL1    C3 3105   4.472   1.358   5.823  0.5890 -0.2728 -0.3357
   27CHL1    H3 3106   4.386   1.290   5.804 -0.9405  0.7282  2.3561
   27CHL1    O3 3107   4.470   1.398   5.959  0.0875 -0.0226  0.3352
   27CHL1   H3' 3108   4.518   1.481   5.960  0.0049  0.0634  2.4565
   27CHL1    C4 3109   4.604   1.281   5.783 -0.2083  0.5457 -0.5347
   27CHL1   H4A 3110   4.670   1.364   5.816  0.4486  0.4178 -1.5183
   27CHL1   H4B 3111   4.612   1.198   5.857 -1.0583  1.5464  0.7340
   27CHL1    C5 3112   4.631   1.252   5.639  0.5310 -0.1846 -0.0131
   27CHL1    C6 3113   4.655   1.129   5.590  0.1083 -0.3970 -0.6360
   27CHL1    H6 3114   4.674   1.043   5.655  0.0661  0.7391  0.9617
   27CHL1    C7 3115   4.681   1.100   5.442 -0.5574 -0.5607 -0.7423
   27CHL1   H7A 3116   4.782   1.056   5.424 -0.9057 -1.1084 -1.3909
   27CHL1   H7B 3117   4.611   1.023   5.405  0.9105 -1.7057 -1.2406
   27CHL1    C8 3118   4.670   1.231   5.354  0.5439  0.6152  0.5999
   27CHL1    H8 3119   4.773   1.272   5.357  0.2713  1.8023 -2.6332
   27CHL1   C14 3120   4.640   1.185   5.209  0.2447  0.1140 -0.6468
   27CHL1   H14 3121   4.532   1.164   5.197 -0.1942  2.4743 -1.3348
   27CHL1   C15 3122   4.720   1.068   5.159 -0.1927  0.0213 -0.0543
   27CHL1  H15A 3123   4.828   1.067   5.184  1.0815  2.6956 -4.3511
   27CHL1  H15B 3124   4.673   0.978   5.204  1.7164  0.5453  3.3659
   27CHL1   C16 3125   4.709   1.091   5.011  0.2554 -0.0821  0.2335
   27CHL1  H16A 3126   4.812   1.081   4.972  1.4775 -1.3064  3.4428
   27CHL1  H16B 3127   4.649   1.015   4.956 -0.8608  1.3166 -0.5404
   27CHL1   C17 3128   4.643   1.228   4.982  0.0556 -0.0976  0.2037
   27CHL1   H17 3129   4.534   1.210   4.969 -0.3049  1.8265  0.1972
   27CHL1   C13 3130   4.652   1.302   5.111 -0.1645  0.2116  0.4817
   27CHL1   C18 3131   4.794   1.368   5.114 -0.2957  0.0345 -0.0329
   27CHL1  H18A 3132   4.880   1.305   5.083 -0.1687  0.4402 -0.5260
   27CHL1  H18B 3133   4.789   1.466   5.062  0.4836  1.2612  2.0853
   27CHL1  H18C 3134   4.823   1.399   5.217  0.1478 -1.7485  0.4046
   27CHL1   C12 3135   4.541   1.404   5.147  0.8316  1.0864  0.8799
   27CHL1  H12A 3136   4.555   1.492   5.082  1.9740  0.1352 -0.2333
   27CHL1  H12B 3137   4.443   1.354   5.134  2.1847 -1.4390 -0.4628
   27CHL1   C11 3138   4.558   1.450   5.293 -0.6955  0.3975 -0.0669
   27CHL1  H11A 3139   4.654   1.505   5.288 -0.7498  0.5208  0.2641
   27CHL1  H11B 3140   4.475   1.520   5.317 -1.9890 -1.9313  2.8598
   27CHL1    C9 3141   4.569   1.338   5.401 -0.1445 -0.5892 -0.5748
   27CHL1    H9 3142   4.465   1.299   5.408 -0.4310  0.2684  0.1558
   27CHL1   C10 3143   4.596   1.378   5.554 -1.1187 -0.6437  0.2273
   27CHL1   C19 3144   4.726   1.465   5.560 -0.4214 -0.0129 -0.3339
   27CHL1  H19A 3145   4.809   1.414   5.506  0.7372  2.4529 -1.0387
   27CHL1  H19B 3146   4.700   1.561   5.511  0.1357  0.5785  0.4948
   27CHL1  H19C 3147   4.762   1.486   5.663 -1.6488 -0.9605  0.3210
   27CHL1    C1 3148   4.475   1.464   5.595  0.1490  0.1025 -0.8832
   27CHL1   H1A 3149   4.481   1.560   5.539  2.4240  1.8153  1.9439
   27CHL1   H1B 3150   4.388   1.404   5.563 -0.7685  1.5754 -1.2158
   27CHL1    C2 3151   4.453   1.490   5.745  0.1361  0.6665  0.1293
   27CHL1   H2A 3152   4.357   1.532   5.780 -0.1309  0.3771 -0.2474
   27CHL1   H2B 3153   4.539   1.556   5.772  1.2500 -0.6248 -0.1155
   27CHL1   C20 3154   4.686   1.301   4.850 -0.3434 -0.4411 -0.3269
   27CHL1   H20 3155   4.795   1.318   4.861  0.5384 -3.9686 -2.2060
   27CHL1   C21 3156   4.623   1.443   4.834  0.9499  0.1118 -0.2504
   27CHL1  H21A 3157   4.526   1.443   4.888  0.1711 -2.0403 -1.5409
   27CHL1  H21B 3158   4.616   1.484   4.731  0.5020  1.0622  0.1518
   27CHL1  H21C 3159   4.684   1.511   4.897  1.2593 -0.0629 -0.3577
   27CHL1   C22 3160   4.657   1.216   4.725  0.2325  0.7862 -0.5733
   27CHL1  H22A 3161   4.685   1.109   4.737  0.6052  0.7554 -1.6291
   27CHL1  H22B 3162   4.547   1.219   4.713  0.1365  0.0998  0.0937
   27CHL1   C23 3163   4.725   1.254   4.595 -0.6035 -0.0446 -0.3059
   27CHL1  H23A 3164   4.658   1.224   4.511 -1.7040  0.6485  0.2919
   27CHL1  H23B 3165   4.732   1.364   4.588 -0.9448 -0.0651 -1.0582
   27CHL1   C24 3166   4.865   1.194   4.576  0.1212  0.3900 -0.2142
   27CHL1  H24A 3167   4.922   1.216   4.669 -1.3088  1.4107  0.4841
   27CHL1  H24B 3168   4.855   1.086   4.554 -0.6001  0.2551  0.7072
   27CHL1   C25 3169   4.954   1.266   4.472  0.3576 -0.7199 -0.4132
   27CHL1   H25 3170   4.964   1.369   4.514 -2.4310 -0.4443 -0.2391
   27CHL1   C26 3171   5.094   1.206   4.468  0.1290  0.3287 -0.3772
   27CHL1  H26A 3172   5.162   1.266   4.404  0.5598  2.0509  1.5822
   27CHL1  H26B 3173   5.132   1.213   4.572 -1.6443 -1.9299  0.5068
   27CHL1  H26C 3174   5.091   1.102   4.430 -0.5098  1.0883 -2.5550
   27CHL1   C27 3175   4.887   1.275   4.331 -0.4834 -0.7443  0.5536
   27CHL1  H27A 3176   4.778   1.296   4.331 -0.4861 -0.1163 -2.7083
   27CHL1  H27B 3177   4.906   1.183   4.271 -1.4222  1.2617 -3.1248
   27CHL1  H27C 3178   4.935   1.359   4.276  2.7227 -2.0603  1.1137
   28CHL1    C3 3179   2.186   6.228   5.803  0.0354  0.2230 -0.0343
   28CHL1    H3 3180   2.088   6.187   5.768  0.4870 -1.0457  0.1321
   28CHL1    O3 3181   2.175   6.241   5.948  0.1327  0.3390  0.2560
   28CHL1   H3' 3182   2.090   6.282   5.963  0.8194  2.1620 -0.5161
   28CHL1    C4 3183   2.299   6.129   5.770 -0.4057 -0.3123  0.1645
   28CHL1   H4A 3184   2.396   6.169   5.805 -0.8748 -0.4098  1.6679
   28CHL1   H4B 3185   2.278   6.035   5.826 -1.2190 -0.5572 -0.5335
   28CHL1    C5 3186   2.297   6.105   5.624 -0.6017 -0.5017 -0.2387
   28CHL1    C6 3187   2.277   5.992   5.570  0.3236  0.5437  0.7138
   28CHL1    H6 3188   2.267   5.905   5.636  1.6280  0.2346  0.5202
   28CHL1    C7 3189   2.278   5.959   5.419 -0.2468 -0.6821 -0.3503
   28CHL1   H7A 3190   2.335   5.865   5.411  1.0785  0.0178  0.5103
   28CHL1   H7B 3191   2.173   5.938   5.389 -0.8292 -0.1625  1.2122
   28CHL1    C8 3192   2.343   6.076   5.340  0.1287  0.2055 -0.1006
   28CHL1    H8 3193   2.452   6.077   5.358 -0.0426 -1.2535  1.1531
   28CHL1   C14 3194   2.308   6.046   5.192  0.5557 -0.4295  0.1798
   28CHL1   H14 3195   2.197   6.052   5.186  0.5447 -0.5748  0.2182
   28CHL1   C15 3196   2.336   5.909   5.127 -0.4519 -0.2750 -1.2763
   28CHL1  H15A 3197   2.432   5.870   5.168 -1.1392 -1.0003 -0.3222
   28CHL1  H15B 3198   2.258   5.834   5.152 -0.0698  0.4516  2.6434
   28CHL1   C16 3199   2.340   5.934   4.978  0.3327 -0.0867 -0.5018
   28CHL1  H16A 3200   2.444   5.917   4.943  1.4168  0.8110  2.0444
   28CHL1  H16B 3201   2.265   5.876   4.920  1.7308 -2.3359 -0.1998
   28CHL1   C17 3202   2.324   6.089   4.957  0.6749  0.2673  0.0585
   28CHL1   H17 3203   2.215   6.108   4.949  0.7270  0.5007 -0.0977
   28CHL1   C13 3204   2.368   6.142   5.095 -0.2658  0.1412 -0.0784
   28CHL1   C18 3205   2.525   6.126   5.104 -0.0502 -0.1788 -0.4530
   28CHL1  H18A 3206   2.573   6.173   5.016 -1.7950  0.6814 -0.9819
   28CHL1  H18B 3207   2.565   6.185   5.189 -1.3370 -0.8469  0.6727
   28CHL1  H18C 3208   2.569   6.024   5.112  0.5263 -0.1728 -2.7945
   28CHL1   C12 3209   2.323   6.286   5.132 -0.3511  0.7163 -0.9096
   28CHL1  H12A 3210   2.377   6.363   5.075  1.0796  0.3516 -0.0975
   28CHL1  H12B 3211   2.217   6.302   5.102 -0.9365 -1.0312  0.0589
   28CHL1   C11 3212   2.345   6.314   5.286 -0.1002 -0.0113 -0.0109
   28CHL1  H11A 3213   2.456   6.326   5.291 -0.2636  1.1472  1.8616
   28CHL1  H11B 3214   2.303   6.415   5.306  1.7041  0.7611  0.0687
   28CHL1    C9 3215   2.292   6.208   5.387  0.0898 -0.5317 -0.0257
   28CHL1    H9 3216   2.181   6.202   5.376 -0.0926  2.3970 -0.3351
   28CHL1   C10 3217   2.311   6.233   5.538 -0.1828 -0.7738  0.4272
   28CHL1   C19 3218   2.458   6.276   5.550 -0.1494  0.1976  0.5363
   28CHL1  H19A 3219   2.486   6.364   5.489 -2.8796 -0.2765 -1.6276
   28CHL1  H19B 3220   2.487   6.293   5.656  1.4039 -2.0104  0.5134
   28CHL1  H19C 3221   2.529   6.198   5.517  0.1067 -0.0353  1.5744
   28CHL1    C1 3222   2.212   6.343   5.591 -0.5396  0.6493 -0.3553
   28CHL1   H1A 3223   2.239   6.440   5.544 -0.4969  0.2491 -1.1768
   28CHL1   H1B 3224   2.113   6.321   5.545  0.3328 -0.2454 -1.8721
   28CHL1    C2 3225   2.218   6.362   5.744 -0.8135  0.2278 -0.2693
   28CHL1   H2A 3226   2.146   6.444   5.764 -0.7698  0.5601 -1.4045
   28CHL1   H2B 3227   2.315   6.405   5.779  0.1200 -0.2056 -2.2166
   28CHL1   C20 3228   2.380   6.132   4.820 -0.1181  0.2106  0.2606
   28CHL1   H20 3229   2.487   6.100   4.815 -0.1318  0.2675 -0.5603
   28CHL1   C21 3230   2.387   6.293   4.808 -0.1650  0.5192 -0.2449
   28CHL1  H21A 3231   2.460   6.325   4.732  2.6186 -2.4780  0.9339
   28CHL1  H21B 3232   2.430   6.329   4.904 -1.6505 -4.0621  2.5133
   28CHL1  H21C 3233   2.284   6.330   4.788 -0.5048 -0.2163  0.0812
   28CHL1   C22 3234   2.299   6.069   4.699  0.9083  0.2579  0.4199
   28CHL1  H22A 3235   2.270   5.962   4.712  1.3484  0.1527  0.5595
   28CHL1  H22B 3236   2.207   6.130   4.712  0.1703 -0.2091 -2.0134
   28CHL1   C23 3237   2.363   6.095   4.553  0.0206  0.3074 -0.0554
   28CHL1  H23A 3238   2.364   6.201   4.521  2.7343  1.0264  2.0397
   28CHL1  H23B 3239   2.467   6.057   4.553 -0.0627 -0.0342  1.8299
   28CHL1   C24 3240   2.289   6.026   4.435  0.0676 -1.0871  0.1612
   28CHL1  H24A 3241   2.284   5.921   4.473  0.4517 -0.6922  1.3813
   28CHL1  H24B 3242   2.190   6.075   4.431  0.5552  0.4977  3.6516
   28CHL1   C25 3243   2.356   6.033   4.299 -0.2051  0.2533  0.8187
   28CHL1   H25 3244   2.383   6.135   4.265  1.9133 -1.0305 -1.7814
   28CHL1   C26 3245   2.495   5.958   4.282 -0.4661 -0.6043  0.7813
   28CHL1  H26A 3246   2.570   6.014   4.342 -0.4175  0.7114 -0.4382
   28CHL1  H26B 3247   2.482   5.851   4.309 -1.3658 -0.5774  0.4991
   28CHL1  H26C 3248   2.529   5.957   4.176  0.3407 -1.6172  1.0445
   28CHL1   C27 3249   2.260   5.983   4.182  0.1148  0.1437  0.4233
   28CHL1  H27A 3250   2.251   5.874   4.202 -3.1829  0.4622  1.1043
   28CHL1  H27B 3251   2.166   6.041   4.181  0.0274  0.0944 -2.2570
   28CHL1  H27C 3252   2.310   6.006   4.085 -0.3390 -2.9708 -0.6619
   29CHL1    C3 3253   3.259   1.276   6.100  0.0496  0.7745  0.3356
   29CHL1    H3 3254   3.356   1.325   6.077  0.1116 -0.3799 -2.1490
   29CHL1    O3 3255   3.259   1.250   6.239 -0.3111  0.1124  0.2703
   29CHL1   H3' 3256   3.188   1.187   6.254 -1.8697  1.0203 -2.5643
   29CHL1    C4 3257   3.143   1.379   6.066 -0.4100  0.8504  0.4941
   29CHL1   H4A 3258   3.047   1.327   6.091 -1.3713  2.4565  0.2478
   29CHL1   H4B 3259   3.156   1.473   6.123 -1.2752 -0.0257  2.2453
   29CHL1    C5 3260   3.127   1.408   5.916 -0.5859  0.2779 -0.5978
   29CHL1    C6 3261   3.130   1.536   5.873  0.0790 -0.3113  0.1453
   29CHL1    H6 3262   3.151   1.614   5.948  0.3503 -1.1060  0.9131
   29CHL1    C7 3263   3.107   1.578   5.729 -0.1451 -0.3100 -0.2429
   29CHL1   H7A 3264   3.038   1.664   5.712 -1.6806 -0.8587  2.5437
   29CHL1   H7B 3265   3.207   1.608   5.691  0.2132 -1.9458 -0.6817
   29CHL1    C8 3266   3.066   1.457   5.639 -0.2052  0.1054  0.4688
   29CHL1    H8 3267   2.958   1.453   5.668 -0.1443 -0.5248  0.6213
   29CHL1   C14 3268   3.073   1.489   5.492  0.3461  0.4010 -0.1753
   29CHL1   H14 3269   3.179   1.506   5.464 -0.0636 -0.3033 -2.3849
   29CHL1   C15 3270   3.002   1.611   5.429 -0.3871 -0.1683  0.1914
   29CHL1  H15A 3271   2.895   1.602   5.459 -1.3539 -2.5677 -3.3390
   29CHL1  H15B 3272   3.054   1.705   5.458 -2.3022  0.9737  0.1735
   29CHL1   C16 3273   3.001   1.597   5.276  0.4260 -0.0830 -0.6287
   29CHL1  H16A 3274   2.906   1.629   5.227  0.1442  1.3303  0.7348
   29CHL1  H16B 3275   3.092   1.640   5.230  0.0361  0.5712 -0.8064
   29CHL1   C17 3276   3.021   1.443   5.260 -0.0714 -0.1415  0.0260
   29CHL1   H17 3277   3.128   1.442   5.230  0.1017  0.6996  0.5718
   29CHL1   C13 3278   3.021   1.379   5.408 -0.0663  0.1376 -0.2451
   29CHL1   C18 3279   2.873   1.348   5.442 -0.1231 -0.4852  0.4625
   29CHL1  H18A 3280   2.842   1.247   5.407 -0.6449 -1.1307  2.5999
   29CHL1  H18B 3281   2.849   1.332   5.549  1.0622 -1.6695  0.5889
   29CHL1  H18C 3282   2.806   1.420   5.391 -0.0770 -2.0350 -1.9495
   29CHL1   C12 3283   3.112   1.259   5.432 -0.2792 -0.0737 -0.5015
   29CHL1  H12A 3284   3.102   1.172   5.363  1.5325 -1.6025  1.0329
   29CHL1  H12B 3285   3.212   1.293   5.397  0.6104 -1.2814  0.7371
   29CHL1   C11 3286   3.112   1.208   5.584 -0.1031 -0.0089  0.3130
   29CHL1  H11A 3287   3.012   1.160   5.592  0.5088 -1.2999  0.5678
   29CHL1  H11B 3288   3.190   1.130   5.590  1.9378  1.7790 -1.3827
   29CHL1    C9 3289   3.137   1.325   5.680 -0.1401 -0.1581 -0.8579
   29CHL1    H9 3290   3.244   1.353   5.668 -0.3017  1.1838  0.4805
   29CHL1   C10 3291   3.109   1.286   5.828  0.3861  0.1338  0.2174
   29CHL1   C19 3292   2.969   1.222   5.846  0.2567 -0.2217  0.2379
   29CHL1  H19A 3293   2.944   1.208   5.953 -2.3595  2.3107  0.0924
   29CHL1  H19B 3294   2.891   1.287   5.800  0.3681 -0.8835 -0.9414
   29CHL1  H19C 3295   2.954   1.124   5.796 -0.3597 -1.3207  2.4365
   29CHL1    C1 3296   3.225   1.193   5.865 -0.5966  0.5938  0.5360
   29CHL1   H1A 3297   3.214   1.103   5.801 -0.9392  0.7378  0.3912
   29CHL1   H1B 3298   3.324   1.238   5.840  0.2857 -0.9791  1.0158
   29CHL1    C2 3299   3.228   1.155   6.016 -1.4053  0.5304  0.2140
   29CHL1   H2A 3300   3.313   1.083   6.028 -0.5444  1.2869 -1.1606
   29CHL1   H2B 3301   3.133   1.099   6.029  0.2196 -2.6407 -0.5050
   29CHL1   C20 3302   2.934   1.382   5.148 -0.3110  0.2835  0.6367
   29CHL1   H20 3303   2.826   1.394   5.174 -0.3226 -1.2823  1.4033
   29CHL1   C21 3304   2.963   1.229   5.137 -0.5710  0.1487  0.7264
   29CHL1  H21A 3305   3.072   1.219   5.117 -0.7884  1.8979 -1.6987
   29CHL1  H21B 3306   2.917   1.173   5.053  0.7432 -0.0119  0.0809
   29CHL1  H21C 3307   2.943   1.164   5.225  0.2206 -0.6931  0.2978
   29CHL1   C22 3308   2.957   1.460   5.018 -0.4695 -0.1721  0.7678
   29CHL1  H22A 3309   2.890   1.411   4.944  1.3990 -1.4580 -0.1578
   29CHL1  H22B 3310   2.924   1.566   5.021 -0.6118 -0.0626 -1.9034
   29CHL1   C23 3311   3.100   1.454   4.953 -0.5647 -0.0216 -0.1554
   29CHL1  H23A 3312   3.162   1.493   5.036  0.7974  1.2467 -1.6975
   29CHL1  H23B 3313   3.130   1.348   4.934 -1.2917  0.1098 -2.2668
   29CHL1   C24 3314   3.118   1.520   4.815 -0.6539  0.2065 -0.7986
   29CHL1  H24A 3315   3.063   1.616   4.823 -0.7133  0.0472  1.8369
   29CHL1  H24B 3316   3.226   1.543   4.807 -0.6729  0.3932 -0.5434
   29CHL1   C25 3317   3.093   1.431   4.691  0.2786 -0.2095  0.9059
   29CHL1   H25 3318   3.002   1.368   4.698  0.0401  0.1121  0.7410
   29CHL1   C26 3319   3.077   1.526   4.568  0.2231  0.4737  0.7650
   29CHL1  H26A 3320   3.057   1.459   4.482 -1.6876  0.7208  0.9657
   29CHL1  H26B 3321   2.992   1.597   4.579 -0.2075 -0.2750  2.9997
   29CHL1  H26C 3322   3.176   1.574   4.553  1.6773 -2.7692 -1.1145
   29CHL1   C27 3323   3.200   1.328   4.652 -0.2510 -0.3057  0.4297
   29CHL1  H27A 3324   3.282   1.366   4.588 -0.3368  0.5892  0.8359
   29CHL1  H27B 3325   3.234   1.294   4.753 -3.6728 -1.1369  1.4574
   29CHL1  H27C 3326   3.151   1.248   4.594  0.6260  0.0694 -0.8613
   30CHL1    C3 3327   4.079   2.526   6.506 -0.4460 -0.0240 -0.3351
   30CHL1    H3 3328   3.990   2.463   6.485 -1.7962  1.0557  1.8233
   30CHL1    O3 3329   4.103   2.550   6.649 -0.0388 -0.0589  0.0163
   30CHL1   H3' 3330   4.085   2.473   6.703  1.9218  0.1173  1.0356
   30CHL1    C4 3331   4.196   2.453   6.452  0.2263 -0.2796 -0.5398
   30CHL1   H4A 3332   4.292   2.502   6.480 -0.5880 -0.1193  2.2252
   30CHL1   H4B 3333   4.199   2.360   6.513 -1.1984 -0.0289 -0.0631
   30CHL1    C5 3334   4.177   2.431   6.303  0.7559 -0.0192 -0.4765
   30CHL1    C6 3335   4.181   2.313   6.249  0.2099 -0.1216 -0.1707
   30CHL1    H6 3336   4.199   2.227   6.316  0.6767  0.7487  0.8545
   30CHL1    C7 3337   4.182   2.289   6.103  0.3141 -0.0663 -0.3882
   30CHL1   H7A 3338   4.259   2.209   6.096  1.6024  0.8387  2.2558
   30CHL1   H7B 3339   4.087   2.244   6.067  1.2116 -0.8740 -1.8844
   30CHL1    C8 3340   4.214   2.414   6.010 -0.6437 -0.6538  0.3294
   30CHL1    H8 3341   4.320   2.443   6.024 -0.0031 -3.0115  0.7280
   30CHL1   C14 3342   4.188   2.388   5.866 -0.4189 -0.5319  0.0868
   30CHL1   H14 3343   4.079   2.367   5.863 -0.9413  1.9151  0.3185
   30CHL1   C15 3344   4.257   2.258   5.805  0.3455 -0.3837  0.6162
   30CHL1  H15A 3345   4.366   2.265   5.827  0.0484  0.4524  1.9701
   30CHL1  H15B 3346   4.205   2.167   5.841 -0.2090 -0.6581 -0.8262
   30CHL1   C16 3347   4.233   2.284   5.655 -0.5434  0.3552 -0.5421
   30CHL1  H16A 3348   4.323   2.275   5.590 -0.2961 -0.3436 -0.1073
   30CHL1  H16B 3349   4.155   2.224   5.604 -0.1036  1.8151 -3.1708
   30CHL1   C17 3350   4.172   2.433   5.633  0.1632 -0.7255 -0.8948
   30CHL1   H17 3351   4.062   2.434   5.620 -0.1503  2.0821  1.0419
   30CHL1   C13 3352   4.200   2.506   5.769  0.3056  0.9869 -0.0559
   30CHL1   C18 3353   4.344   2.568   5.763  0.0529 -0.0940  0.5867
   30CHL1  H18A 3354   4.402   2.488   5.711 -2.3898 -1.7165  0.1808
   30CHL1  H18B 3355   4.328   2.663   5.707 -0.7634 -0.7640 -0.3687
   30CHL1  H18C 3356   4.394   2.588   5.860  1.1938 -1.5942  0.3575
   30CHL1   C12 3357   4.093   2.607   5.820  0.4356 -0.2325  0.5599
   30CHL1  H12A 3358   4.098   2.700   5.760  3.3679 -0.5972  0.0720
   30CHL1  H12B 3359   3.988   2.574   5.826 -0.0320  1.2548  1.0099
   30CHL1   C11 3360   4.132   2.652   5.963  0.0245  0.3680 -0.3091
   30CHL1  H11A 3361   4.218   2.722   5.967 -0.3363  0.7833  0.4822
   30CHL1  H11B 3362   4.045   2.719   5.983 -0.9631 -1.4548  2.0694
   30CHL1    C9 3363   4.139   2.536   6.068  0.4443 -0.7730 -0.0242
   30CHL1    H9 3364   4.036   2.496   6.071  0.6425 -1.2349  1.1048
   30CHL1   C10 3365   4.167   2.559   6.216  0.4573 -0.0356  0.2380
   30CHL1   C19 3366   4.307   2.632   6.220 -0.1673 -0.3570 -0.2019
   30CHL1  H19A 3367   4.324   2.661   6.326 -1.9174 -0.0281  0.0091
   30CHL1  H19B 3368   4.395   2.577   6.179 -0.9755 -3.0327  1.4643
   30CHL1  H19C 3369   4.307   2.728   6.164 -1.3812  1.0996  2.1409
   30CHL1    C1 3370   4.059   2.646   6.278  0.3452  0.6488 -0.8430
   30CHL1   H1A 3371   4.038   2.744   6.230 -2.1861  1.7662  2.2142
   30CHL1   H1B 3372   3.970   2.580   6.268  1.1710 -0.5903 -0.2528
   30CHL1    C2 3373   4.065   2.669   6.431  0.0515  0.3519  0.2578
   30CHL1   H2A 3374   3.972   2.712   6.475 -1.7669 -2.3489 -0.6730
   30CHL1   H2B 3375   4.149   2.738   6.452 -0.0304  0.4399  0.2954
   30CHL1   C20 3376   4.216   2.507   5.509  0.7780 -0.1151  0.5744
   30CHL1   H20 3377   4.326   2.523   5.509  0.5445  1.8788 -1.1008
   30CHL1   C21 3378   4.135   2.631   5.487 -0.2323  0.7158  0.9712
   30CHL1  H21A 3379   4.027   2.607   5.503 -0.3013 -0.1330 -0.5158
   30CHL1  H21B 3380   4.145   2.683   5.390 -2.1960  1.4153  1.1062
   30CHL1  H21C 3381   4.167   2.714   5.553  0.0174  1.1707  0.2849
   30CHL1   C22 3382   4.174   2.426   5.381 -0.1868 -0.1965  0.2502
   30CHL1  H22A 3383   4.211   2.323   5.399 -0.9124 -0.2388  1.6394
   30CHL1  H22B 3384   4.063   2.428   5.377 -0.1333  0.6265 -1.9243
   30CHL1   C23 3385   4.234   2.467   5.243  0.4830 -0.6374 -0.5814
   30CHL1  H23A 3386   4.204   2.573   5.223  0.2899 -0.4008  0.8606
   30CHL1  H23B 3387   4.345   2.466   5.252  0.3500 -0.6722  1.3540
   30CHL1   C24 3388   4.189   2.377   5.128  0.1330  0.1169  0.0868
   30CHL1  H24A 3389   4.253   2.406   5.042 -0.8362  0.6652 -0.4732
   30CHL1  H24B 3390   4.211   2.270   5.146  0.5888  0.3583  1.0023
   30CHL1   C25 3391   4.047   2.386   5.095  0.3191  0.5555  0.1299
   30CHL1   H25 3392   4.004   2.330   5.181  1.6952 -2.0032 -0.7404
   30CHL1   C26 3393   3.992   2.522   5.093  0.2555 -0.4161  0.0553
   30CHL1  H26A 3394   3.891   2.518   5.046  0.6374 -0.8233 -0.7543
   30CHL1  H26B 3395   3.988   2.563   5.196 -1.9643  2.2542 -0.9646
   30CHL1  H26C 3396   4.053   2.587   5.027 -0.8925  1.1028  0.4349
   30CHL1   C27 3397   4.011   2.312   4.962 -0.1689 -0.2964 -0.2830
   30CHL1  H27A 3398   4.045   2.206   4.971 -1.6622 -0.7189  0.6452
   30CHL1  H27B 3399   3.901   2.316   4.947 -0.3048 -0.6263  0.5461
   30CHL1  H27C 3400   4.061   2.361   4.876 -0.5063  0.0141 -0.3022
   31CHL1    C3 3401   3.760   2.934   6.229 -0.8248  0.0310 -0.1956
   31CHL1    H3 3402   3.747   3.043   6.246 -3.7531 -0.0947 -1.1067
   31CHL1    O3 3403   3.800   2.876   6.353  0.0983 -0.1871 -0.6521
   31CHL1   H3' 3404   3.761   2.788   6.348 -1.8295  0.6233 -0.8983
   31CHL1    C4 3405   3.620   2.880   6.181 -0.1859 -0.1966  0.4661
   31CHL1   H4A 3406   3.627   2.770   6.176  0.2669 -0.1174 -0.9255
   31CHL1   H4B 3407   3.542   2.909   6.255  0.0193 -0.0600  0.6310
   31CHL1    C5 3408   3.587   2.923   6.040 -0.1023 -0.5800  0.2265
   31CHL1    C6 3409   3.470   2.980   6.013  0.6793  0.4723 -0.2313
   31CHL1    H6 3410   3.396   2.994   6.094 -0.3654 -1.4493 -0.7767
   31CHL1    C7 3411   3.425   3.024   5.874 -0.0192  0.0890 -0.4828
   31CHL1   H7A 3412   3.321   2.987   5.860 -0.5841  0.0951  2.8436
   31CHL1   H7B 3413   3.428   3.134   5.858  1.9715  0.1271 -0.1098
   31CHL1    C8 3414   3.521   2.971   5.767  0.1377  0.2072  0.6709
   31CHL1    H8 3415   3.504   2.861   5.764  2.2526 -0.2255  2.2132
   31CHL1   C14 3416   3.503   3.037   5.632  0.0310 -0.2126 -0.1102
   31CHL1   H14 3417   3.520   3.147   5.635 -2.0617  0.1806 -1.1212
   31CHL1   C15 3418   3.361   3.034   5.570  0.0003  0.4628 -0.1496
   31CHL1  H15A 3419   3.315   2.936   5.593 -1.1391  1.2756  1.2657
   31CHL1  H15B 3420   3.302   3.117   5.616  2.5702  3.1559 -1.4374
   31CHL1   C16 3421   3.384   3.060   5.421 -0.7053 -0.1415 -0.7207
   31CHL1  H16A 3422   3.324   2.985   5.364 -1.4532  1.5992 -2.3288
   31CHL1  H16B 3423   3.339   3.157   5.390  0.4015  0.4419 -0.5343
   31CHL1   C17 3424   3.539   3.061   5.397  0.0881 -0.1128  0.5246
   31CHL1   H17 3425   3.562   3.168   5.413  0.9724  0.0299 -1.4410
   31CHL1   C13 3426   3.596   2.989   5.523  0.0807  0.8096 -0.1043
   31CHL1   C18 3427   3.589   2.837   5.503  0.4041  0.3656  0.6172
   31CHL1  H18A 3428   3.651   2.802   5.417 -1.2672  0.3414 -0.6340
   31CHL1  H18B 3429   3.618   2.778   5.592  1.8855  1.1235  0.6709
   31CHL1  H18C 3430   3.486   2.802   5.481  0.6171  1.2292 -2.2539
   31CHL1   C12 3431   3.735   3.033   5.557 -0.3646 -0.7941 -0.1540
   31CHL1  H12A 3432   3.800   3.016   5.469  0.6781  0.0220  0.4296
   31CHL1  H12B 3433   3.741   3.143   5.566  2.6984 -0.7978 -1.2953
   31CHL1   C11 3434   3.776   2.976   5.693 -0.4083  0.6631 -0.2981
   31CHL1  H11A 3435   3.793   2.870   5.663 -0.9371  0.6829 -0.6737
   31CHL1  H11B 3436   3.870   3.029   5.718  0.4940 -2.3458  3.7500
   31CHL1    C9 3437   3.667   2.988   5.804 -0.2056  0.6120 -0.7082
   31CHL1    H9 3438   3.685   3.096   5.823 -0.2804  0.7454 -1.3464
   31CHL1   C10 3439   3.703   2.908   5.937 -0.6451  0.2692  0.5254
   31CHL1   C19 3440   3.713   2.755   5.904  1.0258 -0.3416 -0.3055
   31CHL1  H19A 3441   3.744   2.699   5.994 -0.4424  0.0560  0.4770
   31CHL1  H19B 3442   3.615   2.714   5.873  0.0766 -0.3938  2.4887
   31CHL1  H19C 3443   3.787   2.736   5.823 -0.9058 -2.8846 -1.5923
   31CHL1    C1 3444   3.838   2.964   5.996  0.0077 -1.0221  0.1308
   31CHL1   H1A 3445   3.923   2.935   5.932  0.5540 -0.7509  0.7183
   31CHL1   H1B 3446   3.828   3.074   6.001  2.0951 -0.7938 -0.0654
   31CHL1    C2 3447   3.865   2.906   6.131 -0.6924 -0.1492 -0.0605
   31CHL1   H2A 3448   3.960   2.954   6.162 -1.7827  1.8734  0.2866
   31CHL1   H2B 3449   3.892   2.798   6.122  1.7441  0.3458  0.6028
   31CHL1   C20 3450   3.588   3.018   5.255 -0.1052 -0.3400  0.3059
   31CHL1   H20 3451   3.691   2.979   5.270 -0.3332 -1.4596 -0.8437
   31CHL1   C21 3452   3.613   3.138   5.164  0.2018 -0.2644  0.2856
   31CHL1  H21A 3453   3.517   3.194   5.157  1.5938  2.3588  0.9408
   31CHL1  H21B 3454   3.628   3.104   5.059  0.4275 -0.7595  0.4738
   31CHL1  H21C 3455   3.683   3.214   5.203  0.2549  0.2692 -0.8088
   31CHL1   C22 3456   3.500   2.908   5.189 -0.0329 -0.2363  0.3793
   31CHL1  H22A 3457   3.466   2.822   5.252  1.7390 -0.7249  0.7427
   31CHL1  H22B 3458   3.412   2.955   5.140  1.4032 -0.2883 -2.4631
   31CHL1   C23 3459   3.542   2.825   5.060  0.7128 -0.1298 -0.5224
   31CHL1  H23A 3460   3.584   2.898   4.986  0.0345  0.2244 -0.5616
   31CHL1  H23B 3461   3.617   2.749   5.092  1.2115  1.4331  2.2466
   31CHL1   C24 3462   3.424   2.765   4.995  0.3749 -0.5510 -0.4483
   31CHL1  H24A 3463   3.350   2.726   5.069  0.0433  1.4682  0.3418
   31CHL1  H24B 3464   3.362   2.835   4.936 -0.3959 -1.1134 -0.3159
   31CHL1   C25 3465   3.480   2.645   4.910 -0.0015 -0.1011  0.5091
   31CHL1   H25 3466   3.541   2.577   4.973  1.5315 -0.3426 -1.1527
   31CHL1   C26 3467   3.370   2.565   4.840  0.2578  0.1785 -0.0735
   31CHL1  H26A 3468   3.287   2.539   4.909 -0.7224  2.5397 -0.2972
   31CHL1  H26B 3469   3.323   2.628   4.761  0.0488  1.3255  0.9395
   31CHL1  H26C 3470   3.413   2.471   4.797 -0.5823  0.8660 -2.5910
   31CHL1   C27 3471   3.584   2.685   4.805  0.4629  0.4308 -0.4712
   31CHL1  H27A 3472   3.548   2.765   4.737 -3.9614 -0.2546  0.7656
   31CHL1  H27B 3473   3.674   2.727   4.856  1.0364 -1.8175  0.5055
   31CHL1  H27C 3474   3.636   2.604   4.750 -1.3408 -1.4162  0.4157
   32CHL1    C3 3475   5.920   0.626   5.816 -0.8015  0.4846  0.1247
   32CHL1    H3 3476   5.815   0.661   5.816 -0.6471  0.9715 -0.9358
   32CHL1    O3 3477   5.951   0.589   5.951 -0.4501  0.3880 -0.1539
   32CHL1   H3' 3478   5.954   0.679   5.986 -0.0843  1.0145 -1.7254
   32CHL1    C4 3479   5.929   0.498   5.727  0.1916 -0.6058 -0.4808
   32CHL1   H4A 3480   6.020   0.442   5.758  0.9394  1.7506  1.9678
   32CHL1   H4B 3481   5.837   0.440   5.752  0.4034 -0.5115  0.5720
   32CHL1    C5 3482   5.917   0.534   5.576  0.4981  0.2044 -0.5382
   32CHL1    C6 3483   5.830   0.474   5.493 -0.1937  0.4034 -1.1613
   32CHL1    H6 3484   5.776   0.389   5.536  0.9123 -1.1627 -2.7096
   32CHL1    C7 3485   5.832   0.498   5.346 -0.2271 -0.0486 -0.2509
   32CHL1   H7A 3486   5.828   0.400   5.294  1.1245 -0.3006  0.0960
   32CHL1   H7B 3487   5.737   0.548   5.318 -0.5016 -0.9261 -0.9130
   32CHL1    C8 3488   5.952   0.577   5.291 -0.5695  0.5399  0.7308
   32CHL1    H8 3489   6.037   0.505   5.287 -0.7439  0.3865 -2.2420
   32CHL1   C14 3490   5.911   0.628   5.150  0.0616 -0.4339 -0.1924
   32CHL1   H14 3491   5.832   0.704   5.168 -0.3564 -1.1775  1.2857
   32CHL1   C15 3492   5.842   0.534   5.042 -0.3152  0.3378  0.6079
   32CHL1  H15A 3493   5.877   0.428   5.047 -1.1376  0.0483  0.4270
   32CHL1  H15B 3494   5.733   0.547   5.027  0.0491  1.1822 -1.5449
   32CHL1   C16 3495   5.904   0.584   4.907  0.2742  0.8776 -0.7604
   32CHL1  H16A 3496   5.982   0.517   4.866  0.3121 -0.3366  1.1793
   32CHL1  H16B 3497   5.828   0.581   4.825  0.7045 -0.3713 -1.1313
   32CHL1   C17 3498   5.970   0.726   4.941  0.4149  0.4673  0.0531
   32CHL1   H17 3499   5.882   0.793   4.941 -0.5196 -0.6594 -2.0523
   32CHL1   C13 3500   6.025   0.700   5.084 -0.0560 -0.9424  0.2850
   32CHL1   C18 3501   6.136   0.596   5.073 -0.3577  0.8512  0.0486
   32CHL1  H18A 3502   6.223   0.642   5.023  2.8406 -0.3304  3.9820
   32CHL1  H18B 3503   6.179   0.568   5.172 -0.0165  2.7018  0.4656
   32CHL1  H18C 3504   6.111   0.497   5.029 -1.3095  1.3016 -0.4530
   32CHL1   C12 3505   6.068   0.819   5.166  0.4755 -0.2497  0.0538
   32CHL1  H12A 3506   6.156   0.872   5.124 -0.1355 -0.2686 -1.3075
   32CHL1  H12B 3507   5.985   0.893   5.165 -1.4391 -2.2957 -1.1280
   32CHL1   C11 3508   6.104   0.781   5.315  0.4871  0.5598 -0.7070
   32CHL1  H11A 3509   6.198   0.721   5.314 -1.6166 -2.9879 -1.4615
   32CHL1  H11B 3510   6.106   0.863   5.391  0.4866 -0.3131  0.2534
   32CHL1    C9 3511   5.988   0.694   5.384 -1.0876  0.0468 -0.1903
   32CHL1    H9 3512   5.904   0.766   5.382 -1.1763 -0.0716 -0.9143
   32CHL1   C10 3513   6.013   0.649   5.530  0.1042  0.2251  0.2340
   32CHL1   C19 3514   6.157   0.586   5.551  0.1127 -0.2560  0.7739
   32CHL1  H19A 3515   6.167   0.507   5.474  0.7245  1.7802 -1.3301
   32CHL1  H19B 3516   6.233   0.665   5.534  0.8883 -1.1226  0.0797
   32CHL1  H19C 3517   6.176   0.543   5.653  0.9197 -1.2297  0.2361
   32CHL1    C1 3518   5.996   0.774   5.626 -0.7594 -0.0288 -0.5020
   32CHL1   H1A 3519   6.073   0.848   5.595  0.2980 -0.8731  0.0478
   32CHL1   H1B 3520   5.902   0.828   5.602  0.8291  2.2454 -1.9984
   32CHL1    C2 3521   6.018   0.733   5.769  0.0449  0.2548 -0.0610
   32CHL1   H2A 3522   5.982   0.820   5.827 -1.6105  1.7506 -3.0493
   32CHL1   H2B 3523   6.125   0.708   5.783  0.3891  0.8730 -1.4006
   32CHL1   C20 3524   6.071   0.783   4.835 -0.2080 -0.9360  0.4981
   32CHL1   H20 3525   6.169   0.730   4.831  1.3879  1.9154 -0.8618
   32CHL1   C21 3526   6.104   0.936   4.843  0.1496 -0.1938  0.0023
   32CHL1  H21A 3527   6.158   0.974   4.932 -2.8355 -0.0193  1.8802
   32CHL1  H21B 3528   6.012   0.998   4.847  1.4617  1.8158  0.8958
   32CHL1  H21C 3529   6.162   0.968   4.754 -0.8881 -0.1485 -0.6700
   32CHL1   C22 3530   6.023   0.741   4.690  0.1337  0.0641 -0.0630
   32CHL1  H22A 3531   6.107   0.770   4.624 -1.6029  0.0768 -2.3778
   32CHL1  H22B 3532   6.022   0.630   4.696  0.2585  0.0748  0.1779
   32CHL1   C23 3533   5.896   0.810   4.646 -0.4223 -0.4136 -0.1406
   32CHL1  H23A 3534   5.830   0.791   4.734  0.2988 -1.7411  0.1434
   32CHL1  H23B 3535   5.916   0.918   4.636 -0.2067 -0.5654 -1.6249
   32CHL1   C24 3536   5.833   0.775   4.509  0.1753  0.2181 -0.3753
   32CHL1  H24A 3537   5.819   0.665   4.520 -1.8638  0.4715  0.0120
   32CHL1  H24B 3538   5.727   0.804   4.493 -0.1300 -1.6658 -2.1889
   32CHL1   C25 3539   5.937   0.811   4.397  0.4493  0.3662 -0.1956
   32CHL1   H25 3540   6.041   0.782   4.425 -0.4435 -0.6840  2.3071
   32CHL1   C26 3541   5.895   0.713   4.282  0.2017  0.0482 -0.2983
   32CHL1  H26A 3542   5.939   0.745   4.185  0.1102  1.1678  0.0180
   32CHL1  H26B 3543   5.920   0.608   4.308 -1.5663 -0.3908 -0.2741
   32CHL1  H26C 3544   5.786   0.722   4.264 -0.0524  1.5481  1.6184
   32CHL1   C27 3545   5.919   0.957   4.349  0.0862  0.5853  0.1396
   32CHL1  H27A 3546   5.810   0.968   4.329  0.1980  0.7967 -0.3820
   32CHL1  H27B 3547   5.947   1.033   4.424 -2.2350  1.9865 -0.2839
   32CHL1  H27C 3548   5.977   0.969   4.255  0.6836  0.6938  0.5238
   33CHL1    C3 3549   3.703   0.450   5.803  0.0427  0.4461 -0.3348
   33CHL1    H3 3550   3.734   0.348   5.774 -1.8734 -0.1872 -0.3455
   33CHL1    O3 3551   3.704   0.453   5.943  1.0457 -0.7644  0.5161
   33CHL1   H3' 3552   3.792   0.479   5.971  1.2667 -0.3403 -0.5377
   33CHL1    C4 3553   3.799   0.559   5.746  0.0527  0.7259  0.2124
   33CHL1   H4A 3554   3.775   0.660   5.785  0.8426  1.0916 -0.2335
   33CHL1   H4B 3555   3.891   0.518   5.792 -0.4152  0.5703  1.0561
   33CHL1    C5 3556   3.788   0.548   5.592 -0.0548 -0.1779  0.0602
   33CHL1    C6 3557   3.897   0.520   5.520 -0.6216  0.6380 -0.2173
   33CHL1    H6 3558   3.988   0.498   5.579 -1.6452  0.0160  1.1892
   33CHL1    C7 3559   3.901   0.503   5.373  0.0585  0.2510 -0.1545
   33CHL1   H7A 3560   3.994   0.532   5.321 -1.2209  3.6135 -0.8164
   33CHL1   H7B 3561   3.897   0.396   5.341 -0.4433  0.0227  0.6624
   33CHL1    C8 3562   3.787   0.567   5.301 -0.1820  0.4271 -0.5180
   33CHL1    H8 3563   3.804   0.676   5.317 -1.8723  0.5178  0.9890
   33CHL1   C14 3564   3.785   0.524   5.155  0.2405 -0.8832  0.5465
   33CHL1   H14 3565   3.782   0.414   5.140  1.1176 -0.7142 -1.1142
   33CHL1   C15 3566   3.913   0.566   5.069  0.4312  1.0161 -0.7332
   33CHL1  H15A 3567   3.941   0.671   5.092  0.6557  0.3536  2.5689
   33CHL1  H15B 3568   3.997   0.497   5.095 -1.5503 -0.7811  1.3605
   33CHL1   C16 3569   3.857   0.554   4.932 -0.1333 -0.1601  0.0395
   33CHL1  H16A 3570   3.894   0.644   4.878 -1.0199  0.1709 -0.0312
   33CHL1  H16B 3571   3.897   0.458   4.892  1.4231 -0.3910  1.9724
   33CHL1   C17 3572   3.704   0.541   4.928 -0.5136  0.2151 -0.1779
   33CHL1   H17 3573   3.669   0.436   4.923 -1.1320  0.1157  3.3454
   33CHL1   C13 3574   3.662   0.585   5.074  0.0191  0.0008 -1.0998
   33CHL1   C18 3575   3.668   0.734   5.087  0.4112 -0.5638 -0.3765
   33CHL1  H18A 3576   3.752   0.783   5.033 -1.5028  0.6226 -2.4150
   33CHL1  H18B 3577   3.579   0.778   5.038 -0.3173  0.0218  1.3654
   33CHL1  H18C 3578   3.664   0.768   5.193  0.3702  0.9299 -0.8240
   33CHL1   C12 3579   3.528   0.539   5.130 -0.1069 -0.1772  0.0206
   33CHL1  H12A 3580   3.445   0.593   5.080  0.7956 -0.0836 -1.4093
   33CHL1  H12B 3581   3.515   0.432   5.107 -1.8990 -0.0834  0.4712
   33CHL1   C11 3582   3.527   0.562   5.283 -0.3535  0.0074  0.0197
   33CHL1  H11A 3583   3.519   0.671   5.299 -1.7455 -0.3561  2.0978
   33CHL1  H11B 3584   3.435   0.520   5.328  0.4920 -2.7486 -0.6118
   33CHL1    C9 3585   3.653   0.513   5.367  0.1336 -0.2887  0.2233
   33CHL1    H9 3586   3.671   0.404   5.358 -0.7801 -0.6468  2.0295
   33CHL1   C10 3587   3.649   0.556   5.527  0.5008 -0.2196 -0.0580
   33CHL1   C19 3588   3.602   0.705   5.533 -0.3711 -0.1300  0.1318
   33CHL1  H19A 3589   3.663   0.767   5.463 -0.8853  0.9145  0.5820
   33CHL1  H19B 3590   3.494   0.694   5.510 -0.2210 -2.3517  0.2570
   33CHL1  H19C 3591   3.600   0.747   5.636  1.3449  1.4031 -0.3944
   33CHL1    C1 3592   3.550   0.459   5.601  0.7471  0.1334 -0.4875
   33CHL1   H1A 3593   3.451   0.492   5.564  1.6641  2.5914 -1.0095
   33CHL1   H1B 3594   3.573   0.353   5.578 -1.2830 -0.2763 -0.7407
   33CHL1    C2 3595   3.561   0.468   5.755 -0.1348 -0.0150 -0.4251
   33CHL1   H2A 3596   3.490   0.397   5.802  0.2555 -1.5866 -2.1222
   33CHL1   H2B 3597   3.530   0.568   5.794  1.8178  0.6066 -0.3059
   33CHL1   C20 3598   3.648   0.617   4.807 -0.3241 -0.4992  0.6759
   33CHL1   H20 3599   3.688   0.720   4.815  2.8950 -1.7051  1.4514
   33CHL1   C21 3600   3.490   0.626   4.801 -0.8678  0.6650  0.4732
   33CHL1  H21A 3601   3.460   0.645   4.696 -0.3286  2.1495  0.5668
   33CHL1  H21B 3602   3.445   0.712   4.855  2.3386  3.8061 -1.4179
   33CHL1  H21C 3603   3.447   0.528   4.832  0.9823 -0.3034  0.1214
   33CHL1   C22 3604   3.696   0.545   4.682 -0.7539 -0.6479 -0.1516
   33CHL1  H22A 3605   3.794   0.495   4.701  0.1572  0.1768 -2.2534
   33CHL1  H22B 3606   3.622   0.464   4.666 -0.6557 -0.9653  0.9556
   33CHL1   C23 3607   3.713   0.645   4.561  0.4204 -1.1266 -0.5093
   33CHL1  H23A 3608   3.617   0.670   4.510  0.3006 -2.2817 -0.8793
   33CHL1  H23B 3609   3.767   0.735   4.597 -1.8580  0.5310 -1.0411
   33CHL1   C24 3610   3.800   0.582   4.453  0.3810 -0.3275 -0.4697
   33CHL1  H24A 3611   3.761   0.479   4.442  0.4336 -0.9705  3.6662
   33CHL1  H24B 3612   3.792   0.639   4.358 -0.6324 -0.6811 -0.6077
   33CHL1   C25 3613   3.950   0.579   4.489 -0.8774 -0.4649  0.2945
   33CHL1   H25 3614   3.960   0.518   4.581 -0.7390 -0.8374  0.0351
   33CHL1   C26 3615   4.016   0.497   4.383 -0.6610 -0.7218 -0.1789
   33CHL1  H26A 3616   3.961   0.410   4.341 -1.0024 -0.3332 -0.5461
   33CHL1  H26B 3617   4.034   0.571   4.302  0.2447 -2.2354 -1.4098
   33CHL1  H26C 3618   4.118   0.461   4.407 -0.0592 -1.1090 -2.9578
   33CHL1   C27 3619   4.009   0.716   4.513 -0.0162  0.5210 -0.2719
   33CHL1  H27A 3620   3.969   0.758   4.608  0.4723 -1.3736  0.8184
   33CHL1  H27B 3621   4.119   0.707   4.526 -0.1538  0.7514  1.1578
   33CHL1  H27C 3622   3.992   0.776   4.421 -1.3870 -1.3158 -1.2781
   34CHL1    C3 3623   3.685   2.099   6.267 -0.8216  0.1084  0.6141
   34CHL1    H3 3624   3.633   2.006   6.236 -0.0308 -0.1662  0.1021
   34CHL1    O3 3625   3.723   2.089   6.405  0.0405  0.4915  0.2078
   34CHL1   H3' 3626   3.699   2.170   6.449 -2.0363 -0.0077  0.0947
   34CHL1    C4 3627   3.824   2.114   6.195  0.8883 -0.0935 -0.4590
   34CHL1   H4A 3628   3.871   2.202   6.245  0.6392 -1.4224  2.3144
   34CHL1   H4B 3629   3.907   2.044   6.216  0.6033  0.3117  2.5357
   34CHL1    C5 3630   3.806   2.145   6.050 -0.7018  0.1175 -0.1494
   34CHL1    C6 3631   3.868   2.068   5.962  0.9755 -0.0820 -0.0918
   34CHL1    H6 3632   3.914   1.981   6.012 -2.3609 -0.9653  1.7479
   34CHL1    C7 3633   3.865   2.094   5.816  0.0251 -0.0420  0.7431
   34CHL1   H7A 3634   3.966   2.093   5.770  0.5401 -0.4221  1.8341
   34CHL1   H7B 3635   3.804   2.015   5.768  0.3404 -0.4994  1.0795
   34CHL1    C8 3636   3.805   2.235   5.785  0.5020 -0.5002  1.0986
   34CHL1    H8 3637   3.887   2.309   5.799 -1.7909  2.0352  1.8630
   34CHL1   C14 3638   3.763   2.234   5.636 -0.0880 -0.1326 -0.1692
   34CHL1   H14 3639   3.697   2.145   5.628 -1.3410  0.5545  1.7797
   34CHL1   C15 3640   3.865   2.194   5.527  0.2536 -0.0411  0.5356
   34CHL1  H15A 3641   3.957   2.256   5.529  1.2921 -1.5088  0.8264
   34CHL1  H15B 3642   3.905   2.090   5.527  1.3239  0.2831 -2.3610
   34CHL1   C16 3643   3.788   2.218   5.393 -0.1772 -0.7153 -0.1678
   34CHL1  H16A 3644   3.861   2.284   5.341 -0.0226 -1.1710 -0.5328
   34CHL1  H16B 3645   3.755   2.130   5.334 -1.1243 -1.6566  1.6953
   34CHL1   C17 3646   3.663   2.307   5.437  0.1248 -0.6419 -0.0415
   34CHL1   H17 3647   3.579   2.235   5.431 -0.8479  0.5780 -1.6652
   34CHL1   C13 3648   3.691   2.355   5.577  0.5369 -0.3665 -0.0940
   34CHL1   C18 3649   3.788   2.478   5.576 -0.2696 -0.4190  0.3132
   34CHL1  H18A 3650   3.868   2.460   5.500 -0.0125 -1.6933  0.8608
   34CHL1  H18B 3651   3.740   2.576   5.554  0.8506 -0.0998 -0.8252
   34CHL1  H18C 3652   3.841   2.490   5.672 -0.0217  0.3306  0.0919
   34CHL1   C12 3653   3.573   2.381   5.664 -0.2026 -0.0148  0.9794
   34CHL1  H12A 3654   3.527   2.478   5.635  0.2485 -0.9105 -3.4864
   34CHL1  H12B 3655   3.499   2.299   5.657  1.3615 -1.4009 -0.2065
   34CHL1   C11 3656   3.604   2.394   5.814 -0.1870  0.6646 -0.1574
   34CHL1  H11A 3657   3.655   2.489   5.839 -2.4025  1.7075  0.6131
   34CHL1  H11B 3658   3.509   2.400   5.869 -0.1107  2.3603 -0.1526
   34CHL1    C9 3659   3.683   2.273   5.866 -0.0792 -0.1335 -0.0410
   34CHL1    H9 3660   3.606   2.195   5.847  0.0458 -0.0560 -0.9222
   34CHL1   C10 3661   3.718   2.262   6.013 -0.1729  0.0527 -0.3687
   34CHL1   C19 3662   3.791   2.391   6.047  0.7035 -0.3931 -0.2736
   34CHL1  H19A 3663   3.824   2.403   6.153 -0.7720  1.3551  0.0323
   34CHL1  H19B 3664   3.879   2.399   5.981  0.8897  0.1800  0.0384
   34CHL1  H19C 3665   3.725   2.477   6.026 -0.2460 -0.6173  1.5328
   34CHL1    C1 3666   3.582   2.254   6.091 -0.1352 -0.3562 -0.1647
   34CHL1   H1A 3667   3.532   2.353   6.087 -0.0940 -0.3658 -1.9506
   34CHL1   H1B 3668   3.508   2.185   6.044  1.1789 -1.3215 -0.8816
   34CHL1    C2 3669   3.596   2.223   6.245  0.5196 -0.6724  0.4133
   34CHL1   H2A 3670   3.496   2.209   6.291 -0.6903  1.2105 -1.4882
   34CHL1   H2B 3671   3.639   2.318   6.284  0.8469 -0.2346 -0.9612
   34CHL1   C20 3672   3.637   2.409   5.326 -0.1935  0.5193  1.3792
   34CHL1   H20 3673   3.717   2.485   5.331 -0.5516  0.9250  1.0553
   34CHL1   C21 3674   3.506   2.476   5.344  0.6713 -0.4280  0.1701
   34CHL1  H21A 3675   3.437   2.389   5.353 -1.5927  1.3563  1.1055
   34CHL1  H21B 3676   3.477   2.539   5.257 -1.0762  0.6904  1.4803
   34CHL1  H21C 3677   3.484   2.538   5.433 -0.8270 -1.2934  0.4345
   34CHL1   C22 3678   3.643   2.352   5.182  0.2516 -0.4926  0.5312
   34CHL1  H22A 3679   3.623   2.440   5.117  4.0691  0.4530  0.4112
   34CHL1  H22B 3680   3.745   2.315   5.158  0.7047  1.1135 -0.1474
   34CHL1   C23 3681   3.549   2.235   5.136  0.4285  0.2367 -1.0761
   34CHL1  H23A 3682   3.561   2.151   5.208  0.1282  0.1962 -1.0721
   34CHL1  H23B 3683   3.444   2.268   5.150  0.1828 -1.2121  0.9783
   34CHL1   C24 3684   3.585   2.179   4.999 -0.2906  0.0513 -0.6741
   34CHL1  H24A 3685   3.595   2.266   4.930  0.9304  2.3321  2.1517
   34CHL1  H24B 3686   3.689   2.139   5.003 -0.9872 -1.7472  0.2998
   34CHL1   C25 3687   3.490   2.077   4.928 -0.0743 -0.1807 -0.2367
   34CHL1   H25 3688   3.394   2.132   4.924 -0.4939 -0.9499 -1.1059
   34CHL1   C26 3689   3.549   2.046   4.789  0.3479  0.4925  0.0654
   34CHL1  H26A 3690   3.647   1.994   4.787  0.8049  1.2646  1.5678
   34CHL1  H26B 3691   3.473   1.987   4.733 -1.2365  2.2582  0.2888
   34CHL1  H26C 3692   3.563   2.137   4.727 -1.0025  0.5703 -0.1524
   34CHL1   C27 3693   3.477   1.953   5.014 -0.4410 -0.1913  0.0377
   34CHL1  H27A 3694   3.577   1.908   5.028 -1.3459 -2.4267 -0.2823
   34CHL1  H27B 3695   3.431   1.973   5.114 -0.3546 -1.0343  0.2548
   34CHL1  H27C 3696   3.419   1.879   4.955  0.0166 -0.0303 -0.6237
   35CHL1    C3 3697   4.794   2.874   5.825 -0.0115  0.4818 -0.3864
   35CHL1    H3 3698   4.849   2.778   5.838  1.8485  1.5776  0.2196
   35CHL1    O3 3699   4.819   2.936   5.947 -0.2029 -0.2246  0.3298
   35CHL1   H3' 3700   4.777   2.872   6.005 -0.4818  0.3788  0.8052
   35CHL1    C4 3701   4.865   2.948   5.716  0.2804  0.6443  0.0994
   35CHL1   H4A 3702   4.823   3.051   5.712 -0.6661  0.3175  1.3077
   35CHL1   H4B 3703   4.974   2.959   5.737  0.1291 -0.5093  1.6420
   35CHL1    C5 3704   4.835   2.893   5.576 -0.5011 -0.4724 -0.2913
   35CHL1    C6 3705   4.941   2.865   5.492  0.1143 -0.0066 -0.0911
   35CHL1    H6 3706   5.043   2.883   5.529  1.0863 -2.9380 -1.0725
   35CHL1    C7 3707   4.925   2.812   5.351  0.4837 -0.0247  0.0660
   35CHL1   H7A 3708   4.995   2.871   5.287  0.1080  0.3996  0.0457
   35CHL1   H7B 3709   4.958   2.706   5.351 -0.4223 -0.4420 -3.5426
   35CHL1    C8 3710   4.782   2.831   5.305  0.0963 -0.2790 -0.1468
   35CHL1    H8 3711   4.788   2.939   5.279  0.2953 -0.7274 -2.1139
   35CHL1   C14 3712   4.754   2.736   5.188 -0.0343 -0.1270  1.0914
   35CHL1   H14 3713   4.761   2.627   5.210  1.5486 -0.2566  0.1581
   35CHL1   C15 3714   4.858   2.739   5.076 -0.5934 -0.6488  0.2781
   35CHL1  H15A 3715   4.906   2.839   5.072  2.0333 -1.7601  1.3828
   35CHL1  H15B 3716   4.946   2.672   5.087  0.0783  0.3677  1.2815
   35CHL1   C16 3717   4.777   2.700   4.956 -0.1288 -0.3247 -0.1028
   35CHL1  H16A 3718   4.785   2.781   4.880 -1.7818  3.0297  2.9474
   35CHL1  H16B 3719   4.821   2.612   4.906 -0.4527 -0.9406  0.6766
   35CHL1   C17 3720   4.630   2.675   4.995 -0.1478 -0.4760 -0.1578
   35CHL1   H17 3721   4.624   2.571   5.035  0.0139 -0.8200 -1.0080
   35CHL1   C13 3722   4.621   2.765   5.119  0.2077 -0.2601 -0.0063
   35CHL1   C18 3723   4.619   2.908   5.079 -0.2930 -0.6635 -0.1168
   35CHL1  H18A 3724   4.622   2.977   5.167  0.5076 -0.1220 -0.5624
   35CHL1  H18B 3725   4.711   2.932   5.022  0.0414 -3.4430 -0.8662
   35CHL1  H18C 3726   4.526   2.928   5.022  0.1216  1.2136 -0.2075
   35CHL1   C12 3727   4.510   2.729   5.213  0.2161 -0.2258  0.0296
   35CHL1  H12A 3728   4.409   2.750   5.170  0.2589  2.4543  1.0725
   35CHL1  H12B 3729   4.508   2.619   5.227  1.6381 -0.4008 -0.9090
   35CHL1   C11 3730   4.524   2.805   5.350  0.2138  0.0332  1.1963
   35CHL1  H11A 3731   4.498   2.912   5.333  1.2699 -0.0535 -1.3951
   35CHL1  H11B 3732   4.453   2.769   5.428  0.1503 -4.4902 -0.6907
   35CHL1    C9 3733   4.674   2.796   5.406 -0.1043  0.4603 -0.3201
   35CHL1    H9 3734   4.684   2.688   5.431 -0.8351  0.6057  0.6953
   35CHL1   C10 3735   4.690   2.881   5.542  0.1838 -1.1246  0.3141
   35CHL1   C19 3736   4.630   3.026   5.514 -0.4449 -0.0620 -0.0884
   35CHL1  H19A 3737   4.657   3.106   5.587  1.0247 -2.3222  2.0232
   35CHL1  H19B 3738   4.658   3.052   5.410  0.2494  0.1186  0.1334
   35CHL1  H19C 3739   4.519   3.024   5.513 -0.4657  0.9313 -0.6816
   35CHL1    C1 3740   4.608   2.811   5.662 -0.4013  0.6936  0.0560
   35CHL1   H1A 3741   4.500   2.815   5.635 -0.1082  0.1609 -1.2486
   35CHL1   H1B 3742   4.641   2.705   5.667  1.1452  1.1923  1.0368
   35CHL1    C2 3743   4.640   2.867   5.801 -0.1218  0.4357 -0.0001
   35CHL1   H2A 3744   4.604   2.793   5.876  3.0144 -0.2533  0.9812
   35CHL1   H2B 3745   4.606   2.971   5.821  1.5609  0.4283  3.8508
   35CHL1   C20 3746   4.516   2.695   4.894 -0.3163  0.3607  0.6277
   35CHL1   H20 3747   4.435   2.757   4.937  0.6823  1.9188  0.3425
   35CHL1   C21 3748   4.460   2.557   4.865  0.8885 -0.1036 -0.3242
   35CHL1  H21A 3749   4.428   2.521   4.965  2.3440  2.4971  1.1763
   35CHL1  H21B 3750   4.543   2.490   4.836  0.3549 -1.1808  0.5509
   35CHL1  H21C 3751   4.377   2.549   4.791 -1.5744 -1.0742  2.3555
   35CHL1   C22 3752   4.564   2.769   4.767  0.6288  0.1051  0.3822
   35CHL1  H22A 3753   4.614   2.865   4.790  1.6814 -0.3865  0.1701
   35CHL1  H22B 3754   4.637   2.710   4.709  1.9831  2.0941 -0.0242
   35CHL1   C23 3755   4.453   2.794   4.667  0.0179  0.3781  0.0565
   35CHL1  H23A 3756   4.415   2.696   4.630 -0.2326  0.0566  1.1155
   35CHL1  H23B 3757   4.380   2.861   4.719 -0.0422  1.2486 -1.1064
   35CHL1   C24 3758   4.498   2.880   4.545 -0.2485  0.4310 -0.1552
   35CHL1  H24A 3759   4.527   2.978   4.587 -2.1835  0.4226  1.3936
   35CHL1  H24B 3760   4.573   2.814   4.497 -1.5211 -0.8798 -0.4150
   35CHL1   C25 3761   4.381   2.909   4.445  0.2401 -0.3877  0.2178
   35CHL1   H25 3762   4.309   2.824   4.447 -1.9219  1.2998  3.7747
   35CHL1   C26 3763   4.290   3.023   4.496  0.5484  0.7078  0.3068
   35CHL1  H26A 3764   4.350   3.116   4.509  1.0906  0.6200 -1.3956
   35CHL1  H26B 3765   4.221   3.035   4.410  1.6915  0.9917 -0.5946
   35CHL1  H26C 3766   4.237   3.004   4.592  0.0388 -1.1053 -0.3058
   35CHL1   C27 3767   4.431   2.925   4.299  0.1895 -0.0611  0.2023
   35CHL1  H27A 3768   4.462   2.830   4.251  3.0732  0.6395  0.5067
   35CHL1  H27B 3769   4.350   2.964   4.233  1.1147  0.4198 -0.6841
   35CHL1  H27C 3770   4.521   2.989   4.305  2.5068 -3.1978  1.6487
   36CHL1    C3 3771   2.877   0.823   5.972  0.6134  0.1936 -0.0245
   36CHL1    H3 3772   2.962   0.892   5.951  0.2212  0.5702 -0.3913
   36CHL1    O3 3773   2.881   0.786   6.110  0.2648 -0.0061 -0.5041
   36CHL1   H3' 3774   2.881   0.874   6.148 -0.6063  1.0212 -2.7003
   36CHL1    C4 3775   2.752   0.897   5.940 -0.0845  0.5535 -0.3198
   36CHL1   H4A 3776   2.680   0.826   5.986  0.2710 -0.8825 -1.8969
   36CHL1   H4B 3777   2.744   0.999   5.984  0.1462  0.3169  0.2755
   36CHL1    C5 3778   2.729   0.919   5.792  0.5553 -0.2346 -0.1164
   36CHL1    C6 3779   2.708   1.042   5.745 -0.0430  0.0062  0.3785
   36CHL1    H6 3780   2.701   1.127   5.815  2.6673  0.6037  0.0035
   36CHL1    C7 3781   2.675   1.079   5.597  0.4560  0.2321 -0.2105
   36CHL1   H7A 3782   2.587   1.146   5.598  1.0601  1.0316 -0.2957
   36CHL1   H7B 3783   2.762   1.130   5.550  1.8420 -0.7704  1.1404
   36CHL1    C8 3784   2.640   0.948   5.513 -0.0496  0.1152 -0.2208
   36CHL1    H8 3785   2.534   0.920   5.531 -0.5762  1.6234 -0.8633
   36CHL1   C14 3786   2.648   0.976   5.367 -0.2374  0.2983  0.6038
   36CHL1   H14 3787   2.755   0.999   5.352 -0.3625 -0.4462 -1.8393
   36CHL1   C15 3788   2.567   1.098   5.313 -0.8045  0.2481 -0.7003
   36CHL1  H15A 3789   2.467   1.108   5.361  0.3937  0.5360  1.9616
   36CHL1  H15B 3790   2.618   1.196   5.328  0.3090 -0.4836  0.4798
   36CHL1   C16 3791   2.570   1.063   5.161  0.5281  0.0359 -0.0923
   36CHL1  H16A 3792   2.467   1.075   5.122  0.9083  2.5987 -0.4834
   36CHL1  H16B 3793   2.632   1.133   5.102 -0.7371  0.0963 -1.3804
   36CHL1   C17 3794   2.621   0.920   5.139 -0.0113  0.3792  0.1638
   36CHL1   H17 3795   2.731   0.917   5.127 -0.2297  1.8576 -3.8553
   36CHL1   C13 3796   2.608   0.857   5.279 -0.8043 -0.5561 -0.4289
   36CHL1   C18 3797   2.465   0.820   5.305 -0.2402  0.6778  0.3299
   36CHL1  H18A 3798   2.392   0.896   5.270  1.4766  2.2780  0.0712
   36CHL1  H18B 3799   2.438   0.729   5.248  1.1553 -0.8570  1.9926
   36CHL1  H18C 3800   2.448   0.797   5.413  1.3456 -2.0583  0.1077
   36CHL1   C12 3801   2.703   0.737   5.309  0.4705  0.1824  0.5310
   36CHL1  H12A 3802   2.674   0.648   5.249 -0.5264  1.6007 -1.1989
   36CHL1  H12B 3803   2.804   0.761   5.270  0.2966 -3.7241 -2.8633
   36CHL1   C11 3804   2.715   0.707   5.459  0.4089  0.7088 -0.2432
   36CHL1  H11A 3805   2.617   0.658   5.477  0.8137 -0.3509 -0.8603
   36CHL1  H11B 3806   2.805   0.645   5.480  0.8984  0.8922 -1.6911
   36CHL1    C9 3807   2.733   0.832   5.549  0.1449 -0.3305 -0.4305
   36CHL1    H9 3808   2.833   0.874   5.528 -0.3511  1.1877  0.1142
   36CHL1   C10 3809   2.738   0.800   5.702 -0.7106  0.6208 -0.1525
   36CHL1   C19 3810   2.612   0.714   5.742  0.3772 -0.2361 -0.1564
   36CHL1  H19A 3811   2.512   0.761   5.734  0.2551 -0.7083 -1.9358
   36CHL1  H19B 3812   2.611   0.618   5.686 -0.7044 -2.2759  3.0832
   36CHL1  H19C 3813   2.627   0.669   5.842 -0.1991 -0.7880 -0.3144
   36CHL1    C1 3814   2.864   0.716   5.736  0.2544 -0.5226 -0.6445
   36CHL1   H1A 3815   2.853   0.618   5.684 -1.5796 -0.4899 -0.3590
   36CHL1   H1B 3816   2.952   0.769   5.692  0.5334 -0.0942  0.4067
   36CHL1    C2 3817   2.889   0.698   5.891 -0.5224 -0.0994 -0.2052
   36CHL1   H2A 3818   2.982   0.638   5.906  0.7370  2.0447  0.9964
   36CHL1   H2B 3819   2.809   0.629   5.928  0.6905 -0.6263  1.6075
   36CHL1   C20 3820   2.552   0.845   5.022  0.0546 -0.1617 -0.0812
   36CHL1   H20 3821   2.447   0.830   5.056  0.4272  1.1969  1.9004
   36CHL1   C21 3822   2.607   0.701   5.003  0.7623 -0.3246 -0.6149
   36CHL1  H21A 3823   2.715   0.697   5.030  0.5649  1.1407  0.6069
   36CHL1  H21B 3824   2.586   0.676   4.897 -0.8474 -2.1573  0.0816
   36CHL1  H21C 3825   2.567   0.622   5.070  3.0297 -1.4935 -0.5307
   36CHL1   C22 3826   2.565   0.921   4.884 -0.0016  0.5244  0.0986
   36CHL1  H22A 3827   2.513   0.867   4.802 -2.8477  0.3863  1.8588
   36CHL1  H22B 3828   2.503   1.012   4.892 -0.8900 -0.0338 -0.2639
   36CHL1   C23 3829   2.707   0.961   4.849 -0.0349  0.5742  0.0831
   36CHL1  H23A 3830   2.748   1.013   4.938  0.4448 -2.6290  1.8859
   36CHL1  H23B 3831   2.767   0.868   4.844  0.5282  0.9389 -0.1268
   36CHL1   C24 3832   2.715   1.037   4.713 -0.4660  0.0693 -0.5951
   36CHL1  H24A 3833   2.692   0.970   4.626  0.5737  0.4126 -1.1491
   36CHL1  H24B 3834   2.635   1.113   4.718 -0.7012 -0.2241  0.2024
   36CHL1   C25 3835   2.847   1.105   4.676 -0.1135 -0.4542  0.0285
   36CHL1   H25 3836   2.870   1.194   4.738  1.1582 -1.8602  1.6888
   36CHL1   C26 3837   2.976   1.020   4.693  0.2828 -0.3553  0.0589
   36CHL1  H26A 3838   2.963   0.936   4.621  2.0108 -0.9516  0.3871
   36CHL1  H26B 3839   3.065   1.077   4.659  1.5963 -1.6024  1.2787
   36CHL1  H26C 3840   2.986   0.974   4.793  1.7520  0.2095  0.2018
   36CHL1   C27 3841   2.830   1.149   4.528 -0.1698  0.0753 -0.2428
   36CHL1  H27A 3842   2.918   1.205   4.490 -1.0992  1.4739 -0.4133
   36CHL1  H27B 3843   2.813   1.061   4.463 -1.6527  0.6717 -0.7083
   36CHL1  H27C 3844   2.745   1.221   4.528 -0.6930 -0.5324  0.1044
   37CHL1    C3 3845   3.728   4.369   5.972  0.0100  0.0481  0.4755
   37CHL1    H3 3846   3.635   4.310   5.955  0.7444 -0.6096 -1.6131
   37CHL1    O3 3847   3.768   4.341   6.103 -0.1960 -0.5457 -0.0183
   37CHL1   H3' 3848   3.863   4.348   6.111  0.0778 -2.6712 -0.6880
   37CHL1    C4 3849   3.838   4.320   5.875  0.0756  0.0231 -0.4101
   37CHL1   H4A 3850   3.926   4.376   5.913 -0.6906 -0.8721  2.9891
   37CHL1   H4B 3851   3.868   4.214   5.888 -1.6060 -0.3688  0.5971
   37CHL1    C5 3852   3.805   4.355   5.736 -0.6901  0.0131 -0.1235
   37CHL1    C6 3853   3.791   4.259   5.643 -0.9993  0.0197 -0.1505
   37CHL1    H6 3854   3.824   4.161   5.679  1.6892  0.3658 -1.3914
   37CHL1    C7 3855   3.767   4.287   5.496 -0.2237  0.1360  0.4734
   37CHL1   H7A 3856   3.823   4.219   5.429  0.4572  0.9227  0.2191
   37CHL1   H7B 3857   3.658   4.276   5.479  0.2012 -1.8993 -1.3591
   37CHL1    C8 3858   3.802   4.435   5.460  0.3294 -0.3588 -0.7966
   37CHL1    H8 3859   3.912   4.442   5.467  0.2436 -0.5481  1.2215
   37CHL1   C14 3860   3.751   4.464   5.320  0.3188 -0.2906 -0.2674
   37CHL1   H14 3861   3.642   4.444   5.331 -0.1475  0.5933 -2.5855
   37CHL1   C15 3862   3.802   4.372   5.209 -0.2170  0.1144  1.1271
   37CHL1  H15A 3863   3.912   4.355   5.205  0.0613  1.9511 -1.0855
   37CHL1  H15B 3864   3.751   4.273   5.214  3.0252 -1.7994 -0.3740
   37CHL1   C16 3865   3.754   4.445   5.082  0.2294 -0.3113  0.5295
   37CHL1  H16A 3866   3.851   4.466   5.031 -0.1134 -0.9252 -0.4092
   37CHL1  H16B 3867   3.682   4.385   5.022  1.1488  0.8163 -1.8593
   37CHL1   C17 3868   3.696   4.583   5.127 -0.3280 -0.4381 -0.2636
   37CHL1   H17 3869   3.589   4.567   5.151  0.0211 -1.6681  0.6249
   37CHL1   C13 3870   3.755   4.608   5.275 -0.3713 -0.1070  0.8320
   37CHL1   C18 3871   3.899   4.647   5.274 -0.4535  0.0361 -0.6979
   37CHL1  H18A 3872   3.943   4.595   5.186  1.4323  0.9351 -0.3432
   37CHL1  H18B 3873   3.914   4.755   5.254  0.4053  0.0469 -0.0819
   37CHL1  H18C 3874   3.959   4.615   5.363 -0.7641  2.4180  0.4297
   37CHL1   C12 3875   3.670   4.694   5.374  0.8257  0.4674 -0.1204
   37CHL1  H12A 3876   3.647   4.798   5.345 -1.6697 -0.5437 -2.1951
   37CHL1  H12B 3877   3.567   4.652   5.377  1.1245 -0.2966  2.8642
   37CHL1   C11 3878   3.720   4.676   5.514  0.7683  0.2058 -0.4048
   37CHL1  H11A 3879   3.823   4.720   5.519  1.0156 -0.1604 -1.7443
   37CHL1  H11B 3880   3.667   4.738   5.589  1.5910  0.3384  0.0859
   37CHL1    C9 3881   3.728   4.526   5.561  0.2402  0.2253  0.3319
   37CHL1    H9 3882   3.621   4.497   5.558  0.6947 -1.5376  0.1861
   37CHL1   C10 3883   3.774   4.508   5.709  0.2369  0.2206 -0.4869
   37CHL1   C19 3884   3.914   4.577   5.718  0.1415  0.0318 -0.2510
   37CHL1  H19A 3885   3.977   4.546   5.804 -0.3122  0.7798  0.3671
   37CHL1  H19B 3886   3.972   4.567   5.624  0.5884 -0.0282  0.0246
   37CHL1  H19C 3887   3.882   4.682   5.735 -1.2569 -0.6748  1.8596
   37CHL1    C1 3888   3.670   4.554   5.811  0.4009  0.2714 -0.3258
   37CHL1   H1A 3889   3.655   4.664   5.804 -1.2812  0.1195  0.5355
   37CHL1   H1B 3890   3.573   4.510   5.779  0.8149 -0.7401 -0.2442
   37CHL1    C2 3891   3.701   4.518   5.953 -0.3763 -0.2008  0.8947
   37CHL1   H2A 3892   3.611   4.538   6.016 -0.6070  1.4142  0.0962
   37CHL1   H2B 3893   3.798   4.563   5.980 -0.1993 -0.7458  1.1864
   37CHL1   C20 3894   3.715   4.688   5.023  0.1105  0.0801  0.3505
   37CHL1   H20 3895   3.822   4.711   5.010 -0.0474  0.5704 -0.1356
   37CHL1   C21 3896   3.666   4.831   5.067  0.1458 -0.2241  0.6150
   37CHL1  H21A 3897   3.718   4.834   5.165  2.3361 -2.9406 -0.3276
   37CHL1  H21B 3898   3.555   4.834   5.071  0.1033 -2.0458  1.8297
   37CHL1  H21C 3899   3.702   4.914   5.002  1.5433 -1.2859 -0.0166
   37CHL1   C22 3900   3.667   4.644   4.881 -0.0847 -0.3375 -0.8606
   37CHL1  H22A 3901   3.681   4.728   4.809 -1.6220  1.2496  0.6072
   37CHL1  H22B 3902   3.729   4.557   4.850  1.0487  0.8646 -2.1118
   37CHL1   C23 3903   3.515   4.608   4.866 -0.2421  0.2218 -0.0929
   37CHL1  H23A 3904   3.490   4.511   4.913  1.5192 -0.5581 -0.6901
   37CHL1  H23B 3905   3.448   4.676   4.924  0.5110  1.2817 -0.4183
   37CHL1   C24 3906   3.468   4.601   4.715 -0.8174 -0.0555  0.2425
   37CHL1  H24A 3907   3.519   4.688   4.668  1.8951 -0.3664  2.3277
   37CHL1  H24B 3908   3.506   4.510   4.665 -1.7155  0.0477 -0.6598
   37CHL1   C25 3909   3.318   4.607   4.692 -0.4201  0.0992  0.6518
   37CHL1   H25 3910   3.291   4.708   4.729  2.7409  0.5338  2.0444
   37CHL1   C26 3911   3.285   4.604   4.537 -1.0230  0.1093  0.1038
   37CHL1  H26A 3912   3.306   4.502   4.499  1.2414  1.5091 -2.7560
   37CHL1  H26B 3913   3.181   4.627   4.503 -0.7911  0.0901 -0.6268
   37CHL1  H26C 3914   3.344   4.670   4.470 -2.4179 -0.4870 -1.8079
   37CHL1   C27 3915   3.240   4.507   4.779 -0.0242  0.3192 -0.0926
   37CHL1  H27A 3916   3.290   4.494   4.877  1.1099  0.8212 -0.5944
   37CHL1  H27B 3917   3.136   4.543   4.792  0.4397  1.8854 -0.5359
   37CHL1  H27C 3918   3.241   4.407   4.729  1.0538 -0.3553  1.2104
   38CHL1    C3 3919   4.962   0.118   6.295 -1.0650 -0.2757 -0.6456
   38CHL1    H3 3920   5.050   0.053   6.275 -0.6481  0.1520 -0.2276
   38CHL1    O3 3921   4.962   0.130   6.437 -0.5101  0.0938 -0.1023
   38CHL1   H3' 3922   4.890   0.189   6.461 -2.8694 -1.9608 -1.6723
   38CHL1    C4 3923   4.984   0.254   6.232  0.6143 -0.2710  0.1394
   38CHL1   H4A 3924   4.906   0.327   6.263  1.2936 -0.2282  1.8653
   38CHL1   H4B 3925   5.083   0.289   6.269  1.0602 -1.7291  0.3728
   38CHL1    C5 3926   4.992   0.236   6.078  0.0267  0.0218 -0.6595
   38CHL1    C6 3927   5.096   0.272   6.008 -0.3520 -0.3297 -0.2014
   38CHL1    H6 3928   5.188   0.312   6.054  0.0786 -1.2178 -0.2566
   38CHL1    C7 3929   5.110   0.260   5.860 -0.4537  0.1986  0.2636
   38CHL1   H7A 3930   5.171   0.340   5.813  1.2030 -1.7624 -1.1198
   38CHL1   H7B 3931   5.173   0.172   5.837  0.2803  0.3507  1.6075
   38CHL1    C8 3932   4.975   0.269   5.795  0.2955  0.1928  0.2180
   38CHL1    H8 3933   4.934   0.372   5.801  0.4173  0.2753 -0.2823
   38CHL1   C14 3934   4.987   0.226   5.651  1.1476 -0.6839 -0.1262
   38CHL1   H14 3935   5.026   0.122   5.648  0.3873 -0.9735 -0.4095
   38CHL1   C15 3936   5.082   0.315   5.560 -0.0789  0.6194 -0.8354
   38CHL1  H15A 3937   5.060   0.422   5.581 -1.0829  0.4329 -0.8979
   38CHL1  H15B 3938   5.189   0.289   5.574 -0.6148 -2.0339 -1.1805
   38CHL1   C16 3939   5.030   0.275   5.419  0.9970  0.8580  0.4615
   38CHL1  H16A 3940   4.993   0.366   5.367  0.6092  0.4915  0.0973
   38CHL1  H16B 3941   5.113   0.227   5.363  0.7853  0.0020  0.8645
   38CHL1   C17 3942   4.905   0.180   5.425  0.5517  0.6396  0.2883
   38CHL1   H17 3943   4.950   0.079   5.425  0.1823  0.1332 -5.8782
   38CHL1   C13 3944   4.854   0.208   5.573 -0.2507 -0.0606  0.6018
   38CHL1   C18 3945   4.776   0.334   5.566 -0.0759  1.0331 -0.3134
   38CHL1  H18A 3946   4.774   0.384   5.665 -3.1177 -0.1691  0.3656
   38CHL1  H18B 3947   4.817   0.409   5.497 -0.3645 -0.3950 -2.1204
   38CHL1  H18C 3948   4.667   0.325   5.545 -0.4906  2.6559  0.9815
   38CHL1   C12 3949   4.784   0.095   5.640 -0.2618  0.2496 -0.1818
   38CHL1  H12A 3950   4.687   0.081   5.589 -0.4813 -0.8182  0.4997
   38CHL1  H12B 3951   4.846   0.003   5.631  0.6803  0.8221  0.2997
   38CHL1   C11 3952   4.754   0.130   5.786  0.2522  0.0489  0.0606
   38CHL1  H11A 3953   4.670   0.203   5.786 -0.2675 -0.5397  0.8647
   38CHL1  H11B 3954   4.706   0.043   5.836  2.6631 -0.9171  0.8762
   38CHL1    C9 3955   4.889   0.155   5.855  0.1038 -0.4222 -0.9912
   38CHL1    H9 3956   4.935   0.054   5.852 -3.4627 -2.2000 -2.9565
   38CHL1   C10 3957   4.864   0.188   6.007 -0.2032  0.1215  0.0643
   38CHL1   C19 3958   4.742   0.284   6.020 -0.0206 -0.4109  0.0859
   38CHL1  H19A 3959   4.751   0.333   6.119  1.0202  0.4667 -0.4258
   38CHL1  H19B 3960   4.737   0.362   5.942 -2.8247 -0.4373  0.1638
   38CHL1  H19C 3961   4.652   0.218   6.023 -0.0181 -0.4045  0.4241
   38CHL1    C1 3962   4.831   0.049   6.082 -1.0168 -0.4013 -0.3032
   38CHL1   H1A 3963   4.729   0.025   6.044 -1.7119  1.6988  0.1056
   38CHL1   H1B 3964   4.899  -0.031   6.045 -0.1283  0.8851 -1.5258
   38CHL1    C2 3965   4.834   0.053   6.240  1.0116  0.1420  0.5025
   38CHL1   H2A 3966   4.823  -0.043   6.294 -1.3115 -0.3561 -0.7117
   38CHL1   H2B 3967   4.740   0.108   6.260  0.7956 -0.4263  1.1128
   38CHL1   C20 3968   4.803   0.186   5.312  0.4461 -0.1409 -0.3523
   38CHL1   H20 3969   4.748   0.281   5.328  2.4094  1.0228 -0.1199
   38CHL1   C21 3970   4.698   0.070   5.315  0.2623  1.1794 -0.7044
   38CHL1  H21A 3971   4.641   0.038   5.225 -1.6715  1.9393  0.2148
   38CHL1  H21B 3972   4.624   0.092   5.394  0.6825 -1.8580  0.6698
   38CHL1  H21C 3973   4.746  -0.027   5.342 -1.3640 -0.2024 -2.4610
   38CHL1   C22 3974   4.871   0.198   5.172 -0.5349  0.3462 -0.3910
   38CHL1  H22A 3975   4.790   0.199   5.096 -1.2582 -0.3757  0.3501
   38CHL1  H22B 3976   4.931   0.291   5.168  1.3358 -0.7940 -0.0035
   38CHL1   C23 3977   4.973   0.084   5.124 -0.0348  0.0962 -0.3713
   38CHL1  H23A 3978   5.056   0.094   5.198 -0.7956 -2.8270  1.0480
   38CHL1  H23B 3979   4.924  -0.013   5.147  0.0713 -0.4759 -2.3583
   38CHL1   C24 3980   5.030   0.108   4.978 -0.1465  0.0071  0.0048
   38CHL1  H24A 3981   4.975   0.043   4.907  0.7296 -0.7795  0.0320
   38CHL1  H24B 3982   4.997   0.207   4.939  0.1503 -0.7914 -2.4541
   38CHL1   C25 3983   5.182   0.099   4.955  0.2164 -0.0656 -0.7703
   38CHL1   H25 3984   5.221   0.012   5.012  1.6078  1.1097  0.1406
   38CHL1   C26 3985   5.224   0.072   4.806  0.3580 -0.3625  0.5292
   38CHL1  H26A 3986   5.184  -0.026   4.771 -0.6230  0.3152 -0.3424
   38CHL1  H26B 3987   5.185   0.147   4.734  0.3632  0.1409  1.0504
   38CHL1  H26C 3988   5.335   0.067   4.801  0.3182 -0.2823 -1.0942
   38CHL1   C27 3989   5.240   0.235   4.994 -0.1987  0.4350  0.2223
   38CHL1  H27A 3990   5.190   0.322   4.949 -0.7868  1.8179  3.2767
   38CHL1  H27B 3991   5.230   0.259   5.102  2.6787  1.3823  0.3466
   38CHL1  H27C 3992   5.349   0.244   4.977 -0.1561  1.8581  1.0486
   39CHL1    C3 3993   0.482   5.543   6.344  0.4078  0.1834 -0.3061
   39CHL1    H3 3994   0.387   5.548   6.287  1.0031 -0.8331 -1.4367
   39CHL1    O3 3995   0.463   5.581   6.475 -0.4533 -0.4362  0.3791
   39CHL1   H3' 3996   0.371   5.570   6.498 -0.6985 -1.7176 -1.0243
   39CHL1    C4 3997   0.526   5.398   6.336  0.2561  0.4875  0.0232
   39CHL1   H4A 3998   0.613   5.391   6.406  0.7972  0.4434 -0.6445
   39CHL1   H4B 3999   0.444   5.342   6.385  0.6789 -0.4153 -0.2749
   39CHL1    C5 4000   0.556   5.349   6.190  0.2190 -0.1595  0.3368
   39CHL1    C6 4001   0.487   5.259   6.127  0.3104  0.1626  0.1288
   39CHL1    H6 4002   0.399   5.213   6.175 -0.4784  0.5704 -0.9004
   39CHL1    C7 4003   0.517   5.225   5.984 -0.5218 -0.5973  0.3530
   39CHL1   H7A 4004   0.503   5.117   5.963 -1.4866 -0.4209  0.0628
   39CHL1   H7B 4005   0.445   5.279   5.919 -0.8582  2.3409  2.9327
   39CHL1    C8 4006   0.662   5.270   5.934  0.1218  0.0845 -0.0633
   39CHL1    H8 4007   0.739   5.215   5.991  1.0494  0.3562 -1.0180
   39CHL1   C14 4008   0.663   5.253   5.785 -0.2504  0.0692 -0.4408
   39CHL1   H14 4009   0.576   5.306   5.743  0.4537  0.7423 -1.0835
   39CHL1   C15 4010   0.642   5.112   5.729 -0.5808 -0.3885 -0.1168
   39CHL1  H15A 4011   0.678   5.029   5.793 -0.6731  1.0802  1.9195
   39CHL1  H15B 4012   0.533   5.103   5.710 -0.4664  1.0979 -1.7793
   39CHL1   C16 4013   0.708   5.111   5.594  0.2309 -0.7659 -0.2217
   39CHL1  H16A 4014   0.780   5.029   5.574 -0.6492 -1.2176 -1.6528
   39CHL1  H16B 4015   0.634   5.084   5.516 -1.1558  1.5101  0.2242
   39CHL1   C17 4016   0.763   5.260   5.574 -0.7476 -0.2181  0.2874
   39CHL1   H17 4017   0.681   5.319   5.527 -0.8149 -1.5417 -1.3684
   39CHL1   C13 4018   0.787   5.307   5.718  0.2051 -0.2885 -0.3630
   39CHL1   C18 4019   0.912   5.228   5.772 -0.3201 -0.8050 -0.0684
   39CHL1  H18A 4020   0.930   5.126   5.734 -0.5941 -0.7280 -0.4121
   39CHL1  H18B 4021   1.002   5.284   5.737 -0.6546  0.1583  0.5680
   39CHL1  H18C 4022   0.921   5.228   5.883  1.5155 -2.2639 -0.1652
   39CHL1   C12 4023   0.795   5.452   5.747  0.7213  0.4102 -0.5269
   39CHL1  H12A 4024   0.878   5.507   5.698  0.9819  0.4973 -0.0024
   39CHL1  H12B 4025   0.702   5.504   5.716 -0.7108 -0.8987  1.3537
   39CHL1   C11 4026   0.794   5.477   5.904  0.1318  0.0545  0.1397
   39CHL1  H11A 4027   0.888   5.436   5.947  1.4368 -0.1044 -2.6802
   39CHL1  H11B 4028   0.803   5.586   5.922  3.1914 -0.1675  0.4464
   39CHL1    C9 4029   0.670   5.416   5.967  0.0656  0.0341 -0.2570
   39CHL1    H9 4030   0.581   5.472   5.932 -0.7302 -0.2620  1.1988
   39CHL1   C10 4031   0.665   5.438   6.121 -0.8620  0.1626 -0.4519
   39CHL1   C19 4032   0.802   5.399   6.194  0.2689  0.0150 -0.1958
   39CHL1  H19A 4033   0.798   5.434   6.299  1.3338  1.7212 -0.6938
   39CHL1  H19B 4034   0.805   5.288   6.191 -0.5061 -0.0384  0.5040
   39CHL1  H19C 4035   0.890   5.439   6.139 -0.3991 -0.3283 -1.5863
   39CHL1    C1 4036   0.641   5.596   6.157  0.1794  0.6510  0.5040
   39CHL1   H1A 4037   0.737   5.652   6.148 -0.0081  1.4374  2.6591
   39CHL1   H1B 4038   0.576   5.636   6.076  1.3948 -0.1154 -0.9020
   39CHL1    C2 4039   0.586   5.636   6.287 -0.0115 -0.1328  0.3185
   39CHL1   H2A 4040   0.574   5.747   6.292  3.1471  0.2491  3.7563
   39CHL1   H2B 4041   0.679   5.626   6.347  0.2425 -1.5745 -0.2803
   39CHL1   C20 4042   0.884   5.274   5.472  0.4310  0.2393 -0.4389
   39CHL1   H20 4043   0.974   5.248   5.532  0.3738  2.0597  0.4949
   39CHL1   C21 4044   0.905   5.424   5.429 -0.3913  0.3391 -0.6902
   39CHL1  H21A 4045   0.947   5.479   5.516  0.2428  0.0186 -0.7927
   39CHL1  H21B 4046   0.804   5.463   5.406 -0.2784  0.5956 -0.7507
   39CHL1  H21C 4047   0.978   5.433   5.347  0.0505  1.2680 -0.2124
   39CHL1   C22 4048   0.867   5.175   5.347 -0.9177 -0.8705 -0.2259
   39CHL1  H22A 4049   0.957   5.196   5.286 -0.5506 -0.6203  0.3985
   39CHL1  H22B 4050   0.878   5.070   5.382 -0.2187 -0.4445  0.8859
   39CHL1   C23 4051   0.744   5.197   5.257 -0.0331 -0.9658 -0.2552
   39CHL1  H23A 4052   0.654   5.177   5.319  0.3146  0.2407  0.6853
   39CHL1  H23B 4053   0.740   5.307   5.242  0.3843 -0.5130  2.3336
   39CHL1   C24 4054   0.755   5.108   5.136  0.2286 -0.2310  0.1609
   39CHL1  H24A 4055   0.850   5.135   5.086  0.9640 -1.5170  0.8213
   39CHL1  H24B 4056   0.759   5.003   5.172  4.5568 -0.8122 -1.4791
   39CHL1   C25 4057   0.646   5.126   5.034  0.3006  0.5350  0.5084
   39CHL1   H25 4058   0.556   5.086   5.086 -1.3987  2.7783 -0.5319
   39CHL1   C26 4059   0.611   5.282   5.006  0.3986 -0.2418  0.9365
   39CHL1  H26A 4060   0.579   5.345   5.091 -0.7053  1.1030 -0.4052
   39CHL1  H26B 4061   0.689   5.334   4.945 -0.8478  0.0693 -0.4689
   39CHL1  H26C 4062   0.525   5.290   4.936  0.0392 -1.5268  1.2172
   39CHL1   C27 4063   0.675   5.055   4.903  0.3680 -0.6924 -0.0811
   39CHL1  H27A 4064   0.703   4.950   4.922 -0.7074 -1.8256 -3.9070
   39CHL1  H27B 4065   0.582   5.058   4.841  1.3080 -0.3482 -1.5258
   39CHL1  H27C 4066   0.768   5.090   4.854  0.3677  0.1371  0.4895
   40CHL1    C3 4067   4.871   2.483   5.758 -0.5452  0.1019  0.2820
   40CHL1    H3 4068   4.839   2.583   5.722 -2.4720 -1.2586 -2.1126
   40CHL1    O3 4069   4.881   2.490   5.900  0.1812 -0.3404  0.2893
   40CHL1   H3' 4070   4.807   2.447   5.943  0.2402 -0.3373  0.3958
   40CHL1    C4 4071   4.762   2.384   5.716 -0.5290 -0.0629 -0.6636
   40CHL1   H4A 4072   4.785   2.292   5.775  0.8821  0.3952 -0.4521
   40CHL1   H4B 4073   4.664   2.420   5.753  1.6706  2.9896  2.9334
   40CHL1    C5 4074   4.760   2.359   5.565 -0.4535  0.6941 -0.3340
   40CHL1    C6 4075   4.647   2.370   5.492 -0.6328 -0.5068  0.1150
   40CHL1    H6 4076   4.558   2.411   5.542 -1.5079 -0.1990 -1.6233
   40CHL1    C7 4077   4.629   2.339   5.343 -0.0372  0.0419 -0.3588
   40CHL1   H7A 4078   4.540   2.274   5.337 -2.1447  2.6854  0.3444
   40CHL1   H7B 4079   4.591   2.426   5.286 -1.2227  0.1399  0.5467
   40CHL1    C8 4080   4.755   2.275   5.277 -0.7832 -0.1275 -0.0747
   40CHL1    H8 4081   4.753   2.170   5.313  0.4762  0.2814  1.3160
   40CHL1   C14 4082   4.749   2.274   5.128 -0.0809  0.4403 -0.3430
   40CHL1   H14 4083   4.747   2.380   5.096  0.6579  0.6567  0.2947
   40CHL1   C15 4084   4.624   2.214   5.061 -0.3626  0.4254  0.4475
   40CHL1  H15A 4085   4.594   2.116   5.104  1.0617 -0.9565 -1.5690
   40CHL1  H15B 4086   4.534   2.279   5.072 -1.5520 -0.9559 -0.7195
   40CHL1   C16 4087   4.663   2.189   4.916 -0.5627  0.0710 -0.2402
   40CHL1  H16A 4088   4.659   2.080   4.894  0.9003 -0.1108  0.2833
   40CHL1  H16B 4089   4.611   2.255   4.844 -2.1860 -1.4995 -0.5838
   40CHL1   C17 4090   4.822   2.219   4.908 -0.0822  0.2938 -0.2263
   40CHL1   H17 4091   4.835   2.322   4.867  0.8430 -0.0603 -0.8651
   40CHL1   C13 4092   4.869   2.217   5.060 -0.2560  0.3762  0.1695
   40CHL1   C18 4093   4.884   2.066   5.104 -0.6261 -0.6162  0.1278
   40CHL1  H18A 4094   4.885   2.061   5.215  1.9157 -1.1302  0.1614
   40CHL1  H18B 4095   4.798   2.006   5.068 -0.5858 -0.5869 -0.0193
   40CHL1  H18C 4096   4.980   2.022   5.068  0.4232  0.8681  0.9739
   40CHL1   C12 4097   4.987   2.308   5.092  0.3305 -0.6027  0.4742
   40CHL1  H12A 4098   5.079   2.275   5.039  0.4983  1.1296 -0.3804
   40CHL1  H12B 4099   4.960   2.412   5.065 -0.1493 -1.1487 -1.2385
   40CHL1   C11 4100   5.010   2.310   5.247  0.0055 -0.1857  0.5705
   40CHL1  H11A 4101   5.040   2.205   5.269  0.7602 -0.1650 -0.3058
   40CHL1  H11B 4102   5.093   2.378   5.273 -0.0682  0.7344 -1.4136
   40CHL1    C9 4103   4.882   2.343   5.336 -0.4021  0.4745 -0.1166
   40CHL1    H9 4104   4.865   2.452   5.330  0.2566  0.6280  0.6323
   40CHL1   C10 4105   4.892   2.319   5.496 -0.3426 -0.5057  0.1782
   40CHL1   C19 4106   4.933   2.171   5.520 -0.1226 -0.7854  0.2694
   40CHL1  H19A 4107   4.924   2.148   5.628 -0.5326 -3.2219 -0.2367
   40CHL1  H19B 4108   4.867   2.094   5.476 -0.4512  0.7606 -2.1626
   40CHL1  H19C 4109   5.027   2.152   5.463 -1.4172 -1.6613 -1.6811
   40CHL1    C1 4110   4.999   2.412   5.546 -0.0772  0.4347 -0.1138
   40CHL1   H1A 4111   5.099   2.374   5.515  1.6116  3.9851  0.5210
   40CHL1   H1B 4112   4.978   2.518   5.519 -1.0352  0.2385 -0.1783
   40CHL1    C2 4113   5.004   2.434   5.701  0.0504 -0.0473  0.7303
   40CHL1   H2A 4114   5.089   2.505   5.715 -0.6396  0.9425  0.0870
   40CHL1   H2B 4115   5.030   2.349   5.766  0.2381  0.3252  1.1481
   40CHL1   C20 4116   4.891   2.122   4.811 -0.5670  0.2016 -0.2275
   40CHL1   H20 4117   4.890   2.014   4.838  0.3546  0.5758  1.4458
   40CHL1   C21 4118   5.043   2.155   4.807 -0.6594  0.6754  0.7677
   40CHL1  H21A 4119   5.090   2.103   4.722 -1.6555  1.9291 -0.5993
   40CHL1  H21B 4120   5.086   2.107   4.898 -0.6209 -3.5950 -1.2603
   40CHL1  H21C 4121   5.059   2.264   4.818 -1.0291  0.5755  2.8277
   40CHL1   C22 4122   4.820   2.124   4.668  0.2519  0.3268  0.4827
   40CHL1  H22A 4123   4.873   2.057   4.597 -0.7132 -0.4161  0.4482
   40CHL1  H22B 4124   4.724   2.071   4.684  1.0157 -0.5955  2.2171
   40CHL1   C23 4125   4.808   2.263   4.604  0.0911  0.4678  0.0296
   40CHL1  H23A 4126   4.734   2.327   4.657  0.8745  0.4525  1.1646
   40CHL1  H23B 4127   4.905   2.315   4.611  0.8901 -0.9930  0.2697
   40CHL1   C24 4128   4.753   2.249   4.457 -0.1807 -0.3171  0.5364
   40CHL1  H24A 4129   4.797   2.167   4.397  0.2032  1.1955 -1.3297
   40CHL1  H24B 4130   4.643   2.240   4.459 -0.3293  1.2013  0.3235
   40CHL1   C25 4131   4.776   2.369   4.363  0.0477 -0.1836 -0.4391
   40CHL1   H25 4132   4.885   2.382   4.347 -0.0737  1.5143 -0.0940
   40CHL1   C26 4133   4.728   2.322   4.228  0.3321  0.2877  0.4881
   40CHL1  H26A 4134   4.790   2.234   4.202  0.8226 -0.7632  4.5066
   40CHL1  H26B 4135   4.622   2.292   4.242 -0.0502  1.5175  0.3683
   40CHL1  H26C 4136   4.727   2.397   4.146 -0.9643  0.9106  1.0390
   40CHL1   C27 4137   4.708   2.499   4.409  0.2616 -0.2923  0.3039
   40CHL1  H27A 4138   4.721   2.568   4.323 -2.1246  0.1774  0.2562
   40CHL1  H27B 4139   4.599   2.477   4.420  0.5480 -3.6478 -1.9761
   40CHL1  H27C 4140   4.748   2.543   4.502 -0.9273  0.8716  0.3010
   41CHL1    C3 4141   2.360   2.188   6.148  0.0068  0.2904 -0.3731
   41CHL1    H3 4142   2.419   2.283   6.149  2.8587 -1.3464  1.1245
   41CHL1    O3 4143   2.372   2.126   6.275 -0.6413 -0.0036 -0.2130
   41CHL1   H3' 4144   2.336   2.183   6.344  0.5684  1.2268 -0.5399
   41CHL1    C4 4145   2.216   2.203   6.110  0.0251 -0.5027  0.2993
   41CHL1   H4A 4146   2.175   2.103   6.135 -0.9845  0.2057  1.6050
   41CHL1   H4B 4147   2.160   2.268   6.180 -0.8203  0.5533 -1.2912
   41CHL1    C5 4148   2.190   2.244   5.966  0.4311 -0.1112 -0.0695
   41CHL1    C6 4149   2.114   2.355   5.937  0.2708 -0.8585 -0.6472
   41CHL1    H6 4150   2.073   2.415   6.019  1.0648  0.5543 -1.2573
   41CHL1    C7 4151   2.072   2.399   5.798  0.1310 -0.3336 -0.4109
   41CHL1   H7A 4152   1.964   2.419   5.787  0.5418  2.1295 -0.5603
   41CHL1   H7B 4153   2.114   2.501   5.788 -2.3995  1.1220  2.3920
   41CHL1    C8 4154   2.122   2.299   5.685 -0.4493 -0.3882  0.1919
   41CHL1    H8 4155   2.050   2.215   5.674 -0.8704  0.1338 -1.2755
   41CHL1   C14 4156   2.136   2.374   5.552 -0.9282 -0.3868 -0.1440
   41CHL1   H14 4157   2.229   2.433   5.566 -1.3281  0.2796 -0.2383
   41CHL1   C15 4158   2.022   2.467   5.500  0.0495  0.1733 -0.3262
   41CHL1  H15A 4159   1.923   2.420   5.518  0.2089 -1.0430 -2.3657
   41CHL1  H15B 4160   2.033   2.561   5.558  3.6205 -0.8573  0.9591
   41CHL1   C16 4161   2.051   2.478   5.351  0.0562  0.2250  0.7920
   41CHL1  H16A 4162   1.956   2.447   5.303 -0.6417 -0.2720  2.3958
   41CHL1  H16B 4163   2.073   2.584   5.327  0.1115  0.3710  1.4604
   41CHL1   C17 4164   2.172   2.390   5.319  0.4357 -0.3642  0.2272
   41CHL1   H17 4165   2.265   2.452   5.324  0.7657 -0.7705 -0.5832
   41CHL1   C13 4166   2.171   2.285   5.431 -0.3448  0.0488 -0.1579
   41CHL1   C18 4167   2.057   2.184   5.406  0.3552  0.4698 -0.2292
   41CHL1  H18A 4168   2.089   2.102   5.337  1.3206 -1.7382  2.6276
   41CHL1  H18B 4169   2.030   2.129   5.498 -0.4423  0.6202 -0.3656
   41CHL1  H18C 4170   1.964   2.227   5.363 -0.1605 -0.5365 -0.1504
   41CHL1   C12 4171   2.307   2.210   5.459 -0.2794 -0.1170 -0.2381
   41CHL1  H12A 4172   2.327   2.134   5.381 -4.0992 -0.5218 -1.0300
   41CHL1  H12B 4173   2.386   2.287   5.472  0.1971  0.0305 -3.3062
   41CHL1   C11 4174   2.303   2.144   5.598  0.6302  0.0061  0.2311
   41CHL1  H11A 4175   2.238   2.055   5.583  0.8339  0.1034 -1.3730
   41CHL1  H11B 4176   2.404   2.106   5.621 -0.7581 -3.2284  1.5949
   41CHL1    C9 4177   2.260   2.233   5.716 -0.3016 -0.4913 -0.8209
   41CHL1    H9 4178   2.335   2.315   5.719 -0.1801 -0.5911  2.4279
   41CHL1   C10 4179   2.263   2.164   5.857 -0.4091  0.2286  0.1392
   41CHL1   C19 4180   2.185   2.030   5.858  0.0791  0.2355 -0.1146
   41CHL1  H19A 4181   2.075   2.027   5.843  0.3355  0.4211 -2.5124
   41CHL1  H19B 4182   2.211   1.962   5.773  0.0985  1.1491 -0.8565
   41CHL1  H19C 4183   2.193   1.977   5.955 -0.4424  1.2650  0.5037
   41CHL1    C1 4184   2.411   2.139   5.903 -0.5132 -0.0814 -0.5517
   41CHL1   H1A 4185   2.460   2.068   5.832 -0.4903  0.0680 -0.6873
   41CHL1   H1B 4186   2.466   2.235   5.901  1.4607 -1.0894  1.7428
   41CHL1    C2 4187   2.429   2.094   6.047 -0.7949  0.1219 -0.7098
   41CHL1   H2A 4188   2.538   2.093   6.068 -0.8201 -2.2915 -0.4550
   41CHL1   H2B 4189   2.402   1.987   6.062 -3.0671  0.9554  1.9859
   41CHL1   C20 4190   2.174   2.347   5.172 -0.4390  0.4532 -0.0663
   41CHL1   H20 4191   2.116   2.252   5.179  0.0319  0.2845  3.1423
   41CHL1   C21 4192   2.313   2.305   5.121  0.0421 -0.8299  0.0033
   41CHL1  H21A 4193   2.328   2.231   5.039  3.0078  0.4613 -0.7912
   41CHL1  H21B 4194   2.378   2.269   5.204 -0.7962 -2.6283 -0.0804
   41CHL1  H21C 4195   2.365   2.394   5.077  0.1728 -0.6521  0.5128
   41CHL1   C22 4196   2.116   2.439   5.064  0.0039 -0.5128  0.3091
   41CHL1  H22A 4197   2.022   2.477   5.110 -2.1777 -3.3679 -1.4633
   41CHL1  H22B 4198   2.180   2.528   5.050  0.4905 -0.5867  1.8727
   41CHL1   C23 4199   2.090   2.379   4.920 -0.3237 -0.5366  0.0648
   41CHL1  H23A 4200   2.183   2.355   4.864 -1.0992 -1.3638 -0.9127
   41CHL1  H23B 4201   2.041   2.281   4.939 -0.7063 -0.6657 -1.4661
   41CHL1   C24 4202   1.998   2.463   4.832  0.0486  0.4196 -0.5779
   41CHL1  H24A 4203   1.906   2.467   4.895  0.0563 -0.2764 -0.5086
   41CHL1  H24B 4204   2.031   2.568   4.817  1.6369  0.1025  0.4116
   41CHL1   C25 4205   1.957   2.383   4.708  0.4141  0.2456  0.0318
   41CHL1   H25 4206   1.909   2.287   4.739 -0.5969  0.6467 -0.2619
   41CHL1   C26 4207   1.841   2.455   4.631 -0.1723  0.0804  0.0293
   41CHL1  H26A 4208   1.813   2.404   4.536  2.7324 -3.7772  0.9857
   41CHL1  H26B 4209   1.751   2.450   4.695 -0.5777  0.9539 -0.4523
   41CHL1  H26C 4210   1.874   2.559   4.610  0.0807 -0.0485 -0.2349
   41CHL1   C27 4211   2.076   2.338   4.613  0.3005  0.6208 -0.7497
   41CHL1  H27A 4212   2.143   2.267   4.666  2.0761  0.7004 -2.7518
   41CHL1  H27B 4213   2.044   2.291   4.517  0.9328 -0.9183 -0.2361
   41CHL1  H27C 4214   2.131   2.431   4.585 -0.3485  0.9778 -0.8485
   42CHL1    C3 4215   1.540   4.259   6.356  0.6050  0.1215 -0.3677
   42CHL1    H3 4216   1.644   4.295   6.372  0.6556  0.0789 -0.5946
   42CHL1    O3 4217   1.492   4.206   6.481 -0.5258  0.4585  0.4831
   42CHL1   H3' 4218   1.400   4.234   6.473 -0.4642  0.5413  0.0435
   42CHL1    C4 4219   1.448   4.377   6.313  0.7937  0.1205 -0.4341
   42CHL1   H4A 4220   1.340   4.360   6.330  0.8445 -0.6669 -0.8237
   42CHL1   H4B 4221   1.478   4.454   6.386 -0.8732 -0.6554  1.1347
   42CHL1    C5 4222   1.470   4.420   6.169 -1.1195 -0.2675  0.0538
   42CHL1    C6 4223   1.493   4.548   6.136  0.5109 -0.6455  0.5950
   42CHL1    H6 4224   1.484   4.617   6.220  0.2563 -0.3011  0.2898
   42CHL1    C7 4225   1.522   4.597   5.996 -0.0990  0.0364 -0.6256
   42CHL1   H7A 4226   1.485   4.702   5.989  3.3202  1.4588  0.4474
   42CHL1   H7B 4227   1.631   4.614   5.978 -0.5012  1.0072 -2.4566
   42CHL1    C8 4228   1.466   4.489   5.900 -0.0595 -0.0314 -0.2364
   42CHL1    H8 4229   1.355   4.497   5.906 -0.1011 -1.0617  0.5876
   42CHL1   C14 4230   1.512   4.527   5.755 -0.1686 -0.0177 -0.3314
   42CHL1   H14 4231   1.622   4.521   5.772 -0.5314 -0.2596  2.4231
   42CHL1   C15 4232   1.491   4.662   5.691 -0.1321  0.0324  0.4465
   42CHL1  H15A 4233   1.384   4.687   5.677 -0.2710  0.3425  1.8967
   42CHL1  H15B 4234   1.538   4.746   5.745  2.0658  0.5411 -2.0476
   42CHL1   C16 4235   1.557   4.652   5.553  0.3139 -0.3052 -0.6906
   42CHL1  H16A 4236   1.506   4.717   5.479  1.4603 -0.7614 -1.9117
   42CHL1  H16B 4237   1.664   4.684   5.553 -0.1005  1.1612 -0.7776
   42CHL1   C17 4238   1.548   4.502   5.515  0.0174 -0.0497 -0.7633
   42CHL1   H17 4239   1.653   4.465   5.516  0.0613  0.0062 -1.7492
   42CHL1   C13 4240   1.485   4.429   5.637  0.6956  0.8870 -0.5815
   42CHL1   C18 4241   1.325   4.413   5.625 -0.4427  0.6823  0.7105
   42CHL1  H18A 4242   1.288   4.513   5.597  0.0233  0.5128 -0.5719
   42CHL1  H18B 4243   1.303   4.336   5.548 -1.6261  1.7555 -0.0503
   42CHL1  H18C 4244   1.275   4.387   5.721 -2.0942 -1.8160 -0.6951
   42CHL1   C12 4245   1.555   4.297   5.676  0.6288 -0.2039 -0.1149
   42CHL1  H12A 4246   1.534   4.216   5.602  1.6814 -1.2493  0.6938
   42CHL1  H12B 4247   1.666   4.304   5.682  0.6723  1.4567 -1.8967
   42CHL1   C11 4248   1.504   4.251   5.813  0.3418  1.0318  0.5677
   42CHL1  H11A 4249   1.397   4.228   5.796  0.4874  0.2090  0.7276
   42CHL1  H11B 4250   1.547   4.154   5.846  0.9189  2.2260  3.6076
   42CHL1    C9 4251   1.518   4.351   5.934  0.4499 -0.1599  0.1489
   42CHL1    H9 4252   1.627   4.366   5.952  0.1107  3.4476 -0.1176
   42CHL1   C10 4253   1.463   4.302   6.072  0.3593  0.7002  0.4973
   42CHL1   C19 4254   1.316   4.252   6.044  0.1639 -1.0552 -0.6033
   42CHL1  H19A 4255   1.271   4.207   6.136  2.0825 -1.9509 -0.0388
   42CHL1  H19B 4256   1.252   4.338   6.018 -0.2275 -0.7280  1.3161
   42CHL1  H19C 4257   1.300   4.181   5.960 -1.3234 -1.3417 -0.0997
   42CHL1    C1 4258   1.552   4.182   6.115  0.1244  1.2086  0.7085
   42CHL1   H1A 4259   1.542   4.092   6.049  0.1842  1.5618  0.2120
   42CHL1   H1B 4260   1.658   4.209   6.098 -0.2500  1.9119 -0.7665
   42CHL1    C2 4261   1.539   4.144   6.265 -0.1810 -0.2064 -0.1595
   42CHL1   H2A 4262   1.620   4.074   6.293  0.4978  1.2524  1.7507
   42CHL1   H2B 4263   1.438   4.098   6.266 -0.6758  0.8169 -0.7301
   42CHL1   C20 4264   1.504   4.474   5.372  0.1739  0.3761  0.1093
   42CHL1   H20 4265   1.394   4.490   5.365 -0.1234 -1.5138 -0.2655
   42CHL1   C21 4266   1.516   4.318   5.347  0.6578 -0.7618  0.0504
   42CHL1  H21A 4267   1.443   4.250   5.396  0.5915 -1.4067 -0.9153
   42CHL1  H21B 4268   1.623   4.291   5.361  0.6103 -1.3087 -0.5344
   42CHL1  H21C 4269   1.506   4.312   5.236  0.0461 -0.2768  0.0785
   42CHL1   C22 4270   1.588   4.550   5.264 -0.0591 -0.3651  0.0843
   42CHL1  H22A 4271   1.591   4.655   5.300 -0.9328 -0.1793 -0.3649
   42CHL1  H22B 4272   1.691   4.510   5.260  0.4898  1.0296 -0.1902
   42CHL1   C23 4273   1.535   4.556   5.124 -0.1272 -0.5699  0.4777
   42CHL1  H23A 4274   1.516   4.452   5.090 -0.2268 -0.5991  0.6208
   42CHL1  H23B 4275   1.437   4.607   5.136 -0.1044 -0.5075  0.4007
   42CHL1   C24 4276   1.625   4.637   5.030  0.6684 -0.5951 -0.1138
   42CHL1  H24A 4277   1.652   4.727   5.090 -1.0696 -0.0432 -0.0872
   42CHL1  H24B 4278   1.720   4.581   5.020  0.1859 -1.0841 -2.8486
   42CHL1   C25 4279   1.581   4.671   4.883 -0.7147  1.0657  0.0385
   42CHL1   H25 4280   1.653   4.737   4.831 -0.5552 -1.0532 -2.6830
   42CHL1   C26 4281   1.575   4.542   4.802 -0.5383  1.0368 -0.3586
   42CHL1  H26A 4282   1.473   4.501   4.816 -0.6214  0.9514 -1.1927
   42CHL1  H26B 4283   1.599   4.562   4.696  1.8548 -0.0870 -0.1063
   42CHL1  H26C 4284   1.648   4.465   4.836 -0.9826  0.5106 -0.5721
   42CHL1   C27 4285   1.452   4.748   4.891  0.6010  0.0555  0.3294
   42CHL1  H27A 4286   1.357   4.704   4.929 -0.7218  3.4154  1.3665
   42CHL1  H27B 4287   1.462   4.840   4.953  2.1797  1.8718 -2.4124
   42CHL1  H27C 4288   1.435   4.785   4.787 -1.5977  2.0515  1.2975
   43CHL1    C3 4289   4.158   6.323   5.965  0.1645  0.4089 -0.6267
   43CHL1    H3 4290   4.181   6.430   5.944 -2.5721  1.1404 -0.2396
   43CHL1    O3 4291   4.136   6.310   6.106 -0.4484  0.2215 -0.0055
   43CHL1   H3' 4292   4.113   6.217   6.115  0.1308 -0.2141 -2.3997
   43CHL1    C4 4293   4.034   6.272   5.884 -0.1582 -0.3850  0.2470
   43CHL1   H4A 4294   4.004   6.175   5.928 -1.7976  0.2570  0.6034
   43CHL1   H4B 4295   3.947   6.337   5.905 -0.2310 -0.9104  1.7052
   43CHL1    C5 4296   4.060   6.247   5.740 -0.2658  0.1319 -0.0492
   43CHL1    C6 4297   3.978   6.302   5.654 -0.0257  0.1940 -0.6274
   43CHL1    H6 4298   3.893   6.366   5.681  0.1085  0.3772 -0.6392
   43CHL1    C7 4299   3.986   6.276   5.510 -0.3453  0.7907 -0.5980
   43CHL1   H7A 4300   3.884   6.260   5.468  0.0364 -1.0454 -0.8861
   43CHL1   H7B 4301   4.015   6.372   5.462 -0.2825  1.3831  0.5971
   43CHL1    C8 4302   4.082   6.163   5.472  0.4102 -0.2034  0.1626
   43CHL1    H8 4303   4.036   6.065   5.497  0.6196 -0.3723 -0.1201
   43CHL1   C14 4304   4.116   6.154   5.328 -0.2920  0.1995  0.0711
   43CHL1   H14 4305   4.163   6.249   5.297  0.9574 -0.6125 -0.6302
   43CHL1   C15 4306   3.992   6.132   5.237 -0.0974 -0.2878 -0.3147
   43CHL1  H15A 4307   3.910   6.100   5.305  1.1462 -2.5351  0.2481
   43CHL1  H15B 4308   3.957   6.232   5.202 -1.3274 -1.0711 -1.4315
   43CHL1   C16 4309   4.036   6.044   5.122  0.0335  0.4489  0.1382
   43CHL1  H16A 4310   4.001   5.939   5.129  0.6576  0.0505 -2.0222
   43CHL1  H16B 4311   4.009   6.076   5.019  1.0731 -2.3145 -1.0986
   43CHL1   C17 4312   4.191   6.032   5.132 -0.6791 -0.7970 -0.7451
   43CHL1   H17 4313   4.233   6.121   5.082  2.0090 -1.9212 -0.6675
   43CHL1   C13 4314   4.216   6.044   5.289 -0.4849  0.0909  0.9519
   43CHL1   C18 4315   4.186   5.902   5.345  0.2134 -0.7051  1.4430
   43CHL1  H18A 4316   4.098   5.856   5.294 -1.3132  1.2685  2.1751
   43CHL1  H18B 4317   4.273   5.835   5.325 -0.6589 -0.6124 -4.6310
   43CHL1  H18C 4318   4.163   5.904   5.453 -0.2927  0.7054  1.3216
   43CHL1   C12 4319   4.349   6.090   5.350 -0.1118 -0.3795  0.3581
   43CHL1  H12A 4320   4.433   6.020   5.329 -0.2324  0.0186 -1.6541
   43CHL1  H12B 4321   4.380   6.177   5.289  0.6401  0.4613  1.8838
   43CHL1   C11 4322   4.335   6.105   5.500 -0.0565 -0.3069  0.4468
   43CHL1  H11A 4323   4.343   6.003   5.542 -1.2975 -0.2253  0.9079
   43CHL1  H11B 4324   4.429   6.155   5.532  1.7410 -1.7411 -2.1826
   43CHL1    C9 4325   4.212   6.189   5.553  0.1321 -0.0341  0.4306
   43CHL1    H9 4326   4.240   6.295   5.533  1.5956 -1.0040 -3.6291
   43CHL1   C10 4327   4.181   6.171   5.702  0.1628  0.1219  0.0832
   43CHL1   C19 4328   4.148   6.025   5.748  0.3547  0.3535  0.7063
   43CHL1  H19A 4329   4.220   5.948   5.711 -2.1844 -2.4179  1.1582
   43CHL1  H19B 4330   4.131   6.008   5.856  0.1327 -1.4931  0.4213
   43CHL1  H19C 4331   4.065   5.984   5.687 -0.9029  0.4368  2.2951
   43CHL1    C1 4332   4.305   6.222   5.781 -0.3362 -0.0265  0.6439
   43CHL1   H1A 4333   4.391   6.152   5.778 -0.0416  0.3533  0.0508
   43CHL1   H1B 4334   4.330   6.314   5.724 -0.7728 -0.8789 -0.9853
   43CHL1    C2 4335   4.285   6.241   5.926  0.8146  0.5045  0.2636
   43CHL1   H2A 4336   4.371   6.293   5.974  2.2669  0.1038 -1.8072
   43CHL1   H2B 4337   4.271   6.143   5.977  0.6710  0.9568  1.1187
   43CHL1   C20 4338   4.256   5.911   5.057  0.6945  0.6966  0.0844
   43CHL1   H20 4339   4.232   5.824   5.121  0.3642  0.5341 -0.2556
   43CHL1   C21 4340   4.409   5.923   5.060 -0.2315 -0.3681 -0.0385
   43CHL1  H21A 4341   4.446   6.015   5.010 -3.1508  1.0777  0.2732
   43CHL1  H21B 4342   4.454   5.836   5.008  1.1841  0.2640  0.0672
   43CHL1  H21C 4343   4.457   5.928   5.160 -0.8502 -0.7169  0.2816
   43CHL1   C22 4344   4.205   5.896   4.906  0.1245  0.7666 -0.9749
   43CHL1  H22A 4345   4.094   5.900   4.905 -0.1791 -1.2753  3.0194
   43CHL1  H22B 4346   4.235   5.981   4.841  2.7676  1.8065  1.3952
   43CHL1   C23 4347   4.264   5.766   4.846  0.1859  0.6864  0.3096
   43CHL1  H23A 4348   4.374   5.765   4.836  0.2876 -0.5783  1.3416
   43CHL1  H23B 4349   4.246   5.681   4.915  1.5833  1.3827  1.5785
   43CHL1   C24 4350   4.227   5.739   4.698 -0.5248  0.1674 -0.9512
   43CHL1  H24A 4351   4.119   5.715   4.703 -0.7486  1.2164 -0.2934
   43CHL1  H24B 4352   4.221   5.834   4.639 -1.4212  1.5319  1.1997
   43CHL1   C25 4353   4.330   5.641   4.641  0.4718  0.8293  0.2274
   43CHL1   H25 4354   4.437   5.658   4.664  0.5325 -0.4664  1.0226
   43CHL1   C26 4355   4.294   5.502   4.695 -0.5492 -0.3857  0.2419
   43CHL1  H26A 4356   4.370   5.422   4.684 -0.9124 -0.7147  0.0892
   43CHL1  H26B 4357   4.262   5.502   4.802 -1.6060  1.9051 -0.0186
   43CHL1  H26C 4358   4.200   5.469   4.646 -0.7253 -1.4427  1.2439
   43CHL1   C27 4359   4.326   5.632   4.493 -0.2352 -0.0669 -0.2213
   43CHL1  H27A 4360   4.394   5.552   4.456  2.4020  1.0483  1.8165
   43CHL1  H27B 4361   4.226   5.620   4.446 -0.1471 -0.5930 -0.2835
   43CHL1  H27C 4362   4.380   5.721   4.454  1.1285 -0.0320  1.6027
   44CHL1    C3 4363   2.009   1.539   6.158 -0.4172 -0.2339 -0.6076
   44CHL1    H3 4364   1.901   1.563   6.167  0.0062  1.9513 -0.7742
   44CHL1    O3 4365   2.061   1.518   6.284 -0.5411 -0.0782  0.0882
   44CHL1   H3' 4366   2.157   1.514   6.284 -0.5494 -0.4350 -0.5246
   44CHL1    C4 4367   2.016   1.401   6.090 -0.5982  0.5046  0.0683
   44CHL1   H4A 4368   2.116   1.354   6.101  0.4825  2.0821 -2.1845
   44CHL1   H4B 4369   1.938   1.338   6.137  0.8319 -0.1595  1.6865
   44CHL1    C5 4370   1.989   1.417   5.942  0.4979 -0.0426 -0.2148
   44CHL1    C6 4371   1.903   1.326   5.885 -0.7175 -0.1932  0.0306
   44CHL1    H6 4372   1.852   1.253   5.950 -0.3278 -1.2564 -0.8382
   44CHL1    C7 4373   1.866   1.322   5.743 -0.3233  0.0982  0.4493
   44CHL1   H7A 4374   1.851   1.216   5.715 -0.4768  0.2887 -0.1998
   44CHL1   H7B 4375   1.768   1.373   5.728  0.5237  1.2625 -1.3948
   44CHL1    C8 4376   1.974   1.403   5.653  0.1206  1.1230  0.1655
   44CHL1    H8 4377   2.067   1.342   5.650  0.7243  2.0459 -1.7923
   44CHL1   C14 4378   1.921   1.409   5.507 -0.1395  0.8723  0.0484
   44CHL1   H14 4379   1.820   1.456   5.511 -1.6476 -2.0856 -0.2517
   44CHL1   C15 4380   1.871   1.277   5.438 -0.6377 -0.4383  0.4881
   44CHL1  H15A 4381   1.942   1.194   5.456  1.4572  1.6627  2.7124
   44CHL1  H15B 4382   1.770   1.246   5.474 -0.2999 -0.9400  1.0074
   44CHL1   C16 4383   1.866   1.325   5.292  0.1614  0.3383 -0.4130
   44CHL1  H16A 4384   1.933   1.254   5.239  0.3500 -1.4517  2.0310
   44CHL1  H16B 4385   1.770   1.330   5.237 -0.4468 -1.4494  0.4097
   44CHL1   C17 4386   1.936   1.469   5.285 -0.3112  0.1387  0.1172
   44CHL1   H17 4387   1.857   1.545   5.303 -1.9775 -1.2235 -1.1260
   44CHL1   C13 4388   2.018   1.478   5.413 -0.4069  0.0027 -0.3659
   44CHL1   C18 4389   2.149   1.395   5.396  0.1770 -0.2701 -0.1759
   44CHL1  H18A 4390   2.221   1.464   5.348 -0.6536  0.3973 -0.4836
   44CHL1  H18B 4391   2.191   1.350   5.489  0.1251 -0.4905 -0.2582
   44CHL1  H18C 4392   2.134   1.314   5.321 -0.3071 -1.3674  1.0583
   44CHL1   C12 4393   2.051   1.617   5.474  0.3906 -0.1398  0.3213
   44CHL1  H12A 4394   2.117   1.669   5.401  1.2245  0.5695  1.5239
   44CHL1  H12B 4395   1.960   1.676   5.494  0.8206  0.1877  1.4139
   44CHL1   C11 4396   2.100   1.610   5.619  0.1394  0.2726 -0.6744
   44CHL1  H11A 4397   2.184   1.540   5.601 -1.7404 -1.7736 -1.9287
   44CHL1  H11B 4398   2.127   1.708   5.664 -2.5078 -0.1056  2.0684
   44CHL1    C9 4399   2.007   1.537   5.713  0.8898 -0.3024 -0.3684
   44CHL1    H9 4400   1.916   1.600   5.721  0.7304 -0.4406 -1.0155
   44CHL1   C10 4401   2.059   1.531   5.861 -0.0109  0.0929  0.6237
   44CHL1   C19 4402   2.213   1.496   5.852  0.0613  0.1119  0.5642
   44CHL1  H19A 4403   2.224   1.399   5.799 -3.6723  0.4044 -1.0332
   44CHL1  H19B 4404   2.264   1.583   5.807  0.1051  0.3824  1.1277
   44CHL1  H19C 4405   2.260   1.480   5.951  1.3515  0.9904  0.1194
   44CHL1    C1 4406   2.043   1.662   5.946 -0.0883  0.2299 -0.3074
   44CHL1   H1A 4407   2.085   1.750   5.892  3.7000 -1.9182 -1.1932
   44CHL1   H1B 4408   1.933   1.681   5.939 -0.6264 -2.2496  0.3016
   44CHL1    C2 4409   2.084   1.655   6.089  0.3388  0.2783  0.4305
   44CHL1   H2A 4410   2.047   1.743   6.147 -1.7468 -1.0854  1.2698
   44CHL1   H2B 4411   2.193   1.640   6.100  0.3219 -0.8581 -0.7238
   44CHL1   C20 4412   2.003   1.503   5.151 -0.1607 -0.7969  0.2319
   44CHL1   H20 4413   2.101   1.454   5.133  0.3838  0.9709 -2.2303
   44CHL1   C21 4414   2.025   1.656   5.144  0.5393  0.8357 -0.2153
   44CHL1  H21A 4415   1.936   1.707   5.187  0.1438 -0.0142  0.0135
   44CHL1  H21B 4416   2.030   1.696   5.041  1.6761  0.2734 -0.4000
   44CHL1  H21C 4417   2.113   1.679   5.208  0.6026  1.1680 -0.4200
   44CHL1   C22 4418   1.930   1.459   5.023 -0.3743 -0.4476  0.0547
   44CHL1  H22A 4419   1.909   1.350   5.030 -0.9442 -0.3124  0.4980
   44CHL1  H22B 4420   1.833   1.510   5.005 -0.5881  0.0333  2.3505
   44CHL1   C23 4421   2.015   1.474   4.899  0.5942  0.1192  0.2622
   44CHL1  H23A 4422   2.028   1.581   4.873  0.1124  0.0952 -0.0911
   44CHL1  H23B 4423   2.116   1.433   4.922 -0.3887 -2.2970  0.5292
   44CHL1   C24 4424   1.962   1.419   4.760 -0.1060 -0.3395 -0.1510
   44CHL1  H24A 4425   1.999   1.317   4.739  2.1012 -0.0964  2.1319
   44CHL1  H24B 4426   1.853   1.403   4.771 -0.1048 -0.3786 -0.1948
   44CHL1   C25 4427   1.995   1.508   4.640  0.3275 -0.1411  0.0111
   44CHL1   H25 4428   1.959   1.611   4.657 -2.6608 -1.0881 -0.0640
   44CHL1   C26 4429   2.144   1.510   4.619 -0.4505 -0.1882  0.8901
   44CHL1  H26A 4430   2.188   1.408   4.609 -0.0386  0.1048 -0.6056
   44CHL1  H26B 4431   2.168   1.561   4.523  0.0089 -0.7204  0.7145
   44CHL1  H26C 4432   2.195   1.570   4.697 -0.0643  1.3087 -0.4682
   44CHL1   C27 4433   1.942   1.453   4.507  0.2442  0.5760  0.2780
   44CHL1  H27A 4434   1.993   1.510   4.426 -0.7033 -2.0481 -2.3356
   44CHL1  H27B 4435   1.979   1.349   4.493 -0.8820  0.3504 -1.2871
   44CHL1  H27C 4436   1.832   1.464   4.503  0.2981  0.7878 -1.0142
   45CHL1    C3 4437   2.870   1.639   6.151 -0.0219  0.4557  0.7376
   45CHL1    H3 4438   2.966   1.635   6.096 -1.2817 -0.2879 -1.5431
   45CHL1    O3 4439   2.900   1.621   6.290 -0.0002 -0.1019  0.6563
   45CHL1   H3' 4440   2.957   1.543   6.285  1.5770  0.9654  1.2719
   45CHL1    C4 4441   2.800   1.772   6.121  0.0824  0.0133 -0.3775
   45CHL1   H4A 4442   2.706   1.777   6.181  0.2018  0.7748 -0.2454
   45CHL1   H4B 4443   2.858   1.856   6.164  0.1100 -0.7484  1.1575
   45CHL1    C5 4444   2.757   1.787   5.980 -0.3055  0.1513 -0.3948
   45CHL1    C6 4445   2.795   1.884   5.902 -0.7685  0.0255 -0.2269
   45CHL1    H6 4446   2.871   1.957   5.934  1.9647 -1.8559 -1.9948
   45CHL1    C7 4447   2.751   1.899   5.758  0.1794  0.0189  0.6155
   45CHL1   H7A 4448   2.717   2.003   5.737  0.3171 -0.2329 -0.9254
   45CHL1   H7B 4449   2.840   1.867   5.700 -0.2962 -1.0594  0.4591
   45CHL1    C8 4450   2.645   1.798   5.704  0.3594  0.1342 -0.8450
   45CHL1    H8 4451   2.545   1.826   5.744 -0.2165 -2.8618  0.1055
   45CHL1   C14 4452   2.654   1.794   5.561  0.3123  0.0973 -0.6257
   45CHL1   H14 4453   2.756   1.758   5.534  0.1870  0.6338 -1.8768
   45CHL1   C15 4454   2.647   1.934   5.489 -0.2392  0.0427 -0.4342
   45CHL1  H15A 4455   2.572   1.999   5.540  1.1286  0.5148  1.0323
   45CHL1  H15B 4456   2.737   2.000   5.488  0.0608 -0.2415  2.2678
   45CHL1   C16 4457   2.604   1.892   5.345  0.4436 -0.3778  0.4702
   45CHL1  H16A 4458   2.510   1.938   5.307  1.0019  1.0243  0.7317
   45CHL1  H16B 4459   2.676   1.928   5.269  0.2792 -0.2544  0.3708
   45CHL1   C17 4460   2.578   1.732   5.350 -0.9766 -0.0764  0.3550
   45CHL1   H17 4461   2.682   1.697   5.332 -0.8376  1.0912 -1.3307
   45CHL1   C13 4462   2.551   1.701   5.496 -0.0530 -0.0013 -0.7860
   45CHL1   C18 4463   2.405   1.744   5.529 -0.0479  0.0469 -0.0213
   45CHL1  H18A 4464   2.386   1.747   5.639 -0.7598 -0.4923 -0.1285
   45CHL1  H18B 4465   2.376   1.840   5.483  2.0069  0.8700  0.2690
   45CHL1  H18C 4466   2.338   1.666   5.488 -1.2526  2.1564 -2.3448
   45CHL1   C12 4467   2.579   1.555   5.548  0.3334  0.2126 -0.0154
   45CHL1  H12A 4468   2.490   1.499   5.513  1.1429 -1.6133  0.7153
   45CHL1  H12B 4469   2.666   1.515   5.491 -1.1229 -0.1913 -2.0881
   45CHL1   C11 4470   2.583   1.546   5.704  0.0746 -0.4850 -0.0730
   45CHL1  H11A 4471   2.487   1.580   5.748  0.5197  0.4826  0.1728
   45CHL1  H11B 4472   2.605   1.442   5.736 -0.1147 -0.0626  1.4931
   45CHL1    C9 4473   2.675   1.656   5.764  0.1081  0.4045 -0.0872
   45CHL1    H9 4474   2.777   1.625   5.735 -0.7859 -1.9046 -0.9901
   45CHL1   C10 4475   2.676   1.664   5.925  1.0384 -0.3517  0.3499
   45CHL1   C19 4476   2.536   1.688   5.985 -0.2228 -0.0922  0.1069
   45CHL1  H19A 4477   2.544   1.676   6.095  1.3160  1.7667  0.2460
   45CHL1  H19B 4478   2.504   1.791   5.962 -0.1518  0.3967  2.0585
   45CHL1  H19C 4479   2.462   1.619   5.938 -1.8938  2.7877 -1.8161
   45CHL1    C1 4480   2.745   1.534   5.970  0.4516 -0.0782  0.6671
   45CHL1   H1A 4481   2.690   1.444   5.937 -0.2342  1.2140 -2.0116
   45CHL1   H1B 4482   2.840   1.528   5.912  0.1802 -2.8183  0.3593
   45CHL1    C2 4483   2.782   1.523   6.116 -0.0635 -0.3941 -0.4865
   45CHL1   H2A 4484   2.832   1.424   6.124 -0.3350 -0.5260 -0.3929
   45CHL1   H2B 4485   2.692   1.509   6.180  0.8115 -1.5049  0.5764
   45CHL1   C20 4486   2.478   1.683   5.239 -0.2434 -0.5145  0.1285
   45CHL1   H20 4487   2.378   1.713   5.277  1.4741  1.6927  3.4784
   45CHL1   C21 4488   2.496   1.525   5.230 -0.0507  0.2794  0.2587
   45CHL1  H21A 4489   2.438   1.478   5.312 -1.3727  2.9343  0.9695
   45CHL1  H21B 4490   2.606   1.510   5.240 -0.1012  0.2897  0.9056
   45CHL1  H21C 4491   2.471   1.493   5.127  1.5287  1.0650 -0.3981
   45CHL1   C22 4492   2.497   1.750   5.100  1.1514 -0.1780  0.1042
   45CHL1  H22A 4493   2.519   1.859   5.097  0.3602 -0.0214 -1.4309
   45CHL1  H22B 4494   2.591   1.705   5.061  1.5677 -0.5484  1.4826
   45CHL1   C23 4495   2.373   1.719   5.008  0.4094 -0.0972  0.2171
   45CHL1  H23A 4496   2.369   1.609   4.989  0.4679 -0.1395  0.4459
   45CHL1  H23B 4497   2.286   1.752   5.068  1.0217  2.9455 -0.3882
   45CHL1   C24 4498   2.371   1.793   4.870 -0.6709  0.0253  0.4416
   45CHL1  H24A 4499   2.292   1.756   4.800 -0.4936 -0.9077  0.7226
   45CHL1  H24B 4500   2.346   1.901   4.884  0.7621  0.5003 -0.4988
   45CHL1   C25 4501   2.496   1.788   4.784 -0.2837 -0.0741 -0.4486
   45CHL1   H25 4502   2.586   1.823   4.840 -0.0717 -0.5362 -0.4998
   45CHL1   C26 4503   2.533   1.642   4.728 -0.0629 -0.1529  0.0732
   45CHL1  H26A 4504   2.453   1.611   4.658 -1.5509  1.6981  0.8484
   45CHL1  H26B 4505   2.625   1.633   4.667  0.2997 -4.0439  0.9346
   45CHL1  H26C 4506   2.541   1.575   4.817  0.0949 -0.0110  0.1662
   45CHL1   C27 4507   2.482   1.891   4.664  0.4403  0.2205 -0.0845
   45CHL1  H27A 4508   2.588   1.910   4.637  0.4395  1.4150  0.6794
   45CHL1  H27B 4509   2.420   1.862   4.576  0.0321 -0.1132  0.3054
   45CHL1  H27C 4510   2.445   1.984   4.713  1.0897 -0.1835  1.2150
   46CHL1    C3 4511   2.933   3.037   6.067  0.8315  0.3002 -0.0694
   46CHL1    H3 4512   2.998   3.127   6.068  1.0159  0.1659  0.0698
   46CHL1    O3 4513   2.918   2.983   6.198 -0.3650 -0.5103  0.2466
   46CHL1   H3' 4514   2.886   2.893   6.190  1.7619 -1.3718  0.5780
   46CHL1    C4 4515   2.795   3.088   6.013 -0.3127  0.5313 -0.2358
   46CHL1   H4A 4516   2.715   3.011   6.014  0.2754 -0.1119 -0.9233
   46CHL1   H4B 4517   2.754   3.168   6.078 -1.2493 -0.9658  1.0889
   46CHL1    C5 4518   2.804   3.124   5.867 -0.6632 -0.2530  0.0354
   46CHL1    C6 4519   2.747   3.240   5.828 -0.8234  0.4923  0.2420
   46CHL1    H6 4520   2.698   3.299   5.907  0.6884  0.7172  1.0485
   46CHL1    C7 4521   2.755   3.284   5.684  0.7218  0.4874 -0.0120
   46CHL1   H7A 4522   2.653   3.327   5.674  0.4950 -0.0065  0.1466
   46CHL1   H7B 4523   2.836   3.359   5.693  0.7566  0.4550 -0.0633
   46CHL1    C8 4524   2.785   3.170   5.581 -0.4087 -0.3787  0.3303
   46CHL1    H8 4525   2.699   3.100   5.567 -0.5788  0.0948 -1.1134
   46CHL1   C14 4526   2.829   3.235   5.454 -0.1141 -0.2467 -0.4340
   46CHL1   H14 4527   2.915   3.299   5.484 -0.2124  1.3010 -3.1597
   46CHL1   C15 4528   2.737   3.340   5.386  1.3263 -0.4223  0.3280
   46CHL1  H15A 4529   2.636   3.295   5.387  0.4511  1.4701  0.6894
   46CHL1  H15B 4530   2.736   3.433   5.446  0.8817  0.4799 -1.0336
   46CHL1   C16 4531   2.787   3.353   5.242  0.0783 -0.4389  0.5404
   46CHL1  H16A 4532   2.708   3.326   5.169 -0.2800 -0.2937  0.8697
   46CHL1  H16B 4533   2.819   3.457   5.219 -1.4455  0.6004  2.6896
   46CHL1   C17 4534   2.899   3.247   5.225 -0.4399  0.0596  0.5975
   46CHL1   H17 4535   2.983   3.306   5.267 -1.7939  2.1252  0.5470
   46CHL1   C13 4536   2.877   3.142   5.342 -0.7407  0.1473  0.5954
   46CHL1   C18 4537   2.774   3.048   5.285  0.5094  0.1822  0.5302
   46CHL1  H18A 4538   2.820   2.969   5.221  0.7017  1.3733 -0.8540
   46CHL1  H18B 4539   2.726   3.003   5.375  0.9669  1.4998  1.4534
   46CHL1  H18C 4540   2.701   3.113   5.233 -2.0700 -1.9459  1.2578
   46CHL1   C12 4541   3.005   3.073   5.399 -0.0779  0.6059  0.7128
   46CHL1  H12A 4542   3.042   3.000   5.324  1.4513  0.2496  1.7549
   46CHL1  H12B 4543   3.073   3.161   5.405  0.5551  0.3158 -1.2518
   46CHL1   C11 4544   2.973   3.000   5.529 -0.2279 -0.4165 -0.1369
   46CHL1  H11A 4545   2.907   2.913   5.509 -2.2270  1.1510 -0.7332
   46CHL1  H11B 4546   3.059   2.953   5.582 -0.4099  0.3234  0.8421
   46CHL1    C9 4547   2.911   3.100   5.634  0.3023  0.2165  0.0772
   46CHL1    H9 4548   2.987   3.179   5.651  1.7459 -0.9565 -0.6870
   46CHL1   C10 4549   2.890   3.031   5.773  0.5335  0.2367  0.3058
   46CHL1   C19 4550   2.795   2.905   5.758  0.2986  0.4031  0.4357
   46CHL1  H19A 4551   2.759   2.856   5.851  0.0792 -2.2459 -0.9570
   46CHL1  H19B 4552   2.710   2.924   5.689  0.4283 -2.4840 -0.6512
   46CHL1  H19C 4553   2.845   2.832   5.691 -0.4980 -0.9967  1.3291
   46CHL1    C1 4554   3.027   2.989   5.836 -0.4513 -0.3531 -0.3280
   46CHL1   H1A 4555   3.080   2.914   5.773  1.3630  0.2561  0.4036
   46CHL1   H1B 4556   3.095   3.076   5.838  0.2261 -0.8259 -1.8320
   46CHL1    C2 4557   3.008   2.941   5.979 -0.7390  0.9706  0.3629
   46CHL1   H2A 4558   3.106   2.910   6.021  0.0879  0.9730 -1.4415
   46CHL1   H2B 4559   2.956   2.843   5.980  0.6456  0.2070  0.1312
   46CHL1   C20 4560   2.938   3.209   5.082  0.7546  0.2636  0.1341
   46CHL1   H20 4561   2.880   3.124   5.039 -0.8386 -0.0219  2.6402
   46CHL1   C21 4562   3.082   3.150   5.089 -0.3361 -0.5718 -0.1994
   46CHL1  H21A 4563   3.116   3.139   4.984 -0.9461  0.3242 -0.5039
   46CHL1  H21B 4564   3.082   3.051   5.140 -0.3307 -0.9140 -0.8500
   46CHL1  H21C 4565   3.145   3.222   5.145 -1.1670 -0.9211  1.2528
   46CHL1   C22 4566   2.930   3.325   4.981 -0.7584 -0.8100  0.3322
   46CHL1  H22A 4567   2.841   3.392   4.990 -0.8049 -0.5320 -1.7490
   46CHL1  H22B 4568   3.021   3.387   4.994  0.0627 -1.7531 -0.8206
   46CHL1   C23 4569   2.937   3.276   4.831 -0.1711 -0.1452 -0.2541
   46CHL1  H23A 4570   3.024   3.209   4.815 -1.8582 -2.7793  1.0146
   46CHL1  H23B 4571   2.843   3.218   4.818 -0.3973  0.2411 -0.3490
   46CHL1   C24 4572   2.945   3.389   4.725 -0.4191  0.4940 -0.4922
   46CHL1  H24A 4573   2.851   3.444   4.746  0.1402  2.0349 -1.8124
   46CHL1  H24B 4574   3.033   3.456   4.736 -0.4243  0.2308  1.5481
   46CHL1   C25 4575   2.965   3.344   4.582  0.2959 -0.2398  0.0562
   46CHL1   H25 4576   3.066   3.298   4.571  1.1922  1.5410  0.5045
   46CHL1   C26 4577   2.864   3.236   4.539 -0.0262 -0.0296  0.8318
   46CHL1  H26A 4578   2.857   3.163   4.622  0.1173  0.8787  1.6543
   46CHL1  H26B 4579   2.757   3.262   4.529 -0.1845 -0.2066  1.9006
   46CHL1  H26C 4580   2.905   3.195   4.444  2.5361 -0.8227  2.1944
   46CHL1   C27 4581   2.954   3.462   4.491  0.6594 -0.1169  0.4694
   46CHL1  H27A 4582   3.035   3.536   4.509  1.0919 -0.8046  1.4754
   46CHL1  H27B 4583   2.953   3.439   4.382  1.9858  0.2837  0.3509
   46CHL1  H27C 4584   2.866   3.520   4.524  0.5141 -0.8590  1.4182
   47CHL1    C3 4585   4.882   3.350   5.958 -0.1001  0.2769  0.0299
   47CHL1    H3 4586   4.859   3.241   5.969 -0.0950  0.2047 -0.6316
   47CHL1    O3 4587   4.873   3.403   6.088 -0.3637  0.2968 -0.1213
   47CHL1   H3' 4588   4.882   3.498   6.083  2.1011  0.0833 -0.8542
   47CHL1    C4 4589   5.025   3.375   5.896  0.1229 -0.0209 -0.2750
   47CHL1   H4A 4590   5.035   3.486   5.896  1.0577 -0.0529 -2.6373
   47CHL1   H4B 4591   5.099   3.337   5.970  0.2013  0.9772  0.1765
   47CHL1    C5 4592   5.031   3.326   5.750 -0.6094 -0.4476  0.3807
   47CHL1    C6 4593   5.119   3.234   5.706 -0.2579 -0.1490  0.1509
   47CHL1    H6 4594   5.194   3.200   5.779 -1.0620 -0.0301  1.0503
   47CHL1    C7 4595   5.130   3.187   5.567  0.0558 -0.5519  0.4558
   47CHL1   H7A 4596   5.233   3.192   5.526 -0.5933 -1.2152 -1.3024
   47CHL1   H7B 4597   5.104   3.079   5.566 -1.7037 -0.1894  1.7354
   47CHL1    C8 4598   5.041   3.267   5.471  0.0874  0.7103 -0.0476
   47CHL1    H8 4599   5.082   3.370   5.457 -2.7595  1.9705  0.1931
   47CHL1   C14 4600   5.025   3.194   5.337  0.5647  0.1228 -0.0942
   47CHL1   H14 4601   4.963   3.105   5.364 -0.5579  0.9003 -0.0236
   47CHL1   C15 4602   5.150   3.144   5.263  0.5377 -0.1200 -0.6150
   47CHL1  H15A 4603   5.230   3.220   5.272 -1.5555  2.0929  0.1796
   47CHL1  H15B 4604   5.176   3.053   5.321 -2.5536 -0.2153  0.7965
   47CHL1   C16 4605   5.095   3.107   5.126 -0.1580 -1.0820  0.9476
   47CHL1  H16A 4606   5.166   3.154   5.054 -2.1205 -2.2609 -1.9575
   47CHL1  H16B 4607   5.087   2.997   5.110  0.1354 -1.1928  1.5306
   47CHL1   C17 4608   4.950   3.163   5.107  0.6070 -0.2818  0.0507
   47CHL1   H17 4609   4.887   3.073   5.124  0.7044 -0.2147  0.7981
   47CHL1   C13 4610   4.939   3.263   5.227  0.2392  0.2017 -0.9802
   47CHL1   C18 4611   5.014   3.390   5.186  0.3200 -0.1881  0.2755
   47CHL1  H18A 4612   5.116   3.372   5.147  0.5007 -2.0723  1.4989
   47CHL1  H18B 4613   4.972   3.445   5.099  2.4237 -2.1520 -2.1397
   47CHL1  H18C 4614   5.005   3.463   5.270  0.2320  0.9914 -0.7244
   47CHL1   C12 4615   4.803   3.305   5.284  0.3239 -0.0739  0.2568
   47CHL1  H12A 4616   4.753   3.373   5.212 -1.2111 -0.9666  0.4319
   47CHL1  H12B 4617   4.736   3.219   5.303  0.2775  0.0716  0.7573
   47CHL1   C11 4618   4.804   3.361   5.419  0.4377 -0.1268 -0.4809
   47CHL1  H11A 4619   4.830   3.469   5.417  1.9059 -0.4328  0.5703
   47CHL1  H11B 4620   4.702   3.353   5.461 -0.4445 -1.4259 -2.6855
   47CHL1    C9 4621   4.902   3.294   5.524 -0.4808  0.4291  0.2724
   47CHL1    H9 4622   4.853   3.197   5.547  0.1773 -0.0704 -0.3884
   47CHL1   C10 4623   4.910   3.372   5.660 -0.4627 -0.7700 -0.5618
   47CHL1   C19 4624   4.937   3.521   5.632 -0.4534 -0.4398  0.0572
   47CHL1  H19A 4625   4.953   3.587   5.721 -0.6786  1.1811 -1.0492
   47CHL1  H19B 4626   5.027   3.538   5.569  0.8717 -1.9739  1.4308
   47CHL1  H19C 4627   4.845   3.567   5.591 -0.0035  0.6364  0.2024
   47CHL1    C1 4628   4.772   3.358   5.739  0.0776 -0.3706  0.1516
   47CHL1   H1A 4629   4.695   3.418   5.685 -0.3558  0.0773  1.2455
   47CHL1   H1B 4630   4.744   3.251   5.740  0.4631 -0.4692  0.4430
   47CHL1    C2 4631   4.769   3.407   5.882  0.8290 -0.6145 -0.2075
   47CHL1   H2A 4632   4.678   3.369   5.933  0.1066  0.2920 -0.7788
   47CHL1   H2B 4633   4.749   3.516   5.893  0.0958 -0.8276  0.6731
   47CHL1   C20 4634   4.925   3.208   4.965  1.1512 -0.2715  0.3260
   47CHL1   H20 4635   4.988   3.295   4.938 -0.3173  0.1747 -2.0117
   47CHL1   C21 4636   4.777   3.258   4.955 -0.0902  0.2296 -0.7935
   47CHL1  H21A 4637   4.700   3.181   4.978 -0.8268  0.4432 -2.3389
   47CHL1  H21B 4638   4.755   3.282   4.848 -2.0733  0.0635 -0.4636
   47CHL1  H21C 4639   4.758   3.341   5.025  1.0457 -0.6526  0.6051
   47CHL1   C22 4640   4.944   3.099   4.864 -0.6447  0.2074  0.6880
   47CHL1  H22A 4641   5.039   3.048   4.892  0.1545  0.1869 -1.7988
   47CHL1  H22B 4642   4.879   3.010   4.870 -1.4054  0.6841 -0.1517
   47CHL1   C23 4643   4.965   3.138   4.720 -0.3153 -0.0188 -0.0569
   47CHL1  H23A 4644   4.904   3.226   4.691  1.6286  1.2495 -0.4991
   47CHL1  H23B 4645   5.068   3.176   4.701  0.8219 -1.0050  3.3653
   47CHL1   C24 4646   4.928   3.028   4.620  0.5174  0.1055  0.1825
   47CHL1  H24A 4647   4.993   2.943   4.651  3.3635  1.5180 -1.5441
   47CHL1  H24B 4648   4.821   3.001   4.633  0.3763  0.9663  0.9264
   47CHL1   C25 4649   4.960   3.066   4.476  0.2722  0.3022 -1.0611
   47CHL1   H25 4650   5.045   3.137   4.479 -0.9152  1.7569  1.3418
   47CHL1   C26 4651   4.991   2.936   4.396  0.3653  0.2638 -0.4231
   47CHL1  H26A 4652   5.007   2.950   4.287  0.7384 -0.7939 -0.5143
   47CHL1  H26B 4653   5.077   2.886   4.445  0.6826  1.5758  0.3892
   47CHL1  H26C 4654   4.902   2.870   4.400  2.1590 -2.3149 -0.0275
   47CHL1   C27 4655   4.849   3.143   4.405  0.0756 -0.2794  0.1517
   47CHL1  H27A 4656   4.825   3.236   4.461  3.6796  1.1183 -0.2940
   47CHL1  H27B 4657   4.873   3.180   4.302 -2.5404  1.4568  0.0793
   47CHL1  H27C 4658   4.763   3.074   4.402  0.6408 -1.0320  0.7202
   48CHL1    C3 4659   1.940   3.785   6.051  0.4670 -0.1850 -0.3637
   48CHL1    H3 4660   1.846   3.842   6.064  1.1694  0.7763  0.8330
   48CHL1    O3 4661   2.000   3.762   6.182 -0.1510 -0.2110  0.4501
   48CHL1   H3' 4662   2.085   3.724   6.159 -0.3154  0.5997 -1.7291
   48CHL1    C4 4663   1.931   3.657   5.971 -0.3208  0.0381 -1.1759
   48CHL1   H4A 4664   2.026   3.600   5.987 -0.1281 -0.0091 -2.4184
   48CHL1   H4B 4665   1.851   3.598   6.022  0.8409 -1.0666 -0.5595
   48CHL1    C5 4666   1.901   3.676   5.826 -0.0600  0.2853 -0.6909
   48CHL1    C6 4667   1.790   3.640   5.759  0.5347 -0.3752  0.3386
   48CHL1    H6 4668   1.712   3.590   5.819 -0.1762 -0.5665 -0.7108
   48CHL1    C7 4669   1.756   3.665   5.612  0.0176 -0.4789 -0.2182
   48CHL1   H7A 4670   1.708   3.570   5.580  2.3776 -2.0328  0.5731
   48CHL1   H7B 4671   1.686   3.751   5.601  1.3090  0.5309 -0.8438
   48CHL1    C8 4672   1.889   3.700   5.536 -0.6201 -0.7537 -0.0574
   48CHL1    H8 4673   1.945   3.604   5.541 -0.6424 -0.7934 -0.5673
   48CHL1   C14 4674   1.871   3.737   5.390 -0.1222  0.4268  0.1945
   48CHL1   H14 4675   1.819   3.835   5.381  0.0125  0.4338 -0.5748
   48CHL1   C15 4676   1.777   3.638   5.311 -0.2678  0.7401  0.5651
   48CHL1  H15A 4677   1.794   3.530   5.330  0.1093  0.4496 -1.2411
   48CHL1  H15B 4678   1.676   3.672   5.342 -1.1484 -1.3956  0.2115
   48CHL1   C16 4679   1.805   3.672   5.160  0.1590  0.7482  0.4961
   48CHL1  H16A 4680   1.831   3.578   5.106  0.2292  0.4324  1.0690
   48CHL1  H16B 4681   1.715   3.721   5.119  0.1151 -0.3414 -0.7935
   48CHL1   C17 4682   1.933   3.763   5.158  0.6450  0.5839  0.3791
   48CHL1   H17 4683   1.901   3.869   5.161  1.7761  0.9551  0.0268
   48CHL1   C13 4684   1.994   3.747   5.302 -0.1810  0.0249 -0.3987
   48CHL1   C18 4685   2.091   3.626   5.305  0.0786 -0.2170 -0.0173
   48CHL1  H18A 4686   2.107   3.589   5.408  1.2142 -1.3287 -0.5624
   48CHL1  H18B 4687   2.058   3.542   5.239  0.7485 -0.7490  0.3088
   48CHL1  H18C 4688   2.191   3.655   5.268 -0.1131  0.8496  0.2756
   48CHL1   C12 4689   2.068   3.877   5.358 -0.2925  0.2474  0.0829
   48CHL1  H12A 4690   2.164   3.895   5.305 -0.1096  1.5665  0.8205
   48CHL1  H12B 4691   2.001   3.964   5.342  2.3857  2.4173 -0.0955
   48CHL1   C11 4692   2.098   3.857   5.515 -0.4882  0.1778  0.8120
   48CHL1  H11A 4693   2.168   3.770   5.519 -1.2677 -0.4151  3.1484
   48CHL1  H11B 4694   2.146   3.948   5.556  1.7275 -0.3341 -0.4828
   48CHL1    C9 4695   1.975   3.808   5.604 -0.5653  0.1264  0.2062
   48CHL1    H9 4696   1.920   3.905   5.616  1.8005  1.3200  2.2826
   48CHL1   C10 4697   2.007   3.767   5.753 -0.1088  0.0041  0.0877
   48CHL1   C19 4698   2.146   3.689   5.758 -0.3659  0.2866  0.0917
   48CHL1  H19A 4699   2.167   3.612   5.680 -0.0528  0.0804  0.3779
   48CHL1  H19B 4700   2.220   3.770   5.738  0.0231 -0.2444 -0.6902
   48CHL1  H19C 4701   2.187   3.664   5.858  0.2140 -1.4985 -0.5516
   48CHL1    C1 4702   2.007   3.891   5.838 -0.0127  0.1077 -0.1477
   48CHL1   H1A 4703   2.079   3.961   5.791  1.4470 -0.8045  0.6592
   48CHL1   H1B 4704   1.912   3.948   5.823 -0.9186 -1.7564 -1.8997
   48CHL1    C2 4705   2.046   3.871   5.982 -1.1560  0.1279  0.3765
   48CHL1   H2A 4706   2.049   3.967   6.038 -1.0822  0.9844 -1.0278
   48CHL1   H2B 4707   2.146   3.823   5.987 -1.1091  0.2607  0.7101
   48CHL1   C20 4708   2.025   3.751   5.036  0.4241  0.4549  0.0967
   48CHL1   H20 4709   2.082   3.655   5.040  0.3676  0.3232 -1.5133
   48CHL1   C21 4710   2.131   3.859   5.037  0.7270 -0.2199 -0.2631
   48CHL1  H21A 4711   2.164   3.866   4.931 -3.2930  0.6743 -1.6315
   48CHL1  H21B 4712   2.083   3.957   5.056 -0.7422 -0.9362 -0.1445
   48CHL1  H21C 4713   2.220   3.839   5.101 -0.2464  0.1131  1.2340
   48CHL1   C22 4714   1.952   3.744   4.896  0.4289  0.0703 -0.7905
   48CHL1  H22A 4715   1.870   3.669   4.903  0.6475 -0.0532  0.5698
   48CHL1  H22B 4716   1.897   3.839   4.880 -0.5423 -0.5206 -1.0369
   48CHL1   C23 4717   2.047   3.713   4.775  0.2682  0.2489  0.3589
   48CHL1  H23A 4718   2.122   3.795   4.770  0.2956  0.3946  2.3224
   48CHL1  H23B 4719   2.098   3.619   4.804 -1.9388 -1.3441 -0.6267
   48CHL1   C24 4720   1.967   3.705   4.639 -0.7647  0.3545 -0.1745
   48CHL1  H24A 4721   1.887   3.628   4.642 -1.8632  1.4804  0.2237
   48CHL1  H24B 4722   1.919   3.804   4.629  0.0740  0.7086 -0.8774
   48CHL1   C25 4723   2.055   3.693   4.521  0.7149  0.4064  0.2543
   48CHL1   H25 4724   2.136   3.768   4.505  0.3337  0.6438 -0.6315
   48CHL1   C26 4725   2.123   3.558   4.511 -0.2562 -0.6329  0.2661
   48CHL1  H26A 4726   2.167   3.543   4.410  0.0462 -1.3453  0.4935
   48CHL1  H26B 4727   2.203   3.546   4.587 -0.7561  1.5962  1.2247
   48CHL1  H26C 4728   2.049   3.476   4.520 -1.9966  0.4858 -2.5373
   48CHL1   C27 4729   1.967   3.717   4.392 -0.1629 -0.0788 -0.5278
   48CHL1  H27A 4730   2.020   3.714   4.295  1.4712  3.3261  0.1179
   48CHL1  H27B 4731   1.891   3.637   4.402 -1.4750  1.4081  3.7851
   48CHL1  H27C 4732   1.911   3.813   4.394 -1.7854 -0.9553 -1.8702
   49CHL1    C3 4733   5.182   5.440   2.504 -0.2275  0.2507  0.4437
   49CHL1    H3 4734   5.101   5.512   2.527 -0.9769 -0.1614 -0.7871
   49CHL1    O3 4735   5.181   5.384   2.374 -0.5172  0.0963  0.0178
   49CHL1   H3' 4736   5.225   5.299   2.384 -0.4586  0.3425  3.0086
   49CHL1    C4 4737   5.323   5.506   2.528  0.1043 -0.3835  0.0006
   49CHL1   H4A 4738   5.404   5.436   2.499  0.1799 -0.1019 -0.4841
   49CHL1   H4B 4739   5.330   5.587   2.452  1.2127  0.2744  0.7878
   49CHL1    C5 4740   5.328   5.567   2.671  0.2959  0.0654 -0.4706
   49CHL1    C6 4741   5.347   5.696   2.682  0.0781 -0.2831  0.1330
   49CHL1    H6 4742   5.366   5.760   2.595 -0.0517  1.3960  1.2918
   49CHL1    C7 4743   5.348   5.772   2.813 -0.4292  0.4315 -0.0219
   49CHL1   H7A 4744   5.417   5.858   2.820 -2.2081  1.9042  0.2604
   49CHL1   H7B 4745   5.250   5.822   2.828 -0.8087 -0.3909  0.3038
   49CHL1    C8 4746   5.365   5.676   2.927 -0.4995 -0.1665 -0.2570
   49CHL1    H8 4747   5.468   5.642   2.949 -0.3280 -0.1469 -0.9890
   49CHL1   C14 4748   5.326   5.751   3.059  0.2379 -0.8818  0.5616
   49CHL1   H14 4749   5.218   5.777   3.067  0.7820  1.1552  2.5478
   49CHL1   C15 4750   5.390   5.888   3.083  1.1330 -0.5484  0.4053
   49CHL1  H15A 4751   5.498   5.891   3.058  1.3804 -1.5797  1.3066
   49CHL1  H15B 4752   5.333   5.959   3.017 -0.1721 -0.9433  1.0680
   49CHL1   C16 4753   5.358   5.916   3.235 -0.3832  0.3268  0.5405
   49CHL1  H16A 4754   5.454   5.949   3.279 -1.4069  1.3747  2.0688
   49CHL1  H16B 4755   5.271   5.979   3.261 -0.3829  0.2464  0.7395
   49CHL1   C17 4756   5.322   5.775   3.295  0.1513 -0.2040 -0.3543
   49CHL1   H17 4757   5.212   5.763   3.309  0.2168 -3.0963 -1.5937
   49CHL1   C13 4758   5.349   5.667   3.185  0.7711 -0.0444  0.0237
   49CHL1   C18 4759   5.500   5.631   3.199 -0.2571  0.0687 -0.3121
   49CHL1  H18A 4760   5.530   5.554   3.124 -2.6031 -1.1658 -0.0780
   49CHL1  H18B 4761   5.565   5.720   3.194  0.0031 -0.0862  0.1673
   49CHL1  H18C 4762   5.516   5.579   3.296  2.3265  1.6971  0.2279
   49CHL1   C12 4763   5.250   5.550   3.175 -0.2227  0.4397 -0.4376
   49CHL1  H12A 4764   5.258   5.481   3.262  0.4112  0.3859 -0.5343
   49CHL1  H12B 4765   5.145   5.585   3.186 -0.3163 -0.3009  1.4015
   49CHL1   C11 4766   5.280   5.465   3.046  0.0050 -0.4305 -0.0556
   49CHL1  H11A 4767   5.383   5.424   3.056  0.5608  1.1421  1.0378
   49CHL1  H11B 4768   5.209   5.381   3.029  0.0400 -0.8994  1.9161
   49CHL1    C9 4769   5.273   5.556   2.919 -0.6280  0.6901 -0.1363
   49CHL1    H9 4770   5.167   5.588   2.923 -0.0262  2.7711  0.5665
   49CHL1   C10 4771   5.293   5.472   2.791 -0.1926  0.4687  0.7680
   49CHL1   C19 4772   5.409   5.368   2.808 -0.2893 -0.0566 -0.7520
   49CHL1  H19A 4773   5.417   5.301   2.720  0.2232  1.2058 -1.7059
   49CHL1  H19B 4774   5.511   5.411   2.819 -0.5592  0.9161 -1.8257
   49CHL1  H19C 4775   5.388   5.295   2.888 -2.0566 -0.0421 -1.1700
   49CHL1    C1 4776   5.164   5.386   2.755 -0.1858 -0.6653  0.1336
   49CHL1   H1A 4777   5.140   5.303   2.826 -2.7786  0.9656  1.3072
   49CHL1   H1B 4778   5.077   5.454   2.762  0.7032  0.3770  1.5978
   49CHL1    C2 4779   5.161   5.328   2.606  0.9568 -0.0339 -0.4195
   49CHL1   H2A 4780   5.068   5.278   2.571  0.5202  0.2939  0.2542
   49CHL1   H2B 4781   5.235   5.246   2.600  3.4142  1.4295  4.3542
   49CHL1   C20 4782   5.372   5.748   3.444  0.2866 -0.2510  0.2143
   49CHL1   H20 4783   5.482   5.754   3.430  0.3203 -2.5476 -0.8372
   49CHL1   C21 4784   5.323   5.608   3.500  0.0606 -0.7514  0.6180
   49CHL1  H21A 4785   5.341   5.612   3.609 -0.9120 -0.6818  0.7861
   49CHL1  H21B 4786   5.369   5.518   3.452 -1.1146 -1.5209  0.8918
   49CHL1  H21C 4787   5.214   5.601   3.480  0.3001 -0.5694 -0.8665
   49CHL1   C22 4788   5.324   5.866   3.538  0.2338 -0.5672  0.2646
   49CHL1  H22A 4789   5.333   5.967   3.492  1.8153  0.1243  1.9719
   49CHL1  H22B 4790   5.216   5.840   3.548  0.3193 -0.5185  1.5009
   49CHL1   C23 4791   5.407   5.881   3.671  0.1440  0.2899  0.0799
   49CHL1  H23A 4792   5.409   5.778   3.713  0.2533 -0.0557 -0.7459
   49CHL1  H23B 4793   5.515   5.900   3.655  0.0730  0.6213  0.0037
   49CHL1   C24 4794   5.333   5.983   3.753 -0.2460 -0.6764 -0.0192
   49CHL1  H24A 4795   5.328   6.081   3.701 -0.3728 -0.1525  0.9564
   49CHL1  H24B 4796   5.236   5.944   3.789 -1.2090  0.6388 -1.1307
   49CHL1   C25 4797   5.420   6.018   3.879 -0.1604  0.0064 -0.8493
   49CHL1   H25 4798   5.511   6.079   3.858  0.3653 -0.0745  1.0384
   49CHL1   C26 4799   5.334   6.107   3.971 -0.0475  0.3078  0.0652
   49CHL1  H26A 4800   5.400   6.156   4.046 -0.2716  2.5651 -1.1339
   49CHL1  H26B 4801   5.281   6.189   3.918 -0.4997 -0.3205 -0.4615
   49CHL1  H26C 4802   5.268   6.047   4.038  0.5013  0.0561  0.3926
   49CHL1   C27 4803   5.466   5.894   3.959 -0.7969  0.2421 -0.6552
   49CHL1  H27A 4804   5.385   5.843   4.015  0.1580  0.7144  1.2377
   49CHL1  H27B 4805   5.523   5.831   3.887  0.8455  0.6788  0.2202
   49CHL1  H27C 4806   5.539   5.922   4.038  0.2349 -2.2653 -0.6095
   50CHL1    C3 4807   0.472   1.537   3.152  0.1198  0.0067 -0.2782
   50CHL1    H3 4808   0.384   1.473   3.126 -0.6416  1.0668 -0.4073
   50CHL1    O3 4809   0.531   1.569   3.029 -0.1723  0.5066  0.1765
   50CHL1   H3' 4810   0.470   1.629   2.985 -1.5556 -0.7434  0.3238
   50CHL1    C4 4811   0.419   1.655   3.217  0.3608  0.2601 -0.5223
   50CHL1   H4A 4812   0.508   1.713   3.249  2.4410 -2.6360 -0.6714
   50CHL1   H4B 4813   0.358   1.714   3.146 -2.0718 -1.9431 -0.4328
   50CHL1    C5 4814   0.337   1.619   3.343 -0.5885  0.4319  0.1672
   50CHL1    C6 4815   0.213   1.662   3.363  0.5247 -0.2907 -0.4515
   50CHL1    H6 4816   0.172   1.738   3.296  1.0800  2.2724  1.9315
   50CHL1    C7 4817   0.144   1.645   3.493  0.6343  0.0186  0.7589
   50CHL1   H7A 4818   0.091   1.741   3.510 -1.0843 -0.8612  0.5733
   50CHL1   H7B 4819   0.064   1.568   3.480 -0.4404  1.0028  1.3701
   50CHL1    C8 4820   0.243   1.598   3.604 -0.0052 -0.3143  0.2089
   50CHL1    H8 4821   0.301   1.689   3.627  0.3043 -0.6654  0.8464
   50CHL1   C14 4822   0.163   1.565   3.722 -0.5999 -0.3670 -0.3933
   50CHL1   H14 4823   0.107   1.475   3.687  1.1073 -0.2653 -3.7650
   50CHL1   C15 4824   0.054   1.668   3.771 -0.0581  0.0601  0.1189
   50CHL1  H15A 4825   0.085   1.770   3.740  2.3762 -1.1963 -2.0627
   50CHL1  H15B 4826  -0.048   1.646   3.734 -0.3977  1.1982  0.3621
   50CHL1   C16 4827   0.052   1.645   3.924  0.3720 -0.2663  0.4435
   50CHL1  H16A 4828   0.092   1.730   3.982  1.1515 -0.4803  0.2265
   50CHL1  H16B 4829  -0.055   1.627   3.950 -0.8447 -2.0379 -4.5533
   50CHL1   C17 4830   0.138   1.506   3.946  0.5850  0.2055 -0.0676
   50CHL1   H17 4831   0.075   1.425   3.904 -1.1791  1.2869  0.4029
   50CHL1   C13 4832   0.245   1.525   3.841 -0.0089  0.3441  0.5648
   50CHL1   C18 4833   0.350   1.632   3.888  0.6957 -0.4096  0.1533
   50CHL1  H18A 4834   0.300   1.725   3.923 -0.3048 -0.3272 -1.4184
   50CHL1  H18B 4835   0.422   1.598   3.966  1.5546  2.0640  0.5444
   50CHL1  H18C 4836   0.411   1.660   3.799 -0.4269 -1.7697 -1.0737
   50CHL1   C12 4837   0.320   1.389   3.798 -1.3968  0.2703  0.2368
   50CHL1  H12A 4838   0.387   1.358   3.881 -1.4647 -0.4468  0.0291
   50CHL1  H12B 4839   0.249   1.308   3.772 -0.5028 -0.4891  0.0709
   50CHL1   C11 4840   0.409   1.412   3.673 -0.3446  0.2409 -0.1231
   50CHL1  H11A 4841   0.501   1.465   3.705 -0.8206  0.7403  0.4577
   50CHL1  H11B 4842   0.447   1.313   3.640  0.5336  0.3677  0.4784
   50CHL1    C9 4843   0.335   1.485   3.556  0.1397  0.2786 -0.3345
   50CHL1    H9 4844   0.273   1.400   3.519  1.7313 -0.6173 -1.0052
   50CHL1   C10 4845   0.425   1.530   3.445  0.4813 -0.5711 -0.2733
   50CHL1   C19 4846   0.544   1.625   3.492 -0.3428  0.0679 -0.7302
   50CHL1  H19A 4847   0.604   1.672   3.412  2.1604  0.5055  1.3002
   50CHL1  H19B 4848   0.506   1.705   3.559 -0.9593 -0.4222 -0.4832
   50CHL1  H19C 4849   0.619   1.570   3.553 -0.4627 -1.0382 -1.5389
   50CHL1    C1 4850   0.484   1.407   3.371  0.4796  0.2657  0.1580
   50CHL1   H1A 4851   0.557   1.363   3.442  0.6308 -2.7919 -1.7120
   50CHL1   H1B 4852   0.410   1.329   3.340  1.2229 -0.5718  0.4364
   50CHL1    C2 4853   0.556   1.446   3.238 -0.1335  0.4804  0.0837
   50CHL1   H2A 4854   0.584   1.353   3.184 -0.8748 -0.4274  1.2087
   50CHL1   H2B 4855   0.651   1.489   3.275 -1.2555  3.1024  0.1500
   50CHL1   C20 4856   0.177   1.476   4.094  0.2760 -0.1659  0.2361
   50CHL1   H20 4857   0.276   1.425   4.090 -0.6414 -1.9712 -2.6236
   50CHL1   C21 4858   0.069   1.377   4.140 -0.3282  0.6940  0.2533
   50CHL1  H21A 4859  -0.026   1.430   4.162  0.4258  1.1030  2.9331
   50CHL1  H21B 4860   0.101   1.329   4.235 -0.7544  0.2451  0.1746
   50CHL1  H21C 4861   0.062   1.296   4.065 -0.0290 -0.4832  1.4568
   50CHL1   C22 4862   0.193   1.597   4.192 -0.1374  0.1566  0.3230
   50CHL1  H22A 4863   0.258   1.670   4.139  0.0861 -0.6282 -0.5025
   50CHL1  H22B 4864   0.089   1.637   4.200 -0.8791 -1.9855  2.3548
   50CHL1   C23 4865   0.258   1.575   4.327  0.0672 -0.0433 -0.5799
   50CHL1  H23A 4866   0.230   1.660   4.393  2.0528  0.7452 -0.6669
   50CHL1  H23B 4867   0.232   1.483   4.384 -0.0271 -0.2348 -0.9354
   50CHL1   C24 4868   0.411   1.580   4.315 -0.3092 -0.1083 -0.6023
   50CHL1  H24A 4869   0.442   1.495   4.250  2.4842 -1.4794  2.2815
   50CHL1  H24B 4870   0.451   1.677   4.277  3.1000 -0.5267  1.5285
   50CHL1   C25 4871   0.488   1.556   4.447 -0.4510  0.6364  0.2038
   50CHL1   H25 4872   0.441   1.463   4.487  0.9119  0.6727  2.0370
   50CHL1   C26 4873   0.637   1.531   4.400  0.2174  0.0510  0.3294
   50CHL1  H26A 4874   0.660   1.436   4.347  1.1206  0.1157  0.5867
   50CHL1  H26B 4875   0.670   1.604   4.324 -0.3433 -0.5322 -0.4996
   50CHL1  H26C 4876   0.700   1.546   4.490 -1.8762 -0.5435  2.0084
   50CHL1   C27 4877   0.468   1.663   4.551  0.2208  0.4437  0.1499
   50CHL1  H27A 4878   0.522   1.619   4.637  0.1218 -2.1537 -1.0140
   50CHL1  H27B 4879   0.512   1.760   4.521  0.4468  0.7125  1.3313
   50CHL1  H27C 4880   0.361   1.670   4.581  0.9114 -0.7631  3.3037
   51CHL1    C3 4881   4.523   2.671   2.440 -0.6454 -0.6590  0.6163
   51CHL1    H3 4882   4.597   2.751   2.417 -0.7941 -0.5904  0.3728
   51CHL1    O3 4883   4.488   2.614   2.312  0.3804  0.1028  0.6051
   51CHL1   H3' 4884   4.411   2.561   2.329 -1.7967  2.3850 -1.2650
   51CHL1    C4 4885   4.575   2.570   2.542 -0.1628 -0.3853  0.2457
   51CHL1   H4A 4886   4.516   2.476   2.544  0.9730 -1.1007  0.4643
   51CHL1   H4B 4887   4.674   2.537   2.504  0.3196  1.0908  0.1609
   51CHL1    C5 4888   4.602   2.637   2.673 -0.1733  0.7793 -0.2017
   51CHL1    C6 4889   4.724   2.647   2.728 -0.4488 -0.0010 -0.4146
   51CHL1    H6 4890   4.813   2.613   2.672 -0.1210 -1.7438  1.0604
   51CHL1    C7 4891   4.748   2.707   2.864 -1.2304  0.2404  0.3396
   51CHL1   H7A 4892   4.823   2.645   2.919 -1.4172 -1.2467 -0.9925
   51CHL1   H7B 4893   4.794   2.808   2.853  1.7919 -1.2005 -1.7467
   51CHL1    C8 4894   4.620   2.718   2.945 -0.5016  0.6688  0.4441
   51CHL1    H8 4895   4.595   2.612   2.966  1.8555 -0.2533 -0.9988
   51CHL1   C14 4896   4.644   2.793   3.078  0.0253 -0.4053  0.4628
   51CHL1   H14 4897   4.663   2.899   3.049 -1.2229 -1.4575 -5.5422
   51CHL1   C15 4898   4.761   2.752   3.167 -0.0298  0.7790  0.6870
   51CHL1  H15A 4899   4.783   2.644   3.182  3.5232  0.8302 -2.5996
   51CHL1  H15B 4900   4.853   2.795   3.123  0.4591 -0.9210 -0.0455
   51CHL1   C16 4901   4.731   2.811   3.311 -0.2735  0.6710  0.1123
   51CHL1  H16A 4902   4.727   2.731   3.388 -0.8067 -0.7822 -1.3792
   51CHL1  H16B 4903   4.801   2.880   3.362 -0.4427  1.5242 -0.7888
   51CHL1   C17 4904   4.583   2.872   3.301 -0.2981 -0.5479  0.0713
   51CHL1   H17 4905   4.587   2.976   3.264 -0.4636 -1.0578 -1.4712
   51CHL1   C13 4906   4.525   2.800   3.176 -0.0231  0.0763  0.7864
   51CHL1   C18 4907   4.489   2.653   3.209 -0.3563  0.1723 -1.0722
   51CHL1  H18A 4908   4.460   2.604   3.113  1.6428 -0.4557 -1.3927
   51CHL1  H18B 4909   4.565   2.590   3.261 -1.0337  0.9824  0.9756
   51CHL1  H18C 4910   4.406   2.653   3.283  0.6215  0.7375  0.0607
   51CHL1   C12 4911   4.414   2.862   3.093  0.8833 -0.6635  0.6565
   51CHL1  H12A 4912   4.327   2.871   3.161  0.8069  1.0359  0.3828
   51CHL1  H12B 4913   4.448   2.963   3.063  1.0214 -0.3071  1.9559
   51CHL1   C11 4914   4.379   2.792   2.959 -1.2298  0.3514 -0.2975
   51CHL1  H11A 4915   4.327   2.699   2.988 -0.4031  0.4735  1.7102
   51CHL1  H11B 4916   4.314   2.861   2.900  0.1435  2.9307  1.0128
   51CHL1    C9 4917   4.501   2.772   2.866  0.2691 -0.8580  0.3942
   51CHL1    H9 4918   4.526   2.877   2.842 -2.7341 -0.2308 -0.4567
   51CHL1   C10 4919   4.477   2.696   2.738 -0.2572 -0.5017  0.0276
   51CHL1   C19 4920   4.367   2.587   2.772 -0.3486 -0.6569  0.0756
   51CHL1  H19A 4921   4.389   2.539   2.870 -0.4715 -0.7077  0.0785
   51CHL1  H19B 4922   4.263   2.626   2.768 -0.7311 -1.7449 -0.7820
   51CHL1  H19C 4923   4.363   2.508   2.694  0.9070 -1.3454  0.6678
   51CHL1    C1 4924   4.414   2.799   2.637  0.5673 -0.5983  1.0156
   51CHL1   H1A 4925   4.309   2.821   2.669 -0.3141 -1.2330 -1.2412
   51CHL1   H1B 4926   4.477   2.890   2.644 -1.3903  0.7595  2.2138
   51CHL1    C2 4927   4.399   2.742   2.493  0.2473 -0.0280 -0.3408
   51CHL1   H2A 4928   4.376   2.823   2.421  1.4877  2.2904  1.7106
   51CHL1   H2B 4929   4.313   2.672   2.494 -0.4084  0.7315  1.4125
   51CHL1   C20 4930   4.509   2.881   3.440 -0.8245  0.1507  0.0419
   51CHL1   H20 4931   4.508   2.774   3.470 -2.3530 -0.7847 -2.8722
   51CHL1   C21 4932   4.361   2.933   3.432 -0.4289  1.0983 -0.7454
   51CHL1  H21A 4933   4.293   2.867   3.376 -0.4542  1.1101 -0.7290
   51CHL1  H21B 4934   4.350   3.033   3.384  0.8607  0.4735 -2.4141
   51CHL1  H21C 4935   4.321   2.941   3.536  0.5325  2.5783 -0.4513
   51CHL1   C22 4936   4.599   2.962   3.538  0.2636  0.3706 -0.3580
   51CHL1  H22A 4937   4.695   2.907   3.544  0.5801  1.0835  2.8869
   51CHL1  H22B 4938   4.619   3.064   3.499 -0.3174  1.5789  2.3192
   51CHL1   C23 4939   4.545   2.984   3.682 -0.1258  0.3059  0.9693
   51CHL1  H23A 4940   4.507   3.088   3.672 -0.3414  0.1213 -0.4554
   51CHL1  H23B 4941   4.465   2.910   3.701 -1.8079  1.1594 -2.0594
   51CHL1   C24 4942   4.642   2.969   3.794 -0.0733  0.7728 -1.2085
   51CHL1  H24A 4943   4.661   2.861   3.813 -1.3552  0.8222  0.6213
   51CHL1  H24B 4944   4.738   3.015   3.764 -0.3319  0.0420 -3.3128
   51CHL1   C25 4945   4.609   3.020   3.934 -0.5222 -0.9391  0.9051
   51CHL1   H25 4946   4.522   2.967   3.977 -1.4333 -0.5427 -0.3936
   51CHL1   C26 4947   4.729   3.001   4.032 -0.6936 -0.7907 -0.0653
   51CHL1  H26A 4948   4.727   2.892   4.052 -1.5234 -0.6700  0.5974
   51CHL1  H26B 4949   4.825   3.038   3.991 -0.0442  1.6782  3.2337
   51CHL1  H26C 4950   4.701   3.049   4.129 -0.7327  1.2860 -1.0526
   51CHL1   C27 4951   4.583   3.175   3.919 -0.0537  0.6718 -0.2298
   51CHL1  H27A 4952   4.566   3.213   4.022 -0.9796 -1.2711  0.3855
   51CHL1  H27B 4953   4.673   3.220   3.871 -0.7716  1.3608 -0.9533
   51CHL1  H27C 4954   4.490   3.192   3.862 -0.3907 -0.3834 -0.0291
   52CHL1    C3 4955   4.171   3.268   2.559 -0.9538 -0.9037 -0.9968
   52CHL1    H3 4956   4.150   3.374   2.534 -0.4801 -0.2376  1.2257
   52CHL1    O3 4957   4.145   3.186   2.449 -0.5340  0.0405 -0.9184
   52CHL1   H3' 4958   4.105   3.106   2.485  1.0925 -0.6469 -0.4940
   52CHL1    C4 4959   4.318   3.243   2.595  0.0170  0.1147  0.3496
   52CHL1   H4A 4960   4.340   3.134   2.591 -1.7047 -0.2310 -0.4518
   52CHL1   H4B 4961   4.383   3.284   2.515  0.4615 -0.4125  0.4315
   52CHL1    C5 4962   4.351   3.306   2.722 -0.1867 -0.5359  0.0069
   52CHL1    C6 4963   4.444   3.408   2.732  0.6642  0.3359 -0.5583
   52CHL1    H6 4964   4.494   3.435   2.638  0.3956  2.3734 -0.1606
   52CHL1    C7 4965   4.490   3.467   2.861  0.6184 -0.4712  0.4879
   52CHL1   H7A 4966   4.599   3.467   2.880  0.2978 -0.7768  2.5777
   52CHL1   H7B 4967   4.461   3.574   2.849 -3.3060 -1.5914 -1.8706
   52CHL1    C8 4968   4.428   3.402   2.981  0.1602 -0.1585 -0.5134
   52CHL1    H8 4969   4.484   3.309   3.003  0.1235 -0.1414 -0.3417
   52CHL1   C14 4970   4.449   3.486   3.114  0.2173  0.4432 -0.0015
   52CHL1   H14 4971   4.383   3.576   3.113  1.0230  1.0571  0.6420
   52CHL1   C15 4972   4.584   3.547   3.136  0.3282 -0.1139  0.1804
   52CHL1  H15A 4973   4.661   3.469   3.114  1.0940  0.8407 -0.6582
   52CHL1  H15B 4974   4.604   3.637   3.073  1.7088  0.6542  1.6422
   52CHL1   C16 4975   4.580   3.579   3.287 -0.3116  0.4184  0.3668
   52CHL1  H16A 4976   4.670   3.536   3.335 -1.2893 -1.2084  0.8382
   52CHL1  H16B 4977   4.579   3.687   3.312 -0.3628  0.2870  0.9382
   52CHL1   C17 4978   4.450   3.516   3.345 -1.1354 -0.0486  0.6431
   52CHL1   H17 4979   4.366   3.587   3.359 -0.9786  0.4210 -0.6450
   52CHL1   C13 4980   4.408   3.414   3.240 -0.3188 -0.1195 -0.2765
   52CHL1   C18 4981   4.482   3.282   3.269  0.3407 -0.3210  0.0757
   52CHL1  H18A 4982   4.590   3.309   3.273  0.2545  0.3320 -1.2078
   52CHL1  H18B 4983   4.451   3.225   3.359 -2.0497 -1.6110 -1.4647
   52CHL1  H18C 4984   4.473   3.208   3.187  1.1894  0.5631 -0.8512
   52CHL1   C12 4985   4.255   3.392   3.227  0.3069  0.1769  0.3075
   52CHL1  H12A 4986   4.227   3.333   3.317  3.8504 -1.0118  0.8171
   52CHL1  H12B 4987   4.203   3.490   3.224 -0.3746 -0.1961 -0.4245
   52CHL1   C11 4988   4.220   3.308   3.103  0.1580  0.6096  0.6325
   52CHL1  H11A 4989   4.256   3.204   3.116 -0.8747  0.0871 -0.4249
   52CHL1  H11B 4990   4.110   3.291   3.091  0.4392  0.2910 -2.2336
   52CHL1    C9 4991   4.282   3.363   2.970 -0.5272  0.2777 -0.2616
   52CHL1    H9 4992   4.224   3.452   2.939 -1.5664 -0.8323 -1.6232
   52CHL1   C10 4993   4.258   3.274   2.846 -0.6778  0.2701 -0.0037
   52CHL1   C19 4994   4.291   3.122   2.884 -0.2856 -0.0855  0.4851
   52CHL1  H19A 4995   4.221   3.078   2.958 -0.8859 -0.4788 -0.2976
   52CHL1  H19B 4996   4.267   3.055   2.798  0.1744 -0.9886  1.0383
   52CHL1  H19C 4997   4.396   3.110   2.916  0.3883  1.1679 -1.0870
   52CHL1    C1 4998   4.110   3.300   2.798 -0.1052 -0.4319  0.1314
   52CHL1   H1A 4999   4.042   3.264   2.878  1.3717 -1.3490  1.0138
   52CHL1   H1B 5000   4.086   3.405   2.768 -0.1035 -0.4111  0.2030
   52CHL1    C2 5001   4.075   3.222   2.669 -0.2318  0.0159  0.1788
   52CHL1   H2A 5002   3.972   3.240   2.631  0.9330 -0.2081 -3.4505
   52CHL1   H2B 5003   4.095   3.115   2.689  0.9167 -0.1724 -1.7358
   52CHL1   C20 5004   4.472   3.472   3.491 -0.0965  0.5958 -0.4113
   52CHL1   H20 5005   4.552   3.396   3.498  0.6891  1.4539  0.1747
   52CHL1   C21 5006   4.334   3.419   3.546  0.4963 -0.6016 -0.0815
   52CHL1  H21A 5007   4.337   3.384   3.652 -0.9233  0.7838  0.4491
   52CHL1  H21B 5008   4.308   3.324   3.493  3.1331 -2.4891  1.7702
   52CHL1  H21C 5009   4.248   3.489   3.545  2.0041  1.4102  1.6673
   52CHL1   C22 5010   4.524   3.589   3.573 -0.0545 -0.5246 -0.4866
   52CHL1  H22A 5011   4.610   3.646   3.532 -1.1282  1.4156 -0.1760
   52CHL1  H22B 5012   4.448   3.671   3.579  0.1310 -0.2758 -1.4519
   52CHL1   C23 5013   4.566   3.546   3.717 -0.2606 -0.6979  0.2010
   52CHL1  H23A 5014   4.483   3.497   3.772 -1.2571 -0.3513 -0.9551
   52CHL1  H23B 5015   4.656   3.481   3.707 -0.7196 -1.1087 -1.7135
   52CHL1   C24 5016   4.619   3.667   3.795 -0.0813 -0.4394  0.2702
   52CHL1  H24A 5017   4.687   3.729   3.732 -0.6926 -0.1129 -0.0717
   52CHL1  H24B 5018   4.533   3.733   3.821  0.3816 -0.1007  0.9784
   52CHL1   C25 5019   4.703   3.630   3.915  0.3952  0.9280  0.5139
   52CHL1   H25 5020   4.784   3.557   3.892 -0.9598 -1.4410  2.6838
   52CHL1   C26 5021   4.752   3.751   3.998 -0.3894 -0.4208  0.2511
   52CHL1  H26A 5022   4.794   3.714   4.094 -0.4100 -1.5520 -0.1545
   52CHL1  H26B 5023   4.834   3.803   3.946  0.2076  0.4312  1.9741
   52CHL1  H26C 5024   4.672   3.826   4.014 -0.9777 -0.9751 -0.0329
   52CHL1   C27 5025   4.623   3.543   4.016  0.1285 -0.0565  0.1068
   52CHL1  H27A 5026   4.677   3.527   4.112 -0.2553 -0.8534  0.1995
   52CHL1  H27B 5027   4.530   3.601   4.034 -0.0291 -0.3690  0.3154
   52CHL1  H27C 5028   4.591   3.449   3.968  2.3459 -1.5469  1.3862
   53CHL1    C3 5029   4.214   3.936   3.002  0.3905 -0.2028  0.1071
   53CHL1    H3 5030   4.109   3.944   3.039 -0.0602 -1.7406 -0.7267
   53CHL1    O3 5031   4.205   3.900   2.865  0.3558 -0.1904 -0.6295
   53CHL1   H3' 5032   4.209   3.982   2.815  2.8923 -0.0956 -0.4029
   53CHL1    C4 5033   4.295   4.069   3.030  0.4252  0.6853 -0.4826
   53CHL1   H4A 5034   4.399   4.071   2.993  1.7584 -1.7646  2.6286
   53CHL1   H4B 5035   4.239   4.145   2.971  0.5466  1.2689  0.1437
   53CHL1    C5 5036   4.289   4.091   3.182  0.4841 -0.2280  0.7349
   53CHL1    C6 5037   4.245   4.211   3.225 -0.0134  0.5417 -0.6104
   53CHL1    H6 5038   4.215   4.289   3.153 -0.8074 -0.7441 -1.7390
   53CHL1    C7 5039   4.248   4.250   3.364 -0.4170 -0.4289 -0.3660
   53CHL1   H7A 5040   4.273   4.358   3.381 -3.4435  0.2285  0.4783
   53CHL1   H7B 5041   4.144   4.246   3.403  0.0767 -0.7879  0.9730
   53CHL1    C8 5042   4.324   4.157   3.464  1.3503 -0.4028  0.2964
   53CHL1    H8 5043   4.433   4.178   3.454  1.4378 -1.0042 -0.0368
   53CHL1   C14 5044   4.274   4.176   3.609  0.0132  0.5085 -0.1292
   53CHL1   H14 5045   4.171   4.144   3.632  0.7480 -0.1368  2.6378
   53CHL1   C15 5046   4.291   4.320   3.666  0.2586 -0.0857 -0.0242
   53CHL1  H15A 5047   4.382   4.358   3.615  1.1708 -1.7283  0.3042
   53CHL1  H15B 5048   4.204   4.379   3.629 -0.2334 -0.1733  0.9508
   53CHL1   C16 5049   4.298   4.309   3.818  0.0401  0.3461  0.0522
   53CHL1  H16A 5050   4.389   4.350   3.867 -0.3006 -0.7263  1.6669
   53CHL1  H16B 5051   4.211   4.363   3.861 -0.2136 -0.4399  0.5484
   53CHL1   C17 5052   4.298   4.153   3.849  0.6124 -0.2557 -0.3806
   53CHL1   H17 5053   4.192   4.123   3.868  0.6223  0.9425  1.8438
   53CHL1   C13 5054   4.345   4.089   3.714  0.2608 -0.3166 -0.4045
   53CHL1   C18 5055   4.503   4.101   3.712 -0.3608 -0.7408 -0.0809
   53CHL1  H18A 5056   4.536   4.196   3.759  0.1113 -0.5855 -0.7219
   53CHL1  H18B 5057   4.551   4.015   3.763  3.7069  1.3678 -0.0089
   53CHL1  H18C 5058   4.546   4.099   3.610 -0.2266  0.5840 -0.0624
   53CHL1   C12 5059   4.291   3.945   3.677 -0.2197  0.6924  0.4021
   53CHL1  H12A 5060   4.326   3.862   3.741 -1.0509 -1.3945 -1.6827
   53CHL1  H12B 5061   4.180   3.946   3.683 -0.3022  0.1096 -0.6612
   53CHL1   C11 5062   4.338   3.904   3.534 -0.6006  0.4217  0.6391
   53CHL1  H11A 5063   4.449   3.897   3.535 -0.5694  0.4490  3.0086
   53CHL1  H11B 5064   4.296   3.806   3.503  1.1978  0.2527 -1.5159
   53CHL1    C9 5065   4.297   4.012   3.422  0.5335 -0.3994 -0.5317
   53CHL1    H9 5066   4.186   4.008   3.424  0.5488 -0.6057  0.4340
   53CHL1   C10 5067   4.339   3.983   3.279  0.2037 -0.4982  0.5774
   53CHL1   C19 5068   4.492   3.986   3.258 -0.4229  0.0621  0.3276
   53CHL1  H19A 5069   4.547   4.080   3.282 -0.6688 -0.1631  1.8576
   53CHL1  H19B 5070   4.532   3.909   3.327  0.8230 -0.5871 -1.0397
   53CHL1  H19C 5071   4.517   3.939   3.160  2.3189 -0.9691  1.4393
   53CHL1    C1 5072   4.286   3.848   3.231 -0.3538  0.0995 -0.0429
   53CHL1   H1A 5073   4.343   3.767   3.280  2.0593  0.9871 -1.2603
   53CHL1   H1B 5074   4.183   3.846   3.275  0.5877  1.6828  2.4882
   53CHL1    C2 5075   4.285   3.821   3.078 -0.1282 -0.2697  0.4556
   53CHL1   H2A 5076   4.216   3.735   3.062 -1.7383  0.6681  2.0775
   53CHL1   H2B 5077   4.384   3.808   3.029 -0.8515  0.1277 -1.1757
   53CHL1   C20 5078   4.366   4.120   3.977 -0.2270 -0.6554  0.4445
   53CHL1   H20 5079   4.475   4.138   3.963 -0.4107 -0.6213 -1.1737
   53CHL1   C21 5080   4.335   3.968   4.003 -0.4100  0.3603  0.1383
   53CHL1  H21A 5081   4.388   3.916   3.920  1.3781 -0.4564  1.7165
   53CHL1  H21B 5082   4.225   3.952   4.007 -0.3069 -0.4040  0.1479
   53CHL1  H21C 5083   4.382   3.922   4.092 -1.5802  1.4922  1.3768
   53CHL1   C22 5084   4.325   4.203   4.102 -0.7136 -0.2032 -0.8812
   53CHL1  H22A 5085   4.357   4.309   4.095  2.9037 -1.2274 -2.2440
   53CHL1  H22B 5086   4.214   4.210   4.104 -0.6579  0.6408 -0.4094
   53CHL1   C23 5087   4.386   4.159   4.236 -0.2255 -0.2452 -0.1563
   53CHL1  H23A 5088   4.389   4.050   4.255  4.1629  0.1340  2.9365
   53CHL1  H23B 5089   4.496   4.176   4.242 -0.1721 -0.3753 -0.7424
   53CHL1   C24 5090   4.305   4.226   4.343  0.4018  0.4019 -0.1037
   53CHL1  H24A 5091   4.338   4.332   4.349  1.2956  0.2235 -1.4340
   53CHL1  H24B 5092   4.195   4.227   4.328  0.4112  2.7781 -0.5548
   53CHL1   C25 5093   4.344   4.171   4.486 -0.1170 -0.0240 -0.0338
   53CHL1   H25 5094   4.317   4.063   4.490 -1.5800  0.3382  0.5268
   53CHL1   C26 5095   4.490   4.184   4.521  0.3365  0.5219  0.2765
   53CHL1  H26A 5096   4.543   4.100   4.472 -0.6122 -0.6119  1.1297
   53CHL1  H26B 5097   4.536   4.283   4.500 -2.3716  2.4472  2.6045
   53CHL1  H26C 5098   4.507   4.177   4.630  0.2298  2.5822  0.4732
   53CHL1   C27 5099   4.261   4.238   4.594 -0.3526 -0.2086  0.2334
   53CHL1  H27A 5100   4.271   4.348   4.581 -0.0150 -0.3475 -0.7091
   53CHL1  H27B 5101   4.152   4.218   4.589 -0.9535  2.3986  1.3402
   53CHL1  H27C 5102   4.302   4.218   4.695  1.0952 -1.9206 -0.6394
   54CHL1    C3 5103   4.986   6.276   2.257  0.2886 -0.2127 -0.4948
   54CHL1    H3 5104   4.879   6.303   2.265  0.4708 -0.0117  1.8055
   54CHL1    O3 5105   5.013   6.283   2.117 -0.5301 -0.1675  0.0003
   54CHL1   H3' 5106   5.108   6.279   2.111 -0.5764 -0.4594 -0.7148
   54CHL1    C4 5107   5.064   6.387   2.335  0.1552  0.3560  0.1839
   54CHL1   H4A 5108   5.175   6.377   2.324  0.3254  0.2690  1.8154
   54CHL1   H4B 5109   5.045   6.490   2.298 -0.4405  0.0329 -0.4248
   54CHL1    C5 5110   5.029   6.386   2.480  0.1500  0.5999 -1.3761
   54CHL1    C6 5111   4.971   6.493   2.538  0.6788  0.4593 -0.3117
   54CHL1    H6 5112   4.951   6.583   2.478  5.6051  1.2935 -1.0875
   54CHL1    C7 5113   4.939   6.494   2.688 -0.5351 -0.3298 -0.3990
   54CHL1   H7A 5114   4.961   6.594   2.732 -0.7167  1.2962 -3.7086
   54CHL1   H7B 5115   4.829   6.480   2.703 -0.4215  0.4193  1.5144
   54CHL1    C8 5116   5.021   6.382   2.762 -0.4705  0.5936  0.7618
   54CHL1    H8 5117   5.129   6.409   2.757 -0.4290  0.2365 -1.2582
   54CHL1   C14 5118   4.983   6.374   2.912  0.2210  0.3292 -0.1394
   54CHL1   H14 5119   4.880   6.332   2.914 -0.1775  1.3115  0.7033
   54CHL1   C15 5120   4.983   6.507   2.990  0.3094 -0.7525  0.4269
   54CHL1  H15A 5121   5.078   6.565   2.980 -1.4644  2.5600  1.3720
   54CHL1  H15B 5122   4.901   6.581   2.979  0.8270 -0.1441  0.5473
   54CHL1   C16 5123   4.971   6.450   3.138 -0.1222  0.2641  0.3081
   54CHL1  H16A 5124   5.045   6.496   3.208 -2.1076  0.0971  2.6551
   54CHL1  H16B 5125   4.867   6.468   3.172 -0.5147 -3.0268  1.1951
   54CHL1   C17 5126   4.988   6.290   3.132  0.9126 -0.1414 -0.6315
   54CHL1   H17 5127   4.886   6.246   3.122  0.6094  0.8810 -2.6794
   54CHL1   C13 5128   5.057   6.273   2.999  0.0997 -0.4072 -0.2350
   54CHL1   C18 5129   5.213   6.302   3.017 -0.1494 -0.0493 -0.1967
   54CHL1  H18A 5130   5.260   6.215   3.067  0.4441  1.2135  1.5142
   54CHL1  H18B 5131   5.265   6.322   2.921 -0.4591  1.9068 -0.0118
   54CHL1  H18C 5132   5.223   6.396   3.074 -1.4300 -1.7737  3.1062
   54CHL1   C12 5133   5.036   6.126   2.931 -1.1063  0.1498 -0.2996
   54CHL1  H12A 5134   5.098   6.054   2.988 -0.3287  1.5299  0.6559
   54CHL1  H12B 5135   4.927   6.102   2.938 -0.9570 -0.3394  0.6140
   54CHL1   C11 5136   5.081   6.134   2.783  0.5338  0.2358  0.3570
   54CHL1  H11A 5137   5.191   6.146   2.780  0.7763 -1.7553 -0.1067
   54CHL1  H11B 5138   5.057   6.035   2.739 -1.6090  1.0360 -0.4082
   54CHL1    C9 5139   5.005   6.242   2.700  0.7634 -0.5255  0.5773
   54CHL1    H9 5140   4.896   6.224   2.705  0.9200 -1.5617  0.5384
   54CHL1   C10 5141   5.046   6.246   2.548 -0.4877 -0.0092 -0.1580
   54CHL1   C19 5142   5.196   6.203   2.546 -0.1832  0.0422 -0.1455
   54CHL1  H19A 5143   5.249   6.269   2.618 -2.3300  1.9822 -0.2177
   54CHL1  H19B 5144   5.214   6.100   2.580 -1.4962  0.7481  3.0021
   54CHL1  H19C 5145   5.243   6.219   2.446  0.3543 -0.1927  0.0698
   54CHL1    C1 5146   4.967   6.137   2.470 -0.5884 -0.4682  0.1701
   54CHL1   H1A 5147   4.993   6.041   2.519  0.4263 -0.0568  0.4728
   54CHL1   H1B 5148   4.859   6.145   2.494  0.1280 -0.2137  3.9576
   54CHL1    C2 5149   4.999   6.131   2.316  0.2083 -0.0185 -0.3770
   54CHL1   H2A 5150   4.923   6.060   2.277 -1.7685  2.1504 -0.6765
   54CHL1   H2B 5151   5.104   6.097   2.301  1.4450  2.6805  1.3819
   54CHL1   C20 5152   5.053   6.232   3.259  0.1401  1.1727  0.5335
   54CHL1   H20 5153   5.164   6.234   3.255  0.1142  2.4663 -0.0398
   54CHL1   C21 5154   5.008   6.086   3.257  0.0891  0.2192 -0.7801
   54CHL1  H21A 5155   5.004   6.032   3.160 -2.1925  2.5122 -2.1224
   54CHL1  H21B 5156   4.901   6.094   3.289 -0.1161 -1.4642 -0.9805
   54CHL1  H21C 5157   5.056   6.031   3.340  0.5676  2.7973  0.7420
   54CHL1   C22 5158   4.996   6.305   3.384 -0.8070  0.5469  0.0672
   54CHL1  H22A 5159   5.041   6.406   3.385 -0.4940  0.4176  1.6038
   54CHL1  H22B 5160   4.885   6.308   3.384 -0.7920  1.5150  0.8536
   54CHL1   C23 5161   5.034   6.244   3.519 -0.0634  0.0280 -0.8065
   54CHL1  H23A 5162   4.977   6.157   3.558  0.4185  0.6442  1.4680
   54CHL1  H23B 5163   5.142   6.221   3.534 -0.1511  0.9308  1.8656
   54CHL1   C24 5164   5.007   6.357   3.639 -0.4854  0.0779  0.1928
   54CHL1  H24A 5165   5.040   6.454   3.595 -0.7520 -0.2247 -0.6797
   54CHL1  H24B 5166   4.897   6.361   3.650 -0.5265  0.2253 -0.2404
   54CHL1   C25 5167   5.067   6.328   3.774 -0.2713  0.5943 -0.4307
   54CHL1   H25 5168   5.167   6.281   3.764 -0.3176 -0.5299  2.9082
   54CHL1   C26 5169   5.101   6.460   3.852 -0.0292 -0.5526 -0.2101
   54CHL1  H26A 5170   5.003   6.505   3.877 -0.2358 -1.1867  0.1490
   54CHL1  H26B 5171   5.153   6.441   3.949  0.0295  1.7606  0.2711
   54CHL1  H26C 5172   5.156   6.535   3.792 -0.7075  0.4328  0.3562
   54CHL1   C27 5173   4.995   6.212   3.859  0.0353 -1.0421  0.8005
   54CHL1  H27A 5174   4.894   6.255   3.875 -0.3443 -1.8260  0.5741
   54CHL1  H27B 5175   4.993   6.114   3.807  0.2496 -0.5792 -0.1011
   54CHL1  H27C 5176   5.041   6.210   3.960 -0.9919 -0.6675  1.2970
   55CHL1    C3 5177   1.865   1.954   2.739  0.6241  0.6358 -0.5106
   55CHL1    H3 5178   1.937   2.038   2.738 -1.3125  2.4617 -3.8924
   55CHL1    O3 5179   1.845   1.927   2.600 -0.2078 -0.0491  0.0772
   55CHL1   H3' 5180   1.757   1.889   2.589  0.2167 -0.9807 -0.1865
   55CHL1    C4 5181   1.924   1.832   2.815 -0.3439  0.0557 -0.0939
   55CHL1   H4A 5182   1.855   1.748   2.798  0.0553 -0.2530 -0.2035
   55CHL1   H4B 5183   2.015   1.798   2.761 -0.4620  2.7556 -2.2060
   55CHL1    C5 5184   1.949   1.848   2.964  0.9017 -0.0055  0.7329
   55CHL1    C6 5185   2.071   1.826   3.017 -0.4541 -0.4941  0.5871
   55CHL1    H6 5186   2.149   1.796   2.946 -0.3885  1.6883 -0.3600
   55CHL1    C7 5187   2.114   1.844   3.161  0.4318 -0.5607 -0.3912
   55CHL1   H7A 5188   2.171   1.756   3.200  2.0267  0.1850 -0.9677
   55CHL1   H7B 5189   2.183   1.931   3.161  0.2789 -0.4292 -1.5128
   55CHL1    C8 5190   1.988   1.865   3.248  0.1212  0.7443  0.3716
   55CHL1    H8 5191   1.939   1.765   3.246  1.0976  0.2240  1.5590
   55CHL1   C14 5192   2.024   1.906   3.385  0.3349  0.3312  0.6609
   55CHL1   H14 5193   2.076   2.003   3.378  1.7650 -0.4540 -0.0065
   55CHL1   C15 5194   2.138   1.827   3.457 -0.6786 -0.0802  0.3174
   55CHL1  H15A 5195   2.117   1.718   3.448  1.5633 -0.7080  1.9846
   55CHL1  H15B 5196   2.236   1.853   3.411 -0.2236 -1.5627  0.4002
   55CHL1   C16 5197   2.132   1.867   3.604  0.1168  0.1819  0.0074
   55CHL1  H16A 5198   2.146   1.779   3.670  1.2668  1.2044  1.2203
   55CHL1  H16B 5199   2.217   1.931   3.639  1.5177 -2.1215  1.0616
   55CHL1   C17 5200   1.996   1.944   3.621 -0.3201 -0.0902  0.5617
   55CHL1   H17 5201   2.019   2.050   3.599  1.1942 -0.3891  0.6009
   55CHL1   C13 5202   1.912   1.911   3.486  0.2742  0.3622  0.7259
   55CHL1   C18 5203   1.838   1.777   3.503  0.3549 -0.0175  0.5832
   55CHL1  H18A 5204   1.751   1.784   3.572  0.2670 -0.0043  0.4714
   55CHL1  H18B 5205   1.808   1.754   3.398 -0.4372  1.9310  0.3536
   55CHL1  H18C 5206   1.898   1.692   3.542 -0.9733 -0.5506  1.5531
   55CHL1   C12 5207   1.819   2.019   3.432  0.5908 -0.1978 -0.2040
   55CHL1  H12A 5208   1.729   2.027   3.496  0.2183 -1.2922 -0.5786
   55CHL1  H12B 5209   1.884   2.109   3.428 -0.0990  0.3177 -0.0702
   55CHL1   C11 5210   1.768   1.999   3.287 -0.3414 -0.6084  0.5945
   55CHL1  H11A 5211   1.680   1.931   3.293  0.4648 -1.7480 -0.0587
   55CHL1  H11B 5212   1.732   2.102   3.263  0.6808 -0.0275  1.4991
   55CHL1    C9 5213   1.883   1.959   3.187 -0.6210 -0.2717 -0.7678
   55CHL1    H9 5214   1.945   2.050   3.172 -0.5970  0.0529  0.9959
   55CHL1   C10 5215   1.829   1.906   3.043  0.1228 -0.2597  0.6727
   55CHL1   C19 5216   1.722   1.794   3.058 -0.2545  0.7474 -0.0440
   55CHL1  H19A 5217   1.771   1.699   3.087  0.8809  0.5525 -2.3465
   55CHL1  H19B 5218   1.643   1.832   3.126 -2.1930 -2.0402 -0.5885
   55CHL1  H19C 5219   1.676   1.778   2.958 -0.2460 -0.2827  0.1108
   55CHL1    C1 5220   1.765   2.024   2.962 -0.0183  0.1274  0.3319
   55CHL1   H1A 5221   1.676   2.056   3.020 -0.4007  1.5763 -1.0087
   55CHL1   H1B 5222   1.834   2.110   2.974 -1.9767  2.2395 -2.4021
   55CHL1    C2 5223   1.733   1.992   2.817  0.3215  0.4008  0.3150
   55CHL1   H2A 5224   1.696   2.083   2.767 -1.0505 -1.2065 -1.7920
   55CHL1   H2B 5225   1.657   1.912   2.802  2.9012 -2.1425 -0.1201
   55CHL1   C20 5226   1.927   1.930   3.760 -0.3524 -0.1877  0.2314
   55CHL1   H20 5227   1.890   1.826   3.772  0.3188 -0.4113  0.4401
   55CHL1   C21 5228   1.807   2.025   3.770  0.8714 -0.4048  0.1729
   55CHL1  H21A 5229   1.821   2.131   3.739 -4.5178  0.5845  0.0217
   55CHL1  H21B 5230   1.769   2.021   3.874  0.0139  0.2193 -0.0939
   55CHL1  H21C 5231   1.729   1.978   3.706  0.4674  0.1595  0.2332
   55CHL1   C22 5232   2.032   1.960   3.873 -0.3048  0.0352  0.4275
   55CHL1  H22A 5233   2.135   1.923   3.856 -0.8362 -2.0677  1.5007
   55CHL1  H22B 5234   2.033   2.071   3.870  0.4612  0.0154 -1.8086
   55CHL1   C23 5235   1.977   1.921   4.008 -0.5174  0.4403 -0.7758
   55CHL1  H23A 5236   1.886   1.979   4.036  0.2996  0.9703  0.9586
   55CHL1  H23B 5237   1.951   1.814   4.022  1.3612 -0.0092 -0.4000
   55CHL1   C24 5238   2.072   1.962   4.117  0.0160  0.0246 -0.1753
   55CHL1  H24A 5239   2.166   1.907   4.100  0.8892  1.9252 -1.9272
   55CHL1  H24B 5240   2.098   2.070   4.126 -0.7283  0.2296 -0.4212
   55CHL1   C25 5241   2.018   1.925   4.255  0.3276  0.2273 -0.1325
   55CHL1   H25 5242   1.916   1.968   4.266  0.0265 -0.1909 -1.2215
   55CHL1   C26 5243   2.021   1.772   4.271 -0.1801 -0.4747 -0.3141
   55CHL1  H26A 5244   1.933   1.726   4.222 -3.1082  4.0130  0.0614
   55CHL1  H26B 5245   2.110   1.727   4.224  0.5228 -1.2842  1.6819
   55CHL1  H26C 5246   2.015   1.755   4.381  0.5436  1.9474  0.1758
   55CHL1   C27 5247   2.110   1.992   4.360 -0.4132  0.4469  0.0834
   55CHL1  H27A 5248   2.100   2.100   4.337 -1.8152 -0.1905 -2.6354
   55CHL1  H27B 5249   2.070   1.961   4.460 -0.8290 -0.0174 -0.2233
   55CHL1  H27C 5250   2.207   1.944   4.335 -0.1362  1.3399 -0.5609
   56CHL1    C3 5251   0.847   2.340   2.897  0.1966  0.1644 -0.1548
   56CHL1    H3 5252   0.745   2.303   2.874 -0.6258  1.6038  0.9646
   56CHL1    O3 5253   0.919   2.335   2.776  0.2836 -0.0916 -0.4632
   56CHL1   H3' 5254   0.994   2.285   2.810 -0.3245  0.4258  1.8481
   56CHL1    C4 5255   0.822   2.486   2.948 -0.2565  0.6200  0.2289
   56CHL1   H4A 5256   0.908   2.552   2.922 -0.0828  0.8703  1.3754
   56CHL1   H4B 5257   0.742   2.510   2.874 -0.9866 -2.3076 -0.0398
   56CHL1    C5 5258   0.773   2.503   3.090  0.7883  0.7801 -0.2106
   56CHL1    C6 5259   0.668   2.586   3.117 -0.1599  0.4213  0.2921
   56CHL1    H6 5260   0.631   2.642   3.030  0.2384 -0.7763 -0.6685
   56CHL1    C7 5261   0.606   2.610   3.253  0.1113 -0.6278 -0.3108
   56CHL1   H7A 5262   0.589   2.716   3.281  1.2432 -0.4423 -0.2876
   56CHL1   H7B 5263   0.506   2.562   3.249 -1.1987  1.9882 -1.9165
   56CHL1    C8 5264   0.700   2.556   3.368  0.0038  0.7054  0.1974
   56CHL1    H8 5265   0.784   2.628   3.365 -0.3266  1.0789 -0.0587
   56CHL1   C14 5266   0.634   2.557   3.504  0.3505 -0.8012  0.1782
   56CHL1   H14 5267   0.553   2.481   3.507  0.4969 -0.9401  1.9603
   56CHL1   C15 5268   0.561   2.689   3.542  0.0778  0.4711 -0.1285
   56CHL1  H15A 5269   0.632   2.774   3.529  1.3820 -0.1970  2.1582
   56CHL1  H15B 5270   0.466   2.700   3.485 -0.0412 -3.5071 -0.9617
   56CHL1   C16 5271   0.549   2.676   3.694 -0.0820 -0.4150  0.8614
   56CHL1  H16A 5272   0.588   2.772   3.734  1.1510  0.9077 -3.0563
   56CHL1  H16B 5273   0.449   2.676   3.741 -1.0320  1.8473 -0.9700
   56CHL1   C17 5274   0.628   2.552   3.746 -0.3362 -0.9035 -0.7981
   56CHL1   H17 5275   0.555   2.469   3.754  0.2600 -1.3243  0.6620
   56CHL1   C13 5276   0.718   2.513   3.626  0.1518  0.2254 -0.8470
   56CHL1   C18 5277   0.833   2.603   3.631  0.1097  0.1365 -0.1231
   56CHL1  H18A 5278   0.791   2.704   3.647 -2.9768 -1.3150  2.0874
   56CHL1  H18B 5279   0.907   2.588   3.713 -0.3924  1.3338  0.5696
   56CHL1  H18C 5280   0.884   2.596   3.533  0.3175  0.7152 -0.0603
   56CHL1   C12 5281   0.752   2.368   3.593 -0.2569  0.8838 -0.8454
   56CHL1  H12A 5282   0.838   2.338   3.657 -0.4806  0.8868 -0.5437
   56CHL1  H12B 5283   0.677   2.287   3.607 -0.6262  0.7760 -3.0554
   56CHL1   C11 5284   0.820   2.344   3.456 -0.6392 -0.5270 -0.3214
   56CHL1  H11A 5285   0.924   2.382   3.465 -0.6419 -0.5539 -0.1825
   56CHL1  H11B 5286   0.830   2.236   3.431  0.1345 -0.9559  1.6678
   56CHL1    C9 5287   0.751   2.417   3.332 -0.4644 -0.6608 -0.1277
   56CHL1    H9 5288   0.662   2.350   3.326  0.4159 -1.7685 -1.4558
   56CHL1   C10 5289   0.843   2.414   3.203 -0.6682  0.2508 -0.2305
   56CHL1   C19 5290   0.987   2.475   3.218  0.7101 -0.1702  0.3292
   56CHL1  H19A 5291   1.056   2.406   3.270 -0.6342 -1.0531  0.9989
   56CHL1  H19B 5292   1.036   2.500   3.121 -0.5178 -0.8395 -0.4892
   56CHL1  H19C 5293   0.989   2.568   3.279  1.4529 -0.3828  0.6358
   56CHL1    C1 5294   0.848   2.271   3.144  0.3126  0.0345 -0.1539
   56CHL1   H1A 5295   0.900   2.205   3.217  1.6599  0.9112 -0.2752
   56CHL1   H1B 5296   0.744   2.234   3.138  0.0774  0.6909 -0.1621
   56CHL1    C2 5297   0.916   2.255   3.007 -0.0441  0.2967  0.3581
   56CHL1   H2A 5298   0.914   2.151   2.969  1.0192  0.3418  0.1538
   56CHL1   H2B 5299   1.020   2.290   3.018 -1.0364  3.5310  0.5052
   56CHL1   C20 5300   0.697   2.568   3.885  0.0255 -0.5310 -0.1842
   56CHL1   H20 5301   0.791   2.628   3.882  2.3301 -3.8711 -1.3634
   56CHL1   C21 5302   0.740   2.430   3.932  0.9305  0.1415  0.1588
   56CHL1  H21A 5303   0.810   2.395   3.853 -1.1604  0.8970 -2.1479
   56CHL1  H21B 5304   0.656   2.361   3.955  2.2521 -1.3385  0.8345
   56CHL1  H21C 5305   0.782   2.423   4.035  1.2259  0.1533  0.0415
   56CHL1   C22 5306   0.599   2.637   3.989 -0.6383 -0.1068 -0.7533
   56CHL1  H22A 5307   0.560   2.736   3.957  1.0781  1.4135  1.5162
   56CHL1  H22B 5308   0.504   2.581   3.978 -1.0103  0.5151 -0.6980
   56CHL1   C23 5309   0.646   2.645   4.137  0.3071  0.2937  0.3121
   56CHL1  H23A 5310   0.558   2.660   4.204  0.1682  1.6250 -0.1340
   56CHL1  H23B 5311   0.692   2.549   4.169 -2.4994 -0.8381  1.2438
   56CHL1   C24 5312   0.741   2.764   4.174  0.2756 -0.0971  0.0500
   56CHL1  H24A 5313   0.822   2.783   4.101  1.7115  0.7977  1.7840
   56CHL1  H24B 5314   0.674   2.852   4.164 -2.0083 -1.7983 -0.3135
   56CHL1   C25 5315   0.792   2.763   4.323 -0.0997 -0.5928  0.1276
   56CHL1   H25 5316   0.893   2.718   4.336 -0.0240  0.0128  1.9748
   56CHL1   C26 5317   0.821   2.909   4.365 -1.2604 -0.3620 -0.0695
   56CHL1  H26A 5318   0.877   2.919   4.461 -0.0446 -0.2737 -0.7748
   56CHL1  H26B 5319   0.890   2.960   4.294  0.2001 -0.0323  1.5102
   56CHL1  H26C 5320   0.727   2.969   4.373  0.0719  1.5992  3.0567
   56CHL1   C27 5321   0.700   2.704   4.424 -0.1867 -0.2531 -0.1261
   56CHL1  H27A 5322   0.608   2.758   4.455  0.0598 -1.3656  2.9512
   56CHL1  H27B 5323   0.672   2.601   4.395 -2.3145  0.0170  0.8018
   56CHL1  H27C 5324   0.751   2.699   4.523  0.9191  4.3080 -0.2541
   57CHL1    C3 5325   1.081   1.229   3.272 -0.7494 -0.0395  0.6360
   57CHL1    H3 5326   1.184   1.186   3.277 -0.6088 -0.4478 -2.9616
   57CHL1    O3 5327   1.031   1.221   3.136 -0.3482  0.1123 -1.0684
   57CHL1   H3' 5328   0.957   1.282   3.132  2.4991  3.9428 -0.7021
   57CHL1    C4 5329   0.988   1.154   3.357  0.6219  0.3976 -0.2914
   57CHL1   H4A 5330   0.883   1.174   3.327  0.5214  2.2853  1.1326
   57CHL1   H4B 5331   1.005   1.045   3.341  1.5844  0.5510 -0.3719
   57CHL1    C5 5332   0.997   1.188   3.512  0.2383  0.6986 -0.0069
   57CHL1    C6 5333   1.015   1.085   3.597  0.1466  0.2370  0.0345
   57CHL1    H6 5334   1.013   0.980   3.564  2.2689 -0.5524  2.1330
   57CHL1    C7 5335   1.039   1.099   3.744  1.4556 -0.6928 -0.4105
   57CHL1   H7A 5336   0.991   1.016   3.799  0.2903  0.7459  0.8180
   57CHL1   H7B 5337   1.149   1.084   3.755  1.3222 -1.1525  0.3798
   57CHL1    C8 5338   0.989   1.244   3.792  1.1780 -0.4228  0.5530
   57CHL1    H8 5339   0.878   1.247   3.788  1.2000 -0.3716 -0.2335
   57CHL1   C14 5340   1.022   1.269   3.939 -0.0366  0.1787  0.3570
   57CHL1   H14 5341   1.132   1.281   3.934 -0.0142 -0.2868 -0.3421
   57CHL1   C15 5342   0.997   1.162   4.045  0.6817  0.4705  0.3865
   57CHL1  H15A 5343   0.889   1.139   4.037  0.8173  0.2067 -0.8820
   57CHL1  H15B 5344   1.058   1.073   4.019  2.2746  1.1383  1.6520
   57CHL1   C16 5345   1.040   1.240   4.172  1.1871  0.7721 -1.0656
   57CHL1  H16A 5346   0.957   1.225   4.243  2.1458 -0.3004 -0.1397
   57CHL1  H16B 5347   1.134   1.192   4.208 -0.3725 -1.9897 -0.4155
   57CHL1   C17 5348   1.054   1.394   4.138 -0.5100 -0.4348  0.1554
   57CHL1   H17 5349   1.162   1.416   4.122 -0.9709  0.7484 -1.6589
   57CHL1   C13 5350   0.984   1.404   4.001 -0.0868  0.1057 -0.4048
   57CHL1   C18 5351   0.832   1.418   4.009 -0.4660  0.2803 -0.3124
   57CHL1  H18A 5352   0.789   1.342   4.078 -1.4655 -0.3146 -1.5497
   57CHL1  H18B 5353   0.791   1.511   4.055 -0.3976 -0.0827  0.4935
   57CHL1  H18C 5354   0.795   1.401   3.906  0.1564  2.5112 -0.9526
   57CHL1   C12 5355   1.051   1.506   3.913  0.3875 -0.6997 -0.2460
   57CHL1  H12A 5356   1.029   1.606   3.957 -1.7464 -1.4102  0.4279
   57CHL1  H12B 5357   1.160   1.486   3.919  0.2548 -1.0080  1.8345
   57CHL1   C11 5358   1.002   1.498   3.762  0.1675 -0.4339 -0.5950
   57CHL1  H11A 5359   0.893   1.518   3.769  0.3138  1.0826 -2.1445
   57CHL1  H11B 5360   1.053   1.582   3.711 -1.5468  0.7960 -0.3882
   57CHL1    C9 5361   1.035   1.362   3.705 -0.3642  0.1517  0.6784
   57CHL1    H9 5362   1.145   1.344   3.699 -0.5710 -0.9423 -0.3173
   57CHL1   C10 5363   0.995   1.339   3.552 -0.4016 -0.2295  0.4878
   57CHL1   C19 5364   0.858   1.407   3.529 -0.1429  0.3526 -0.3472
   57CHL1  H19A 5365   0.790   1.387   3.615  1.7466  0.0939  1.1530
   57CHL1  H19B 5366   0.856   1.518   3.522 -0.1047  0.3666 -0.1324
   57CHL1  H19C 5367   0.808   1.377   3.434  0.7109  1.8954 -1.3334
   57CHL1    C1 5368   1.101   1.407   3.463  0.8628 -0.1937 -0.2240
   57CHL1   H1A 5369   1.095   1.516   3.481  1.6989 -0.4587  1.9313
   57CHL1   H1B 5370   1.199   1.372   3.503 -0.0140 -1.4085  0.9463
   57CHL1    C2 5371   1.088   1.376   3.312  0.0760 -0.6735 -0.2228
   57CHL1   H2A 5372   1.177   1.406   3.253  1.2660 -1.8515  0.8996
   57CHL1   H2B 5373   1.001   1.427   3.266  0.7344 -1.0226 -1.9273
   57CHL1   C20 5374   1.004   1.477   4.256 -0.0974  0.3601  0.3109
   57CHL1   H20 5375   0.895   1.458   4.268 -0.2949  1.1502 -0.1944
   57CHL1   C21 5376   1.015   1.634   4.225  0.3880 -0.0508 -0.0020
   57CHL1  H21A 5377   0.934   1.659   4.153 -1.1986 -1.4147  1.2555
   57CHL1  H21B 5378   1.113   1.670   4.185  0.4933  1.5876  1.6321
   57CHL1  H21C 5379   1.003   1.692   4.319  1.4163 -0.5956  0.4813
   57CHL1   C22 5380   1.080   1.448   4.385 -0.0488 -0.0370 -0.1977
   57CHL1  H22A 5381   1.117   1.344   4.390  0.9655  0.3648  1.8741
   57CHL1  H22B 5382   1.167   1.517   4.377 -1.5904  2.3030  1.5796
   57CHL1   C23 5383   1.012   1.503   4.514 -0.4839  0.1304 -0.1490
   57CHL1  H23A 5384   0.998   1.613   4.504 -0.5725  0.2679  1.2590
   57CHL1  H23B 5385   0.911   1.458   4.501 -1.4092  1.4287  2.0753
   57CHL1   C24 5386   1.073   1.450   4.643 -0.4718  0.7519 -0.0823
   57CHL1  H24A 5387   1.048   1.342   4.650 -2.8334  1.3348  2.2536
   57CHL1  H24B 5388   1.183   1.463   4.634 -0.4595  0.1989 -0.7674
   57CHL1   C25 5389   1.020   1.509   4.778 -0.1675  0.5821 -0.0670
   57CHL1   H25 5390   0.909   1.504   4.766 -0.0807 -0.0235 -0.6438
   57CHL1   C26 5391   1.068   1.412   4.895 -0.9228 -0.3197  0.1472
   57CHL1  H26A 5392   1.178   1.422   4.909 -0.9378  0.7104 -0.3215
   57CHL1  H26B 5393   1.012   1.433   4.989  0.4434 -1.1445  1.1917
   57CHL1  H26C 5394   1.045   1.308   4.866  0.7287 -0.2233 -1.6756
   57CHL1   C27 5395   1.067   1.652   4.804  0.7113  0.8610  0.0444
   57CHL1  H27A 5396   1.046   1.724   4.721  1.3124  0.3972 -0.5195
   57CHL1  H27B 5397   1.030   1.698   4.898  0.2149  1.1599 -0.2856
   57CHL1  H27C 5398   1.177   1.647   4.818  0.7704  1.7077 -0.0164
   58CHL1    C3 5399   6.182   1.884   2.785  0.4438  0.4588  0.4468
   58CHL1    H3 5400   6.153   1.780   2.807 -0.4012  0.3015 -1.2444
   58CHL1    O3 5401   6.240   1.884   2.655  0.1375 -0.6168 -0.1191
   58CHL1   H3' 5402   6.297   1.807   2.648 -0.2902 -0.9711  0.1890
   58CHL1    C4 5403   6.052   1.956   2.773  0.0706 -0.8923 -0.4616
   58CHL1   H4A 5404   6.060   2.060   2.735 -0.0762 -0.4433  0.6966
   58CHL1   H4B 5405   5.983   1.905   2.702 -1.2750  0.2263 -0.0187
   58CHL1    C5 5406   5.989   1.941   2.913  0.2868 -0.1937  0.2502
   58CHL1    C6 5407   5.868   1.891   2.930  0.0961  0.2971  0.4988
   58CHL1    H6 5408   5.799   1.863   2.849  0.2856 -1.8415  1.0103
   58CHL1    C7 5409   5.800   1.888   3.058 -0.2984  0.0871 -1.3366
   58CHL1   H7A 5410   5.694   1.921   3.053 -0.6481 -0.5181  0.9666
   58CHL1   H7B 5411   5.806   1.788   3.107  0.9047  1.2600  1.0305
   58CHL1    C8 5412   5.860   1.997   3.166  0.4322  0.1726  0.3666
   58CHL1    H8 5413   5.834   2.098   3.128  1.2170  0.2676  0.0637
   58CHL1   C14 5414   5.779   1.993   3.297 -0.6804  0.6200  0.0257
   58CHL1   H14 5415   5.781   1.886   3.328 -0.8771  1.1243  1.9130
   58CHL1   C15 5416   5.633   2.033   3.299 -0.1776 -0.0666  0.1075
   58CHL1  H15A 5417   5.611   2.126   3.242 -0.4236 -0.1826  0.0125
   58CHL1  H15B 5418   5.561   1.957   3.263  0.1778 -1.5024  2.2024
   58CHL1   C16 5419   5.605   2.055   3.444  0.5646  0.0092  0.6124
   58CHL1  H16A 5420   5.555   2.153   3.456 -2.0240 -1.2571  0.9328
   58CHL1  H16B 5421   5.538   1.975   3.483 -0.4294  0.4528 -0.1635
   58CHL1   C17 5422   5.744   2.062   3.518 -0.3318  0.2522 -0.8902
   58CHL1   H17 5423   5.755   1.958   3.558 -0.7018  0.1676 -1.0033
   58CHL1   C13 5424   5.844   2.081   3.406  0.1618 -0.2647 -0.0989
   58CHL1   C18 5425   5.828   2.237   3.372  0.1159 -0.0125 -0.1509
   58CHL1  H18A 5426   5.863   2.261   3.269 -1.9013  2.5629 -0.3225
   58CHL1  H18B 5427   5.724   2.276   3.369  0.3310  0.6183  0.3681
   58CHL1  H18C 5428   5.896   2.303   3.430  0.5436  0.3679 -1.0604
   58CHL1   C12 5429   5.995   2.036   3.430 -0.1537  0.6550  0.3308
   58CHL1  H12A 5430   6.039   2.098   3.511 -2.3065  1.2163  1.1377
   58CHL1  H12B 5431   6.001   1.933   3.473  0.7313  1.2354  1.6639
   58CHL1   C11 5432   6.074   2.046   3.300 -0.4095  0.2398 -0.2707
   58CHL1  H11A 5433   6.094   2.154   3.278  0.0596 -0.3441 -3.0255
   58CHL1  H11B 5434   6.175   2.003   3.318 -0.4377  0.1658 -0.2928
   58CHL1    C9 5435   6.011   1.973   3.181 -0.1007  0.4445  0.0258
   58CHL1    H9 5436   6.018   1.864   3.202 -0.9094  0.4155  0.1808
   58CHL1   C10 5437   6.076   1.989   3.035  0.4572  0.0587  0.0780
   58CHL1   C19 5438   6.095   2.145   3.018  0.1573 -0.0453  0.0605
   58CHL1  H19A 5439   5.996   2.197   3.021  0.5229  0.6271  0.7834
   58CHL1  H19B 5440   6.163   2.181   3.098  1.9838 -1.1493 -0.9408
   58CHL1  H19C 5441   6.144   2.176   2.924 -1.1135  1.1835 -0.2426
   58CHL1    C1 5442   6.214   1.917   3.033  0.3310  0.3172  0.2716
   58CHL1   H1A 5443   6.282   1.969   3.104  1.0255  0.6977 -0.6602
   58CHL1   H1B 5444   6.207   1.808   3.054  0.1799 -0.1097 -1.8377
   58CHL1    C2 5445   6.278   1.933   2.893  0.0361 -0.4732 -0.0521
   58CHL1   H2A 5446   6.377   1.883   2.895 -0.2427 -1.0242  1.1114
   58CHL1   H2B 5447   6.296   2.042   2.879 -0.2816 -0.3847  0.1913
   58CHL1   C20 5448   5.748   2.159   3.642 -0.5479 -0.4234 -0.0114
   58CHL1   H20 5449   5.729   2.261   3.603  0.5101 -0.9465 -2.0806
   58CHL1   C21 5450   5.878   2.145   3.714 -0.3125  0.0848  0.0556
   58CHL1  H21A 5451   5.968   2.197   3.674 -1.0647  1.1147 -0.3324
   58CHL1  H21B 5452   5.903   2.037   3.716  1.6409  0.4020 -2.3364
   58CHL1  H21C 5453   5.864   2.175   3.820  2.3216  2.8005 -0.2346
   58CHL1   C22 5454   5.633   2.132   3.739  0.8217  0.3689 -0.2445
   58CHL1  H22A 5455   5.544   2.123   3.673 -0.7988  0.1865  1.8426
   58CHL1  H22B 5456   5.647   2.031   3.784  1.2406  0.7377  0.4550
   58CHL1   C23 5457   5.597   2.249   3.833  0.2271 -0.4238  0.1324
   58CHL1  H23A 5458   5.673   2.254   3.914  0.3281  0.8534 -0.0298
   58CHL1  H23B 5459   5.604   2.347   3.782  2.2855 -1.7371 -2.2980
   58CHL1   C24 5460   5.463   2.242   3.904 -0.7368  0.8399  0.8102
   58CHL1  H24A 5461   5.466   2.140   3.947 -0.8451  0.7073  0.5082
   58CHL1  H24B 5462   5.461   2.321   3.982 -0.7606  0.8488  0.8004
   58CHL1   C25 5463   5.341   2.258   3.815  0.8798  0.0417  0.2806
   58CHL1   H25 5464   5.353   2.200   3.721  2.0501  0.2339  0.2904
   58CHL1   C26 5465   5.210   2.207   3.881 -0.1717  0.3125 -0.1802
   58CHL1  H26A 5466   5.223   2.100   3.908 -2.4657  0.1911  0.6363
   58CHL1  H26B 5467   5.198   2.267   3.974  0.9078  1.3611 -0.6829
   58CHL1  H26C 5468   5.127   2.220   3.808 -0.7296 -0.2432  0.3442
   58CHL1   C27 5469   5.328   2.403   3.780  0.6038 -0.2326 -0.2473
   58CHL1  H27A 5470   5.231   2.414   3.726  1.0867 -1.6408 -1.4517
   58CHL1  H27B 5471   5.327   2.464   3.873 -3.3513 -1.0155  0.4410
   58CHL1  H27C 5472   5.414   2.434   3.717 -0.2233 -0.0540 -1.3301
   59CHL1    C3 5473   4.903   0.243   2.379  0.3821 -0.2390 -0.4533
   59CHL1    H3 5474   4.943   0.347   2.381 -2.5093  0.9755 -0.6391
   59CHL1    O3 5475   4.876   0.197   2.248 -0.2503 -0.1172  0.0647
   59CHL1   H3' 5476   4.945   0.134   2.226 -1.1477 -0.5391 -1.6772
   59CHL1    C4 5477   4.993   0.140   2.454  0.7494 -0.3940  0.2492
   59CHL1   H4A 5478   4.941   0.043   2.451  1.8147 -0.9728  0.0929
   59CHL1   H4B 5479   5.091   0.126   2.404  1.3103 -5.0492  2.1406
   59CHL1    C5 5480   5.012   0.184   2.599 -0.5972 -0.1496  1.1591
   59CHL1    C6 5481   5.140   0.195   2.648  0.0074 -0.6891  0.6151
   59CHL1    H6 5482   5.225   0.165   2.586 -0.5943  0.1229 -0.6413
   59CHL1    C7 5483   5.159   0.216   2.790 -0.6604 -0.5677 -0.1012
   59CHL1   H7A 5484   5.248   0.153   2.815 -0.2683  0.2621  0.6425
   59CHL1   H7B 5485   5.186   0.322   2.772 -1.6907 -0.6854 -2.6606
   59CHL1    C8 5486   5.037   0.217   2.883  0.6422 -0.3748 -1.1062
   59CHL1    H8 5487   5.017   0.112   2.912 -1.8723 -0.3510 -2.4166
   59CHL1   C14 5488   5.069   0.304   3.016  0.0464 -0.0208 -0.9232
   59CHL1   H14 5489   5.080   0.408   2.978  0.9120  0.5835  0.8653
   59CHL1   C15 5490   5.201   0.272   3.097  0.1591  0.5466  0.2898
   59CHL1  H15A 5491   5.203   0.163   3.119  2.1793  0.4314 -0.2200
   59CHL1  H15B 5492   5.291   0.305   3.041 -0.5249  0.7048 -0.7402
   59CHL1   C16 5493   5.183   0.350   3.225 -0.6336  0.5100  0.2901
   59CHL1  H16A 5494   5.230   0.290   3.306  0.8534  2.9038  1.3201
   59CHL1  H16B 5495   5.228   0.451   3.218 -0.0231  0.2991  1.0948
   59CHL1   C17 5496   5.036   0.389   3.241 -0.3288  0.3778  0.6522
   59CHL1   H17 5497   5.028   0.498   3.222  1.4736  0.4705  0.2576
   59CHL1   C13 5498   4.960   0.313   3.120  0.2303 -0.0114 -0.3234
   59CHL1   C18 5499   4.927   0.167   3.171  0.5269  0.0637 -0.6572
   59CHL1  H18A 5500   5.012   0.112   3.215 -1.3361 -1.5287  1.1699
   59CHL1  H18B 5501   4.846   0.175   3.246  0.0046  2.4428 -1.3681
   59CHL1  H18C 5502   4.888   0.101   3.090  1.2534  0.0274 -0.9829
   59CHL1   C12 5503   4.843   0.374   3.050  0.1334  0.4046 -0.3565
   59CHL1  H12A 5504   4.754   0.378   3.116  0.3653 -0.5062  0.0172
   59CHL1  H12B 5505   4.863   0.479   3.019  1.3050 -0.5783 -3.3920
   59CHL1   C11 5506   4.795   0.302   2.917  0.4117 -0.0577 -0.5090
   59CHL1  H11A 5507   4.752   0.205   2.949 -0.5946  0.4379 -0.3253
   59CHL1  H11B 5508   4.719   0.360   2.861 -1.5230 -1.6705  0.2994
   59CHL1    C9 5509   4.913   0.281   2.819  0.8041  0.3783 -0.2790
   59CHL1    H9 5510   4.940   0.387   2.796 -0.4221  0.3013 -2.4254
   59CHL1   C10 5511   4.879   0.213   2.679 -1.0128 -0.0615  0.1858
   59CHL1   C19 5512   4.818   0.078   2.713 -0.1097  0.2206 -0.6196
   59CHL1  H19A 5513   4.879   0.013   2.779  2.5313  2.0487 -1.0987
   59CHL1  H19B 5514   4.722   0.096   2.766 -0.0918  0.6467 -0.7233
   59CHL1  H19C 5515   4.781   0.023   2.624 -0.4883 -2.3182  1.0221
   59CHL1    C1 5516   4.780   0.297   2.597 -0.6599 -0.0964 -0.1598
   59CHL1   H1A 5517   4.683   0.291   2.651 -0.6707 -0.7398 -0.2452
   59CHL1   H1B 5518   4.807   0.404   2.605 -0.3657 -0.1598 -0.2967
   59CHL1    C2 5519   4.766   0.255   2.452  0.7085  0.0307 -0.1209
   59CHL1   H2A 5520   4.700   0.323   2.393  0.8018 -0.8110 -1.2142
   59CHL1   H2B 5521   4.717   0.157   2.436 -1.0850  0.7814  0.4676
   59CHL1   C20 5522   4.989   0.366   3.387 -0.0480 -0.6474  0.3020
   59CHL1   H20 5523   4.991   0.260   3.419  0.0402 -0.2736  1.5959
   59CHL1   C21 5524   4.853   0.441   3.385 -0.7859  0.7927 -0.1940
   59CHL1  H21A 5525   4.819   0.474   3.485 -0.3954  1.0451 -0.1412
   59CHL1  H21B 5526   4.781   0.376   3.332  0.9075 -0.9839 -0.4484
   59CHL1  H21C 5527   4.871   0.541   3.340  0.4646  0.5043 -0.3951
   59CHL1   C22 5528   5.080   0.431   3.494  0.3576 -0.4750 -0.0358
   59CHL1  H22A 5529   5.185   0.397   3.481  0.3431 -0.5764  0.1145
   59CHL1  H22B 5530   5.079   0.542   3.488  0.9715 -0.4949 -0.7608
   59CHL1   C23 5531   5.058   0.388   3.638 -0.4107 -0.1139 -0.2423
   59CHL1  H23A 5532   4.952   0.409   3.667  0.4677  0.2280  3.2714
   59CHL1  H23B 5533   5.091   0.283   3.655 -0.5575 -0.3449 -1.3445
   59CHL1   C24 5534   5.150   0.466   3.740  0.1975  0.2356 -0.0278
   59CHL1  H24A 5535   5.251   0.419   3.733  0.2165  0.1529  0.6727
   59CHL1  H24B 5536   5.158   0.571   3.705 -0.0260 -1.1579 -4.9196
   59CHL1   C25 5537   5.109   0.477   3.889  0.2786 -0.3066  0.0655
   59CHL1   H25 5538   5.015   0.536   3.888  1.9466  2.6364  0.7581
   59CHL1   C26 5539   5.084   0.344   3.961 -0.2894 -0.3961  0.6221
   59CHL1  H26A 5540   5.052   0.367   4.064  1.6581 -1.3416  1.4873
   59CHL1  H26B 5541   5.008   0.284   3.906  0.3695 -0.2388 -0.4835
   59CHL1  H26C 5542   5.183   0.294   3.966  0.1305  0.2857 -0.4601
   59CHL1   C27 5543   5.207   0.559   3.975 -0.0443 -0.0349  0.3061
   59CHL1  H27A 5544   5.302   0.502   3.980  0.3380  0.7191  2.7234
   59CHL1  H27B 5545   5.229   0.663   3.942  1.4926  0.0405  1.4542
   59CHL1  H27C 5546   5.167   0.562   4.079  0.2282 -2.5902  0.5579
   60CHL1    C3 5547   0.456   5.461   3.139 -0.1356  0.1926 -0.7621
   60CHL1    H3 5548   0.555   5.503   3.167 -0.1102  0.7807 -1.6763
   60CHL1    O3 5549   0.448   5.455   2.998 -0.0673  0.2648 -0.4324
   60CHL1   H3' 5550   0.441   5.544   2.962  1.4110  0.9413  0.8127
   60CHL1    C4 5551   0.442   5.324   3.204  0.7681  0.2886  0.3248
   60CHL1   H4A 5552   0.349   5.269   3.176  1.8419 -0.4560 -1.9688
   60CHL1   H4B 5553   0.526   5.268   3.158  1.6947  1.8960 -0.0061
   60CHL1    C5 5554   0.456   5.335   3.355  0.4032  0.5916 -0.0015
   60CHL1    C6 5555   0.548   5.265   3.424  0.3176  0.0527 -0.1292
   60CHL1    H6 5556   0.611   5.194   3.367 -2.1802 -0.9640 -1.7939
   60CHL1    C7 5557   0.562   5.263   3.576  0.4498  0.3428  0.4848
   60CHL1   H7A 5558   0.595   5.162   3.609  2.1092  1.1161  1.2722
   60CHL1   H7B 5559   0.643   5.329   3.614 -0.0048  1.1644  0.0512
   60CHL1    C8 5560   0.438   5.314   3.643  0.5367  0.0713 -0.0037
   60CHL1    H8 5561   0.362   5.233   3.641  0.6025 -0.0306  0.9480
   60CHL1   C14 5562   0.458   5.330   3.793 -0.4322 -0.2871 -0.0283
   60CHL1   H14 5563   0.534   5.410   3.803  0.3674 -1.0008 -0.2482
   60CHL1   C15 5564   0.513   5.207   3.872  0.0868 -0.0758  0.4274
   60CHL1  H15A 5565   0.450   5.125   3.832  0.4641  0.4985 -1.4332
   60CHL1  H15B 5566   0.619   5.186   3.846  0.4016  0.5556  1.1676
   60CHL1   C16 5567   0.482   5.240   4.017  0.5616 -0.2781 -0.3277
   60CHL1  H16A 5568   0.425   5.154   4.059  2.5307  0.0988  3.5431
   60CHL1  H16B 5569   0.569   5.243   4.085  0.4756 -0.1329 -0.2210
   60CHL1   C17 5570   0.394   5.364   4.016  0.5393 -0.2192 -0.1272
   60CHL1   H17 5571   0.466   5.447   4.037 -0.9239  0.7333  1.3936
   60CHL1   C13 5572   0.334   5.377   3.873  0.0769  0.3565  0.3928
   60CHL1   C18 5573   0.220   5.283   3.864  0.1208  0.4005 -0.4302
   60CHL1  H18A 5574   0.129   5.311   3.921  1.0111 -0.9252  1.7779
   60CHL1  H18B 5575   0.190   5.284   3.757 -3.0904  2.0542  0.3652
   60CHL1  H18C 5576   0.248   5.177   3.887  0.5683  1.0760  2.6024
   60CHL1   C12 5577   0.297   5.519   3.813  0.7139 -0.7194  0.0720
   60CHL1  H12A 5578   0.201   5.553   3.858  1.0890  2.1066 -1.0482
   60CHL1  H12B 5579   0.373   5.598   3.833  0.3709 -0.7027  1.4478
   60CHL1   C11 5580   0.273   5.516   3.661 -0.0064  0.9423  0.3410
   60CHL1  H11A 5581   0.174   5.471   3.638  0.2878  1.4235 -2.1657
   60CHL1  H11B 5582   0.257   5.618   3.620 -0.0714  0.5556 -0.6340
   60CHL1    C9 5583   0.385   5.440   3.578  0.6735 -0.1645  0.2800
   60CHL1    H9 5584   0.472   5.507   3.590  0.2032  0.1427  2.4683
   60CHL1   C10 5585   0.355   5.428   3.427 -0.0642  0.9848  0.4410
   60CHL1   C19 5586   0.218   5.355   3.411 -0.0541 -0.7160 -0.3696
   60CHL1  H19A 5587   0.135   5.419   3.448  0.3466 -0.1513 -0.4299
   60CHL1  H19B 5588   0.189   5.343   3.305 -1.3397 -0.0467 -0.1147
   60CHL1  H19C 5589   0.215   5.255   3.460 -1.3477 -2.2562 -3.3229
   60CHL1    C1 5590   0.354   5.556   3.349 -0.2010  0.3073  0.1684
   60CHL1   H1A 5591   0.261   5.604   3.386 -0.2314  0.8265 -0.5461
   60CHL1   H1B 5592   0.437   5.623   3.380 -0.4301  0.2959  0.8321
   60CHL1    C2 5593   0.347   5.548   3.201 -0.2037 -0.7792  0.1302
   60CHL1   H2A 5594   0.340   5.644   3.147 -1.3080 -1.2960 -0.6941
   60CHL1   H2B 5595   0.254   5.499   3.163 -0.9039  0.0569  0.7233
   60CHL1   C20 5596   0.290   5.379   4.125 -0.2753  0.4920  0.4888
   60CHL1   H20 5597   0.205   5.309   4.118  0.8780 -0.8489 -0.9232
   60CHL1   C21 5598   0.232   5.527   4.131  0.3706  0.0058 -0.2114
   60CHL1  H21A 5599   0.309   5.607   4.129 -1.3243  1.7676  1.1913
   60CHL1  H21B 5600   0.175   5.522   4.226 -0.6856 -1.1159 -0.8835
   60CHL1  H21C 5601   0.164   5.544   4.045  0.3876 -1.1176 -0.4595
   60CHL1   C22 5602   0.359   5.335   4.258  0.6020  0.2213 -0.1006
   60CHL1  H22A 5603   0.281   5.350   4.336 -0.2030  1.8602 -1.1627
   60CHL1  H22B 5604   0.388   5.229   4.251  0.0150  0.0945 -0.6888
   60CHL1   C23 5605   0.488   5.414   4.301 -0.2173  0.3308  0.3616
   60CHL1  H23A 5606   0.569   5.396   4.228  2.6609  0.2851  3.3079
   60CHL1  H23B 5607   0.479   5.524   4.313  0.4251  0.4309 -0.0497
   60CHL1   C24 5608   0.536   5.356   4.431 -0.0811 -0.5501 -0.1123
   60CHL1  H24A 5609   0.452   5.321   4.496  1.2751 -1.5884  1.1398
   60CHL1  H24B 5610   0.579   5.255   4.414  0.7361 -0.0926 -0.8360
   60CHL1   C25 5611   0.629   5.439   4.518  0.1497  0.1995 -0.2967
   60CHL1   H25 5612   0.703   5.492   4.455  0.0577 -2.6256 -3.0105
   60CHL1   C26 5613   0.559   5.546   4.608  0.0583  0.2939  0.2892
   60CHL1  H26A 5614   0.484   5.487   4.664  1.7622  0.4411  2.8993
   60CHL1  H26B 5615   0.617   5.605   4.682 -0.6039  0.4009  0.7214
   60CHL1  H26C 5616   0.499   5.630   4.565 -0.3103  0.6383  1.4603
   60CHL1   C27 5617   0.715   5.349   4.617 -0.4630  0.3844 -0.2606
   60CHL1  H27A 5618   0.811   5.396   4.647 -0.4535 -1.1321  2.4639
   60CHL1  H27B 5619   0.650   5.320   4.702 -0.7749  1.3377 -0.1687
   60CHL1  H27C 5620   0.744   5.258   4.559 -0.2950  0.3504 -0.1245
   61CHL1    C3 5621   0.447   2.224   2.989  0.2198  0.0155 -0.5132
   61CHL1    H3 5622   0.538   2.279   3.019 -0.5601  0.7139  0.6705
   61CHL1    O3 5623   0.445   2.217   2.847  0.5131  0.4113 -1.2752
   61CHL1   H3' 5624   0.464   2.304   2.810  0.5225  0.0169 -2.2168
   61CHL1    C4 5625   0.460   2.079   3.047 -0.2192 -0.6474 -0.5292
   61CHL1   H4A 5626   0.392   2.007   2.998 -0.5626 -1.0359  0.4982
   61CHL1   H4B 5627   0.561   2.047   3.012  0.2751  0.7166 -0.4011
   61CHL1    C5 5628   0.453   2.073   3.195 -0.3875  0.1928 -1.0444
   61CHL1    C6 5629   0.549   2.012   3.271  0.8297  0.1066 -0.5534
   61CHL1    H6 5630   0.629   1.952   3.225 -1.2305 -2.7320 -0.7158
   61CHL1    C7 5631   0.554   2.005   3.420  0.4082  0.0192 -0.4231
   61CHL1   H7A 5632   0.574   1.900   3.448 -0.3983  0.1123  0.5719
   61CHL1   H7B 5633   0.634   2.072   3.459 -1.9424  1.0274  3.2757
   61CHL1    C8 5634   0.421   2.050   3.488 -0.4012  0.5156 -0.0960
   61CHL1    H8 5635   0.356   1.961   3.479  1.9296 -1.6135  2.3268
   61CHL1   C14 5636   0.448   2.079   3.634 -0.4648  1.1445  0.1641
   61CHL1   H14 5637   0.506   2.173   3.621 -1.5085  1.8162  0.1898
   61CHL1   C15 5638   0.539   1.981   3.717 -0.1267 -0.1309 -0.3593
   61CHL1  H15A 5639   0.527   1.873   3.697  0.4225 -0.2875  0.1419
   61CHL1  H15B 5640   0.644   2.009   3.696 -0.7992  2.2170 -0.8940
   61CHL1   C16 5641   0.496   2.015   3.863  0.7217 -0.2836  0.0333
   61CHL1  H16A 5642   0.444   1.928   3.909 -1.1905  1.2758  0.9566
   61CHL1  H16B 5643   0.579   2.050   3.927  0.4249  1.2531 -0.3834
   61CHL1   C17 5644   0.400   2.130   3.852 -0.7560 -0.3000 -0.6597
   61CHL1   H17 5645   0.470   2.214   3.832 -0.4650 -0.7383 -1.5726
   61CHL1   C13 5646   0.329   2.117   3.718  0.0375 -0.5625  0.5296
   61CHL1   C18 5647   0.225   2.005   3.726 -0.3492 -0.8651  0.3304
   61CHL1  H18A 5648   0.269   1.920   3.783  0.5158  0.0359  1.0556
   61CHL1  H18B 5649   0.137   2.042   3.781 -0.2568 -3.4380  2.4330
   61CHL1  H18C 5650   0.184   1.961   3.633  0.5191 -3.7453  1.1819
   61CHL1   C12 5651   0.257   2.241   3.650  0.2530  0.4128  0.1072
   61CHL1  H12A 5652   0.164   2.268   3.705  0.1038  0.3273 -0.1027
   61CHL1  H12B 5653   0.327   2.327   3.656  0.2552  0.3885  0.4901
   61CHL1   C11 5654   0.231   2.220   3.502  0.8367 -0.9841  0.3483
   61CHL1  H11A 5655   0.154   2.144   3.479  1.2950 -0.7473 -2.3507
   61CHL1  H11B 5656   0.186   2.314   3.462 -0.8356 -2.0173 -0.3185
   61CHL1    C9 5657   0.360   2.178   3.419  0.0647 -0.3444  0.3175
   61CHL1    H9 5658   0.435   2.259   3.430  0.8052 -1.1924  1.9456
   61CHL1   C10 5659   0.338   2.159   3.259  0.4286  0.1337  0.1355
   61CHL1   C19 5660   0.213   2.070   3.229  0.2955  0.8270 -0.1945
   61CHL1  H19A 5661   0.211   2.047   3.120 -0.7437  2.6239 -0.5895
   61CHL1  H19B 5662   0.228   1.977   3.288  0.4925  0.3867 -0.9249
   61CHL1  H19C 5663   0.123   2.122   3.268  0.4906 -0.3282  1.9765
   61CHL1    C1 5664   0.319   2.299   3.194 -0.2682 -0.4001  0.1928
   61CHL1   H1A 5665   0.217   2.336   3.217 -0.4624  0.1649 -1.4530
   61CHL1   H1B 5666   0.397   2.370   3.230  0.0040  0.4731 -1.9545
   61CHL1    C2 5667   0.328   2.303   3.041 -0.2361 -0.2464  0.5480
   61CHL1   H2A 5668   0.330   2.411   3.016 -0.4792 -0.0973  1.1679
   61CHL1   H2B 5669   0.231   2.266   3.000 -1.7064  1.5844  2.1891
   61CHL1   C20 5670   0.321   2.163   3.982  0.4452  0.5362 -0.1676
   61CHL1   H20 5671   0.231   2.212   3.940  1.4480  0.3677 -2.6763
   61CHL1   C21 5672   0.405   2.262   4.057 -0.5989  0.3046 -0.0895
   61CHL1  H21A 5673   0.513   2.238   4.066  0.0681  3.2872  0.9470
   61CHL1  H21B 5674   0.367   2.270   4.161 -1.7440 -2.4927 -0.2193
   61CHL1  H21C 5675   0.406   2.362   4.008 -0.4321  1.0389  1.3516
   61CHL1   C22 5676   0.274   2.038   4.068  0.7168 -0.0688  0.7969
   61CHL1  H22A 5677   0.226   1.969   3.995  0.6441  0.9227 -0.1313
   61CHL1  H22B 5678   0.360   1.994   4.122  0.3928 -0.7278  0.7793
   61CHL1   C23 5679   0.177   2.086   4.169 -0.3535 -0.0583  0.4680
   61CHL1  H23A 5680   0.225   2.140   4.254 -1.2254  0.8334  0.4072
   61CHL1  H23B 5681   0.096   2.152   4.131 -0.0327  0.2638  0.3488
   61CHL1   C24 5682   0.101   1.969   4.233 -0.2252 -0.3203 -0.0719
   61CHL1  H24A 5683   0.076   1.895   4.154 -0.0429  0.3869 -0.7938
   61CHL1  H24B 5684   0.171   1.919   4.303 -0.7220 -0.1885  0.5300
   61CHL1   C25 5685  -0.031   1.989   4.308  0.1029 -1.1352 -0.3325
   61CHL1   H25 5686  -0.109   2.030   4.241  1.4889  1.0792 -0.6887
   61CHL1   C26 5687  -0.087   1.863   4.375 -0.1612  0.3044  0.1086
   61CHL1  H26A 5688  -0.187   1.879   4.419  0.1391  0.0536  0.8979
   61CHL1  H26B 5689  -0.094   1.777   4.306  1.7579  2.6927 -3.4012
   61CHL1  H26C 5690  -0.013   1.833   4.452  1.0806 -0.9870 -1.5089
   61CHL1   C27 5691  -0.011   2.094   4.416  0.1704  0.1834 -0.8102
   61CHL1  H27A 5692  -0.106   2.092   4.473  0.0476 -0.8557 -1.0297
   61CHL1  H27B 5693   0.072   2.064   4.483 -0.5964  1.8554  0.9678
   61CHL1  H27C 5694   0.003   2.199   4.382  0.1422  0.2682 -0.5608
   62CHL1    C3 5695   2.574   6.704   2.824  0.0968 -0.3370  0.0615
   62CHL1    H3 5696   2.647   6.787   2.817  0.5528 -0.6287  1.2080
   62CHL1    O3 5697   2.556   6.656   2.692 -0.2885 -0.1778  0.3681
   62CHL1   H3' 5698   2.476   6.604   2.698 -0.1288 -0.2523  2.8469
   62CHL1    C4 5699   2.629   6.587   2.904 -0.0482 -0.9557 -0.5337
   62CHL1   H4A 5700   2.555   6.504   2.909  3.1103 -3.9655 -0.0708
   62CHL1   H4B 5701   2.718   6.549   2.851  0.2583 -0.1598 -0.6102
   62CHL1    C5 5702   2.655   6.631   3.052 -0.2246  0.0276  0.3997
   62CHL1    C6 5703   2.777   6.622   3.106 -0.3681 -0.3097 -0.1436
   62CHL1    H6 5704   2.856   6.572   3.048 -1.3111 -1.4895 -0.4721
   62CHL1    C7 5705   2.806   6.665   3.246  0.2696  0.6395 -0.2350
   62CHL1   H7A 5706   2.871   6.589   3.295  2.0324  1.7877 -0.7085
   62CHL1   H7B 5707   2.859   6.762   3.243  0.3970  0.5639 -0.4542
   62CHL1    C8 5708   2.671   6.675   3.328 -0.0909  0.0954  0.0515
   62CHL1    H8 5709   2.635   6.571   3.346  0.4074  0.1938  1.9212
   62CHL1   C14 5710   2.710   6.740   3.454  0.0982 -0.5441 -0.0943
   62CHL1   H14 5711   2.746   6.840   3.421 -3.3520  0.8883  0.0585
   62CHL1   C15 5712   2.823   6.682   3.540  0.0718 -0.2585  0.6680
   62CHL1  H15A 5713   2.792   6.576   3.556 -1.6386  0.3560  1.7619
   62CHL1  H15B 5714   2.927   6.678   3.501  0.1898 -2.1495  1.0622
   62CHL1   C16 5715   2.806   6.761   3.672 -0.6370  0.7480  0.4876
   62CHL1  H16A 5716   2.790   6.680   3.746 -0.1417 -1.6331 -1.8762
   62CHL1  H16B 5717   2.897   6.821   3.694  1.2039  0.4170 -4.7819
   62CHL1   C17 5718   2.683   6.861   3.661  0.1216  0.2728  0.2352
   62CHL1   H17 5719   2.713   6.959   3.620 -1.4537  0.4329 -0.6456
   62CHL1   C13 5720   2.598   6.790   3.548 -0.1950 -0.3412 -0.1337
   62CHL1   C18 5721   2.538   6.673   3.620 -0.1080 -0.1660  0.0548
   62CHL1  H18A 5722   2.445   6.698   3.674 -0.9990  0.8232 -1.8315
   62CHL1  H18B 5723   2.521   6.593   3.544  2.3533  1.1281 -2.0261
   62CHL1  H18C 5724   2.600   6.626   3.699  0.5600 -0.3099 -0.5348
   62CHL1   C12 5725   2.486   6.863   3.470 -0.2760  0.7781 -0.1023
   62CHL1  H12A 5726   2.395   6.887   3.529 -0.6164 -0.1454 -0.2389
   62CHL1  H12B 5727   2.529   6.960   3.436  2.9198 -1.0511 -1.8184
   62CHL1   C11 5728   2.448   6.790   3.344 -0.0449  0.0782  0.0336
   62CHL1  H11A 5729   2.384   6.705   3.376 -0.2289  0.2381  0.0938
   62CHL1  H11B 5730   2.390   6.861   3.282  1.1757 -1.3996 -3.0154
   62CHL1    C9 5731   2.569   6.756   3.253  0.3621  0.0165 -0.2117
   62CHL1    H9 5732   2.619   6.852   3.229  0.7838 -0.4863 -1.4138
   62CHL1   C10 5733   2.531   6.689   3.120  0.5680 -0.0253  0.9411
   62CHL1   C19 5734   2.423   6.586   3.145  0.0569  0.3681 -0.1444
   62CHL1  H19A 5735   2.454   6.520   3.228  0.4882  1.1376  0.3111
   62CHL1  H19B 5736   2.324   6.635   3.158 -0.2647 -0.6251  1.3756
   62CHL1  H19C 5737   2.410   6.512   3.063 -0.9168 -0.4333  0.7060
   62CHL1    C1 5738   2.461   6.800   3.030 -0.0135  0.0824 -0.2343
   62CHL1   H1A 5739   2.359   6.810   3.073 -1.0032 -2.0066 -1.8997
   62CHL1   H1B 5740   2.518   6.896   3.036  0.9200 -0.4344 -0.5964
   62CHL1    C2 5741   2.445   6.763   2.883  0.1375  0.2191 -0.4059
   62CHL1   H2A 5742   2.406   6.839   2.811  0.0901  0.2407 -0.3576
   62CHL1   H2B 5743   2.373   6.679   2.888  0.9191 -0.4264  0.2378
   62CHL1   C20 5744   2.619   6.898   3.795 -0.0708  0.7866 -0.1775
   62CHL1   H20 5745   2.571   6.811   3.845  2.1182 -0.0671  0.5636
   62CHL1   C21 5746   2.504   6.993   3.770 -0.4164  0.1066 -0.0046
   62CHL1  H21A 5747   2.525   7.051   3.678 -0.8030  1.7008  0.8738
   62CHL1  H21B 5748   2.488   7.075   3.843 -2.2885  0.6979 -1.0141
   62CHL1  H21C 5749   2.407   6.939   3.759  0.4226 -1.6004  0.5513
   62CHL1   C22 5750   2.727   6.958   3.890  0.4941  0.0046 -0.0874
   62CHL1  H22A 5751   2.810   6.885   3.901  0.5209  0.0585  0.0785
   62CHL1  H22B 5752   2.767   7.050   3.843  0.0345 -0.6212 -1.7855
   62CHL1   C23 5753   2.672   6.996   4.034 -0.2032 -0.0960  0.5738
   62CHL1  H23A 5754   2.618   7.093   4.025 -0.4145 -0.1225  1.4388
   62CHL1  H23B 5755   2.596   6.927   4.078 -2.2540  1.7626  0.1419
   62CHL1   C24 5756   2.790   7.021   4.131 -0.6134  0.5720  0.4454
   62CHL1  H24A 5757   2.860   6.936   4.144  0.5670  1.0406 -2.1372
   62CHL1  H24B 5758   2.862   7.092   4.085  1.0500  0.3350  2.5863
   62CHL1   C25 5759   2.759   7.073   4.273 -0.3201  0.6556  0.2730
   62CHL1   H25 5760   2.748   7.184   4.269 -1.1042  0.5502 -1.4230
   62CHL1   C26 5761   2.642   7.003   4.341  0.6425  0.6422  0.0768
   62CHL1  H26A 5762   2.633   7.019   4.451  2.0895 -0.2778  0.3596
   62CHL1  H26B 5763   2.550   7.049   4.298  0.1808 -0.6029 -0.2907
   62CHL1  H26C 5764   2.643   6.894   4.321  1.1595  0.5814  0.4204
   62CHL1   C27 5765   2.893   7.042   4.349 -0.6281 -0.3427 -0.4710
   62CHL1  H27A 5766   2.892   7.095   4.446 -0.5346 -0.1268 -0.5876
   62CHL1  H27B 5767   2.901   6.933   4.369 -0.5950 -0.3414 -0.4775
   62CHL1  H27C 5768   2.975   7.084   4.287  0.8462 -0.4872  1.2967
   63CHL1    C3 5769   6.559   4.971   2.975 -0.2033 -0.0751  0.2042
   63CHL1    H3 5770   6.458   4.934   3.001 -0.5572  0.9693  0.3332
   63CHL1    O3 5771   6.583   4.987   2.835  0.3640  0.1006  0.7328
   63CHL1   H3' 5772   6.607   4.902   2.798  0.1900  1.3786 -2.7590
   63CHL1    C4 5773   6.578   5.100   3.044  0.3305 -0.3402  0.0761
   63CHL1   H4A 5774   6.684   5.132   3.037  1.1476 -2.6051  1.1702
   63CHL1   H4B 5775   6.513   5.176   2.995  0.6508  1.2338  1.9890
   63CHL1    C5 5776   6.540   5.084   3.191  0.3530 -0.2750 -0.2982
   63CHL1    C6 5777   6.447   5.158   3.253 -0.1249 -0.1794 -0.1947
   63CHL1    H6 5778   6.387   5.228   3.193 -1.4690  0.1321  1.4338
   63CHL1    C7 5779   6.417   5.162   3.403 -0.2623 -0.1187  1.0980
   63CHL1   H7A 5780   6.412   5.266   3.440  0.3183  0.8307 -1.3213
   63CHL1   H7B 5781   6.314   5.121   3.415  0.1958 -1.8663 -0.4496
   63CHL1    C8 5782   6.518   5.083   3.485  0.4095 -0.0191  0.0620
   63CHL1    H8 5783   6.607   5.149   3.499 -1.5540  2.9189 -0.3716
   63CHL1   C14 5784   6.456   5.043   3.615  0.1267 -0.1413 -0.0938
   63CHL1   H14 5785   6.372   4.972   3.597  0.2660 -0.2609 -0.2769
   63CHL1   C15 5786   6.396   5.151   3.704 -0.1916 -0.7045  0.1666
   63CHL1  H15A 5787   6.469   5.235   3.704 -0.5081 -0.4274 -0.0584
   63CHL1  H15B 5788   6.295   5.194   3.689 -0.5834 -0.6011  2.7733
   63CHL1   C16 5789   6.385   5.090   3.842 -0.2526  0.6632  0.1281
   63CHL1  H16A 5790   6.437   5.147   3.922  0.7838  2.1720 -1.5347
   63CHL1  H16B 5791   6.278   5.080   3.866 -0.6630  2.5295 -0.7579
   63CHL1   C17 5792   6.450   4.944   3.828  0.0989  0.1429  0.4615
   63CHL1   H17 5793   6.373   4.870   3.795  1.1800 -0.7525 -0.0989
   63CHL1   C13 5794   6.548   4.961   3.710 -0.2399  0.4540 -0.4217
   63CHL1   C18 5795   6.671   5.036   3.755  0.3441 -0.3109  0.2206
   63CHL1  H18A 5796   6.733   4.980   3.828  1.5240 -0.1177 -0.6021
   63CHL1  H18B 5797   6.739   5.057   3.670 -2.9815  1.7649 -2.1614
   63CHL1  H18C 5798   6.645   5.137   3.793  0.2278 -0.3033  0.1224
   63CHL1   C12 5799   6.584   4.832   3.624  0.3440  0.0220  0.6609
   63CHL1  H12A 5800   6.635   4.763   3.694  0.7318  0.8943  1.2617
   63CHL1  H12B 5801   6.487   4.783   3.599  1.1786 -1.1882 -0.3334
   63CHL1   C11 5802   6.658   4.867   3.494 -0.0756  0.2520 -0.3030
   63CHL1  H11A 5803   6.758   4.909   3.518 -0.0479 -0.2684  0.5345
   63CHL1  H11B 5804   6.680   4.777   3.433 -0.8358 -0.2834  0.1860
   63CHL1    C9 5805   6.569   4.959   3.401  0.8118  0.4662  0.6837
   63CHL1    H9 5806   6.478   4.899   3.383  0.0103  2.3841 -2.5517
   63CHL1   C10 5807   6.630   4.983   3.264 -0.4115  0.2934  0.3010
   63CHL1   C19 5808   6.762   5.049   3.284 -0.0810  0.2874  0.5344
   63CHL1  H19A 5809   6.809   5.078   3.188  0.6627 -0.4374  0.6720
   63CHL1  H19B 5810   6.748   5.142   3.343  0.6531  3.2075 -3.4950
   63CHL1  H19C 5811   6.835   4.985   3.338 -1.5178 -1.0531  0.9855
   63CHL1    C1 5812   6.642   4.850   3.181  0.0380  0.2267 -0.3031
   63CHL1   H1A 5813   6.720   4.780   3.220 -0.6038 -0.9782 -1.0949
   63CHL1   H1B 5814   6.547   4.793   3.174  0.1585 -0.3517  1.8981
   63CHL1    C2 5815   6.672   4.873   3.033  0.4438  0.3885 -0.3819
   63CHL1   H2A 5816   6.651   4.774   2.988 -0.8749  0.6095 -0.2835
   63CHL1   H2B 5817   6.773   4.915   3.013  1.3567  0.6730  3.8552
   63CHL1   C20 5818   6.500   4.888   3.968  0.0431  0.1467  0.1756
   63CHL1   H20 5819   6.598   4.931   3.996  0.2528  0.4525 -0.9701
   63CHL1   C21 5820   6.525   4.740   3.957 -0.4113  0.0810 -0.1441
   63CHL1  H21A 5821   6.586   4.715   3.867  0.1881  1.1279 -0.0511
   63CHL1  H21B 5822   6.435   4.675   3.959 -0.8190  0.6035 -0.9099
   63CHL1  H21C 5823   6.591   4.706   4.039  0.9405  0.0586 -1.2072
   63CHL1   C22 5824   6.393   4.922   4.073  0.2161 -0.2835 -0.0355
   63CHL1  H22A 5825   6.402   5.031   4.091  3.7332 -0.4477 -0.0975
   63CHL1  H22B 5826   6.293   4.893   4.035 -0.6798  2.3744  0.0831
   63CHL1   C23 5827   6.407   4.842   4.202 -0.4312 -0.4504 -0.0698
   63CHL1  H23A 5828   6.393   4.733   4.187  2.5306 -0.7439 -1.6164
   63CHL1  H23B 5829   6.510   4.858   4.241 -0.2969  1.5784 -1.1232
   63CHL1   C24 5830   6.315   4.896   4.313  0.0281 -0.1664  0.2217
   63CHL1  H24A 5831   6.341   4.998   4.347  0.8830  0.2472 -1.5758
   63CHL1  H24B 5832   6.213   4.917   4.274  0.4115  0.9514 -0.2054
   63CHL1   C25 5833   6.320   4.814   4.436 -0.6686  0.1011 -0.2707
   63CHL1   H25 5834   6.288   4.710   4.415 -1.3210 -0.1704  1.8961
   63CHL1   C26 5835   6.465   4.807   4.497 -0.4136  0.7099 -0.4183
   63CHL1  H26A 5836   6.539   4.757   4.431 -0.2563  1.1174 -0.5538
   63CHL1  H26B 5837   6.503   4.911   4.508 -0.2034  0.8212 -1.9894
   63CHL1  H26C 5838   6.468   4.751   4.593  0.5088  1.6447  0.1195
   63CHL1   C27 5839   6.217   4.861   4.544  0.2094  0.3461  0.3205
   63CHL1  H27A 5840   6.238   4.966   4.574 -1.1897  0.0418  2.6130
   63CHL1  H27B 5841   6.113   4.862   4.504 -0.0136  0.2350  0.8861
   63CHL1  H27C 5842   6.224   4.806   4.640  3.0552  0.6818  0.3824
   64CHL1    C3 5843   4.794   5.507   2.634 -0.7720 -0.1428  0.2409
   64CHL1    H3 5844   4.903   5.485   2.632 -1.0077 -1.3117 -1.2608
   64CHL1    O3 5845   4.765   5.499   2.496 -0.4565  0.0977  0.2403
   64CHL1   H3' 5846   4.669   5.493   2.488 -0.2383 -4.1161 -3.7834
   64CHL1    C4 5847   4.723   5.409   2.732 -0.2698  0.3447  0.4705
   64CHL1   H4A 5848   4.612   5.402   2.724 -0.1753 -1.5071  0.1781
   64CHL1   H4B 5849   4.756   5.304   2.715 -1.9439 -0.2724  0.7901
   64CHL1    C5 5850   4.751   5.434   2.877 -0.4242 -1.0470 -0.0524
   64CHL1    C6 5851   4.794   5.340   2.960 -0.2659  0.8121  0.2697
   64CHL1    H6 5852   4.816   5.237   2.926  2.8362  0.9881  1.3978
   64CHL1    C7 5853   4.813   5.350   3.104 -0.4721  0.1831  0.2806
   64CHL1   H7A 5854   4.759   5.275   3.166 -0.4318  2.0810  2.7909
   64CHL1   H7B 5855   4.922   5.347   3.129 -0.2792  1.8611 -0.1921
   64CHL1    C8 5856   4.764   5.490   3.157  0.6287  0.0624 -0.5500
   64CHL1    H8 5857   4.657   5.470   3.176  0.6035 -0.1150 -0.8656
   64CHL1   C14 5858   4.829   5.525   3.295  0.7035  0.5463  0.0840
   64CHL1   H14 5859   4.936   5.537   3.268  1.0227 -0.8295  0.6372
   64CHL1   C15 5860   4.837   5.412   3.394  0.1891  0.4822 -0.1970
   64CHL1  H15A 5861   4.739   5.362   3.412  0.8242 -0.1110  1.8827
   64CHL1  H15B 5862   4.913   5.334   3.368 -0.5910 -0.2585 -0.3187
   64CHL1   C16 5863   4.872   5.480   3.531 -0.3715 -0.8171  1.0382
   64CHL1  H16A 5864   4.796   5.450   3.606  1.2532 -2.8650  1.9517
   64CHL1  H16B 5865   4.974   5.448   3.560  0.1085 -0.3077 -0.0284
   64CHL1   C17 5866   4.871   5.634   3.495  0.7610 -0.6671 -0.4727
   64CHL1   H17 5867   4.975   5.668   3.473  0.3704  2.0654  1.3033
   64CHL1   C13 5868   4.788   5.646   3.369 -0.6423 -0.3905  1.0949
   64CHL1   C18 5869   4.632   5.637   3.403  0.7656 -0.6538  0.0766
   64CHL1  H18A 5870   4.558   5.641   3.320 -0.3218 -3.2849  0.8096
   64CHL1  H18B 5871   4.604   5.549   3.466 -1.8502 -0.6393 -0.9311
   64CHL1  H18C 5872   4.615   5.731   3.459 -0.7793 -0.9812  0.2123
   64CHL1   C12 5873   4.817   5.766   3.262  0.3509 -0.3819  0.0977
   64CHL1  H12A 5874   4.772   5.858   3.306 -1.0068 -2.8929  4.6848
   64CHL1  H12B 5875   4.925   5.780   3.241  0.4084 -1.8499 -0.6520
   64CHL1   C11 5876   4.745   5.744   3.129  0.3725 -0.3930 -0.1110
   64CHL1  H11A 5877   4.635   5.734   3.147  0.5361  0.0465  1.2793
   64CHL1  H11B 5878   4.751   5.829   3.058 -2.2943 -0.8393 -0.9870
   64CHL1    C9 5879   4.787   5.609   3.059  0.2210  0.0291 -0.1566
   64CHL1    H9 5880   4.897   5.621   3.052  0.1218  0.7201 -0.5555
   64CHL1   C10 5881   4.730   5.579   2.921 -0.4690  0.5439  0.3218
   64CHL1   C19 5882   4.580   5.615   2.927  0.2974  0.2000  0.2147
   64CHL1  H19A 5883   4.530   5.578   2.835  0.2862 -0.0289  0.3147
   64CHL1  H19B 5884   4.527   5.567   3.012 -0.8440  1.3396  0.1719
   64CHL1  H19C 5885   4.567   5.725   2.934  0.6411  0.3598 -1.2532
   64CHL1    C1 5886   4.809   5.667   2.828  0.2139  0.2759  0.5912
   64CHL1   H1A 5887   4.784   5.770   2.861  1.6300  1.0352 -0.5890
   64CHL1   H1B 5888   4.919   5.653   2.840  0.0642  0.7266  2.9636
   64CHL1    C2 5889   4.770   5.654   2.682 -0.3723  0.2471  0.9793
   64CHL1   H2A 5890   4.826   5.719   2.611 -3.2832  0.4000 -1.4091
   64CHL1   H2B 5891   4.667   5.687   2.657  1.0660  2.5462 -2.9604
   64CHL1   C20 5892   4.847   5.730   3.619 -0.3985 -0.1843 -0.5432
   64CHL1   H20 5893   4.738   5.727   3.644 -0.8965  0.7466 -2.4533
   64CHL1   C21 5894   4.879   5.879   3.587  0.0257 -0.8267 -0.7336
   64CHL1  H21A 5895   4.800   5.932   3.645  0.0638 -1.4932 -0.0612
   64CHL1  H21B 5896   4.883   5.897   3.478 -0.0908  0.7902 -0.5060
   64CHL1  H21C 5897   4.981   5.910   3.620 -0.5095  0.3562 -0.1205
   64CHL1   C22 5898   4.925   5.684   3.742 -0.2536  0.2948 -0.6439
   64CHL1  H22A 5899   4.929   5.577   3.769 -1.8541  0.4489  0.3457
   64CHL1  H22B 5900   5.033   5.708   3.728  0.4478 -0.6841  2.4263
   64CHL1   C23 5901   4.883   5.769   3.860 -0.9878 -0.2486  0.2802
   64CHL1  H23A 5902   4.908   5.873   3.830 -2.3643  0.2033  0.6531
   64CHL1  H23B 5903   4.774   5.761   3.881 -1.0829  2.7317  1.3899
   64CHL1   C24 5904   4.984   5.745   3.980  0.1005 -0.4545  0.3161
   64CHL1  H24A 5905   4.991   5.637   4.004  1.5378 -0.6587 -0.9220
   64CHL1  H24B 5906   5.085   5.782   3.953  0.1979 -0.4238  0.7180
   64CHL1   C25 5907   4.939   5.824   4.110  0.4385  0.5604 -0.0012
   64CHL1   H25 5908   4.844   5.774   4.139  0.7830 -0.8604 -1.1781
   64CHL1   C26 5909   5.031   5.796   4.232  0.9249  0.2701  0.7838
   64CHL1  H26A 5910   5.132   5.832   4.201  2.3298 -3.4821  0.4349
   64CHL1  H26B 5911   5.003   5.857   4.320 -2.6583  0.4566 -0.3126
   64CHL1  H26C 5912   5.039   5.692   4.270  1.5998 -0.0914 -0.2835
   64CHL1   C27 5913   4.915   5.976   4.096  0.4850 -0.3363  0.0714
   64CHL1  H27A 5914   4.840   5.996   4.017  1.7947 -0.5791 -1.2730
   64CHL1  H27B 5915   4.876   6.014   4.193  3.5934 -0.5008  1.4723
   64CHL1  H27C 5916   5.006   6.037   4.081  0.8487 -1.4461 -3.0085
   65CHL1    C3 5917   2.174   1.132   2.719  0.3088  0.3011 -0.1383
   65CHL1    H3 5918   2.170   1.240   2.697 -1.0402  0.0802 -1.0829
   65CHL1    O3 5919   2.109   1.083   2.608  0.0092  0.8038 -0.2617
   65CHL1   H3' 5920   2.144   1.128   2.531 -4.2559  1.7027 -1.9639
   65CHL1    C4 5921   2.319   1.067   2.731  0.7979  0.0085 -0.2303
   65CHL1   H4A 5922   2.310   0.962   2.695 -0.2858 -0.5042  1.4117
   65CHL1   H4B 5923   2.367   1.123   2.648 -1.7116  0.5420 -1.4216
   65CHL1    C5 5924   2.387   1.074   2.862 -0.6944  0.3033 -0.3993
   65CHL1    C6 5925   2.515   1.110   2.870 -0.2960  0.5658  0.4598
   65CHL1    H6 5926   2.566   1.142   2.778 -2.1520  0.2186 -0.7628
   65CHL1    C7 5927   2.589   1.106   2.999  0.2978  0.0614 -0.1624
   65CHL1   H7A 5928   2.686   1.051   2.994 -0.3603 -1.2567  0.9367
   65CHL1   H7B 5929   2.623   1.210   3.020  0.2632 -0.1581  1.0627
   65CHL1    C8 5930   2.513   1.049   3.127 -1.0047 -0.0735  0.6783
   65CHL1    H8 5931   2.516   0.938   3.126  0.4159 -0.0509 -0.3306
   65CHL1   C14 5932   2.572   1.116   3.255  0.6596  0.1881  1.1501
   65CHL1   H14 5933   2.555   1.225   3.245  0.2156  0.3038  2.8298
   65CHL1   C15 5934   2.720   1.098   3.280  0.3159 -0.1724  0.4667
   65CHL1  H15A 5935   2.755   0.994   3.261  0.0088  0.1385 -2.2165
   65CHL1  H15B 5936   2.786   1.165   3.221 -2.5159 -1.3571 -4.6922
   65CHL1   C16 5937   2.742   1.127   3.430  0.0595  0.1304 -0.3044
   65CHL1  H16A 5938   2.799   1.044   3.477 -1.4850 -1.4802 -1.1617
   65CHL1  H16B 5939   2.798   1.222   3.446 -0.5860  0.5087 -0.2823
   65CHL1   C17 5940   2.596   1.141   3.493 -0.4980 -0.3518 -0.6009
   65CHL1   H17 5941   2.581   1.250   3.485  0.8888 -0.0840  0.1281
   65CHL1   C13 5942   2.503   1.076   3.387  0.1496 -0.6810  0.4363
   65CHL1   C18 5943   2.499   0.924   3.413  0.1151  0.3666  0.0489
   65CHL1  H18A 5944   2.601   0.885   3.431  0.3779  0.4860 -1.1005
   65CHL1  H18B 5945   2.433   0.894   3.497 -1.4282  2.0696 -0.4662
   65CHL1  H18C 5946   2.470   0.873   3.319  2.0663  0.0683 -0.4299
   65CHL1   C12 5947   2.356   1.118   3.368 -0.7279  0.1706 -0.0007
   65CHL1  H12A 5948   2.300   1.078   3.456 -0.5014 -0.6740 -0.2351
   65CHL1  H12B 5949   2.375   1.228   3.373  1.7014 -0.0319 -2.2522
   65CHL1   C11 5950   2.280   1.083   3.238 -0.3301  0.1142  0.0031
   65CHL1  H11A 5951   2.242   0.979   3.246 -1.4443  0.2786 -2.3992
   65CHL1  H11B 5952   2.188   1.144   3.225 -0.9305 -0.7562  0.0808
   65CHL1    C9 5953   2.368   1.098   3.117  0.1583  0.5731 -0.2938
   65CHL1    H9 5954   2.375   1.208   3.104  0.3031  0.3421 -2.5647
   65CHL1   C10 5955   2.298   1.041   2.986 -0.2441 -0.6156  0.5232
   65CHL1   C19 5956   2.280   0.888   2.991  0.5795 -0.0068  0.3427
   65CHL1  H19A 5957   2.242   0.850   2.893  1.1187  0.6526 -0.1344
   65CHL1  H19B 5958   2.374   0.831   3.012  0.7508  0.6311  1.3596
   65CHL1  H19C 5959   2.204   0.866   3.068  1.3010 -0.4407  0.9557
   65CHL1    C1 5960   2.164   1.114   2.970 -0.3121  0.2897  0.2266
   65CHL1   H1A 5961   2.095   1.070   3.044 -2.0239  0.1690 -1.3624
   65CHL1   H1B 5962   2.173   1.222   2.994 -0.1483  0.4283 -0.4411
   65CHL1    C2 5963   2.088   1.094   2.838 -0.3428 -1.1836  0.2024
   65CHL1   H2A 5964   1.994   1.154   2.845 -0.1965 -1.0589  1.2584
   65CHL1   H2B 5965   2.058   0.986   2.839  0.4285 -1.4077  1.4421
   65CHL1   C20 5966   2.577   1.095   3.636  0.2176 -0.0233 -0.3272
   65CHL1   H20 5967   2.594   0.986   3.637  0.4537  0.0124  0.6460
   65CHL1   C21 5968   2.436   1.139   3.688  0.2178 -0.0998  0.2390
   65CHL1  H21A 5969   2.403   1.213   3.612 -1.7366 -0.4249  0.7047
   65CHL1  H21B 5970   2.440   1.177   3.793  0.2114 -1.9776  0.9583
   65CHL1  H21C 5971   2.366   1.053   3.679 -1.2507  1.0383  0.4173
   65CHL1   C22 5972   2.681   1.163   3.737 -0.1540  0.4494  0.8282
   65CHL1  H22A 5973   2.781   1.160   3.690  1.1896 -0.7035  3.5583
   65CHL1  H22B 5974   2.653   1.270   3.744  0.5551  0.9934 -2.6299
   65CHL1   C23 5975   2.695   1.082   3.872 -0.5364  0.6363  0.3716
   65CHL1  H23A 5976   2.594   1.076   3.919 -0.5691 -1.3593  0.1032
   65CHL1  H23B 5977   2.710   0.973   3.857 -1.6803  0.7349 -1.9337
   65CHL1   C24 5978   2.812   1.136   3.951 -1.2153  0.5210 -0.1547
   65CHL1  H24A 5979   2.815   1.074   4.043  1.9661 -1.4316 -1.4030
   65CHL1  H24B 5980   2.899   1.108   3.888 -1.7501  0.8149 -1.0378
   65CHL1   C25 5981   2.807   1.280   3.998 -0.2756  0.1909  0.3405
   65CHL1   H25 5982   2.842   1.350   3.920 -0.1179  0.1144  0.3425
   65CHL1   C26 5983   2.664   1.337   4.036  0.0358 -0.1548  0.8721
   65CHL1  H26A 5984   2.658   1.446   4.017  0.0675  0.1503  2.4462
   65CHL1  H26B 5985   2.587   1.288   3.973 -1.0103  1.6236  0.7066
   65CHL1  H26C 5986   2.627   1.308   4.137 -2.2469 -1.4149 -0.2419
   65CHL1   C27 5987   2.914   1.306   4.112 -0.3875 -0.7358  0.4069
   65CHL1  H27A 5988   3.019   1.278   4.086  0.6322  1.3774  1.9903
   65CHL1  H27B 5989   2.906   1.413   4.137 -0.9339 -1.2114  2.4292
   65CHL1  H27C 5990   2.875   1.251   4.200 -0.2410 -0.7606  0.4561
   66CHL1    C3 5991   6.741   2.181   2.933 -0.7753 -0.0711 -0.1141
   66CHL1    H3 5992   6.842   2.164   2.976 -1.3640  1.7114  2.1413
   66CHL1    O3 5993   6.749   2.159   2.793  0.6207  0.3591 -0.0444
   66CHL1   H3' 5994   6.662   2.156   2.753  1.9837 -0.2961 -3.3812
   66CHL1    C4 5995   6.640   2.078   2.988 -0.1666  0.4868  0.0547
   66CHL1   H4A 5996   6.545   2.106   2.937  1.6966  3.8139 -1.9761
   66CHL1   H4B 5997   6.661   1.972   2.959 -0.2830  1.0403 -2.2330
   66CHL1    C5 5998   6.635   2.079   3.136 -0.7147  0.1941 -0.1884
   66CHL1    C6 5999   6.672   1.970   3.207 -0.5543 -0.4715  0.8207
   66CHL1    H6 6000   6.698   1.875   3.157  4.1616  0.9781  0.0410
   66CHL1    C7 6001   6.669   1.974   3.354  0.0351  0.2164  0.9798
   66CHL1   H7A 6002   6.616   1.888   3.400  2.5059 -1.1219  1.5467
   66CHL1   H7B 6003   6.772   1.976   3.398 -0.3201 -1.4823  2.0077
   66CHL1    C8 6004   6.592   2.090   3.413  0.0837 -0.6009  0.0206
   66CHL1    H8 6005   6.482   2.074   3.405 -0.2440  1.1726  0.5054
   66CHL1   C14 6006   6.622   2.104   3.562  0.6275  0.4021  0.0620
   66CHL1   H14 6007   6.728   2.137   3.566  0.3682  1.2553  0.1769
   66CHL1   C15 6008   6.613   1.973   3.648  0.4119 -0.2475 -0.8012
   66CHL1  H15A 6009   6.514   1.925   3.633  0.4642 -0.4416 -0.5269
   66CHL1  H15B 6010   6.687   1.893   3.630  1.6412  0.0190  2.3747
   66CHL1   C16 6011   6.623   2.033   3.789  0.5967 -0.1122 -0.0938
   66CHL1  H16A 6012   6.541   2.011   3.861 -0.2199 -1.4786 -1.3935
   66CHL1  H16B 6013   6.717   1.997   3.837 -1.6497 -3.2108  2.4325
   66CHL1   C17 6014   6.624   2.193   3.782  0.0810 -0.9736  0.3518
   66CHL1   H17 6015   6.723   2.243   3.783 -0.9264  1.2436 -1.2734
   66CHL1   C13 6016   6.554   2.213   3.645 -0.0106  0.2330  0.5872
   66CHL1   C18 6017   6.405   2.188   3.662 -0.2032 -0.4624 -0.0688
   66CHL1  H18A 6018   6.365   2.164   3.561 -1.3474  0.2614  0.1964
   66CHL1  H18B 6019   6.386   2.109   3.738 -5.2537  1.2579  0.8587
   66CHL1  H18C 6020   6.359   2.282   3.700  2.6910  1.2601 -0.4857
   66CHL1   C12 6021   6.589   2.344   3.568  0.1084  0.4050  0.0856
   66CHL1  H12A 6022   6.549   2.429   3.628 -0.2279  0.5678 -0.3633
   66CHL1  H12B 6023   6.699   2.357   3.569  0.6964 -2.7365 -3.6106
   66CHL1   C11 6024   6.553   2.337   3.418  0.0285 -0.0056 -0.3560
   66CHL1  H11A 6025   6.443   2.321   3.410 -0.0730  1.1196 -1.6321
   66CHL1  H11B 6026   6.579   2.436   3.374  1.6498 -0.1724  0.1825
   66CHL1    C9 6027   6.625   2.223   3.350  0.1106 -1.0120 -0.3755
   66CHL1    H9 6028   6.735   2.236   3.364  0.3363 -0.7998 -2.0685
   66CHL1   C10 6029   6.599   2.217   3.198 -0.6725  0.1252 -0.1850
   66CHL1   C19 6030   6.450   2.240   3.166 -0.2287  0.1086  0.0533
   66CHL1  H19A 6031   6.384   2.180   3.231 -0.2149  0.5016  0.4369
   66CHL1  H19B 6032   6.436   2.350   3.170  2.1187  0.6616 -2.9603
   66CHL1  H19C 6033   6.429   2.217   3.059  1.7055 -0.1854 -0.2946
   66CHL1    C1 6034   6.687   2.324   3.124  0.8345  0.5341  0.9383
   66CHL1   H1A 6035   6.639   2.421   3.149  0.7519  0.4160  1.2558
   66CHL1   H1B 6036   6.785   2.329   3.177  1.8193  0.4014 -0.8078
   66CHL1    C2 6037   6.703   2.323   2.965  0.5831  0.0097 -0.9875
   66CHL1   H2A 6038   6.786   2.387   2.926  2.1946 -1.7513 -0.6331
   66CHL1   H2B 6039   6.603   2.356   2.931  0.5378  0.0179 -0.8452
   66CHL1   C20 6040   6.560   2.262   3.902  0.5568  0.4261  0.0492
   66CHL1   H20 6041   6.453   2.233   3.903  0.2779  1.4138  0.1902
   66CHL1   C21 6042   6.580   2.417   3.889 -0.2101  0.1841 -0.0291
   66CHL1  H21A 6043   6.520   2.459   3.806 -2.0217 -0.9534  0.6419
   66CHL1  H21B 6044   6.687   2.435   3.867  0.3377 -2.5104  0.0418
   66CHL1  H21C 6045   6.536   2.465   3.978  0.5328  1.3939 -0.2942
   66CHL1   C22 6046   6.612   2.221   4.043 -0.0630  0.4631  0.2481
   66CHL1  H22A 6047   6.597   2.112   4.057  2.0203 -0.0786 -1.1991
   66CHL1  H22B 6048   6.723   2.231   4.042 -0.0170  0.7349 -3.2363
   66CHL1   C23 6049   6.547   2.294   4.167 -0.1971  0.6924 -0.0507
   66CHL1  H23A 6050   6.589   2.249   4.259 -0.1582 -0.7145 -0.7167
   66CHL1  H23B 6051   6.585   2.398   4.171  4.3669 -0.6793 -0.9839
   66CHL1   C24 6052   6.395   2.272   4.173  0.3689  0.3143  0.3886
   66CHL1  H24A 6053   6.340   2.320   4.089  1.2109  1.3117  0.4005
   66CHL1  H24B 6054   6.374   2.164   4.159 -0.3568  0.5118 -0.1118
   66CHL1   C25 6055   6.325   2.328   4.299  0.1980  0.0871 -0.0244
   66CHL1   H25 6056   6.224   2.284   4.284  0.6844 -1.0958  0.0805
   66CHL1   C26 6057   6.380   2.286   4.436  0.3361 -0.2916 -0.6331
   66CHL1  H26A 6058   6.378   2.176   4.448 -0.7644 -0.0948  1.3794
   66CHL1  H26B 6059   6.483   2.326   4.451 -0.4950  1.0883  2.1677
   66CHL1  H26C 6060   6.314   2.328   4.514  0.5863 -1.3190  0.1445
   66CHL1   C27 6061   6.311   2.482   4.303 -0.3859  1.0463 -0.4253
   66CHL1  H27A 6062   6.410   2.531   4.308 -0.2511  1.0684 -2.4886
   66CHL1  H27B 6063   6.254   2.504   4.396 -0.9923 -1.8414 -0.0257
   66CHL1  H27C 6064   6.257   2.524   4.215 -1.9688 -1.2732 -0.6486
   67CHL1    C3 6065   0.977   6.514   2.932  0.2921  0.2151 -0.5610
   67CHL1    H3 6066   1.018   6.416   2.966  0.8546  1.0338  1.2582
   67CHL1    O3 6067   0.988   6.527   2.792 -0.2986  0.4001  0.3100
   67CHL1   H3' 6068   1.079   6.515   2.763 -0.6610  0.1862 -0.7797
   67CHL1    C4 6069   0.830   6.520   2.977  0.9417  0.0995 -0.7987
   67CHL1   H4A 6070   0.781   6.612   2.938 -0.6853 -0.8051 -0.9801
   67CHL1   H4B 6071   0.783   6.431   2.931  1.9500 -0.3437 -0.9948
   67CHL1    C5 6072   0.807   6.516   3.132  0.2053 -0.4558  0.2648
   67CHL1    C6 6073   0.749   6.408   3.194 -0.0758 -0.1849 -0.5062
   67CHL1    H6 6074   0.698   6.331   3.134 -0.6843 -1.1396  1.1702
   67CHL1    C7 6075   0.732   6.401   3.343  0.5561 -0.0041  0.5993
   67CHL1   H7A 6076   0.627   6.376   3.368 -0.2899  0.3387 -2.2621
   67CHL1   H7B 6077   0.802   6.327   3.387  0.7485  0.5263  1.2002
   67CHL1    C8 6078   0.755   6.536   3.405  0.4066 -0.3306 -0.6098
   67CHL1    H8 6079   0.661   6.593   3.389  0.1692  0.6369  3.2659
   67CHL1   C14 6080   0.771   6.506   3.562 -0.2643  0.4618 -0.0124
   67CHL1   H14 6081   0.857   6.438   3.579 -1.4855 -1.5923 -1.6224
   67CHL1   C15 6082   0.657   6.427   3.635 -0.5985  0.0178  0.9231
   67CHL1  H15A 6083   0.565   6.483   3.607 -0.7137  0.1695  1.5689
   67CHL1  H15B 6084   0.657   6.318   3.618 -0.0714 -0.0809  1.5310
   67CHL1   C16 6085   0.696   6.451   3.782 -0.0105  0.4485 -0.1488
   67CHL1  H16A 6086   0.608   6.464   3.848  0.2033 -3.1644  1.0586
   67CHL1  H16B 6087   0.745   6.357   3.816 -0.7962  0.2763  0.5524
   67CHL1   C17 6088   0.805   6.560   3.789 -0.3616  0.3842 -0.3641
   67CHL1   H17 6089   0.906   6.516   3.799 -0.1016  1.3208  1.8392
   67CHL1   C13 6090   0.795   6.627   3.651 -0.0404 -0.1772 -0.2944
   67CHL1   C18 6091   0.673   6.732   3.652 -0.2872  0.7748 -0.2416
   67CHL1  H18A 6092   0.704   6.825   3.703 -0.6467  0.2168  1.0518
   67CHL1  H18B 6093   0.641   6.753   3.548 -1.9358 -0.2184  0.0335
   67CHL1  H18C 6094   0.588   6.686   3.708 -0.1084 -0.2989 -0.8181
   67CHL1   C12 6095   0.927   6.681   3.590  0.3742 -0.4592 -0.3853
   67CHL1  H12A 6096   0.959   6.777   3.636  1.9124 -1.3573  0.4928
   67CHL1  H12B 6097   1.002   6.600   3.598  0.1604 -0.7727 -1.3802
   67CHL1   C11 6098   0.903   6.739   3.442 -0.7415 -1.0447 -0.0786
   67CHL1  H11A 6099   0.818   6.811   3.444  1.0226  1.1819  1.7894
   67CHL1  H11B 6100   0.993   6.786   3.397 -0.8431  0.7169  1.4257
   67CHL1    C9 6101   0.884   6.609   3.360  0.0577 -0.2244  0.0200
   67CHL1    H9 6102   0.971   6.543   3.378 -0.5650 -1.3535 -0.9481
   67CHL1   C10 6103   0.884   6.629   3.206  0.6856  0.6408 -0.3587
   67CHL1   C19 6104   0.808   6.757   3.171 -0.1468  0.6035 -0.2604
   67CHL1  H19A 6105   0.849   6.848   3.220  0.9683  0.9560 -1.7772
   67CHL1  H19B 6106   0.812   6.781   3.063  0.8757 -0.9076 -0.5898
   67CHL1  H19C 6107   0.700   6.751   3.194 -0.3342  1.1321 -0.9792
   67CHL1    C1 6108   1.031   6.637   3.149  0.7949  0.0143 -0.1108
   67CHL1   H1A 6109   1.064   6.736   3.187 -3.3029  0.9232  1.6208
   67CHL1   H1B 6110   1.086   6.555   3.200  1.3001  0.7143  0.4843
   67CHL1    C2 6111   1.054   6.634   2.996 -0.0037  0.5332  0.1667
   67CHL1   H2A 6112   1.162   6.638   2.969 -0.3898 -2.1319 -2.3734
   67CHL1   H2B 6113   0.999   6.727   2.974 -2.3747 -0.6824  0.6390
   67CHL1   C20 6114   0.791   6.648   3.923 -0.1391  0.0659 -0.1842
   67CHL1   H20 6115   0.685   6.682   3.925  0.0998  0.8200  1.4409
   67CHL1   C21 6116   0.886   6.775   3.904  0.4236 -0.0222  0.9591
   67CHL1  H21A 6117   0.910   6.823   4.002 -0.1515  0.0220  1.0816
   67CHL1  H21B 6118   0.835   6.847   3.837  1.4927 -0.7179 -0.6358
   67CHL1  H21C 6119   0.984   6.748   3.860  0.0234 -1.3152  0.8141
   67CHL1   C22 6120   0.814   6.575   4.050 -0.3002  0.2085 -0.1760
   67CHL1  H22A 6121   0.788   6.467   4.050 -1.2044  0.4108  0.4609
   67CHL1  H22B 6122   0.925   6.578   4.062 -0.1482  1.0500 -1.5987
   67CHL1   C23 6123   0.752   6.661   4.165 -0.5955  0.7241  0.1469
   67CHL1  H23A 6124   0.796   6.763   4.155  0.1302  0.2869 -1.4695
   67CHL1  H23B 6125   0.643   6.667   4.149 -0.5448  2.7535  0.3718
   67CHL1   C24 6126   0.776   6.596   4.297 -0.0257  0.6529  0.2175
   67CHL1  H24A 6127   0.755   6.487   4.305  2.1700  0.2349  1.1928
   67CHL1  H24B 6128   0.886   6.588   4.307 -0.1506 -0.8134  0.6144
   67CHL1   C25 6129   0.712   6.673   4.416  0.8718 -0.0567 -0.0995
   67CHL1   H25 6130   0.602   6.678   4.400  0.9770 -0.8488 -1.1187
   67CHL1   C26 6131   0.738   6.607   4.543 -0.3884 -0.2580 -0.1157
   67CHL1  H26A 6132   0.709   6.672   4.628 -0.6958  1.4504 -1.4650
   67CHL1  H26B 6133   0.670   6.519   4.543 -0.5110 -0.1693 -0.9209
   67CHL1  H26C 6134   0.846   6.587   4.560  0.1077  2.5104  0.4009
   67CHL1   C27 6135   0.776   6.808   4.426  0.1105  0.4136  0.0533
   67CHL1  H27A 6136   0.749   6.872   4.340  0.5285  1.8810  0.9777
   67CHL1  H27B 6137   0.731   6.862   4.512 -1.3836  1.5815 -1.3935
   67CHL1  H27C 6138   0.887   6.808   4.428  0.1059  0.2541  0.4137
   68CHL1    C3 6139   2.902   5.798   2.683  0.3214  0.8272 -0.2042
   68CHL1    H3 6140   2.947   5.899   2.691 -1.9998  2.0645 -1.4975
   68CHL1    O3 6141   2.855   5.776   2.550 -0.2832 -0.8805  0.2216
   68CHL1   H3' 6142   2.827   5.684   2.542  1.8305 -2.1500  4.4623
   68CHL1    C4 6143   2.997   5.677   2.721  0.3348 -0.6183 -0.0510
   68CHL1   H4A 6144   2.943   5.584   2.694  0.4572 -0.0875 -2.3645
   68CHL1   H4B 6145   3.090   5.685   2.660  1.0781  0.4687  1.1757
   68CHL1    C5 6146   3.030   5.672   2.866  0.1289 -0.2068 -0.0938
   68CHL1    C6 6147   3.160   5.667   2.905 -0.3862 -0.3977  0.7200
   68CHL1    H6 6148   3.239   5.651   2.831  1.0153  0.6069  1.9390
   68CHL1    C7 6149   3.200   5.676   3.043 -0.0999  0.1283 -0.4098
   68CHL1   H7A 6150   3.279   5.600   3.059  0.4591  0.7849  0.0366
   68CHL1   H7B 6151   3.220   5.781   3.075 -0.5756  0.0821  0.0637
   68CHL1    C8 6152   3.091   5.635   3.150  0.3556 -0.1184  0.5662
   68CHL1    H8 6153   3.072   5.526   3.141  1.0718 -0.3210  1.3808
   68CHL1   C14 6154   3.132   5.661   3.300  0.0021 -0.1072 -0.0432
   68CHL1   H14 6155   3.147   5.771   3.299 -1.8710  0.2457 -3.3700
   68CHL1   C15 6156   3.265   5.616   3.363 -0.1000 -0.6095  0.3365
   68CHL1  H15A 6157   3.291   5.510   3.343  1.7918  0.1900 -1.9472
   68CHL1  H15B 6158   3.353   5.676   3.333 -0.7290  1.1699  1.8950
   68CHL1   C16 6159   3.243   5.634   3.510 -0.2763  0.3287  0.7809
   68CHL1  H16A 6160   3.247   5.529   3.547  0.8529  0.5637  1.3798
   68CHL1  H16B 6161   3.318   5.681   3.578  1.1312 -2.4548  1.3056
   68CHL1   C17 6162   3.098   5.683   3.528  0.2122  0.6724  0.3369
   68CHL1   H17 6163   3.109   5.792   3.512 -0.3906  0.6139 -0.5907
   68CHL1   C13 6164   3.018   5.637   3.407 -0.0504 -0.0419  0.5990
   68CHL1   C18 6165   2.986   5.483   3.412 -0.1062 -0.1068  0.0992
   68CHL1  H18A 6166   2.966   5.437   3.312  0.1864 -0.4642  0.2023
   68CHL1  H18B 6167   3.071   5.429   3.460 -0.3973 -0.2226  0.4886
   68CHL1  H18C 6168   2.890   5.466   3.464  0.2148 -0.6421  0.5258
   68CHL1   C12 6169   2.897   5.719   3.368  0.8947 -0.2277  0.1891
   68CHL1  H12A 6170   2.806   5.712   3.432 -0.2881  2.3722 -1.0375
   68CHL1  H12B 6171   2.937   5.822   3.381 -2.9028  1.4934 -0.3701
   68CHL1   C11 6172   2.854   5.676   3.226  0.7205 -0.0126  0.5227
   68CHL1  H11A 6173   2.817   5.571   3.226 -2.9251  1.1321  1.3343
   68CHL1  H11B 6174   2.760   5.732   3.204  0.1366 -1.7802 -1.9306
   68CHL1    C9 6175   2.961   5.707   3.117  0.0102 -0.7479  0.5155
   68CHL1    H9 6176   2.974   5.816   3.126 -1.9830 -0.4620  0.4146
   68CHL1   C10 6177   2.914   5.679   2.968 -0.1603  0.3304 -0.3333
   68CHL1   C19 6178   2.842   5.545   2.953  0.0811  0.3370  0.2778
   68CHL1  H19A 6179   2.750   5.546   3.016 -1.1304 -0.9895 -1.3860
   68CHL1  H19B 6180   2.815   5.524   2.848  1.0344  0.5892 -0.0309
   68CHL1  H19C 6181   2.903   5.459   2.989 -1.4717 -1.8753 -2.0357
   68CHL1    C1 6182   2.808   5.782   2.922 -0.0948  0.3793  0.4813
   68CHL1   H1A 6183   2.709   5.776   2.974 -1.2271 -2.6454 -1.7385
   68CHL1   H1B 6184   2.848   5.884   2.937 -1.7214  1.1455 -0.1843
   68CHL1    C2 6185   2.772   5.777   2.771 -0.5711 -0.1652  0.0951
   68CHL1   H2A 6186   2.712   5.866   2.740 -0.6204 -1.0823 -2.7245
   68CHL1   H2B 6187   2.720   5.682   2.748  0.5638 -1.1526  1.4284
   68CHL1   C20 6188   3.029   5.659   3.668 -0.4475 -0.2116 -0.8264
   68CHL1   H20 6189   2.922   5.687   3.668 -0.4044 -0.0369 -1.1096
   68CHL1   C21 6190   3.084   5.773   3.753 -0.3020  0.3297 -0.3370
   68CHL1  H21A 6191   3.056   5.869   3.705 -1.5429  0.6665  0.9697
   68CHL1  H21B 6192   3.193   5.756   3.768 -0.3108  2.3218  3.0354
   68CHL1  H21C 6193   3.031   5.775   3.851  1.1289 -0.6005  0.5011
   68CHL1   C22 6194   3.056   5.522   3.735 -0.7339  0.6933 -0.0285
   68CHL1  H22A 6195   3.039   5.428   3.678 -0.4068 -0.1542  1.2361
   68CHL1  H22B 6196   3.166   5.527   3.754 -1.0552  0.2351  2.2683
   68CHL1   C23 6197   3.008   5.498   3.879 -1.3169 -0.5629  0.6331
   68CHL1  H23A 6198   3.017   5.583   3.950  1.2858  1.6124 -2.0173
   68CHL1  H23B 6199   2.902   5.469   3.871 -1.4054 -0.1366  0.2128
   68CHL1   C24 6200   3.077   5.374   3.938  0.5285  0.3274 -0.2095
   68CHL1  H24A 6201   3.056   5.284   3.876 -1.9092 -0.6238  1.8239
   68CHL1  H24B 6202   3.184   5.403   3.927  0.2115  1.3983 -0.6267
   68CHL1   C25 6203   3.049   5.336   4.085 -0.2474  0.5711 -0.0884
   68CHL1   H25 6204   3.110   5.244   4.092  0.3785  0.9953  0.1120
   68CHL1   C26 6205   3.122   5.426   4.183 -0.4731 -0.7348 -0.1767
   68CHL1  H26A 6206   3.233   5.417   4.172 -0.1536 -1.4849  2.7929
   68CHL1  H26B 6207   3.098   5.534   4.169 -1.0202 -1.0240 -1.7017
   68CHL1  H26C 6208   3.101   5.391   4.286 -0.6199 -0.0751  0.0229
   68CHL1   C27 6209   2.900   5.309   4.113 -0.1247  0.3458 -0.3591
   68CHL1  H27A 6210   2.883   5.261   4.212 -0.0581 -1.2910 -1.0995
   68CHL1  H27B 6211   2.843   5.403   4.102  2.2781  1.9135 -0.0465
   68CHL1  H27C 6212   2.863   5.229   4.045  0.5669 -1.6797  1.5286
   69CHL1    C3 6213   1.653   5.726   2.848  0.5657  0.0620  0.1618
   69CHL1    H3 6214   1.636   5.620   2.822  1.7196 -0.2308  0.5550
   69CHL1    O3 6215   1.670   5.811   2.739  0.6309  0.5464  0.1422
   69CHL1   H3' 6216   1.732   5.766   2.681 -0.7572 -1.0065 -0.1980
   69CHL1    C4 6217   1.526   5.766   2.930 -0.0197  0.4053 -0.3242
   69CHL1   H4A 6218   1.532   5.869   2.969 -0.3204 -0.7205  3.0162
   69CHL1   H4B 6219   1.435   5.764   2.867  0.4223  0.0614 -0.9665
   69CHL1    C5 6220   1.523   5.690   3.058 -0.5799  0.7191  0.6469
   69CHL1    C6 6221   1.411   5.620   3.090  0.4130 -0.0865 -0.5835
   69CHL1    H6 6222   1.319   5.631   3.030 -0.0383 -0.4947  0.0273
   69CHL1    C7 6223   1.392   5.550   3.220  0.0753 -0.0187  0.2421
   69CHL1   H7A 6224   1.297   5.585   3.266 -0.3160  1.4847 -1.6011
   69CHL1   H7B 6225   1.384   5.440   3.209  0.8262 -0.1416  0.8469
   69CHL1    C8 6226   1.501   5.587   3.319  0.0265 -0.1307 -0.8243
   69CHL1    H8 6227   1.483   5.694   3.346  0.9623 -0.3276  0.6739
   69CHL1   C14 6228   1.482   5.512   3.448  0.3459  0.3093  0.5697
   69CHL1   H14 6229   1.502   5.414   3.400 -0.5399 -0.0453  0.8970
   69CHL1   C15 6230   1.351   5.504   3.519  0.7461  0.7521  0.0869
   69CHL1  H15A 6231   1.319   5.609   3.534  2.4405  1.1191  1.4519
   69CHL1  H15B 6232   1.273   5.449   3.462  0.8152 -1.1339  1.7031
   69CHL1   C16 6233   1.377   5.445   3.656  0.0570 -0.1951  0.2749
   69CHL1  H16A 6234   1.327   5.497   3.741 -1.6193 -2.0520  0.4956
   69CHL1  H16B 6235   1.342   5.339   3.658  1.3373 -0.6464  0.3722
   69CHL1   C17 6236   1.533   5.446   3.667  0.9735  0.0336 -0.2147
   69CHL1   H17 6237   1.579   5.347   3.645 -0.2449 -0.5167 -0.3476
   69CHL1   C13 6238   1.590   5.541   3.551  0.4465  0.4306 -0.6857
   69CHL1   C18 6239   1.579   5.688   3.601  0.5316 -0.2434  0.3705
   69CHL1  H18A 6240   1.474   5.716   3.623 -0.5709 -2.6874 -1.2307
   69CHL1  H18B 6241   1.640   5.704   3.692  1.1994 -1.1170  0.0906
   69CHL1  H18C 6242   1.602   5.757   3.517  0.2311 -0.5881  0.0008
   69CHL1   C12 6243   1.725   5.498   3.492 -0.6864 -0.0563  0.5983
   69CHL1  H12A 6244   1.806   5.510   3.567 -0.6978  0.7746  0.4931
   69CHL1  H12B 6245   1.724   5.388   3.474 -0.4946 -0.0647  0.6346
   69CHL1   C11 6246   1.759   5.579   3.364  0.5137 -0.3808  0.9942
   69CHL1  H11A 6247   1.777   5.684   3.396 -1.3709  0.3327 -0.0774
   69CHL1  H11B 6248   1.849   5.545   3.309 -0.5236 -2.8645  0.7272
   69CHL1    C9 6249   1.637   5.578   3.262 -0.0314  0.2730  0.5544
   69CHL1    H9 6250   1.637   5.478   3.213 -1.3678  0.8375 -0.6547
   69CHL1   C10 6251   1.654   5.684   3.148  0.9486 -0.1203  0.4186
   69CHL1   C19 6252   1.682   5.827   3.198  0.7226  0.5313 -0.0358
   69CHL1  H19A 6253   1.673   5.901   3.116 -0.5508  2.2768  1.6002
   69CHL1  H19B 6254   1.586   5.843   3.251 -0.4056  0.9465 -2.0966
   69CHL1  H19C 6255   1.772   5.837   3.263 -0.7051  2.3788  1.8024
   69CHL1    C1 6256   1.771   5.640   3.053  0.4438 -0.0353  0.4123
   69CHL1   H1A 6257   1.868   5.644   3.107 -0.7569  0.1220  2.6832
   69CHL1   H1B 6258   1.763   5.535   3.018  0.2652  0.4336 -0.9899
   69CHL1    C2 6259   1.785   5.725   2.929  0.2817 -0.6705  0.0177
   69CHL1   H2A 6260   1.866   5.694   2.859  1.0935 -0.2652  0.7529
   69CHL1   H2B 6261   1.811   5.829   2.959 -3.0854 -0.1839  1.7908
   69CHL1   C20 6262   1.580   5.472   3.809  0.2482 -0.6582  0.0724
   69CHL1   H20 6263   1.550   5.576   3.833  1.6092 -0.0796 -0.6656
   69CHL1   C21 6264   1.740   5.473   3.814  1.2363 -0.1171 -0.0004
   69CHL1  H21A 6265   1.777   5.556   3.751 -0.7234 -0.5208 -1.7968
   69CHL1  H21B 6266   1.796   5.385   3.777  1.1596 -0.7507  1.3408
   69CHL1  H21C 6267   1.769   5.498   3.919  2.4770  0.2499 -0.4171
   69CHL1   C22 6268   1.510   5.382   3.917 -0.0458 -0.9754  0.1949
   69CHL1  H22A 6269   1.399   5.379   3.916 -0.1909  1.6992 -0.8787
   69CHL1  H22B 6270   1.549   5.282   3.889 -0.4324 -1.2195  0.5122
   69CHL1   C23 6271   1.549   5.418   4.063 -0.4921 -0.3054  0.0462
   69CHL1  H23A 6272   1.656   5.393   4.084 -0.2802  0.9897  0.5900
   69CHL1  H23B 6273   1.536   5.528   4.061 -2.1177 -0.4993 -0.8881
   69CHL1   C24 6274   1.463   5.349   4.169  0.0853  0.7121 -0.7807
   69CHL1  H24A 6275   1.484   5.382   4.273  1.6643  0.1412 -0.8957
   69CHL1  H24B 6276   1.364   5.387   4.134 -0.6986  0.8799  1.4805
   69CHL1   C25 6277   1.468   5.193   4.178  0.3501 -0.6452  0.8161
   69CHL1   H25 6278   1.447   5.136   4.085  0.5400 -2.1746  1.6736
   69CHL1   C26 6279   1.610   5.142   4.228  0.2366 -0.2044  0.3950
   69CHL1  H26A 6280   1.654   5.196   4.315 -0.1806  2.7293 -1.1002
   69CHL1  H26B 6281   1.608   5.033   4.251  0.5945 -0.7924 -2.1089
   69CHL1  H26C 6282   1.684   5.155   4.146 -0.7462  1.4808 -0.2767
   69CHL1   C27 6283   1.346   5.138   4.253  0.6515 -0.1304 -0.1249
   69CHL1  H27A 6284   1.247   5.158   4.207  0.0686  0.9164  1.4933
   69CHL1  H27B 6285   1.360   5.031   4.278  1.0871  0.0907  0.6467
   69CHL1  H27C 6286   1.346   5.186   4.354  0.4075 -2.4678  1.0517
   70CHL1    C3 6287   3.804   6.711   2.583  0.0639 -0.0460  0.0957
   70CHL1    H3 6288   3.704   6.724   2.630 -0.2396  1.4106 -0.8757
   70CHL1    O3 6289   3.796   6.673   2.446  0.3873 -0.4125  0.7092
   70CHL1   H3' 6290   3.879   6.709   2.414  0.8301 -1.3664  0.7379
   70CHL1    C4 6291   3.879   6.846   2.605  0.7222  0.7814  0.4710
   70CHL1   H4A 6292   3.976   6.846   2.550  1.9896 -0.3245  2.5993
   70CHL1   H4B 6293   3.812   6.921   2.558 -0.3452 -0.0170  0.6860
   70CHL1    C5 6294   3.895   6.885   2.747  1.6394 -0.5907 -0.3730
   70CHL1    C6 6295   3.851   7.003   2.788 -0.0939  0.5273 -0.0016
   70CHL1    H6 6296   3.800   7.070   2.717 -0.4914 -0.0557 -0.2633
   70CHL1    C7 6297   3.872   7.061   2.924 -0.1628  0.1244 -0.5924
   70CHL1   H7A 6298   3.928   7.157   2.926 -1.4439  0.9137 -1.3286
   70CHL1   H7B 6299   3.775   7.080   2.975 -1.5251 -3.6347 -1.4830
   70CHL1    C8 6300   3.951   6.963   3.021 -0.6211 -0.1642 -0.5366
   70CHL1    H8 6301   4.059   6.984   3.006 -0.4900  2.1201  2.6269
   70CHL1   C14 6302   3.914   6.989   3.169  0.3650 -0.3593  0.0709
   70CHL1   H14 6303   3.809   6.951   3.170  0.8383 -1.7815 -0.7222
   70CHL1   C15 6304   3.903   7.133   3.232 -1.1393  0.0228 -0.6825
   70CHL1  H15A 6305   3.975   7.210   3.196 -1.6416  0.7379 -0.1975
   70CHL1  H15B 6306   3.803   7.179   3.216 -1.1774  0.4681  0.6836
   70CHL1   C16 6307   3.910   7.104   3.384 -0.0515 -0.3846 -0.3239
   70CHL1  H16A 6308   4.000   7.159   3.421  0.1306 -1.1442  0.3822
   70CHL1  H16B 6309   3.825   7.151   3.438  0.0781 -3.1081  2.5848
   70CHL1   C17 6310   3.934   6.951   3.405 -0.1079 -0.3354 -0.0370
   70CHL1   H17 6311   3.832   6.905   3.407 -0.3960  0.3184  0.7194
   70CHL1   C13 6312   3.994   6.901   3.269 -0.3476 -0.2215  0.8525
   70CHL1   C18 6313   4.147   6.917   3.263  0.1619  0.3431  0.5200
   70CHL1  H18A 6314   4.190   6.910   3.161 -1.2068  0.8602 -0.1184
   70CHL1  H18B 6315   4.169   7.024   3.281  1.5453  0.5417 -1.8751
   70CHL1  H18C 6316   4.210   6.849   3.324  2.6227  1.0091 -1.1461
   70CHL1   C12 6317   3.963   6.757   3.242  0.0440 -0.4594  0.1048
   70CHL1  H12A 6318   4.016   6.678   3.299 -1.8104 -2.3916 -0.6772
   70CHL1  H12B 6319   3.853   6.743   3.257  0.2733 -3.4940 -0.4903
   70CHL1   C11 6320   3.986   6.725   3.091  0.3594  0.3717 -0.7247
   70CHL1  H11A 6321   4.096   6.719   3.074  0.7519  1.6705  1.1045
   70CHL1  H11B 6322   3.951   6.620   3.077  0.9569 -0.2545  1.9390
   70CHL1    C9 6323   3.923   6.818   2.992  1.0546 -0.2164 -0.1376
   70CHL1    H9 6324   3.814   6.806   3.009  0.8336  1.5799 -0.0917
   70CHL1   C10 6325   3.947   6.771   2.843 -0.0876 -0.4119 -0.4262
   70CHL1   C19 6326   4.092   6.755   2.803  0.0931 -0.3365 -0.5114
   70CHL1  H19A 6327   4.144   6.850   2.831 -1.8165  0.7075 -0.2811
   70CHL1  H19B 6328   4.149   6.684   2.866 -2.3741 -0.5569  1.6630
   70CHL1  H19C 6329   4.113   6.720   2.700 -0.2686  0.1337 -0.7500
   70CHL1    C1 6330   3.884   6.631   2.823 -0.0407 -0.2977  0.0943
   70CHL1   H1A 6331   3.944   6.555   2.877 -0.7342 -0.1837  1.0758
   70CHL1   H1B 6332   3.787   6.639   2.877  2.1247 -0.2877  4.3925
   70CHL1    C2 6333   3.866   6.598   2.669 -0.4337  0.8325  0.0011
   70CHL1   H2A 6334   3.800   6.510   2.652 -0.3560  1.1656 -2.5264
   70CHL1   H2B 6335   3.962   6.569   2.621  0.5002 -0.1502  2.3538
   70CHL1   C20 6336   3.997   6.920   3.535 -0.2245  0.1599 -0.9906
   70CHL1   H20 6337   4.106   6.928   3.516 -0.1014  0.5920 -0.1597
   70CHL1   C21 6338   3.971   6.772   3.564 -0.5915  0.6361 -0.1061
   70CHL1  H21A 6339   3.871   6.741   3.526 -0.0471 -1.3254 -0.0254
   70CHL1  H21B 6340   3.985   6.748   3.671 -0.3769  2.1627  0.2387
   70CHL1  H21C 6341   4.042   6.703   3.515 -0.5999 -1.3001  2.3989
   70CHL1   C22 6342   3.969   7.003   3.663  0.0433 -0.3289 -1.0265
   70CHL1  H22A 6343   4.023   6.960   3.750 -0.0543  1.9892  0.2453
   70CHL1  H22B 6344   4.002   7.108   3.650  0.2571 -0.3309 -0.5194
   70CHL1   C23 6345   3.817   7.005   3.689 -0.5136  0.1818 -0.2921
   70CHL1  H23A 6346   3.772   7.032   3.591  2.6934  0.9154 -1.6926
   70CHL1  H23B 6347   3.780   6.902   3.710  2.0171 -0.4917  1.3296
   70CHL1   C24 6348   3.777   7.104   3.801  0.8060  0.6146  0.4758
   70CHL1  H24A 6349   3.789   7.208   3.762  0.3503  0.4057 -0.2409
   70CHL1  H24B 6350   3.669   7.079   3.813  0.3755  1.1017 -1.8535
   70CHL1   C25 6351   3.838   7.096   3.938 -0.9938 -0.2138  0.1253
   70CHL1   H25 6352   3.946   7.119   3.929 -1.2329  1.0533  0.3338
   70CHL1   C26 6353   3.788   7.208   4.028 -0.3912  0.2614  0.4749
   70CHL1  H26A 6354   3.840   7.203   4.126 -2.5434  0.0159  1.6688
   70CHL1  H26B 6355   3.805   7.301   3.969  2.5595 -1.2025 -1.2123
   70CHL1  H26C 6356   3.681   7.202   4.057 -1.1278  2.4569 -1.4998
   70CHL1   C27 6357   3.819   6.963   4.005  0.6585  0.2918 -0.0317
   70CHL1  H27A 6358   3.879   6.939   4.095 -0.5255 -0.4223  0.5886
   70CHL1  H27B 6359   3.711   6.948   4.028  1.1870 -0.3658  2.2659
   70CHL1  H27C 6360   3.842   6.880   3.935 -3.2873 -2.5092  1.6155
   71CHL1    C3 6361   2.181   0.479   2.700 -0.1122  0.0902  0.4244
   71CHL1    H3 6362   2.196   0.589   2.709 -1.7817  0.4330 -0.4815
   71CHL1    O3 6363   2.156   0.446   2.561 -0.8365 -0.4009 -0.1426
   71CHL1   H3' 6364   2.167   0.351   2.563 -1.9980 -0.5516  0.0482
   71CHL1    C4 6365   2.309   0.404   2.751  0.0775 -0.2580  0.2392
   71CHL1   H4A 6366   2.293   0.294   2.743  0.4521 -0.2192 -1.3413
   71CHL1   H4B 6367   2.389   0.438   2.682  0.4772  0.0768  0.8586
   71CHL1    C5 6368   2.335   0.439   2.903  0.0128 -0.4427  0.4735
   71CHL1    C6 6369   2.454   0.496   2.944 -0.0214 -0.2363  0.1385
   71CHL1    H6 6370   2.530   0.517   2.867 -2.5587  0.5808 -2.3318
   71CHL1    C7 6371   2.480   0.525   3.087  0.4625 -0.2752 -0.4461
   71CHL1   H7A 6372   2.572   0.475   3.124  1.5595  1.6435 -0.4618
   71CHL1   H7B 6373   2.494   0.631   3.114 -0.6665  0.4879 -2.6263
   71CHL1    C8 6374   2.371   0.470   3.190  0.2400  0.2652  0.7237
   71CHL1    H8 6375   2.389   0.360   3.198 -0.5831 -0.0869 -1.5350
   71CHL1   C14 6376   2.396   0.530   3.330  0.1060  0.4120 -0.6027
   71CHL1   H14 6377   2.380   0.636   3.303 -1.3966 -0.1760 -2.2475
   71CHL1   C15 6378   2.536   0.515   3.396  0.5650 -0.4089  0.3044
   71CHL1  H15A 6379   2.570   0.410   3.380 -0.2738 -0.4817 -1.1512
   71CHL1  H15B 6380   2.602   0.584   3.339 -0.2987 -0.7624 -1.1574
   71CHL1   C16 6381   2.511   0.539   3.538 -0.6474 -0.3113 -0.6959
   71CHL1  H16A 6382   2.530   0.446   3.595 -0.9018  0.3253  0.4713
   71CHL1  H16B 6383   2.572   0.619   3.585  0.7808 -1.7400 -0.0507
   71CHL1   C17 6384   2.360   0.572   3.551 -0.3273  0.4496 -0.1554
   71CHL1   H17 6385   2.349   0.681   3.534 -0.4647  1.0198  2.9134
   71CHL1   C13 6386   2.292   0.498   3.431 -0.1228 -0.7073 -0.0195
   71CHL1   C18 6387   2.285   0.350   3.457  0.4274 -0.1298  0.2999
   71CHL1  H18A 6388   2.379   0.311   3.502  0.6376  1.0339  0.8954
   71CHL1  H18B 6389   2.195   0.317   3.513  0.3958 -1.5021 -0.4983
   71CHL1  H18C 6390   2.267   0.294   3.362 -1.4014 -1.2090  1.2195
   71CHL1   C12 6391   2.159   0.546   3.373  0.1907  0.3672 -0.6511
   71CHL1  H12A 6392   2.078   0.521   3.445  0.3985  0.8615 -0.2369
   71CHL1  H12B 6393   2.163   0.657   3.371 -0.6379  0.4392  0.6273
   71CHL1   C11 6394   2.119   0.483   3.248  0.3209  0.2034  0.2902
   71CHL1  H11A 6395   2.101   0.374   3.263  1.8185 -0.1075 -0.0353
   71CHL1  H11B 6396   2.034   0.534   3.199 -0.0551  2.8223  3.3790
   71CHL1    C9 6397   2.233   0.497   3.136  0.7511 -0.2412 -0.1632
   71CHL1    H9 6398   2.226   0.603   3.104  1.7714  0.0655  0.5615
   71CHL1   C10 6399   2.215   0.418   3.004  0.4774 -0.4837 -0.2338
   71CHL1   C19 6400   2.216   0.268   3.036 -0.0353  1.2841  0.0980
   71CHL1  H19A 6401   2.129   0.237   3.099 -0.6574  0.1365 -1.2800
   71CHL1  H19B 6402   2.212   0.197   2.951  0.0171  1.6583 -0.2196
   71CHL1  H19C 6403   2.307   0.232   3.088 -0.3139 -2.1779 -1.5203
   71CHL1    C1 6404   2.082   0.467   2.937 -0.7147  1.0623 -0.1927
   71CHL1   H1A 6405   1.991   0.433   2.991  1.1684 -2.0139  1.2585
   71CHL1   H1B 6406   2.081   0.578   2.940  0.0399  1.0454  0.9390
   71CHL1    C2 6407   2.063   0.430   2.787  0.1466 -0.1330  0.0515
   71CHL1   H2A 6408   1.967   0.473   2.751  0.1496 -1.6068 -1.8700
   71CHL1   H2B 6409   2.050   0.320   2.784  1.6750 -0.3038 -2.1664
   71CHL1   C20 6410   2.309   0.547   3.697  0.0498 -0.3953  1.0240
   71CHL1   H20 6411   2.312   0.439   3.720  1.3269 -0.5942 -0.0090
   71CHL1   C21 6412   2.162   0.590   3.704  0.0025  0.0500  0.1439
   71CHL1  H21A 6413   2.133   0.688   3.660  1.2956  1.5933  2.5255
   71CHL1  H21B 6414   2.129   0.579   3.809  3.1276 -2.2801  1.0334
   71CHL1  H21C 6415   2.099   0.510   3.658 -0.8942  0.4289  0.7035
   71CHL1   C22 6416   2.391   0.622   3.816  0.4738  0.3229  0.4719
   71CHL1  H22A 6417   2.495   0.583   3.816  0.7778  0.7561  4.6877
   71CHL1  H22B 6418   2.416   0.725   3.783  0.3461 -0.3651 -2.0003
   71CHL1   C23 6419   2.336   0.628   3.963 -0.0491  0.2855  0.3195
   71CHL1  H23A 6420   2.242   0.687   3.968 -1.2957 -1.1303 -3.1384
   71CHL1  H23B 6421   2.312   0.525   3.997  0.4306 -0.0429 -0.3072
   71CHL1   C24 6422   2.436   0.688   4.061  0.0767 -0.1647  0.1852
   71CHL1  H24A 6423   2.538   0.653   4.032  0.7129  1.3107  0.6021
   71CHL1  H24B 6424   2.428   0.796   4.038 -2.7928 -0.2537  0.4625
   71CHL1   C25 6425   2.409   0.655   4.207  0.1783  0.4280 -0.4805
   71CHL1   H25 6426   2.480   0.708   4.274 -0.3774 -0.9712  1.2985
   71CHL1   C26 6427   2.267   0.699   4.243 -0.7960  0.2115  0.5372
   71CHL1  H26A 6428   2.202   0.641   4.175 -0.7300  0.3603  0.3451
   71CHL1  H26B 6429   2.236   0.672   4.347  1.9934 -0.4644  1.2822
   71CHL1  H26C 6430   2.269   0.807   4.216  1.1032 -0.3769 -1.9368
   71CHL1   C27 6431   2.426   0.507   4.240  0.1952 -0.8397  0.1491
   71CHL1  H27A 6432   2.531   0.476   4.217  1.2048  1.5865  1.1497
   71CHL1  H27B 6433   2.408   0.481   4.347  2.0318  2.5032  1.4395
   71CHL1  H27C 6434   2.349   0.449   4.185 -2.1773  0.6365  1.7793
   72CHL1    C3 6435   1.102   3.666   2.593  0.4809  0.2946  0.8974
   72CHL1    H3 6436   1.046   3.762   2.604  2.8185  1.6291  1.8419
   72CHL1    O3 6437   1.139   3.640   2.461  0.4549  0.2672  0.6937
   72CHL1   H3' 6438   1.188   3.558   2.461 -0.9773 -0.6301 -0.0370
   72CHL1    C4 6439   1.232   3.683   2.663 -0.0418 -0.2086  0.0726
   72CHL1   H4A 6440   1.308   3.605   2.640  3.0807  2.5472  0.2759
   72CHL1   H4B 6441   1.277   3.775   2.621  0.4107 -0.6710 -0.4878
   72CHL1    C5 6442   1.220   3.686   2.811  0.1333 -0.3467 -0.3424
   72CHL1    C6 6443   1.259   3.793   2.883  0.5309 -0.2412 -0.0203
   72CHL1    H6 6444   1.311   3.874   2.830 -2.4128  1.7803 -0.0877
   72CHL1    C7 6445   1.239   3.808   3.033  0.3186 -0.5308  0.2736
   72CHL1   H7A 6446   1.329   3.854   3.077 -1.1854  0.8149  2.0919
   72CHL1   H7B 6447   1.164   3.887   3.055  1.9362  0.5205  2.3152
   72CHL1    C8 6448   1.205   3.675   3.107 -0.2071  0.5182  0.1246
   72CHL1    H8 6449   1.300   3.617   3.117 -0.8356 -0.5101  0.3082
   72CHL1   C14 6450   1.151   3.697   3.246  0.1565  0.6541 -0.6181
   72CHL1   H14 6451   1.052   3.742   3.221  0.0222  0.6093 -0.1712
   72CHL1   C15 6452   1.218   3.802   3.346 -0.8063 -0.2084  0.5241
   72CHL1  H15A 6453   1.328   3.793   3.340 -0.7875  0.2512  0.1631
   72CHL1  H15B 6454   1.192   3.907   3.323 -1.7326 -0.7156 -0.9313
   72CHL1   C16 6455   1.178   3.751   3.481  0.1845 -0.1280 -0.2740
   72CHL1  H16A 6456   1.266   3.720   3.541 -0.3548  0.9912  1.1563
   72CHL1  H16B 6457   1.125   3.827   3.542 -0.2948  0.2399 -1.1396
   72CHL1   C17 6458   1.083   3.633   3.462 -0.0970  0.4369 -0.0475
   72CHL1   H17 6459   0.982   3.668   3.434 -0.2360 -0.1214 -0.2602
   72CHL1   C13 6460   1.128   3.570   3.328 -0.0659 -0.0141  0.6826
   72CHL1   C18 6461   1.257   3.487   3.352  0.0469 -0.6670 -0.2343
   72CHL1  H18A 6462   1.243   3.394   3.411  0.9238  1.2154  3.2467
   72CHL1  H18B 6463   1.305   3.451   3.259 -0.6007  0.3847 -1.0011
   72CHL1  H18C 6464   1.335   3.544   3.407  1.5573 -0.4589 -2.4644
   72CHL1   C12 6465   1.023   3.485   3.250 -0.2844 -0.4468 -0.7416
   72CHL1  H12A 6466   0.990   3.391   3.300 -2.6169  1.7383  2.2336
   72CHL1  H12B 6467   0.929   3.545   3.247  0.0189  0.1241  0.5610
   72CHL1   C11 6468   1.055   3.462   3.097  1.1861 -0.4153  0.8477
   72CHL1  H11A 6469   1.130   3.380   3.108 -0.3635 -2.2793 -1.3723
   72CHL1  H11B 6470   0.962   3.424   3.050  0.4782  1.5780  0.5513
   72CHL1    C9 6471   1.106   3.586   3.027 -0.3049  0.2762 -0.0374
   72CHL1    H9 6472   1.020   3.656   3.022 -0.0653  0.7036  1.3448
   72CHL1   C10 6473   1.144   3.564   2.876 -0.3300 -0.0566  0.0871
   72CHL1   C19 6474   1.248   3.451   2.871  0.1331  0.9077 -0.2474
   72CHL1  H19A 6475   1.208   3.365   2.928  4.1362 -1.5990 -0.7749
   72CHL1  H19B 6476   1.268   3.426   2.764 -0.8597  1.9715 -0.6944
   72CHL1  H19C 6477   1.344   3.477   2.921  0.1875  1.4302 -0.6161
   72CHL1    C1 6478   1.023   3.534   2.794  0.2803 -0.0029  0.0122
   72CHL1   H1A 6479   0.970   3.441   2.822  0.5238 -0.5092 -1.1638
   72CHL1   H1B 6480   0.948   3.613   2.818  1.3511  1.1379 -0.2659
   72CHL1    C2 6481   1.030   3.532   2.642 -0.2528 -1.0291  0.2028
   72CHL1   H2A 6482   0.926   3.519   2.607 -0.4377  0.9597 -0.0928
   72CHL1   H2B 6483   1.079   3.444   2.595  0.5362 -0.7119  0.3965
   72CHL1   C20 6484   1.066   3.537   3.584 -0.2876 -0.1252  0.9781
   72CHL1   H20 6485   1.148   3.463   3.589 -0.5808 -0.5812 -0.4677
   72CHL1   C21 6486   0.927   3.468   3.569 -0.1335  0.3278  0.0523
   72CHL1  H21A 6487   0.849   3.540   3.539  0.3868  0.2888 -1.4389
   72CHL1  H21B 6488   0.891   3.427   3.666  0.6575  1.0690  0.6877
   72CHL1  H21C 6489   0.938   3.390   3.491  2.3912  0.5678  0.0811
   72CHL1   C22 6490   1.061   3.615   3.720 -0.0277  0.9867 -0.4236
   72CHL1  H22A 6491   1.039   3.724   3.708 -0.8048  0.8388 -0.3964
   72CHL1  H22B 6492   0.971   3.582   3.775  0.4127  0.1711 -0.1839
   72CHL1   C23 6493   1.174   3.582   3.818 -0.3632 -0.0021  0.0985
   72CHL1  H23A 6494   1.171   3.473   3.841  1.7252  0.1427  1.2663
   72CHL1  H23B 6495   1.270   3.620   3.777  0.4175 -0.6458  1.2559
   72CHL1   C24 6496   1.164   3.651   3.958  0.3467 -0.3991 -0.3207
   72CHL1  H24A 6497   1.155   3.761   3.946 -0.0228 -0.4440 -0.4764
   72CHL1  H24B 6498   1.071   3.609   4.002  0.8365 -0.6564  0.4855
   72CHL1   C25 6499   1.275   3.620   4.059 -0.4515 -0.6993  0.0773
   72CHL1   H25 6500   1.305   3.514   4.048  1.3748 -0.1697 -0.4418
   72CHL1   C26 6501   1.408   3.708   4.039 -1.5578  0.2777 -0.3176
   72CHL1  H26A 6502   1.488   3.693   4.115  1.6972 -1.0066 -3.6595
   72CHL1  H26B 6503   1.453   3.697   3.937 -1.4353  1.7693 -0.4531
   72CHL1  H26C 6504   1.382   3.816   4.041 -0.2927  0.6151 -0.6013
   72CHL1   C27 6505   1.219   3.645   4.203 -0.1553 -0.9530  0.2716
   72CHL1  H27A 6506   1.211   3.755   4.206  0.8229 -0.7512 -2.2598
   72CHL1  H27B 6507   1.120   3.594   4.199 -1.0089  0.6047  0.6369
   72CHL1  H27C 6508   1.282   3.594   4.279 -0.5889  0.5176  1.6602
   73CHL1    C3 6509   3.196   5.260   2.495  0.6969  0.8494 -0.5495
   73CHL1    H3 6510   3.305   5.274   2.510  0.6606  0.2395  0.3674
   73CHL1    O3 6511   3.161   5.283   2.360  0.7409  0.4190  0.1088
   73CHL1   H3' 6512   3.067   5.305   2.363  0.0142 -1.9930 -1.5657
   73CHL1    C4 6513   3.158   5.111   2.529  0.3722  0.0030 -0.5848
   73CHL1   H4A 6514   3.051   5.095   2.505  0.5652  0.0711 -1.5210
   73CHL1   H4B 6515   3.225   5.057   2.458 -1.0706 -0.5493 -1.5687
   73CHL1    C5 6516   3.192   5.087   2.673  0.5590  0.2536 -0.4962
   73CHL1    C6 6517   3.270   4.987   2.705  0.3031 -0.9024 -0.2100
   73CHL1    H6 6518   3.315   4.922   2.629  0.9453  2.0302 -2.5326
   73CHL1    C7 6519   3.313   4.958   2.847 -0.2191 -0.0488  0.8395
   73CHL1   H7A 6520   3.316   4.849   2.868 -0.0063 -0.3276 -0.5085
   73CHL1   H7B 6521   3.421   4.979   2.859 -0.1285  0.2894 -0.4123
   73CHL1    C8 6522   3.219   5.015   2.951 -0.4372 -0.1433 -0.2422
   73CHL1    H8 6523   3.117   4.972   2.942 -0.6934  0.4893 -0.3879
   73CHL1   C14 6524   3.279   5.009   3.090  0.1957  0.1681  0.3373
   73CHL1   H14 6525   3.378   5.059   3.085 -0.5326  1.7457  0.8861
   73CHL1   C15 6526   3.334   4.873   3.139 -0.6407 -0.6296  0.2649
   73CHL1  H15A 6527   3.273   4.794   3.089  2.9347 -0.7900 -4.5962
   73CHL1  H15B 6528   3.439   4.849   3.111  0.0856  0.6125  1.7311
   73CHL1   C16 6529   3.325   4.877   3.294  0.2170 -0.5599  0.4148
   73CHL1  H16A 6530   3.238   4.814   3.320 -1.9023  1.9505 -0.2131
   73CHL1  H16B 6531   3.413   4.842   3.352 -1.6839 -4.3769  1.3071
   73CHL1   C17 6532   3.280   5.022   3.327  0.4271  0.2915 -0.2571
   73CHL1   H17 6533   3.375   5.077   3.340  0.3831  0.3618 -0.2301
   73CHL1   C13 6534   3.199   5.066   3.201  0.1060  0.4405 -0.1201
   73CHL1   C18 6535   3.063   4.994   3.209  0.0411  0.0983  0.5619
   73CHL1  H18A 6536   3.066   4.884   3.198  0.1148  0.2623 -1.7548
   73CHL1  H18B 6537   3.012   5.033   3.299 -1.1802 -0.2200  0.0284
   73CHL1  H18C 6538   2.998   5.032   3.127  3.4901  1.1485 -1.9464
   73CHL1   C12 6539   3.197   5.218   3.171 -0.1399  0.3800  0.2534
   73CHL1  H12A 6540   3.138   5.267   3.251  0.1658  1.4828 -0.1816
   73CHL1  H12B 6541   3.301   5.257   3.176 -0.3047  1.0055 -0.9616
   73CHL1   C11 6542   3.135   5.240   3.036 -1.1984 -0.3177  0.9174
   73CHL1  H11A 6543   3.025   5.221   3.041 -1.3880  0.3309 -0.3072
   73CHL1  H11B 6544   3.157   5.348   3.021 -0.8562 -0.2347  1.9316
   73CHL1    C9 6545   3.204   5.161   2.921 -0.0267  0.0697  0.3076
   73CHL1    H9 6546   3.310   5.191   2.934 -0.2260  0.3895  1.2478
   73CHL1   C10 6547   3.144   5.187   2.779  0.1041 -0.1681 -0.1272
   73CHL1   C19 6548   2.996   5.162   2.781 -0.0667 -0.1534 -0.0021
   73CHL1  H19A 6549   2.940   5.182   2.686 -0.0470  0.6820  0.1542
   73CHL1  H19B 6550   2.966   5.065   2.825  2.8047 -1.4097 -0.5833
   73CHL1  H19C 6551   2.946   5.244   2.837  0.3468 -1.2166  1.9768
   73CHL1    C1 6552   3.169   5.333   2.735 -0.4191 -0.8087  0.3935
   73CHL1   H1A 6553   3.126   5.403   2.811 -0.1663  0.3814 -0.5255
   73CHL1   H1B 6554   3.279   5.350   2.739 -0.4065 -1.0981  1.8643
   73CHL1    C2 6555   3.123   5.358   2.592 -0.0625 -0.1464  0.4505
   73CHL1   H2A 6556   3.145   5.460   2.555 -1.6278  0.1432  0.2387
   73CHL1   H2B 6557   3.013   5.347   2.578 -0.2643  0.9588  1.0447
   73CHL1   C20 6558   3.225   5.021   3.476  0.1241  0.2619  0.1088
   73CHL1   H20 6559   3.150   4.940   3.488 -1.3981  1.8648  1.8910
   73CHL1   C21 6560   3.160   5.160   3.496 -0.1143 -0.0348 -0.0932
   73CHL1  H21A 6561   3.237   5.240   3.493  0.3935 -0.5419 -0.9705
   73CHL1  H21B 6562   3.118   5.169   3.599  1.5629  1.9226  0.4796
   73CHL1  H21C 6563   3.076   5.183   3.427  0.5713 -0.3121 -1.0474
   73CHL1   C22 6564   3.340   4.995   3.571 -0.5500  0.2966 -0.2239
   73CHL1  H22A 6565   3.376   4.891   3.556  0.6355  0.3434  2.0353
   73CHL1  H22B 6566   3.425   5.062   3.547  1.8439 -2.5527 -0.3494
   73CHL1   C23 6567   3.305   5.004   3.721 -0.3924  0.8631  0.8246
   73CHL1  H23A 6568   3.275   5.110   3.736  0.0405  1.5819 -2.5503
   73CHL1  H23B 6569   3.213   4.945   3.740 -0.1734  0.1235 -0.3172
   73CHL1   C24 6570   3.426   4.978   3.806 -0.7663  0.2584  0.4559
   73CHL1  H24A 6571   3.448   4.869   3.806 -0.2426  0.3439 -0.8326
   73CHL1  H24B 6572   3.518   5.021   3.761 -0.4868 -0.1002  0.6817
   73CHL1   C25 6573   3.417   5.018   3.954  0.1600 -0.1688 -0.4007
   73CHL1   H25 6574   3.486   4.954   4.014 -1.6609 -1.5577  0.3113
   73CHL1   C26 6575   3.443   5.171   3.977 -0.0505  0.2550 -0.8192
   73CHL1  H26A 6576   3.376   5.222   3.904 -0.7527 -1.5273 -1.4700
   73CHL1  H26B 6577   3.417   5.205   4.080  0.4842 -1.5872 -0.0303
   73CHL1  H26C 6578   3.550   5.198   3.965 -0.0176  0.4119 -0.1952
   73CHL1   C27 6579   3.280   4.993   4.014 -0.5119  0.1628  0.0469
   73CHL1  H27A 6580   3.202   5.064   3.980 -1.0108  0.1552  1.1619
   73CHL1  H27B 6581   3.246   4.892   3.983 -0.3088 -0.1864  0.9362
   73CHL1  H27C 6582   3.288   4.998   4.124  0.4225  2.4369 -0.0601
   74CHL1    C3 6583   3.941   4.891   2.876  0.0374  0.6634  0.0090
   74CHL1    H3 6584   4.049   4.883   2.902 -0.0970  2.7587  1.4033
   74CHL1    O3 6585   3.927   4.906   2.735  0.1057  0.3617  0.5136
   74CHL1   H3' 6586   3.887   4.993   2.724 -0.2131  0.0742 -0.7660
   74CHL1    C4 6587   3.869   4.762   2.919  0.1488  0.4820 -0.0942
   74CHL1   H4A 6588   3.760   4.756   2.899 -0.4266 -1.1538  2.9332
   74CHL1   H4B 6589   3.921   4.682   2.862  0.4561 -1.1472  2.2960
   74CHL1    C5 6590   3.875   4.739   3.068 -0.4039 -0.7355  0.7839
   74CHL1    C6 6591   3.923   4.623   3.118  0.6048 -0.1855  0.1181
   74CHL1    H6 6592   3.954   4.543   3.048 -1.3088 -0.8201 -0.0654
   74CHL1    C7 6593   3.926   4.593   3.266  0.1308  0.1101  0.4268
   74CHL1   H7A 6594   3.889   4.490   3.287 -3.0359  1.0650  0.0273
   74CHL1   H7B 6595   4.033   4.604   3.295  0.5537  1.8604 -1.5463
   74CHL1    C8 6596   3.850   4.696   3.353  0.6717 -0.3637  0.1738
   74CHL1    H8 6597   3.745   4.663   3.343  1.3627 -1.9368 -3.4467
   74CHL1   C14 6598   3.882   4.685   3.501  0.6122 -0.3277 -0.2934
   74CHL1   H14 6599   3.983   4.727   3.521 -0.5002  2.7701 -0.6790
   74CHL1   C15 6600   3.874   4.555   3.576  0.1498  0.4395 -0.1845
   74CHL1  H15A 6601   3.786   4.495   3.546 -0.7312  1.0563  1.0664
   74CHL1  H15B 6602   3.961   4.489   3.554  0.8666  1.3261 -0.0687
   74CHL1   C16 6603   3.875   4.587   3.721  0.2086  0.0652 -0.8180
   74CHL1  H16A 6604   3.797   4.545   3.787 -0.0952  0.5692 -0.8517
   74CHL1  H16B 6605   3.975   4.561   3.762  0.4184 -2.1173 -2.5000
   74CHL1   C17 6606   3.870   4.746   3.729 -0.1705  0.1176  0.3383
   74CHL1   H17 6607   3.976   4.780   3.733 -0.5874  1.4237  0.9279
   74CHL1   C13 6608   3.814   4.781   3.596  0.2480 -0.4403 -0.4505
   74CHL1   C18 6609   3.664   4.760   3.586  0.4330 -0.4058 -0.0795
   74CHL1  H18A 6610   3.619   4.785   3.487 -1.6676 -0.4174  0.8245
   74CHL1  H18B 6611   3.616   4.665   3.618 -0.9887 -0.5197 -2.3093
   74CHL1  H18C 6612   3.619   4.832   3.658  1.1547 -0.7400  0.7262
   74CHL1   C12 6613   3.858   4.920   3.549 -0.3774  0.0787  0.6228
   74CHL1  H12A 6614   3.836   5.014   3.604  0.7813  0.1850  0.9482
   74CHL1  H12B 6615   3.969   4.931   3.556 -0.2504 -0.5267 -0.2521
   74CHL1   C11 6616   3.820   4.950   3.409  0.2026 -0.3983  0.4198
   74CHL1  H11A 6617   3.711   4.951   3.392  0.3736 -0.0935 -0.7440
   74CHL1  H11B 6618   3.852   5.050   3.374 -1.3836 -0.5197 -1.5978
   74CHL1    C9 6619   3.874   4.843   3.303  0.5585  0.1655  0.4518
   74CHL1    H9 6620   3.983   4.860   3.311  0.5421  0.0123  1.0611
   74CHL1   C10 6621   3.831   4.865   3.150 -0.6688 -0.4324 -0.0662
   74CHL1   C19 6622   3.677   4.866   3.142  0.1065  0.2813 -0.1014
   74CHL1  H19A 6623   3.637   4.859   3.038  2.4056 -0.8968 -0.9830
   74CHL1  H19B 6624   3.632   4.782   3.198  0.7051 -0.5310 -0.8080
   74CHL1  H19C 6625   3.637   4.958   3.191  1.1720 -0.5567  2.4914
   74CHL1    C1 6626   3.887   4.996   3.103  0.5365 -0.4063 -0.0601
   74CHL1   H1A 6627   3.833   5.072   3.163 -1.0254 -0.6225 -1.1234
   74CHL1   H1B 6628   3.996   5.010   3.118  0.3433  0.4072  0.6462
   74CHL1    C2 6629   3.885   5.014   2.949  0.5440  0.0299  0.6503
   74CHL1   H2A 6630   3.928   5.109   2.912 -0.6185  1.0316  1.7558
   74CHL1   H2B 6631   3.775   5.015   2.934  0.6668 -0.9955 -0.4290
   74CHL1   C20 6632   3.796   4.800   3.853 -0.1759  0.0821 -0.3020
   74CHL1   H20 6633   3.690   4.768   3.846 -0.6166  1.0655  1.2424
   74CHL1   C21 6634   3.796   4.953   3.853  0.3621 -0.2719  0.3965
   74CHL1  H21A 6635   3.901   4.990   3.853  0.0351  0.7032  1.1600
   74CHL1  H21B 6636   3.745   4.979   3.949 -0.7021 -1.0025  0.0472
   74CHL1  H21C 6637   3.735   4.989   3.768 -1.4021 -1.0919  1.2454
   74CHL1   C22 6638   3.857   4.746   3.992  0.5101 -0.2738 -0.4965
   74CHL1  H22A 6639   3.788   4.760   4.078  0.1665 -1.4265 -0.5575
   74CHL1  H22B 6640   3.854   4.637   3.972  0.2801  0.1989 -3.3972
   74CHL1   C23 6641   3.995   4.800   4.030 -0.7404 -0.2730 -0.1920
   74CHL1  H23A 6642   4.063   4.825   3.946  0.0625  1.7421  0.9941
   74CHL1  H23B 6643   3.963   4.891   4.084  1.2107 -0.3520  1.1963
   74CHL1   C24 6644   4.053   4.703   4.140 -0.4850  0.2282 -0.3501
   74CHL1  H24A 6645   3.971   4.670   4.207  0.8094 -2.0772  0.1971
   74CHL1  H24B 6646   4.086   4.606   4.097  0.2789 -0.5664  1.9036
   74CHL1   C25 6647   4.183   4.749   4.211 -0.6404 -0.1723 -0.2418
   74CHL1   H25 6648   4.263   4.757   4.134  0.2007  0.2770  0.6516
   74CHL1   C26 6649   4.170   4.881   4.282  0.3323 -0.3718 -0.6217
   74CHL1  H26A 6650   4.134   4.962   4.215 -0.0128  0.4627  0.5320
   74CHL1  H26B 6651   4.099   4.871   4.367 -2.2478  2.0103 -2.3052
   74CHL1  H26C 6652   4.274   4.906   4.310  0.4167  0.4971 -1.6681
   74CHL1   C27 6653   4.229   4.632   4.302  0.8741  0.9600 -1.1067
   74CHL1  H27A 6654   4.161   4.594   4.381  2.6755 -1.1272 -0.4599
   74CHL1  H27B 6655   4.248   4.550   4.229  1.2440  0.4243 -0.4232
   74CHL1  H27C 6656   4.326   4.650   4.352  1.8170 -2.1527 -1.6073
   75CHL1    C3 6657   4.272   5.121   2.689  0.9796  0.0839 -0.2745
   75CHL1    H3 6658   4.162   5.108   2.685  1.0854 -1.1673  0.3742
   75CHL1    O3 6659   4.304   5.099   2.549 -0.0208 -0.5547  0.2797
   75CHL1   H3' 6660   4.400   5.095   2.545  0.0434  0.9049 -0.3251
   75CHL1    C4 6661   4.296   5.267   2.734 -0.1338 -0.4325  0.0902
   75CHL1   H4A 6662   4.405   5.285   2.721 -0.0175  0.3683  1.9310
   75CHL1   H4B 6663   4.243   5.342   2.671 -0.5140  0.6300  1.6067
   75CHL1    C5 6664   4.252   5.281   2.879  0.2788 -0.6231  0.0261
   75CHL1    C6 6665   4.155   5.368   2.913 -0.9047  0.0726 -0.3001
   75CHL1    H6 6666   4.109   5.423   2.830  0.5478  1.2072 -0.3944
   75CHL1    C7 6667   4.117   5.402   3.053 -0.3376 -1.0937  0.5285
   75CHL1   H7A 6668   4.134   5.510   3.077  0.4153 -0.8472 -1.0266
   75CHL1   H7B 6669   4.011   5.382   3.081 -0.9696  0.7071 -0.3735
   75CHL1    C8 6670   4.214   5.344   3.162  0.1989 -0.8833  0.3729
   75CHL1    H8 6671   4.302   5.412   3.162 -0.4463 -0.0237  1.2190
   75CHL1   C14 6672   4.143   5.335   3.292  0.0586 -0.0727  0.5538
   75CHL1   H14 6673   4.059   5.263   3.283 -1.5486  1.9274 -2.0995
   75CHL1   C15 6674   4.061   5.460   3.336  0.0656 -0.7621 -0.7546
   75CHL1  H15A 6675   4.121   5.549   3.307 -0.7999  0.5624  1.2102
   75CHL1  H15B 6676   3.963   5.457   3.284  0.8001  2.8385 -2.6584
   75CHL1   C16 6677   4.057   5.450   3.492 -0.0664 -0.4686 -0.0789
   75CHL1  H16A 6678   4.108   5.541   3.530 -2.0894 -0.3286  2.6191
   75CHL1  H16B 6679   3.955   5.450   3.536 -0.1017  2.5058  0.0639
   75CHL1   C17 6680   4.122   5.312   3.526 -0.1954  0.4615 -0.9175
   75CHL1   H17 6681   4.039   5.239   3.514 -0.0871  0.3349 -0.9004
   75CHL1   C13 6682   4.222   5.294   3.411  0.1742  0.1608 -0.1497
   75CHL1   C18 6683   4.344   5.394   3.441  1.0186  0.5268 -0.2732
   75CHL1  H18A 6684   4.387   5.372   3.541  1.0774 -1.9381 -0.7654
   75CHL1  H18B 6685   4.415   5.376   3.358 -0.9648 -1.6153 -1.6282
   75CHL1  H18C 6686   4.305   5.497   3.429 -0.5623 -0.0438 -0.3382
   75CHL1   C12 6687   4.262   5.153   3.378 -0.0599  0.0607 -0.5757
   75CHL1  H12A 6688   4.325   5.122   3.464 -0.0901 -1.0294 -0.9225
   75CHL1  H12B 6689   4.168   5.094   3.362  0.4726 -1.0796  0.3358
   75CHL1   C11 6690   4.343   5.149   3.245  0.1577  0.6869 -0.1553
   75CHL1  H11A 6691   4.441   5.200   3.257  1.1808 -1.5261  1.6245
   75CHL1  H11B 6692   4.361   5.042   3.224  0.4956  0.3144  1.8293
   75CHL1    C9 6693   4.270   5.208   3.127 -0.0251  0.2629 -0.2765
   75CHL1    H9 6694   4.177   5.149   3.116 -0.6420  1.2410 -0.3940
   75CHL1   C10 6695   4.330   5.191   2.983 -0.1432  0.1297 -0.6863
   75CHL1   C19 6696   4.478   5.239   2.987 -0.5953 -0.1729 -0.0267
   75CHL1  H19A 6697   4.530   5.166   3.053 -1.8372 -1.5214 -0.5016
   75CHL1  H19B 6698   4.532   5.236   2.890  2.6975 -2.7881  1.6914
   75CHL1  H19C 6699   4.477   5.342   3.030  0.3723 -0.5256  0.8919
   75CHL1    C1 6700   4.312   5.047   2.932 -0.0365  0.3386  0.6630
   75CHL1   H1A 6701   4.382   4.980   2.987  1.7657  0.4669 -1.3193
   75CHL1   H1B 6702   4.211   5.005   2.952 -1.3047  1.4721 -2.6888
   75CHL1    C2 6703   4.344   5.022   2.780  0.1335  0.4112  0.4669
   75CHL1   H2A 6704   4.317   4.918   2.754  2.7452 -0.7028  1.8333
   75CHL1   H2B 6705   4.453   5.031   2.761 -0.0762  2.3847 -0.0558
   75CHL1   C20 6706   4.165   5.289   3.674  0.2680 -0.0395 -0.3609
   75CHL1   H20 6707   4.269   5.320   3.698 -0.0968  0.7244  0.2564
   75CHL1   C21 6708   4.160   5.142   3.716 -0.0782 -0.0360  0.1895
   75CHL1  H21A 6709   4.229   5.131   3.802  0.2787  1.9207  0.2036
   75CHL1  H21B 6710   4.188   5.072   3.635 -0.3475 -0.1078  0.1559
   75CHL1  H21C 6711   4.062   5.108   3.758 -0.2002 -1.0957 -0.8836
   75CHL1   C22 6712   4.060   5.370   3.767 -0.2569  0.0955  0.8701
   75CHL1  H22A 6713   4.062   5.479   3.748  0.0396 -0.1672 -0.7326
   75CHL1  H22B 6714   3.960   5.337   3.734 -0.1609  0.6266  0.0383
   75CHL1   C23 6715   4.090   5.365   3.921  0.4920  0.1131  0.3888
   75CHL1  H23A 6716   4.084   5.262   3.962  0.6848 -0.6409 -1.4093
   75CHL1  H23B 6717   4.197   5.392   3.938  0.6442 -0.3592  0.2099
   75CHL1   C24 6718   3.976   5.442   3.996  0.0286 -0.3159 -0.1250
   75CHL1  H24A 6719   3.980   5.542   3.948  0.3936  0.2203  0.9818
   75CHL1  H24B 6720   3.880   5.391   3.974 -0.0170 -0.6492  0.7939
   75CHL1   C25 6721   4.002   5.449   4.150  0.1539 -0.2100 -0.4296
   75CHL1   H25 6722   3.996   5.344   4.185 -0.1124 -0.1871 -0.3990
   75CHL1   C26 6723   4.134   5.513   4.191  0.4064  0.4454  0.0506
   75CHL1  H26A 6724   4.158   5.619   4.172  1.7661  0.1216 -0.1648
   75CHL1  H26B 6725   4.145   5.487   4.298 -0.4588 -0.2490 -0.0174
   75CHL1  H26C 6726   4.208   5.453   4.133  0.6299 -1.0151  1.7411
   75CHL1   C27 6727   3.885   5.512   4.228 -0.5604 -0.3941  0.1904
   75CHL1  H27A 6728   3.897   5.486   4.335 -0.1252 -4.0233 -0.6075
   75CHL1  H27B 6729   3.886   5.622   4.217  0.7805 -0.1830  2.0638
   75CHL1  H27C 6730   3.799   5.456   4.184 -0.6933 -0.2691  0.2931
   76CHL1    C3 6731   1.350   6.136   2.981  0.5894 -0.2351  0.3590
   76CHL1    H3 6732   1.448   6.103   3.024  1.7592  0.9152 -1.2900
   76CHL1    O3 6733   1.355   6.145   2.844 -0.1435  0.1274  0.8960
   76CHL1   H3' 6734   1.268   6.176   2.819  0.1116  0.0965 -0.1049
   76CHL1    C4 6735   1.247   6.033   3.025 -0.0716  0.3146 -0.2092
   76CHL1   H4A 6736   1.146   6.050   2.982 -0.4910  0.1430  0.6807
   76CHL1   H4B 6737   1.283   5.938   2.980  0.6386  0.2453  0.4787
   76CHL1    C5 6738   1.226   6.030   3.172  0.6016  0.4044  0.8201
   76CHL1    C6 6739   1.238   5.915   3.238 -0.3468 -0.2838 -0.1268
   76CHL1    H6 6740   1.264   5.818   3.192 -2.1912 -0.8584 -0.0469
   76CHL1    C7 6741   1.233   5.897   3.386  0.2992  0.1087 -0.1868
   76CHL1   H7A 6742   1.189   5.797   3.408  1.3864 -1.1332 -3.0846
   76CHL1   H7B 6743   1.334   5.887   3.430  0.7006  1.0387 -0.8756
   76CHL1    C8 6744   1.151   6.018   3.442 -0.6580 -0.0665 -0.3630
   76CHL1    H8 6745   1.045   6.008   3.410  0.0018  1.4534 -3.4175
   76CHL1   C14 6746   1.160   6.013   3.594  0.2423  0.1240 -0.2033
   76CHL1   H14 6747   1.269   6.011   3.614  0.0422 -2.2271  1.0911
   76CHL1   C15 6748   1.117   5.880   3.664  0.6904 -0.3595 -0.2390
   76CHL1  H15A 6749   1.017   5.861   3.619  0.6302 -1.5391  0.3582
   76CHL1  H15B 6750   1.193   5.800   3.649  1.2644  0.2433 -0.5725
   76CHL1   C16 6751   1.108   5.928   3.808 -0.3722  0.1667  0.4531
   76CHL1  H16A 6752   1.010   5.898   3.852 -1.1211  0.5795 -0.8597
   76CHL1  H16B 6753   1.185   5.901   3.883 -1.8887  0.0984  2.0387
   76CHL1   C17 6754   1.124   6.086   3.814  0.5551  0.4603 -0.2080
   76CHL1   H17 6755   1.228   6.121   3.829  0.1403  1.1446  1.3854
   76CHL1   C13 6756   1.094   6.127   3.673  0.0344 -0.2551 -0.1193
   76CHL1   C18 6757   0.944   6.134   3.649  0.0127  0.4515 -0.0395
   76CHL1  H18A 6758   0.894   6.044   3.691 -2.9352  0.6334 -2.8049
   76CHL1  H18B 6759   0.894   6.217   3.703 -0.8046 -1.5202  2.4471
   76CHL1  H18C 6760   0.924   6.135   3.540 -0.9220  1.6964  0.1265
   76CHL1   C12 6761   1.158   6.260   3.624  0.1225  0.3229 -0.0500
   76CHL1  H12A 6762   1.105   6.349   3.663 -0.3570  1.2537 -2.6411
   76CHL1  H12B 6763   1.259   6.270   3.669  0.3251 -0.2289 -0.3776
   76CHL1   C11 6764   1.162   6.275   3.474 -0.8141  0.2450 -0.2003
   76CHL1  H11A 6765   1.059   6.297   3.440 -0.3084  1.4230 -1.0246
   76CHL1  H11B 6766   1.221   6.362   3.437 -0.3399  0.2256  0.4906
   76CHL1    C9 6767   1.214   6.152   3.389 -0.4529 -0.3759 -0.2109
   76CHL1    H9 6768   1.322   6.141   3.414 -0.0775  0.3647 -1.3997
   76CHL1   C10 6769   1.201   6.170   3.239 -0.2271  0.1907 -0.4753
   76CHL1   C19 6770   1.053   6.198   3.207  0.0631 -0.1540  0.5981
   76CHL1  H19A 6771   1.012   6.294   3.246 -1.1545 -0.7116  0.7593
   76CHL1  H19B 6772   1.027   6.173   3.102  0.0855  0.1729  0.5162
   76CHL1  H19C 6773   0.985   6.128   3.262  0.2977 -0.4529  0.5081
   76CHL1    C1 6774   1.298   6.278   3.181  0.8657  0.1774  0.1857
   76CHL1   H1A 6775   1.267   6.383   3.204  2.7498  0.4159  1.8336
   76CHL1   H1B 6776   1.397   6.274   3.231 -0.0056  3.1014  2.4290
   76CHL1    C2 6777   1.321   6.270   3.032 -0.5394  0.1477 -0.3495
   76CHL1   H2A 6778   1.403   6.343   3.011 -1.1964  1.6143  1.8536
   76CHL1   H2B 6779   1.234   6.317   2.981 -0.4794  1.9338  1.0725
   76CHL1   C20 6780   1.051   6.160   3.935 -0.3600  0.1602  0.6369
   76CHL1   H20 6781   0.948   6.186   3.904 -0.2063  0.3153  0.2389
   76CHL1   C21 6782   1.122   6.294   3.953 -0.4497  0.1542 -0.7624
   76CHL1  H21A 6783   1.130   6.364   3.867  0.1889  2.0880  0.8065
   76CHL1  H21B 6784   1.227   6.280   3.986 -0.7961 -0.6063  0.0437
   76CHL1  H21C 6785   1.064   6.350   4.030 -1.2540 -3.3699  1.4092
   76CHL1   C22 6786   1.063   6.082   4.066 -0.0643 -0.5575  0.2949
   76CHL1  H22A 6787   1.016   5.983   4.043 -0.0058 -0.2716 -1.1509
   76CHL1  H22B 6788   1.168   6.053   4.089  0.8821  1.1659 -1.6490
   76CHL1   C23 6789   0.995   6.156   4.184 -0.0656  0.1432  0.9459
   76CHL1  H23A 6790   1.038   6.258   4.198 -2.1414  1.1558  0.3584
   76CHL1  H23B 6791   0.889   6.174   4.156  0.2227 -1.7157 -1.6598
   76CHL1   C24 6792   1.006   6.079   4.310 -0.2744  0.2625  0.6655
   76CHL1  H24A 6793   0.950   5.983   4.303 -0.4833  0.3038  1.7023
   76CHL1  H24B 6794   1.110   6.051   4.339 -0.3286 -0.1562  0.4738
   76CHL1   C25 6795   0.953   6.148   4.438  0.0305  0.0139 -0.2424
   76CHL1   H25 6796   0.863   6.201   4.402  0.0023 -0.4019 -0.8036
   76CHL1   C26 6797   0.926   6.035   4.538  0.1132  0.2551 -0.4862
   76CHL1  H26A 6798   1.016   5.970   4.545  0.3400  0.5484 -0.6535
   76CHL1  H26B 6799   0.897   6.085   4.633 -1.5554  1.5844 -1.6378
   76CHL1  H26C 6800   0.845   5.967   4.504  0.1865 -0.0875  0.0160
   76CHL1   C27 6801   1.053   6.253   4.488  0.3233 -0.1737 -0.3276
   76CHL1  H27A 6802   1.156   6.222   4.516 -0.2138  0.2170  2.4452
   76CHL1  H27B 6803   1.059   6.327   4.406  0.0130  0.5854  0.3245
   76CHL1  H27C 6804   0.997   6.305   4.569 -1.0177 -1.2019 -0.5581
   77SOPE     N 6805   5.564   3.421   6.484  0.2091  0.4313  0.1616
   77SOPE   HN1 6806   5.659   3.464   6.479  0.0737  0.6493 -0.5553
   77SOPE   HN2 6807   5.490   3.488   6.510 -4.1395 -3.8466  0.2306
   77SOPE   HN3 6808   5.568   3.353   6.563 -0.9192  1.7979  1.4590
   77SOPE   C12 6809   5.512   3.344   6.366  0.0323  0.9167 -0.0983
   77SOPE  H12A 6810   5.585   3.265   6.335 -0.6088  0.3417 -0.1619
   77SOPE  H12B 6811   5.498   3.424   6.290  0.4042 -1.1548 -2.5108
   77SOPE   C11 6812   5.375   3.279   6.388 -0.1519  0.2134  0.3071
   77SOPE  H11A 6813   5.353   3.216   6.299  3.1801 -1.8901  0.7594
   77SOPE  H11B 6814   5.311   3.367   6.409  3.2450  2.4975  1.9044
   77SOPE     P 6815   5.290   3.067   6.507 -0.2115 -0.1574 -0.1211
   77SOPE   O13 6816   5.144   3.091   6.499  0.1780 -0.3787 -0.4231
   77SOPE   O14 6817   5.339   2.992   6.624 -0.3005 -0.4295 -0.5204
   77SOPE   O12 6818   5.370   3.199   6.497  0.6588  0.4133 -0.8187
   77SOPE   O11 6819   5.336   2.997   6.369 -0.2169  0.2779  0.5370
   77SOPE    C1 6820   5.469   2.943   6.373  0.6949  0.2793  0.1532
   77SOPE    HA 6821   5.485   2.864   6.449  0.3627 -0.7940 -0.8554
   77SOPE    HB 6822   5.544   3.024   6.379  1.6167 -0.5111 -0.2622
   77SOPE    C2 6823   5.500   2.865   6.238 -0.1488 -0.2949  0.5763
   77SOPE    HS 6824   5.611   2.868   6.229 -0.2522  2.8122 -1.4777
   77SOPE   O21 6825   5.444   2.928   6.109 -0.2604  0.0145 -0.4763
   77SOPE   C21 6826   5.479   3.053   6.091  0.0060 -0.9491 -0.1383
   77SOPE   O22 6827   5.552   3.120   6.158  0.3894 -0.5234  0.1934
   77SOPE   C22 6828   5.436   3.095   5.948 -0.6822 -0.4791 -0.3049
   77SOPE   H2R 6829   5.454   3.203   5.932 -0.9981 -0.2996  0.4982
   77SOPE   H2S 6830   5.326   3.090   5.936 -0.5437  0.2600 -2.2002
   77SOPE    C3 6831   5.457   2.713   6.235 -0.7161  0.3106  0.0041
   77SOPE    HX 6832   5.347   2.704   6.246 -0.7378 -2.1694 -1.4779
   77SOPE    HY 6833   5.498   2.657   6.322 -1.3999  1.1965  0.9187
   77SOPE   O31 6834   5.501   2.649   6.117  0.4470 -0.5920  0.4206
   77SOPE   C31 6835   5.416   2.595   6.034  0.9645  0.5545 -0.3977
   77SOPE   O32 6836   5.296   2.576   6.055  0.3590 -0.0216 -0.3954
   77SOPE   C32 6837   5.478   2.552   5.901 -0.0371 -0.6709 -0.5465
   77SOPE   H2X 6838   5.518   2.454   5.936  0.1847  0.1859  1.8226
   77SOPE   H2Y 6839   5.568   2.617   5.901 -0.5164  0.1265  1.9604
   77SOPE   C23 6840   5.527   3.025   5.848  0.0439  0.1349 -0.1423
   77SOPE   H3R 6841   5.535   2.915   5.862  0.2139  0.3481  1.7251
   77SOPE   H3S 6842   5.626   3.074   5.853  0.1415 -0.1020  0.3048
   77SOPE   C24 6843   5.474   3.067   5.704  0.0792 -0.3715 -0.0636
   77SOPE   H4R 6844   5.371   3.027   5.693  0.9132 -2.4537 -0.7583
   77SOPE   H4S 6845   5.479   3.178   5.706 -0.2721 -0.3631  0.6001
   77SOPE   C25 6846   5.567   3.021   5.591  0.0650  0.3843  0.7961
   77SOPE   H5R 6847   5.675   3.028   5.617  1.9348 -1.1059 -4.8994
   77SOPE   H5S 6848   5.541   2.915   5.570  0.2308  0.2267  1.3750
   77SOPE   C26 6849   5.525   3.094   5.462  0.2860  0.1059 -0.4847
   77SOPE   H6R 6850   5.421   3.070   5.431  0.1376  0.3665 -0.1974
   77SOPE   H6S 6851   5.531   3.203   5.485  0.1441  0.3259 -1.4559
   77SOPE   C27 6852   5.612   3.045   5.354 -0.2413 -0.0530 -0.0061
   77SOPE   H7R 6853   5.707   3.102   5.343 -0.7196  0.5383 -1.2266
   77SOPE   H7S 6854   5.636   2.939   5.376  0.2819 -0.5686 -2.6892
   77SOPE   C28 6855   5.553   3.044   5.212  1.0784  0.5553  0.0110
   77SOPE   H8R 6856   5.622   2.983   5.149 -1.1108 -1.4309 -0.5892
   77SOPE   H8S 6857   5.452   2.998   5.207  0.5280  1.6836  0.5028
   77SOPE   C29 6858   5.560   3.185   5.164  0.4189  0.5619 -0.6538
   77SOPE   H91 6859   5.539   3.259   5.242 -0.4652  2.0805 -2.2455
   77SOPE  C210 6860   5.572   3.232   5.038  0.0023 -0.1751  0.7321
   77SOPE  H101 6861   5.573   3.341   5.019 -0.5124 -0.0514  1.3719
   77SOPE  C211 6862   5.593   3.156   4.908 -0.5449 -0.2940  0.5658
   77SOPE  H11R 6863   5.689   3.100   4.916  0.4906  1.4429  0.8102
   77SOPE  H11S 6864   5.621   3.234   4.833 -0.4494 -0.5798  0.3017
   77SOPE  C212 6865   5.479   3.066   4.859 -0.1070 -0.2656 -0.4182
   77SOPE  H12R 6866   5.432   3.027   4.952  0.4545  1.0482  0.4622
   77SOPE  H12S 6867   5.516   2.975   4.806  1.0449 -0.0236 -0.0647
   77SOPE  C213 6868   5.385   3.147   4.767 -0.0593  0.3648  0.2234
   77SOPE  H13R 6869   5.375   3.250   4.807 -2.3215  0.9578 -1.6762
   77SOPE  H13S 6870   5.285   3.100   4.782 -1.2048  1.1527 -3.8930
   77SOPE  C214 6871   5.437   3.159   4.624 -0.4637 -0.0594  0.2060
   77SOPE  H14R 6872   5.548   3.164   4.618 -0.4000  0.8912  1.5952
   77SOPE  H14S 6873   5.381   3.245   4.582  0.1667  0.4965  0.4832
   77SOPE  C215 6874   5.398   3.041   4.535 -0.3372  0.0408 -0.5395
   77SOPE  H15R 6875   5.287   3.031   4.537 -0.3264 -0.2321  1.8436
   77SOPE  H15S 6876   5.457   2.951   4.565  0.1094  0.7609  0.8757
   77SOPE  C216 6877   5.432   3.065   4.383  0.0457 -0.9956  0.7286
   77SOPE  H16R 6878   5.542   3.065   4.368  0.2021 -0.7169  1.7487
   77SOPE  H16S 6879   5.401   3.171   4.369  0.3817 -0.8892  0.7802
   77SOPE  C217 6880   5.354   2.984   4.283  0.1721  0.8090  0.0437
   77SOPE  H17R 6881   5.359   3.046   4.191 -0.7976  1.1229  0.2019
   77SOPE  H17S 6882   5.246   2.979   4.308  0.2649 -2.3981  0.1662
   77SOPE  C218 6883   5.386   2.837   4.251  0.2672 -0.4294  0.1941
   77SOPE  H18R 6884   5.476   2.832   4.186 -0.5787  0.5618 -1.1102
   77SOPE  H18S 6885   5.302   2.789   4.197  0.0855  1.9699 -1.8740
   77SOPE  H18T 6886   5.409   2.785   4.347  0.8602  0.4898  0.5653
   77SOPE   C33 6887   5.394   2.552   5.777 -0.0855 -0.9726  0.8532
   77SOPE   H3X 6888   5.294   2.517   5.811 -2.0565  2.0939 -1.2250
   77SOPE   H3Y 6889   5.435   2.488   5.696 -0.6635  1.2102 -1.3094
   77SOPE   C34 6890   5.376   2.687   5.722 -0.2742  0.0784 -0.4497
   77SOPE   H4X 6891   5.479   2.717   5.694 -0.4959  0.8839 -0.4289
   77SOPE   H4Y 6892   5.350   2.762   5.799 -0.1644  1.3195 -1.5976
   77SOPE   C35 6893   5.287   2.713   5.596  0.3712  0.6187  0.7145
   77SOPE   H5X 6894   5.278   2.822   5.578 -5.0529  0.2869 -0.2546
   77SOPE   H5Y 6895   5.187   2.668   5.615  1.1833 -1.5449  0.1864
   77SOPE   C36 6896   5.358   2.664   5.468 -0.7326 -0.1882  0.8659
   77SOPE   H6X 6897   5.383   2.556   5.479  4.7124  0.8169  1.0051
   77SOPE   H6Y 6898   5.460   2.707   5.470 -1.2178  1.0169  2.8257
   77SOPE   C37 6899   5.296   2.702   5.330 -0.6015  0.0482  0.6197
   77SOPE   H7X 6900   5.305   2.811   5.314  0.3018 -0.1053  0.0310
   77SOPE   H7Y 6901   5.192   2.662   5.330 -0.3122 -0.8318 -1.0630
   77SOPE   C38 6902   5.375   2.632   5.214 -0.5209 -0.0711 -0.1230
   77SOPE   H8X 6903   5.391   2.525   5.240  1.7909 -0.1434 -1.5130
   77SOPE   H8Y 6904   5.476   2.676   5.200 -0.0120 -1.7497 -2.3379
   77SOPE   C39 6905   5.309   2.639   5.070 -0.4956 -0.7420  0.1091
   77SOPE   H9X 6906   5.213   2.585   5.062 -2.6517  3.1346 -3.3654
   77SOPE   H9Y 6907   5.367   2.581   4.995 -2.3189 -0.4530 -1.5796
   77SOPE  C310 6908   5.279   2.785   5.024 -0.0145 -0.1537 -0.1349
   77SOPE  H10X 6909   5.376   2.835   5.001 -1.6246  2.8593 -0.8834
   77SOPE  H10Y 6910   5.245   2.842   5.113  3.4380  2.2132 -0.1152
   77SOPE  C311 6911   5.189   2.805   4.901  0.2617 -0.5685 -0.5456
   77SOPE  H11X 6912   5.176   2.915   4.891  0.6370 -0.4555  0.1197
   77SOPE  H11Y 6913   5.087   2.766   4.922 -1.3904  1.8835 -3.3190
   77SOPE  C312 6914   5.250   2.749   4.769 -0.1804  0.4287 -0.5215
   77SOPE  H12X 6915   5.354   2.713   4.789 -0.8073 -2.2546 -1.5960
   77SOPE  H12Y 6916   5.262   2.826   4.691  2.8246  0.9984  0.3774
   77SOPE  C313 6917   5.169   2.647   4.699  0.1469  0.0589 -0.5016
   77SOPE  H13X 6918   5.069   2.679   4.665 -0.3871  2.5012  2.9151
   77SOPE  H13Y 6919   5.142   2.572   4.776 -0.4363 -0.6468 -1.3764
   77SOPE  C314 6920   5.245   2.573   4.591 -0.1603 -0.1990 -0.4721
   77SOPE  H14X 6921   5.351   2.561   4.620  0.5386  0.4672 -2.5221
   77SOPE  H14Y 6922   5.243   2.648   4.509 -0.9373  1.6044  1.1312
   77SOPE  C315 6923   5.190   2.435   4.561 -0.3753 -0.5388  0.7874
   77SOPE  H15X 6924   5.080   2.444   4.544 -0.3439  0.7925  1.1869
   77SOPE  H15Y 6925   5.202   2.364   4.646 -4.6079 -0.0639  2.0406
   77SOPE  C316 6926   5.245   2.392   4.426 -0.5773 -0.0521 -0.6457
   77SOPE  H16X 6927   5.356   2.401   4.423 -0.0072 -4.5133 -0.4360
   77SOPE  H16Y 6928   5.204   2.462   4.351 -2.3659 -0.3971 -0.0255
   77SOPE  C317 6929   5.217   2.248   4.394  0.1732  1.0752  0.4062
   77SOPE  H17X 6930   5.108   2.234   4.385  0.1928 -1.3060  2.5982
   77SOPE  H17Y 6931   5.257   2.193   4.482  0.2880  3.9214  2.2746
   77SOPE  C318 6932   5.301   2.191   4.276 -0.3761 -0.7516 -0.3696
   77SOPE  H18X 6933   5.400   2.238   4.258 -0.5722 -0.0911  0.2255
   77SOPE  H18Y 6934   5.244   2.206   4.182 -2.1255  0.6062  0.8271
   77SOPE  H18Z 6935   5.327   2.085   4.296  1.8421 -0.2031 -0.0568
   78SOPE     N 6936   4.967   2.717   6.432 -0.1482  0.3943 -0.3017
   78SOPE   HN1 6937   4.867   2.721   6.406 -0.6407 -1.8085  0.9394
   78SOPE   HN2 6938   4.970   2.749   6.531 -0.4635 -0.9552  0.1766
   78SOPE   HN3 6939   5.019   2.778   6.367  1.2875 -0.8234 -0.3677
   78SOPE   C12 6940   5.013   2.573   6.436 -0.3705  0.2366 -0.0859
   78SOPE  H12A 6941   5.044   2.563   6.542  0.3745  0.9657 -0.2234
   78SOPE  H12B 6942   5.099   2.563   6.367 -0.4210  0.5973 -0.2038
   78SOPE   C11 6943   4.898   2.469   6.400 -0.1572 -0.2432 -0.0729
   78SOPE  H11A 6944   4.957   2.375   6.412  2.8169  1.5447  0.1950
   78SOPE  H11B 6945   4.868   2.476   6.293 -0.4034  1.6172  0.0944
   78SOPE     P 6946   4.657   2.533   6.448 -0.6872  0.5818  0.8724
   78SOPE   O13 6947   4.693   2.652   6.368 -0.3245 -0.5379  0.2192
   78SOPE   O14 6948   4.564   2.532   6.559 -0.1604 -0.1752  0.3647
   78SOPE   O12 6949   4.789   2.459   6.492  0.3831 -0.8377  0.6335
   78SOPE   O11 6950   4.618   2.416   6.351  0.8595 -0.1190 -0.0482
   78SOPE    C1 6951   4.609   2.284   6.395 -0.1608  0.2757  0.3444
   78SOPE    HA 6952   4.517   2.256   6.451  0.2544 -0.9411  0.4519
   78SOPE    HB 6953   4.685   2.244   6.466  1.1970 -1.3094 -1.9008
   78SOPE    C2 6954   4.624   2.188   6.272 -0.2436  0.5042  0.3835
   78SOPE    HS 6955   4.639   2.086   6.314  1.3819  0.3313 -0.5582
   78SOPE   O21 6956   4.735   2.212   6.181 -0.7621  0.2101 -0.0642
   78SOPE   C21 6957   4.850   2.183   6.229 -0.5462  1.0911 -0.2225
   78SOPE   O22 6958   4.881   2.134   6.337  0.2836 -1.0787 -0.6518
   78SOPE   C22 6959   4.952   2.217   6.117  0.1144 -0.6717  0.4746
   78SOPE   H2R 6960   4.950   2.328   6.111 -3.2815 -0.6291  0.5861
   78SOPE   H2S 6961   4.914   2.167   6.025  4.0689 -1.9686 -0.6761
   78SOPE    C3 6962   4.491   2.169   6.192  0.0851  0.0167  0.3202
   78SOPE    HX 6963   4.468   2.268   6.146 -0.5855 -1.0555 -1.7445
   78SOPE    HY 6964   4.417   2.144   6.271 -0.3787  0.5147  0.0522
   78SOPE   O31 6965   4.503   2.063   6.096  0.1301  0.1199 -0.3221
   78SOPE   C31 6966   4.552   2.100   5.977  0.1389 -0.0623 -0.7737
   78SOPE   O32 6967   4.590   2.213   5.946  0.4722 -0.1249 -0.2956
   78SOPE   C32 6968   4.534   1.977   5.880 -0.6609 -0.3558 -0.6042
   78SOPE   H2X 6969   4.424   1.977   5.865 -0.9009  1.2025  0.8359
   78SOPE   H2Y 6970   4.558   1.888   5.942  3.5957  0.0036 -1.4478
   78SOPE   C23 6971   5.099   2.180   6.143 -0.9494  0.5557 -0.8953
   78SOPE   H3R 6972   5.095   2.070   6.158  0.1860  0.3408 -1.9541
   78SOPE   H3S 6973   5.136   2.229   6.235 -0.3244 -0.4976 -0.5644
   78SOPE   C24 6974   5.186   2.223   6.032  0.1583  0.1994 -0.5200
   78SOPE   H4R 6975   5.168   2.330   6.012 -0.5026  0.1485 -0.2188
   78SOPE   H4S 6976   5.291   2.200   6.061  0.3647 -0.0380 -1.4237
   78SOPE   C25 6977   5.171   2.138   5.902 -0.7281 -0.1755 -0.0941
   78SOPE   H5R 6978   5.208   2.040   5.936 -0.1922 -0.6510 -1.9497
   78SOPE   H5S 6979   5.066   2.127   5.866 -1.0803 -0.7576  1.0710
   78SOPE   C26 6980   5.271   2.181   5.792 -0.0554  0.1028 -0.2105
   78SOPE   H6R 6981   5.237   2.280   5.755 -2.6182 -0.9482 -0.8300
   78SOPE   H6S 6982   5.362   2.199   5.854  0.1851  2.2397 -1.0698
   78SOPE   C27 6983   5.297   2.076   5.680  0.2130 -0.4351 -0.3657
   78SOPE   H7R 6984   5.317   1.980   5.732  1.0109 -1.4053 -2.3405
   78SOPE   H7S 6985   5.210   2.055   5.615 -0.9180 -0.1486  1.0112
   78SOPE   C28 6986   5.420   2.115   5.599 -0.1473  0.0470  0.3376
   78SOPE   H8R 6987   5.508   2.152   5.657  1.0038  0.3013 -1.4994
   78SOPE   H8S 6988   5.455   2.015   5.565 -0.1323  0.8813 -2.3142
   78SOPE   C29 6989   5.376   2.210   5.488 -0.2018  0.4486  0.3882
   78SOPE   H91 6990   5.362   2.312   5.527 -2.1481 -0.3985  2.1318
   78SOPE  C210 6991   5.356   2.192   5.354 -0.1793 -0.1096  0.4192
   78SOPE  H101 6992   5.326   2.277   5.290  0.8120  0.9251  1.2747
   78SOPE  C211 6993   5.382   2.062   5.287 -0.3151  0.4945 -0.2328
   78SOPE  H11R 6994   5.378   1.975   5.356 -1.1895 -0.6727 -1.6940
   78SOPE  H11S 6995   5.489   2.068   5.260  0.5447 -0.5728  2.6560
   78SOPE  C212 6996   5.302   2.036   5.158  0.6286  0.0924 -0.0746
   78SOPE  H12R 6997   5.282   2.127   5.099  3.4049  0.1488 -1.0465
   78SOPE  H12S 6998   5.202   2.002   5.192 -0.2226 -0.7256 -3.0728
   78SOPE  C213 6999   5.348   1.933   5.054  0.0950  0.0799  0.0351
   78SOPE  H13R 7000   5.265   1.900   4.989 -1.2904 -2.7321  2.9552
   78SOPE  H13S 7001   5.387   1.843   5.106  1.2557  0.7132  0.3061
   78SOPE  C214 7002   5.461   1.983   4.971  0.2681 -0.2136  0.0946
   78SOPE  H14R 7003   5.497   1.892   4.919 -2.6881 -1.0367 -0.7118
   78SOPE  H14S 7004   5.542   2.026   5.034  0.5439 -1.2425  0.4568
   78SOPE  C215 7005   5.417   2.081   4.859  0.2331  0.3766 -0.2693
   78SOPE  H15R 7006   5.392   2.183   4.895 -0.4721 -0.1266  0.7236
   78SOPE  H15S 7007   5.320   2.048   4.815 -0.3777 -1.6687  2.3421
   78SOPE  C216 7008   5.525   2.096   4.748  0.3759 -0.6445 -0.1860
   78SOPE  H16R 7009   5.478   2.150   4.663 -0.7634  0.3199  1.0204
   78SOPE  H16S 7010   5.542   1.993   4.710  1.6102 -0.1280 -1.1282
   78SOPE  C217 7011   5.661   2.148   4.795 -0.7890 -0.2365 -0.0936
   78SOPE  H17R 7012   5.704   2.091   4.880 -3.4650  1.0396  2.2812
   78SOPE  H17S 7013   5.640   2.248   4.838 -3.9873 -0.7981 -0.1228
   78SOPE  C218 7014   5.767   2.145   4.688 -0.0050  0.3515 -0.2812
   78SOPE  H18R 7015   5.860   2.190   4.728 -0.4157  1.8064 -0.8929
   78SOPE  H18S 7016   5.735   2.211   4.604 -1.9041  0.8103  0.7504
   78SOPE  H18T 7017   5.786   2.042   4.651  1.3976  0.7306 -0.6679
   78SOPE   C33 7018   4.621   1.980   5.753  0.0684 -1.0662  0.0499
   78SOPE   H3X 7019   4.698   1.903   5.773 -0.5864 -2.6702 -2.9043
   78SOPE   H3Y 7020   4.664   2.082   5.740 -1.3901 -0.0017  2.8568
   78SOPE   C34 7021   4.540   1.936   5.634 -0.2174  0.4559 -0.3138
   78SOPE   H4X 7022   4.445   1.991   5.620 -1.2340 -1.1804 -0.1543
   78SOPE   H4Y 7023   4.507   1.831   5.649 -1.1158  0.3563 -2.5612
   78SOPE   C35 7024   4.614   1.948   5.497  0.0330  0.1538  0.4171
   78SOPE   H5X 7025   4.697   1.875   5.508  0.0163 -0.1244 -1.0874
   78SOPE   H5Y 7026   4.659   2.048   5.484 -0.7292  0.4907  0.3017
   78SOPE   C36 7027   4.532   1.896   5.385 -0.2613 -0.0805  0.3610
   78SOPE   H6X 7028   4.441   1.957   5.371 -0.7931 -1.0040 -0.3398
   78SOPE   H6Y 7029   4.486   1.800   5.419 -0.9049  0.6061  1.4638
   78SOPE   C37 7030   4.609   1.870   5.257 -0.1630  0.0744  0.3685
   78SOPE   H7X 7031   4.668   1.776   5.269  0.6869  0.2379 -1.9887
   78SOPE   H7Y 7032   4.681   1.952   5.237  0.6882 -0.7320  0.0429
   78SOPE   C38 7033   4.523   1.824   5.138  0.5725 -0.4242 -0.1978
   78SOPE   H8X 7034   4.433   1.884   5.113  0.6912 -0.9136 -1.9062
   78SOPE   H8Y 7035   4.477   1.726   5.163  0.5151 -0.0048  1.4982
   78SOPE   C39 7036   4.597   1.797   5.013 -0.3153 -0.9521  0.1303
   78SOPE   H9X 7037   4.648   1.698   5.016 -2.3874 -2.0540  1.2150
   78SOPE   H9Y 7038   4.664   1.884   4.994 -0.1939 -0.7944  1.2232
   78SOPE  C310 7039   4.511   1.782   4.888  0.2815  0.3499  0.9862
   78SOPE  H10X 7040   4.436   1.862   4.869 -0.6713 -1.2371 -3.0925
   78SOPE  H10Y 7041   4.454   1.687   4.889 -0.1668  0.5166 -1.5073
   78SOPE  C311 7042   4.598   1.786   4.762 -0.0305  0.0875  0.1209
   78SOPE  H11X 7043   4.692   1.727   4.767  1.1845  1.9804  0.6337
   78SOPE  H11Y 7044   4.639   1.889   4.757  0.1848 -0.0517 -1.6682
   78SOPE  C312 7045   4.519   1.780   4.628  0.6911  0.2584  0.5015
   78SOPE  H12X 7046   4.465   1.875   4.613  0.8201  0.4879  1.4417
   78SOPE  H12Y 7047   4.438   1.706   4.646  0.5759  0.1046 -0.5451
   78SOPE  C313 7048   4.599   1.734   4.507 -0.1628 -0.5599 -0.1038
   78SOPE  H13X 7049   4.659   1.644   4.534  0.0848 -1.0179 -2.0068
   78SOPE  H13Y 7050   4.666   1.802   4.451  0.3015 -2.0988 -1.5102
   78SOPE  C314 7051   4.518   1.681   4.389 -0.1291  0.3076 -0.0785
   78SOPE  H14X 7052   4.498   1.768   4.322  1.0194  2.3442  2.0675
   78SOPE  H14Y 7053   4.419   1.642   4.421 -0.5308  2.5795  1.7054
   78SOPE  C315 7054   4.578   1.551   4.317 -0.4475 -0.7207 -0.6393
   78SOPE  H15X 7055   4.597   1.481   4.401 -0.0781  0.3959  0.2421
   78SOPE  H15Y 7056   4.684   1.578   4.295 -0.1041 -1.4441  0.0923
   78SOPE  C316 7057   4.499   1.516   4.193 -0.3449  0.2585  0.5664
   78SOPE  H16X 7058   4.389   1.521   4.207 -0.5195 -0.9328 -0.2325
   78SOPE  H16Y 7059   4.518   1.410   4.168  3.0692  0.9085 -0.0063
   78SOPE  C317 7060   4.542   1.603   4.070  0.3513 -0.1156  0.2651
   78SOPE  H17X 7061   4.622   1.545   4.019 -0.2899 -2.0571  1.3697
   78SOPE  H17Y 7062   4.582   1.703   4.099  0.0246  0.9120 -2.4932
   78SOPE  C318 7063   4.435   1.624   3.959  0.0645 -0.3086  0.0742
   78SOPE  H18X 7064   4.352   1.684   4.003  0.4349  0.9072 -0.8196
   78SOPE  H18Y 7065   4.380   1.534   3.923  0.0848  0.2852 -1.5561
   78SOPE  H18Z 7066   4.471   1.690   3.876  0.9632 -0.1499  0.5783
   79SOPE     N 7067   0.071   6.182   6.938  0.8309 -0.0133  0.4104
   79SOPE   HN1 7068  -0.031   6.191   6.918  1.2736  1.4802 -1.4166
   79SOPE   HN2 7069   0.090   6.088   6.980  0.9366 -1.3744 -2.4282
   79SOPE   HN3 7070   0.092   6.256   7.008  1.0574 -0.7387  1.1273
   79SOPE   C12 7071   0.157   6.210   6.817  0.4485 -0.5185  0.1025
   79SOPE  H12A 7072   0.135   6.121   6.754  1.0951 -1.3191  0.9918
   79SOPE  H12B 7073   0.260   6.208   6.857  0.5391  3.6897  0.4987
   79SOPE   C11 7074   0.120   6.350   6.754 -0.4384 -0.1537  0.4714
   79SOPE  H11A 7075   0.018   6.358   6.712  0.5551  2.1956 -1.7974
   79SOPE  H11B 7076   0.184   6.344   6.664 -0.1920  3.0175  0.3142
   79SOPE     P 7077   0.294   6.534   6.799 -0.0173 -0.0932 -0.6651
   79SOPE   O13 7078   0.387   6.441   6.724  0.6550 -0.4553  0.6821
   79SOPE   O14 7079   0.352   6.592   6.922 -0.1871  0.1186 -0.4689
   79SOPE   O12 7080   0.162   6.461   6.841 -0.8893 -0.0702  0.5428
   79SOPE   O11 7081   0.243   6.650   6.713 -0.2124 -0.2759  0.8701
   79SOPE    C1 7082   0.149   6.662   6.600  0.0764 -0.5300  0.3144
   79SOPE    HA 7083   0.058   6.712   6.640 -0.5186 -2.5141  1.5950
   79SOPE    HB 7084   0.117   6.562   6.564 -0.1536 -0.2220 -0.3559
   79SOPE    C2 7085   0.191   6.757   6.484  0.9164 -0.4650  0.0230
   79SOPE    HS 7086   0.098   6.803   6.445 -0.2038 -1.4487  1.4634
   79SOPE   O21 7087   0.254   6.690   6.375 -0.0917  0.2806  0.0563
   79SOPE   C21 7088   0.196   6.585   6.314 -0.2314 -0.0542  0.0828
   79SOPE   O22 7089   0.077   6.556   6.323  0.3199  0.3564 -0.4445
   79SOPE   C22 7090   0.298   6.510   6.224 -0.0142 -1.0555 -0.9081
   79SOPE   H2R 7091   0.369   6.438   6.270  1.0672 -0.3522 -1.4123
   79SOPE   H2S 7092   0.365   6.592   6.191 -0.5731 -0.3800 -0.4055
   79SOPE    C3 7093   0.275   6.876   6.540 -0.4279 -0.0691  0.1613
   79SOPE    HX 7094   0.370   6.846   6.590 -0.4179  0.2232  0.3222
   79SOPE    HY 7095   0.221   6.922   6.626  1.8220  0.8399  1.1715
   79SOPE   O31 7096   0.305   6.981   6.442 -0.3135 -0.5333  0.0692
   79SOPE   C31 7097   0.417   6.958   6.376 -0.4236 -0.0725 -0.1382
   79SOPE   O32 7098   0.489   6.864   6.394  0.1481  0.4990  0.6907
   79SOPE   C32 7099   0.443   7.060   6.265  0.1237 -0.2794  0.2705
   79SOPE   H2X 7100   0.468   7.157   6.312  1.2713 -0.5038  0.1610
   79SOPE   H2Y 7101   0.345   7.074   6.215  0.0655 -1.9261 -0.1504
   79SOPE   C23 7102   0.221   6.455   6.099 -0.5241 -0.3766 -0.6166
   79SOPE   H3R 7103   0.161   6.532   6.047 -1.1549 -1.6139 -1.8023
   79SOPE   H3S 7104   0.145   6.381   6.135  0.8045 -2.6020 -2.1101
   79SOPE   C24 7105   0.314   6.399   5.991 -0.5070  0.1840  0.6850
   79SOPE   H4R 7106   0.407   6.459   5.983 -1.1855  1.0710 -1.2788
   79SOPE   H4S 7107   0.346   6.300   6.031  0.1142  0.4673  0.9043
   79SOPE   C25 7108   0.255   6.374   5.853  0.4037 -0.5935 -0.1753
   79SOPE   H5R 7109   0.236   6.477   5.817  1.6535 -0.0820  0.5323
   79SOPE   H5S 7110   0.336   6.329   5.791  0.5270  0.3654 -0.7286
   79SOPE   C26 7111   0.123   6.299   5.851  0.4035  0.0677 -0.4479
   79SOPE   H6R 7112   0.126   6.201   5.902 -0.2238 -0.8781 -2.1411
   79SOPE   H6S 7113   0.054   6.363   5.910  1.5727 -0.9528  2.1750
   79SOPE   C27 7114   0.061   6.279   5.713  0.1604 -0.2745  0.0823
   79SOPE   H7R 7115   0.049   6.378   5.663 -0.9346  0.5077  1.7902
   79SOPE   H7S 7116   0.138   6.225   5.655 -0.9006  0.2019 -1.9035
   79SOPE   C28 7117  -0.068   6.194   5.712  0.1882  0.2592  0.6965
   79SOPE   H8R 7118  -0.091   6.173   5.606  0.3230 -2.4865  1.1302
   79SOPE   H8S 7119  -0.053   6.104   5.776  0.6912  0.8636  1.4546
   79SOPE   C29 7120  -0.198   6.266   5.757  0.4058  0.4356  0.3258
   79SOPE   H91 7121  -0.186   6.346   5.832  2.1753  0.6997 -0.2066
   79SOPE  C210 7122  -0.326   6.250   5.708  0.7143 -0.4365 -0.1358
   79SOPE  H101 7123  -0.401   6.326   5.733  1.6951  0.1413  1.1898
   79SOPE  C211 7124  -0.374   6.144   5.609  0.3602  0.0912 -0.9828
   79SOPE  H11R 7125  -0.467   6.096   5.647  1.1362  0.2554  1.2939
   79SOPE  H11S 7126  -0.298   6.065   5.595  1.9384  1.5378 -0.9765
   79SOPE  C212 7127  -0.402   6.192   5.471  0.7032 -0.5843 -0.4033
   79SOPE  H12R 7128  -0.311   6.244   5.434 -0.1397  1.4723  0.2255
   79SOPE  H12S 7129  -0.477   6.274   5.477  1.7136  0.6452 -3.0458
   79SOPE  C213 7130  -0.450   6.081   5.382  0.5886  0.1870 -0.3001
   79SOPE  H13R 7131  -0.535   6.031   5.432 -1.1433  0.9399 -2.3009
   79SOPE  H13S 7132  -0.371   6.005   5.369  1.4560  0.8008  1.1891
   79SOPE  C214 7133  -0.503   6.129   5.242  0.9297  0.4415  0.7275
   79SOPE  H14R 7134  -0.426   6.193   5.194  0.6740 -0.6195 -1.1980
   79SOPE  H14S 7135  -0.595   6.189   5.258 -0.3648 -1.2682  0.1191
   79SOPE  C215 7136  -0.544   6.013   5.150 -0.0439 -0.7176 -0.0652
   79SOPE  H15R 7137  -0.643   5.978   5.183 -0.3279 -2.8767 -2.8457
   79SOPE  H15S 7138  -0.471   5.929   5.159  0.8463  0.0241 -0.1435
   79SOPE  C216 7139  -0.558   6.071   5.004 -0.0109 -0.3437 -0.0736
   79SOPE  H16R 7140  -0.469   6.135   4.987 -1.3291  2.0192  1.3072
   79SOPE  H16S 7141  -0.650   6.132   4.991  0.0681 -0.1698  0.1680
   79SOPE  C217 7142  -0.554   5.964   4.891  0.8281  0.0123  0.8415
   79SOPE  H17R 7143  -0.653   5.915   4.903  0.9403 -1.0111 -1.6941
   79SOPE  H17S 7144  -0.471   5.902   4.931 -0.9208 -1.4557  2.4012
   79SOPE  C218 7145  -0.532   6.011   4.751 -0.1683  0.4788 -1.1733
   79SOPE  H18R 7146  -0.449   6.084   4.757 -0.2858  0.4764  1.5936
   79SOPE  H18S 7147  -0.623   6.044   4.696  0.0957  0.1961 -1.7872
   79SOPE  H18T 7148  -0.494   5.924   4.692  0.6663 -0.7114  1.0096
   79SOPE   C33 7149   0.550   7.015   6.169 -0.0311 -0.1947  0.2943
   79SOPE   H3X 7150   0.513   6.917   6.132 -1.0191  0.7601 -1.3624
   79SOPE   H3Y 7151   0.654   7.002   6.206  0.9708  0.8915 -1.9650
   79SOPE   C34 7152   0.561   7.109   6.049 -0.1543 -0.3729 -0.3288
   79SOPE   H4X 7153   0.590   7.206   6.095  0.7858 -0.6903 -0.2169
   79SOPE   H4Y 7154   0.461   7.116   6.003  0.8035 -2.0400 -2.8426
   79SOPE   C35 7155   0.656   7.072   5.948  0.1789 -0.4400 -0.9182
   79SOPE   H5X 7156   0.629   6.965   5.935 -1.0370 -0.9719  3.9535
   79SOPE   H5Y 7157   0.759   7.087   5.987 -0.3516  2.2717 -0.3896
   79SOPE   C36 7158   0.625   7.151   5.823 -0.3456  0.1033  0.2513
   79SOPE   H6X 7159   0.642   7.259   5.842 -1.2353  1.0031 -3.3474
   79SOPE   H6Y 7160   0.521   7.137   5.788 -0.4234 -1.4704  1.0001
   79SOPE   C37 7161   0.712   7.115   5.701 -0.3153  0.0882  0.2405
   79SOPE   H7X 7162   0.743   7.009   5.717  2.2744  1.1380  3.0181
   79SOPE   H7Y 7163   0.811   7.165   5.713  0.6393 -1.7050  0.3078
   79SOPE   C38 7164   0.659   7.147   5.564  0.2299 -0.6034  0.0285
   79SOPE   H8X 7165   0.601   7.241   5.568 -0.4534 -1.0382  0.7149
   79SOPE   H8Y 7166   0.576   7.076   5.542 -1.0964  0.7077  0.6597
   79SOPE   C39 7167   0.776   7.163   5.470  0.1336  0.9592  0.5089
   79SOPE   H9X 7168   0.832   7.067   5.466  0.6059  1.1436  2.1039
   79SOPE   H9Y 7169   0.847   7.238   5.510 -1.5976  1.9641  1.8665
   79SOPE  C310 7170   0.735   7.196   5.327  0.5929 -0.1378  0.2859
   79SOPE  H10X 7171   0.654   7.273   5.324  0.7232 -0.0089  0.0302
   79SOPE  H10Y 7172   0.687   7.106   5.283 -1.4918  0.4316  1.2669
   79SOPE  C311 7173   0.843   7.254   5.238  0.2439 -0.8359  0.1414
   79SOPE  H11X 7174   0.925   7.179   5.237 -0.2339 -1.3635 -0.0665
   79SOPE  H11Y 7175   0.879   7.348   5.284 -2.3861  0.4162 -0.1844
   79SOPE  C312 7176   0.786   7.284   5.097 -0.0071  0.4886  0.0549
   79SOPE  H12X 7177   0.698   7.350   5.111 -1.3258 -1.1538 -0.1088
   79SOPE  H12Y 7178   0.748   7.188   5.056 -1.0215  0.4857  0.9697
   79SOPE  C313 7179   0.891   7.340   4.999 -0.9013  0.5720 -0.1356
   79SOPE  H13X 7180   0.977   7.270   5.009 -0.5651  0.8339 -1.0779
   79SOPE  H13Y 7181   0.928   7.443   5.018 -2.2811  0.9661  0.5326
   79SOPE  C314 7182   0.856   7.324   4.849 -0.2336 -0.0198  1.0063
   79SOPE  H14X 7183   0.824   7.219   4.830  1.9294 -0.9000  1.9795
   79SOPE  H14Y 7184   0.947   7.344   4.789 -2.9296  4.8760 -2.1438
   79SOPE  C315 7185   0.735   7.408   4.810  0.0104 -0.3770 -0.1414
   79SOPE  H15X 7186   0.753   7.514   4.840 -1.4500  0.1210 -0.9268
   79SOPE  H15Y 7187   0.640   7.379   4.857 -0.9028  0.4553 -1.3934
   79SOPE  C316 7188   0.721   7.413   4.660  0.0289  0.1053  0.0533
   79SOPE  H16X 7189   0.705   7.307   4.633  2.8622  0.0162 -1.6160
   79SOPE  H16Y 7190   0.817   7.439   4.610 -0.0341  1.9772  0.7980
   79SOPE  C317 7191   0.604   7.499   4.607  0.4927  0.1889 -0.3834
   79SOPE  H17X 7192   0.622   7.607   4.626 -1.6720  0.3760  0.9488
   79SOPE  H17Y 7193   0.511   7.463   4.655  0.6890 -1.0168 -0.8758
   79SOPE  C318 7194   0.573   7.464   4.460 -0.1638 -0.2318 -0.1774
   79SOPE  H18X 7195   0.639   7.520   4.390 -0.0035 -0.0836  0.0886
   79SOPE  H18Y 7196   0.466   7.478   4.434 -0.3764 -1.0848  0.2105
   79SOPE  H18Z 7197   0.585   7.357   4.433  1.4009 -0.2608  0.4953
   80SOPE     N 7198   4.229   1.090   6.229 -0.4205  0.7202  0.3977
   80SOPE   HN1 7199   4.189   1.086   6.325  2.1811 -0.5914  1.5492
   80SOPE   HN2 7200   4.154   1.082   6.158 -1.5166 -0.5269  1.6204
   80SOPE   HN3 7201   4.295   1.010   6.218 -1.0968  0.2107 -0.0401
   80SOPE   C12 7202   4.293   1.219   6.202 -0.2811  0.4692 -0.3208
   80SOPE  H12A 7203   4.336   1.210   6.100  0.8678  0.3984  0.1565
   80SOPE  H12B 7204   4.369   1.234   6.281 -2.0007  1.1205  1.3009
   80SOPE   C11 7205   4.199   1.337   6.212  0.5826 -0.1936 -0.0551
   80SOPE  H11A 7206   4.118   1.313   6.140  1.3396 -2.0993 -0.3318
   80SOPE  H11B 7207   4.247   1.425   6.164 -1.0870  0.2609 -0.9730
   80SOPE     P 7208   4.236   1.426   6.467  0.2762 -0.0290  0.0491
   80SOPE   O13 7209   4.295   1.314   6.539 -0.5875  0.1137  0.0246
   80SOPE   O14 7210   4.157   1.529   6.551 -0.1709 -0.2128  0.0504
   80SOPE   O12 7211   4.151   1.364   6.345  0.1251  0.6246  0.0465
   80SOPE   O11 7212   4.354   1.509   6.402 -0.2542 -0.0789 -0.3939
   80SOPE    C1 7213   4.345   1.652   6.390 -0.2747  0.1036  0.1130
   80SOPE    HA 7214   4.370   1.704   6.485 -1.7936  0.4168  0.3595
   80SOPE    HB 7215   4.243   1.687   6.363 -1.2264 -0.1649  3.0060
   80SOPE    C2 7216   4.443   1.703   6.283  0.1246 -0.0840  0.2663
   80SOPE    HS 7217   4.456   1.812   6.303  2.5817 -0.0892 -0.9496
   80SOPE   O21 7218   4.382   1.693   6.150 -0.2893 -0.2910 -0.0804
   80SOPE   C21 7219   4.276   1.758   6.121 -0.4381  0.4239  0.3509
   80SOPE   O22 7220   4.211   1.832   6.190 -0.0814 -0.1129  0.4218
   80SOPE   C22 7221   4.261   1.735   5.968  0.1707 -0.6902  0.2613
   80SOPE   H2R 7222   4.275   1.626   5.950 -2.1344 -0.7775 -1.3617
   80SOPE   H2S 7223   4.338   1.786   5.906  0.6448 -0.3419  1.1136
   80SOPE    C3 7224   4.576   1.631   6.288 -0.0987  0.7289 -0.2520
   80SOPE    HX 7225   4.553   1.528   6.252 -0.7134  0.9520 -0.5190
   80SOPE    HY 7226   4.604   1.615   6.395  0.4559 -3.6169 -0.8352
   80SOPE   O31 7227   4.684   1.694   6.214  0.3369 -0.1629  0.1546
   80SOPE   C31 7228   4.684   1.682   6.084 -0.4633 -0.3934 -0.0411
   80SOPE   O32 7229   4.619   1.605   6.017 -0.3006 -0.0405  0.3570
   80SOPE   C32 7230   4.801   1.760   6.027  0.0725 -0.3497  0.2112
   80SOPE   H2X 7231   4.877   1.757   6.107 -1.3669  0.1014  1.6485
   80SOPE   H2Y 7232   4.777   1.868   6.018  1.3774  0.2642  3.1608
   80SOPE   C23 7233   4.126   1.796   5.918  0.2861 -0.1087 -0.8639
   80SOPE   H3R 7234   4.125   1.906   5.936 -0.5952 -0.5433  2.5129
   80SOPE   H3S 7235   4.049   1.745   5.979  2.0936 -1.6851  0.2327
   80SOPE   C24 7236   4.108   1.777   5.765  0.2083  0.2374 -0.2253
   80SOPE   H4R 7237   4.137   1.675   5.732 -2.7195 -0.9271  0.5339
   80SOPE   H4S 7238   3.998   1.773   5.750  0.0852 -0.5796  0.7447
   80SOPE   C25 7239   4.173   1.880   5.666  0.1703  0.1520  0.1617
   80SOPE   H5R 7240   4.135   1.984   5.675  0.3694  0.5019 -2.3787
   80SOPE   H5S 7241   4.283   1.875   5.687  0.3296 -1.3413 -0.9182
   80SOPE   C26 7242   4.160   1.856   5.512  0.0948 -0.2139 -0.1421
   80SOPE   H6R 7243   4.052   1.871   5.491  0.0099 -1.1976 -0.4564
   80SOPE   H6S 7244   4.215   1.942   5.468  0.7582 -0.1264  0.8339
   80SOPE   C27 7245   4.216   1.722   5.473 -0.7232  0.4280  0.1183
   80SOPE   H7R 7246   4.322   1.713   5.507 -0.7742  0.0117  0.1794
   80SOPE   H7S 7247   4.154   1.642   5.519 -0.4435  0.2661  0.2212
   80SOPE   C28 7248   4.224   1.706   5.318  0.4096 -0.1619 -0.0209
   80SOPE   H8R 7249   4.279   1.796   5.284 -0.9991  0.4387 -0.8149
   80SOPE   H8S 7250   4.279   1.617   5.282  1.4241  0.2647  0.4236
   80SOPE   C29 7251   4.089   1.678   5.255 -0.0455 -1.2910 -0.4123
   80SOPE   H91 7252   4.057   1.574   5.269 -0.5311 -0.8052  3.0090
   80SOPE  C210 7253   4.014   1.755   5.174  0.2474  0.0659 -0.0263
   80SOPE  H101 7254   3.913   1.720   5.146 -0.1299  1.3223 -0.3125
   80SOPE  C211 7255   4.039   1.893   5.141  0.5254 -0.1449 -0.0328
   80SOPE  H11R 7256   4.085   1.946   5.227  4.1602 -1.3856 -1.0181
   80SOPE  H11S 7257   3.947   1.949   5.114 -0.0879 -0.9918  0.2842
   80SOPE  C212 7258   4.133   1.909   5.022  0.1143 -0.2079  1.0502
   80SOPE  H12R 7259   4.225   1.847   5.023 -0.4693 -1.2340 -1.4225
   80SOPE  H12S 7260   4.162   2.016   5.036 -0.3020  0.0384  0.1629
   80SOPE  C213 7261   4.067   1.885   4.884  0.5396  0.3386 -0.1881
   80SOPE  H13R 7262   3.989   1.964   4.874 -1.4090 -1.4354  0.2955
   80SOPE  H13S 7263   4.008   1.791   4.886 -2.1480  1.9327  1.1725
   80SOPE  C214 7264   4.168   1.900   4.781 -0.3650 -0.5755 -0.0465
   80SOPE  H14R 7265   4.224   1.804   4.780 -2.4475 -1.8740  0.4075
   80SOPE  H14S 7266   4.246   1.977   4.799 -1.5998  0.7610 -0.2767
   80SOPE  C215 7267   4.099   1.940   4.647  0.3883  0.3125  0.0012
   80SOPE  H15R 7268   4.053   2.039   4.666  0.9997  0.4684  0.6995
   80SOPE  H15S 7269   4.027   1.856   4.629  0.4965 -0.2739  2.0403
   80SOPE  C216 7270   4.194   1.952   4.534 -0.8384 -0.2661  0.3040
   80SOPE  H16R 7271   4.259   1.862   4.534  0.5260  0.6468  2.0736
   80SOPE  H16S 7272   4.261   2.039   4.549 -0.8321 -0.3094  0.5331
   80SOPE  C217 7273   4.131   1.981   4.399  0.0734 -0.5105  0.1077
   80SOPE  H17R 7274   4.092   2.085   4.410 -1.0483 -0.9084  0.0370
   80SOPE  H17S 7275   4.049   1.913   4.366  0.6672 -0.3353 -1.8441
   80SOPE  C218 7276   4.231   1.994   4.289  0.9172  0.2515  0.6194
   80SOPE  H18R 7277   4.294   2.083   4.312  1.2120  0.1530  0.2054
   80SOPE  H18S 7278   4.175   2.001   4.194 -0.2434 -1.8154  1.1037
   80SOPE  H18T 7279   4.288   1.900   4.279 -1.0832 -0.8494 -1.0851
   80SOPE   C33 7280   4.868   1.700   5.898 -0.1337 -0.1059 -0.6939
   80SOPE   H3X 7281   4.779   1.698   5.832 -1.6933 -0.3060  1.3156
   80SOPE   H3Y 7282   4.893   1.593   5.915 -3.3699 -0.7928  0.5062
   80SOPE   C34 7283   4.985   1.792   5.846  0.1085 -1.0116 -0.0147
   80SOPE   H4X 7284   5.057   1.799   5.931  0.2908 -1.2273 -0.1514
   80SOPE   H4Y 7285   4.955   1.897   5.825  4.3142  0.2717 -0.6315
   80SOPE   C35 7286   5.072   1.747   5.733 -0.2296 -0.1626 -0.5087
   80SOPE   H5X 7287   5.079   1.636   5.744 -1.3505 -0.1020  1.3899
   80SOPE   H5Y 7288   5.167   1.803   5.729 -0.1963 -0.1307  0.5321
   80SOPE   C36 7289   5.020   1.766   5.591 -0.3012 -0.0266  0.1344
   80SOPE   H6X 7290   5.011   1.876   5.575 -1.7024 -0.1636 -0.1417
   80SOPE   H6Y 7291   4.917   1.732   5.568 -0.6874  2.1849 -1.8665
   80SOPE   C37 7292   5.118   1.717   5.484  0.7538  0.5225 -0.3958
   80SOPE   H7X 7293   5.118   1.610   5.515 -0.2122  1.2946  2.5579
   80SOPE   H7Y 7294   5.221   1.760   5.484  0.6061  0.8811 -0.2856
   80SOPE   C38 7295   5.052   1.717   5.346  0.0017  0.3808  0.2212
   80SOPE   H8X 7296   4.997   1.813   5.333 -0.0350  0.6524  2.1691
   80SOPE   H8Y 7297   4.975   1.638   5.361  0.8547 -0.1077  2.2535
   80SOPE   C39 7298   5.145   1.666   5.233  0.0177 -0.6476 -0.1651
   80SOPE   H9X 7299   5.182   1.565   5.260 -1.0946 -0.6853  1.3364
   80SOPE   H9Y 7300   5.231   1.729   5.202  0.1363 -1.1009 -0.7689
   80SOPE  C310 7301   5.065   1.653   5.102  0.0041 -0.1761  0.1072
   80SOPE  H10X 7302   5.028   1.753   5.070 -2.9594 -1.5088 -1.0397
   80SOPE  H10Y 7303   4.983   1.586   5.136  0.5702  0.0152  1.9860
   80SOPE  C311 7304   5.147   1.585   4.989  0.9718 -1.0950 -0.1039
   80SOPE  H11X 7305   5.218   1.514   5.037 -2.0108 -2.1084  3.1760
   80SOPE  H11Y 7306   5.221   1.654   4.942  2.8116 -4.5443 -2.7094
   80SOPE  C312 7307   5.062   1.525   4.873 -0.4260  0.4653 -0.2759
   80SOPE  H12X 7308   5.016   1.433   4.915  1.6175  0.0892  1.2914
   80SOPE  H12Y 7309   5.131   1.472   4.803 -1.4031 -2.1311  0.6126
   80SOPE  C313 7310   4.953   1.603   4.805 -0.2731 -0.0763 -0.0040
   80SOPE  H13X 7311   4.886   1.645   4.883  0.0444 -0.2214  0.3496
   80SOPE  H13Y 7312   4.905   1.537   4.730 -0.2711  0.9179 -0.9206
   80SOPE  C314 7313   5.007   1.722   4.728  0.8166  0.2939 -0.0101
   80SOPE  H14X 7314   5.063   1.778   4.807  0.5311 -0.6148  0.8525
   80SOPE  H14Y 7315   4.926   1.794   4.702 -0.7351 -0.7350  1.6987
   80SOPE  C315 7316   5.095   1.691   4.604 -0.2596 -0.1727 -0.0075
   80SOPE  H15X 7317   5.131   1.586   4.595  1.9014  0.4923  0.3262
   80SOPE  H15Y 7318   5.182   1.760   4.596 -0.2774 -0.1862 -0.3330
   80SOPE  C316 7319   5.019   1.732   4.466 -0.1993 -0.8440 -0.2129
   80SOPE  H16X 7320   5.010   1.842   4.472  0.8750 -0.5799 -2.4396
   80SOPE  H16Y 7321   4.916   1.693   4.482 -1.3143  2.3455  1.1109
   80SOPE  C317 7322   5.081   1.669   4.347 -0.3275 -0.1508  0.3597
   80SOPE  H17X 7323   5.064   1.560   4.361  0.4468 -0.0928  1.9707
   80SOPE  H17Y 7324   5.191   1.682   4.354 -0.3956 -0.0266  1.3037
   80SOPE  C318 7325   5.036   1.725   4.213  0.6633 -0.2807 -0.0258
   80SOPE  H18X 7326   5.074   1.656   4.134  0.2685  0.4318 -0.8511
   80SOPE  H18Y 7327   5.079   1.827   4.202  2.3222 -1.1716 -3.1602
   80SOPE  H18Z 7328   4.926   1.730   4.201  0.8458  3.3748 -1.7001
   81SOPE     N 7329   0.725   5.156   6.879 -0.0216 -0.2641 -0.2455
   81SOPE   HN1 7330   0.813   5.202   6.848  0.4484 -1.3556 -0.5644
   81SOPE   HN2 7331   0.648   5.213   6.840  0.5765  0.0096 -1.0511
   81SOPE   HN3 7332   0.710   5.162   6.982 -4.9125 -1.4014 -0.6365
   81SOPE   C12 7333   0.716   5.010   6.833 -0.4658 -0.1782 -0.6211
   81SOPE  H12A 7334   0.695   5.010   6.724  0.9507 -1.6317 -0.9264
   81SOPE  H12B 7335   0.627   4.972   6.888 -2.2756 -1.7168 -4.2788
   81SOPE   C11 7336   0.851   4.939   6.867  0.2553 -0.2932  0.4549
   81SOPE  H11A 7337   0.838   4.832   6.839  0.3779 -0.5442  1.3209
   81SOPE  H11B 7338   0.875   4.945   6.975  0.3398 -0.3910  0.4424
   81SOPE     P 7339   1.092   4.919   6.784 -0.2348 -0.5477 -0.2329
   81SOPE   O13 7340   1.073   4.774   6.797  0.1853 -0.1343 -0.3912
   81SOPE   O14 7341   1.189   4.978   6.878  0.0808  0.1513  0.6209
   81SOPE   O12 7342   0.959   4.993   6.787  0.3755 -0.3601 -0.1361
   81SOPE   O11 7343   1.145   4.952   6.641  0.8032 -0.7328 -0.0132
   81SOPE    C1 7344   1.088   5.040   6.536  0.1709  0.5616 -0.0477
   81SOPE    HA 7345   1.165   5.078   6.464  1.0162  1.1631  1.1457
   81SOPE    HB 7346   1.048   5.131   6.586  0.4401  1.1781 -0.9086
   81SOPE    C2 7347   0.984   4.964   6.449  0.4070  0.0747 -0.3556
   81SOPE    HS 7348   0.910   4.918   6.518 -0.8879  3.5642  0.8041
   81SOPE   O21 7349   1.054   4.862   6.373  0.3153 -0.3015 -0.1125
   81SOPE   C21 7350   1.007   4.736   6.376 -0.0960  1.0109 -0.8242
   81SOPE   O22 7351   0.900   4.701   6.415 -0.0776 -0.2273  0.2228
   81SOPE   C22 7352   1.103   4.649   6.299  1.2135 -0.2382  1.1454
   81SOPE   H2R 7353   1.088   4.544   6.333  1.2114 -0.9473 -0.8975
   81SOPE   H2S 7354   1.208   4.673   6.328  1.2976 -0.3604  0.9464
   81SOPE    C3 7355   0.926   5.072   6.353  1.1567  0.1328 -0.8946
   81SOPE    HX 7356   1.002   5.111   6.283  0.5255  2.3350 -0.4310
   81SOPE    HY 7357   0.915   5.164   6.415  1.8024 -0.7361  0.5811
   81SOPE   O31 7358   0.801   5.027   6.295  0.1737  0.1019 -0.2967
   81SOPE   C31 7359   0.697   4.999   6.373 -0.6152  0.3063 -0.7366
   81SOPE   O32 7360   0.688   5.031   6.490 -0.5255  0.4942  0.2522
   81SOPE   C32 7361   0.595   4.925   6.286 -0.8111 -0.4721 -0.1375
   81SOPE   H2X 7362   0.532   5.004   6.240  0.1317  0.9396  0.9254
   81SOPE   H2Y 7363   0.518   4.870   6.344  0.8252 -2.2397  0.5135
   81SOPE   C23 7364   1.070   4.659   6.151 -0.2802 -0.2606  0.1992
   81SOPE   H3R 7365   0.965   4.690   6.134  0.0398  2.2443  2.0739
   81SOPE   H3S 7366   1.082   4.559   6.106 -0.1529  0.4083 -1.3211
   81SOPE   C24 7367   1.161   4.765   6.078 -0.5763 -0.0304  0.2299
   81SOPE   H4R 7368   1.128   4.866   6.109 -0.6952  0.2122 -0.6582
   81SOPE   H4S 7369   1.266   4.743   6.107 -0.3621  0.5394 -0.1027
   81SOPE   C25 7370   1.152   4.730   5.932 -0.4788 -0.4825  0.1336
   81SOPE   H5R 7371   1.242   4.764   5.878 -1.0706  0.6958 -0.1537
   81SOPE   H5S 7372   1.156   4.619   5.935 -2.6558 -0.5893  0.7845
   81SOPE   C26 7373   1.023   4.789   5.866 -0.6817 -0.0448 -0.7971
   81SOPE   H6R 7374   0.936   4.726   5.895 -0.3686  1.4298  4.2986
   81SOPE   H6S 7375   1.008   4.889   5.913 -1.3876  0.2223 -1.5607
   81SOPE   C27 7376   1.034   4.792   5.714  0.4243  0.4130 -0.6590
   81SOPE   H7R 7377   0.991   4.888   5.679 -0.0742  0.4425  0.0109
   81SOPE   H7S 7378   1.143   4.794   5.694  0.5816  1.1790  0.2198
   81SOPE   C28 7379   0.954   4.691   5.635  0.1185  0.1423  0.1278
   81SOPE   H8R 7380   0.938   4.596   5.689 -0.5924 -1.0746 -2.0861
   81SOPE   H8S 7381   0.858   4.737   5.600 -0.0488 -1.1551 -1.2114
   81SOPE   C29 7382   1.029   4.651   5.507  0.2754  0.0402  0.1846
   81SOPE   H91 7383   1.137   4.639   5.527  0.3110  0.9533  0.5600
   81SOPE  C210 7384   0.977   4.589   5.398 -0.1449  0.1136 -0.6763
   81SOPE  H101 7385   1.043   4.566   5.313  0.9961 -0.0479  0.2169
   81SOPE  C211 7386   0.831   4.599   5.367 -0.0999 -0.1575  0.5604
   81SOPE  H11R 7387   0.776   4.587   5.463 -0.4774  1.7422  0.6372
   81SOPE  H11S 7388   0.811   4.505   5.312 -1.8946  0.0907  0.7299
   81SOPE  C212 7389   0.774   4.710   5.278  0.0542  0.7495  0.7013
   81SOPE  H12R 7390   0.818   4.811   5.292  0.6734  0.3721  1.5635
   81SOPE  H12S 7391   0.667   4.724   5.302 -0.8977 -0.9820 -2.0252
   81SOPE  C213 7392   0.774   4.682   5.123 -0.3406 -0.5579  0.1527
   81SOPE  H13R 7393   0.726   4.777   5.090 -1.0917 -1.1134 -0.3894
   81SOPE  H13S 7394   0.720   4.588   5.102  2.0960 -2.0583  0.1824
   81SOPE  C214 7395   0.911   4.672   5.050  0.1564 -0.0354  0.0046
   81SOPE  H14R 7396   0.946   4.568   5.069 -0.0491 -0.4882 -1.8871
   81SOPE  H14S 7397   0.987   4.733   5.102 -0.2556  0.2530  0.2727
   81SOPE  C215 7398   0.894   4.712   4.899  0.6026  0.8738 -0.2781
   81SOPE  H15R 7399   0.998   4.706   4.861  0.9453 -2.4092  0.8604
   81SOPE  H15S 7400   0.848   4.813   4.886  0.3487  1.1436  2.2633
   81SOPE  C216 7401   0.822   4.599   4.827  0.9958  0.8166  0.2421
   81SOPE  H16R 7402   0.713   4.616   4.834  0.5208 -1.3987 -0.9752
   81SOPE  H16S 7403   0.830   4.498   4.871 -3.1631  1.0069  1.8894
   81SOPE  C217 7404   0.870   4.593   4.683  0.2509 -0.6359  0.3029
   81SOPE  H17R 7405   0.824   4.503   4.637  1.8518 -1.3777  0.0917
   81SOPE  H17S 7406   0.981   4.584   4.678  0.2254 -0.3740 -1.8685
   81SOPE  C218 7407   0.835   4.716   4.604  0.1249  0.0303 -0.0674
   81SOPE  H18R 7408   0.858   4.693   4.497  0.9247 -1.3735  0.3747
   81SOPE  H18S 7409   0.889   4.806   4.640 -0.5080  0.6492 -0.6389
   81SOPE  H18T 7410   0.728   4.739   4.619 -0.0085  0.3679 -1.4129
   81SOPE   C33 7411   0.668   4.826   6.186  0.0403  0.6243 -0.0459
   81SOPE   H3X 7412   0.744   4.760   6.234 -1.3071 -0.8935  0.0681
   81SOPE   H3Y 7413   0.726   4.883   6.111  0.1073 -0.7131 -1.0562
   81SOPE   C34 7414   0.564   4.730   6.110  0.0279  0.5258 -0.3084
   81SOPE   H4X 7415   0.468   4.775   6.077  0.3130  1.4840  0.1200
   81SOPE   H4Y 7416   0.527   4.662   6.190  0.0321 -0.0518 -0.7961
   81SOPE   C35 7417   0.625   4.638   6.006 -0.3885  0.4431 -0.2808
   81SOPE   H5X 7418   0.567   4.543   5.997  1.6945 -0.7296 -2.6326
   81SOPE   H5Y 7419   0.717   4.589   6.044 -1.1839 -1.3097 -0.5274
   81SOPE   C36 7420   0.639   4.684   5.857  0.5218 -0.0029 -0.3002
   81SOPE   H6X 7421   0.650   4.594   5.792 -4.2236  0.0682 -1.5829
   81SOPE   H6Y 7422   0.727   4.749   5.836  1.2635 -1.1766 -0.9674
   81SOPE   C37 7423   0.514   4.763   5.809 -0.0687  0.6502 -0.6327
   81SOPE   H7X 7424   0.524   4.858   5.867  2.1359  0.2736 -0.3016
   81SOPE   H7Y 7425   0.419   4.713   5.837  1.7940 -2.3449  0.8767
   81SOPE   C38 7426   0.510   4.792   5.655 -0.6236 -1.4974 -0.5909
   81SOPE   H8X 7427   0.515   4.691   5.609  0.5588 -1.9693  0.4966
   81SOPE   H8Y 7428   0.599   4.842   5.611 -1.7630 -0.3943 -1.7389
   81SOPE   C39 7429   0.372   4.853   5.623 -0.3672 -0.1196  0.9522
   81SOPE   H9X 7430   0.351   4.947   5.678 -2.7760 -0.1954  0.2794
   81SOPE   H9Y 7431   0.298   4.779   5.661 -0.9320  0.7353  1.5733
   81SOPE  C310 7432   0.349   4.893   5.472  0.1360 -0.7440 -0.4159
   81SOPE  H10X 7433   0.423   4.975   5.477  0.5835 -1.1831  0.3331
   81SOPE  H10Y 7434   0.250   4.942   5.461  0.7250  0.7079  0.4566
   81SOPE  C311 7435   0.373   4.796   5.358  0.5880 -0.0236 -0.1301
   81SOPE  H11X 7436   0.306   4.709   5.374 -0.3226  0.4456 -1.2447
   81SOPE  H11Y 7437   0.479   4.765   5.372  1.0551  1.8314  0.7627
   81SOPE  C312 7438   0.346   4.871   5.228 -0.1004 -0.0143 -0.4111
   81SOPE  H12X 7439   0.423   4.951   5.221 -0.1192  0.3550  2.3284
   81SOPE  H12Y 7440   0.243   4.912   5.224 -1.3678 -2.4766  2.7649
   81SOPE  C313 7441   0.360   4.773   5.111 -0.3626 -0.5535 -0.6547
   81SOPE  H13X 7442   0.284   4.692   5.121 -0.1867 -0.4504  2.7323
   81SOPE  H13Y 7443   0.464   4.733   5.110 -0.9095 -2.0838 -0.0227
   81SOPE  C314 7444   0.334   4.849   4.978 -0.0565  0.0153 -0.9963
   81SOPE  H14X 7445   0.414   4.926   4.979 -1.4738  1.5266  0.7395
   81SOPE  H14Y 7446   0.240   4.908   4.983  0.5693  0.9437  0.2278
   81SOPE  C315 7447   0.346   4.748   4.861  0.1224 -0.4432  0.6293
   81SOPE  H15X 7448   0.243   4.721   4.830  0.1484 -1.7569  1.6310
   81SOPE  H15Y 7449   0.403   4.659   4.893  0.7746 -0.5582 -0.7766
   81SOPE  C316 7450   0.404   4.807   4.721  1.0135 -0.1965  0.5349
   81SOPE  H16X 7451   0.396   4.741   4.632  0.9049  0.8082 -0.2052
   81SOPE  H16Y 7452   0.512   4.826   4.738  1.6925 -1.1924 -2.1578
   81SOPE  C317 7453   0.339   4.947   4.680 -0.0671  0.1033 -0.3638
   81SOPE  H17X 7454   0.369   5.020   4.759  0.0592  0.7865 -1.0321
   81SOPE  H17Y 7455   0.228   4.949   4.677 -0.0962  2.4825  0.2647
   81SOPE  C318 7456   0.387   5.006   4.559 -0.2417 -0.8608  0.5769
   81SOPE  H18X 7457   0.330   5.098   4.534 -0.6884 -1.4148 -0.5094
   81SOPE  H18Y 7458   0.377   4.939   4.471 -3.7587  2.3947 -1.8637
   81SOPE  H18Z 7459   0.494   5.033   4.571  0.0742 -2.1144  0.8130
   82SOPE     N 7460   4.095   3.843   6.532  0.3047  0.1164 -0.1061
   82SOPE   HN1 7461   4.076   3.778   6.611  3.7204  1.2399  1.8341
   82SOPE   HN2 7462   4.107   3.940   6.570  2.7639  0.0206 -0.4810
   82SOPE   HN3 7463   4.030   3.836   6.451 -0.3499 -1.3786  0.5112
   82SOPE   C12 7464   4.248   3.837   6.500 -0.5867 -0.1520 -0.6040
   82SOPE  H12A 7465   4.258   3.766   6.415  0.7624 -0.7173  0.0099
   82SOPE  H12B 7466   4.303   3.789   6.584  2.5655  2.5813 -0.9203
   82SOPE   C11 7467   4.298   3.975   6.442  0.1741 -0.3151  0.0971
   82SOPE  H11A 7468   4.252   3.984   6.341  1.0783 -0.5091 -0.3442
   82SOPE  H11B 7469   4.406   3.949   6.434  0.0361 -0.4938 -1.6665
   82SOPE     P 7470   4.184   4.208   6.502 -0.0112 -0.4662 -0.7349
   82SOPE   O13 7471   4.199   4.321   6.599  0.3712 -0.0476 -0.0432
   82SOPE   O14 7472   4.060   4.134   6.491  0.6160  0.0936  0.3968
   82SOPE   O12 7473   4.288   4.094   6.522 -0.0341 -0.2361 -0.1437
   82SOPE   O11 7474   4.237   4.257   6.355  0.5312 -0.1616  1.0275
   82SOPE    C1 7475   4.375   4.283   6.324  0.0436 -0.1721 -0.8841
   82SOPE    HA 7476   4.443   4.199   6.349 -0.9248 -1.1061 -1.3129
   82SOPE    HB 7477   4.413   4.371   6.379  2.1630 -0.6014 -1.5637
   82SOPE    C2 7478   4.402   4.310   6.171  0.5509 -0.9054 -0.8545
   82SOPE    HS 7479   4.509   4.330   6.147  1.1576 -1.3874  1.2626
   82SOPE   O21 7480   4.317   4.421   6.136 -0.0105 -0.4311 -0.2983
   82SOPE   C21 7481   4.361   4.541   6.171  0.1539 -0.2277 -0.0398
   82SOPE   O22 7482   4.474   4.558   6.209 -0.3461 -0.3869  0.5281
   82SOPE   C22 7483   4.261   4.648   6.153 -0.6445 -0.6058 -0.4021
   82SOPE   H2R 7484   4.313   4.745   6.163 -1.8786  0.3029 -2.2513
   82SOPE   H2S 7485   4.174   4.625   6.218 -0.9417  0.1564 -0.5302
   82SOPE    C3 7486   4.356   4.189   6.081 -0.5140  0.1104  0.4047
   82SOPE    HX 7487   4.252   4.161   6.105 -0.7671 -0.1283 -0.8956
   82SOPE    HY 7488   4.424   4.104   6.100  0.6702  0.2048 -2.8281
   82SOPE   O31 7489   4.374   4.221   5.937  0.0553 -0.6401  0.0223
   82SOPE   C31 7490   4.269   4.252   5.861  0.4503 -0.4612 -0.2176
   82SOPE   O32 7491   4.155   4.261   5.906  0.3932 -0.0728 -0.8077
   82SOPE   C32 7492   4.300   4.259   5.716  0.1655  0.1881  0.7964
   82SOPE   H2X 7493   4.364   4.171   5.695  1.1632  0.2467  3.3517
   82SOPE   H2Y 7494   4.363   4.347   5.693  0.9144 -0.3036  0.9445
   82SOPE   C23 7495   4.205   4.645   6.009 -0.2349  0.3865  0.1529
   82SOPE   H3R 7496   4.132   4.728   6.004  0.2085  0.7774  0.0855
   82SOPE   H3S 7497   4.144   4.552   6.000 -2.1679  1.7071 -1.1560
   82SOPE   C24 7498   4.309   4.660   5.898 -0.0173 -0.3935  0.8972
   82SOPE   H4R 7499   4.356   4.760   5.908 -0.9514  0.0051  1.5099
   82SOPE   H4S 7500   4.394   4.589   5.897 -0.3084 -0.7728 -0.8466
   82SOPE   C25 7501   4.245   4.663   5.761  0.3914 -0.3036 -0.5671
   82SOPE   H5R 7502   4.203   4.563   5.737 -0.0132 -0.2496 -0.1009
   82SOPE   H5S 7503   4.152   4.723   5.758  1.2714  1.0368 -1.9061
   82SOPE   C26 7504   4.331   4.682   5.640 -0.2811 -0.0184  0.5038
   82SOPE   H6R 7505   4.385   4.778   5.647 -0.6019  0.3487 -1.5114
   82SOPE   H6S 7506   4.417   4.612   5.631 -0.6745 -0.3364 -1.0571
   82SOPE   C27 7507   4.251   4.668   5.512  0.5145 -0.3132  0.3377
   82SOPE   H7R 7508   4.209   4.565   5.503  0.5633 -0.5052  1.9092
   82SOPE   H7S 7509   4.165   4.738   5.519  1.7422  1.2496  0.3499
   82SOPE   C28 7510   4.332   4.703   5.392 -0.5625  0.4471  0.7691
   82SOPE   H8R 7511   4.394   4.791   5.421  0.6552  0.4006 -1.4867
   82SOPE   H8S 7512   4.409   4.626   5.368  1.1671  1.3459  3.0197
   82SOPE   C29 7513   4.248   4.725   5.268  0.6587 -0.2398  0.3779
   82SOPE   H91 7514   4.167   4.651   5.258  0.1322  0.2979  0.6321
   82SOPE  C210 7515   4.244   4.828   5.181  0.5775 -0.1529 -0.2278
   82SOPE  H101 7516   4.171   4.820   5.099  0.0211 -1.3578  0.3513
   82SOPE  C211 7517   4.342   4.940   5.172 -0.0958  0.4438  0.1933
   82SOPE  H11R 7518   4.409   4.942   5.261 -0.0200 -2.4485  0.2901
   82SOPE  H11S 7519   4.290   5.038   5.165  0.9108  1.1024  1.5113
   82SOPE  C212 7520   4.435   4.923   5.046 -0.0204  0.0224 -0.2681
   82SOPE  H12R 7521   4.486   4.824   5.049 -0.8889 -0.4360  2.1600
   82SOPE  H12S 7522   4.514   5.001   5.053 -1.8938  2.1041 -1.2845
   82SOPE  C213 7523   4.363   4.946   4.914 -0.3253  0.0541 -0.3394
   82SOPE  H13R 7524   4.340   5.054   4.899 -1.1550 -0.0675  0.0110
   82SOPE  H13S 7525   4.272   4.884   4.901 -1.0306  0.9644  0.1531
   82SOPE  C214 7526   4.452   4.899   4.798  0.0263 -0.3697 -0.0145
   82SOPE  H14R 7527   4.389   4.913   4.707 -1.0103 -0.3636  0.6890
   82SOPE  H14S 7528   4.474   4.792   4.814  0.8568 -0.2134 -0.0656
   82SOPE  C215 7529   4.575   4.990   4.785  0.0530 -0.2349  0.1680
   82SOPE  H15R 7530   4.643   4.989   4.873  3.0905 -0.4826 -2.0152
   82SOPE  H15S 7531   4.546   5.095   4.763 -0.9366 -1.1383 -3.5790
   82SOPE  C216 7532   4.661   4.960   4.659 -0.8606  0.2102 -0.3898
   82SOPE  H16R 7533   4.653   4.850   4.664 -1.7346  0.1577 -2.0615
   82SOPE  H16S 7534   4.766   4.992   4.673 -0.8561 -0.3375  0.8888
   82SOPE  C217 7535   4.615   4.994   4.518  0.1131 -0.3964  0.3655
   82SOPE  H17R 7536   4.582   5.100   4.518 -0.2415 -0.5071  0.3815
   82SOPE  H17S 7537   4.518   4.948   4.494  0.3438  0.3020 -2.1947
   82SOPE  C218 7538   4.706   4.968   4.402  0.0190 -0.2470  0.1268
   82SOPE  H18R 7539   4.734   4.860   4.399 -0.8859 -0.5038  0.5533
   82SOPE  H18S 7540   4.801   5.026   4.410  0.4077 -0.8444 -0.0289
   82SOPE  H18T 7541   4.656   4.989   4.305 -2.6772 -1.5226  1.1359
   82SOPE   C33 7542   4.179   4.249   5.620  0.4630 -0.4224  0.0845
   82SOPE   H3X 7543   4.113   4.336   5.640  2.7324  1.2651  0.6154
   82SOPE   H3Y 7544   4.126   4.155   5.646  0.2605 -0.6933 -1.2634
   82SOPE   C34 7545   4.231   4.236   5.479 -0.7296  0.3804 -0.0175
   82SOPE   H4X 7546   4.290   4.143   5.462 -1.4602 -0.0317 -0.3290
   82SOPE   H4Y 7547   4.287   4.328   5.453 -3.3068  1.8920 -0.5366
   82SOPE   C35 7548   4.109   4.233   5.385 -0.0024 -0.0403 -0.6457
   82SOPE   H5X 7549   4.058   4.331   5.394 -1.0523 -0.6635  0.4791
   82SOPE   H5Y 7550   4.041   4.150   5.415  1.5680 -1.1938 -0.0971
   82SOPE   C36 7551   4.145   4.210   5.237 -0.3022 -0.5628 -0.5521
   82SOPE   H6X 7552   4.050   4.199   5.180 -1.1088  1.6452  0.2563
   82SOPE   H6Y 7553   4.201   4.114   5.235 -0.1815 -0.5469  1.0190
   82SOPE   C37 7554   4.231   4.327   5.175  1.6738 -0.1991 -0.0154
   82SOPE   H7X 7555   4.315   4.365   5.237  0.9034  1.1916  0.2171
   82SOPE   H7Y 7556   4.157   4.410   5.182  2.0587  0.2062 -0.6489
   82SOPE   C38 7557   4.260   4.289   5.032  0.2695  0.1838  0.4851
   82SOPE   H8X 7558   4.173   4.252   4.973  0.1801 -0.6474  1.1152
   82SOPE   H8Y 7559   4.329   4.203   5.049  0.8607  0.3430 -0.9603
   82SOPE   C39 7560   4.347   4.390   4.950  0.1334  0.3255 -0.7426
   82SOPE   H9X 7561   4.374   4.344   4.853  0.6767  0.3741 -0.6129
   82SOPE   H9Y 7562   4.439   4.409   5.009 -1.7947  2.7978  1.7659
   82SOPE  C310 7563   4.281   4.530   4.912 -0.4034  0.4532  0.2162
   82SOPE  H10X 7564   4.353   4.574   4.840 -0.6333 -0.4744 -0.6115
   82SOPE  H10Y 7565   4.281   4.595   5.002  0.1309  0.7274  0.0200
   82SOPE  C311 7566   4.147   4.517   4.845 -0.2866 -0.8346  0.3035
   82SOPE  H11X 7567   4.068   4.504   4.921 -0.3645 -0.9105  0.2112
   82SOPE  H11Y 7568   4.149   4.421   4.789 -0.0153  0.5777 -2.2924
   82SOPE  C312 7569   4.124   4.640   4.749 -0.7083 -0.0525  0.5464
   82SOPE  H12X 7570   4.198   4.643   4.666  0.5842 -0.7152  1.6355
   82SOPE  H12Y 7571   4.137   4.733   4.808  0.4805 -0.1000  0.3892
   82SOPE  C313 7572   3.976   4.642   4.697  0.2311  0.6567 -0.6151
   82SOPE  H13X 7573   3.901   4.659   4.777  0.3100  0.1960 -0.4389
   82SOPE  H13Y 7574   3.963   4.539   4.656 -1.1572 -0.4569  2.3341
   82SOPE  C314 7575   3.967   4.750   4.583 -0.2398  0.3914 -0.1818
   82SOPE  H14X 7576   3.993   4.706   4.485  0.0702  2.9720 -1.3370
   82SOPE  H14Y 7577   4.047   4.825   4.603 -0.1414  0.7285 -1.7509
   82SOPE  C315 7578   3.826   4.806   4.564 -0.6729 -0.0954  0.5740
   82SOPE  H15X 7579   3.799   4.882   4.640  2.5362  1.3291  0.4450
   82SOPE  H15Y 7580   3.752   4.724   4.579 -0.0457 -2.2687 -5.3605
   82SOPE  C316 7581   3.816   4.863   4.416 -0.2955 -0.2487  0.0772
   82SOPE  H16X 7582   3.831   4.781   4.342 -1.3841 -1.4847  1.1793
   82SOPE  H16Y 7583   3.903   4.931   4.400 -0.2388 -0.7954 -2.2386
   82SOPE  C317 7584   3.687   4.935   4.393  0.0816 -0.0348  0.0285
   82SOPE  H17X 7585   3.673   5.017   4.467  2.5482 -0.9638  1.6623
   82SOPE  H17Y 7586   3.600   4.867   4.399 -1.2753  1.4443 -1.7642
   82SOPE  C318 7587   3.677   5.013   4.258 -0.2265  0.2576  0.1792
   82SOPE  H18X 7588   3.771   5.070   4.241  0.2634  0.1425  2.2474
   82SOPE  H18Y 7589   3.587   5.077   4.274 -2.0536 -2.2525  0.5867
   82SOPE  H18Z 7590   3.664   4.947   4.170  1.6646 -0.4201  0.3569
   83SOPE     N 7591   2.968   5.010   1.783  0.3433 -0.3256 -0.7185
   83SOPE   HN1 7592   2.963   4.909   1.761 -0.7801 -0.4420 -0.0163
   83SOPE   HN2 7593   2.877   5.056   1.761 -0.5675 -1.2716  0.8646
   83SOPE   HN3 7594   3.048   5.047   1.728  1.8056  1.1932  2.2059
   83SOPE   C12 7595   3.004   5.022   1.930 -0.6360  0.5664 -0.0286
   83SOPE  H12A 7596   2.946   4.949   1.991  0.3919 -1.6094 -1.5593
   83SOPE  H12B 7597   2.981   5.125   1.966  2.1897  1.3817 -0.3279
   83SOPE   C11 7598   3.154   4.981   1.962  1.0076  0.6444 -0.1124
   83SOPE  H11A 7599   3.152   4.871   1.980 -4.0291  0.7603  1.6328
   83SOPE  H11B 7600   3.166   5.019   2.065 -1.1188  0.7808  0.1216
   83SOPE     P 7601   3.349   5.149   1.908  0.1809 -0.3466  0.0162
   83SOPE   O13 7602   3.283   5.280   1.935  0.2077 -0.0661  0.0393
   83SOPE   O14 7603   3.459   5.159   1.811 -0.1365  0.3985  0.5770
   83SOPE   O12 7604   3.247   5.035   1.868  0.2057  0.0119  0.3982
   83SOPE   O11 7605   3.417   5.101   2.037 -0.6276  1.3494  0.0266
   83SOPE    C1 7606   3.489   4.969   2.030  0.7416  0.7493 -0.1449
   83SOPE    HA 7607   3.593   4.994   1.999  0.4929  2.5738  0.3368
   83SOPE    HB 7608   3.452   4.899   1.952  2.8072  0.1735 -0.6869
   83SOPE    C2 7609   3.491   4.892   2.160 -0.0822  0.1160  0.2722
   83SOPE    HS 7610   3.544   4.797   2.138  0.8207  0.2600  1.6771
   83SOPE   O21 7611   3.355   4.862   2.203 -0.2192  0.1877 -0.6131
   83SOPE   C21 7612   3.331   4.745   2.262  0.2643  0.1657  0.2767
   83SOPE   O22 7613   3.412   4.659   2.287  0.1886  0.2538 -0.5984
   83SOPE   C22 7614   3.179   4.743   2.296  0.2345  0.5448 -0.3326
   83SOPE   H2R 7615   3.121   4.738   2.201 -1.1284 -0.4647  0.5084
   83SOPE   H2S 7616   3.151   4.834   2.352  0.5256 -0.3161  1.2558
   83SOPE    C3 7617   3.572   4.967   2.274  0.6625 -1.0155 -0.4562
   83SOPE    HX 7618   3.532   5.071   2.274  2.4468 -0.2898 -0.1919
   83SOPE    HY 7619   3.678   4.976   2.243  0.4793  0.5732 -0.7226
   83SOPE   O31 7620   3.556   4.912   2.405 -0.2065  0.0598  0.0457
   83SOPE   C31 7621   3.632   4.809   2.434 -0.9746 -0.3193  0.8800
   83SOPE   O32 7622   3.710   4.757   2.349 -0.0684 -0.4950 -0.4311
   83SOPE   C32 7623   3.612   4.763   2.576 -0.2788 -0.1013  0.2609
   83SOPE   H2X 7624   3.532   4.830   2.613 -0.5349  0.1245 -0.6718
   83SOPE   H2Y 7625   3.705   4.788   2.631 -1.4445  1.1287  1.7557
   83SOPE   C23 7626   3.149   4.618   2.383  0.7527  0.1250  0.0213
   83SOPE   H3R 7627   3.213   4.535   2.347 -0.1737 -0.2845 -0.7337
   83SOPE   H3S 7628   3.040   4.598   2.373  0.0874  2.8919  0.7931
   83SOPE   C24 7629   3.166   4.643   2.540  0.3157 -0.1542 -0.2951
   83SOPE   H4R 7630   3.250   4.713   2.562  0.7457 -1.4555  2.6913
   83SOPE   H4S 7631   3.073   4.691   2.576  0.1786 -0.3921 -0.3275
   83SOPE   C25 7632   3.193   4.520   2.613  0.5338  0.5987  0.1398
   83SOPE   H5R 7633   3.135   4.440   2.563  2.5683 -0.0998 -1.2529
   83SOPE   H5S 7634   3.297   4.482   2.607 -0.7970 -3.3537 -0.3173
   83SOPE   C26 7635   3.157   4.534   2.760  0.8092 -0.3357  0.4500
   83SOPE   H6R 7636   3.205   4.621   2.809 -2.1547  1.4734  0.3866
   83SOPE   H6S 7637   3.053   4.573   2.764  1.6637  1.9933  1.1923
   83SOPE   C27 7638   3.177   4.406   2.841 -0.0158  0.0749 -0.0711
   83SOPE   H7R 7639   3.140   4.323   2.777  0.0892  0.7963 -1.0913
   83SOPE   H7S 7640   3.286   4.382   2.846 -0.3015 -1.3961 -0.4418
   83SOPE   C28 7641   3.121   4.409   2.983 -0.3397 -0.0338 -0.4096
   83SOPE   H8R 7642   3.160   4.320   3.037 -0.3886  0.9527  1.3096
   83SOPE   H8S 7643   3.165   4.496   3.036  1.5331 -1.9157  1.3192
   83SOPE   C29 7644   2.973   4.416   2.993  0.0520 -0.0864 -0.0530
   83SOPE   H91 7645   2.921   4.383   2.902 -0.3522 -0.9485  0.4823
   83SOPE  C210 7646   2.897   4.468   3.096  0.0556 -0.0872  0.2131
   83SOPE  H101 7647   2.788   4.462   3.083  0.3014  0.7327 -3.6022
   83SOPE  C211 7648   2.952   4.526   3.220 -0.4002 -0.6067  0.1674
   83SOPE  H11R 7649   2.962   4.637   3.222 -1.6309 -0.4234 -1.6737
   83SOPE  H11S 7650   3.054   4.486   3.239  0.4549  0.2586 -2.2147
   83SOPE  C212 7651   2.885   4.476   3.347  0.3276 -0.0184 -0.6586
   83SOPE  H12R 7652   2.912   4.370   3.365  2.1362  0.5664  0.2490
   83SOPE  H12S 7653   2.774   4.481   3.350  0.3078 -0.7447  0.9126
   83SOPE  C213 7654   2.939   4.551   3.469 -0.1240  0.3874 -0.0607
   83SOPE  H13R 7655   2.942   4.660   3.443 -0.2644 -0.3150 -3.5625
   83SOPE  H13S 7656   3.046   4.526   3.488  0.1108  0.4419 -1.1959
   83SOPE  C214 7657   2.866   4.504   3.597  0.0015 -0.1194  0.3141
   83SOPE  H14R 7658   2.862   4.394   3.581  1.0132 -0.1240  0.0496
   83SOPE  H14S 7659   2.765   4.549   3.586  1.0306  1.9868 -1.0541
   83SOPE  C215 7660   2.933   4.544   3.725  0.0365  0.6789  0.1048
   83SOPE  H15R 7661   2.938   4.655   3.732 -0.7967  0.6756  1.0711
   83SOPE  H15S 7662   3.028   4.487   3.730 -0.4819 -0.2272 -0.0958
   83SOPE  C216 7663   2.840   4.500   3.845 -0.4591 -0.1785  0.5611
   83SOPE  H16R 7664   2.803   4.396   3.834  0.8659 -0.4132 -3.0549
   83SOPE  H16S 7665   2.750   4.566   3.843 -2.5139 -2.8520 -0.7760
   83SOPE  C217 7666   2.915   4.523   3.975  0.2273 -0.0172  0.3705
   83SOPE  H17R 7667   2.972   4.617   3.961 -1.4442  1.1045  0.8539
   83SOPE  H17S 7668   2.987   4.441   3.999 -0.8510 -0.9397  0.5510
   83SOPE  C218 7669   2.822   4.528   4.093  0.5917 -0.8092 -0.6944
   83SOPE  H18R 7670   2.882   4.540   4.186 -0.1205 -0.2595 -0.3004
   83SOPE  H18S 7671   2.758   4.437   4.085 -0.0414 -0.3556 -0.8449
   83SOPE  H18T 7672   2.746   4.608   4.080 -0.8064 -1.7149  1.2878
   83SOPE   C33 7673   3.599   4.611   2.581 -0.7581  0.1168 -0.5823
   83SOPE   H3X 7674   3.670   4.569   2.506  1.6222 -0.9078  2.0663
   83SOPE   H3Y 7675   3.495   4.587   2.549 -1.4129  1.5006  0.4131
   83SOPE   C34 7676   3.633   4.555   2.715 -0.7630 -0.1459  0.8178
   83SOPE   H4X 7677   3.733   4.591   2.748 -1.2906 -0.1949  2.5735
   83SOPE   H4Y 7678   3.648   4.445   2.714  3.3633  0.2407  1.4663
   83SOPE   C35 7679   3.542   4.588   2.837  0.1816  0.5232 -1.2543
   83SOPE   H5X 7680   3.435   4.574   2.812 -0.1612  0.2853  0.2983
   83SOPE   H5Y 7681   3.555   4.680   2.897  1.6614 -0.8358  0.6551
   83SOPE   C36 7682   3.566   4.483   2.953 -0.1677  0.0313 -0.1471
   83SOPE   H6X 7683   3.672   4.486   2.985 -0.1582  0.8808 -0.2300
   83SOPE   H6Y 7684   3.543   4.380   2.921 -1.5647  0.9304 -2.2527
   83SOPE   C37 7685   3.482   4.511   3.073  0.0890 -0.0526  0.6772
   83SOPE   H7X 7686   3.375   4.488   3.050  0.5982 -0.4514 -1.6099
   83SOPE   H7Y 7687   3.506   4.613   3.109  2.4129 -0.7797  1.3632
   83SOPE   C38 7688   3.522   4.429   3.193 -0.2078  0.4556  0.3802
   83SOPE   H8X 7689   3.624   4.457   3.226  0.8881 -2.8378  0.1657
   83SOPE   H8Y 7690   3.529   4.319   3.174  0.0098  0.2206  1.7413
   83SOPE   C39 7691   3.436   4.453   3.312  0.1595 -0.4371 -0.3171
   83SOPE   H9X 7692   3.331   4.423   3.294 -0.1256 -1.3587  2.4970
   83SOPE   H9Y 7693   3.428   4.564   3.312  1.5429 -0.2437  2.6981
   83SOPE  C310 7694   3.488   4.425   3.455 -0.0964  0.2999  0.1396
   83SOPE  H10X 7695   3.574   4.495   3.467 -0.7256  1.3290 -1.0667
   83SOPE  H10Y 7696   3.524   4.321   3.462 -0.5937  0.0902 -0.3785
   83SOPE  C311 7697   3.379   4.443   3.558 -0.0795  0.9355 -0.3360
   83SOPE  H11X 7698   3.304   4.362   3.545  1.1018 -0.2738  0.1191
   83SOPE  H11Y 7699   3.332   4.542   3.536  2.3054  2.0476 -0.7756
   83SOPE  C312 7700   3.428   4.460   3.701  0.5332 -0.2657  0.4958
   83SOPE  H12X 7701   3.497   4.548   3.703  0.5404 -0.2807  1.0047
   83SOPE  H12Y 7702   3.481   4.371   3.741  0.9850 -0.6542 -0.9197
   83SOPE  C313 7703   3.309   4.505   3.791 -0.0073 -0.0498 -0.4462
   83SOPE  H13X 7704   3.232   4.426   3.779 -0.9771  1.0374 -1.8543
   83SOPE  H13Y 7705   3.270   4.607   3.769  1.9926  0.4869 -1.8352
   83SOPE  C314 7706   3.343   4.503   3.948  0.0825 -0.4592 -0.1112
   83SOPE  H14X 7707   3.393   4.408   3.973 -0.4209 -0.7412 -0.1596
   83SOPE  H14Y 7708   3.241   4.498   3.992  1.4384 -1.2154  3.2214
   83SOPE  C315 7709   3.413   4.629   3.996 -0.8671  0.2658  0.3145
   83SOPE  H15X 7710   3.342   4.713   3.979 -2.3153 -0.4909  2.2702
   83SOPE  H15Y 7711   3.507   4.639   3.938 -1.3152 -2.8539 -1.1681
   83SOPE  C316 7712   3.442   4.630   4.145  0.2067  0.6639 -0.0983
   83SOPE  H16X 7713   3.350   4.595   4.197  0.2166  0.9573  0.1215
   83SOPE  H16Y 7714   3.458   4.734   4.182  1.5430  1.1150 -1.8309
   83SOPE  C317 7715   3.550   4.533   4.192 -0.3712 -0.9014 -0.4493
   83SOPE  H17X 7716   3.653   4.561   4.162 -0.1232 -0.3446  0.8653
   83SOPE  H17Y 7717   3.542   4.433   4.143  1.2082 -2.4055  2.1489
   83SOPE  C318 7718   3.564   4.504   4.347 -0.2461 -0.1049  0.2965
   83SOPE  H18X 7719   3.473   4.450   4.381 -1.7165  1.7824 -0.4523
   83SOPE  H18Y 7720   3.572   4.590   4.416  1.9972 -0.8762  1.0985
   83SOPE  H18Z 7721   3.647   4.438   4.381 -0.1081  1.3770  3.1192
   84SOPE     N 7722   2.988   2.435   2.101 -0.1572  0.5642 -0.0051
   84SOPE   HN1 7723   3.086   2.426   2.067 -0.6650  0.6086 -1.5758
   84SOPE   HN2 7724   2.975   2.350   2.160 -1.7958 -2.1187 -3.7749
   84SOPE   HN3 7725   2.932   2.412   2.016  0.2756  2.2063 -0.7600
   84SOPE   C12 7726   2.963   2.566   2.161 -0.2865 -0.5021  0.0748
   84SOPE  H12A 7727   2.862   2.574   2.207 -0.6642  1.7098 -1.0124
   84SOPE  H12B 7728   2.979   2.651   2.091  0.4375 -0.7073 -0.0137
   84SOPE   C11 7729   3.062   2.588   2.275 -0.3948  0.0843 -0.3854
   84SOPE  H11A 7730   3.042   2.520   2.360 -1.3270  1.0150  0.1581
   84SOPE  H11B 7731   3.034   2.683   2.325 -1.7018 -1.0587  1.1720
   84SOPE     P 7732   3.321   2.523   2.292  0.1199  0.4902 -0.1755
   84SOPE   O13 7733   3.440   2.581   2.230  0.1185  0.1546 -0.0494
   84SOPE   O14 7734   3.301   2.377   2.278  0.6834 -0.6978  0.4677
   84SOPE   O12 7735   3.196   2.594   2.230  0.8038  0.7246 -0.3828
   84SOPE   O11 7736   3.318   2.557   2.450 -0.0648  0.2471  0.5872
   84SOPE    C1 7737   3.353   2.687   2.488 -0.4163 -0.1445 -0.4578
   84SOPE    HA 7738   3.302   2.764   2.426  1.1172 -0.0244 -1.6445
   84SOPE    HB 7739   3.464   2.693   2.483 -0.0921 -3.1108  1.1822
   84SOPE    C2 7740   3.318   2.713   2.643 -0.5352 -0.3132 -0.1294
   84SOPE    HS 7741   3.331   2.821   2.667 -1.0502  0.0079 -1.1933
   84SOPE   O21 7742   3.397   2.628   2.730 -0.3796 -0.1151  0.0756
   84SOPE   C21 7743   3.531   2.639   2.735 -0.0385  0.5475  0.3603
   84SOPE   O22 7744   3.600   2.722   2.691  0.0461 -0.3403  0.7948
   84SOPE   C22 7745   3.590   2.525   2.815  0.9053 -0.1504 -0.2749
   84SOPE   H2R 7746   3.701   2.536   2.824  1.0798 -0.1498 -2.1158
   84SOPE   H2S 7747   3.564   2.426   2.771  1.3709  0.9224 -3.1847
   84SOPE    C3 7748   3.164   2.685   2.665  0.0988  0.4949  0.2718
   84SOPE    HX 7749   3.158   2.575   2.657 -1.5562  0.5382  0.7095
   84SOPE    HY 7750   3.106   2.733   2.583  1.5635 -0.9889 -1.7421
   84SOPE   O31 7751   3.125   2.732   2.796  0.2671  0.1297 -0.4050
   84SOPE   C31 7752   3.125   2.637   2.893 -0.6244 -0.6680  0.2158
   84SOPE   O32 7753   3.152   2.519   2.886 -0.2047 -0.5849  0.8500
   84SOPE   C32 7754   3.085   2.701   3.029 -0.1547  0.1028  0.4088
   84SOPE   H2X 7755   2.975   2.718   3.026 -0.1354  0.2794  0.6681
   84SOPE   H2Y 7756   3.133   2.801   3.035  1.4661 -0.6850  1.0628
   84SOPE   C23 7757   3.532   2.525   2.958  0.3060 -0.2634  0.3930
   84SOPE   H3R 7758   3.424   2.507   2.941  0.1158  1.5402 -0.4862
   84SOPE   H3S 7759   3.548   2.626   3.001 -1.9295 -0.3915  1.6808
   84SOPE   C24 7760   3.590   2.423   3.058 -0.5219 -0.6551 -0.3048
   84SOPE   H4R 7761   3.561   2.317   3.043 -0.5271 -0.7377  0.2788
   84SOPE   H4S 7762   3.699   2.441   3.050 -0.4048 -0.3095  1.5881
   84SOPE   C25 7763   3.552   2.461   3.204 -0.0156  0.6115  0.1405
   84SOPE   H5R 7764   3.552   2.570   3.223  0.5490  0.6859 -0.2486
   84SOPE   H5S 7765   3.459   2.406   3.227 -0.0709  1.4969  2.2931
   84SOPE   C26 7766   3.665   2.406   3.297  0.4596  0.4561  0.2197
   84SOPE   H6R 7767   3.649   2.297   3.291 -3.4320  0.8825 -0.0400
   84SOPE   H6S 7768   3.764   2.422   3.248  0.0824  0.2649 -0.6215
   84SOPE   C27 7769   3.661   2.449   3.445  0.3533 -0.0766 -0.5517
   84SOPE   H7R 7770   3.688   2.557   3.450 -1.4381  0.4187 -0.5755
   84SOPE   H7S 7771   3.560   2.452   3.493  0.8617  1.7997  0.5203
   84SOPE   C28 7772   3.745   2.362   3.538  0.0932 -0.5094  0.0695
   84SOPE   H8R 7773   3.837   2.342   3.480  1.0782 -0.0760  1.4268
   84SOPE   H8S 7774   3.779   2.420   3.627 -1.2943  1.0422 -0.3370
   84SOPE   C29 7775   3.669   2.239   3.577  0.3755  0.6353  0.3224
   84SOPE   H91 7776   3.656   2.168   3.493 -0.6656 -0.1808  1.1456
   84SOPE  C210 7777   3.607   2.213   3.695 -0.1381 -0.1215 -0.8160
   84SOPE  H101 7778   3.557   2.117   3.714 -0.7738  0.3292 -0.1608
   84SOPE  C211 7779   3.601   2.316   3.811  0.1659 -0.6374  0.9694
   84SOPE  H11R 7780   3.666   2.404   3.792  0.2994 -1.1444 -1.1655
   84SOPE  H11S 7781   3.639   2.256   3.897  0.6760 -1.8698 -0.0835
   84SOPE  C212 7782   3.461   2.364   3.835  0.1915  0.0837 -0.4609
   84SOPE  H12R 7783   3.403   2.269   3.831  2.0970 -1.2223  1.2927
   84SOPE  H12S 7784   3.432   2.441   3.760 -0.5303 -1.1890 -1.5479
   84SOPE  C213 7785   3.438   2.435   3.968 -0.1220 -0.2372  0.0322
   84SOPE  H13R 7786   3.486   2.534   3.956  1.1260 -0.5526  1.8945
   84SOPE  H13S 7787   3.491   2.383   4.051 -1.3778 -1.9478 -0.1883
   84SOPE  C214 7788   3.285   2.462   4.006  0.1461 -0.1229 -0.2205
   84SOPE  H14R 7789   3.237   2.374   4.052 -0.1887  0.5134  0.6689
   84SOPE  H14S 7790   3.219   2.505   3.927 -0.1133  0.3487  0.2452
   84SOPE  C215 7791   3.292   2.575   4.112  0.3952 -0.0536  0.1585
   84SOPE  H15R 7792   3.184   2.594   4.130 -0.1626 -2.1726 -0.6260
   84SOPE  H15S 7793   3.348   2.662   4.072 -0.4725  0.0903 -0.8036
   84SOPE  C216 7794   3.367   2.535   4.233  1.5639  0.7572  0.3813
   84SOPE  H16R 7795   3.470   2.508   4.203  0.2423 -0.7327 -3.2990
   84SOPE  H16S 7796   3.325   2.447   4.286  1.2149  0.4076 -0.4645
   84SOPE  C217 7797   3.389   2.653   4.330  0.2073  0.3104 -0.9364
   84SOPE  H17R 7798   3.290   2.676   4.375 -0.4940 -4.1804  0.2908
   84SOPE  H17S 7799   3.423   2.740   4.270  1.0302  1.4215  1.0306
   84SOPE  C218 7800   3.493   2.615   4.431 -0.7423 -0.7566 -0.1108
   84SOPE  H18R 7801   3.497   2.707   4.493 -0.1134 -0.5132 -0.5018
   84SOPE  H18S 7802   3.587   2.594   4.375  0.8246  1.0685  1.6992
   84SOPE  H18T 7803   3.465   2.533   4.499  1.7411 -0.5818  1.2377
   84SOPE   C33 7804   3.131   2.611   3.137 -1.2427 -0.1497 -0.2072
   84SOPE   H3X 7805   3.239   2.591   3.121 -0.6860  1.6875  0.8748
   84SOPE   H3Y 7806   3.068   2.522   3.154  0.4894 -0.7979  4.0774
   84SOPE   C34 7807   3.120   2.685   3.273 -0.6929  0.1075  0.5684
   84SOPE   H4X 7808   3.014   2.704   3.301 -0.3154 -0.1192  2.2481
   84SOPE   H4Y 7809   3.171   2.783   3.270  1.7045 -1.0771  0.6597
   84SOPE   C35 7810   3.197   2.600   3.376 -0.4949  0.4271 -0.4951
   84SOPE   H5X 7811   3.307   2.615   3.369  0.1282 -1.8317  2.4551
   84SOPE   H5Y 7812   3.169   2.493   3.371 -4.0971  1.2499 -0.1353
   84SOPE   C36 7813   3.149   2.630   3.530 -0.1606  0.0742  0.0948
   84SOPE   H6X 7814   3.203   2.560   3.598 -3.8390 -0.8401  2.3497
   84SOPE   H6Y 7815   3.045   2.594   3.542 -0.1604  0.0076 -0.0920
   84SOPE   C37 7816   3.163   2.779   3.567  0.1900  0.4594  0.0696
   84SOPE   H7X 7817   3.076   2.832   3.521 -1.2424 -0.8705  1.1431
   84SOPE   H7Y 7818   3.261   2.820   3.533  1.1365 -0.5091  1.5232
   84SOPE   C38 7819   3.151   2.804   3.720 -0.4533  0.1362 -0.2426
   84SOPE   H8X 7820   3.137   2.914   3.725  1.2191  0.3537  0.1988
   84SOPE   H8Y 7821   3.238   2.773   3.782  0.0895  1.1393 -0.4915
   84SOPE   C39 7822   3.022   2.734   3.774 -0.3424  0.5476  0.0158
   84SOPE   H9X 7823   3.035   2.624   3.766 -0.2881  0.6194 -1.1354
   84SOPE   H9Y 7824   2.941   2.772   3.707 -1.9796 -0.7754  1.1708
   84SOPE  C310 7825   2.986   2.765   3.919 -0.9957  0.4882 -0.5714
   84SOPE  H10X 7826   3.066   2.736   3.990 -2.3143  0.6762  1.0515
   84SOPE  H10Y 7827   2.894   2.713   3.955 -1.7631  0.8202 -1.9716
   84SOPE  C311 7828   2.965   2.912   3.944  0.2595 -0.0233 -0.0818
   84SOPE  H11X 7829   2.880   2.944   3.880  0.8267  0.5105 -0.5784
   84SOPE  H11Y 7830   3.051   2.978   3.919  0.0791  0.7493  1.1925
   84SOPE  C312 7831   2.929   2.949   4.089  0.2542  0.4154  0.7214
   84SOPE  H12X 7832   2.962   2.876   4.166 -0.1412 -0.2804  0.2406
   84SOPE  H12Y 7833   2.818   2.949   4.082  0.3425  0.6728 -1.4804
   84SOPE  C313 7834   2.956   3.095   4.120  0.1000  0.4839 -0.6568
   84SOPE  H13X 7835   2.872   3.129   4.183 -0.0356 -1.8593  0.5569
   84SOPE  H13Y 7836   2.955   3.153   4.026 -2.4005  1.2719 -0.2121
   84SOPE  C314 7837   3.090   3.106   4.181 -0.2925  0.1170  0.7807
   84SOPE  H14X 7838   3.174   3.117   4.109  1.1318  0.8726  2.4666
   84SOPE  H14Y 7839   3.116   3.020   4.247  0.1823  0.5118  1.1135
   84SOPE  C315 7840   3.104   3.227   4.261  0.7558 -0.5488 -0.0531
   84SOPE  H15X 7841   3.087   3.210   4.369  1.7245  1.8374  0.5363
   84SOPE  H15Y 7842   3.018   3.294   4.238  0.0282 -1.1210  0.9048
   84SOPE  C316 7843   3.237   3.303   4.248 -0.7121  0.1187  0.6274
   84SOPE  H16X 7844   3.248   3.322   4.139  1.9257  0.7596  0.9214
   84SOPE  H16Y 7845   3.324   3.233   4.249  1.4642  2.3652 -3.2111
   84SOPE  C317 7846   3.268   3.419   4.349  0.1740  0.1811  0.3961
   84SOPE  H17X 7847   3.273   3.365   4.446 -2.2551 -2.4900 -0.8204
   84SOPE  H17Y 7848   3.192   3.499   4.344  0.0161 -0.0227 -3.1628
   84SOPE  C318 7849   3.401   3.475   4.332  0.0981 -0.1239  0.1278
   84SOPE  H18X 7850   3.475   3.395   4.310  0.1155 -0.2250  0.5460
   84SOPE  H18Y 7851   3.443   3.526   4.421  0.5037 -0.0818 -0.0877
   84SOPE  H18Z 7852   3.406   3.542   4.243  0.8217  1.4358  1.2919
   85SOPE     N 7853   5.663   5.432   2.229 -0.1570 -0.0363 -0.0973
   85SOPE   HN1 7854   5.565   5.398   2.219  0.0525 -0.1172 -2.1775
   85SOPE   HN2 7855   5.686   5.408   2.328  3.7861 -1.3127 -1.1506
   85SOPE   HN3 7856   5.662   5.536   2.224 -0.0306  0.1955  2.7900
   85SOPE   C12 7857   5.743   5.372   2.125 -0.9806  0.2641  0.5194
   85SOPE  H12A 7858   5.843   5.347   2.167  0.1052  1.8678 -0.9590
   85SOPE  H12B 7859   5.765   5.438   2.038 -1.2915 -2.4523 -1.7710
   85SOPE   C11 7860   5.683   5.244   2.060  0.2993 -0.7769  0.2361
   85SOPE  H11A 7861   5.591   5.274   2.005  1.5706  0.5714 -1.2454
   85SOPE  H11B 7862   5.651   5.172   2.138 -0.9727 -0.2374  0.2506
   85SOPE     P 7863   5.861   5.074   2.001 -0.2052  0.2868 -0.3533
   85SOPE   O13 7864   5.998   5.098   1.948 -0.1129 -0.0851  0.6047
   85SOPE   O14 7865   5.795   4.946   1.968 -0.2360 -0.1179 -0.1953
   85SOPE   O12 7866   5.771   5.190   1.963 -0.0253 -0.5797  0.7758
   85SOPE   O11 7867   5.872   5.084   2.158  0.0090  0.4580 -0.3203
   85SOPE    C1 7868   5.826   4.975   2.239  0.6414 -0.1431 -0.2240
   85SOPE    HA 7869   5.880   4.880   2.219 -0.9833 -1.5256  1.5405
   85SOPE    HB 7870   5.720   4.961   2.209  0.2754 -0.9059  1.3098
   85SOPE    C2 7871   5.821   5.007   2.391 -0.0821  0.6463  0.5244
   85SOPE    HS 7872   5.791   5.114   2.380 -0.9169  0.3617 -0.0261
   85SOPE   O21 7873   5.955   4.987   2.417 -1.2195  0.1634 -0.2308
   85SOPE   C21 7874   5.996   5.064   2.520 -0.1722 -0.7954 -0.0916
   85SOPE   O22 7875   5.931   5.151   2.577  0.5672  0.3646  0.0961
   85SOPE   C22 7876   6.143   5.035   2.543 -0.7158 -0.2650  0.0627
   85SOPE   H2R 7877   6.184   5.131   2.505  1.0956 -1.0951 -0.1756
   85SOPE   H2S 7878   6.183   4.946   2.490  0.5772 -0.9592  2.0830
   85SOPE    C3 7879   5.720   4.920   2.467  0.7785  0.0361 -0.1687
   85SOPE    HX 7880   5.749   4.818   2.434  0.1089 -0.0739 -0.4305
   85SOPE    HY 7881   5.616   4.949   2.441  0.1292 -0.8992  1.2675
   85SOPE   O31 7882   5.744   4.921   2.609 -0.3565 -0.2408  0.1107
   85SOPE   C31 7883   5.687   5.022   2.670 -0.3942  0.1519 -0.6542
   85SOPE   O32 7884   5.608   5.101   2.625 -0.0476  0.7482 -0.5841
   85SOPE   C32 7885   5.748   5.027   2.815  0.1354  0.0764  0.0101
   85SOPE   H2X 7886   5.857   5.046   2.806  0.2955 -0.2572  1.1345
   85SOPE   H2Y 7887   5.731   4.924   2.853  0.7598 -0.5802 -1.4270
   85SOPE   C23 7888   6.169   5.022   2.696 -0.5274 -0.0275  0.5826
   85SOPE   H3R 7889   6.261   4.961   2.707 -0.6977 -0.1096  1.6856
   85SOPE   H3S 7890   6.084   4.969   2.745 -0.1725 -0.8283  0.3419
   85SOPE   C24 7891   6.199   5.154   2.760 -0.1952  0.4142 -0.3268
   85SOPE   H4R 7892   6.308   5.170   2.748  0.4480 -1.7002  1.8808
   85SOPE   H4S 7893   6.134   5.227   2.708 -2.2772  0.4008  2.0759
   85SOPE   C25 7894   6.160   5.145   2.915 -0.0479  0.0285 -0.0418
   85SOPE   H5R 7895   6.057   5.104   2.921  0.5552 -1.4577  0.9753
   85SOPE   H5S 7896   6.235   5.075   2.958 -0.9044 -0.9210 -0.0533
   85SOPE   C26 7897   6.170   5.282   2.983  0.6270 -0.0066 -0.0489
   85SOPE   H6R 7898   6.278   5.307   2.991  0.4525  0.6046  0.4268
   85SOPE   H6S 7899   6.122   5.353   2.913 -1.5152 -1.4354 -0.1236
   85SOPE   C27 7900   6.089   5.295   3.122 -0.7655 -0.6866 -0.7848
   85SOPE   H7R 7901   5.982   5.275   3.096 -1.4184 -0.3379  1.3868
   85SOPE   H7S 7902   6.117   5.219   3.199 -0.8465  0.2967  0.2415
   85SOPE   C28 7903   6.098   5.434   3.177  0.1945 -1.0360  0.4440
   85SOPE   H8R 7904   6.094   5.498   3.087 -0.1514 -0.7118  0.6833
   85SOPE   H8S 7905   6.001   5.446   3.231 -0.3886 -2.3435 -0.2637
   85SOPE   C29 7906   6.217   5.464   3.258  1.1288  0.2634 -0.3776
   85SOPE   H91 7907   6.308   5.448   3.198  1.3672 -1.2032  0.3418
   85SOPE  C210 7908   6.216   5.502   3.387 -0.1862  0.3355 -0.6987
   85SOPE  H101 7909   6.313   5.515   3.436  0.2997  0.8164 -1.7424
   85SOPE  C211 7910   6.093   5.525   3.469  0.8794 -0.5222  0.2810
   85SOPE  H11R 7911   6.026   5.437   3.464  0.8605 -0.4735 -0.5364
   85SOPE  H11S 7912   6.042   5.611   3.421  1.1572  0.3963  1.5772
   85SOPE  C212 7913   6.107   5.573   3.611 -0.1170  0.3257 -0.0423
   85SOPE  H12R 7914   6.008   5.593   3.657 -0.5040 -1.6029  0.0578
   85SOPE  H12S 7915   6.180   5.656   3.626  2.3886 -1.8510  0.6176
   85SOPE  C213 7916   6.153   5.460   3.700  0.3896  0.6495 -0.4512
   85SOPE  H13R 7917   6.262   5.444   3.682  0.5610  1.2237  0.0445
   85SOPE  H13S 7918   6.110   5.360   3.676 -0.2084  0.1883  2.2536
   85SOPE  C214 7919   6.137   5.488   3.847 -0.3908  1.4779 -0.6657
   85SOPE  H14R 7920   6.030   5.516   3.856 -1.3216 -2.0498  1.1047
   85SOPE  H14S 7921   6.195   5.578   3.873  0.5707  0.3809  1.1578
   85SOPE  C215 7922   6.188   5.373   3.934 -0.0546 -0.0205 -0.0648
   85SOPE  H15R 7923   6.299   5.372   3.939 -0.0441 -0.4768 -0.3106
   85SOPE  H15S 7924   6.147   5.277   3.896 -0.3509 -0.7346  1.9571
   85SOPE  C216 7925   6.158   5.402   4.080  0.8438 -0.0819 -0.0594
   85SOPE  H16R 7926   6.049   5.415   4.100  0.3811 -2.1738 -0.9234
   85SOPE  H16S 7927   6.195   5.504   4.104 -0.2566 -0.1197  2.0403
   85SOPE  C217 7928   6.214   5.298   4.183 -0.2248  0.6636  0.2839
   85SOPE  H17R 7929   6.305   5.242   4.152 -1.6500 -1.5104 -0.1945
   85SOPE  H17S 7930   6.139   5.218   4.169 -1.6231  1.9395  0.2577
   85SOPE  C218 7931   6.216   5.332   4.336 -0.0329  0.3764  0.4064
   85SOPE  H18R 7932   6.235   5.441   4.332 -1.2850  0.5643 -1.5745
   85SOPE  H18S 7933   6.287   5.275   4.400 -1.2076  0.2044  1.6073
   85SOPE  H18T 7934   6.110   5.328   4.371  0.1468 -1.1792  0.8466
   85SOPE   C33 7935   5.691   5.140   2.909  0.5078 -0.4344  0.1572
   85SOPE   H3X 7936   5.588   5.152   2.869  1.3563  0.9734 -1.7606
   85SOPE   H3Y 7937   5.746   5.233   2.886  0.2107 -0.6834 -1.7077
   85SOPE   C34 7938   5.691   5.099   3.056 -0.0999 -0.2147 -0.4376
   85SOPE   H4X 7939   5.786   5.048   3.081 -0.1290  0.8273  2.0891
   85SOPE   H4Y 7940   5.609   5.026   3.073 -0.3795  0.4201  1.1633
   85SOPE   C35 7941   5.677   5.230   3.145 -0.1419  0.7501  0.9420
   85SOPE   H5X 7942   5.576   5.276   3.147 -0.9761 -0.8175 -1.0506
   85SOPE   H5Y 7943   5.740   5.309   3.099 -0.8655  0.0546 -1.4057
   85SOPE   C36 7944   5.716   5.199   3.286  0.2042 -0.1184 -0.1775
   85SOPE   H6X 7945   5.825   5.176   3.285  0.5071  0.8954  2.0727
   85SOPE   H6Y 7946   5.660   5.116   3.333 -0.5441 -0.4861 -1.6665
   85SOPE   C37 7947   5.678   5.318   3.374 -0.0758 -0.3683 -0.6456
   85SOPE   H7X 7948   5.567   5.318   3.386  0.0217 -0.1598  0.4092
   85SOPE   H7Y 7949   5.718   5.410   3.326  0.4018 -1.2075 -1.9137
   85SOPE   C38 7950   5.748   5.304   3.512 -0.1050 -0.1154 -0.5975
   85SOPE   H8X 7951   5.858   5.314   3.501  0.0014 -1.6738 -1.1567
   85SOPE   H8Y 7952   5.734   5.199   3.543 -0.4866 -0.0402 -0.5146
   85SOPE   C39 7953   5.692   5.420   3.607  0.1250  0.6643  0.6432
   85SOPE   H9X 7954   5.581   5.419   3.614 -0.0538 -3.2162 -0.0174
   85SOPE   H9Y 7955   5.728   5.520   3.576 -1.0504  1.4176  1.6288
   85SOPE  C310 7956   5.728   5.409   3.756  0.6788  0.3749 -0.0758
   85SOPE  H10X 7957   5.836   5.430   3.772  0.9056 -0.4906 -0.3707
   85SOPE  H10Y 7958   5.713   5.306   3.795 -0.7453  0.7797  0.4969
   85SOPE  C311 7959   5.648   5.510   3.845 -0.5642  0.8900 -0.2464
   85SOPE  H11X 7960   5.545   5.468   3.856  0.1955 -0.7014  1.1797
   85SOPE  H11Y 7961   5.652   5.607   3.790 -1.4869  1.1704  0.1615
   85SOPE  C312 7962   5.717   5.510   3.981 -0.2421  0.3311 -0.0938
   85SOPE  H12X 7963   5.824   5.534   3.965 -0.9032  1.3182 -4.1451
   85SOPE  H12Y 7964   5.707   5.404   4.014  0.4830  0.5964  1.0243
   85SOPE  C313 7965   5.655   5.610   4.076 -0.1640  0.0179 -0.2886
   85SOPE  H13X 7966   5.545   5.602   4.086 -0.1517  1.2143  1.1330
   85SOPE  H13Y 7967   5.679   5.712   4.040  0.6364  0.0376  0.2680
   85SOPE  C314 7968   5.716   5.621   4.219 -0.0347  0.3770  0.0064
   85SOPE  H14X 7969   5.650   5.559   4.283  0.5618 -0.0623  0.2053
   85SOPE  H14Y 7970   5.715   5.728   4.248  0.6757  1.0243 -2.1458
   85SOPE  C315 7971   5.855   5.575   4.235 -0.0745 -0.0094  0.0507
   85SOPE  H15X 7972   5.916   5.619   4.154  0.5524 -2.0369 -0.6447
   85SOPE  H15Y 7973   5.852   5.466   4.214  2.8991  0.2912 -2.6102
   85SOPE  C316 7974   5.925   5.595   4.369  0.0433  0.0812  0.4720
   85SOPE  H16X 7975   6.016   5.532   4.371 -0.6449 -0.9299  1.6016
   85SOPE  H16Y 7976   5.862   5.547   4.447  0.0251 -0.2048  0.2848
   85SOPE  C317 7977   5.964   5.739   4.408  0.2537  0.4232  0.0497
   85SOPE  H17X 7978   5.869   5.795   4.409 -1.0602 -1.6794 -0.4888
   85SOPE  H17Y 7979   6.029   5.793   4.336 -1.0367  0.4755 -1.1159
   85SOPE  C318 7980   6.020   5.752   4.547  1.0638  0.1651  0.6070
   85SOPE  H18X 7981   6.131   5.758   4.546  1.1997 -1.7709  0.9647
   85SOPE  H18Y 7982   5.987   5.674   4.619  0.8108  1.6962  2.2203
   85SOPE  H18Z 7983   5.978   5.841   4.599 -2.5622 -0.9054 -0.1817
   86SOPE     N 7984   0.174   1.300   2.364  0.1482  0.6992 -0.0697
   86SOPE   HN1 7985   0.223   1.249   2.287  0.0646 -1.5996  1.2916
   86SOPE   HN2 7986   0.128   1.227   2.422 -0.2684  0.5279 -0.6122
   86SOPE   HN3 7987   0.097   1.352   2.318 -1.4768 -1.0352  0.5590
   86SOPE   C12 7988   0.269   1.383   2.445 -0.6393  0.4699 -0.4503
   86SOPE  H12A 7989   0.208   1.454   2.505  0.8956 -0.4844  2.4251
   86SOPE  H12B 7990   0.328   1.442   2.371  0.1910  1.8605  1.2439
   86SOPE   C11 7991   0.359   1.299   2.543  0.2491 -0.6368  0.6173
   86SOPE  H11A 7992   0.288   1.247   2.610 -1.2654  2.4709  1.6185
   86SOPE  H11B 7993   0.422   1.374   2.596  0.1351 -0.1161  0.0149
   86SOPE     P 7994   0.585   1.150   2.511  0.4049  0.1711 -0.2109
   86SOPE   O13 7995   0.681   1.260   2.517  0.5769 -0.7394  0.0845
   86SOPE   O14 7996   0.618   1.034   2.425  0.5180  0.7065  0.3988
   86SOPE   O12 7997   0.443   1.208   2.466 -0.3112  0.6389 -0.0725
   86SOPE   O11 7998   0.551   1.088   2.654  0.0891  0.1913 -1.0482
   86SOPE    C1 7999   0.465   0.977   2.662  0.9008 -0.2318  0.3629
   86SOPE    HA 8000   0.525   0.886   2.641  0.0798 -1.1102  1.6784
   86SOPE    HB 8001   0.390   0.979   2.580  0.2279 -1.3600  0.9258
   86SOPE    C2 8002   0.390   0.970   2.799  0.5936  0.0498  0.0637
   86SOPE    HS 8003   0.336   1.066   2.803 -3.0774 -1.8385 -0.2297
   86SOPE   O21 8004   0.485   0.945   2.903 -0.2298  0.0175  0.2234
   86SOPE   C21 8005   0.480   1.030   3.011  0.3692  0.8733 -0.2830
   86SOPE   O22 8006   0.415   1.132   3.018  0.4199  0.0271  0.4719
   86SOPE   C22 8007   0.567   0.978   3.117 -0.3471 -0.0181 -0.5038
   86SOPE   H2R 8008   0.669   1.017   3.099 -0.8778  0.7792 -1.8988
   86SOPE   H2S 8009   0.567   0.867   3.118 -0.4053 -0.0546 -2.0746
   86SOPE    C3 8010   0.291   0.850   2.816  0.0807 -0.4811  0.0890
   86SOPE    HX 8011   0.329   0.757   2.769  0.0376 -1.0071  1.0735
   86SOPE    HY 8012   0.201   0.881   2.757 -2.1360 -2.2663  2.3313
   86SOPE   O31 8013   0.256   0.830   2.956  0.1734 -0.3443  0.7486
   86SOPE   C31 8014   0.151   0.755   2.973 -0.8444 -0.1242 -0.0261
   86SOPE   O32 8015   0.095   0.695   2.886  0.3089 -0.0174  0.6183
   86SOPE   C32 8016   0.101   0.760   3.118 -0.5002 -0.1467  0.5339
   86SOPE   H2X 8017  -0.010   0.758   3.111 -0.5457 -0.0841  1.2479
   86SOPE   H2Y 8018   0.131   0.855   3.168 -2.0073  0.6663 -0.0059
   86SOPE   C23 8019   0.531   1.015   3.266 -0.3606 -0.3578 -0.0607
   86SOPE   H3R 8020   0.561   1.122   3.271  0.5284 -0.5115 -1.5855
   86SOPE   H3S 8021   0.588   0.953   3.339  2.2397  0.5756 -1.1678
   86SOPE   C24 8022   0.377   1.006   3.292  0.3700  0.2302  0.3332
   86SOPE   H4R 8023   0.316   1.079   3.235  0.6589 -0.1346 -0.4582
   86SOPE   H4S 8024   0.358   0.902   3.256  2.1502  0.5973 -1.8665
   86SOPE   C25 8025   0.339   1.021   3.437 -0.0249 -0.1405 -0.3993
   86SOPE   H5R 8026   0.361   1.124   3.470  0.7559 -0.4714  0.1411
   86SOPE   H5S 8027   0.230   1.003   3.441  0.0283 -0.4118 -0.1300
   86SOPE   C26 8028   0.390   0.911   3.525  0.0590 -0.0318  0.5142
   86SOPE   H6R 8029   0.392   0.815   3.470 -2.0732 -0.0051  0.2985
   86SOPE   H6S 8030   0.496   0.934   3.549  0.0797 -1.8007  2.2788
   86SOPE   C27 8031   0.322   0.911   3.664  0.0537 -0.1357 -0.0646
   86SOPE   H7R 8032   0.334   1.013   3.706 -1.3792  0.1558 -0.3112
   86SOPE   H7S 8033   0.212   0.903   3.653 -0.2533  1.2174  1.6315
   86SOPE   C28 8034   0.370   0.814   3.775  0.0925  0.3849  0.6167
   86SOPE   H8R 8035   0.344   0.713   3.736 -0.0293 -0.0548  1.8020
   86SOPE   H8S 8036   0.480   0.823   3.782  0.3722 -2.0350  0.3619
   86SOPE   C29 8037   0.311   0.819   3.911  0.8346  0.4219 -0.3605
   86SOPE   H91 8038   0.219   0.760   3.920  1.8597 -1.4388 -1.4379
   86SOPE  C210 8039   0.372   0.866   4.020 -0.1086  0.3042 -0.4150
   86SOPE  H101 8040   0.306   0.866   4.108  0.5579 -2.3498  0.1653
   86SOPE  C211 8041   0.498   0.946   4.027 -0.1503  0.9816  0.1359
   86SOPE  H11R 8042   0.499   1.024   3.947  1.2487 -0.3441 -1.2077
   86SOPE  H11S 8043   0.589   0.890   3.995  0.3510  1.2132  1.0930
   86SOPE  C212 8044   0.534   1.027   4.156 -0.2561  0.8922  0.3152
   86SOPE  H12R 8045   0.618   1.098   4.139  1.7784 -0.8259  2.4264
   86SOPE  H12S 8046   0.585   0.955   4.224  2.1252  1.7576 -0.4635
   86SOPE  C213 8047   0.419   1.101   4.230  0.2337 -0.1557  0.8971
   86SOPE  H13R 8048   0.341   1.028   4.259  2.5622 -2.7209  1.1020
   86SOPE  H13S 8049   0.372   1.170   4.157  1.3040 -1.2537 -0.9135
   86SOPE  C214 8050   0.445   1.180   4.357 -0.4332  0.0379  0.2036
   86SOPE  H14R 8051   0.358   1.244   4.381 -1.4065 -1.3634  0.5106
   86SOPE  H14S 8052   0.536   1.241   4.338 -0.1706 -0.5827 -0.5898
   86SOPE  C215 8053   0.492   1.098   4.484 -0.1457 -0.5043  0.6582
   86SOPE  H15R 8054   0.602   1.082   4.489  0.1329 -0.6952 -3.0350
   86SOPE  H15S 8055   0.462   0.991   4.478  2.7783 -1.3654 -0.2226
   86SOPE  C216 8056   0.440   1.173   4.613 -0.5763  0.0197  0.5704
   86SOPE  H16R 8057   0.330   1.186   4.619 -0.3142  1.8090  2.4604
   86SOPE  H16S 8058   0.490   1.272   4.621 -0.0632 -0.2196  0.3612
   86SOPE  C217 8059   0.485   1.095   4.734  0.1294  0.2054 -0.4346
   86SOPE  H17R 8060   0.595   1.090   4.747  0.0294 -0.0967  0.3737
   86SOPE  H17S 8061   0.453   0.989   4.732 -0.6139  0.4341 -0.8251
   86SOPE  C218 8062   0.436   1.159   4.864 -0.5441 -0.2383 -0.0229
   86SOPE  H18R 8063   0.480   1.260   4.880 -1.1176  0.0558 -0.2959
   86SOPE  H18S 8064   0.478   1.106   4.952  0.6489  2.3147  1.0606
   86SOPE  H18T 8065   0.326   1.168   4.868 -0.4348  1.0627  0.7407
   86SOPE   C33 8066   0.138   0.638   3.209 -0.5502  0.1458 -0.2466
   86SOPE   H3X 8067   0.246   0.616   3.193 -0.4692  0.7478 -0.5609
   86SOPE   H3Y 8068   0.089   0.548   3.168 -1.3474  1.3105 -1.9731
   86SOPE   C34 8069   0.103   0.644   3.363  0.0159 -0.2371 -0.1941
   86SOPE   H4X 8070  -0.003   0.613   3.369  0.6195 -2.5393 -0.2472
   86SOPE   H4Y 8071   0.122   0.745   3.405  1.4352 -0.6488  0.2277
   86SOPE   C35 8072   0.185   0.545   3.447 -0.0232 -0.2787 -0.0183
   86SOPE   H5X 8073   0.295   0.553   3.430 -0.0677 -1.0556 -0.7038
   86SOPE   H5Y 8074   0.165   0.441   3.415 -0.1432 -1.4889  3.5801
   86SOPE   C36 8075   0.133   0.549   3.592 -0.4739 -0.9993  0.0449
   86SOPE   H6X 8076   0.023   0.563   3.592 -0.4588  0.1599 -3.4146
   86SOPE   H6Y 8077   0.175   0.637   3.646 -0.7093 -1.2117  0.5772
   86SOPE   C37 8078   0.153   0.424   3.669  0.2839  0.4768 -0.5668
   86SOPE   H7X 8079   0.260   0.401   3.691 -0.0641 -0.4017  0.2928
   86SOPE   H7Y 8080   0.096   0.344   3.617  0.9916  0.2973 -1.0765
   86SOPE   C38 8081   0.079   0.420   3.809  0.5043  0.5667 -1.0343
   86SOPE   H8X 8082   0.044   0.315   3.824  1.1100  0.3441 -1.1666
   86SOPE   H8Y 8083  -0.016   0.477   3.808  0.3551  0.3099 -1.5654
   86SOPE   C39 8084   0.165   0.460   3.928  0.0535 -0.9109  0.8513
   86SOPE   H9X 8085   0.230   0.548   3.909  0.4418 -1.5172 -0.7813
   86SOPE   H9Y 8086   0.238   0.381   3.954  0.6678 -1.0355 -1.1166
   86SOPE  C310 8087   0.072   0.489   4.049  0.4886  0.2251 -0.7307
   86SOPE  H10X 8088   0.041   0.388   4.084 -0.2894 -0.1299 -2.3337
   86SOPE  H10Y 8089  -0.022   0.545   4.032 -0.4334 -1.1354 -0.3267
   86SOPE  C311 8090   0.151   0.551   4.173  0.3766  0.4224  0.5756
   86SOPE  H11X 8091   0.180   0.654   4.141 -0.1117  0.4306  0.1544
   86SOPE  H11Y 8092   0.237   0.491   4.210  0.3121  2.3135  4.2722
   86SOPE  C312 8093   0.056   0.551   4.292  0.5060  0.9421 -0.0813
   86SOPE  H12X 8094   0.032   0.448   4.328  0.5123  0.3425 -1.7413
   86SOPE  H12Y 8095  -0.038   0.601   4.262  1.0197  2.2898  0.4963
   86SOPE  C313 8096   0.120   0.624   4.410  0.2680  0.7552 -0.2375
   86SOPE  H13X 8097   0.145   0.725   4.373 -0.2623  0.4257 -1.5584
   86SOPE  H13Y 8098   0.215   0.577   4.441 -0.3508 -0.2223  0.2286
   86SOPE  C314 8099   0.018   0.633   4.524 -0.2530 -0.1846 -0.2525
   86SOPE  H14X 8100  -0.022   0.534   4.552 -1.8335 -0.5959 -3.5291
   86SOPE  H14Y 8101  -0.067   0.688   4.478 -0.5635 -0.5535 -0.1197
   86SOPE  C315 8102   0.077   0.705   4.647  0.4049  0.3912 -0.6549
   86SOPE  H15X 8103   0.001   0.720   4.727  0.4771 -0.9748 -0.2933
   86SOPE  H15Y 8104   0.099   0.807   4.609 -2.7950  1.8244  0.9217
   86SOPE  C316 8105   0.204   0.656   4.721  0.3803  0.6355 -0.6485
   86SOPE  H16X 8106   0.225   0.719   4.810 -1.9655 -0.6476  0.9185
   86SOPE  H16Y 8107   0.289   0.668   4.650  0.5518 -0.2124 -0.6043
   86SOPE  C317 8108   0.180   0.509   4.772 -0.5397  0.2374  0.0600
   86SOPE  H17X 8109   0.171   0.442   4.684 -1.0825  0.3159  0.0547
   86SOPE  H17Y 8110   0.092   0.491   4.839 -0.3070  1.5674  0.7502
   86SOPE  C318 8111   0.298   0.466   4.862  0.2398  0.6668 -0.4080
   86SOPE  H18X 8112   0.295   0.358   4.888  3.7451  0.7261  0.8739
   86SOPE  H18Y 8113   0.283   0.524   4.956 -1.6968  0.3262 -0.4734
   86SOPE  H18Z 8114   0.395   0.479   4.809  0.6598 -0.2678  0.1059
   87SOPE     N 8115   2.108   5.775   2.291  0.0310 -0.4612  0.7003
   87SOPE   HN1 8116   2.005   5.770   2.304 -0.1291  1.0973  0.3078
   87SOPE   HN2 8117   2.132   5.683   2.249  1.6907 -0.2080  1.0179
   87SOPE   HN3 8118   2.158   5.779   2.382  0.4526  0.4752  0.4499
   87SOPE   C12 8119   2.140   5.888   2.187  0.3538  0.2904 -0.0738
   87SOPE  H12A 8120   2.152   5.985   2.241 -1.3421  0.7878 -0.5060
   87SOPE  H12B 8121   2.054   5.888   2.116 -1.4446 -0.8689  1.9552
   87SOPE   C11 8122   2.279   5.859   2.121  0.1939 -0.1912 -0.4414
   87SOPE  H11A 8123   2.299   5.922   2.032  1.8987 -0.0078  0.0432
   87SOPE  H11B 8124   2.279   5.751   2.093 -1.9059 -1.1914  2.8261
   87SOPE     P 8125   2.480   6.011   2.221  0.1871  0.1053  0.4429
   87SOPE   O13 8126   2.545   6.033   2.090  0.7034  0.1352 -0.4663
   87SOPE   O14 8127   2.576   5.975   2.329 -0.0806  0.2453 -0.7543
   87SOPE   O12 8128   2.381   5.892   2.220 -0.6766 -0.0400  0.4885
   87SOPE   O11 8129   2.386   6.132   2.269 -0.3283  0.5735  0.3400
   87SOPE    C1 8130   2.336   6.137   2.402 -0.1444 -0.0194  0.4444
   87SOPE    HA 8131   2.327   6.038   2.452  0.1926  0.1740  0.8910
   87SOPE    HB 8132   2.237   6.188   2.407  0.2821  0.7367  3.5284
   87SOPE    C2 8133   2.429   6.221   2.494 -0.2437 -0.3518  0.8762
   87SOPE    HS 8134   2.533   6.187   2.472 -0.8410 -1.8329  0.2493
   87SOPE   O21 8135   2.406   6.184   2.633  0.0030  0.3023  0.2371
   87SOPE   C21 8136   2.497   6.227   2.720 -0.9266 -0.1609  0.2701
   87SOPE   O22 8137   2.600   6.282   2.684  0.5382 -0.4830 -0.1672
   87SOPE   C22 8138   2.479   6.185   2.861  0.2794 -0.2642  0.6368
   87SOPE   H2R 8139   2.466   6.074   2.860  1.8697 -0.4774 -0.0938
   87SOPE   H2S 8140   2.384   6.233   2.894 -0.1168  0.2690 -1.1687
   87SOPE    C3 8141   2.416   6.370   2.457  0.9855 -0.1823 -0.7494
   87SOPE    HX 8142   2.427   6.374   2.346 -2.1429 -0.9398 -1.1641
   87SOPE    HY 8143   2.492   6.441   2.497  0.6226  0.3302 -0.9678
   87SOPE   O31 8144   2.275   6.419   2.481  0.2663 -0.0315 -0.1387
   87SOPE   C31 8145   2.255   6.478   2.601  0.0808 -0.1166  0.1785
   87SOPE   O32 8146   2.338   6.498   2.686  0.4495  0.0382 -0.0320
   87SOPE   C32 8147   2.108   6.524   2.608 -0.1281 -0.4793  0.6469
   87SOPE   H2X 8148   2.053   6.436   2.569  1.6454 -1.2071 -0.3119
   87SOPE   H2Y 8149   2.105   6.603   2.530  0.0976  0.5119  1.6256
   87SOPE   C23 8150   2.604   6.209   2.942 -0.4562 -0.2511  0.1432
   87SOPE   H3R 8151   2.642   6.313   2.932  1.5482 -0.9114  0.2804
   87SOPE   H3S 8152   2.687   6.144   2.907 -1.2926 -0.5266 -1.4169
   87SOPE   C24 8153   2.581   6.191   3.097 -0.5795 -0.6519  0.0060
   87SOPE   H4R 8154   2.493   6.254   3.124  0.0427  1.0163 -1.6189
   87SOPE   H4S 8155   2.555   6.085   3.115 -1.0986 -1.2111 -3.3974
   87SOPE   C25 8156   2.714   6.218   3.176 -0.5577  0.4150  0.0702
   87SOPE   H5R 8157   2.792   6.165   3.118  1.5079  2.5186  0.7758
   87SOPE   H5S 8158   2.750   6.322   3.160  2.5635 -0.7004 -0.8647
   87SOPE   C26 8159   2.720   6.179   3.322 -0.6800  0.5737  0.0788
   87SOPE   H6R 8160   2.697   6.071   3.334 -1.0395  0.8336  2.2323
   87SOPE   H6S 8161   2.827   6.194   3.346 -0.6294  0.7782 -0.2815
   87SOPE   C27 8162   2.629   6.265   3.418 -0.7652 -0.0724  0.2206
   87SOPE   H7R 8163   2.677   6.364   3.404  3.6793 -2.0101  0.2700
   87SOPE   H7S 8164   2.524   6.274   3.383 -1.4084 -0.8964  1.8062
   87SOPE   C28 8165   2.605   6.205   3.555 -0.1883 -0.5231 -0.2380
   87SOPE   H8R 8166   2.519   6.256   3.602  0.0597  0.3397 -0.6995
   87SOPE   H8S 8167   2.561   6.104   3.538 -1.4942  0.0732 -0.5218
   87SOPE   C29 8168   2.731   6.198   3.641 -0.3214  0.1087  0.2811
   87SOPE   H91 8169   2.829   6.208   3.592 -0.9966  2.2806 -0.7306
   87SOPE  C210 8170   2.731   6.154   3.767 -0.3169 -0.3233 -1.0531
   87SOPE  H101 8171   2.826   6.132   3.818 -1.1340  1.2074  1.3219
   87SOPE  C211 8172   2.613   6.125   3.860 -0.2070  0.7854 -0.2445
   87SOPE  H11R 8173   2.521   6.178   3.827  0.2048  1.9005  0.3640
   87SOPE  H11S 8174   2.636   6.154   3.965 -0.8499 -1.3584  0.5407
   87SOPE  C212 8175   2.569   5.975   3.843 -0.6377  0.4634  0.5910
   87SOPE  H12R 8176   2.517   5.972   3.744 -1.9981  0.5612  1.2757
   87SOPE  H12S 8177   2.495   5.958   3.924 -0.7606  0.1841  0.4217
   87SOPE  C213 8178   2.688   5.872   3.854 -0.2349 -0.9594 -0.0189
   87SOPE  H13R 8179   2.751   5.873   3.945 -2.1126  0.1294  1.3467
   87SOPE  H13S 8180   2.748   5.892   3.763  0.5167  0.8874  0.8531
   87SOPE  C214 8181   2.639   5.721   3.853  0.1430  0.0754 -0.0300
   87SOPE  H14R 8182   2.726   5.652   3.845  0.6362  0.6351  0.4580
   87SOPE  H14S 8183   2.575   5.687   3.768 -0.3219 -0.2939  0.4631
   87SOPE  C215 8184   2.550   5.674   3.974  0.3226  0.2714 -0.6810
   87SOPE  H15R 8185   2.517   5.569   3.957 -0.9407  0.1511  2.1065
   87SOPE  H15S 8186   2.463   5.742   3.985 -0.1314 -0.2695 -0.8397
   87SOPE  C216 8187   2.629   5.667   4.107  0.7606  0.1279  0.5272
   87SOPE  H16R 8188   2.640   5.771   4.143  1.1049 -0.1595  1.2737
   87SOPE  H16S 8189   2.724   5.616   4.080  0.4133 -1.1752  1.6464
   87SOPE  C217 8190   2.557   5.586   4.216 -0.5090 -0.2367 -0.1534
   87SOPE  H17R 8191   2.542   5.479   4.192 -0.7884 -0.2926  0.2581
   87SOPE  H17S 8192   2.454   5.623   4.234 -0.9771 -1.1383 -0.8799
   87SOPE  C218 8193   2.632   5.597   4.352  0.3656 -0.1923  0.3820
   87SOPE  H18R 8194   2.577   5.528   4.419 -1.1769  1.4558  0.8890
   87SOPE  H18S 8195   2.632   5.706   4.375 -0.6011  0.2215 -1.4579
   87SOPE  H18T 8196   2.733   5.552   4.346  0.2910 -0.3068  0.0037
   87SOPE   C33 8197   2.044   6.559   2.743  0.0400 -0.5073 -0.4905
   87SOPE   H3X 8198   2.089   6.489   2.816  1.1763 -0.3664 -1.0282
   87SOPE   H3Y 8199   1.934   6.550   2.733 -0.0009 -1.2722  0.5273
   87SOPE   C34 8200   2.067   6.711   2.772  0.4154 -0.1264  0.4649
   87SOPE   H4X 8201   2.015   6.749   2.681  0.9582 -0.2649  0.0920
   87SOPE   H4Y 8202   2.172   6.743   2.788 -0.0320  1.4183  0.4763
   87SOPE   C35 8203   1.985   6.758   2.899  0.2889  0.2255 -0.1623
   87SOPE   H5X 8204   1.882   6.715   2.899  0.1115  0.6226 -1.6819
   87SOPE   H5Y 8205   1.974   6.868   2.907 -2.7451  0.0300 -0.5078
   87SOPE   C36 8206   2.060   6.714   3.028  0.2332  0.5096 -0.1619
   87SOPE   H6X 8207   2.154   6.772   3.016 -0.4432  1.6991  0.1352
   87SOPE   H6Y 8208   2.095   6.610   3.015  0.9571  0.6501  0.5649
   87SOPE   C37 8209   1.984   6.747   3.151  0.6958  0.3715 -0.0826
   87SOPE   H7X 8210   1.897   6.679   3.138 -0.2672  1.5373  0.0982
   87SOPE   H7Y 8211   1.961   6.856   3.155  1.0664  0.4340  0.3787
   87SOPE   C38 8212   2.069   6.705   3.278 -0.5951  0.5942  0.4654
   87SOPE   H8X 8213   2.161   6.767   3.276  0.0790 -0.3935 -0.5199
   87SOPE   H8Y 8214   2.107   6.603   3.255 -2.7280  0.1796 -1.5783
   87SOPE   C39 8215   1.995   6.710   3.417  0.0719  0.2438 -0.2371
   87SOPE   H9X 8216   2.076   6.689   3.490  0.4103 -0.6282 -0.8507
   87SOPE   H9Y 8217   1.912   6.635   3.421 -1.8255  2.2439 -0.1467
   87SOPE  C310 8218   1.948   6.846   3.435 -0.0883  0.1776  0.3892
   87SOPE  H10X 8219   1.864   6.865   3.365  0.1276  0.7907  0.2857
   87SOPE  H10Y 8220   2.030   6.910   3.397 -0.8711  0.5040 -0.7965
   87SOPE  C311 8221   1.912   6.888   3.578 -0.0599 -0.2984  0.9075
   87SOPE  H11X 8222   1.827   6.833   3.626  0.3939 -0.4878  1.5087
   87SOPE  H11Y 8223   1.874   6.991   3.563  0.7885  0.0481  1.0760
   87SOPE  C312 8224   2.035   6.892   3.672  0.1417  0.5460  0.2212
   87SOPE  H12X 8225   2.122   6.927   3.612  1.8025  0.2020  2.3265
   87SOPE  H12Y 8226   2.067   6.791   3.704 -2.1859 -0.2928  0.1197
   87SOPE  C313 8227   2.003   6.975   3.794 -0.1320 -0.8103 -0.7707
   87SOPE  H13X 8228   1.924   6.927   3.855  0.7944 -1.1789  0.1777
   87SOPE  H13Y 8229   1.960   7.070   3.756 -0.0479 -1.3432 -2.2696
   87SOPE  C314 8230   2.129   6.998   3.884  0.1488 -0.2285 -0.0280
   87SOPE  H14X 8231   2.210   7.048   3.826  1.1929  0.3100  1.8229
   87SOPE  H14Y 8232   2.173   6.902   3.918  0.6014 -0.2776 -0.7268
   87SOPE  C315 8233   2.104   7.078   4.013  0.1444  0.2922  0.5807
   87SOPE  H15X 8234   2.032   7.160   3.990 -0.2478  0.3260  1.8328
   87SOPE  H15Y 8235   2.202   7.125   4.041  1.1310 -1.0556 -0.4902
   87SOPE  C316 8236   2.063   7.000   4.142 -0.6917  1.2386  0.9524
   87SOPE  H16X 8237   2.121   6.905   4.145  0.5349  1.8949 -0.6403
   87SOPE  H16Y 8238   1.954   6.979   4.140 -0.3972 -0.3167  0.3517
   87SOPE  C317 8239   2.088   7.074   4.272  0.6118 -0.2059  0.1415
   87SOPE  H17X 8240   2.062   7.182   4.265 -1.1931 -0.6136  0.0662
   87SOPE  H17Y 8241   2.193   7.062   4.306  0.9027 -0.6633 -0.8801
   87SOPE  C318 8242   2.004   7.006   4.380 -0.6460 -0.2554  0.7437
   87SOPE  H18X 8243   2.015   6.896   4.383 -1.0858 -0.3757 -0.9120
   87SOPE  H18Y 8244   1.896   7.024   4.362 -0.7272 -1.2277  0.2221
   87SOPE  H18Z 8245   2.031   7.058   4.475  1.7309 -0.7030  0.3763
   88SOPE     N 8246   2.956   0.444   2.295 -0.7341 -0.0133  0.6065
   88SOPE   HN1 8247   3.009   0.492   2.371 -0.7813 -0.4388  0.9128
   88SOPE   HN2 8248   2.884   0.389   2.345 -0.5785  0.6460  1.5893
   88SOPE   HN3 8249   3.027   0.379   2.255  2.1809  2.4516  1.3809
   88SOPE   C12 8250   2.909   0.543   2.192 -0.4671 -1.0022 -0.3452
   88SOPE  H12A 8251   2.830   0.490   2.136 -0.9744  0.0712 -0.6813
   88SOPE  H12B 8252   2.993   0.575   2.126  0.0249 -2.0693 -0.2464
   88SOPE   C11 8253   2.847   0.668   2.251 -0.1826  0.4067  0.0937
   88SOPE  H11A 8254   2.926   0.734   2.294 -1.0006  0.5633  1.3878
   88SOPE  H11B 8255   2.793   0.641   2.344  0.8582 -2.5474 -0.0792
   88SOPE     P 8256   2.632   0.788   2.158  0.4776  0.1692 -0.3248
   88SOPE   O13 8257   2.590   0.836   2.026  0.5585 -0.4713  0.1881
   88SOPE   O14 8258   2.616   0.881   2.270  0.1884  0.2950 -0.3163
   88SOPE   O12 8259   2.787   0.750   2.150  0.8479  0.4351  0.0350
   88SOPE   O11 8260   2.579   0.640   2.182 -0.4302  0.7940 -0.2669
   88SOPE    C1 8261   2.449   0.599   2.231  0.2451 -0.3969 -0.5297
   88SOPE    HA 8262   2.388   0.532   2.167 -2.7229 -0.2268  1.9113
   88SOPE    HB 8263   2.395   0.694   2.248 -1.3013 -1.3861  0.3379
   88SOPE    C2 8264   2.461   0.534   2.375  0.1053  0.8865  0.1943
   88SOPE    HS 8265   2.360   0.518   2.419 -0.4677 -0.5457 -1.5055
   88SOPE   O21 8266   2.540   0.602   2.469  0.0268  0.4433 -0.4761
   88SOPE   C21 8267   2.487   0.718   2.515 -0.4783 -0.2449 -0.2277
   88SOPE   O22 8268   2.374   0.753   2.496 -0.9990 -0.1746  0.3514
   88SOPE   C22 8269   2.584   0.809   2.600  1.0813  0.5396 -0.3098
   88SOPE   H2R 8270   2.530   0.852   2.687  3.3388  1.5762  0.6386
   88SOPE   H2S 8271   2.614   0.900   2.543  0.7902  0.9243  0.1385
   88SOPE    C3 8272   2.531   0.396   2.350  0.0488 -0.2289 -0.1392
   88SOPE    HX 8273   2.629   0.424   2.305 -0.5359  1.4015 -0.4813
   88SOPE    HY 8274   2.478   0.330   2.277  0.1636 -0.2158 -0.2352
   88SOPE   O31 8275   2.547   0.323   2.474  0.1523  0.3975 -1.0810
   88SOPE   C31 8276   2.677   0.314   2.523  0.2520 -0.1766 -0.3818
   88SOPE   O32 8277   2.782   0.343   2.469  0.2266 -0.6952 -0.9724
   88SOPE   C32 8278   2.659   0.266   2.662 -0.7172  0.0578 -0.2406
   88SOPE   H2X 8279   2.679   0.157   2.654  1.4586  0.2622  1.3112
   88SOPE   H2Y 8280   2.558   0.294   2.699 -1.3764 -0.1840 -1.8087
   88SOPE   C23 8281   2.707   0.741   2.655  0.3686  0.4424 -0.9358
   88SOPE   H3R 8282   2.771   0.701   2.574  0.6674 -1.3322  0.1077
   88SOPE   H3S 8283   2.676   0.648   2.708  0.2206  0.5280 -0.8719
   88SOPE   C24 8284   2.771   0.826   2.764  0.0649  0.5306  0.1125
   88SOPE   H4R 8285   2.773   0.923   2.710  0.0108  2.1998  2.9131
   88SOPE   H4S 8286   2.709   0.831   2.856  0.6749  0.1648  0.5499
   88SOPE   C25 8287   2.906   0.778   2.804  0.2278 -0.3874  0.6044
   88SOPE   H5R 8288   2.891   0.669   2.822 -1.5003 -0.3725 -0.5219
   88SOPE   H5S 8289   2.984   0.783   2.725  0.3521 -0.1638  0.7412
   88SOPE   C26 8290   2.962   0.849   2.925 -0.8180  0.6242 -0.1752
   88SOPE   H6R 8291   2.978   0.959   2.915  4.3436  0.4687  2.6044
   88SOPE   H6S 8292   2.899   0.827   3.014  2.8760 -0.8784  2.2909
   88SOPE   C27 8293   3.107   0.803   2.961  0.9703  0.0346 -0.2043
   88SOPE   H7R 8294   3.107   0.694   2.981 -0.5465  0.1773  0.7498
   88SOPE   H7S 8295   3.170   0.809   2.870  1.7523 -0.0798  0.3199
   88SOPE   C28 8296   3.160   0.886   3.077  0.1543 -0.2242  0.0678
   88SOPE   H8R 8297   3.267   0.855   3.081  0.1198 -1.2364 -3.3360
   88SOPE   H8S 8298   3.142   0.993   3.053  0.0670  0.5976  3.3912
   88SOPE   C29 8299   3.088   0.845   3.205 -0.2155  0.2575  0.1721
   88SOPE   H91 8300   2.981   0.863   3.224  0.0435  1.5629  0.4988
   88SOPE  C210 8301   3.158   0.799   3.317 -0.5706 -0.8193  0.2013
   88SOPE  H101 8302   3.099   0.774   3.406 -3.5692 -0.4564 -1.5341
   88SOPE  C211 8303   3.309   0.770   3.327 -0.8457  0.1773 -0.0527
   88SOPE  H11R 8304   3.365   0.866   3.330  0.5164 -0.4915 -2.0365
   88SOPE  H11S 8305   3.354   0.734   3.232  1.3897  0.5256  0.8255
   88SOPE  C212 8306   3.344   0.678   3.444  0.4817 -0.2548 -0.3587
   88SOPE  H12R 8307   3.298   0.578   3.427 -0.1324 -0.0386 -0.0143
   88SOPE  H12S 8308   3.305   0.716   3.541  0.8217 -0.6665 -0.0542
   88SOPE  C213 8309   3.494   0.675   3.468 -0.2633  0.2475 -0.4665
   88SOPE  H13R 8310   3.536   0.778   3.460 -0.4375  0.3852  0.3040
   88SOPE  H13S 8311   3.537   0.611   3.388 -0.4024 -0.4515  0.0153
   88SOPE  C214 8312   3.534   0.612   3.602  0.9145  0.0163  0.6333
   88SOPE  H14R 8313   3.642   0.631   3.616  0.6095  1.9208  0.7172
   88SOPE  H14S 8314   3.522   0.501   3.605  0.4154  0.0823  1.6405
   88SOPE  C215 8315   3.472   0.671   3.733  0.9721  0.3863  0.6786
   88SOPE  H15R 8316   3.364   0.649   3.740  0.9503  0.1416 -0.2988
   88SOPE  H15S 8317   3.471   0.782   3.733 -2.4347  0.4561  1.4710
   88SOPE  C216 8318   3.557   0.647   3.852 -0.4623  0.0986 -0.6082
   88SOPE  H16R 8319   3.658   0.689   3.833 -0.0569 -0.8633 -0.6276
   88SOPE  H16S 8320   3.575   0.539   3.872  1.4005  0.5499  0.3382
   88SOPE  C217 8321   3.497   0.719   3.978 -0.4287 -0.0601  0.7485
   88SOPE  H17R 8322   3.403   0.666   4.001 -0.2528 -0.9255 -0.4277
   88SOPE  H17S 8323   3.473   0.821   3.940  0.1590 -0.3080 -0.3484
   88SOPE  C218 8324   3.591   0.717   4.095  0.7015  0.2859  0.2821
   88SOPE  H18R 8325   3.556   0.782   4.178  2.1325  1.3687  0.0862
   88SOPE  H18S 8326   3.691   0.761   4.075  0.9860 -0.8944 -1.0083
   88SOPE  H18T 8327   3.595   0.611   4.126  0.8402  0.5598  1.2143
   88SOPE   C33 8328   2.768   0.329   2.758 -0.0245  0.0357  0.2068
   88SOPE   H3X 8329   2.749   0.438   2.752  0.0974  0.1057  0.9509
   88SOPE   H3Y 8330   2.873   0.313   2.725  0.8579 -2.1757  3.5684
   88SOPE   C34 8331   2.773   0.275   2.900  0.1211 -0.5559  0.1639
   88SOPE   H4X 8332   2.800   0.168   2.889  1.8097 -0.1508  0.0530
   88SOPE   H4Y 8333   2.672   0.276   2.947  0.1570 -0.2852  0.2402
   88SOPE   C35 8334   2.876   0.353   2.987 -0.8344 -0.4550  0.5355
   88SOPE   H5X 8335   2.841   0.457   3.003 -0.2991 -0.6174  3.2760
   88SOPE   H5Y 8336   2.976   0.342   2.941 -0.1600 -1.1331  2.1116
   88SOPE   C36 8337   2.876   0.282   3.124  0.2612  0.2863 -0.3826
   88SOPE   H6X 8338   2.881   0.173   3.105  1.4623  0.1576  0.5396
   88SOPE   H6Y 8339   2.777   0.310   3.164  1.1534  0.1526  2.0823
   88SOPE   C37 8340   2.988   0.341   3.209 -1.0874 -0.8113  0.6420
   88SOPE   H7X 8341   2.974   0.452   3.211  1.2267 -0.4624  0.4519
   88SOPE   H7Y 8342   3.090   0.325   3.168  0.5914 -0.7384  4.3318
   88SOPE   C38 8343   3.001   0.290   3.351  0.9893 -0.2484  0.3100
   88SOPE   H8X 8344   3.103   0.266   3.387  0.7269 -2.1304 -0.0950
   88SOPE   H8Y 8345   2.952   0.191   3.344  1.3592 -0.6167  2.3713
   88SOPE   C39 8346   2.913   0.374   3.442 -0.3559  0.5426 -0.8271
   88SOPE   H9X 8347   2.886   0.316   3.533  0.9521  0.7419 -0.2927
   88SOPE   H9Y 8348   2.814   0.405   3.402 -1.7042 -2.3179  0.0249
   88SOPE  C310 8349   2.974   0.511   3.471  0.2684 -0.4352 -0.3459
   88SOPE  H10X 8350   2.952   0.593   3.400  0.7591  0.3348  0.3728
   88SOPE  H10Y 8351   3.085   0.516   3.476  0.2132 -0.2158  2.3938
   88SOPE  C311 8352   2.924   0.549   3.618 -0.0877  0.1402 -0.9365
   88SOPE  H11X 8353   2.948   0.471   3.693 -0.1873  2.2032  1.3646
   88SOPE  H11Y 8354   2.814   0.555   3.600 -0.4698 -0.3343  1.0135
   88SOPE  C312 8355   2.971   0.692   3.661  0.5519  0.0803  0.2693
   88SOPE  H12X 8356   2.952   0.756   3.572 -0.2170 -0.0908  0.3034
   88SOPE  H12Y 8357   3.081   0.695   3.680  0.9238  1.7959 -1.8103
   88SOPE  C313 8358   2.889   0.732   3.781 -0.2055 -0.2162 -0.0600
   88SOPE  H13X 8359   2.779   0.727   3.761 -0.2354  1.7739 -0.6045
   88SOPE  H13Y 8360   2.919   0.836   3.805  2.7428 -1.3479  1.6129
   88SOPE  C314 8361   2.927   0.641   3.901  0.0693  0.0667 -0.5353
   88SOPE  H14X 8362   3.027   0.670   3.941 -0.0455  0.7293 -0.7119
   88SOPE  H14Y 8363   2.931   0.533   3.876 -2.3594 -0.1943  0.0133
   88SOPE  C315 8364   2.835   0.666   4.021 -0.3357  0.4824 -0.6807
   88SOPE  H15X 8365   2.729   0.633   4.012 -0.0803 -1.0519  1.2464
   88SOPE  H15Y 8366   2.834   0.775   4.044 -0.8914  0.1530  1.0016
   88SOPE  C316 8367   2.901   0.616   4.153 -0.3735 -0.2514  0.1170
   88SOPE  H16X 8368   3.005   0.654   4.157 -0.7976  0.9812  0.1736
   88SOPE  H16Y 8369   2.915   0.506   4.151 -2.9745 -0.7036  1.4731
   88SOPE  C317 8370   2.820   0.654   4.275  0.3634 -0.2567 -0.0327
   88SOPE  H17X 8371   2.863   0.609   4.366  1.2669  0.5950 -0.0237
   88SOPE  H17Y 8372   2.723   0.604   4.252  0.4734 -0.9349  0.9689
   88SOPE  C318 8373   2.801   0.808   4.302  0.2859 -0.0402  0.4328
   88SOPE  H18X 8374   2.727   0.820   4.385  1.0565 -0.2387  1.1627
   88SOPE  H18Y 8375   2.744   0.849   4.216 -0.8239 -2.2084  0.0650
   88SOPE  H18Z 8376   2.893   0.864   4.328  1.1211 -1.6796  1.0683
   89SAPC     N 8377   1.927   6.739   6.608  0.2074 -0.6180  0.4067
   89SAPC   C12 8378   1.802   6.818   6.571  0.4267  0.6043 -0.2204
   89SAPC  H12A 8379   1.824   6.921   6.599  1.9607  0.5813 -1.2121
   89SAPC  H12B 8380   1.721   6.786   6.635 -0.2441 -1.1327 -1.8716
   89SAPC   C13 8381   2.045   6.790   6.530 -0.1422 -0.0054 -0.3769
   89SAPC  H13A 8382   2.044   6.896   6.512 -2.0152 -0.1938 -1.6816
   89SAPC  H13B 8383   2.140   6.760   6.574 -1.0363 -0.2565  1.4742
   89SAPC  H13C 8384   2.048   6.743   6.433 -0.3910 -0.9624  0.0615
   89SAPC   C14 8385   1.951   6.769   6.757  0.2517 -0.5474 -0.5128
   89SAPC  H14A 8386   2.045   6.739   6.800 -0.9116 -1.6406  1.3780
   89SAPC  H14B 8387   1.943   6.871   6.791 -0.3409 -1.2868  1.7578
   89SAPC  H14C 8388   1.877   6.718   6.817 -3.0767  1.5402 -2.5050
   89SAPC   C15 8389   1.913   6.592   6.571 -0.1788  0.6234 -0.1938
   89SAPC  H15A 8390   2.013   6.559   6.547  1.1423  2.1590  2.6648
   89SAPC  H15B 8391   1.881   6.535   6.657 -0.2623 -0.8161 -1.1540
   89SAPC  H15C 8392   1.841   6.581   6.492 -1.0015  3.2800  0.1024
   89SAPC   C11 8393   1.751   6.816   6.424 -0.4304  0.3430 -0.4951
   89SAPC  H11A 8394   1.721   6.714   6.394 -1.6143  0.5099  0.0571
   89SAPC  H11B 8395   1.827   6.848   6.350 -2.0847  1.9839 -1.5790
   89SAPC     P 8396   1.490   6.849   6.396  0.0021  0.1261  0.1368
   89SAPC   O13 8397   1.454   6.741   6.489  0.1338  0.2230 -0.6402
   89SAPC   O14 8398   1.399   6.966   6.395  0.5800  0.1298 -0.1327
   89SAPC   O12 8399   1.636   6.903   6.421 -0.4058 -0.6891 -0.0105
   89SAPC   O11 8400   1.506   6.787   6.248 -0.8419  0.5158 -0.1977
   89SAPC    C1 8401   1.541   6.872   6.139 -0.0662 -0.0310  0.3116
   89SAPC    HA 8402   1.469   6.955   6.121 -1.7231 -1.6382 -0.6910
   89SAPC    HB 8403   1.642   6.915   6.159 -0.1783 -0.8353  2.8574
   89SAPC    C2 8404   1.538   6.799   6.013 -0.5018  0.1281  0.7593
   89SAPC    HS 8405   1.597   6.847   5.932  0.1436 -1.5014  0.2048
   89SAPC   O21 8406   1.410   6.770   5.965  0.5368 -0.1358  0.0384
   89SAPC   C21 8407   1.341   6.868   5.917 -0.0001 -0.2286  0.0906
   89SAPC   O22 8408   1.378   6.984   5.893 -0.7301 -0.3693 -0.2769
   89SAPC   C22 8409   1.200   6.827   5.894 -0.3234  0.2871 -0.0465
   89SAPC   H2R 8410   1.187   6.734   5.835 -1.0058  0.9920 -1.0331
   89SAPC   H2S 8411   1.153   6.828   5.995  1.6917  0.3290  0.9482
   89SAPC    C3 8412   1.607   6.652   6.037  0.4206  0.0466  0.3462
   89SAPC    HX 8413   1.524   6.588   6.074 -0.3937  0.0074 -1.4303
   89SAPC    HY 8414   1.678   6.661   6.122  0.0510 -1.1145  0.7903
   89SAPC   O31 8415   1.649   6.586   5.915 -0.3669 -0.0947  0.4069
   89SAPC   C31 8416   1.772   6.618   5.871  0.2082  0.6664 -0.1265
   89SAPC   O32 8417   1.849   6.703   5.920  0.2238  0.0299 -0.6065
   89SAPC   C32 8418   1.796   6.546   5.732 -0.2244 -0.2060  0.1352
   89SAPC   H2X 8419   1.757   6.442   5.744 -0.1420 -0.2249  0.2472
   89SAPC   H2Y 8420   1.905   6.539   5.715 -0.2768  1.4843 -1.1019
   89SAPC   C23 8421   1.134   6.920   5.791  0.1851 -0.4865  1.2377
   89SAPC   H3R 8422   1.130   7.025   5.828  0.1045 -0.4162  1.0302
   89SAPC   H3S 8423   1.025   6.900   5.787 -0.1320  0.9209  2.1332
   89SAPC   C24 8424   1.197   6.948   5.652 -0.1741 -0.4975  0.3870
   89SAPC   H4R 8425   1.228   6.849   5.611  1.1773  1.3018 -3.4825
   89SAPC   H4S 8426   1.294   6.998   5.672 -0.0560 -0.0273 -1.2300
   89SAPC   C25 8427   1.102   7.025   5.559 -0.8434 -0.7278  0.1820
   89SAPC   H5R 8428   1.021   7.080   5.609 -0.4055  1.6084 -1.5200
   89SAPC   C26 8429   1.105   7.016   5.424  0.1501 -0.6298  1.0216
   89SAPC   H6R 8430   1.033   7.075   5.365  1.3720  0.7055  0.8125
   89SAPC   C27 8431   1.197   6.926   5.347 -0.4850  0.3551 -0.6851
   89SAPC   H7R 8432   1.141   6.875   5.266  0.3002 -1.4170 -0.1597
   89SAPC   H7S 8433   1.261   6.865   5.414  0.4293  1.5592 -0.4236
   89SAPC   C28 8434   1.300   7.018   5.283 -0.0175 -0.5223 -0.1802
   89SAPC   H8R 8435   1.382   7.053   5.347 -0.0478  1.6414 -1.2436
   89SAPC   C29 8436   1.304   7.069   5.156 -0.4629 -0.4691 -0.1949
   89SAPC   H9R 8437   1.390   7.138   5.147  1.5554 -2.8236 -0.0713
   89SAPC  C210 8438   1.204   7.043   5.039 -0.3604  0.1771 -0.7031
   89SAPC  H10R 8439   1.154   7.135   5.001 -0.4976  0.5590  0.3597
   89SAPC  H10S 8440   1.114   6.991   5.080 -1.4068  1.5437 -1.2092
   89SAPC  C211 8441   1.274   6.961   4.936 -0.7577  0.0120  0.7500
   89SAPC  H11R 8442   1.356   6.891   4.958  0.1573  0.1061 -1.9557
   89SAPC  C212 8443   1.232   6.949   4.809  0.0956 -0.0471  0.4558
   89SAPC  H12R 8444   1.283   6.867   4.755 -0.6850 -2.9249  3.7166
   89SAPC  C213 8445   1.125   7.034   4.737  0.5001 -0.5138  0.2231
   89SAPC  H13R 8446   1.164   7.093   4.652 -0.8637 -0.7270 -0.5683
   89SAPC  H13S 8447   1.076   7.111   4.801 -0.1548  1.5090 -2.5299
   89SAPC  C214 8448   1.017   6.943   4.697 -0.2141  0.3526 -0.2969
   89SAPC  H14R 8449   1.028   6.910   4.593 -0.2370  0.6741 -0.3999
   89SAPC  C215 8450   0.902   6.913   4.756 -0.6553 -0.5343  0.1618
   89SAPC  H15R 8451   0.833   6.843   4.706 -3.3297  1.0465  1.4082
   89SAPC  C216 8452   0.850   6.944   4.892 -0.7582 -0.2571 -0.0459
   89SAPC  H16R 8453   0.751   6.994   4.891 -0.0057  1.2869  0.2087
   89SAPC  H16S 8454   0.918   7.022   4.933  0.1458 -0.4830 -1.0750
   89SAPC  C217 8455   0.856   6.821   4.983 -0.8032 -0.2382  0.2703
   89SAPC  H17R 8456   0.957   6.776   4.986 -1.2514 -1.2978  0.1272
   89SAPC  H17S 8457   0.793   6.738   4.943  0.2752 -0.3795 -1.2268
   89SAPC  C218 8458   0.826   6.854   5.129  0.2277 -0.3986  0.7003
   89SAPC  H18R 8459   0.724   6.899   5.125  0.4033 -0.0707 -0.6329
   89SAPC  H18S 8460   0.898   6.930   5.167 -0.9355 -0.1861  2.6173
   89SAPC  C219 8461   0.817   6.732   5.222 -0.1075 -0.0757  0.2839
   89SAPC  H19R 8462   0.910   6.672   5.214  0.0765  0.1268  0.8716
   89SAPC  H19S 8463   0.740   6.675   5.166  0.3460  1.1386 -1.6733
   89SAPC  C220 8464   0.780   6.769   5.367 -0.3662  0.2152  0.7612
   89SAPC  H20R 8465   0.679   6.816   5.373  0.2110  1.3097  3.5948
   89SAPC  H20S 8466   0.859   6.837   5.404  0.1628  1.2836 -2.0880
   89SAPC  H20T 8467   0.772   6.672   5.421 -1.2448 -1.3564 -2.0162
   89SAPC   C33 8468   1.704   6.614   5.630 -0.0412  0.6517  0.3805
   89SAPC   H3X 8469   1.709   6.724   5.640 -0.4630  0.7613 -0.4766
   89SAPC   H3Y 8470   1.601   6.580   5.652  0.6895 -1.2347  1.1206
   89SAPC   C34 8471   1.749   6.557   5.493 -0.1167 -0.5021 -0.2226
   89SAPC   H4X 8472   1.742   6.446   5.484  1.1860 -0.7844  1.6878
   89SAPC   H4Y 8473   1.859   6.574   5.489 -0.0751 -0.5286  0.6068
   89SAPC   C35 8474   1.684   6.626   5.373  0.4386  0.0044  0.4221
   89SAPC   H5X 8475   1.751   6.606   5.286  0.0453 -0.8549  0.3023
   89SAPC   H5Y 8476   1.682   6.735   5.394 -0.0949  0.2187 -0.6442
   89SAPC   C36 8477   1.542   6.579   5.350 -0.0107 -0.5544 -0.0597
   89SAPC   H6X 8478   1.482   6.633   5.426  1.8269 -2.2834  2.8217
   89SAPC   H6Y 8479   1.538   6.471   5.377 -1.5475 -0.6597 -0.6387
   89SAPC   C37 8480   1.478   6.614   5.216 -0.2008 -0.0084  0.0728
   89SAPC   H7X 8481   1.530   6.559   5.134 -0.1809 -0.2270  0.2311
   89SAPC   H7Y 8482   1.478   6.725   5.206 -2.8974 -0.0375 -1.0629
   89SAPC   C38 8483   1.327   6.571   5.216 -0.8955  0.2347  0.3179
   89SAPC   H8X 8484   1.269   6.613   5.300  0.8285 -1.6176  2.5796
   89SAPC   H8Y 8485   1.323   6.461   5.235  0.9407 -0.4886 -2.6851
   89SAPC   C39 8486   1.278   6.593   5.076  0.1828 -0.7110  0.0978
   89SAPC   H9X 8487   1.352   6.555   5.002  0.4807  1.1743 -0.6485
   89SAPC   H9Y 8488   1.270   6.702   5.052  0.9649  0.0118  2.8107
   89SAPC  C310 8489   1.152   6.520   5.037 -0.3545 -0.1513 -0.5172
   89SAPC  H10X 8490   1.058   6.553   5.087  0.1139  0.6531 -0.1597
   89SAPC  H10Y 8491   1.170   6.414   5.066  0.6033 -0.4798 -2.1656
   89SAPC  C311 8492   1.120   6.532   4.879  0.3313 -0.2397 -0.1004
   89SAPC  H11X 8493   1.198   6.482   4.818  1.7679  2.3186 -0.5294
   89SAPC  H11Y 8494   1.114   6.638   4.846  1.5898  0.2027  0.9706
   89SAPC  C312 8495   0.987   6.467   4.851  0.1617  0.9611  1.0232
   89SAPC  H12X 8496   0.964   6.487   4.744 -0.9876  2.0486  1.4447
   89SAPC  H12Y 8497   0.903   6.508   4.911 -1.0747 -0.2532  0.1789
   89SAPC  C313 8498   0.993   6.316   4.867 -1.1487  0.3110  0.3824
   89SAPC  H13X 8499   1.045   6.283   4.960 -1.1648  1.1326  0.6911
   89SAPC  H13Y 8500   1.051   6.270   4.785 -2.1360 -0.7859  0.2622
   89SAPC  C314 8501   0.852   6.253   4.868 -0.5080 -0.5041  0.1519
   89SAPC  H14X 8502   0.796   6.250   4.964 -2.1363  1.4219 -0.6584
   89SAPC  H14Y 8503   0.877   6.148   4.841  0.1158 -0.4847  0.6396
   89SAPC  C315 8504   0.752   6.302   4.756 -0.0236 -0.2419  0.1247
   89SAPC  H15X 8505   0.821   6.312   4.670  2.4535  0.0427  2.0265
   89SAPC  H15Y 8506   0.729   6.410   4.773 -0.6508 -0.5763  1.5312
   89SAPC  C316 8507   0.631   6.215   4.725  0.5160 -0.4294 -0.4134
   89SAPC  H16X 8508   0.659   6.114   4.689 -1.2688 -1.4036  0.8363
   89SAPC  H16Y 8509   0.574   6.270   4.647 -1.5146 -2.0176 -0.1271
   89SAPC  C317 8510   0.551   6.192   4.853  0.4110  0.1350 -0.5295
   89SAPC  H17X 8511   0.560   6.289   4.907 -1.4488 -0.2346  0.5326
   89SAPC  H17Y 8512   0.592   6.115   4.922  1.4067 -0.4695 -1.7645
   89SAPC  C318 8513   0.404   6.144   4.816 -0.6459 -1.0617  0.2193
   89SAPC  H18X 8514   0.350   6.119   4.910  2.3473 -0.3001  2.2840
   89SAPC  H18Y 8515   0.405   6.056   4.747 -2.9303 -1.3819  0.5095
   89SAPC  H18Z 8516   0.356   6.221   4.753 -1.1285 -2.0617 -0.6746
   90SAPC     N 8517   5.365   5.173   6.695 -0.2032  0.2663  0.4014
   90SAPC   C12 8518   5.209   5.173   6.691 -0.7696 -0.2576  0.2731
   90SAPC  H12A 8519   5.164   5.267   6.718 -0.6315 -0.0049 -0.3605
   90SAPC  H12B 8520   5.184   5.095   6.762  0.9595 -1.1155 -0.0112
   90SAPC   C13 8521   5.413   5.233   6.821  0.3292  0.1551  0.1459
   90SAPC  H13A 8522   5.391   5.167   6.904 -1.6256 -0.4809 -0.8227
   90SAPC  H13B 8523   5.518   5.251   6.808  0.0996  0.7510 -0.9580
   90SAPC  H13C 8524   5.365   5.328   6.841 -0.5453 -0.7767  3.1797
   90SAPC   C14 8525   5.409   5.031   6.685  0.1927  0.2990  0.3466
   90SAPC  H14A 8526   5.380   4.985   6.592 -0.8845  0.3153  0.6594
   90SAPC  H14B 8527   5.517   5.031   6.685  0.2020  1.1025  0.8995
   90SAPC  H14C 8528   5.369   4.963   6.760 -2.3382 -1.4936 -2.3773
   90SAPC   C15 8529   5.420   5.255   6.583  0.6719  0.1453 -0.0427
   90SAPC  H15A 8530   5.515   5.211   6.556  0.4220 -0.4933  0.1003
   90SAPC  H15B 8531   5.353   5.241   6.500  0.7565 -0.9619  0.0601
   90SAPC  H15C 8532   5.441   5.357   6.612  2.2935 -0.1320 -0.1273
   90SAPC   C11 8533   5.130   5.133   6.566 -0.0957  0.0940  0.0838
   90SAPC  H11A 8534   5.022   5.109   6.573 -0.3460  1.0635 -0.2913
   90SAPC  H11B 8535   5.164   5.031   6.538 -2.9619 -1.0712  0.5511
   90SAPC     P 8536   5.092   5.374   6.476  0.5306 -0.1549 -0.3087
   90SAPC   O13 8537   5.024   5.379   6.612 -0.6734 -0.4657  0.1175
   90SAPC   O14 8538   5.198   5.471   6.445 -0.3969 -0.0076 -0.0902
   90SAPC   O12 8539   5.151   5.224   6.453  0.0535 -0.0602 -0.0771
   90SAPC   O11 8540   4.980   5.391   6.372 -0.2601 -0.0290  0.2683
   90SAPC    C1 8541   4.955   5.295   6.267  0.1326  0.5754 -0.1507
   90SAPC    HA 8542   5.026   5.210   6.270 -1.8652 -1.2293 -1.3035
   90SAPC    HB 8543   4.855   5.247   6.269  0.1625  0.5082 -0.2576
   90SAPC    C2 8544   4.968   5.362   6.128  0.1400  0.2859 -0.0855
   90SAPC    HS 8545   4.940   5.290   6.048 -2.5139  0.6433  0.4209
   90SAPC   O21 8546   5.094   5.425   6.096  0.1598 -0.4304 -0.5152
   90SAPC   C21 8547   5.182   5.336   6.073 -0.3695  0.9158  0.5613
   90SAPC   O22 8548   5.162   5.216   6.049 -0.3601  0.8243  0.5596
   90SAPC   C22 8549   5.319   5.405   6.111  0.0470  0.5589 -0.0988
   90SAPC   H2R 8550   5.299   5.479   6.191  0.4729 -0.5149  1.0386
   90SAPC   H2S 8551   5.377   5.330   6.169 -1.0243 -0.6568 -0.5398
   90SAPC    C3 8552   4.862   5.477   6.126 -0.3540 -0.2942 -0.2608
   90SAPC    HX 8553   4.888   5.530   6.033 -1.2205 -1.7965 -1.4019
   90SAPC    HY 8554   4.887   5.533   6.219  0.9106 -2.9407  1.1236
   90SAPC   O31 8555   4.729   5.428   6.120  0.8234  0.2282 -0.4550
   90SAPC   C31 8556   4.683   5.373   6.007 -0.3793  0.2781  0.0858
   90SAPC   O32 8557   4.750   5.361   5.906  0.0418  0.1160 -0.0347
   90SAPC   C32 8558   4.534   5.339   6.029  0.1631 -0.2234  0.6222
   90SAPC   H2X 8559   4.476   5.424   6.070  4.2443  3.3670 -0.2704
   90SAPC   H2Y 8560   4.521   5.259   6.105  1.9226 -1.3478 -0.1746
   90SAPC   C23 8561   5.383   5.455   5.984  0.2648 -0.0762 -0.7896
   90SAPC   H3R 8562   5.339   5.547   5.940  1.5684  0.1115 -1.7820
   90SAPC   H3S 8563   5.384   5.374   5.907  1.9969 -0.8877  0.0166
   90SAPC   C24 8564   5.531   5.492   6.002  0.5515  0.2531 -0.5810
   90SAPC   H4R 8565   5.535   5.548   6.098 -0.1675 -1.5997  0.5774
   90SAPC   H4S 8566   5.570   5.558   5.921  1.0462 -1.7422 -2.0641
   90SAPC   C25 8567   5.625   5.374   6.028 -0.8230  0.0902  0.6422
   90SAPC   H5R 8568   5.641   5.351   6.134  1.3355  0.5536  0.4646
   90SAPC   C26 8569   5.675   5.287   5.937  0.4881  0.0554 -0.3173
   90SAPC   H6R 8570   5.716   5.197   5.984 -1.2013 -0.4282  0.3064
   90SAPC   C27 8571   5.666   5.292   5.790 -0.0992 -0.1179  0.2820
   90SAPC   H7R 8572   5.570   5.268   5.740 -0.1524  0.8432 -0.0966
   90SAPC   H7S 8573   5.725   5.206   5.753 -0.1084 -0.0629  0.1418
   90SAPC   C28 8574   5.723   5.418   5.734  0.1062  0.2437  0.3010
   90SAPC   H8R 8575   5.821   5.444   5.779  1.3613 -0.7227 -1.7567
   90SAPC   C29 8576   5.677   5.491   5.630 -0.2071 -0.2725  0.7340
   90SAPC   H9R 8577   5.737   5.579   5.605  1.1251 -1.2575  0.3712
   90SAPC  C210 8578   5.561   5.464   5.543 -0.2059 -0.4117 -0.3832
   90SAPC  H10R 8579   5.495   5.554   5.543  0.4156  0.1065  2.0133
   90SAPC  H10S 8580   5.504   5.371   5.562 -1.8041  0.3052 -1.4840
   90SAPC  C211 8581   5.610   5.454   5.397 -0.3159 -0.1515 -0.4185
   90SAPC  H11R 8582   5.658   5.357   5.376 -1.6317 -0.9290  0.0090
   90SAPC  C212 8583   5.597   5.544   5.304 -0.5881 -0.0990 -0.0963
   90SAPC  H12R 8584   5.635   5.508   5.207 -1.0916 -1.9145  0.3604
   90SAPC  C213 8585   5.551   5.686   5.316 -0.1914  0.8933 -0.0411
   90SAPC  H13R 8586   5.611   5.739   5.394 -0.7690  0.8123  0.4614
   90SAPC  H13S 8587   5.446   5.694   5.351  0.0121  1.2556  0.4981
   90SAPC  C214 8588   5.570   5.773   5.194  0.7612 -0.0079 -0.1286
   90SAPC  H14R 8589   5.670   5.756   5.151  0.3064 -0.5130 -1.0075
   90SAPC  C215 8590   5.478   5.858   5.136 -0.6212 -0.3436 -0.1593
   90SAPC  H15R 8591   5.505   5.903   5.039  2.3705  0.2329  0.8489
   90SAPC  C216 8592   5.346   5.901   5.194 -0.7540 -0.0945  0.3999
   90SAPC  H16R 8593   5.315   5.823   5.267  1.4511 -0.8562  0.6054
   90SAPC  H16S 8594   5.261   5.906   5.123 -2.4011 -1.8734  2.1252
   90SAPC  C217 8595   5.356   6.036   5.251 -0.0800 -0.8828 -0.5581
   90SAPC  H17R 8596   5.354   6.114   5.172  2.0201 -0.2653 -0.0763
   90SAPC  H17S 8597   5.448   6.054   5.311  0.1163  1.7404 -1.5389
   90SAPC  C218 8598   5.235   6.044   5.351 -0.3340 -0.0632  0.1398
   90SAPC  H18R 8599   5.143   6.004   5.303 -0.8237  0.2491  0.7979
   90SAPC  H18S 8600   5.219   6.152   5.371  2.4567  0.6127 -0.8570
   90SAPC  C219 8601   5.271   5.982   5.487  0.7539 -0.1870 -0.3401
   90SAPC  H19R 8602   5.380   6.001   5.497  1.5235 -3.5386 -0.9890
   90SAPC  H19S 8603   5.258   5.872   5.494  1.0651 -0.1994  0.0327
   90SAPC  C220 8604   5.197   6.041   5.614 -0.4647 -0.1597  0.3077
   90SAPC  H20R 8605   5.241   6.008   5.710  0.8599  0.9391  0.1114
   90SAPC  H20S 8606   5.088   6.018   5.608 -0.6920  1.1493 -1.2743
   90SAPC  H20T 8607   5.208   6.152   5.613 -0.3456 -0.1640 -1.4594
   90SAPC   C33 8608   4.456   5.298   5.899  0.2157 -0.5532  0.5114
   90SAPC   H3X 8609   4.464   5.384   5.828  2.5605 -1.8579 -0.9330
   90SAPC   H3Y 8610   4.345   5.288   5.909 -0.0879  2.0148  0.3790
   90SAPC   C34 8611   4.498   5.162   5.833 -0.0542  0.3913  0.2711
   90SAPC   H4X 8612   4.458   5.080   5.895 -0.6792  1.0592  0.7621
   90SAPC   H4Y 8613   4.608   5.146   5.825 -0.0256  0.8179 -0.3477
   90SAPC   C35 8614   4.442   5.155   5.683  0.4876 -0.3366 -0.2405
   90SAPC   H5X 8615   4.333   5.166   5.701 -0.1338  1.6740 -4.1173
   90SAPC   H5Y 8616   4.459   5.053   5.643  0.1375 -0.4310 -0.1527
   90SAPC   C36 8617   4.485   5.254   5.572  0.9989  0.2384 -0.1672
   90SAPC   H6X 8618   4.442   5.356   5.581  3.5300  1.5214 -1.4639
   90SAPC   H6Y 8619   4.446   5.231   5.470 -2.1207 -0.3734  1.0661
   90SAPC   C37 8620   4.635   5.266   5.542 -0.3785 -0.4876 -0.2990
   90SAPC   H7X 8621   4.683   5.170   5.511  4.1118  1.4131  0.0364
   90SAPC   H7Y 8622   4.684   5.318   5.627 -1.2263  1.6856 -1.0636
   90SAPC   C38 8623   4.659   5.365   5.430 -0.1772 -0.3971 -0.2648
   90SAPC   H8X 8624   4.628   5.467   5.462  1.4964  0.9113 -2.5063
   90SAPC   H8Y 8625   4.610   5.343   5.333 -0.7853  0.5519 -0.1841
   90SAPC   C39 8626   4.815   5.391   5.411  0.3767  0.2857  0.1616
   90SAPC   H9X 8627   4.861   5.388   5.512 -0.5544  0.8316  0.6072
   90SAPC   H9Y 8628   4.826   5.497   5.379  0.9967  0.6609  1.5606
   90SAPC  C310 8629   4.878   5.288   5.321  0.8248 -0.1623  0.5424
   90SAPC  H10X 8630   4.823   5.301   5.225 -1.1423  2.3396  1.8504
   90SAPC  H10Y 8631   4.864   5.184   5.357 -0.7324  0.3147  1.4544
   90SAPC  C311 8632   5.031   5.316   5.298  0.2754 -0.7109 -0.2821
   90SAPC  H11X 8633   5.059   5.243   5.219 -3.7048 -2.7771 -0.0521
   90SAPC  H11Y 8634   5.085   5.275   5.386  1.5464 -1.5613 -1.4018
   90SAPC  C312 8635   5.068   5.455   5.261  0.1725 -0.6806  0.2865
   90SAPC  H12X 8636   5.030   5.513   5.348 -1.0744  0.2714 -0.8642
   90SAPC  H12Y 8637   5.008   5.487   5.173  1.1651  1.5560  0.3590
   90SAPC  C313 8638   5.212   5.493   5.239 -0.3817  0.3229  0.6534
   90SAPC  H13X 8639   5.264   5.443   5.324  1.4456  1.9622  0.5634
   90SAPC  H13Y 8640   5.227   5.602   5.250  0.8188  0.4973 -2.0228
   90SAPC  C314 8641   5.263   5.448   5.100 -0.4072  0.0345 -0.2767
   90SAPC  H14X 8642   5.252   5.338   5.090  0.6851 -0.0573 -0.6082
   90SAPC  H14Y 8643   5.370   5.479   5.102  0.2261 -1.4640 -3.6611
   90SAPC  C315 8644   5.203   5.522   4.982  0.4413 -0.2698 -0.2427
   90SAPC  H15X 8645   5.208   5.632   4.999  0.2870  0.0164 -1.8272
   90SAPC  H15Y 8646   5.096   5.494   4.976  0.7491 -1.6358  0.3185
   90SAPC  C316 8647   5.271   5.499   4.845  0.4523  0.3107 -0.1949
   90SAPC  H16X 8648   5.212   5.550   4.767  1.1725 -0.1744 -1.0815
   90SAPC  H16Y 8649   5.262   5.396   4.804  1.4387  0.3307 -0.4995
   90SAPC  C317 8650   5.415   5.536   4.840 -0.5254 -0.3489 -0.6641
   90SAPC  H17X 8651   5.476   5.466   4.901 -2.7667 -1.1506  0.8152
   90SAPC  H17Y 8652   5.435   5.636   4.884  1.6488 -0.8191 -0.4870
   90SAPC  C318 8653   5.482   5.537   4.706 -0.2046  0.9568  0.2471
   90SAPC  H18X 8654   5.426   5.606   4.639 -0.3486  0.2793 -0.3408
   90SAPC  H18Y 8655   5.481   5.437   4.658 -1.9838  1.0177  0.0659
   90SAPC  H18Z 8656   5.584   5.580   4.703  0.3046 -0.2440 -0.5569
   91SAPC     N 8657   2.357   5.506   6.882 -0.3081 -0.0873  0.5221
   91SAPC   C12 8658   2.207   5.503   6.850 -0.8167 -0.3355 -0.3745
   91SAPC  H12A 8659   2.166   5.559   6.933  0.6293 -0.3715  0.3961
   91SAPC  H12B 8660   2.166   5.403   6.854  0.0460 -0.6642  0.8012
   91SAPC   C13 8661   2.405   5.416   6.999 -0.2347  0.7074  0.0580
   91SAPC  H13A 8662   2.405   5.454   7.100  1.7778 -3.5868  1.8756
   91SAPC  H13B 8663   2.348   5.325   6.993 -1.3088  1.4134 -1.2032
   91SAPC  H13C 8664   2.501   5.375   6.972  1.4730  4.5723 -0.4003
   91SAPC   C14 8665   2.425   5.452   6.769 -0.1369  0.3041 -0.0544
   91SAPC  H14A 8666   2.530   5.467   6.785  0.1990 -2.0361  0.2750
   91SAPC  H14B 8667   2.421   5.344   6.767 -0.7384  0.3130  0.2912
   91SAPC  H14C 8668   2.392   5.495   6.675 -1.1628 -2.1097 -0.8727
   91SAPC   C15 8669   2.411   5.648   6.901  0.6678  0.0183 -0.1205
   91SAPC  H15A 8670   2.364   5.716   6.832  0.0286 -0.2992  0.0032
   91SAPC  H15B 8671   2.376   5.672   7.001  1.4052  2.0928 -0.3007
   91SAPC  H15C 8672   2.518   5.650   6.919  0.5778 -0.4968  0.5373
   91SAPC   C11 8673   2.150   5.570   6.718  0.3331  0.0067  0.4594
   91SAPC  H11A 8674   2.191   5.673   6.721 -2.1075  1.0330  1.6812
   91SAPC  H11B 8675   2.041   5.588   6.730  0.2314  1.2611 -1.9045
   91SAPC     P 8676   2.080   5.355   6.584  0.0175  0.0458 -0.3025
   91SAPC   O13 8677   2.098   5.305   6.447  0.1791  0.4477  0.4741
   91SAPC   O14 8678   2.087   5.269   6.704  0.4889 -0.5723 -0.7530
   91SAPC   O12 8679   2.176   5.491   6.602  0.2374  0.1158 -0.4236
   91SAPC   O11 8680   1.936   5.412   6.593  0.2902  0.7914  0.1262
   91SAPC    C1 8681   1.885   5.531   6.534 -0.4992  0.6691  0.0910
   91SAPC    HA 8682   1.849   5.594   6.618 -2.0453 -0.8165  0.5833
   91SAPC    HB 8683   1.960   5.600   6.488  1.1858 -1.6159 -0.7590
   91SAPC    C2 8684   1.770   5.501   6.436  0.6299  0.1007 -0.7461
   91SAPC    HS 8685   1.687   5.463   6.498  0.0002 -0.4869 -1.9216
   91SAPC   O21 8686   1.821   5.408   6.337 -0.2442 -0.1059 -0.1919
   91SAPC   C21 8687   1.725   5.334   6.290 -0.3590 -0.2342  0.0909
   91SAPC   O22 8688   1.607   5.342   6.311  0.8419 -0.0927 -0.1026
   91SAPC   C22 8689   1.794   5.237   6.187 -0.6165 -0.6262 -0.4399
   91SAPC   H2R 8690   1.883   5.186   6.230 -1.7309 -1.7097  0.6957
   91SAPC   H2S 8691   1.720   5.155   6.172 -0.7642 -0.3277 -1.3806
   91SAPC    C3 8692   1.709   5.625   6.377  1.0323  0.4091 -0.1589
   91SAPC    HX 8693   1.638   5.661   6.454  0.7445  1.5467 -0.9332
   91SAPC    HY 8694   1.646   5.601   6.288  2.1540 -0.2233 -0.8053
   91SAPC   O31 8695   1.812   5.720   6.347  0.3527  0.2717 -1.1270
   91SAPC   C31 8696   1.831   5.749   6.221 -0.4193  0.0542 -0.5481
   91SAPC   O32 8697   1.759   5.705   6.132 -0.4921  0.1901  0.4239
   91SAPC   C32 8698   1.961   5.832   6.198  0.6308 -0.0606  0.5194
   91SAPC   H2X 8699   2.049   5.772   6.229  2.0071  1.9892  0.7431
   91SAPC   H2Y 8700   1.950   5.920   6.265  1.0589  0.9864 -0.7476
   91SAPC   C23 8701   1.827   5.299   6.057 -0.8556 -0.4147 -1.0064
   91SAPC   H3R 8702   1.893   5.231   5.999 -0.6181 -1.5586  0.5338
   91SAPC   H3S 8703   1.884   5.393   6.066  1.4598 -1.8618  0.9086
   91SAPC   C24 8704   1.707   5.330   5.972 -1.0296  0.2371 -0.2752
   91SAPC   H4R 8705   1.632   5.374   6.041  0.3174  0.1467  1.2954
   91SAPC   H4S 8706   1.664   5.234   5.934  1.1244 -1.3744  1.1553
   91SAPC   C25 8707   1.733   5.437   5.868 -0.9305  0.2465  0.0917
   91SAPC   H5R 8708   1.740   5.541   5.903 -0.9322  0.4817 -0.5881
   91SAPC   C26 8709   1.734   5.425   5.733 -0.8058  0.1591  0.1935
   91SAPC   H6R 8710   1.737   5.516   5.670  1.8911  1.4864  2.0644
   91SAPC   C27 8711   1.744   5.295   5.654 -0.2818  0.7589 -0.3700
   91SAPC   H7R 8712   1.645   5.256   5.622  1.1117 -2.9055 -0.7113
   91SAPC   H7S 8713   1.770   5.216   5.728 -0.6910  0.2634 -0.7428
   91SAPC   C28 8714   1.831   5.301   5.532 -0.2519  0.2833  0.0353
   91SAPC   H8R 8715   1.925   5.245   5.543 -0.7292 -0.9424 -1.7138
   91SAPC   C29 8716   1.804   5.354   5.407 -0.4487  0.8384 -0.0021
   91SAPC   H9R 8717   1.882   5.356   5.330 -0.1653  0.5956  0.2783
   91SAPC  C210 8718   1.669   5.415   5.376  0.3640  0.4072  0.2475
   91SAPC  H10R 8719   1.663   5.519   5.414  0.8539  0.0228  1.4236
   91SAPC  H10S 8720   1.587   5.362   5.428 -0.5080  1.5316  0.0345
   91SAPC  C211 8721   1.646   5.415   5.224  0.5595 -0.0013  0.0904
   91SAPC  H11R 8722   1.565   5.344   5.198  1.5617 -1.1657  0.0784
   91SAPC  C212 8723   1.711   5.480   5.126 -0.3494 -0.3148  0.7328
   91SAPC  H12R 8724   1.681   5.470   5.021 -0.9694  1.5417  0.7001
   91SAPC  C213 8725   1.820   5.582   5.140  0.3595  0.2889 -0.4212
   91SAPC  H13R 8726   1.902   5.561   5.068 -0.4332  0.9715 -1.5517
   91SAPC  H13S 8727   1.861   5.567   5.242  0.1633 -2.2929 -0.6607
   91SAPC  C214 8728   1.764   5.722   5.122  0.2200 -0.3256 -0.2088
   91SAPC  H14R 8729   1.687   5.750   5.195 -1.3589 -0.5440 -1.7170
   91SAPC  C215 8730   1.815   5.822   5.049 -0.3310 -0.2894 -0.1539
   91SAPC  H15R 8731   1.760   5.917   5.057 -0.4247 -0.3454 -0.1250
   91SAPC  C216 8732   1.929   5.810   4.951  0.1804  0.8931 -0.2102
   91SAPC  H16R 8733   1.922   5.721   4.885 -0.4451  0.7067  0.1056
   91SAPC  H16S 8734   2.027   5.789   4.999  0.1165 -0.2407 -0.5493
   91SAPC  C217 8735   1.945   5.928   4.851  0.0201  0.1763 -0.2179
   91SAPC  H17R 8736   2.051   5.949   4.827  0.1891  1.2669  1.3411
   91SAPC  H17S 8737   1.914   6.028   4.890  0.8034  1.0745 -1.7925
   91SAPC  C218 8738   1.865   5.891   4.717 -0.4470  0.2645  0.0500
   91SAPC  H18R 8739   1.766   5.858   4.755  0.7087 -4.1685 -0.1802
   91SAPC  H18S 8740   1.920   5.810   4.665  0.2826  1.0137 -0.3793
   91SAPC  C219 8741   1.861   6.009   4.616  0.5833  0.3341  0.1440
   91SAPC  H19R 8742   1.962   6.052   4.597  1.4558 -1.5669  0.2847
   91SAPC  H19S 8743   1.789   6.081   4.661 -1.3143 -2.2728  1.5451
   91SAPC  C220 8744   1.807   5.977   4.476  0.4381 -0.4666  0.5370
   91SAPC  H20R 8745   1.853   5.879   4.453  0.0112 -1.0885  2.2306
   91SAPC  H20S 8746   1.833   6.057   4.403  0.0700 -0.7283  0.1107
   91SAPC  H20T 8747   1.697   5.964   4.477  0.2315  1.0467  2.0728
   91SAPC   C33 8748   1.980   5.893   6.054 -0.7995  0.4252 -0.4909
   91SAPC   H3X 8749   2.053   5.977   6.054 -1.4478  1.0209 -1.5703
   91SAPC   H3Y 8750   1.881   5.920   6.012 -1.1373 -2.4428 -1.7849
   91SAPC   C34 8751   2.033   5.783   5.950  0.8320  0.3902 -0.3664
   91SAPC   H4X 8752   1.965   5.695   5.958  1.2838  0.1929  2.1153
   91SAPC   H4Y 8753   2.137   5.763   5.984 -0.2154 -0.9601  2.3140
   91SAPC   C35 8754   2.039   5.835   5.807  0.3902 -0.3271  0.4311
   91SAPC   H5X 8755   2.105   5.765   5.752 -0.2626  0.0427 -0.8408
   91SAPC   H5Y 8756   2.083   5.936   5.816 -2.9467  1.5991 -2.4475
   91SAPC   C36 8757   1.900   5.847   5.732  0.0757 -0.2683 -0.3922
   91SAPC   H6X 8758   1.832   5.916   5.788  0.6951 -0.1259  0.1920
   91SAPC   H6Y 8759   1.852   5.747   5.728 -1.2473  0.3653 -3.4368
   91SAPC   C37 8760   1.904   5.883   5.583 -0.7594 -0.2066 -0.0003
   91SAPC   H7X 8761   1.809   5.844   5.542 -1.0355 -0.3506  0.7645
   91SAPC   H7Y 8762   1.982   5.826   5.529 -0.6032  0.5107 -0.5501
   91SAPC   C38 8763   1.912   6.028   5.542 -0.5866  0.1250 -0.2227
   91SAPC   H8X 8764   2.003   6.084   5.573  0.7717 -1.6863 -0.8133
   91SAPC   H8Y 8765   1.831   6.084   5.594  0.5640 -0.6361  2.5753
   91SAPC   C39 8766   1.901   6.056   5.394 -0.3861 -0.1930  0.3472
   91SAPC   H9X 8767   1.812   6.002   5.356 -2.1851  0.7682  2.9304
   91SAPC   H9Y 8768   1.996   6.023   5.346 -0.2734  1.7068 -0.8465
   91SAPC  C310 8769   1.872   6.200   5.356 -0.6301  0.1309 -0.8501
   91SAPC  H10X 8770   1.948   6.269   5.400 -2.4322  0.7936  1.4143
   91SAPC  H10Y 8771   1.773   6.234   5.392 -0.3653  1.7624 -1.5516
   91SAPC  C311 8772   1.872   6.221   5.202 -0.6721  1.1620  0.2096
   91SAPC  H11X 8773   1.808   6.137   5.167  0.3977 -0.6720  2.3559
   91SAPC  H11Y 8774   1.979   6.202   5.176 -0.5767  1.0988  0.6409
   91SAPC  C312 8775   1.824   6.357   5.148 -0.7362 -1.0800  0.7265
   91SAPC  H12X 8776   1.880   6.446   5.184 -2.0135  0.7803 -1.6081
   91SAPC  H12Y 8777   1.726   6.371   5.196 -0.7547 -0.5614  0.5401
   91SAPC  C313 8778   1.813   6.357   4.991  0.3092 -0.3514  0.5326
   91SAPC  H13X 8779   1.743   6.436   4.955  0.3075 -1.2270 -1.4956
   91SAPC  H13Y 8780   1.777   6.260   4.950  1.9216  0.3920 -3.0601
   91SAPC  C314 8781   1.945   6.394   4.913  0.5939  0.4282 -0.7566
   91SAPC  H14X 8782   2.029   6.323   4.931  0.2365 -0.4242 -2.2317
   91SAPC  H14Y 8783   1.978   6.492   4.953 -0.8255 -0.2706  2.4504
   91SAPC  C315 8784   1.910   6.402   4.759 -0.1716 -0.8535 -0.6191
   91SAPC  H15X 8785   1.834   6.483   4.758  1.3816  0.6814 -0.4995
   91SAPC  H15Y 8786   1.852   6.316   4.719 -0.0148  0.0030 -2.8936
   91SAPC  C316 8787   2.031   6.445   4.672  0.0354  0.0156  0.0247
   91SAPC  H16X 8788   2.118   6.375   4.672  1.2189  1.4193  1.3969
   91SAPC  H16Y 8789   2.081   6.535   4.714  0.1221 -0.4475  0.9642
   91SAPC  C317 8790   1.979   6.484   4.533 -0.6478  0.1232 -0.5164
   91SAPC  H17X 8791   2.053   6.558   4.497  0.5172 -0.0005  1.5317
   91SAPC  H17Y 8792   1.880   6.534   4.544  0.8594  3.3127 -0.5729
   91SAPC  C318 8793   1.954   6.361   4.435  0.0264  0.0212 -0.5230
   91SAPC  H18X 8794   1.922   6.405   4.338 -1.7970  1.3415  0.5981
   91SAPC  H18Y 8795   1.873   6.293   4.468 -0.2890  0.1807 -0.9702
   91SAPC  H18Z 8796   2.047   6.301   4.430  0.4553  0.6132  0.0708
   92SAPC     N 8797   1.609   3.996   7.164  0.6159  0.2012  0.6422
   92SAPC   C12 8798   1.515   3.967   7.048 -0.4871  0.5676 -0.1549
   92SAPC  H12A 8799   1.539   3.877   6.994 -2.0045  1.9761 -3.4510
   92SAPC  H12B 8800   1.529   4.046   6.976 -1.2065 -0.0068 -0.9423
   92SAPC   C13 8801   1.751   4.006   7.107 -0.4493 -0.1958 -0.1913
   92SAPC  H13A 8802   1.820   4.042   7.182 -0.8721  2.0649 -0.7846
   92SAPC  H13B 8803   1.778   3.917   7.053 -1.5538 -0.0175 -1.1038
   92SAPC  H13C 8804   1.758   4.091   7.041  0.4274  0.1137  0.2914
   92SAPC   C14 8805   1.567   4.124   7.229 -0.4521 -0.0248 -0.0746
   92SAPC  H14A 8806   1.641   4.158   7.300  0.0949  0.5577 -0.8902
   92SAPC  H14B 8807   1.550   4.207   7.162 -1.3779  1.2261  1.6434
   92SAPC  H14C 8808   1.471   4.100   7.270 -1.2560  0.6253 -1.5113
   92SAPC   C15 8809   1.606   3.896   7.271  0.1958 -0.4795 -0.7102
   92SAPC  H15A 8810   1.508   3.880   7.313 -0.5568  0.7306 -1.9166
   92SAPC  H15B 8811   1.623   3.798   7.230  2.3715 -0.3446 -0.2576
   92SAPC  H15C 8812   1.681   3.916   7.346 -1.6663  0.4826  0.9826
   92SAPC   C11 8813   1.364   3.964   7.081 -0.8016  0.3601 -0.1003
   92SAPC  H11A 8814   1.295   3.976   6.994 -1.5404 -3.5527 -0.2396
   92SAPC  H11B 8815   1.344   4.058   7.137  0.2120 -0.5004  1.7837
   92SAPC     P 8816   1.318   3.702   7.091 -0.3475  0.1005  0.1869
   92SAPC   O13 8817   1.450   3.643   7.069  0.5301 -0.3853 -0.7101
   92SAPC   O14 8818   1.224   3.617   7.171  0.5403  0.1270  0.0664
   92SAPC   O12 8819   1.333   3.849   7.164 -0.0780 -0.4554 -0.3535
   92SAPC   O11 8820   1.252   3.730   6.950 -0.9596 -0.5000  0.0628
   92SAPC    C1 8821   1.123   3.783   6.923  0.2303 -0.1640  0.3275
   92SAPC    HA 8822   1.044   3.721   6.972 -1.3049  1.6355  0.2415
   92SAPC    HB 8823   1.121   3.887   6.962  2.0474  0.8297 -2.0178
   92SAPC    C2 8824   1.109   3.801   6.764  0.0016  0.8118  0.0678
   92SAPC    HS 8825   1.017   3.859   6.741  0.7430  1.4621 -1.4033
   92SAPC   O21 8826   1.105   3.670   6.690  0.5662  0.8557  0.2579
   92SAPC   C21 8827   0.988   3.605   6.711  0.2579 -0.4813 -0.1286
   92SAPC   O22 8828   0.886   3.657   6.749  0.2648  0.0193 -0.1295
   92SAPC   C22 8829   1.000   3.461   6.668  0.5093  0.5576  0.1174
   92SAPC   H2R 8830   1.009   3.464   6.558  0.6407  3.5036  0.1396
   92SAPC   H2S 8831   1.096   3.415   6.699  0.6116 -1.2485 -2.5359
   92SAPC    C3 8832   1.222   3.888   6.708  0.0876  0.4026 -0.0587
   92SAPC    HX 8833   1.321   3.839   6.719  0.0967  0.1726 -1.0258
   92SAPC    HY 8834   1.240   3.972   6.778  2.9441  1.6561 -2.0867
   92SAPC   O31 8835   1.192   3.938   6.574 -0.5253  0.2439 -0.2706
   92SAPC   C31 8836   1.232   3.850   6.478  0.2756  0.1411  0.0095
   92SAPC   O32 8837   1.288   3.741   6.494  0.4018 -0.3119  0.2352
   92SAPC   C32 8838   1.173   3.892   6.346  0.8031 -0.4428  0.3377
   92SAPC   H2X 8839   1.157   4.002   6.335 -1.6461 -0.8937 -1.4543
   92SAPC   H2Y 8840   1.071   3.850   6.335  0.6137  0.5527 -2.6298
   92SAPC   C23 8841   0.881   3.380   6.717 -0.1994  0.5351 -0.3130
   92SAPC   H3R 8842   0.786   3.416   6.672 -0.2666  1.2561  0.3765
   92SAPC   H3S 8843   0.872   3.401   6.826 -1.2553 -1.8384  0.1273
   92SAPC   C24 8844   0.901   3.227   6.710  0.2140  0.7373  0.0603
   92SAPC   H4R 8845   0.927   3.203   6.605  0.0992  2.9480 -0.5164
   92SAPC   H4S 8846   0.813   3.174   6.753  0.2508  0.0962 -0.6356
   92SAPC   C25 8847   1.014   3.187   6.801 -0.5168 -0.1056  0.5453
   92SAPC   H5R 8848   1.006   3.215   6.907  1.2321  1.5115  0.3037
   92SAPC   C26 8849   1.119   3.120   6.766  0.3663 -0.2308 -0.3906
   92SAPC   H6R 8850   1.188   3.101   6.851 -0.2471 -1.4613 -0.1375
   92SAPC   C27 8851   1.158   3.073   6.631 -0.3578 -0.6171  0.0047
   92SAPC   H7R 8852   1.256   3.021   6.634  0.2336  0.2903 -1.9189
   92SAPC   H7S 8853   1.160   3.165   6.569  0.7148  0.1968  1.2148
   92SAPC   C28 8854   1.067   2.975   6.559 -0.0923  0.3044 -0.5581
   92SAPC   H8R 8855   0.989   2.938   6.627  0.5420  0.3942  0.2177
   92SAPC   C29 8856   1.096   2.906   6.440  0.3798 -0.3609 -0.3525
   92SAPC   H9R 8857   1.023   2.831   6.405  0.7246 -1.3483  0.9567
   92SAPC  C210 8858   1.221   2.927   6.359 -0.6340 -0.3790  0.3551
   92SAPC  H10R 8859   1.243   2.828   6.312 -0.2732  0.4631 -1.3143
   92SAPC  H10S 8860   1.304   2.951   6.429  0.9492  1.1083 -1.9178
   92SAPC  C211 8861   1.208   3.050   6.264  0.5465 -0.0547 -1.0329
   92SAPC  H11R 8862   1.202   3.149   6.310  1.9319 -1.2163  1.9519
   92SAPC  C212 8863   1.200   3.053   6.129  0.4670 -0.2756  0.0069
   92SAPC  H12R 8864   1.186   3.150   6.078  1.3284 -0.0281  0.2174
   92SAPC  C213 8865   1.226   2.931   6.046  0.0345 -0.2646 -0.1450
   92SAPC  H13R 8866   1.222   2.831   6.095 -1.1373 -0.0547  0.2187
   92SAPC  H13S 8867   1.329   2.945   6.006  0.4517 -1.3098  0.5312
   92SAPC  C214 8868   1.136   2.943   5.923  0.5251  0.5621  0.8811
   92SAPC  H14R 8869   1.031   2.970   5.940  0.5783  2.5761 -1.5354
   92SAPC  C215 8870   1.174   2.968   5.797  0.0531  0.4785  0.6397
   92SAPC  H15R 8871   1.102   2.990   5.717 -1.7777  0.4944  2.2349
   92SAPC  C216 8872   1.315   2.983   5.746  0.5346 -0.1195 -0.5815
   92SAPC  H16R 8873   1.387   3.010   5.826  0.3841  3.2016 -1.4057
   92SAPC  H16S 8874   1.313   3.072   5.679 -3.6734 -0.8842 -1.7932
   92SAPC  C217 8875   1.363   2.864   5.660  0.0603 -0.7591 -0.2213
   92SAPC  H17R 8876   1.339   2.762   5.697  1.3900 -1.3798 -0.9860
   92SAPC  H17S 8877   1.474   2.871   5.653  0.1915 -1.2042  1.1101
   92SAPC  C218 8878   1.309   2.886   5.513  0.2121  0.1488  0.1951
   92SAPC  H18R 8879   1.334   2.986   5.474 -0.2393 -0.3257 -1.3706
   92SAPC  H18S 8880   1.199   2.871   5.519  0.3042 -1.0983 -0.7182
   92SAPC  C219 8881   1.370   2.793   5.414 -0.2965  0.2671  0.2182
   92SAPC  H19R 8882   1.347   2.695   5.459  1.3969  0.2528  1.1339
   92SAPC  H19S 8883   1.478   2.812   5.433 -0.1358 -1.1022  0.7403
   92SAPC  C220 8884   1.337   2.816   5.266  0.2543 -0.0659  0.3402
   92SAPC  H20R 8885   1.361   2.919   5.231  2.2566 -1.2722 -2.1926
   92SAPC  H20S 8886   1.228   2.802   5.249 -0.2087  0.9344  2.1761
   92SAPC  H20T 8887   1.401   2.750   5.203 -1.2583 -1.2880  0.0064
   92SAPC   C33 8888   1.255   3.842   6.224  0.2229  0.0164 -0.1254
   92SAPC   H3X 8889   1.244   3.732   6.235  0.2093 -0.1278 -1.3798
   92SAPC   H3Y 8890   1.362   3.869   6.236  0.4504 -1.0864  0.4324
   92SAPC   C34 8891   1.196   3.883   6.092 -0.8844 -0.3577  0.5948
   92SAPC   H4X 8892   1.195   3.994   6.099 -2.0030 -0.3928  1.0828
   92SAPC   H4Y 8893   1.101   3.833   6.064  0.3073 -1.7317 -1.2251
   92SAPC   C35 8894   1.293   3.856   5.975 -0.3704 -0.2818  0.5050
   92SAPC   H5X 8895   1.329   3.751   5.982 -1.2546 -0.4954  2.9689
   92SAPC   H5Y 8896   1.385   3.917   5.988 -1.0861  0.9966 -0.2207
   92SAPC   C36 8897   1.228   3.883   5.838 -0.0061 -0.2353  0.5663
   92SAPC   H6X 8898   1.168   3.976   5.828  2.2885  1.1826 -0.7721
   92SAPC   H6Y 8899   1.149   3.805   5.823  0.3711 -0.5707  0.3079
   92SAPC   C37 8900   1.325   3.892   5.716 -0.0118 -0.0936  0.2267
   92SAPC   H7X 8901   1.406   3.816   5.721  0.1630  0.0297 -0.6484
   92SAPC   H7Y 8902   1.371   3.992   5.734  1.4378 -1.0598  2.3239
   92SAPC   C38 8903   1.262   3.892   5.584 -0.6415  0.5904  0.2924
   92SAPC   H8X 8904   1.188   3.975   5.587  0.0172  1.1972 -0.0602
   92SAPC   H8Y 8905   1.202   3.799   5.571  1.4259 -1.1790  2.3824
   92SAPC   C39 8906   1.372   3.883   5.479  0.1850 -0.9656 -0.9617
   92SAPC   H9X 8907   1.436   3.797   5.510  0.2304  0.6469  4.5282
   92SAPC   H9Y 8908   1.435   3.974   5.492  0.6408 -1.5460  1.4634
   92SAPC  C310 8909   1.313   3.868   5.342  0.0297  0.6291  0.1255
   92SAPC  H10X 8910   1.230   3.938   5.321  0.6032  1.0560 -0.7798
   92SAPC  H10Y 8911   1.270   3.766   5.328  2.2808 -0.3933  0.0858
   92SAPC  C311 8912   1.419   3.899   5.235  0.3312  0.2358 -0.3771
   92SAPC  H11X 8913   1.512   3.846   5.266 -0.1197 -0.3305  0.0210
   92SAPC  H11Y 8914   1.456   4.003   5.241  0.6665  0.1782 -1.2662
   92SAPC  C312 8915   1.367   3.867   5.090  0.8866  1.0139 -0.3299
   92SAPC  H12X 8916   1.278   3.931   5.077  0.1264 -0.0302 -0.3437
   92SAPC  H12Y 8917   1.341   3.759   5.082  1.4571  0.8746 -0.3499
   92SAPC  C313 8918   1.472   3.895   4.981 -0.0546 -0.1142 -0.8888
   92SAPC  H13X 8919   1.555   3.821   4.988 -0.1567 -0.5850 -3.5369
   92SAPC  H13Y 8920   1.519   3.994   5.000  1.4450 -0.9287 -0.1728
   92SAPC  C314 8921   1.420   3.876   4.837  0.5736  0.2880 -0.2155
   92SAPC  H14X 8922   1.330   3.941   4.832  1.3807  1.3404 -1.9363
   92SAPC  H14Y 8923   1.399   3.769   4.816  0.5527 -0.1944  1.9677
   92SAPC  C315 8924   1.531   3.917   4.737  0.8622 -0.2850  0.8726
   92SAPC  H15X 8925   1.622   3.855   4.752  0.6495 -0.5766  0.9621
   92SAPC  H15Y 8926   1.552   4.024   4.756 -0.5370  0.6495 -2.2643
   92SAPC  C316 8927   1.489   3.904   4.586 -0.3245 -0.4662  0.4501
   92SAPC  H16X 8928   1.397   3.962   4.565 -0.6385 -0.4154  1.8580
   92SAPC  H16Y 8929   1.466   3.800   4.557 -1.9172  0.2186 -0.8902
   92SAPC  C317 8930   1.608   3.949   4.503  0.0857  0.0504  0.0066
   92SAPC  H17X 8931   1.681   3.867   4.519 -0.6298 -0.9109 -1.4159
   92SAPC  H17Y 8932   1.652   4.040   4.549  1.1189 -1.5250  2.3096
   92SAPC  C318 8933   1.580   3.961   4.354  0.1953 -0.6430 -0.3292
   92SAPC  H18X 8934   1.543   3.870   4.302  1.1059 -1.4925  0.4814
   92SAPC  H18Y 8935   1.667   3.990   4.292 -0.8453  0.9623 -1.0992
   92SAPC  H18Z 8936   1.515   4.051   4.342 -1.0800 -1.6679 -1.4240
   93SAPC     N 8937   3.224   3.872   6.772 -0.0738 -0.2225  0.2650
   93SAPC   C12 8938   3.082   3.861   6.823  0.1594 -0.5424 -0.4105
   93SAPC  H12A 8939   3.067   3.918   6.914  0.7022 -1.9217  0.5730
   93SAPC  H12B 8940   3.074   3.757   6.849  1.4174 -0.0832  2.1822
   93SAPC   C13 8941   3.243   3.990   6.673  0.3377  0.4937 -0.3369
   93SAPC  H13A 8942   3.214   4.078   6.730  0.0368 -0.8469  1.6694
   93SAPC  H13B 8943   3.343   4.006   6.635  0.2942  2.0778  0.1070
   93SAPC  H13C 8944   3.176   3.968   6.591  0.3320 -2.1775  0.3081
   93SAPC   C14 8945   3.320   3.890   6.888 -0.2968 -0.4177 -0.0778
   93SAPC  H14A 8946   3.300   3.986   6.934 -0.6063 -0.4214 -0.1993
   93SAPC  H14B 8947   3.301   3.815   6.963 -1.3217 -0.7821 -0.6854
   93SAPC  H14C 8948   3.420   3.884   6.848 -0.7612  0.3346 -1.4537
   93SAPC   C15 8949   3.263   3.745   6.693  1.0673 -0.2101  0.0512
   93SAPC  H15A 8950   3.368   3.741   6.670  0.7635  0.5360 -1.5822
   93SAPC  H15B 8951   3.245   3.658   6.755 -2.2131 -0.1453 -0.6239
   93SAPC  H15C 8952   3.210   3.736   6.599  3.4932 -1.2625 -1.2907
   93SAPC   C11 8953   2.962   3.882   6.718 -0.0541 -0.0435  0.5021
   93SAPC  H11A 8954   2.975   3.986   6.680 -1.9156  0.2691  0.6266
   93SAPC  H11B 8955   2.866   3.873   6.773  0.1995  0.4613  1.0358
   93SAPC     P 8956   2.910   3.653   6.603 -0.1591  0.1111 -0.2559
   93SAPC   O13 8957   3.025   3.559   6.615 -0.0999 -0.0178  0.2060
   93SAPC   O14 8958   2.805   3.645   6.704  0.6003  0.5828 -0.2620
   93SAPC   O12 8959   2.970   3.800   6.601  0.0010 -0.3377 -0.5713
   93SAPC   O11 8960   2.855   3.651   6.464  0.1927 -0.0784  0.0693
   93SAPC    C1 8961   2.726   3.710   6.432 -0.2723  0.4225 -0.8443
   93SAPC    HA 8962   2.669   3.620   6.399 -0.8209  0.4585 -0.0477
   93SAPC    HB 8963   2.681   3.759   6.521 -0.3574 -0.9124 -0.1160
   93SAPC    C2 8964   2.728   3.808   6.305 -0.0515 -0.0224 -0.5070
   93SAPC    HS 8965   2.648   3.884   6.312  1.0751  1.1154  0.3436
   93SAPC   O21 8966   2.711   3.726   6.188 -0.6229 -0.6234  0.2739
   93SAPC   C21 8967   2.601   3.659   6.169 -0.2293 -0.0146  0.1593
   93SAPC   O22 8968   2.499   3.665   6.233 -0.4981  0.1991 -0.4966
   93SAPC   C22 8969   2.616   3.573   6.049  0.6067  0.4277  0.7913
   93SAPC   H2R 8970   2.691   3.492   6.060  2.5650  1.9430 -0.6582
   93SAPC   H2S 8971   2.517   3.534   6.017  1.0005  1.1473 -1.4731
   93SAPC    C3 8972   2.873   3.882   6.292  0.1602  0.2985  0.0336
   93SAPC    HX 8973   2.951   3.803   6.291  0.6338  0.6437  2.4135
   93SAPC    HY 8974   2.870   3.937   6.388 -2.0460 -0.2467  0.3364
   93SAPC   O31 8975   2.878   3.970   6.174 -0.2061 -0.1563 -0.0092
   93SAPC   C31 8976   2.957   3.929   6.077  0.2395 -0.8575 -0.6450
   93SAPC   O32 8977   3.022   3.830   6.073 -0.3513 -0.1476  0.2718
   93SAPC   C32 8978   2.940   4.032   5.962  0.5484 -0.4036 -0.1722
   93SAPC   H2X 8979   3.002   4.120   5.989 -0.8261  0.1399  1.4138
   93SAPC   H2Y 8980   2.835   4.069   5.951  1.2970  1.5934 -1.0665
   93SAPC   C23 8981   2.665   3.662   5.934  0.2700  0.1949  0.1533
   93SAPC   H3R 8982   2.672   3.598   5.844  1.3073 -0.1854  0.4973
   93SAPC   H3S 8983   2.764   3.705   5.958 -0.9975  3.0500  0.7446
   93SAPC   C24 8984   2.570   3.775   5.890  0.4684  0.5701 -0.1274
   93SAPC   H4R 8985   2.562   3.854   5.968 -1.1779  1.3407 -1.0259
   93SAPC   H4S 8986   2.469   3.736   5.864 -0.0617  1.4860  0.4729
   93SAPC   C25 8987   2.629   3.852   5.765 -0.0595  0.9151  0.3438
   93SAPC   H5R 8988   2.666   3.953   5.786  1.1849  0.7543 -0.9268
   93SAPC   C26 8989   2.621   3.813   5.632  0.6251 -0.1180 -0.4078
   93SAPC   H6R 8990   2.663   3.873   5.551 -1.2722  1.2282 -0.4857
   93SAPC   C27 8991   2.554   3.689   5.588 -0.0382  0.4540 -0.0440
   93SAPC   H7R 8992   2.493   3.640   5.666 -1.4263  2.4677  0.2262
   93SAPC   H7S 8993   2.636   3.616   5.570  0.4812  0.4615  2.0344
   93SAPC   C28 8994   2.459   3.699   5.474 -0.1193  0.0724  0.2158
   93SAPC   H8R 8995   2.356   3.724   5.504 -0.2808 -1.5881  1.1774
   93SAPC   C29 8996   2.489   3.692   5.345 -0.7159 -0.0918 -0.1166
   93SAPC   H9R 8997   2.406   3.713   5.276 -2.3167 -3.4456  0.5791
   93SAPC  C210 8998   2.628   3.660   5.288 -0.3630  0.0277  0.1223
   93SAPC  H10R 8999   2.606   3.570   5.226 -5.2436  1.0478  0.0263
   93SAPC  H10S 9000   2.707   3.629   5.361 -0.7409  1.0931  1.0038
   93SAPC  C211 9001   2.674   3.773   5.199  0.0331 -0.0748  0.9399
   93SAPC  H11R 9002   2.758   3.825   5.249 -0.1117  0.1163  0.9855
   93SAPC  C212 9003   2.627   3.799   5.072 -0.8213 -0.2308  0.1819
   93SAPC  H12R 9004   2.666   3.889   5.022 -0.8065  1.0374  2.3428
   93SAPC  C213 9005   2.516   3.730   5.001  0.9560  0.3157  0.5219
   93SAPC  H13R 9006   2.440   3.808   4.981 -2.7479 -2.5584  2.0245
   93SAPC  H13S 9007   2.456   3.664   5.068  2.0145 -3.0791 -1.6250
   93SAPC  C214 9008   2.555   3.654   4.878  1.1502  0.2805 -0.3617
   93SAPC  H14R 9009   2.523   3.548   4.879  1.1892  0.2146 -2.0363
   93SAPC  C215 9010   2.608   3.707   4.768  0.7664  0.4723 -0.3834
   93SAPC  H15R 9011   2.619   3.635   4.686 -1.4331 -0.8801  0.4013
   93SAPC  C216 9012   2.644   3.847   4.728 -0.2393  0.6859 -0.0547
   93SAPC  H16R 9013   2.754   3.847   4.712  0.2623 -1.3355  2.5926
   93SAPC  H16S 9014   2.630   3.922   4.809  0.3139  2.3739 -1.4650
   93SAPC  C217 9015   2.576   3.899   4.596  0.2811 -0.3092 -0.0205
   93SAPC  H17R 9016   2.606   4.005   4.585  0.5899 -0.3622  0.2639
   93SAPC  H17S 9017   2.465   3.893   4.598  0.2659 -0.0104  1.4376
   93SAPC  C218 9018   2.650   3.828   4.474 -0.1111  0.8108 -0.3578
   93SAPC  H18R 9019   2.623   3.721   4.473 -0.7097  0.6531  4.8324
   93SAPC  H18S 9020   2.760   3.839   4.485 -0.1830  1.6173 -0.3667
   93SAPC  C219 9021   2.610   3.883   4.335 -0.3064  0.6721  0.7556
   93SAPC  H19R 9022   2.626   3.993   4.338  1.7510  0.4504 -0.6083
   93SAPC  H19S 9023   2.507   3.850   4.307 -1.2500  2.6366  1.6652
   93SAPC  C220 9024   2.701   3.838   4.225  0.0528  0.2510 -0.0328
   93SAPC  H20R 9025   2.651   3.874   4.132 -0.8635  1.6263  0.9572
   93SAPC  H20S 9026   2.710   3.728   4.217  0.7119 -0.0146  3.1884
   93SAPC  H20T 9027   2.805   3.876   4.236  1.2188 -2.2884 -1.5051
   93SAPC   C33 9028   2.984   3.978   5.828 -0.5025 -0.3350 -0.0702
   93SAPC   H3X 9029   2.908   3.899   5.813 -1.3475  0.1051  1.6758
   93SAPC   H3Y 9030   3.091   3.947   5.831  0.6051  3.0269  0.1618
   93SAPC   C34 9031   2.968   4.086   5.720 -1.2276 -0.7033  0.9876
   93SAPC   H4X 9032   3.041   4.166   5.743  0.4785 -1.5868 -1.0092
   93SAPC   H4Y 9033   2.866   4.130   5.733 -2.4620 -2.3484 -1.9433
   93SAPC   C35 9034   2.980   4.028   5.581 -0.3984  0.1753  0.2780
   93SAPC   H5X 9035   2.916   3.939   5.564  0.3228 -0.1078 -1.0464
   93SAPC   H5Y 9036   3.082   3.990   5.563 -0.3684  0.1402  0.5155
   93SAPC   C36 9037   2.936   4.124   5.472  0.4360 -1.0358  0.3499
   93SAPC   H6X 9038   3.006   4.207   5.448 -0.3779 -0.7035 -1.0259
   93SAPC   H6Y 9039   2.836   4.173   5.484  0.1150 -0.8295 -2.5173
   93SAPC   C37 9040   2.911   4.055   5.339 -0.1316 -0.7896  0.7407
   93SAPC   H7X 9041   2.835   3.976   5.357 -1.9098  0.5345 -0.6017
   93SAPC   H7Y 9042   3.009   4.018   5.303 -0.3803 -1.0142  0.2858
   93SAPC   C38 9043   2.868   4.149   5.223  0.0817  0.0807  0.1281
   93SAPC   H8X 9044   2.921   4.247   5.234 -0.3667  0.4524 -0.9407
   93SAPC   H8Y 9045   2.760   4.173   5.228  0.5748  2.3006  2.6844
   93SAPC   C39 9046   2.899   4.081   5.096 -0.5508  0.2396  0.6462
   93SAPC   H9X 9047   2.864   3.975   5.092  1.6396 -0.5010 -0.7688
   93SAPC   H9Y 9048   3.009   4.076   5.079 -0.7800  0.5077 -1.0729
   93SAPC  C310 9049   2.849   4.160   4.970  0.3294  0.3891 -0.1741
   93SAPC  H10X 9050   2.889   4.263   4.986 -1.9906  1.1791  0.8562
   93SAPC  H10Y 9051   2.739   4.164   4.956  0.4947  1.7798 -1.3027
   93SAPC  C311 9052   2.923   4.114   4.842  0.0822 -0.4089 -0.5313
   93SAPC  H11X 9053   2.903   4.005   4.829 -1.5463 -0.3603  1.1728
   93SAPC  H11Y 9054   3.033   4.127   4.851  0.3661 -1.7681 -1.6133
   93SAPC  C312 9055   2.884   4.191   4.717  0.6465 -0.3457 -0.0272
   93SAPC  H12X 9056   2.895   4.301   4.727 -0.5813  0.1700 -3.1684
   93SAPC  H12Y 9057   2.777   4.175   4.694  0.3847  1.2866 -0.0605
   93SAPC  C313 9058   2.974   4.149   4.599 -0.0009  0.3281  0.4069
   93SAPC  H13X 9059   3.005   4.042   4.602  2.9782  1.0780 -0.6059
   93SAPC  H13Y 9060   3.067   4.209   4.598  0.7919 -0.8550 -1.2419
   93SAPC  C314 9061   2.926   4.177   4.457  0.4330 -0.5126  0.5599
   93SAPC  H14X 9062   2.892   4.282   4.447 -1.9239 -1.2585 -0.1293
   93SAPC  H14Y 9063   2.836   4.112   4.445 -0.0257 -0.0744  1.5137
   93SAPC  C315 9064   3.029   4.155   4.348 -0.6348 -0.5585 -0.2211
   93SAPC  H15X 9065   2.977   4.108   4.261 -0.3368 -0.2127 -0.5893
   93SAPC  H15Y 9066   3.103   4.082   4.386 -0.2853  0.1330  0.4530
   93SAPC  C316 9067   3.111   4.273   4.299 -0.3892  0.2621  0.1653
   93SAPC  H16X 9068   3.159   4.330   4.381  0.5499  0.7853 -0.7309
   93SAPC  H16Y 9069   3.050   4.349   4.246  1.2595  1.6994  0.2237
   93SAPC  C317 9070   3.227   4.238   4.206 -0.9197 -0.2542  0.5060
   93SAPC  H17X 9071   3.300   4.182   4.268 -0.0448  1.9498  1.6006
   93SAPC  H17Y 9072   3.281   4.334   4.190 -0.2201 -0.4432  1.6204
   93SAPC  C318 9073   3.198   4.160   4.072 -1.3273 -0.2571 -0.2269
   93SAPC  H18X 9074   3.296   4.142   4.023 -0.5583  2.3203  0.1813
   93SAPC  H18Y 9075   3.140   4.226   4.004 -0.6840 -0.1078 -0.6455
   93SAPC  H18Z 9076   3.130   4.073   4.075 -1.7323  0.0760  0.5529
   94SAPC     N 9077   1.507   3.445   6.700  0.0780 -0.3740  0.3950
   94SAPC   C12 9078   1.448   3.317   6.651  0.2498  0.0280  0.1754
   94SAPC  H12A 9079   1.378   3.345   6.573 -0.2658  2.2911  1.3581
   94SAPC  H12B 9080   1.390   3.280   6.734  1.2656  1.2293  1.4558
   94SAPC   C13 9081   1.405   3.550   6.745 -0.2482  0.5769  0.6589
   94SAPC  H13A 9082   1.353   3.585   6.656 -1.2531  1.7128  1.6607
   94SAPC  H13B 9083   1.329   3.500   6.803  0.5970 -1.3929  0.1471
   94SAPC  H13C 9084   1.450   3.627   6.805  2.0909 -0.8328  0.8005
   94SAPC   C14 9085   1.597   3.418   6.816 -0.5595  0.1995 -0.1958
   94SAPC  H14A 9086   1.542   3.385   6.902  1.1072 -1.9268  0.1448
   94SAPC  H14B 9087   1.668   3.344   6.782 -0.8441 -0.1690  0.0029
   94SAPC  H14C 9088   1.646   3.510   6.843 -1.5161  0.7544 -0.3149
   94SAPC   C15 9089   1.590   3.506   6.588 -0.5710  0.5325 -0.1563
   94SAPC  H15A 9090   1.648   3.591   6.620 -1.3574  0.7625  0.7095
   94SAPC  H15B 9091   1.655   3.435   6.538  0.9653  1.4440  0.4804
   94SAPC  H15C 9092   1.519   3.536   6.512 -0.8008 -0.0350 -0.1743
   94SAPC   C11 9093   1.545   3.213   6.598  0.1651  0.5680 -0.4175
   94SAPC  H11A 9094   1.610   3.241   6.513  2.7807 -2.1632  0.4981
   94SAPC  H11B 9095   1.495   3.124   6.555  3.3886 -0.6247 -1.9911
   94SAPC     P 9096   1.567   3.048   6.797  0.0828  0.2423  0.5114
   94SAPC   O13 9097   1.664   3.018   6.906 -0.1302  0.0847 -0.0674
   94SAPC   O14 9098   1.429   3.075   6.839  0.2251  0.2814  0.2321
   94SAPC   O12 9099   1.624   3.168   6.705  0.1818  0.4630 -0.0657
   94SAPC   O11 9100   1.565   2.925   6.695 -0.0568  1.2063 -0.5291
   94SAPC    C1 9101   1.687   2.869   6.634  0.7384 -0.1386 -0.2916
   94SAPC    HA 9102   1.761   2.951   6.624 -2.0971  2.4854 -0.9029
   94SAPC    HB 9103   1.725   2.791   6.704 -0.0475  1.6992  2.3588
   94SAPC    C2 9104   1.657   2.805   6.492  1.1301  0.4383 -0.3107
   94SAPC    HS 9105   1.757   2.773   6.453  1.4610  1.3558 -0.2380
   94SAPC   O21 9106   1.607   2.901   6.398 -0.6637  0.5216  0.3941
   94SAPC   C21 9107   1.702   2.981   6.347  0.6057 -0.0004 -0.1238
   94SAPC   O22 9108   1.812   2.989   6.383 -0.3095  0.0671  0.2425
   94SAPC   C22 9109   1.618   3.069   6.253  0.0663 -0.0826  0.2679
   94SAPC   H2R 9110   1.561   2.998   6.189  1.8159 -0.1014 -1.3452
   94SAPC   H2S 9111   1.552   3.136   6.313 -1.4101 -1.2604  0.0270
   94SAPC    C3 9112   1.557   2.685   6.500  0.9004  0.5901  0.0528
   94SAPC    HX 9113   1.478   2.711   6.574  0.8642 -1.3250  0.7512
   94SAPC    HY 9114   1.615   2.597   6.536 -0.3795 -0.3832 -0.1717
   94SAPC   O31 9115   1.493   2.660   6.374 -0.2072 -0.5381 -0.0683
   94SAPC   C31 9116   1.570   2.607   6.286 -0.1963 -0.1810  0.2330
   94SAPC   O32 9117   1.687   2.585   6.297  0.4191  0.3021  0.4770
   94SAPC   C32 9118   1.492   2.583   6.161 -0.0855  0.1079  0.7393
   94SAPC   H2X 9119   1.397   2.640   6.153 -1.1942 -1.5713  1.2538
   94SAPC   H2Y 9120   1.465   2.475   6.160  1.7866 -0.4241  2.1255
   94SAPC   C23 9121   1.712   3.140   6.158 -0.2611 -0.2577  0.3836
   94SAPC   H3R 9122   1.782   3.063   6.119  1.3055  1.7319 -0.9850
   94SAPC   H3S 9123   1.781   3.215   6.203  2.7835 -1.7043 -1.5882
   94SAPC   C24 9124   1.644   3.188   6.030  0.5402 -0.0690  0.2648
   94SAPC   H4R 9125   1.539   3.222   6.041  0.2487 -0.3681 -1.4091
   94SAPC   H4S 9126   1.629   3.098   5.966  1.6672 -0.3859  0.4243
   94SAPC   C25 9127   1.728   3.295   5.968 -0.4930  0.6331  0.4380
   94SAPC   H5R 9128   1.763   3.375   6.035  2.6638  0.5902 -0.9560
   94SAPC   C26 9129   1.801   3.288   5.851 -0.1086 -0.2324 -0.5899
   94SAPC   H6R 9130   1.863   3.375   5.824 -1.5179  0.6567 -1.0475
   94SAPC   C27 9131   1.783   3.182   5.751 -0.3365  0.2023  0.0100
   94SAPC   H7R 9132   1.697   3.212   5.687 -2.5850 -0.6275  2.4864
   94SAPC   H7S 9133   1.744   3.088   5.796 -0.6978 -0.4986 -1.6765
   94SAPC   C28 9134   1.916   3.156   5.696  0.1312  0.3030  0.1582
   94SAPC   H8R 9135   1.976   3.085   5.755 -1.2224 -0.4666  0.6659
   94SAPC   C29 9136   1.955   3.205   5.579 -0.1879 -0.1782  0.0600
   94SAPC   H9R 9137   2.057   3.194   5.541 -0.5480  1.8217 -1.7151
   94SAPC  C210 9138   1.887   3.280   5.467 -0.2107 -0.3300  0.1611
   94SAPC  H10R 9139   1.962   3.326   5.399 -0.3180 -0.3475  0.0320
   94SAPC  H10S 9140   1.841   3.371   5.510 -0.2206 -0.1665 -0.1918
   94SAPC  C211 9141   1.791   3.195   5.381 -1.1285  0.0869  0.2385
   94SAPC  H11R 9142   1.703   3.155   5.435  0.8996 -1.3404  2.7285
   94SAPC  C212 9143   1.815   3.155   5.255 -0.1094 -0.0204 -0.8537
   94SAPC  H12R 9144   1.745   3.090   5.200 -1.5458 -0.7405  1.6999
   94SAPC  C213 9145   1.944   3.190   5.178 -0.5681 -0.2481 -0.4791
   94SAPC  H13R 9146   2.020   3.143   5.246 -2.6652  0.8250  2.8493
   94SAPC  H13S 9147   1.963   3.299   5.174  2.1417 -0.5948  0.4082
   94SAPC  C214 9148   1.949   3.149   5.031 -0.8021  0.1082 -0.5349
   94SAPC  H14R 9149   2.026   3.072   5.011 -1.0551 -0.1882 -0.3799
   94SAPC  C215 9150   1.876   3.195   4.940 -0.3616 -0.2969 -0.1993
   94SAPC  H15R 9151   1.890   3.148   4.842  0.1200 -0.7861  0.1021
   94SAPC  C216 9152   1.765   3.299   4.949 -0.0462 -0.2533  0.4834
   94SAPC  H16R 9153   1.783   3.367   5.035 -1.6494  2.3063 -1.0730
   94SAPC  H16S 9154   1.666   3.250   4.936  0.9654 -2.3697  0.3417
   94SAPC  C217 9155   1.761   3.406   4.834 -0.1117  0.8221 -0.2800
   94SAPC  H17R 9156   1.780   3.349   4.740 -1.5915  1.7307 -1.1679
   94SAPC  H17S 9157   1.844   3.477   4.856  1.8262 -1.1584 -0.7780
   94SAPC  C218 9158   1.622   3.471   4.819  0.2027 -0.3101  0.3784
   94SAPC  H18R 9159   1.606   3.534   4.909 -0.1069  0.4186 -0.1797
   94SAPC  H18S 9160   1.533   3.404   4.818  0.6194 -0.8661 -0.9489
   94SAPC  C219 9161   1.605   3.557   4.688  0.3546 -0.1172 -0.5815
   94SAPC  H19R 9162   1.677   3.640   4.709  0.8634 -1.0528  1.6298
   94SAPC  H19S 9163   1.498   3.583   4.676 -0.1097 -2.1554 -1.1785
   94SAPC  C220 9164   1.657   3.495   4.554  0.3335 -0.5353  0.3718
   94SAPC  H20R 9165   1.593   3.407   4.532  1.4299 -0.8878 -1.5801
   94SAPC  H20S 9166   1.766   3.471   4.562  0.4813 -0.9741 -2.1699
   94SAPC  H20T 9167   1.651   3.573   4.475 -2.8417  1.4202  2.3165
   94SAPC   C33 9168   1.569   2.611   6.027  0.0987 -0.5036 -0.6289
   94SAPC   H3X 9169   1.666   2.557   6.036 -0.5827 -1.4367  1.9244
   94SAPC   H3Y 9170   1.601   2.718   6.023 -0.8856 -0.1418  0.5312
   94SAPC   C34 9171   1.505   2.569   5.890  0.5248  0.4777  0.6279
   94SAPC   H4X 9172   1.554   2.623   5.806  1.0995 -1.3034 -0.2342
   94SAPC   H4Y 9173   1.403   2.612   5.891  0.9269  1.4824 -0.0216
   94SAPC   C35 9174   1.517   2.416   5.874  0.1078  0.7044  0.3904
   94SAPC   H5X 9175   1.465   2.355   5.950  1.2226 -0.2110  0.4620
   94SAPC   H5Y 9176   1.623   2.382   5.880  0.3590  1.3748 -0.0831
   94SAPC   C36 9177   1.467   2.369   5.737 -0.1056 -0.5247 -0.5410
   94SAPC   H6X 9178   1.369   2.415   5.715 -0.6411 -1.6475 -0.5562
   94SAPC   H6Y 9179   1.444   2.260   5.739 -3.9780  0.1781 -0.6183
   94SAPC   C37 9180   1.555   2.414   5.620 -0.1629 -0.1371  0.0617
   94SAPC   H7X 9181   1.658   2.381   5.644  0.1206  1.5514  1.3411
   94SAPC   H7Y 9182   1.557   2.525   5.620 -2.9868 -0.0008 -0.7323
   94SAPC   C38 9183   1.502   2.361   5.490  0.0895  0.3558 -0.0594
   94SAPC   H8X 9184   1.391   2.368   5.485  0.1113  0.1492 -1.2066
   94SAPC   H8Y 9185   1.528   2.253   5.492 -0.5677  0.1596 -1.2151
   94SAPC   C39 9186   1.560   2.431   5.364  0.5628 -0.4335  0.6163
   94SAPC   H9X 9187   1.668   2.405   5.356  0.0117 -2.5738 -0.8533
   94SAPC   H9Y 9188   1.545   2.541   5.372 -2.6608 -0.7402 -0.1422
   94SAPC  C310 9189   1.501   2.380   5.236  0.0016 -0.4953 -0.0351
   94SAPC  H10X 9190   1.390   2.377   5.230 -0.1448  0.4533  1.6675
   94SAPC  H10Y 9191   1.506   2.270   5.222 -2.5711 -0.6005 -0.7193
   94SAPC  C311 9192   1.553   2.447   5.107  0.1233 -0.8596 -0.2271
   94SAPC  H11X 9193   1.659   2.423   5.088  1.1243  2.8945 -0.2645
   94SAPC  H11Y 9194   1.554   2.558   5.118  0.8388 -0.8491 -0.3612
   94SAPC  C312 9195   1.457   2.426   4.996  0.5190  0.5856  0.5357
   94SAPC  H12X 9196   1.357   2.474   5.008 -0.2127 -0.2880 -1.5554
   94SAPC  H12Y 9197   1.430   2.320   4.980  0.2682  0.7556 -0.2324
   94SAPC  C313 9198   1.516   2.471   4.859 -0.0981 -0.0459  0.3612
   94SAPC  H13X 9199   1.609   2.419   4.829  0.0377  0.1643  0.4205
   94SAPC  H13Y 9200   1.558   2.573   4.875  1.7009 -0.1122 -3.0660
   94SAPC  C314 9201   1.413   2.489   4.746  0.3303 -0.1681  0.4113
   94SAPC  H14X 9202   1.316   2.533   4.778 -0.4551 -1.7369  0.2770
   94SAPC  H14Y 9203   1.387   2.389   4.705  1.6831  0.1472 -1.3154
   94SAPC  C315 9204   1.476   2.556   4.630 -0.1685 -0.2543  0.0621
   94SAPC  H15X 9205   1.557   2.498   4.580  1.8159  1.8941  0.5855
   94SAPC  H15Y 9206   1.536   2.644   4.661 -0.4746  1.2455 -3.1961
   94SAPC  C316 9207   1.368   2.595   4.522 -0.0793  0.1582  0.1358
   94SAPC  H16X 9208   1.310   2.503   4.500  0.8398 -0.8433  1.7454
   94SAPC  H16Y 9209   1.411   2.641   4.430 -2.6581 -1.4091 -2.0138
   94SAPC  C317 9210   1.267   2.702   4.575  0.1392  0.0872  0.0215
   94SAPC  H17X 9211   1.329   2.769   4.637 -1.3977  0.3318  1.3379
   94SAPC  H17Y 9212   1.197   2.652   4.645 -0.3819 -0.9147 -1.1692
   94SAPC  C318 9213   1.195   2.787   4.470  0.1865 -0.6337  0.8522
   94SAPC  H18X 9214   1.248   2.781   4.373 -0.9846  1.1955  0.0609
   94SAPC  H18Y 9215   1.186   2.893   4.502  0.0020 -0.5910  0.6545
   94SAPC  H18Z 9216   1.093   2.747   4.456  0.3530 -0.3819 -1.3718
   95SAPC     N 9217   6.090   0.744   2.103 -0.1060  1.2460 -0.4536
   95SAPC   C12 9218   6.031   0.872   2.077 -0.6482 -0.0697 -0.9282
   95SAPC  H12A 9219   5.999   0.882   1.975 -0.3463  1.8827 -0.8779
   95SAPC  H12B 9220   6.105   0.951   2.084 -0.7336 -0.0710  0.1256
   95SAPC   C13 9221   6.214   0.723   2.028  0.0703  0.0710 -0.0453
   95SAPC  H13A 9222   6.200   0.735   1.922  0.6410 -0.8765 -0.2436
   95SAPC  H13B 9223   6.292   0.787   2.068 -0.4643  0.1403  0.9006
   95SAPC  H13C 9224   6.255   0.623   2.030  0.1970  0.1303  0.6831
   95SAPC   C14 9225   6.130   0.730   2.251 -0.7485 -0.4787 -0.1428
   95SAPC  H14A 9226   6.193   0.811   2.285 -1.9213  0.3297  0.1647
   95SAPC  H14B 9227   6.038   0.736   2.307 -0.6303 -2.7776  0.3840
   95SAPC  H14C 9228   6.176   0.637   2.280  1.5962  0.8917  0.8111
   95SAPC   C15 9229   5.988   0.641   2.073 -0.9591  0.2375  0.0470
   95SAPC  H15A 9230   5.952   0.657   1.972 -0.3691  0.6204 -0.1137
   95SAPC  H15B 9231   6.039   0.546   2.079 -1.0131  0.1924 -0.1989
   95SAPC  H15C 9232   5.908   0.653   2.144 -1.2532  4.3134 -0.7107
   95SAPC   C11 9233   5.922   0.927   2.172  0.2522 -0.6179 -0.5782
   95SAPC  H11A 9234   5.930   1.037   2.156  0.6601 -0.6100 -0.3203
   95SAPC  H11B 9235   5.943   0.895   2.276  0.6585 -1.9400 -1.0526
   95SAPC     P 9236   5.729   0.904   1.988  0.6716  0.2321  0.1250
   95SAPC   O13 9237   5.829   0.995   1.916  0.9011  0.2302  0.0414
   95SAPC   O14 9238   5.698   0.770   1.927 -1.0195 -0.1207 -0.5196
   95SAPC   O12 9239   5.789   0.880   2.136  0.0994 -0.5309  0.1466
   95SAPC   O11 9240   5.594   0.984   2.014 -0.8460 -0.1629  0.3511
   95SAPC    C1 9241   5.599   1.125   2.040  0.5853  0.5536 -0.1656
   95SAPC    HA 9242   5.704   1.158   2.055  0.6578  0.9905 -1.4864
   95SAPC    HB 9243   5.544   1.175   1.958 -2.1402 -3.1644 -0.8924
   95SAPC    C2 9244   5.519   1.161   2.174  0.3737 -0.1682  0.5166
   95SAPC    HS 9245   5.529   1.268   2.203  1.8347 -1.0480  3.6429
   95SAPC   O21 9246   5.562   1.067   2.278  0.0064 -0.2561 -0.7041
   95SAPC   C21 9247   5.663   1.102   2.348 -0.5944  0.5709  0.0053
   95SAPC   O22 9248   5.722   1.208   2.330  0.5403 -0.5432  0.1352
   95SAPC   C22 9249   5.705   1.000   2.461  0.4495  0.3536  0.6548
   95SAPC   H2R 9250   5.607   0.972   2.503  1.0042 -2.7419  0.1447
   95SAPC   H2S 9251   5.735   0.904   2.414 -0.2698  0.4218  0.0335
   95SAPC    C3 9252   5.366   1.143   2.146  0.1921  0.0680  0.0219
   95SAPC    HX 9253   5.338   1.042   2.110  1.2257 -0.3908  0.4665
   95SAPC    HY 9254   5.342   1.214   2.064 -0.1463  0.4096  0.4075
   95SAPC   O31 9255   5.289   1.178   2.260 -0.1231  0.2788  0.2209
   95SAPC   C31 9256   5.270   1.080   2.344  0.4816  0.0572  0.3518
   95SAPC   O32 9257   5.311   0.965   2.331  0.1271  0.9719 -0.0597
   95SAPC   C32 9258   5.194   1.130   2.467 -0.3778 -0.4816 -0.5590
   95SAPC   H2X 9259   5.116   1.054   2.485 -1.3493  0.5278 -0.4256
   95SAPC   H2Y 9260   5.135   1.219   2.436  1.3531  0.4851 -1.2527
   95SAPC   C23 9261   5.818   1.038   2.553  0.1369  0.4600 -0.1105
   95SAPC   H3R 9262   5.802   1.143   2.585 -0.9972  0.0235  0.7810
   95SAPC   H3S 9263   5.913   1.021   2.497 -0.8304 -0.5703 -1.5125
   95SAPC   C24 9264   5.812   0.962   2.688 -0.0628 -0.4576  0.7888
   95SAPC   H4R 9265   5.840   0.855   2.677 -1.6034 -1.0659  2.3678
   95SAPC   H4S 9266   5.706   0.960   2.720 -0.5423 -1.9694 -0.7717
   95SAPC   C25 9267   5.906   1.034   2.786 -0.2480  0.1283  0.2338
   95SAPC   H5R 9268   6.009   1.044   2.750 -0.2136  1.4764  0.6538
   95SAPC   C26 9269   5.873   1.091   2.906  0.2486  0.7921  1.0437
   95SAPC   H6R 9270   5.953   1.134   2.968  1.3161  0.3166  0.0354
   95SAPC   C27 9271   5.733   1.089   2.962  0.3205 -0.1864 -0.2178
   95SAPC   H7R 9272   5.661   1.090   2.877 -2.0406 -1.0931  1.6277
   95SAPC   H7S 9273   5.705   1.190   2.998  1.0044  0.6821 -2.0381
   95SAPC   C28 9274   5.678   0.983   3.051 -0.7979  0.0661  0.2526
   95SAPC   H8R 9275   5.638   0.899   2.993 -2.5173  0.9415  0.1123
   95SAPC   C29 9276   5.658   0.991   3.184  0.0646 -0.6651 -0.1446
   95SAPC   H9R 9277   5.627   0.894   3.224 -1.2767 -0.0086  0.4765
   95SAPC  C210 9278   5.696   1.098   3.290  0.2939  0.1995  0.1325
   95SAPC  H10R 9279   5.762   1.180   3.255 -0.3405 -0.1035 -1.9358
   95SAPC  H10S 9280   5.750   1.061   3.379 -0.1299 -1.4749 -0.2683
   95SAPC  C211 9281   5.561   1.155   3.341  0.7865  0.0935 -0.5898
   95SAPC  H11R 9282   5.482   1.177   3.267  0.7797  1.0382 -0.3150
   95SAPC  C212 9283   5.537   1.197   3.469  0.4101 -0.2571  0.1020
   95SAPC  H12R 9284   5.438   1.240   3.485  0.2262  1.1112 -3.6369
   95SAPC  C213 9285   5.640   1.188   3.595  0.2737  0.4318 -0.6707
   95SAPC  H13R 9286   5.730   1.247   3.571  0.7681 -0.2113 -0.4297
   95SAPC  H13S 9287   5.662   1.080   3.608 -1.3489 -0.0293 -1.4580
   95SAPC  C214 9288   5.592   1.235   3.730  0.1283 -0.5172 -0.8951
   95SAPC  H14R 9289   5.492   1.280   3.738  2.0866  4.5307 -1.3548
   95SAPC  C215 9290   5.670   1.240   3.844 -0.0923  0.6125  0.7484
   95SAPC  H15R 9291   5.643   1.294   3.935  3.1775 -0.8296  2.7352
   95SAPC  C216 9292   5.805   1.170   3.842 -0.1404 -0.0417  0.0211
   95SAPC  H16R 9293   5.844   1.142   3.742  0.6760  2.3425 -0.3917
   95SAPC  H16S 9294   5.794   1.082   3.908 -2.8633 -0.6718 -1.1454
   95SAPC  C217 9295   5.929   1.246   3.895  0.3546 -0.2927  0.0878
   95SAPC  H17R 9296   5.894   1.312   3.978  0.3231  1.4008 -1.2344
   95SAPC  H17S 9297   5.962   1.322   3.822 -0.9658 -0.5661 -0.8250
   95SAPC  C218 9298   6.048   1.163   3.937  1.0751  0.0943 -0.1025
   95SAPC  H18R 9299   6.006   1.079   3.995  0.5468 -0.4526 -1.2439
   95SAPC  H18S 9300   6.113   1.230   3.998  0.0633  0.9756  0.0308
   95SAPC  C219 9301   6.125   1.107   3.820  0.2238 -0.7983  0.0212
   95SAPC  H19R 9302   6.157   1.195   3.760 -0.1959  0.1839  1.1968
   95SAPC  H19S 9303   6.055   1.037   3.771 -0.0551 -0.5431  0.0523
   95SAPC  C220 9304   6.246   1.027   3.853  0.3261  0.1651  0.0440
   95SAPC  H20R 9305   6.336   1.088   3.877  1.4976 -1.7358  0.7176
   95SAPC  H20S 9306   6.278   0.968   3.765 -0.2725 -0.4551  0.2357
   95SAPC  H20T 9307   6.233   0.973   3.949  2.0985  1.4836  1.0933
   95SAPC   C33 9308   5.289   1.155   2.586  0.1226 -0.5979 -0.2910
   95SAPC   H3X 9309   5.370   1.221   2.547  0.3958 -0.9340 -0.2941
   95SAPC   H3Y 9310   5.337   1.059   2.615  0.3184 -0.3515  0.2142
   95SAPC   C34 9311   5.230   1.208   2.723 -0.2494 -0.5671 -0.2087
   95SAPC   H4X 9312   5.240   1.318   2.712  1.0567 -0.8101 -1.8727
   95SAPC   H4Y 9313   5.305   1.179   2.800  1.0928  1.6644 -0.5760
   95SAPC   C35 9314   5.093   1.156   2.761  0.3751  1.0005  0.6360
   95SAPC   H5X 9315   5.093   1.046   2.746  0.6933  1.1654 -0.7291
   95SAPC   H5Y 9316   5.022   1.194   2.684 -0.6663 -1.5474  0.2216
   95SAPC   C36 9317   5.046   1.198   2.897 -0.2394 -0.3092  0.2828
   95SAPC   H6X 9318   4.938   1.175   2.906 -0.3302  0.3292  0.8743
   95SAPC   H6Y 9319   5.067   1.306   2.912  1.4462 -0.8356  2.0754
   95SAPC   C37 9320   5.121   1.122   3.007 -0.4562 -0.2009  0.5818
   95SAPC   H7X 9321   5.228   1.108   2.978 -0.7247 -0.3999 -0.3469
   95SAPC   H7Y 9322   5.072   1.024   3.024 -0.7642 -0.0949  0.3153
   95SAPC   C38 9323   5.107   1.207   3.132 -1.3315  0.1997  0.3044
   95SAPC   H8X 9324   5.003   1.238   3.153 -1.8389 -1.0847 -0.2056
   95SAPC   H8Y 9325   5.164   1.301   3.118  0.0338 -0.1136  2.9969
   95SAPC   C39 9326   5.143   1.129   3.257  0.1962  0.6989  0.2269
   95SAPC   H9X 9327   5.251   1.105   3.255 -0.0550 -0.4385 -0.4589
   95SAPC   H9Y 9328   5.091   1.031   3.263 -0.6545  1.0340 -1.2718
   95SAPC  C310 9329   5.115   1.219   3.380  0.2151  0.4530 -0.5881
   95SAPC  H10X 9330   5.008   1.237   3.407  0.2863 -1.4902  1.3115
   95SAPC  H10Y 9331   5.158   1.321   3.379  1.8404 -0.1656  1.0075
   95SAPC  C311 9332   5.166   1.135   3.498 -0.1333 -0.5312 -0.0765
   95SAPC  H11X 9333   5.269   1.110   3.465  0.4889  1.3201  0.3526
   95SAPC  H11Y 9334   5.112   1.038   3.500  0.9227 -1.1246  0.7983
   95SAPC  C312 9335   5.158   1.218   3.625  0.0683 -0.2720  0.2109
   95SAPC  H12X 9336   5.070   1.284   3.616 -0.9087 -1.6261 -0.5316
   95SAPC  H12Y 9337   5.245   1.287   3.630 -0.5331  0.4734  0.4463
   95SAPC  C313 9338   5.148   1.123   3.747  0.5451 -0.1367 -1.2553
   95SAPC  H13X 9339   5.240   1.060   3.758  0.8995  0.1623 -2.3627
   95SAPC  H13Y 9340   5.061   1.059   3.721 -1.7961  2.0655  0.6776
   95SAPC  C314 9341   5.120   1.195   3.880  0.2476 -0.4728  0.6669
   95SAPC  H14X 9342   5.089   1.122   3.958  0.4237  0.6800  1.8611
   95SAPC  H14Y 9343   5.038   1.266   3.854  0.6265  0.0487  0.8900
   95SAPC  C315 9344   5.237   1.269   3.928 -1.2611 -0.5084 -0.7111
   95SAPC  H15X 9345   5.275   1.337   3.849 -0.2710 -0.8190 -0.5117
   95SAPC  H15Y 9346   5.319   1.195   3.944  1.2559  1.4598 -3.4909
   95SAPC  C316 9347   5.211   1.344   4.063 -0.0370 -0.3626  1.0448
   95SAPC  H16X 9348   5.147   1.272   4.119 -1.3416 -0.0317  0.0179
   95SAPC  H16Y 9349   5.157   1.438   4.040 -2.2476 -2.0399 -1.1833
   95SAPC  C317 9350   5.340   1.368   4.134 -0.8038 -0.3182  1.1075
   95SAPC  H17X 9351   5.403   1.277   4.147 -1.1904 -1.1401 -1.9610
   95SAPC  H17Y 9352   5.313   1.397   4.238  1.6418  0.6956  1.5103
   95SAPC  C318 9353   5.431   1.486   4.080  0.3457 -0.2672  0.0329
   95SAPC  H18X 9354   5.524   1.502   4.139 -0.8221  0.4788  1.7495
   95SAPC  H18Y 9355   5.377   1.582   4.071  1.6781  0.5589  0.5326
   95SAPC  H18Z 9356   5.455   1.467   3.974 -2.7715  2.1968 -1.2908
   96SAPC     N 9357   3.350   1.282   1.950  0.0594  0.4384  0.6876
   96SAPC   C12 9358   3.358   1.417   2.015  0.3151 -0.9187 -0.8222
   96SAPC  H12A 9359   3.273   1.475   1.981  0.0242 -2.1654 -2.3232
   96SAPC  H12B 9360   3.449   1.463   1.982  1.3532 -2.8219 -0.7560
   96SAPC   C13 9361   3.240   1.188   2.000 -0.6523 -0.1473 -0.4088
   96SAPC  H13A 9362   3.140   1.226   1.980  0.2399  0.7193 -3.9590
   96SAPC  H13B 9363   3.243   1.097   1.942  1.8297  0.1452 -0.8463
   96SAPC  H13C 9364   3.258   1.183   2.106 -2.4638 -0.2949 -0.0708
   96SAPC   C14 9365   3.317   1.297   1.801  0.4906 -0.0652 -0.2225
   96SAPC  H14A 9366   3.298   1.196   1.769  1.8386 -0.8649  1.3624
   96SAPC  H14B 9367   3.222   1.347   1.794  0.5559  0.4585  1.9131
   96SAPC  H14C 9368   3.400   1.337   1.744 -0.3462  1.8877 -0.1400
   96SAPC   C15 9369   3.481   1.217   1.951 -0.3191  0.2621  0.2125
   96SAPC  H15A 9370   3.552   1.289   1.913  0.1423 -1.7281 -3.1434
   96SAPC  H15B 9371   3.511   1.191   2.052 -0.6500 -0.3448  0.1623
   96SAPC  H15C 9372   3.492   1.134   1.883 -1.6721  2.0282 -2.3289
   96SAPC   C11 9373   3.377   1.419   2.170 -0.1728  0.7039 -0.4937
   96SAPC  H11A 9374   3.281   1.399   2.223 -0.7573 -2.2487 -2.4151
   96SAPC  H11B 9375   3.408   1.524   2.190 -0.6965  1.2018 -2.1186
   96SAPC     P 9376   3.462   1.221   2.327 -0.3455 -0.5213  0.1761
   96SAPC   O13 9377   3.317   1.224   2.368 -0.4429 -0.8565 -0.1951
   96SAPC   O14 9378   3.520   1.098   2.276 -0.1965 -0.1100  0.1796
   96SAPC   O12 9379   3.483   1.329   2.211 -0.8095  0.7894  0.4927
   96SAPC   O11 9380   3.541   1.276   2.446  0.1436 -0.8596 -0.0178
   96SAPC    C1 9381   3.671   1.343   2.447  0.5949 -0.1390  0.2907
   96SAPC    HA 9382   3.703   1.364   2.342  0.1290 -1.9134 -0.2385
   96SAPC    HB 9383   3.664   1.429   2.517 -0.6115  0.3699 -0.4370
   96SAPC    C2 9384   3.780   1.255   2.507 -0.4003  0.2214  0.7338
   96SAPC    HS 9385   3.770   1.153   2.465  0.9078 -0.4184  1.9023
   96SAPC   O21 9386   3.759   1.262   2.645  0.4029  0.3533  0.1096
   96SAPC   C21 9387   3.683   1.162   2.698 -0.2815 -0.2681  0.4881
   96SAPC   O22 9388   3.633   1.067   2.633  0.2028 -0.7097 -0.4038
   96SAPC   C22 9389   3.663   1.197   2.849 -0.4936 -1.0709 -1.1482
   96SAPC   H2R 9390   3.751   1.253   2.888  0.1064 -2.4780 -0.4326
   96SAPC   H2S 9391   3.572   1.262   2.854  0.1488 -0.0435 -2.4225
   96SAPC    C3 9392   3.923   1.307   2.477  0.6504 -0.8210  0.4049
   96SAPC    HX 9393   3.943   1.303   2.368 -1.1592 -0.6462  0.0249
   96SAPC    HY 9394   4.002   1.245   2.523  0.2511 -1.0619  0.7762
   96SAPC   O31 9395   3.930   1.445   2.516  0.1495 -0.1046 -0.2816
   96SAPC   C31 9396   3.967   1.466   2.642 -0.1772 -0.0643  0.0126
   96SAPC   O32 9397   4.024   1.387   2.716  0.2375  0.2239 -0.1943
   96SAPC   C32 9398   3.931   1.608   2.685  0.1541  0.4860  0.1577
   96SAPC   H2X 9399   3.878   1.645   2.595  4.9549  1.7980 -2.5044
   96SAPC   H2Y 9400   4.027   1.664   2.690  0.9756 -0.5133 -2.4321
   96SAPC   C23 9401   3.659   1.080   2.951  0.0755  0.2119 -0.0457
   96SAPC   H3R 9402   3.765   1.059   2.977 -0.7014 -1.0808  2.4000
   96SAPC   H3S 9403   3.618   0.995   2.894 -1.0100  2.0719 -2.1700
   96SAPC   C24 9404   3.578   1.099   3.081  0.1415 -0.4678  0.3393
   96SAPC   H4R 9405   3.553   1.003   3.130  2.2597 -1.7602 -0.9498
   96SAPC   H4S 9406   3.476   1.129   3.047  0.3215 -0.4516 -0.1982
   96SAPC   C25 9407   3.647   1.200   3.173 -0.0276 -0.6161  0.5777
   96SAPC   H5R 9408   3.694   1.282   3.116  0.2132 -0.1410  1.4389
   96SAPC   C26 9409   3.644   1.201   3.304 -0.6301 -0.2576  0.3532
   96SAPC   H6R 9410   3.706   1.270   3.362 -2.6983  1.2480  0.8866
   96SAPC   C27 9411   3.578   1.095   3.395 -0.5362 -0.4678  0.6801
   96SAPC   H7R 9412   3.576   0.996   3.343 -3.9132 -0.5109  0.6823
   96SAPC   H7S 9413   3.472   1.124   3.407 -0.5311 -0.0056 -0.3075
   96SAPC   C28 9414   3.635   1.080   3.536 -0.6857 -0.0820 -0.0032
   96SAPC   H8R 9415   3.705   0.995   3.536 -0.0133  0.4533 -0.9888
   96SAPC   C29 9416   3.613   1.158   3.644 -0.2267  0.1232  0.5630
   96SAPC   H9R 9417   3.676   1.140   3.733 -2.5840 -1.0987  2.0874
   96SAPC  C210 9418   3.527   1.280   3.636 -0.2421  0.3166  0.3962
   96SAPC  H10R 9419   3.439   1.253   3.698 -1.3095 -1.4265 -1.7397
   96SAPC  H10S 9420   3.480   1.297   3.537 -2.7826  0.9761  1.6376
   96SAPC  C211 9421   3.602   1.399   3.683 -0.2114  0.2025 -0.4230
   96SAPC  H11R 9422   3.642   1.468   3.608  2.0017 -0.4847  0.0384
   96SAPC  C212 9423   3.628   1.427   3.817  0.0424  0.0801 -0.2801
   96SAPC  H12R 9424   3.696   1.511   3.839 -1.0616  0.3002  2.7484
   96SAPC  C213 9425   3.593   1.352   3.944  0.1340  0.5762 -0.8242
   96SAPC  H13R 9426   3.688   1.333   3.996  0.7719  2.4883 -1.1903
   96SAPC  H13S 9427   3.538   1.260   3.913 -0.2610  0.6404 -0.3364
   96SAPC  C214 9428   3.499   1.430   4.035 -0.8467 -0.0031 -0.5231
   96SAPC  H14R 9429   3.417   1.485   3.988 -2.8615 -0.6321  2.0378
   96SAPC  C215 9430   3.522   1.447   4.168  0.0324  0.0550 -0.7375
   96SAPC  H15R 9431   3.458   1.503   4.239  0.7698 -1.8165  1.5194
   96SAPC  C216 9432   3.633   1.394   4.256 -0.3355  0.1527 -0.0621
   96SAPC  H16R 9433   3.677   1.296   4.231  1.3092  0.1682  2.3483
   96SAPC  H16S 9434   3.591   1.390   4.359 -0.2180  2.8122  0.1680
   96SAPC  C217 9435   3.748   1.494   4.255 -0.1572  0.0671 -0.1687
   96SAPC  H17R 9436   3.717   1.601   4.254 -1.6824 -0.3532 -1.1771
   96SAPC  H17S 9437   3.807   1.482   4.162  0.5484  0.5466  0.2075
   96SAPC  C218 9438   3.839   1.468   4.378  0.2915  0.0283 -0.3136
   96SAPC  H18R 9439   3.883   1.367   4.365 -0.1269 -0.1098 -0.6858
   96SAPC  H18S 9440   3.776   1.453   4.469  1.4071 -1.1649  0.2892
   96SAPC  C219 9441   3.947   1.579   4.406  0.6094  0.2712 -0.2034
   96SAPC  H19R 9442   4.015   1.556   4.490 -0.5115 -0.0591  0.6485
   96SAPC  H19S 9443   3.888   1.661   4.453 -1.4925 -1.0535 -0.3588
   96SAPC  C220 9444   4.013   1.627   4.273 -0.2203  0.1359  0.2164
   96SAPC  H20R 9445   4.104   1.689   4.290  0.1182 -0.2361 -0.2008
   96SAPC  H20S 9446   3.938   1.688   4.220 -0.3543 -0.6984 -0.5649
   96SAPC  H20T 9447   4.029   1.540   4.206 -0.0809 -0.0307  0.4631
   96SAPC   C33 9448   3.834   1.617   2.806 -0.1371 -0.3884 -0.0053
   96SAPC   H3X 9449   3.766   1.529   2.799 -1.6312  0.7022  0.3262
   96SAPC   H3Y 9450   3.779   1.712   2.789  0.1307 -0.2283  0.0076
   96SAPC   C34 9451   3.909   1.630   2.942 -0.0302 -0.1019  0.2830
   96SAPC   H4X 9452   3.984   1.711   2.948  1.1836 -1.2425  0.9785
   96SAPC   H4Y 9453   3.971   1.539   2.955  1.0534  0.1725 -2.2319
   96SAPC   C35 9454   3.804   1.646   3.050  0.3673 -0.4115  0.2371
   96SAPC   H5X 9455   3.729   1.568   3.029 -0.6720  0.8569 -1.0012
   96SAPC   H5Y 9456   3.749   1.743   3.044 -0.2889 -0.6910  1.4745
   96SAPC   C36 9457   3.867   1.636   3.187  0.1062 -0.5827  0.1815
   96SAPC   H6X 9458   3.925   1.728   3.207 -0.7006  0.4580 -1.9400
   96SAPC   H6Y 9459   3.940   1.552   3.195  1.9880  0.9571 -0.1847
   96SAPC   C37 9460   3.754   1.640   3.296 -0.7295  0.6010  0.0066
   96SAPC   H7X 9461   3.796   1.624   3.397 -0.6552 -0.6865 -0.2108
   96SAPC   H7Y 9462   3.691   1.555   3.260  1.9288 -1.0475 -1.0168
   96SAPC   C38 9463   3.660   1.762   3.293 -0.0586 -0.1998 -0.5767
   96SAPC   H8X 9464   3.587   1.753   3.209 -1.4948 -1.5052  0.7631
   96SAPC   H8Y 9465   3.727   1.844   3.258  1.1964 -1.1640 -0.4781
   96SAPC   C39 9466   3.602   1.807   3.423  0.3487  0.9084  0.2806
   96SAPC   H9X 9467   3.577   1.914   3.413  1.4893  1.2734  1.1570
   96SAPC   H9Y 9468   3.670   1.790   3.509  0.0282  1.4448  0.6475
   96SAPC  C310 9469   3.474   1.731   3.471  0.3429  0.7877  0.7639
   96SAPC  H10X 9470   3.502   1.625   3.489  1.0091  0.8888  0.3306
   96SAPC  H10Y 9471   3.406   1.735   3.383  0.2210 -1.1821  0.7274
   96SAPC  C311 9472   3.421   1.782   3.598  0.3786  0.6494 -0.6265
   96SAPC  H11X 9473   3.352   1.705   3.639  1.2542  0.1670 -0.0173
   96SAPC  H11Y 9474   3.365   1.876   3.577  1.2666  0.9959 -1.4833
   96SAPC  C312 9475   3.530   1.800   3.708 -0.6087  0.0691 -0.1761
   96SAPC  H12X 9476   3.584   1.893   3.680 -0.1633 -0.0644  0.2231
   96SAPC  H12Y 9477   3.597   1.711   3.716  1.5921  1.7909  1.9387
   96SAPC  C313 9478   3.477   1.808   3.851 -0.4402 -0.0454  0.2785
   96SAPC  H13X 9479   3.440   1.709   3.886  0.4678 -2.2171 -4.2192
   96SAPC  H13Y 9480   3.397   1.885   3.852 -1.3812 -0.9324 -1.6811
   96SAPC  C314 9481   3.583   1.858   3.955  0.1556 -0.8211 -0.9343
   96SAPC  H14X 9482   3.637   1.947   3.916 -1.8085  1.5725  1.4193
   96SAPC  H14Y 9483   3.647   1.768   3.967  0.4598 -0.7542 -1.9742
   96SAPC  C315 9484   3.531   1.903   4.092 -0.3293  0.1307 -0.9465
   96SAPC  H15X 9485   3.454   1.839   4.141  1.0681  0.5372  1.9616
   96SAPC  H15Y 9486   3.485   2.002   4.074 -0.5833 -0.2694 -2.7227
   96SAPC  C316 9487   3.653   1.916   4.195 -0.1399 -0.1149  0.6025
   96SAPC  H16X 9488   3.728   1.975   4.139 -0.7382 -1.0677 -1.2801
   96SAPC  H16Y 9489   3.683   1.809   4.188  0.5574  0.1432 -0.5438
   96SAPC  C317 9490   3.612   1.942   4.336 -0.0635  0.4821  0.4981
   96SAPC  H17X 9491   3.518   2.001   4.326  0.3829  0.9332 -1.2577
   96SAPC  H17Y 9492   3.678   2.015   4.387 -1.0684  2.8329 -1.3654
   96SAPC  C318 9493   3.581   1.823   4.437  0.8829  0.2970  0.2931
   96SAPC  H18X 9494   3.677   1.778   4.471  1.0242  0.2676 -0.1378
   96SAPC  H18Y 9495   3.521   1.740   4.396  0.6636  0.4732  0.2539
   96SAPC  H18Z 9496   3.539   1.864   4.532 -0.1413 -1.1922  0.5176
   97SAPC     N 9497   4.231   1.002   1.906 -0.5255 -0.0844  0.3999
   97SAPC   C12 9498   4.297   1.135   1.877 -0.0153 -0.4406 -0.3183
   97SAPC  H12A 9499   4.334   1.181   1.968 -1.0910 -1.9412  0.9201
   97SAPC  H12B 9500   4.219   1.203   1.845  1.1081  1.8737  1.4897
   97SAPC   C13 9501   4.106   1.008   1.987  0.3281  0.2380 -0.2075
   97SAPC  H13A 9502   4.130   1.045   2.086  1.4487 -0.4693 -0.1985
   97SAPC  H13B 9503   4.016   1.057   1.952 -0.3540 -0.2946  0.7527
   97SAPC  H13C 9504   4.079   0.907   2.012  0.1523 -0.8085 -4.0299
   97SAPC   C14 9505   4.201   0.924   1.783 -0.1212 -0.6276  0.2123
   97SAPC  H14A 9506   4.152   0.989   1.712 -0.9013 -1.1908  0.2168
   97SAPC  H14B 9507   4.287   0.881   1.735  1.2742 -2.5669  3.9720
   97SAPC  H14C 9508   4.133   0.842   1.802 -0.3110 -0.4605  0.2586
   97SAPC   C15 9509   4.320   0.920   1.997 -0.2431  0.4563  0.0457
   97SAPC  H15A 9510   4.411   0.880   1.955  1.0189 -0.3707  3.1970
   97SAPC  H15B 9511   4.354   0.974   2.084 -3.0719 -1.0525  2.2564
   97SAPC  H15C 9512   4.252   0.849   2.042 -1.2745  1.4185  0.0315
   97SAPC   C11 9513   4.436   1.134   1.794  1.0453 -0.5732 -0.3630
   97SAPC  H11A 9514   4.461   1.240   1.773 -0.6225  0.1778  1.2581
   97SAPC  H11B 9515   4.404   1.085   1.699  0.9311 -0.4930 -0.3653
   97SAPC     P 9516   4.657   1.013   1.768  0.1664 -0.1660  0.1656
   97SAPC   O13 9517   4.601   0.907   1.680  0.4400 -0.0293 -0.0189
   97SAPC   O14 9518   4.728   1.129   1.703 -0.5703 -0.0943 -0.4782
   97SAPC   O12 9519   4.542   1.074   1.863 -1.0446 -0.5232  0.4413
   97SAPC   O11 9520   4.754   0.952   1.878  0.1428 -0.5580 -0.0690
   97SAPC    C1 9521   4.813   1.046   1.976 -0.0291 -0.8460  0.1097
   97SAPC    HA 9522   4.921   1.063   1.955 -0.2748  0.8101  0.0193
   97SAPC    HB 9523   4.758   1.142   1.988  1.7335  0.4777 -1.6587
   97SAPC    C2 9524   4.804   0.990   2.117  0.2586  0.1098  0.2158
   97SAPC    HS 9525   4.866   1.063   2.173  0.1007  0.9768 -0.7027
   97SAPC   O21 9526   4.836   0.851   2.134 -0.1947 -0.0141 -0.2496
   97SAPC   C21 9527   4.969   0.831   2.124 -0.0211 -0.2764 -0.0970
   97SAPC   O22 9528   5.056   0.916   2.111  0.5700  0.3440 -1.2140
   97SAPC   C22 9529   4.995   0.686   2.122 -0.4683 -0.1666 -0.1911
   97SAPC   H2R 9530   4.951   0.651   2.027 -0.3946 -1.0002  0.0663
   97SAPC   H2S 9531   5.103   0.666   2.107 -0.5861 -0.7803 -0.2463
   97SAPC    C3 9532   4.656   1.000   2.185  0.2672 -0.7531 -0.2263
   97SAPC    HX 9533   4.586   0.932   2.132  0.1799  1.1926 -2.7624
   97SAPC    HY 9534   4.628   1.106   2.168  1.3451 -0.4868 -0.3979
   97SAPC   O31 9535   4.665   0.970   2.329 -0.4243  0.4146 -0.5671
   97SAPC   C31 9536   4.607   0.864   2.370  0.0073 -0.1262  0.3244
   97SAPC   O32 9537   4.541   0.783   2.306 -0.5063 -0.4910 -0.2699
   97SAPC   C32 9538   4.617   0.861   2.519  0.2415  0.1165 -0.2181
   97SAPC   H2X 9539   4.527   0.914   2.559  0.5102 -0.2540  0.9143
   97SAPC   H2Y 9540   4.713   0.910   2.548  1.4511 -2.5530  0.5389
   97SAPC   C23 9541   4.922   0.609   2.236 -0.3062 -0.0004 -0.1169
   97SAPC   H3R 9542   4.922   0.500   2.215  1.5651 -0.3745  1.5638
   97SAPC   H3S 9543   4.811   0.617   2.234 -0.2474  1.5788  1.0359
   97SAPC   C24 9544   4.990   0.613   2.377 -0.0210 -0.4097 -0.4743
   97SAPC   H4R 9545   5.093   0.574   2.365  0.0002  0.1630 -2.3877
   97SAPC   H4S 9546   4.937   0.538   2.439 -0.4181 -0.6569 -1.1063
   97SAPC   C25 9547   4.990   0.746   2.453 -0.0781 -0.0352  0.0190
   97SAPC   H5R 9548   4.932   0.829   2.412  0.4840  0.4835  0.2608
   97SAPC   C26 9549   5.045   0.768   2.569 -0.2509  0.1707 -0.3591
   97SAPC   H6R 9550   5.023   0.865   2.616 -2.1787 -1.8433  3.3346
   97SAPC   C27 9551   5.137   0.676   2.649 -0.2533 -0.4016 -0.8838
   97SAPC   H7R 9552   5.237   0.721   2.662 -0.4487 -0.6123  1.8759
   97SAPC   H7S 9553   5.146   0.585   2.586 -0.9069 -0.4592 -0.9009
   97SAPC   C28 9554   5.085   0.650   2.790  0.1162 -0.2892  0.0953
   97SAPC   H8R 9555   4.978   0.627   2.806  0.8373 -2.7806  1.9805
   97SAPC   C29 9556   5.161   0.668   2.902 -0.3158  0.5239  0.2741
   97SAPC   H9R 9557   5.114   0.643   2.997 -1.1641 -1.9677 -0.7316
   97SAPC  C210 9558   5.304   0.700   2.912 -0.6529  0.4055  0.1129
   97SAPC  H10R 9559   5.367   0.695   2.820  1.2981 -0.8417  1.4360
   97SAPC  H10S 9560   5.336   0.613   2.973 -0.7503 -0.6866 -1.3460
   97SAPC  C211 9561   5.336   0.833   2.979  0.3654  0.8332  0.4853
   97SAPC  H11R 9562   5.345   0.916   2.908 -1.5454  0.4139 -0.2943
   97SAPC  C212 9563   5.344   0.853   3.113  0.1930  0.5203 -0.4873
   97SAPC  H12R 9564   5.380   0.951   3.148 -0.7847  1.3012 -1.6055
   97SAPC  C213 9565   5.326   0.742   3.213  0.3201  0.2825  0.2299
   97SAPC  H13R 9566   5.422   0.691   3.236  0.9701  1.3520 -0.0380
   97SAPC  H13S 9567   5.262   0.663   3.169 -1.1202  0.9397  1.0740
   97SAPC  C214 9568   5.261   0.794   3.338  0.5151 -0.5983  0.5044
   97SAPC  H14R 9569   5.174   0.858   3.317  0.4958 -1.0593 -0.9079
   97SAPC  C215 9570   5.288   0.763   3.467 -0.0434  0.0112  0.6608
   97SAPC  H15R 9571   5.227   0.809   3.547 -3.6645 -0.5704 -1.5235
   97SAPC  C216 9572   5.388   0.658   3.517  0.6438 -0.5002 -0.0479
   97SAPC  H16R 9573   5.402   0.583   3.437  0.1698 -0.0144 -0.6003
   97SAPC  H16S 9574   5.351   0.601   3.605 -0.3516 -0.8365 -0.6619
   97SAPC  C217 9575   5.524   0.732   3.536 -0.3943  1.0491 -0.8169
   97SAPC  H17R 9576   5.545   0.779   3.437 -2.2702  0.5826 -1.4819
   97SAPC  H17S 9577   5.601   0.655   3.554 -2.1189 -0.6463 -0.3914
   97SAPC  C218 9578   5.530   0.830   3.657 -0.2989 -0.2286 -0.2539
   97SAPC  H18R 9579   5.454   0.911   3.655 -1.8084 -1.4293  2.5736
   97SAPC  H18S 9580   5.631   0.875   3.646  0.0887 -1.0795 -0.1752
   97SAPC  C219 9581   5.520   0.768   3.793  0.5460  0.3190  0.2502
   97SAPC  H19R 9582   5.564   0.665   3.797  0.2230  0.1090 -1.0260
   97SAPC  H19S 9583   5.412   0.754   3.813  1.0014 -3.4870  0.9530
   97SAPC  C220 9584   5.579   0.849   3.905 -0.0727  0.3221 -0.3649
   97SAPC  H20R 9585   5.686   0.868   3.881 -0.0765 -0.9771 -1.5473
   97SAPC  H20S 9586   5.584   0.788   3.998  0.7714  0.5949 -0.2260
   97SAPC  H20T 9587   5.526   0.942   3.935  1.9711  0.9119  1.7719
   97SAPC   C33 9588   4.615   0.716   2.572 -0.9788  0.2566  1.1302
   97SAPC   H3X 9589   4.717   0.679   2.548 -1.1659  1.6785 -2.4453
   97SAPC   H3Y 9590   4.545   0.652   2.515  0.3128 -0.6500  0.5105
   97SAPC   C34 9591   4.586   0.706   2.723  0.2940 -0.7767  0.1934
   97SAPC   H4X 9592   4.572   0.597   2.739  1.9734 -0.9999  0.2774
   97SAPC   H4Y 9593   4.491   0.762   2.737  0.7933  0.3625 -0.8067
   97SAPC   C35 9594   4.694   0.770   2.810  0.3578  0.1448  0.6103
   97SAPC   H5X 9595   4.697   0.881   2.799 -1.1112  0.1384  0.0085
   97SAPC   H5Y 9596   4.792   0.740   2.765  0.2177  1.4600 -0.6490
   97SAPC   C36 9597   4.662   0.743   2.956  0.3585 -0.4714  0.6228
   97SAPC   H6X 9598   4.648   0.633   2.968  1.4913 -0.4130  3.3386
   97SAPC   H6Y 9599   4.562   0.790   2.964  0.0525 -0.7256 -1.2275
   97SAPC   C37 9600   4.752   0.804   3.065 -0.7300 -0.0944 -0.4913
   97SAPC   H7X 9601   4.747   0.913   3.045 -1.7028 -0.1376 -0.5224
   97SAPC   H7Y 9602   4.852   0.756   3.072 -0.6255  0.3010  1.1016
   97SAPC   C38 9603   4.693   0.772   3.203 -0.1105 -0.7261  0.3929
   97SAPC   H8X 9604   4.680   0.663   3.217 -0.4103 -0.5740  1.4174
   97SAPC   H8Y 9605   4.592   0.816   3.218 -0.4618 -0.8857 -1.3728
   97SAPC   C39 9606   4.791   0.824   3.311  0.1473 -0.0459  0.0771
   97SAPC   H9X 9607   4.833   0.924   3.286 -1.7210  0.5607 -0.8143
   97SAPC   H9Y 9608   4.881   0.760   3.323  0.8689  0.5169 -1.9515
   97SAPC  C310 9609   4.717   0.850   3.440 -0.0702  0.6488 -1.2063
   97SAPC  H10X 9610   4.676   0.749   3.464 -1.3764  1.4926  0.3194
   97SAPC  H10Y 9611   4.635   0.923   3.425  0.5359  1.6567  0.1262
   97SAPC  C311 9612   4.797   0.900   3.572 -0.3121 -0.3197 -0.4682
   97SAPC  H11X 9613   4.789   1.010   3.580  1.2207 -0.3099  1.6160
   97SAPC  H11Y 9614   4.902   0.863   3.568 -0.7184 -1.6066  0.0124
   97SAPC  C312 9615   4.733   0.854   3.706 -0.1583 -0.3038 -0.5141
   97SAPC  H12X 9616   4.624   0.873   3.699 -0.0737  0.4878  0.1390
   97SAPC  H12Y 9617   4.798   0.903   3.782  1.1285  0.1211 -1.8435
   97SAPC  C313 9618   4.753   0.707   3.730 -0.0721  0.1981 -0.6114
   97SAPC  H13X 9619   4.847   0.677   3.678 -0.4845  0.5841 -1.6005
   97SAPC  H13Y 9620   4.670   0.647   3.686 -0.6103  1.3006 -1.1409
   97SAPC  C314 9621   4.761   0.663   3.887 -0.5903 -0.3609 -0.0561
   97SAPC  H14X 9622   4.697   0.723   3.956 -0.1404  0.0205  0.0354
   97SAPC  H14Y 9623   4.864   0.685   3.921 -1.1386  0.0006  1.4535
   97SAPC  C315 9624   4.731   0.510   3.913  0.4722  0.3812 -0.9213
   97SAPC  H15X 9625   4.802   0.452   3.850 -1.0876 -0.7605 -1.7114
   97SAPC  H15Y 9626   4.624   0.486   3.894 -0.2210  0.6876  2.0733
   97SAPC  C316 9627   4.751   0.480   4.060 -0.0053  0.0357 -0.6752
   97SAPC  H16X 9628   4.670   0.524   4.121  2.3136  3.3368  0.2855
   97SAPC  H16Y 9629   4.843   0.525   4.103  0.7233 -3.5434  1.9918
   97SAPC  C317 9630   4.751   0.328   4.087 -0.5742 -0.5297 -0.2318
   97SAPC  H17X 9631   4.810   0.272   4.012 -0.9607 -1.7471  0.3365
   97SAPC  H17Y 9632   4.654   0.276   4.072 -1.3904  1.0668 -0.6621
   97SAPC  C318 9633   4.808   0.288   4.223  0.0630 -0.8005 -0.1039
   97SAPC  H18X 9634   4.806   0.177   4.222  0.0351 -0.8090  0.3382
   97SAPC  H18Y 9635   4.748   0.311   4.314 -1.3420  1.3066 -1.4699
   97SAPC  H18Z 9636   4.910   0.327   4.240 -0.4895  0.3963  0.5991
   98SAPC     N 9637   0.029   2.496   2.398 -0.2420  0.1753  0.2730
   98SAPC   C12 9638   0.040   2.566   2.533 -0.0375 -0.0582 -0.4095
   98SAPC  H12A 9639  -0.060   2.583   2.568 -0.7057 -3.5007 -0.3597
   98SAPC  H12B 9640   0.090   2.662   2.526  0.7074 -0.2993  1.1869
   98SAPC   C13 9641  -0.005   2.353   2.413  0.1408  0.8047 -0.0061
   98SAPC  H13A 9642   0.060   2.317   2.492 -1.8796  0.9424  1.8229
   98SAPC  H13B 9643  -0.110   2.342   2.435 -0.4718  1.5806 -2.2467
   98SAPC  H13C 9644   0.012   2.300   2.321  1.1526  2.1248 -0.6201
   98SAPC   C14 9645  -0.077   2.566   2.321 -0.5520  0.0250  0.3777
   98SAPC  H14A 9646  -0.095   2.510   2.230  0.2292  0.8211 -0.2857
   98SAPC  H14B 9647  -0.167   2.574   2.380 -0.8950 -1.8589  0.1834
   98SAPC  H14C 9648  -0.040   2.665   2.299  3.5393 -0.3967  3.9715
   98SAPC   C15 9649   0.155   2.508   2.328  0.0756  0.3347  0.1641
   98SAPC  H15A 9650   0.213   2.598   2.345 -1.9054  1.4402  1.5235
   98SAPC  H15B 9651   0.215   2.421   2.349 -3.2029 -1.7510  1.5621
   98SAPC  H15C 9652   0.136   2.495   2.222  1.9368 -3.8303  0.1670
   98SAPC   C11 9653   0.112   2.503   2.650 -0.8941 -0.1705  0.1774
   98SAPC  H11A 9654   0.051   2.416   2.682 -1.2690 -1.0671 -2.7300
   98SAPC  H11B 9655   0.102   2.561   2.744 -1.7591  0.0479 -0.0408
   98SAPC     P 9656   0.383   2.532   2.637 -0.6597 -0.4126 -0.0772
   98SAPC   O13 9657   0.478   2.443   2.706  0.3588  0.4596 -0.6324
   98SAPC   O14 9658   0.421   2.591   2.508  0.1468  0.7427  0.0073
   98SAPC   O12 9659   0.245   2.456   2.618 -0.1837  0.5973  0.2430
   98SAPC   O11 9660   0.360   2.660   2.731  0.5254  0.4283 -0.7985
   98SAPC    C1 9661   0.353   2.647   2.875  0.5348  0.2945 -0.4129
   98SAPC    HA 9662   0.285   2.567   2.913  1.4506  0.1588  0.9921
   98SAPC    HB 9663   0.447   2.613   2.922  0.1653  0.5788  0.5556
   98SAPC    C2 9664   0.303   2.779   2.938 -0.0324 -0.3271  0.2859
   98SAPC    HS 9665   0.199   2.802   2.908  0.6005  0.7468 -1.1864
   98SAPC   O21 9666   0.398   2.870   2.884  0.5745 -0.0064 -0.2953
   98SAPC   C21 9667   0.365   3.001   2.882  0.0136  0.3135  0.1193
   98SAPC   O22 9668   0.262   3.044   2.932 -0.4583  0.0505  0.8411
   98SAPC   C22 9669   0.490   3.080   2.841 -0.2864 -0.0619 -0.4006
   98SAPC   H2R 9670   0.549   3.100   2.933  2.2231 -0.3273 -1.8401
   98SAPC   H2S 9671   0.547   3.024   2.764 -0.3322 -1.9222  0.8483
   98SAPC    C3 9672   0.321   2.788   3.094 -0.4828 -0.2551 -0.1391
   98SAPC    HX 9673   0.274   2.886   3.117 -0.6359 -0.1054 -1.0601
   98SAPC    HY 9674   0.431   2.788   3.108 -0.6983  1.5839  2.2049
   98SAPC   O31 9675   0.250   2.679   3.162 -0.0743  0.3888 -0.4137
   98SAPC   C31 9676   0.216   2.718   3.289  0.4231  0.4458  0.2607
   98SAPC   O32 9677   0.245   2.823   3.336  0.0290  1.0250 -0.2630
   98SAPC   C32 9678   0.129   2.610   3.353 -0.0495  0.0591 -0.7747
   98SAPC   H2X 9679   0.192   2.519   3.350  0.4657  0.4342 -1.5607
   98SAPC   H2Y 9680   0.040   2.594   3.288 -1.4700 -0.9577  1.3056
   98SAPC   C23 9681   0.455   3.220   2.781  0.3137 -0.6735 -0.1208
   98SAPC   H3R 9682   0.388   3.260   2.860  1.5693 -1.6508  1.5303
   98SAPC   H3S 9683   0.406   3.211   2.682 -1.6128 -2.6440  0.9145
   98SAPC   C24 9684   0.586   3.305   2.789 -0.0696  0.3732  0.4257
   98SAPC   H4R 9685   0.600   3.313   2.899  0.8262 -1.6941  0.5007
   98SAPC   H4S 9686   0.572   3.410   2.753  1.6159  0.3425 -0.4228
   98SAPC   C25 9687   0.697   3.249   2.710  0.2248 -0.1546 -0.2071
   98SAPC   H5R 9688   0.687   3.272   2.603  0.1615  1.7876  0.1737
   98SAPC   C26 9689   0.801   3.179   2.754 -0.1897 -0.7611  0.8864
   98SAPC   H6R 9690   0.876   3.143   2.681  0.0300  0.9843  0.2113
   98SAPC   C27 9691   0.819   3.142   2.898  0.0406  0.0399  0.2521
   98SAPC   H7R 9692   0.746   3.062   2.922 -0.2393  0.1235 -0.3281
   98SAPC   H7S 9693   0.778   3.218   2.968  0.8068  0.3773  0.3427
   98SAPC   C28 9694   0.964   3.112   2.930  0.4683 -0.0385 -0.4899
   98SAPC   H8R 9695   1.028   3.131   2.842 -0.5262 -2.1806 -1.7308
   98SAPC   C29 9696   1.003   3.074   3.047 -0.4838 -0.6828 -0.1278
   98SAPC   H9R 9697   1.110   3.052   3.061 -0.3120 -0.2840 -0.7999
   98SAPC  C210 9698   0.920   3.047   3.170  0.1264  0.1568  0.7590
   98SAPC  H10R 9699   0.820   3.013   3.135  0.6934 -0.9619  0.1956
   98SAPC  H10S 9700   0.903   3.146   3.218 -3.1972 -0.2592  0.6919
   98SAPC  C211 9701   0.988   2.940   3.252  0.3084 -0.4275 -0.0641
   98SAPC  H11R 9702   1.019   2.850   3.197  2.1789 -1.3013  2.2431
   98SAPC  C212 9703   0.985   2.946   3.390  0.2252 -0.1437  0.7483
   98SAPC  H12R 9704   1.048   2.871   3.439  3.8870  0.8509 -1.9506
   98SAPC  C213 9705   0.935   3.058   3.482 -0.4594  0.0072  0.0833
   98SAPC  H13R 9706   0.833   3.093   3.455  0.1176  0.6124 -1.3833
   98SAPC  H13S 9707   1.006   3.142   3.468 -0.8129 -0.1041 -3.0825
   98SAPC  C214 9708   0.922   3.018   3.634  0.4204  0.2507 -1.0918
   98SAPC  H14R 9709   0.859   2.929   3.651 -0.9316  1.1398 -1.3211
   98SAPC  C215 9710   0.976   3.069   3.745 -0.3267  0.6209  0.0567
   98SAPC  H15R 9711   0.961   3.021   3.843 -0.9389 -1.9316 -1.1800
   98SAPC  C216 9712   1.064   3.190   3.752  0.5165  0.4276  0.1440
   98SAPC  H16R 9713   1.003   3.274   3.791  0.3898  0.2831  0.2585
   98SAPC  H16S 9714   1.098   3.212   3.648  3.5090 -1.6431  0.5851
   98SAPC  C217 9715   1.191   3.175   3.842 -0.2861  0.1420  0.8241
   98SAPC  H17R 9716   1.242   3.274   3.839 -0.2267  0.2248  2.7906
   98SAPC  H17S 9717   1.251   3.095   3.794 -2.6346 -2.3986  1.8465
   98SAPC  C218 9718   1.176   3.145   3.990 -0.0056 -0.3765  0.6503
   98SAPC  H18R 9719   1.110   3.059   4.016 -1.2820  0.4745  0.3373
   98SAPC  H18S 9720   1.131   3.237   4.034  2.1814  1.4956 -0.8402
   98SAPC  C219 9721   1.323   3.124   4.048  0.3649 -0.0766 -0.1788
   98SAPC  H19R 9722   1.386   3.214   4.033  0.2103 -0.2066 -1.7142
   98SAPC  H19S 9723   1.376   3.038   4.003  1.9056  0.3534  0.7335
   98SAPC  C220 9724   1.324   3.088   4.200 -0.3268 -0.0120 -0.0593
   98SAPC  H20R 9725   1.405   3.017   4.224 -0.2945  0.1833  0.4195
   98SAPC  H20S 9726   1.232   3.032   4.229  0.4430  0.2606  3.1742
   98SAPC  H20T 9727   1.323   3.180   4.262  0.8394 -0.2333  0.3060
   98SAPC   C33 9728   0.071   2.633   3.491 -0.1010  0.2499 -0.7929
   98SAPC   H3X 9729  -0.001   2.548   3.499 -1.6009  1.3667 -1.7950
   98SAPC   H3Y 9730   0.003   2.721   3.488 -0.9314 -0.3879 -1.1236
   98SAPC   C34 9731   0.166   2.620   3.608 -0.1291 -0.5410  0.3501
   98SAPC   H4X 9732   0.235   2.706   3.598 -1.6755  0.6935 -0.1888
   98SAPC   H4Y 9733   0.223   2.525   3.599  1.4668  0.4833 -1.0984
   98SAPC   C35 9734   0.090   2.632   3.740 -0.1178  0.2311 -0.5575
   98SAPC   H5X 9735   0.024   2.543   3.740  1.9869 -1.4131 -0.1245
   98SAPC   H5Y 9736   0.035   2.727   3.757  1.9280  1.1167  1.7039
   98SAPC   C36 9737   0.200   2.630   3.841 -0.2445  0.4481 -0.0228
   98SAPC   H6X 9738   0.251   2.728   3.844  0.8631 -0.1278  1.1338
   98SAPC   H6Y 9739   0.282   2.557   3.822 -0.9341 -1.0110  2.2082
   98SAPC   C37 9740   0.131   2.580   3.964  0.3337 -0.0224  0.8739
   98SAPC   H7X 9741   0.114   2.470   3.969 -1.3969  0.0881 -1.2392
   98SAPC   H7Y 9742   0.034   2.633   3.973  1.3572  2.6077 -1.8254
   98SAPC   C38 9743   0.200   2.596   4.099 -0.4116 -0.9489  0.1564
   98SAPC   H8X 9744   0.194   2.703   4.130  2.7530 -0.2199 -1.2547
   98SAPC   H8Y 9745   0.308   2.585   4.075 -0.7568 -4.2149 -0.2685
   98SAPC   C39 9746   0.147   2.505   4.206  0.3566  0.3978 -0.9741
   98SAPC   H9X 9747   0.131   2.402   4.167  1.0009  1.1155 -3.2909
   98SAPC   H9Y 9748   0.048   2.542   4.239  0.2589 -1.0935  0.5275
   98SAPC  C310 9749   0.244   2.496   4.332 -0.5712  0.1246  0.2382
   98SAPC  H10X 9750   0.280   2.596   4.361 -0.0478  0.6128 -1.9344
   98SAPC  H10Y 9751   0.340   2.448   4.302 -0.5624 -0.4999  1.2078
   98SAPC  C311 9752   0.186   2.419   4.453  0.6846  0.3407  0.5088
   98SAPC  H11X 9753   0.178   2.313   4.420  2.1622  0.0952  0.8445
   98SAPC  H11Y 9754   0.090   2.447   4.502 -0.9519 -1.7032 -1.3511
   98SAPC  C312 9755   0.295   2.405   4.566 -0.3911 -0.1718 -0.0579
   98SAPC  H12X 9756   0.387   2.353   4.530 -0.7685 -0.4816 -0.5855
   98SAPC  H12Y 9757   0.263   2.331   4.642 -0.7386  0.9922  0.9643
   98SAPC  C313 9758   0.325   2.533   4.646 -0.0325 -0.0827  0.5649
   98SAPC  H13X 9759   0.231   2.569   4.694  0.6830  0.2000  1.8166
   98SAPC  H13Y 9760   0.359   2.618   4.583  1.7322  1.0179  2.8432
   98SAPC  C314 9761   0.420   2.498   4.766  0.2022  0.2074  0.3097
   98SAPC  H14X 9762   0.383   2.406   4.816 -1.4400  0.5830 -0.1367
   98SAPC  H14Y 9763   0.415   2.585   4.835  1.3543  2.4679 -2.2489
   98SAPC  C315 9764   0.570   2.494   4.741 -0.4644  0.0083 -0.2961
   98SAPC  H15X 9765   0.597   2.576   4.672  0.0413 -0.6854 -0.9332
   98SAPC  H15Y 9766   0.597   2.407   4.678  2.2857  0.2479  0.4086
   98SAPC  C316 9767   0.656   2.489   4.879 -0.1100  0.0577  1.3119
   98SAPC  H16X 9768   0.610   2.419   4.951  1.8186 -1.8979  0.7503
   98SAPC  H16Y 9769   0.661   2.592   4.919  2.0742  0.9708 -0.9759
   98SAPC  C317 9770   0.801   2.450   4.847  0.0165  0.0905  0.7164
   98SAPC  H17X 9771   0.823   2.491   4.746  2.3843 -1.5774  0.4828
   98SAPC  H17Y 9772   0.797   2.339   4.839 -2.9429 -0.3503  4.8795
   98SAPC  C318 9773   0.898   2.497   4.952 -0.4445 -0.5603 -0.0960
   98SAPC  H18X 9774   0.876   2.601   4.983  0.2488 -0.2683 -0.5562
   98SAPC  H18Y 9775   0.995   2.497   4.898 -1.2083 -0.5305 -1.5289
   98SAPC  H18Z 9776   0.905   2.432   5.042 -2.3107 -0.7216 -0.0294
   99SAPC     N 9777   0.000   6.270   1.956 -0.0750  0.9361 -0.1545
   99SAPC   C12 9778  -0.135   6.285   2.009 -0.2584 -0.6408 -0.2237
   99SAPC  H12A 9779  -0.209   6.250   1.939  0.3819 -0.8096 -0.8199
   99SAPC  H12B 9780  -0.165   6.389   2.019  0.3937 -0.5487  0.9732
   99SAPC   C13 9781   0.021   6.353   1.833  1.0992 -0.0522  0.4348
   99SAPC  H13A 9782   0.007   6.457   1.858 -3.6516 -0.3384 -0.0128
   99SAPC  H13B 9783   0.122   6.341   1.795  1.7137 -1.5145  2.4052
   99SAPC  H13C 9784  -0.054   6.320   1.762  0.3051  0.8265  0.8424
   99SAPC   C14 9785   0.104   6.301   2.057 -0.0126  0.3830  0.5761
   99SAPC  H14A 9786   0.202   6.259   2.041 -0.1969 -0.0512  0.5597
   99SAPC  H14B 9787   0.114   6.408   2.059  0.2536  0.4571 -2.1069
   99SAPC  H14C 9788   0.071   6.272   2.156 -0.4198  1.3953  0.7425
   99SAPC   C15 9789   0.005   6.124   1.917  0.4094 -0.0290  0.2109
   99SAPC  H15A 9790  -0.030   6.061   1.997  0.9910 -1.0512 -0.3205
   99SAPC  H15B 9791  -0.065   6.111   1.837  0.1342 -0.6728  0.5493
   99SAPC  H15C 9792   0.102   6.083   1.895 -0.0059 -0.9380  0.0292
   99SAPC   C11 9793  -0.160   6.238   2.156  0.2135 -0.0811 -0.0315
   99SAPC  H11A 9794  -0.259   6.274   2.190  0.3456 -1.7541  2.3563
   99SAPC  H11B 9795  -0.096   6.278   2.238 -0.6778 -0.3943  0.8340
   99SAPC     P 9796  -0.063   6.014   2.251 -0.3802 -0.3723  0.1678
   99SAPC   O13 9797  -0.000   5.920   2.162  0.1193 -0.6007  0.1877
   99SAPC   O14 9798   0.028   6.113   2.322 -0.0583  0.5532 -0.1856
   99SAPC   O12 9799  -0.160   6.098   2.158 -0.2213  0.0408  0.5725
   99SAPC   O11 9800  -0.154   5.947   2.362 -0.1069  0.0113 -0.0944
   99SAPC    C1 9801  -0.291   5.942   2.332  0.8530 -0.2600  0.4551
   99SAPC    HA 9802  -0.333   6.044   2.348  0.3984 -0.2356 -0.7914
   99SAPC    HB 9803  -0.308   5.916   2.225  1.9898 -1.4741  0.5488
   99SAPC    C2 9804  -0.374   5.834   2.420  0.0756 -0.1117  0.1747
   99SAPC    HS 9805  -0.485   5.838   2.423 -0.0073 -1.5812 -0.1813
   99SAPC   O21 9806  -0.326   5.831   2.554  0.0447 -0.9885 -0.6170
   99SAPC   C21 9807  -0.327   5.947   2.614  0.0448  0.5933 -0.3635
   99SAPC   O22 9808  -0.398   6.041   2.588 -0.2126 -0.0515  0.4812
   99SAPC   C22 9809  -0.212   5.952   2.717  0.3600  0.0318  0.5214
   99SAPC   H2R 9810  -0.253   5.988   2.814 -3.2958  2.2819 -1.6164
   99SAPC   H2S 9811  -0.154   5.858   2.728 -0.6758 -0.4351  2.4664
   99SAPC    C3 9812  -0.351   5.696   2.353  1.0785 -0.0586 -0.3619
   99SAPC    HX 9813  -0.246   5.666   2.334  0.8898 -0.6421 -0.5137
   99SAPC    HY 9814  -0.382   5.698   2.246  1.3158  0.1486 -0.4259
   99SAPC   O31 9815  -0.433   5.593   2.413 -0.6301 -0.7738 -0.1776
   99SAPC   C31 9816  -0.356   5.533   2.511 -0.2874  0.3092  0.0828
   99SAPC   O32 9817  -0.236   5.557   2.529 -0.3958 -0.4014  0.9159
   99SAPC   C32 9818  -0.441   5.455   2.605 -0.0456  0.1185  0.7257
   99SAPC   H2X 9819  -0.379   5.402   2.681  0.2739 -1.5826 -0.6690
   99SAPC   H2Y 9820  -0.498   5.379   2.548 -2.9490  2.3785  0.3669
   99SAPC   C23 9821  -0.115   6.063   2.661  0.2341 -0.0201 -0.2102
   99SAPC   H3R 9822  -0.168   6.148   2.613  1.1167  1.3112  1.0718
   99SAPC   H3S 9823  -0.063   6.010   2.579 -0.7756 -0.8663 -0.3278
   99SAPC   C24 9824  -0.022   6.121   2.763  0.6970  0.3532 -0.6022
   99SAPC   H4R 9825  -0.084   6.166   2.844  1.2350 -1.4128  0.8491
   99SAPC   H4S 9826   0.038   6.205   2.721  2.5435 -0.6125  0.0087
   99SAPC   C25 9827   0.074   6.018   2.814 -0.6083  0.1407 -0.0798
   99SAPC   H5R 9828   0.092   5.938   2.740 -2.5824 -0.5892  0.1543
   99SAPC   C26 9829   0.135   6.004   2.933 -0.1681  0.6355  0.7086
   99SAPC   H6R 9830   0.205   5.920   2.942  0.3656  1.1443  1.3515
   99SAPC   C27 9831   0.126   6.092   3.054 -0.5509 -0.2099 -0.7236
   99SAPC   H7R 9832   0.047   6.167   3.031 -2.1684 -1.1736  1.3374
   99SAPC   H7S 9833   0.221   6.147   3.071  0.4661 -2.5872  1.9421
   99SAPC   C28 9834   0.090   6.018   3.185 -0.2298 -0.4678  0.1607
   99SAPC   H8R 9835   0.085   5.910   3.164 -1.6735 -0.1900 -1.0667
   99SAPC   C29 9836   0.058   6.076   3.303  0.4438  0.7683  0.6680
   99SAPC   H9R 9837   0.069   6.009   3.389  2.5118  0.9536  0.6165
   99SAPC  C210 9838   0.039   6.223   3.328 -0.2146  0.4593 -0.0100
   99SAPC  H10R 9839  -0.042   6.256   3.259  0.1015  2.4162  0.4770
   99SAPC  H10S 9840   0.131   6.281   3.305  0.1903  1.1059  2.8570
   99SAPC  C211 9841  -0.001   6.253   3.469  0.2087 -0.0628  0.6357
   99SAPC  H11R 9842   0.065   6.213   3.547 -2.1829 -1.9999  1.8027
   99SAPC  C212 9843  -0.102   6.325   3.512  0.3200  0.0172  0.6796
   99SAPC  H12R 9844  -0.121   6.333   3.620  2.1112 -1.2614  1.1459
   99SAPC  C213 9845  -0.207   6.376   3.423  0.5164 -0.0152  0.3634
   99SAPC  H13R 9846  -0.310   6.366   3.464  0.4324  0.4578  0.2744
   99SAPC  H13S 9847  -0.211   6.318   3.329 -0.4257 -0.7151  0.8140
   99SAPC  C214 9848  -0.174   6.518   3.387  0.3788 -0.2237  0.3977
   99SAPC  H14R 9849  -0.113   6.569   3.464  0.1060  1.3059 -0.3706
   99SAPC  C215 9850  -0.202   6.578   3.266 -0.8533 -0.0790 -0.7741
   99SAPC  H15R 9851  -0.175   6.682   3.245 -2.2290 -0.0238 -2.4968
   99SAPC  C216 9852  -0.282   6.521   3.154  0.1223 -0.9840 -0.3902
   99SAPC  H16R 9853  -0.373   6.582   3.138 -1.5558 -2.6404  1.9903
   99SAPC  H16S 9854  -0.329   6.427   3.189  1.2045 -0.5162  2.6314
   99SAPC  C217 9855  -0.209   6.502   3.026 -0.4304 -0.2039  0.7510
   99SAPC  H17R 9856  -0.123   6.434   3.043  0.3245  0.3540 -0.6872
   99SAPC  H17S 9857  -0.164   6.591   2.977  0.3264  0.7267  3.0076
   99SAPC  C218 9858  -0.297   6.437   2.922  0.3617 -0.2706 -0.0793
   99SAPC  H18R 9859  -0.364   6.364   2.972  0.2435 -0.7790 -0.9634
   99SAPC  H18S 9860  -0.228   6.384   2.853 -0.3115 -0.7239 -0.4064
   99SAPC  C219 9861  -0.386   6.534   2.834  0.0588  0.0489  0.4283
   99SAPC  H19R 9862  -0.336   6.633   2.836  2.7627 -1.2321  2.1201
   99SAPC  H19S 9863  -0.484   6.549   2.886  0.6653  0.6214  1.4309
   99SAPC  C220 9864  -0.407   6.483   2.692  0.2540  0.1294  0.0495
   99SAPC  H20R 9865  -0.453   6.382   2.693  0.1173  0.1642  2.2872
   99SAPC  H20S 9866  -0.317   6.473   2.629 -0.6505  1.0075 -1.4319
   99SAPC  H20T 9867  -0.473   6.549   2.632  0.3559  0.4808  0.3157
   99SAPC   C33 9868  -0.547   5.552   2.667  0.5466  0.7861  0.2652
   99SAPC   H3X 9869  -0.636   5.489   2.689  0.4283  0.7640 -0.2609
   99SAPC   H3Y 9870  -0.585   5.628   2.595 -0.9615 -0.3034 -0.1456
   99SAPC   C34 9871  -0.495   5.626   2.791 -0.4161  0.3062  0.0989
   99SAPC   H4X 9872  -0.402   5.674   2.753 -0.5305 -0.4486 -1.2122
   99SAPC   H4Y 9873  -0.464   5.556   2.871  2.1153  1.5567  0.3089
   99SAPC   C35 9874  -0.603   5.718   2.842 -0.6438 -0.2786  0.4807
   99SAPC   H5X 9875  -0.667   5.670   2.920  0.9524 -0.7613  1.5392
   99SAPC   H5Y 9876  -0.667   5.763   2.763  0.3925 -0.9493 -0.7839
   99SAPC   C36 9877  -0.539   5.838   2.912  0.4661 -0.7896  0.0764
   99SAPC   H6X 9878  -0.613   5.917   2.936  1.5222 -0.3949  2.3183
   99SAPC   H6Y 9879  -0.467   5.892   2.846 -1.5879  1.1739 -0.6984
   99SAPC   C37 9880  -0.471   5.805   3.049  0.6146 -0.0128 -0.5177
   99SAPC   H7X 9881  -0.374   5.754   3.030  1.3057 -0.0801  2.6189
   99SAPC   H7Y 9882  -0.536   5.742   3.113  0.9897  2.7232  2.8451
   99SAPC   C38 9883  -0.436   5.936   3.119 -0.4549 -0.2140  0.7927
   99SAPC   H8X 9884  -0.525   5.998   3.093 -1.5914 -2.1524 -0.1242
   99SAPC   H8Y 9885  -0.336   5.971   3.084  0.7676 -1.8175  2.5029
   99SAPC   C39 9886  -0.439   5.919   3.266 -0.2948  0.3647  0.1072
   99SAPC   H9X 9887  -0.352   5.870   3.317 -1.4380 -0.2556  1.5384
   99SAPC   H9Y 9888  -0.519   5.845   3.288 -0.0501 -0.6490 -2.1655
   99SAPC  C310 9889  -0.451   6.055   3.335 -0.2001 -0.1800  0.0525
   99SAPC  H10X 9890  -0.557   6.078   3.357  0.0604  1.2306 -0.0694
   99SAPC  H10Y 9891  -0.404   6.140   3.282  4.1297 -2.0637  0.4532
   99SAPC  C311 9892  -0.379   6.056   3.476  0.4075  0.6442  0.2501
   99SAPC  H11X 9893  -0.394   6.157   3.520  0.0160 -0.4276  2.7116
   99SAPC  H11Y 9894  -0.271   6.039   3.458  0.2272 -0.3546  0.0245
   99SAPC  C312 9895  -0.439   5.956   3.582 -0.2285  0.3660  0.6689
   99SAPC  H12X 9896  -0.442   5.852   3.541  2.9257  0.0537  1.0103
   99SAPC  H12Y 9897  -0.540   5.988   3.616 -1.3556 -0.6199 -1.5090
   99SAPC  C313 9898  -0.343   5.944   3.704 -0.2390 -0.6452  0.2886
   99SAPC  H13X 9899  -0.308   6.046   3.730 -1.0088 -0.1935 -0.4104
   99SAPC  H13Y 9900  -0.253   5.885   3.674 -0.8806 -0.8373 -1.3661
   99SAPC  C314 9901  -0.414   5.885   3.826  0.3190 -0.0326 -0.0377
   99SAPC  H14X 9902  -0.406   5.775   3.814  1.9039 -0.0360  0.8007
   99SAPC  H14Y 9903  -0.522   5.913   3.821  0.0913 -0.8124  0.2647
   99SAPC  C315 9904  -0.365   5.933   3.964  0.5823 -0.2430 -0.4312
   99SAPC  H15X 9905  -0.403   6.037   3.973 -1.1237 -0.7151 -1.6005
   99SAPC  H15Y 9906  -0.254   5.940   3.963  0.5390  3.0879  2.0033
   99SAPC  C316 9907  -0.419   5.863   4.088  0.1328  0.3881  0.4787
   99SAPC  H16X 9908  -0.408   5.753   4.084 -1.2326  0.2644 -2.1171
   99SAPC  H16Y 9909  -0.529   5.870   4.071  0.3110 -0.3809 -1.1660
   99SAPC  C317 9910  -0.382   5.923   4.226  0.0931 -0.1927 -0.4233
   99SAPC  H17X 9911  -0.416   6.029   4.222  0.6335  0.0584  1.0633
   99SAPC  H17Y 9912  -0.271   5.931   4.231  0.2991 -0.9061 -2.7322
   99SAPC  C318 9913  -0.434   5.849   4.342 -0.9495 -0.7357  0.1963
   99SAPC  H18X 9914  -0.544   5.842   4.342 -0.9848 -0.2336  0.0829
   99SAPC  H18Y 9915  -0.402   5.906   4.432 -3.4289  0.9064  0.1360
   99SAPC  H18Z 9916  -0.381   5.751   4.349 -1.3096 -0.8308  2.0509
  100SAPC     N 9917   3.706   5.546   2.146 -0.1306  0.1373  0.6061
  100SAPC   C12 9918   3.676   5.396   2.159  0.1721 -0.5890  0.2073
  100SAPC  H12A 9919   3.575   5.381   2.193  0.2056 -0.0360  0.5684
  100SAPC  H12B 9920   3.736   5.352   2.238  0.7770  0.8117  0.5691
  100SAPC   C13 9921   3.669   5.613   2.277 -0.5729  0.0443 -0.2218
  100SAPC  H13A 9922   3.563   5.608   2.299 -0.9034  2.5266 -0.8961
  100SAPC  H13B 9923   3.716   5.567   2.363 -0.1869  1.0269  0.1004
  100SAPC  H13C 9924   3.702   5.715   2.283 -1.2541  0.2835 -0.3850
  100SAPC   C14 9925   3.848   5.563   2.122 -0.1335  0.7079 -0.2093
  100SAPC  H14A 9926   3.865   5.548   2.016 -2.0403  2.3385 -0.8145
  100SAPC  H14B 9927   3.877   5.665   2.145  0.9156  0.3736  0.0061
  100SAPC  H14C 9928   3.912   5.498   2.179  0.6784  1.1354 -0.6170
  100SAPC   C15 9929   3.629   5.611   2.032  0.4938 -0.0472 -0.4653
  100SAPC  H15A 9930   3.526   5.579   2.041  0.3601  0.2250 -0.9769
  100SAPC  H15B 9931   3.623   5.717   2.050 -4.2933 -0.0895 -0.5053
  100SAPC  H15C 9932   3.674   5.586   1.937 -0.5071 -0.6871 -0.7982
  100SAPC   C11 9933   3.715   5.308   2.037  0.3263  0.5712  0.2305
  100SAPC  H11A 9934   3.682   5.363   1.946  1.4585  0.5736 -0.1999
  100SAPC  H11B 9935   3.658   5.213   2.048 -1.4678  1.6207  0.3727
  100SAPC     P 9936   3.932   5.196   2.117  0.2651  0.1198 -0.1227
  100SAPC   O13 9937   3.876   5.061   2.116 -0.1237  0.0703  0.0834
  100SAPC   O14 9938   4.070   5.209   2.071  0.3017  0.1046  0.0232
  100SAPC   O12 9939   3.855   5.295   2.020 -0.0702  0.2459 -0.6139
  100SAPC   O11 9940   3.907   5.255   2.260  0.2339 -0.3185 -0.0722
  100SAPC    C1 9941   3.981   5.203   2.368 -0.7614 -0.7593  0.1254
  100SAPC    HA 9942   3.939   5.104   2.396 -2.8931  0.3152  1.0100
  100SAPC    HB 9943   4.087   5.183   2.342 -0.8382 -0.6581 -0.2655
  100SAPC    C2 9944   3.974   5.297   2.493  0.6403 -0.5318 -0.5305
  100SAPC    HS 9945   4.043   5.267   2.574  0.7758  2.3938  0.5626
  100SAPC   O21 9946   3.838   5.318   2.528 -0.1116 -0.1998 -0.4424
  100SAPC   C21 9947   3.762   5.216   2.566  0.1391 -0.0470  0.3554
  100SAPC   O22 9948   3.805   5.112   2.606 -0.1876  0.2979  0.3748
  100SAPC   C22 9949   3.617   5.269   2.590 -0.7878  0.4404  0.0446
  100SAPC   H2R 9950   3.609   5.376   2.563  1.7315  0.2267 -2.0283
  100SAPC   H2S 9951   3.551   5.208   2.525  1.6797 -1.4915 -0.8004
  100SAPC    C3 9952   4.031   5.436   2.469  0.4619  0.1023 -0.7854
  100SAPC    HX 9953   3.973   5.488   2.390 -1.2176 -0.0966  0.2746
  100SAPC    HY 9954   4.132   5.422   2.425 -0.8602 -1.5191 -3.5354
  100SAPC   O31 9955   4.047   5.519   2.592 -0.6377 -0.2129 -0.0152
  100SAPC   C31 9956   3.979   5.631   2.596  0.3171  0.4181  0.2901
  100SAPC   O32 9957   3.892   5.667   2.517 -0.0164  0.7859 -0.8215
  100SAPC   C32 9958   4.033   5.713   2.709  0.5772 -0.5924 -0.2182
  100SAPC   H2X 9959   4.018   5.654   2.802  2.2832 -1.9852 -0.7464
  100SAPC   H2Y 9960   3.975   5.807   2.708 -0.4601 -1.2238 -0.6031
  100SAPC   C23 9961   3.571   5.233   2.734 -0.1584 -0.2277 -0.3770
  100SAPC   H3R 9962   3.575   5.123   2.745 -0.6375 -0.1900  0.2586
  100SAPC   H3S 9963   3.468   5.269   2.756  0.3146  0.3001  1.1153
  100SAPC   C24 9964   3.654   5.300   2.857  0.4081 -0.6430  0.3524
  100SAPC   H4R 9965   3.759   5.283   2.826  0.6456  0.9338  0.2152
  100SAPC   H4S 9966   3.632   5.241   2.949  1.2839  0.5430  1.3666
  100SAPC   C25 9967   3.631   5.448   2.869  0.4632  1.1495  0.3687
  100SAPC   H5R 9968   3.645   5.499   2.773  0.5569 -1.1411 -0.9012
  100SAPC   C26 9969   3.600   5.509   2.989 -0.1441  0.5521  0.0192
  100SAPC   H6R 9970   3.581   5.617   2.992 -1.3656  0.3692 -0.2985
  100SAPC   C27 9971   3.573   5.427   3.111 -0.2727 -0.5174  0.5017
  100SAPC   H7R 9972   3.504   5.342   3.088 -0.2634 -1.1633  2.6472
  100SAPC   H7S 9973   3.515   5.487   3.184  1.0842  2.6269 -0.8428
  100SAPC   C28 9974   3.701   5.378   3.177  0.1247 -0.4363  0.4386
  100SAPC   H8R 9975   3.785   5.395   3.108 -0.8694 -1.4436 -1.0896
  100SAPC   C29 9976   3.723   5.324   3.293 -0.1612  0.1707 -0.6538
  100SAPC   H9R 9977   3.826   5.315   3.332 -0.3958  0.6379  0.1032
  100SAPC  C210 9978   3.620   5.273   3.400  0.0176 -0.0188  1.1619
  100SAPC  H10R 9979   3.584   5.175   3.364 -0.2109  0.0895  1.0992
  100SAPC  H10S 9980   3.530   5.335   3.382 -0.2399 -0.2018  1.7808
  100SAPC  C211 9981   3.671   5.257   3.537 -0.3985 -0.5576  0.0992
  100SAPC  H11R 9982   3.730   5.166   3.559 -1.3121 -0.7681  1.8922
  100SAPC  C212 9983   3.615   5.308   3.649  0.4597  0.1036 -0.0422
  100SAPC  H12R 9984   3.657   5.285   3.748 -3.5034  2.0587  2.3660
  100SAPC  C213 9985   3.513   5.415   3.640  0.4357  0.0892  0.0093
  100SAPC  H13R 9986   3.435   5.392   3.715 -0.4758 -2.7268 -1.6160
  100SAPC  H13S 9987   3.461   5.412   3.541  0.5899 -0.0245 -0.0684
  100SAPC  C214 9988   3.575   5.552   3.666  0.3625  0.7315  0.6974
  100SAPC  H14R 9989   3.649   5.571   3.587 -0.2129 -1.1423 -0.3532
  100SAPC  C215 9990   3.552   5.642   3.761  0.1161  0.1941 -0.3904
  100SAPC  H15R 9991   3.618   5.730   3.751 -1.7828  1.4721 -2.7759
  100SAPC  C216 9992   3.463   5.617   3.878 -0.2041  0.2462 -0.0433
  100SAPC  H16R 9993   3.458   5.510   3.908 -0.0750  0.4668  0.7891
  100SAPC  H16S 9994   3.361   5.654   3.856  0.5469  2.9084  0.6455
  100SAPC  C217 9995   3.515   5.692   4.008 -0.0735 -0.3425  0.0951
  100SAPC  H17R 9996   3.491   5.800   4.008 -0.3412 -0.3884 -0.8400
  100SAPC  H17S 9997   3.626   5.687   4.006 -0.0211  0.6831 -0.1783
  100SAPC  C218 9998   3.484   5.637   4.142  0.0848 -0.3284 -0.3952
  100SAPC  H18R 9999   3.528   5.535   4.144  1.2576  0.1595  1.7964
  100SAPC  H18S10000   3.375   5.627   4.163  0.3161 -1.1767  0.4407
  100SAPC  C21910001   3.541   5.706   4.265 -0.3911 -0.4126 -0.4430
  100SAPC  H19R10002   3.652   5.699   4.263 -0.3986 -1.6969  1.4199
  100SAPC  H19S10003   3.497   5.655   4.353  0.3627  0.8039  0.6696
  100SAPC  C22010004   3.493   5.852   4.270  0.7129 -0.4549 -0.0548
  100SAPC  H20R10005   3.494   5.880   4.378 -3.3847 -1.0473  0.2942
  100SAPC  H20S10006   3.387   5.858   4.240  0.5909 -1.1215  0.2227
  100SAPC  H20T10007   3.554   5.916   4.203 -0.3466  1.2399  0.5254
  100SAPC   C3310008   4.183   5.745   2.692 -0.6279 -0.1249  0.0011
  100SAPC   H3X10009   4.215   5.801   2.601  0.8950 -0.2839  0.4011
  100SAPC   H3Y10010   4.241   5.651   2.679 -0.8051  0.0538 -2.6304
  100SAPC   C3410011   4.245   5.836   2.806  0.5446  0.3363  0.9393
  100SAPC   H4X10012   4.206   5.940   2.811  1.7140  0.9140 -0.9398
  100SAPC   H4Y10013   4.354   5.851   2.792  0.2276  0.2878 -2.3359
  100SAPC   C3510014   4.213   5.772   2.942 -0.1571 -0.0841 -0.1921
  100SAPC   H5X10015   4.270   5.676   2.942 -0.9878 -0.5983 -1.0562
  100SAPC   H5Y10016   4.105   5.750   2.957  0.0775 -0.1172  1.6870
  100SAPC   C3610017   4.259   5.850   3.067  0.3000 -0.5347  0.2969
  100SAPC   H6X10018   4.195   5.939   3.056  1.1106  0.0861  0.5003
  100SAPC   H6Y10019   4.365   5.882   3.052  0.2925 -0.4244  0.4880
  100SAPC   C3710020   4.246   5.776   3.191  0.3446 -0.4032 -0.3438
  100SAPC   H7X10021   4.287   5.675   3.167  2.0481  0.8234 -3.1067
  100SAPC   H7Y10022   4.139   5.759   3.218  0.3697 -0.6185 -0.3745
  100SAPC   C3810023   4.310   5.841   3.313 -0.3350 -0.3606  0.2753
  100SAPC   H8X10024   4.262   5.940   3.325 -0.7106 -0.6352  1.1357
  100SAPC   H8Y10025   4.417   5.864   3.293 -0.4145 -0.8566 -0.7569
  100SAPC   C3910026   4.315   5.763   3.442  0.2933  0.5114 -0.2015
  100SAPC   H9X10027   4.378   5.672   3.425 -1.1166 -0.3396 -1.0875
  100SAPC   H9Y10028   4.209   5.742   3.468  0.1353  1.2797 -0.2069
  100SAPC  C31010029   4.370   5.834   3.568 -0.2477 -0.4610 -0.2105
  100SAPC  H10X10030   4.314   5.929   3.581  0.2213 -0.3178  0.7849
  100SAPC  H10Y10031   4.479   5.852   3.552 -0.2747 -1.8559 -2.5272
  100SAPC  C31110032   4.358   5.748   3.692 -0.5525  0.7334 -0.2916
  100SAPC  H11X10033   4.433   5.667   3.679  0.1164  1.4859 -1.2840
  100SAPC  H11Y10034   4.259   5.696   3.686 -0.8626  1.2307  0.4313
  100SAPC  C31210035   4.389   5.813   3.830 -0.3375 -0.6554 -0.3138
  100SAPC  H12X10036   4.343   5.914   3.837 -0.1713 -0.6885  3.0884
  100SAPC  H12Y10037   4.499   5.826   3.836  0.0018 -3.4029  0.4524
  100SAPC  C31310038   4.346   5.741   3.955  0.2304  0.3317  0.9076
  100SAPC  H13X10039   4.380   5.635   3.952 -0.7362  0.0383 -0.5343
  100SAPC  H13Y10040   4.236   5.724   3.951 -0.1291  2.5773 -0.4274
  100SAPC  C31410041   4.388   5.818   4.079 -0.6608 -0.8173 -0.8932
  100SAPC  H14X10042   4.498   5.834   4.070 -0.8176 -0.0502 -1.5412
  100SAPC  H14Y10043   4.368   5.758   4.170 -0.8257  1.3796  0.5720
  100SAPC  C31510044   4.320   5.957   4.100  0.5898  0.1472 -0.8087
  100SAPC  H15X10045   4.211   5.939   4.086  0.4425  1.2475 -1.1814
  100SAPC  H15Y10046   4.361   6.030   4.028  1.9864 -0.5013 -0.7045
  100SAPC  C31610047   4.359   6.007   4.238 -0.0971 -0.0570 -0.1935
  100SAPC  H16X10048   4.470   6.006   4.242  0.0171  0.0796 -2.1429
  100SAPC  H16Y10049   4.324   5.943   4.321  0.9790  0.7853  0.9519
  100SAPC  C31710050   4.334   6.158   4.266  0.3552  0.5792  0.3646
  100SAPC  H17X10051   4.225   6.176   4.262  0.0881  0.9096  4.3096
  100SAPC  H17Y10052   4.374   6.212   4.178  0.5700 -0.8766 -0.4507
  100SAPC  C31810053   4.392   6.209   4.397  0.7312 -0.4093 -0.3747
  100SAPC  H18X10054   4.357   6.140   4.477  1.4967  0.8026  1.0361
  100SAPC  H18Y10055   4.346   6.304   4.432  0.8340 -0.3030 -0.5260
  100SAPC  H18Z10056   4.502   6.217   4.400  0.7372 -0.6090 -0.0474
  101OSM      N10057   0.429   0.548   7.110 -0.2067 -0.3354 -0.2876
  101OSM    C1510058   0.308   0.624   7.066 -0.5547  0.0951  0.2361
  101OSM   H15A10059   0.324   0.729   7.049 -1.4935 -0.0897 -2.1885
  101OSM   H15B10060   0.239   0.623   7.150  1.1554 -0.4278  1.7058
  101OSM   H15C10061   0.267   0.596   6.970  1.2309  1.3009 -0.9294
  101OSM    C1410062   0.391   0.413   7.149 -0.6020  0.6638 -0.7694
  101OSM   H14A10063   0.474   0.344   7.144 -0.5007  0.7277 -0.0655
  101OSM   H14B10064   0.311   0.367   7.092  0.5710  0.7649 -2.5761
  101OSM   H14C10065   0.354   0.410   7.251  2.0695 -0.2526  0.2680
  101OSM    C1310066   0.529   0.533   7.000 -0.5857 -0.3248  0.3566
  101OSM   H13A10067   0.608   0.463   7.023 -0.6598 -0.0520  1.5111
  101OSM   H13B10068   0.574   0.627   6.972 -2.3246  0.1050 -1.1743
  101OSM   H13C10069   0.475   0.494   6.915 -0.3612 -0.4257  0.2607
  101OSM    C1210070   0.482   0.620   7.236 -0.7294  0.3585  0.9052
  101OSM   H12A10071   0.560   0.562   7.284 -1.0557 -1.9083 -1.1015
  101OSM   H12B10072   0.404   0.631   7.309  1.4075 -1.1470  3.6284
  101OSM    C1110073   0.555   0.751   7.207 -0.1125  0.8730  0.1857
  101OSM   H11A10074   0.568   0.792   7.310 -1.2467  0.4203  0.5198
  101OSM   H11B10075   0.482   0.820   7.161 -2.7450 -1.4483  0.6346
  101OSM      P10076   0.744   0.825   7.031  0.0666  0.3838 -0.8418
  101OSM    O1310077   0.770   0.960   7.091 -0.3493 -0.0057  0.5040
  101OSM    O1410078   0.862   0.759   6.969 -0.4751 -0.5569  0.5093
  101OSM    O1110079   0.617   0.822   6.943 -0.0656 -0.1893  0.6438
  101OSM    O1210080   0.689   0.730   7.148  1.0922 -0.4040 -0.2722
  101OSM    C1S10081   0.621   0.874   6.805  0.4023  0.2740 -0.1874
  101OSM    H1S10082   0.711   0.834   6.755 -0.3526  1.1278 -2.3513
  101OSM    H1T10083   0.631   0.985   6.812 -0.0322  0.2480  1.1466
  101OSM     NF10084   0.523   0.846   6.576  0.5594 -0.1044  0.2289
  101OSM    HNF10085   0.503   0.933   6.533  0.5560 -0.1968  0.0444
  101OSM    C2S10086   0.495   0.843   6.717  0.0354 -0.5486  0.0389
  101OSM    H2S10087   0.455   0.742   6.742 -1.1420  0.2448  1.4948
  101OSM    C3S10088   0.378   0.934   6.769 -0.1120  0.4959  0.3309
  101OSM    H3S10089   0.414   1.039   6.781 -0.8497  0.8664 -0.6000
  101OSM     O310090   0.330   0.902   6.898 -0.6164 -0.2363 -0.3316
  101OSM    HO310091   0.403   0.853   6.937 -1.3053 -2.4589 -1.6146
  101OSM    C4S10092   0.259   0.920   6.683  0.5234  0.3029  0.5502
  101OSM    H4S10093   0.222   0.817   6.668 -1.0144  0.9625 -0.3797
  101OSM    C5S10094   0.212   1.010   6.599  0.2646 -0.0735  0.4586
  101OSM    H5S10095   0.259   1.110   6.590  1.4162 -0.7477 -2.3646
  101OSM    C6S10096   0.104   1.001   6.498  0.0355  0.1122 -0.6042
  101OSM    H6S10097   0.033   1.084   6.518 -0.2377 -0.5312  1.3098
  101OSM    H6T10098   0.047   0.906   6.509 -1.4767  1.2827  2.8420
  101OSM    C7S10099   0.131   1.004   6.352 -0.0835  0.0314  0.0382
  101OSM    H7S10100   0.216   0.933   6.342  0.9752  1.2600  0.0202
  101OSM    H7T10101   0.162   1.104   6.313  0.5120 -0.3788 -0.5674
  101OSM    C8S10102   0.002   0.962   6.272  0.1608  0.7167 -0.4028
  101OSM    H8S10103  -0.092   1.006   6.312  0.2825  1.9685 -1.4303
  101OSM    H8T10104  -0.009   0.852   6.272  2.3912  0.4115  1.9099
  101OSM    C9S10105  -0.002   1.006   6.125  0.4016  1.1417 -0.3876
  101OSM    H9S10106   0.010   1.117   6.120  0.0387  1.2162  0.2684
  101OSM    H9T10107  -0.105   0.989   6.088  1.2023  0.6173 -2.5328
  101OSM   C10S10108   0.092   0.950   6.019 -0.1778 -0.3102  0.3541
  101OSM   H10S10109   0.093   0.839   6.021  2.0367 -0.3875  3.9601
  101OSM   H10T10110   0.191   0.969   6.066  0.2022  0.7068 -0.8330
  101OSM   C11S10111   0.089   1.029   5.878  0.1278  0.1782  0.3251
  101OSM   H11S10112   0.088   1.137   5.903  1.1730 -0.2233  2.3965
  101OSM   H11T10113  -0.002   0.995   5.826 -0.2397  0.0511  1.0384
  101OSM   C12S10114   0.215   1.007   5.797 -0.5574  0.2545  0.0890
  101OSM   H12S10115   0.223   0.897   5.800 -0.3055  0.2756  0.1613
  101OSM   H12T10116   0.304   1.040   5.854 -0.0162  0.9746 -1.1257
  101OSM   C13S10117   0.212   1.068   5.656  0.0328 -0.2104  0.1196
  101OSM   H13S10118   0.163   1.167   5.656  0.7293  0.1371  0.3054
  101OSM   H13T10119   0.142   0.994   5.611  0.1035 -1.7227  2.3144
  101OSM   C14S10120   0.349   1.068   5.592 -0.0434  0.3142 -1.0426
  101OSM   H14S10121   0.401   0.971   5.606 -0.7735  0.4207  4.6109
  101OSM   H14T10122   0.397   1.139   5.663  2.1919 -2.2439  0.1702
  101OSM   C15S10123   0.370   1.119   5.453 -0.8086  0.0184 -0.1646
  101OSM   H15S10124   0.345   1.227   5.445  0.6566  0.3103 -1.1846
  101OSM   H15T10125   0.293   1.076   5.385 -0.4509 -0.2026 -0.4281
  101OSM   C16S10126   0.516   1.096   5.398  0.0561  0.6917  0.1251
  101OSM   H16S10127   0.522   0.987   5.382 -2.9977  0.2399  1.4795
  101OSM   H16T10128   0.593   1.108   5.477 -2.8711 -0.0173  3.3294
  101OSM   C17S10129   0.549   1.167   5.271 -0.4487 -0.1526  0.2005
  101OSM   H17S10130   0.458   1.180   5.208 -0.8281 -0.7942  0.6052
  101OSM   H17T10131   0.609   1.093   5.213  0.4428 -1.3356  2.4827
  101OSM   C18S10132   0.633   1.293   5.296 -0.0394 -0.2535  0.2484
  101OSM   H18S10133   0.568   1.366   5.349 -0.7788 -1.7448  1.4627
  101OSM   H18T10134   0.661   1.333   5.196 -0.4122  0.8091  0.5569
  101OSM   H18U10135   0.714   1.255   5.361 -1.0841 -1.9692  0.6139
  101OSM    C1F10136   0.580   0.741   6.517 -0.0975  0.1325  0.5623
  101OSM     OF10137   0.589   0.630   6.568 -0.0057  0.4223  0.5298
  101OSM    C2F10138   0.640   0.773   6.378  0.1919 -0.2300 -0.7580
  101OSM    H2F10139   0.750   0.777   6.393  0.1817  2.8901 -0.8379
  101OSM    H2G10140   0.607   0.873   6.344  0.2602 -0.1505 -0.5912
  101OSM    C3F10141   0.595   0.672   6.270 -0.3502  0.3715  0.8831
  101OSM    H3F10142   0.625   0.567   6.289  2.6779  1.2315  1.4611
  101OSM    H3G10143   0.651   0.701   6.179  0.4504 -0.0803  1.2200
  101OSM    C4F10144   0.444   0.674   6.235 -0.1680 -0.1267 -0.1624
  101OSM    H4F10145   0.394   0.656   6.332  1.2226 -1.7689  0.3000
  101OSM    H4G10146   0.442   0.590   6.161 -3.1785  1.3188 -1.9119
  101OSM    C5F10147   0.395   0.805   6.173  0.6070  0.2348 -0.1807
  101OSM    H5F10148   0.387   0.884   6.250 -1.1318  0.3099 -0.4084
  101OSM    H5G10149   0.288   0.800   6.145  0.2027 -1.1329  1.4581
  101OSM    C6F10150   0.486   0.853   6.055 -0.0503  0.1212  0.1768
  101OSM    H6F10151   0.587   0.886   6.086  0.1469 -1.4236  1.3285
  101OSM    H6G10152   0.433   0.938   6.007  1.7532  0.0481 -2.1285
  101OSM    C7F10153   0.518   0.753   5.941  0.0575  0.8115 -0.4301
  101OSM    H7F10154   0.419   0.712   5.913 -0.1328  0.4873  0.6568
  101OSM    H7G10155   0.577   0.665   5.975 -2.2942 -0.4016  0.7324
  101OSM    C8F10156   0.598   0.808   5.824  0.2709 -0.1536 -0.4555
  101OSM    H8F10157   0.701   0.818   5.864  0.0322  0.2663  0.0716
  101OSM    H8G10158   0.556   0.911   5.820 -0.3404 -0.4038 -0.5249
  101OSM    C9F10159   0.569   0.723   5.707 -0.0173 -0.1396  0.1234
  101OSM    H9F10160   0.463   0.699   5.690 -0.2129  1.4026 -1.0279
  101OSM   C10F10161   0.666   0.694   5.618  0.5918  0.8498  0.6764
  101OSM   H10F10162   0.628   0.637   5.531 -1.2920  1.0030  1.3411
  101OSM   C11F10163   0.808   0.731   5.628 -0.4256  0.3808  0.0368
  101OSM   H11F10164   0.840   0.643   5.568 -1.0911 -1.0918  1.7584
  101OSM   H11G10165   0.864   0.713   5.722  0.0506  0.3590 -0.2447
  101OSM   C12F10166   0.859   0.865   5.571  0.1953 -0.1878 -0.3365
  101OSM   H12F10167   0.823   0.948   5.636 -0.1710 -0.9164  0.4070
  101OSM   H12G10168   0.806   0.887   5.475  2.4520 -1.3965 -1.9685
  101OSM   C13F10169   1.010   0.862   5.555  1.2454 -0.6271  0.6565
  101OSM   H13F10170   1.018   0.768   5.496  0.5415 -0.1917 -0.1599
  101OSM   H13G10171   1.077   0.857   5.643  1.5587  0.9421  0.5221
  101OSM   C14F10172   1.068   0.984   5.470 -0.0870  0.0411 -0.4064
  101OSM   H14F10173   1.015   0.993   5.372  3.0414 -1.2313 -2.3653
  101OSM   H14G10174   1.175   0.965   5.448  0.4424  2.7658 -0.5725
  101OSM   C15F10175   1.060   1.124   5.535  0.3785 -0.5749  0.0662
  101OSM   H15F10176   1.105   1.124   5.636  0.7064 -1.1735 -0.0771
  101OSM   H15G10177   0.957   1.163   5.526 -0.2584 -1.6509  2.1760
  101OSM   C16F10178   1.148   1.221   5.454  0.0757 -0.4232  0.2086
  101OSM   H16F10179   1.257   1.202   5.465 -0.0812 -1.8786 -0.4794
  101OSM   H16G10180   1.116   1.322   5.486 -0.2293  0.0562 -1.5229
  101OSM   C17F10181   1.107   1.235   5.301 -0.7796 -0.0376 -0.3837
  101OSM   H17F10182   0.999   1.223   5.279 -0.6841 -2.2567  0.1014
  101OSM   H17G10183   1.154   1.147   5.252  0.3836  0.6618 -0.5626
  101OSM   C18F10184   1.161   1.366   5.248 -1.0183  0.1379  0.3315
  101OSM   H18F10185   1.262   1.392   5.287 -0.3904 -0.1472 -1.0538
  101OSM   H18G10186   1.085   1.443   5.274 -1.7010 -0.4831  0.1833
  101OSM   H18H10187   1.182   1.356   5.139  1.3756 -1.7865  0.8710
  102OSM      N10188   6.723   1.350   6.872  0.6100 -0.4520  0.1709
  102OSM    C1510189   6.740   1.441   6.987  0.3685  0.1274 -0.1621
  102OSM   H15A10190   6.827   1.410   7.044  0.7825 -0.7760 -1.2363
  102OSM   H15B10191   6.656   1.444   7.054  1.1798  2.6109  0.8494
  102OSM   H15C10192   6.758   1.540   6.947 -0.9281 -0.6411 -2.8797
  102OSM    C1410193   6.595   1.383   6.811  0.6697 -0.3840 -0.5181
  102OSM   H14A10194   6.532   1.417   6.892  0.4864  0.5875 -1.0611
  102OSM   H14B10195   6.552   1.301   6.756  0.0022 -1.9849  2.1869
  102OSM   H14C10196   6.600   1.467   6.743 -0.8663 -0.4695 -0.7716
  102OSM    C1310197   6.839   1.372   6.780  0.4707  0.3677 -0.1826
  102OSM   H13A10198   6.853   1.477   6.757 -0.6065  0.6615  0.3875
  102OSM   H13B10199   6.835   1.313   6.690 -0.3317  0.6860 -0.3657
  102OSM   H13C10200   6.929   1.330   6.822  0.9021  0.7934 -0.6742
  102OSM    C1210201   6.729   1.209   6.930  0.0506  0.0251  0.5192
  102OSM   H12A10202   6.655   1.201   7.009 -3.6003  3.2446 -2.1742
  102OSM   H12B10203   6.829   1.199   6.970  0.1537 -1.1475 -0.0049
  102OSM    C1110204   6.723   1.103   6.817 -0.3442  0.1996  0.0464
  102OSM   H11A10205   6.749   1.008   6.869 -2.3024  1.2067  3.1407
  102OSM   H11B10206   6.801   1.104   6.738 -1.1633  2.4612 -0.8253
  102OSM      P10207   6.474   1.013   6.821  0.0953 -0.1027  0.1013
  102OSM    O1310208   6.492   0.987   6.969  0.1680  0.3604 -0.0542
  102OSM    O1410209   6.343   1.066   6.777  0.4247 -0.3993 -0.5529
  102OSM    O1110210   6.498   0.868   6.745  0.5953 -0.3133 -0.0726
  102OSM    O1210211   6.593   1.106   6.759  0.5987  0.2036 -0.1314
  102OSM    C1S10212   6.443   0.839   6.614  0.5977  0.1821  0.3247
  102OSM    H1S10213   6.409   0.933   6.566  0.7380  0.3089  0.4689
  102OSM    H1T10214   6.358   0.768   6.620 -1.3495  2.5292  2.1980
  102OSM     NF10215   6.484   0.726   6.378  0.0862  0.1723 -0.2216
  102OSM    HNF10216   6.446   0.634   6.377 -0.5326  0.3666  1.5592
  102OSM    C2S10217   6.547   0.760   6.513  0.0653  0.1140 -0.1935
  102OSM    H2S10218   6.631   0.829   6.491  1.1711 -0.5098  1.8493
  102OSM    C3S10219   6.625   0.641   6.577  0.0108  0.1673 -0.1156
  102OSM    H3S10220   6.553   0.563   6.610 -1.3084  0.3695 -2.3171
  102OSM     O310221   6.692   0.671   6.697  0.0993 -0.3514 -0.4599
  102OSM    HO310222   6.658   0.752   6.734 -1.9722 -1.0861 -0.6601
  102OSM    C4S10223   6.721   0.575   6.480  0.4826 -0.7539 -1.2421
  102OSM    H4S10224   6.667   0.490   6.437 -0.4353 -1.5555  1.3724
  102OSM    C5S10225   6.848   0.608   6.448 -0.5670  0.3942 -0.3651
  102OSM    H5S10226   6.891   0.701   6.489 -1.3001  0.0403  1.2965
  102OSM    C6S10227   6.919   0.517   6.343  0.0765  0.0332 -0.8007
  102OSM    H6S10228   6.986   0.438   6.382  0.3370 -1.7139 -4.3601
  102OSM    H6T10229   7.002   0.576   6.299  1.7913 -1.3334  0.4724
  102OSM    C7S10230   6.837   0.475   6.222 -0.7238  0.0238  0.4139
  102OSM    H7S10231   6.761   0.395   6.234 -0.2993 -1.0350 -2.8353
  102OSM    H7T10232   6.912   0.442   6.147  1.3761  2.3221  1.3861
  102OSM    C8S10233   6.779   0.599   6.154 -0.7092 -0.0218 -0.4475
  102OSM    H8S10234   6.853   0.679   6.174 -0.4861 -0.6659  1.5789
  102OSM    H8T10235   6.683   0.633   6.200 -0.8248 -2.1596  1.0552
  102OSM    C9S10236   6.771   0.592   5.995  0.4549  0.5769 -0.6207
  102OSM    H9S10237   6.714   0.682   5.962  0.9917  1.0799 -0.2124
  102OSM    H9T10238   6.700   0.510   5.974  0.6582  0.3170 -0.3156
  102OSM   C10S10239   6.894   0.577   5.910 -1.0225  0.3827  0.6153
  102OSM   H10S10240   6.925   0.470   5.921  0.3179  0.6421 -0.3578
  102OSM   H10T10241   6.982   0.638   5.939 -0.6923 -1.3375  3.7510
  102OSM   C11S10242   6.861   0.609   5.764 -0.3054  0.0720 -0.3692
  102OSM   H11S10243   6.802   0.703   5.757  0.3277  0.4380 -0.9099
  102OSM   H11T10244   6.790   0.532   5.727  0.0986 -0.6578  0.3300
  102OSM   C12S10245   6.979   0.597   5.673 -0.4705 -0.0620  0.7864
  102OSM   H12S10246   7.035   0.502   5.685  1.0863  0.7130 -0.0739
  102OSM   H12T10247   7.052   0.671   5.711 -0.4744  0.0916  0.4944
  102OSM   C13S10248   6.944   0.621   5.524 -0.4904  0.0458 -1.0963
  102OSM   H13S10249   6.902   0.724   5.520 -2.2747 -0.4327  1.8776
  102OSM   H13T10250   6.879   0.545   5.475  0.5836 -2.2240  0.7855
  102OSM   C14S10251   7.074   0.615   5.442 -0.0161 -0.5807 -0.8868
  102OSM   H14S10252   7.101   0.507   5.434  2.2604 -0.0455 -1.0840
  102OSM   H14T10253   7.139   0.685   5.499 -0.4934  0.0999 -1.1805
  102OSM   C15S10254   7.061   0.682   5.299  0.4317  0.7058 -0.4033
  102OSM   H15S10255   7.005   0.778   5.306 -0.5877  0.1589 -0.9367
  102OSM   H15T10256   6.996   0.623   5.231  0.8654 -0.3714  0.0971
  102OSM   C16S10257   7.194   0.720   5.241 -0.0231 -0.2206  0.5962
  102OSM   H16S10258   7.259   0.630   5.235 -3.2260 -2.7264  0.1083
  102OSM   H16T10259   7.249   0.792   5.304  0.1495  0.7202 -0.5858
  102OSM   C17S10260   7.171   0.785   5.095 -0.1552  1.0127 -0.4486
  102OSM   H17S10261   7.115   0.877   5.119 -1.8128 -0.1486  0.3346
  102OSM   H17T10262   7.124   0.709   5.029  1.6017 -0.0931 -0.4909
  102OSM   C18S10263   7.301   0.825   5.022  0.3191 -0.0769  0.6060
  102OSM   H18S10264   7.349   0.905   5.082  0.9913 -0.0797  0.0762
  102OSM   H18T10265   7.274   0.861   4.921  1.4070 -3.5160 -1.0497
  102OSM   H18U10266   7.383   0.751   5.019 -0.6696 -1.1748 -1.7815
  102OSM    C1F10267   6.432   0.810   6.298 -0.8563 -0.1892 -0.3149
  102OSM     OF10268   6.448   0.928   6.319  0.1685 -0.0434 -0.0320
  102OSM    C2F10269   6.326   0.756   6.199 -0.0543  0.0806 -0.0284
  102OSM    H2F10270   6.240   0.740   6.268  0.8753 -1.0960  0.9017
  102OSM    H2G10271   6.373   0.667   6.153  0.1187 -0.1060  0.5103
  102OSM    C3F10272   6.280   0.856   6.093 -0.5442 -0.4390  1.1066
  102OSM    H3F10273   6.259   0.944   6.157  1.8990 -0.3051  1.8084
  102OSM    H3G10274   6.186   0.818   6.047  0.0065  0.0707 -0.4799
  102OSM    C4F10275   6.381   0.910   5.987 -0.4653  0.5670 -0.2211
  102OSM    H4F10276   6.472   0.960   6.027  0.8900  0.7584 -3.2998
  102OSM    H4G10277   6.340   0.989   5.921  0.9044  1.5495  0.0648
  102OSM    C5F10278   6.429   0.796   5.904 -0.3470 -0.3127 -0.3203
  102OSM    H5F10279   6.340   0.749   5.857 -1.8744 -0.4198  2.4578
  102OSM    H5G10280   6.465   0.718   5.973  0.1643 -0.1479 -0.3921
  102OSM    C6F10281   6.531   0.838   5.799  0.3999 -0.3786  0.5508
  102OSM    H6F10282   6.576   0.753   5.743 -0.9944 -0.3800 -0.6356
  102OSM    H6G10283   6.611   0.882   5.862 -0.5452  1.3811  0.6146
  102OSM    C7F10284   6.470   0.928   5.686 -0.4091  0.3377 -0.6849
  102OSM    H7F10285   6.473   1.021   5.747  2.1087 -1.4063  2.0568
  102OSM    H7G10286   6.369   0.889   5.660 -0.2643 -0.9248  0.5188
  102OSM    C8F10287   6.560   0.945   5.564  0.1227 -0.6619  0.4487
  102OSM    H8F10288   6.659   0.972   5.609  0.0962  0.6340 -0.2291
  102OSM    H8G10289   6.517   1.023   5.498 -0.3882 -1.7060 -0.4777
  102OSM    C9F10290   6.555   0.814   5.489 -0.7514  0.0188 -0.7066
  102OSM    H9F10291   6.538   0.722   5.546  0.8362 -0.9996 -1.7688
  102OSM   C10F10292   6.535   0.805   5.355 -0.2166  0.5627  0.4300
  102OSM   H10F10293   6.524   0.699   5.325 -1.8978  0.2648  1.9673
  102OSM   C11F10294   6.529   0.911   5.253  0.7116 -0.7412  0.0990
  102OSM   H11F10295   6.610   0.985   5.269 -0.2493  0.2350  0.6172
  102OSM   H11G10296   6.432   0.965   5.248 -1.2774 -3.9613  0.4276
  102OSM   C12F10297   6.546   0.848   5.117 -0.4958  0.1151  0.6797
  102OSM   H12F10298   6.466   0.773   5.095 -0.5661  0.7000 -1.2932
  102OSM   H12G10299   6.645   0.799   5.105 -0.6749 -0.2131  0.5319
  102OSM   C13F10300   6.538   0.957   5.009 -0.0741  0.1164  0.7177
  102OSM   H13F10301   6.613   1.037   5.027  1.0486  0.0626 -2.9614
  102OSM   H13G10302   6.441   1.010   5.018  0.6177  1.5667  0.0895
  102OSM   C14F10303   6.559   0.899   4.865 -0.0295 -0.3495 -0.2820
  102OSM   H14F10304   6.474   0.829   4.850 -0.2920  0.1328 -1.1358
  102OSM   H14G10305   6.653   0.840   4.857  0.6068  0.6476 -0.3261
  102OSM   C15F10306   6.552   1.005   4.760 -0.3579 -0.3411  0.0384
  102OSM   H15F10307   6.621   1.091   4.775 -1.4289  0.6847 -0.6785
  102OSM   H15G10308   6.455   1.056   4.780 -0.9661 -2.0474  1.8064
  102OSM   C16F10309   6.552   0.934   4.621 -0.1335 -0.4912 -0.7166
  102OSM   H16F10310   6.620   0.846   4.623  1.3732  0.5668 -2.4546
  102OSM   H16G10311   6.593   1.007   4.548  0.1671  0.3696  0.2834
  102OSM   C17F10312   6.410   0.887   4.590  0.4456 -0.2428  0.0985
  102OSM   H17F10313   6.345   0.974   4.613 -0.4975 -0.4055 -1.7548
  102OSM   H17G10314   6.381   0.808   4.662  0.9875 -1.1661 -0.6748
  102OSM   C18F10315   6.375   0.825   4.452  0.9936  0.5871  0.0877
  102OSM   H18F10316   6.275   0.777   4.453  0.5358  1.4978 -0.5704
  102OSM   H18G10317   6.436   0.732   4.445  0.1491 -0.0271  0.7105
  102OSM   H18H10318   6.381   0.901   4.372  3.4270  0.5148  0.1134
  103OSM      N10319   5.798   2.464   6.772  0.3103  0.8731 -0.1406
  103OSM    C1510320   5.671   2.453   6.697  0.2307  0.1503  0.7225
  103OSM   H15A10321   5.661   2.518   6.611 -2.2137  0.6300  1.3027
  103OSM   H15B10322   5.583   2.481   6.753  0.0338 -2.0232  1.5776
  103OSM   H15C10323   5.654   2.352   6.663  2.0015 -0.0320  0.2935
  103OSM    C1410324   5.917   2.425   6.686 -0.5460 -0.7853  0.5851
  103OSM   H14A10325   5.906   2.473   6.590 -1.6994  1.3960  1.7201
  103OSM   H14B10326   5.919   2.319   6.668  4.0489 -0.3783 -3.0428
  103OSM   H14C10327   6.011   2.447   6.735 -1.2332 -2.3803  2.7972
  103OSM    C1310328   5.820   2.600   6.821  0.0353  0.2167 -0.1820
  103OSM   H13A10329   5.736   2.631   6.882 -0.7992 -1.5121 -0.3676
  103OSM   H13B10330   5.825   2.675   6.745 -1.2274 -0.7717 -1.3020
  103OSM   H13C10331   5.909   2.604   6.881  0.6415  1.4626 -1.1494
  103OSM    C1210332   5.795   2.379   6.899 -0.2181  0.2034  0.0453
  103OSM   H12A10333   5.714   2.414   6.963  0.5018  0.9522  0.5778
  103OSM   H12B10334   5.888   2.403   6.948 -1.3906  2.0645  1.5436
  103OSM    C1110335   5.772   2.224   6.885 -0.5776  0.2301  0.6790
  103OSM   H11A10336   5.667   2.223   6.847  0.1691  0.4613 -1.5521
  103OSM   H11B10337   5.785   2.179   6.986  0.9367 -2.4355 -0.6157
  103OSM      P10338   5.814   2.030   6.706 -0.0801  0.2217 -0.1350
  103OSM    O1310339   5.768   1.914   6.786 -0.2532  0.4746  0.3976
  103OSM    O1410340   5.721   2.075   6.601  0.6333 -0.3284  0.5736
  103OSM    O1110341   5.944   1.986   6.636  0.2123  0.0687 -0.7028
  103OSM    O1210342   5.855   2.155   6.790 -0.2473  0.3428 -0.0455
  103OSM    C1S10343   6.013   2.094   6.568 -0.8436 -0.1595  0.1330
  103OSM    H1S10344   6.079   2.151   6.636 -0.9752  1.9130 -1.3746
  103OSM    H1T10345   5.939   2.162   6.522  0.8113  0.5111 -1.6938
  103OSM     NF10346   6.162   2.144   6.388 -0.5069 -0.2158  0.9322
  103OSM    HNF10347   6.110   2.207   6.329  0.9996 -0.4804 -0.7799
  103OSM    C2S10348   6.102   2.033   6.459 -0.0808 -0.6890  0.3622
  103OSM    H2S10349   6.189   1.973   6.494  0.7987  1.8069  2.7603
  103OSM    C3S10350   6.019   1.937   6.367 -0.1330  0.5841  0.4469
  103OSM    H3S10351   5.940   2.003   6.326 -0.7692  2.0170  3.6513
  103OSM     O310352   5.956   1.834   6.439 -0.0667  0.8697  0.3842
  103OSM    HO310353   5.963   1.863   6.531  0.1163 -2.0214  1.3848
  103OSM    C4S10354   6.098   1.870   6.257 -0.1478  0.0001  0.0606
  103OSM    H4S10355   6.175   1.796   6.282 -0.9655 -1.0916 -0.5891
  103OSM    C5S10356   6.063   1.899   6.131 -0.0689  0.1399 -0.7046
  103OSM    H5S10357   5.987   1.976   6.113 -0.0701  0.5522  0.9061
  103OSM    C6S10358   6.121   1.826   6.018 -0.9331  0.2177  0.4544
  103OSM    H6S10359   6.039   1.777   5.961 -1.2014 -1.6993  2.3622
  103OSM    H6T10360   6.187   1.740   6.040 -0.2608  0.7114  0.3939
  103OSM    C7S10361   6.190   1.918   5.915  0.1361  0.5163 -0.1242
  103OSM    H7S10362   6.273   1.976   5.962  1.0869 -1.6180  0.9881
  103OSM    H7T10363   6.115   1.987   5.872  1.2318  1.2468 -0.9260
  103OSM    C8S10364   6.262   1.842   5.803 -0.4726 -0.8424 -0.0902
  103OSM    H8S10365   6.196   1.780   5.738 -0.7235 -0.5999 -0.0690
  103OSM    H8T10366   6.327   1.765   5.850  1.6475  0.9877  0.1439
  103OSM    C9S10367   6.334   1.940   5.706  0.3541  0.8386 -0.1475
  103OSM    H9S10368   6.421   1.985   5.759  0.9317 -0.4653  0.0595
  103OSM    H9T10369   6.270   2.027   5.682 -4.4065 -2.2213  0.0927
  103OSM   C10S10370   6.399   1.875   5.582  1.0542  0.1672 -0.0498
  103OSM   H10S10371   6.457   1.783   5.603  1.4271  0.2418 -0.7242
  103OSM   H10T10372   6.464   1.953   5.538  1.8119  0.0547  0.8298
  103OSM   C11S10373   6.289   1.834   5.475 -0.0283 -0.2640  0.5202
  103OSM   H11S10374   6.199   1.897   5.492  0.5466  0.8017 -0.2786
  103OSM   H11T10375   6.254   1.730   5.492 -1.2063  0.3219  1.9410
  103OSM   C12S10376   6.334   1.842   5.331 -0.4338  0.2818 -0.3000
  103OSM   H12S10377   6.435   1.795   5.332 -0.1762  0.8345  0.1192
  103OSM   H12T10378   6.347   1.950   5.308  3.0254  0.1358  0.4343
  103OSM   C13S10379   6.239   1.788   5.228  0.4017 -0.0409  0.3600
  103OSM   H13S10380   6.142   1.841   5.237 -0.1157 -0.8873 -0.0576
  103OSM   H13T10381   6.217   1.680   5.244 -1.1145  0.0663 -0.7016
  103OSM   C14S10382   6.289   1.810   5.085  0.5551 -0.1548  0.7031
  103OSM   H14S10383   6.210   1.798   5.007  0.2693 -2.0880  1.2475
  103OSM   H14T10384   6.373   1.740   5.062 -1.0196 -1.9406  0.1656
  103OSM   C15S10385   6.329   1.963   5.053  0.0602 -0.1849  0.3829
  103OSM   H15S10386   6.432   1.975   5.094 -0.2952  0.6259  1.0576
  103OSM   H15T10387   6.264   2.037   5.104 -2.2199 -0.4030 -1.9900
  103OSM   C16S10388   6.321   2.000   4.899 -0.3332  0.3551  0.1670
  103OSM   H16S10389   6.342   2.109   4.889  1.8576 -0.1687 -1.6582
  103OSM   H16T10390   6.219   1.978   4.860 -0.8474 -0.1565  1.7059
  103OSM   C17S10391   6.439   1.928   4.814 -1.0681  0.5587 -0.2357
  103OSM   H17S10392   6.404   1.823   4.827  2.4378 -0.7434 -0.2338
  103OSM   H17T10393   6.542   1.945   4.853 -1.0371 -0.2437  0.0479
  103OSM   C18S10394   6.445   1.960   4.665  0.5056  0.4001  0.1604
  103OSM   H18S10395   6.455   2.070   4.653 -0.6633  0.4650 -0.3451
  103OSM   H18T10396   6.350   1.921   4.622 -0.1661  0.1058  1.8363
  103OSM   H18U10397   6.531   1.915   4.611  0.8760  1.7615 -0.4299
  103OSM    C1F10398   6.270   2.212   6.427 -0.3795 -0.5976 -0.0289
  103OSM     OF10399   6.327   2.180   6.530 -0.1619 -0.4887  0.2656
  103OSM    C2F10400   6.312   2.338   6.352 -0.2350  0.1495  0.2442
  103OSM    H2F10401   6.313   2.423   6.423 -1.3833  0.8812 -0.5648
  103OSM    H2G10402   6.232   2.351   6.275  0.6980  2.0323 -0.4618
  103OSM    C3F10403   6.450   2.332   6.280 -0.0142 -0.3701  0.0124
  103OSM    H3F10404   6.535   2.278   6.327  1.0104  1.0070 -0.1878
  103OSM    H3G10405   6.495   2.433   6.285  0.1236 -0.3277 -1.6212
  103OSM    C4F10406   6.438   2.296   6.135 -0.6025 -0.3644  0.3557
  103OSM    H4F10407   6.348   2.349   6.098 -1.5288 -1.8625  0.3720
  103OSM    H4G10408   6.424   2.186   6.124  1.2995 -0.5601 -0.4965
  103OSM    C5F10409   6.573   2.323   6.058  0.2730 -1.0542  0.5796
  103OSM    H5F10410   6.657   2.278   6.116  1.9040 -1.4865 -1.9950
  103OSM    H5G10411   6.592   2.432   6.049  2.2815 -1.5675 -3.3085
  103OSM    C6F10412   6.578   2.275   5.912  0.5841  0.7178  0.6473
  103OSM    H6F10413   6.559   2.166   5.922 -0.7001  0.7549 -0.9549
  103OSM    H6G10414   6.679   2.291   5.868 -0.5797 -1.4843 -3.3340
  103OSM    C7F10415   6.462   2.333   5.823 -0.3353 -0.6009  0.4781
  103OSM    H7F10416   6.367   2.304   5.874 -0.5004  1.2908  1.3267
  103OSM    H7G10417   6.466   2.275   5.729  0.4621 -1.0556  0.7835
  103OSM    C8F10418   6.461   2.479   5.806  0.8100  0.5449  0.5101
  103OSM    H8F10419   6.564   2.498   5.771  1.3896 -2.6735  0.1043
  103OSM    H8G10420   6.454   2.522   5.908 -1.0418 -0.0309  0.6680
  103OSM    C9F10421   6.356   2.544   5.719  0.3844  0.4701  0.1394
  103OSM    H9F10422   6.276   2.604   5.763  2.2466  3.3339 -0.1480
  103OSM   C10F10423   6.364   2.537   5.585  0.2144 -0.0783  0.5682
  103OSM   H10F10424   6.285   2.586   5.526  1.4539  0.1230 -0.9970
  103OSM   C11F10425   6.472   2.462   5.507  0.0269 -0.2664  0.2147
  103OSM   H11F10426   6.526   2.377   5.555  1.4925  0.3658 -0.2309
  103OSM   H11G10427   6.545   2.538   5.471  1.5273 -1.8840 -0.3506
  103OSM   C12F10428   6.392   2.396   5.396  0.7252 -0.6059 -0.1375
  103OSM   H12F10429   6.334   2.469   5.336  2.6976 -0.2988 -1.7670
  103OSM   H12G10430   6.322   2.319   5.434  1.1135 -0.1548  1.5731
  103OSM   C13F10431   6.491   2.336   5.289  0.1941  0.6423 -0.6143
  103OSM   H13F10432   6.581   2.402   5.284 -0.9403  2.3303  0.3381
  103OSM   H13G10433   6.439   2.326   5.191  0.7430 -0.0377 -0.8473
  103OSM   C14F10434   6.547   2.206   5.348 -0.0696  0.7419 -0.7171
  103OSM   H14F10435   6.467   2.134   5.375  1.9292 -1.7988 -1.1366
  103OSM   H14G10436   6.612   2.226   5.436 -0.4998 -2.5431  0.4832
  103OSM   C15F10437   6.639   2.117   5.259 -0.6859 -0.0854  0.6500
  103OSM   H15F10438   6.720   2.180   5.216  0.9333 -1.8339  1.0423
  103OSM   H15G10439   6.579   2.093   5.168  1.3164  0.7266 -0.9699
  103OSM   C16F10440   6.702   1.993   5.326  0.4175  0.1189 -0.1910
  103OSM   H16F10441   6.637   1.932   5.392 -0.7269  0.2298 -1.1792
  103OSM   H16G10442   6.786   2.041   5.381  0.0569 -0.0472  0.5142
  103OSM   C17F10443   6.772   1.913   5.223 -0.0370 -0.4018  0.5085
  103OSM   H17F10444   6.850   1.845   5.265 -0.7396 -1.9191 -0.5246
  103OSM   H17G10445   6.821   1.970   5.141 -0.0695 -1.2870 -0.1420
  103OSM   C18F10446   6.675   1.819   5.151 -0.0458  0.0433  0.1564
  103OSM   H18F10447   6.608   1.864   5.075  0.2944  0.9822  0.3954
  103OSM   H18G10448   6.615   1.762   5.224  1.7234 -1.9018  0.2098
  103OSM   H18H10449   6.735   1.745   5.094  0.4848  0.9304 -0.4675
  104OSM      N10450   6.103   1.936   6.985  0.6544  0.4848  0.4437
  104OSM    C1510451   6.105   2.081   6.967 -0.1189 -0.2569  0.5590
  104OSM   H15A10452   6.200   2.115   6.928 -1.1354 -0.6428 -2.5135
  104OSM   H15B10453   6.066   2.136   7.051 -0.6612 -0.4160  0.4133
  104OSM   H15C10454   6.033   2.105   6.890  1.0128  0.8198 -0.1997
  104OSM    C1410455   6.197   1.891   7.090 -0.1645  0.2933  0.2297
  104OSM   H14A10456   6.199   1.952   7.179 -0.2897 -0.6897  0.9163
  104OSM   H14B10457   6.299   1.887   7.055  0.0716  0.2666  0.9215
  104OSM   H14C10458   6.173   1.788   7.113  1.5662  0.1111  1.4053
  104OSM    C1310459   5.963   1.895   7.026  0.5074  0.0532 -0.0474
  104OSM   H13A10460   5.938   1.938   7.122  3.1488 -2.0155  1.7302
  104OSM   H13B10461   5.957   1.787   7.031  1.7227 -0.0981 -1.3286
  104OSM   H13C10462   5.890   1.918   6.951 -1.3381 -1.1080  1.3109
  104OSM    C1210463   6.139   1.856   6.857 -0.0976  0.6546 -0.5281
  104OSM   H12A10464   6.067   1.868   6.778  0.5905 -0.0972 -1.3065
  104OSM   H12B10465   6.141   1.753   6.890 -0.6015  1.1467  1.1361
  104OSM    C1110466   6.276   1.879   6.791 -0.9155  0.2324 -0.0495
  104OSM   H11A10467   6.285   1.988   6.772 -0.2057  0.2644  0.4392
  104OSM   H11B10468   6.276   1.822   6.695  1.1509  0.3272 -0.1489
  104OSM      P10469   6.409   1.674   6.891 -0.1755 -0.2199 -0.0710
  104OSM    O1310470   6.523   1.645   6.980 -0.0265  0.2109  0.1054
  104OSM    O1410471   6.278   1.610   6.919  0.4419 -0.2074 -0.0335
  104OSM    O1110472   6.453   1.641   6.746  0.8680 -0.0694  0.5300
  104OSM    O1210473   6.386   1.829   6.878  0.5548  0.2042 -0.2599
  104OSM    C1S10474   6.560   1.720   6.682  0.1248  0.3506  0.0125
  104OSM    H1S10475   6.654   1.713   6.741 -0.0948  0.0084  0.3262
  104OSM    H1T10476   6.534   1.828   6.680 -0.2215  0.2745  0.2968
  104OSM     NF10477   6.700   1.760   6.485 -0.1576  0.0989  0.4658
  104OSM    HNF10478   6.695   1.852   6.446  0.1057 -0.2001 -0.3021
  104OSM    C2S10479   6.572   1.699   6.531  0.1594  0.1386  0.5863
  104OSM    H2S10480   6.584   1.591   6.508 -0.3103  0.6259 -2.3188
  104OSM    C3S10481   6.445   1.749   6.452  0.5485 -0.3978 -0.4724
  104OSM    H3S10482   6.416   1.852   6.481  0.2482 -0.2725 -1.2052
  104OSM     O310483   6.325   1.680   6.488 -0.2423 -0.3114  0.0407
  104OSM    HO310484   6.352   1.613   6.551 -1.1880  0.2860  1.1327
  104OSM    C4S10485   6.451   1.736   6.305 -0.1951  0.2259 -0.4457
  104OSM    H4S10486   6.441   1.634   6.264 -2.7609 -0.1795  0.9518
  104OSM    C5S10487   6.481   1.842   6.227 -0.4452 -0.1345  0.3554
  104OSM    H5S10488   6.509   1.941   6.264 -0.9728 -0.0085  0.4269
  104OSM    C6S10489   6.518   1.835   6.084  0.0737 -0.2487 -0.2276
  104OSM    H6S10490   6.481   1.929   6.037 -2.5045 -1.4007 -0.6461
  104OSM    H6T10491   6.460   1.766   6.019  1.8172  0.0485 -2.1945
  104OSM    C7S10492   6.673   1.813   6.058  0.8278  0.5487 -0.5392
  104OSM    H7S10493   6.678   1.768   5.957  2.1558 -0.2554 -0.1441
  104OSM    H7T10494   6.715   1.736   6.126 -0.0260 -1.3851 -2.1192
  104OSM    C8S10495   6.746   1.946   6.061  0.4512  0.0984 -0.1471
  104OSM    H8S10496   6.752   1.969   6.169 -0.0641 -2.6985  0.5539
  104OSM    H8T10497   6.684   2.017   6.001 -2.2873 -0.3484  1.9696
  104OSM    C9S10498   6.891   1.929   6.009 -0.3993  0.0366  0.1413
  104OSM    H9S10499   6.934   1.848   6.072 -2.0036  0.5574  1.9972
  104OSM    H9T10500   6.956   2.015   6.035  1.5408 -1.0931 -0.7473
  104OSM   C10S10501   6.904   1.901   5.861 -0.6074  0.6323  0.2279
  104OSM   H10S10502   6.853   1.981   5.803 -2.2965 -3.2278 -4.2570
  104OSM   H10T10503   6.864   1.800   5.837  0.0305 -0.5295  3.5903
  104OSM   C11S10504   7.045   1.920   5.807  0.0364 -0.1797 -0.5905
  104OSM   H11S10505   7.127   1.883   5.872 -0.0098 -0.9048 -0.9367
  104OSM   H11T10506   7.068   2.028   5.798 -1.9953  0.1546 -2.9118
  104OSM   C12S10507   7.056   1.860   5.666 -0.1417  0.0751  0.6819
  104OSM   H12S10508   6.978   1.917   5.609  1.5605  0.4303 -1.4276
  104OSM   H12T10509   7.015   1.758   5.681 -2.2602  0.5820 -1.0065
  104OSM   C13S10510   7.200   1.859   5.615 -0.4396  0.0037 -0.0486
  104OSM   H13S10511   7.218   1.806   5.519 -0.3939  2.7256 -1.6229
  104OSM   H13T10512   7.261   1.803   5.690 -0.8739  0.6795  0.8296
  104OSM   C14S10513   7.259   1.998   5.588  0.3028  0.6824 -0.0759
  104OSM   H14S10514   7.230   2.066   5.671 -0.5284 -1.2551  1.3071
  104OSM   H14T10515   7.210   2.030   5.494  0.6455  0.6119 -0.2775
  104OSM   C15S10516   7.405   1.993   5.560  0.5652  0.0657 -0.8898
  104OSM   H15S10517   7.417   1.913   5.484 -1.4692 -1.6398  0.4631
  104OSM   H15T10518   7.454   1.951   5.651  0.7454  0.3746 -0.8401
  104OSM   C16S10519   7.460   2.129   5.522  0.1116  0.9394 -0.3914
  104OSM   H16S10520   7.498   2.176   5.615  1.2307 -0.1092 -0.3058
  104OSM   H16T10521   7.383   2.201   5.484  0.1006  0.6092 -1.0160
  104OSM   C17S10522   7.582   2.117   5.422  0.1315 -0.2694  0.2582
  104OSM   H17S10523   7.652   2.053   5.479  0.3506  0.5420  0.9111
  104OSM   H17T10524   7.634   2.216   5.425 -1.9577  0.8774  0.4688
  104OSM   C18S10525   7.552   2.085   5.277 -0.2867  0.8246 -0.7124
  104OSM   H18S10526   7.640   2.088   5.211  1.4258  2.4053  1.4940
  104OSM   H18T10527   7.473   2.151   5.236  0.0196 -0.3814 -3.4179
  104OSM   H18U10528   7.520   1.978   5.271  4.0619 -0.6705 -0.9110
  104OSM    C1F10529   6.818   1.700   6.494  0.2342 -0.0122  0.2770
  104OSM     OF10530   6.819   1.607   6.571 -0.9542  0.1456 -0.2012
  104OSM    C2F10531   6.936   1.756   6.422 -0.3608  0.1416 -0.2765
  104OSM    H2F10532   7.017   1.755   6.498  0.5399 -0.7552 -1.1981
  104OSM    H2G10533   6.922   1.859   6.384 -4.5689 -0.5581 -1.1567
  104OSM    C3F10534   6.983   1.669   6.304 -0.4341  0.0707  0.7226
  104OSM    H3F10535   6.901   1.661   6.229 -1.0958  1.8965  1.1993
  104OSM    H3G10536   7.003   1.566   6.339 -0.0162  0.2034  0.8713
  104OSM    C4F10537   7.105   1.734   6.241 -0.4602  0.5112  1.0187
  104OSM    H4F10538   7.190   1.723   6.311  0.8515  2.1205 -0.2383
  104OSM    H4G10539   7.096   1.844   6.225  1.9890  0.6626  0.2287
  104OSM    C5F10540   7.141   1.659   6.110 -0.0874  0.2884  0.4148
  104OSM    H5F10541   7.225   1.717   6.066 -0.2930 -1.1867 -2.1444
  104OSM    H5G10542   7.057   1.676   6.039 -1.5992 -3.1142  1.1558
  104OSM    C6F10543   7.164   1.513   6.114  0.9197 -0.1056  0.5286
  104OSM    H6F10544   7.069   1.457   6.102  0.2985  0.9836  0.2204
  104OSM    H6G10545   7.223   1.483   6.204  1.3129 -1.8066 -0.2615
  104OSM    C7F10546   7.246   1.472   5.990  0.1695  0.2060  0.2205
  104OSM    H7F10547   7.350   1.508   6.005  0.0025  1.0920 -0.6593
  104OSM    H7G10548   7.204   1.529   5.905 -0.0538  0.6723  0.6402
  104OSM    C8F10549   7.236   1.322   5.939 -0.3431  0.7119 -0.5739
  104OSM    H8F10550   7.290   1.300   5.843  0.2621  1.3008 -0.3773
  104OSM    H8G10551   7.130   1.308   5.909 -0.3146 -2.9418  0.5330
  104OSM    C9F10552   7.278   1.209   6.032  0.1650  0.2247 -0.1752
  104OSM    H9F10553   7.197   1.141   6.062 -0.9393  1.1620 -0.9278
  104OSM   C10F10554   7.405   1.167   6.050  0.3956  0.8889  0.3732
  104OSM   H10F10555   7.419   1.082   6.119  0.1190  1.7218  1.5006
  104OSM   C11F10556   7.526   1.242   5.999  0.5990  0.4406  0.0214
  104OSM   H11F10557   7.530   1.338   6.054  2.7235 -1.6871  4.0658
  104OSM   H11G10558   7.519   1.268   5.891 -0.6163  1.6757  0.3751
  104OSM   C12F10559   7.662   1.173   6.015 -0.5650  0.0477  0.1290
  104OSM   H12F10560   7.666   1.140   6.121 -1.2786  1.2236  0.5330
  104OSM   H12G10561   7.742   1.248   6.006 -1.8212  1.5116  0.7655
  104OSM   C13F10562   7.679   1.052   5.925 -0.9439 -0.5449  0.3773
  104OSM   H13F10563   7.725   1.081   5.829 -0.9959 -1.1084  0.1774
  104OSM   H13G10564   7.587   0.997   5.895 -0.6542 -1.4303  1.0399
  104OSM   C14F10565   7.778   0.952   5.977 -0.7496  0.5223 -0.2981
  104OSM   H14F10566   7.874   0.997   6.010 -2.1613  3.6981 -0.1643
  104OSM   H14G10567   7.781   0.880   5.893 -0.5008 -0.4592  0.5344
  104OSM   C15F10568   7.724   0.871   6.097 -0.1301  0.4205  0.6654
  104OSM   H15F10569   7.614   0.856   6.100  0.1325 -2.5443 -0.3230
  104OSM   H15G10570   7.749   0.923   6.191  1.2410 -0.3519  0.7614
  104OSM   C16F10571   7.785   0.731   6.122 -0.6251  0.0757  0.6780
  104OSM   H16F10572   7.757   0.693   6.223  0.3126 -2.4035  0.0771
  104OSM   H16G10573   7.896   0.738   6.118 -0.4679 -0.9553  2.3365
  104OSM   C17F10574   7.739   0.623   6.026 -0.5288 -0.2988  0.3651
  104OSM   H17F10575   7.790   0.646   5.930  0.0266 -1.2819  0.4187
  104OSM   H17G10576   7.629   0.625   6.008 -0.3166  1.5293 -1.0568
  104OSM   C18F10577   7.777   0.487   6.080 -0.3213 -0.4067  0.6356
  104OSM   H18F10578   7.882   0.499   6.115 -0.5525 -0.3937  1.3611
  104OSM   H18G10579   7.758   0.398   6.016  0.3584  0.0260 -0.1803
  104OSM   H18H10580   7.724   0.464   6.175 -0.2173 -2.0256  0.3174
  105OSM      N10581   1.127   2.484   7.052 -0.4876  0.4138 -0.2401
  105OSM    C1510582   1.226   2.542   6.959  0.4253  0.3663 -0.4642
  105OSM   H15A10583   1.203   2.648   6.952 -2.6232 -0.1097  0.8669
  105OSM   H15B10584   1.213   2.511   6.856 -0.3822 -1.9850  0.3074
  105OSM   H15C10585   1.326   2.528   6.997  1.1817  0.1112 -2.4364
  105OSM    C1410586   1.160   2.344   7.087  0.2951 -0.8417 -0.7249
  105OSM   H14A10587   1.112   2.313   7.179  2.7999  0.1341  1.0318
  105OSM   H14B10588   1.266   2.334   7.101  0.1487 -0.4759  0.8513
  105OSM   H14C10589   1.132   2.277   7.008  1.6675  0.1711 -2.1391
  105OSM    C1310590   1.129   2.560   7.178 -0.0120  1.0890  0.0061
  105OSM   H13A10591   1.100   2.663   7.167 -2.2422  0.6436  1.2195
  105OSM   H13B10592   1.227   2.554   7.224 -0.1198  0.2637  0.1401
  105OSM   H13C10593   1.053   2.521   7.243 -0.0171  1.0440 -0.0266
  105OSM    C1210594   0.987   2.494   6.996  0.3273  0.6533 -0.7276
  105OSM   H12A10595   0.988   2.426   6.912  0.3395 -0.1256 -0.1161
  105OSM   H12B10596   0.976   2.594   6.959 -1.2327 -0.5253 -3.7692
  105OSM    C1110597   0.865   2.451   7.082  0.9553 -0.4137  0.1124
  105OSM   H11A10598   0.780   2.458   7.011  0.2554 -0.2933  0.9469
  105OSM   H11B10599   0.856   2.521   7.168 -1.1720  0.8733 -1.0787
  105OSM      P10600   0.805   2.198   7.092 -0.6860  0.2380  0.0624
  105OSM    O1310601   0.881   2.083   7.148 -0.1973  0.5519  0.2614
  105OSM    O1410602   0.668   2.223   7.140 -0.0885 -0.7361  0.2205
  105OSM    O1110603   0.816   2.193   6.932  0.0704 -0.2562 -0.1120
  105OSM    O1210604   0.883   2.322   7.129  0.5578 -0.3055 -0.9073
  105OSM    C1S10605   0.830   2.051   6.881  0.4001 -0.6404 -0.5052
  105OSM    H1S10606   0.747   1.990   6.924 -0.3766  0.5405 -0.2477
  105OSM    H1T10607   0.928   2.009   6.910  0.2769 -1.2479 -0.9635
  105OSM     NF10608   0.817   1.888   6.708  0.4033  0.3083  0.0158
  105OSM    HNF10609   0.906   1.846   6.694 -0.6141 -1.1450 -2.7758
  105OSM    C2S10610   0.812   2.034   6.727  0.6069  0.5902 -1.0526
  105OSM    H2S10611   0.715   2.073   6.689 -0.4063 -0.9631 -0.1799
  105OSM    C3S10612   0.917   2.112   6.642 -0.3144  0.8898  0.0854
  105OSM    H3S10613   1.018   2.076   6.669 -0.6736 -0.3169 -0.1377
  105OSM     O310614   0.924   2.251   6.682 -0.1962 -0.5307  0.1435
  105OSM    HO310615   0.868   2.257   6.760  2.3826  2.2715  2.0194
  105OSM    C4S10616   0.905   2.091   6.490 -0.6378  0.1074 -0.3095
  105OSM    H4S10617   0.975   2.016   6.452 -1.5993 -2.4376  2.5806
  105OSM    C5S10618   0.843   2.179   6.407  0.6420  0.3134 -0.8412
  105OSM    H5S10619   0.806   2.271   6.454 -2.4564  0.0140 -2.4361
  105OSM    C6S10620   0.847   2.192   6.259 -0.6055  0.3319 -0.5239
  105OSM    H6S10621   0.952   2.188   6.221 -0.2832 -2.6605  0.4171
  105OSM    H6T10622   0.797   2.288   6.234 -0.6979  0.4125 -0.0296
  105OSM    C7S10623   0.795   2.065   6.190  0.0345  0.4551  0.2704
  105OSM    H7S10624   0.688   2.049   6.216 -0.7719  1.1768 -2.2671
  105OSM    H7T10625   0.845   1.974   6.228  1.4903  1.5057  0.9345
  105OSM    C8S10626   0.816   2.077   6.037 -0.3056 -0.1961 -0.3624
  105OSM    H8S10627   0.767   1.986   5.998 -3.1017  0.1639  1.9718
  105OSM    H8T10628   0.927   2.085   6.032 -0.1316 -1.5942  0.6971
  105OSM    C9S10629   0.744   2.189   5.964 -1.0434  0.2334  0.4034
  105OSM    H9S10630   0.775   2.168   5.860  1.7203  1.2503  0.9326
  105OSM    H9T10631   0.802   2.280   5.992  1.4149 -1.1025 -0.1778
  105OSM   C10S10632   0.591   2.190   5.975  0.7746 -0.1432  0.6082
  105OSM   H10S10633   0.562   2.204   6.082  1.9142 -1.7321  1.1627
  105OSM   H10T10634   0.563   2.088   5.942 -1.5111  1.0379 -1.4106
  105OSM   C11S10635   0.534   2.294   5.874  0.3962 -0.2619 -0.0215
  105OSM   H11S10636   0.425   2.279   5.860  0.2614  1.2188 -0.7959
  105OSM   H11T10637   0.587   2.268   5.779  1.4096 -0.0159  0.4614
  105OSM   C12S10638   0.563   2.439   5.916 -0.4414  0.4916  0.1548
  105OSM   H12S10639   0.673   2.449   5.927 -0.4411 -0.8845  1.9164
  105OSM   H12T10640   0.507   2.445   6.011 -0.9321 -1.9833  0.1091
  105OSM   C13S10641   0.515   2.542   5.817  0.5005 -0.1045 -0.2699
  105OSM   H13S10642   0.538   2.642   5.860  1.2041 -0.6778  0.7565
  105OSM   H13T10643   0.405   2.553   5.818  0.3135 -0.6499  3.5001
  105OSM   C14S10644   0.573   2.527   5.677 -0.0842  0.8487  0.2178
  105OSM   H14S10645   0.529   2.431   5.643 -0.2291 -0.1113  2.8989
  105OSM   H14T10646   0.682   2.513   5.661 -0.3885 -0.0300 -1.3171
  105OSM   C15S10647   0.527   2.628   5.576  0.7545 -0.3955  0.7706
  105OSM   H15S10648   0.537   2.726   5.627  0.0605  0.2044 -0.2081
  105OSM   H15T10649   0.421   2.621   5.542  1.3096  3.5550 -2.4707
  105OSM   C16S10650   0.607   2.626   5.444  0.5190 -0.3058 -0.5810
  105OSM   H16S10651   0.718   2.628   5.452  0.6240  2.3875 -1.8437
  105OSM   H16T10652   0.581   2.712   5.379  0.8275  1.4043  1.4827
  105OSM   C17S10653   0.569   2.507   5.352 -0.3008 -0.2405 -0.0555
  105OSM   H17S10654   0.458   2.500   5.346 -0.3487  1.2689 -4.8510
  105OSM   H17T10655   0.603   2.415   5.403 -1.3758  0.3836  1.9181
  105OSM   C18S10656   0.607   2.520   5.204  0.2176 -0.0886  0.7620
  105OSM   H18S10657   0.717   2.532   5.189  0.2648 -2.2492 -1.0694
  105OSM   H18T10658   0.552   2.593   5.141 -2.4697 -1.4678  1.3732
  105OSM   H18U10659   0.590   2.420   5.161 -0.9224  0.3790  0.0891
  105OSM    C1F10660   0.722   1.799   6.728  0.1465  0.6001 -0.0952
  105OSM     OF10661   0.609   1.824   6.755  0.2655  0.6296 -0.4128
  105OSM    C2F10662   0.757   1.654   6.722  0.1886  0.4458  0.8437
  105OSM    H2F10663   0.671   1.592   6.755 -0.2699  0.6687  0.1057
  105OSM    H2G10664   0.838   1.626   6.793  1.1842  0.6531 -0.1703
  105OSM    C3F10665   0.778   1.618   6.579 -0.9242  0.2043  0.6252
  105OSM    H3F10666   0.801   1.510   6.568 -3.3707 -0.2702 -0.4092
  105OSM    H3G10667   0.867   1.670   6.537 -1.1774 -0.2753 -0.5358
  105OSM    C4F10668   0.656   1.636   6.483  0.0289  0.0158 -0.0454
  105OSM    H4F10669   0.628   1.738   6.451  0.7950  0.6755  1.3095
  105OSM    H4G10670   0.572   1.579   6.528  1.9313 -1.9261  1.2311
  105OSM    C5F10671   0.675   1.568   6.345  0.7755  0.1016 -0.2134
  105OSM    H5F10672   0.571   1.547   6.313 -0.4428  1.1175  2.7386
  105OSM    H5G10673   0.727   1.472   6.366 -1.3131 -1.1391 -0.4350
  105OSM    C6F10674   0.764   1.668   6.256  0.5940  0.3308 -0.7731
  105OSM    H6F10675   0.839   1.725   6.315 -1.2387  2.1473 -0.1092
  105OSM    H6G10676   0.703   1.745   6.204  1.0433  0.0200 -1.7984
  105OSM    C7F10677   0.830   1.595   6.149 -1.4579 -0.1730 -0.9820
  105OSM    H7F10678   0.755   1.569   6.070 -2.0135 -1.8158  0.0349
  105OSM    H7G10679   0.865   1.494   6.178 -0.6013  0.4944  0.3681
  105OSM    C8F10680   0.938   1.685   6.083 -0.1761 -0.0240  0.3893
  105OSM    H8F10681   1.007   1.724   6.161  1.1153 -1.1912 -0.1309
  105OSM    H8G10682   0.877   1.763   6.032 -1.3694 -1.5273 -0.5691
  105OSM    C9F10683   1.018   1.593   6.002 -0.2932 -0.1025 -0.2311
  105OSM    H9F10684   1.103   1.548   6.055  0.4953  1.3924 -0.1759
  105OSM   C10F10685   1.008   1.555   5.877  0.2719 -0.5456  0.1867
  105OSM   H10F10686   1.079   1.489   5.825 -0.9146 -0.8981 -1.0524
  105OSM   C11F10687   0.904   1.605   5.782  0.2335 -0.3008  0.6436
  105OSM   H11F10688   0.943   1.687   5.718 -2.5361 -0.5731 -1.6267
  105OSM   H11G10689   0.813   1.641   5.835  0.1760 -0.6004  0.7493
  105OSM   C12F10690   0.856   1.491   5.692 -0.1732 -0.5557  0.7648
  105OSM   H12F10691   0.800   1.422   5.759  0.4497 -0.2580  1.6161
  105OSM   H12G10692   0.944   1.436   5.653 -0.2107 -0.4773  0.5710
  105OSM   C13F10693   0.771   1.541   5.574  0.6846 -0.0362  0.2382
  105OSM   H13F10694   0.691   1.595   5.629  3.3221  1.1259  3.2622
  105OSM   H13G10695   0.732   1.452   5.521 -0.5370  0.8458 -0.3890
  105OSM   C14F10696   0.848   1.624   5.476 -0.2096  0.6840 -0.0779
  105OSM   H14F10697   0.941   1.575   5.439 -1.9033 -2.2430 -0.7199
  105OSM   H14G10698   0.870   1.728   5.510 -2.1671  1.0177  0.2950
  105OSM   C15F10699   0.765   1.641   5.344  0.9157 -0.1783 -0.3605
  105OSM   H15F10700   0.674   1.700   5.367  0.4334 -0.2069 -2.0895
  105OSM   H15G10701   0.734   1.538   5.316 -0.3512 -0.3571  1.4653
  105OSM   C16F10702   0.846   1.717   5.243  0.0015 -0.3118 -0.5787
  105OSM   H16F10703   0.938   1.660   5.220  1.2432  2.3030 -2.6039
  105OSM   H16G10704   0.875   1.817   5.279 -0.7569 -0.4385  0.4533
  105OSM   C17F10705   0.761   1.742   5.109 -0.1377 -0.8448 -0.1614
  105OSM   H17F10706   0.822   1.809   5.045  0.0396 -0.8024  0.0529
  105OSM   H17G10707   0.670   1.798   5.140  0.5099  0.0674  0.1013
  105OSM   C18F10708   0.722   1.622   5.021 -0.1020  0.7531 -0.0297
  105OSM   H18F10709   0.669   1.653   4.928 -1.4458  0.2564  0.5463
  105OSM   H18G10710   0.641   1.555   5.056 -1.6350  1.4133 -2.0994
  105OSM   H18H10711   0.806   1.554   4.995 -0.8203 -0.6273  1.1176
  106OSM      N10712   6.393   0.443   6.882 -0.3856  0.4190 -0.4014
  106OSM    C1510713   6.393   0.593   6.860  0.0058  0.5414 -1.0983
  106OSM   H15A10714   6.389   0.629   6.962 -0.5262 -0.0064 -0.9169
  106OSM   H15B10715   6.308   0.626   6.802 -1.6076  0.3808  1.0248
  106OSM   H15C10716   6.487   0.621   6.815  2.4048 -0.9608  2.4908
  106OSM    C1410717   6.407   0.370   6.747  0.4178  0.4679  0.5682
  106OSM   H14A10718   6.333   0.408   6.679  1.3255  0.8271 -0.2417
  106OSM   H14B10719   6.376   0.267   6.759  1.0128 -0.0559 -1.7713
  106OSM   H14C10720   6.505   0.399   6.711  0.9522 -2.3196 -0.5232
  106OSM    C1310721   6.511   0.411   6.964  0.2206 -0.1077  1.0803
  106OSM   H13A10722   6.508   0.465   7.058  1.8486  1.1231  0.4683
  106OSM   H13B10723   6.603   0.428   6.911 -0.5830  0.1608 -0.2727
  106OSM   H13C10724   6.521   0.308   6.995  3.6866  0.5052  2.4679
  106OSM    C1210725   6.261   0.404   6.946 -0.1373  0.0890  0.0695
  106OSM   H12A10726   6.180   0.457   6.899 -0.1288 -0.4755 -0.5918
  106OSM   H12B10727   6.261   0.445   7.046  1.0578  0.7837 -0.2044
  106OSM    C1110728   6.241   0.252   6.966  0.2399  0.0813  0.8874
  106OSM   H11A10729   6.153   0.233   7.031 -3.3932  2.5393 -2.7896
  106OSM   H11B10730   6.327   0.201   7.012  0.2389 -1.1850 -0.4456
  106OSM      P10731   6.198   0.031   6.845  0.0757  0.3424 -0.2713
  106OSM    O1310732   6.322  -0.019   6.912 -0.0616  0.7858  0.7443
  106OSM    O1410733   6.060  -0.010   6.890  0.0166  0.0815 -0.2277
  106OSM    O1110734   6.202  -0.013   6.693  0.3219  0.2953 -0.0837
  106OSM    O1210735   6.206   0.185   6.840 -0.1463 -0.0222 -0.0318
  106OSM    C1S10736   6.288   0.057   6.597 -0.2126  0.5439 -0.0224
  106OSM    H1S10737   6.395   0.030   6.609  0.1518  1.6120 -0.7135
  106OSM    H1T10738   6.284   0.167   6.614  1.1056  0.3541  1.8362
  106OSM     NF10739   6.340   0.097   6.361  0.2585 -0.0386  0.6525
  106OSM    HNF10740   6.318   0.178   6.308  0.6589 -1.5036 -1.9484
  106OSM    C2S10741   6.244   0.032   6.452  0.0683 -0.8049 -0.5112
  106OSM    H2S10742   6.249  -0.077   6.434 -0.7074 -0.7056 -1.3943
  106OSM    C3S10743   6.094   0.065   6.428  0.0829 -0.6656  0.2827
  106OSM    H3S10744   6.075   0.175   6.430  0.0794 -0.6737  1.7852
  106OSM     O310745   5.990   0.019   6.522 -0.0597  0.2523  0.5088
  106OSM    HO310746   6.047   0.001   6.597  1.0453  2.5445  0.3106
  106OSM    C4S10747   6.058   0.032   6.282  0.7588  0.5001 -0.3775
  106OSM    H4S10748   6.075   0.114   6.211  2.5451  0.1265 -0.4122
  106OSM    C5S10749   6.000  -0.082   6.239  0.1917 -0.1445  0.2521
  106OSM    H5S10750   5.949  -0.150   6.309  0.5289 -1.2141 -0.5304
  106OSM    C6S10751   5.963  -0.108   6.097  0.5535 -0.2132 -0.1372
  106OSM    H6S10752   5.852  -0.112   6.095  0.4913 -2.4014  2.3708
  106OSM    H6T10753   6.010  -0.206   6.075  1.0098 -0.4212  1.5998
  106OSM    C7S10754   6.017   0.004   6.004  0.7350 -0.5977  1.0964
  106OSM    H7S10755   6.127   0.009   6.010  0.9081  0.6585 -1.5397
  106OSM    H7T10756   5.980   0.105   6.030  3.2894  0.2558  1.6538
  106OSM    C8S10757   5.966  -0.019   5.856  0.8457  0.1455  0.4009
  106OSM    H8S10758   5.855  -0.013   5.857  0.6361 -2.5027 -0.0649
  106OSM    H8T10759   5.984  -0.124   5.826  1.1174 -0.4520  2.4668
  106OSM    C9S10760   6.017   0.090   5.756 -0.1354  0.2783  0.1629
  106OSM    H9S10761   6.128   0.093   5.753 -0.0998 -1.0359 -0.8557
  106OSM    H9T10762   5.985   0.188   5.798 -0.8784  0.2239 -0.2565
  106OSM   C10S10763   5.971   0.060   5.619  0.2396 -0.3339  0.3364
  106OSM   H10S10764   5.860   0.072   5.625 -0.1485 -2.1473 -1.9029
  106OSM   H10T10765   5.992  -0.047   5.599  1.8227  0.2744 -1.5289
  106OSM   C11S10766   6.027   0.159   5.513  0.6425  0.3442  0.2003
  106OSM   H11S10767   6.138   0.159   5.499  0.5028 -4.0785 -2.7636
  106OSM   H11T10768   5.990   0.260   5.544  0.7274  0.9538 -1.5559
  106OSM   C12S10769   5.969   0.128   5.378 -0.0184 -1.0715  0.8385
  106OSM   H12S10770   5.867   0.171   5.385  0.1241 -0.2152 -1.3805
  106OSM   H12T10771   5.964   0.021   5.346 -2.1474 -1.0219  0.8609
  106OSM   C13S10772   6.034   0.202   5.255  0.9688  1.0104 -0.4581
  106OSM   H13S10773   6.081   0.290   5.304  0.0912  1.0928  0.2646
  106OSM   H13T10774   5.952   0.223   5.184 -0.5966 -3.2166 -0.1727
  106OSM   C14S10775   6.149   0.123   5.190 -0.5930  0.6753  0.0899
  106OSM   H14S10776   6.108   0.027   5.153  1.5199 -1.1514  2.2105
  106OSM   H14T10777   6.228   0.103   5.266 -0.5653 -1.8979 -0.5256
  106OSM   C15S10778   6.210   0.186   5.062  0.7900  0.7319 -0.1047
  106OSM   H15S10779   6.297   0.128   5.023 -2.1829 -3.3830 -1.2543
  106OSM   H15T10780   6.257   0.282   5.093 -1.1375  1.6981 -0.0811
  106OSM   C16S10781   6.109   0.212   4.949 -0.4438 -0.1594 -0.0724
  106OSM   H16S10782   6.146   0.288   4.878 -2.5812  1.1087  0.0921
  106OSM   H16T10783   6.017   0.261   4.985 -0.8154  0.2192 -1.4983
  106OSM   C17S10784   6.079   0.087   4.866 -0.0489 -0.0276  0.1383
  106OSM   H17S10785   6.002   0.115   4.791 -2.3925  0.8900  2.7086
  106OSM   H17T10786   6.033   0.008   4.929 -0.5798 -0.0238 -0.2339
  106OSM   C18S10787   6.197   0.021   4.797 -0.5009  0.4570  0.9235
  106OSM   H18S10788   6.241   0.096   4.728 -0.2799  0.7533  1.3854
  106OSM   H18T10789   6.155  -0.063   4.738 -1.4003  0.0829  2.0673
  106OSM   H18U10790   6.273  -0.027   4.861  0.0269 -0.2340 -0.1944
  106OSM    C1F10791   6.462   0.042   6.334 -0.1080 -0.4408  0.0176
  106OSM     OF10792   6.502  -0.061   6.386 -0.3800  0.1314  0.4637
  106OSM    C2F10793   6.551   0.126   6.239  0.2842 -0.6578 -0.3147
  106OSM    H2F10794   6.569   0.222   6.291  0.3179 -0.6231 -0.3908
  106OSM    H2G10795   6.487   0.154   6.153  1.4401  0.9951 -0.6689
  106OSM    C3F10796   6.693   0.074   6.202 -0.1326 -0.0984 -0.2624
  106OSM    H3F10797   6.666  -0.027   6.163 -0.6337 -0.0494 -0.0487
  106OSM    H3G10798   6.765   0.071   6.286 -0.6099  1.0980  0.2226
  106OSM    C4F10799   6.754   0.141   6.086  0.2623  0.5698  0.4296
  106OSM    H4F10800   6.774   0.250   6.098 -1.6186  1.0136 -0.0181
  106OSM    H4G10801   6.680   0.139   6.002  1.5699  0.0064 -0.7528
  106OSM    C5F10802   6.883   0.062   6.042 -0.3005  0.0101  0.3675
  106OSM    H5F10803   6.862  -0.047   6.039 -2.5602  0.3352  1.5599
  106OSM    H5G10804   6.957   0.090   6.121 -0.0004 -2.5509  1.0856
  106OSM    C6F10805   6.935   0.112   5.904 -0.4984  1.0505  0.5366
  106OSM    H6F10806   7.043   0.090   5.896 -0.6377  0.8821 -1.1938
  106OSM    H6G10807   6.934   0.223   5.905 -0.2867  1.0787 -0.9978
  106OSM    C7F10808   6.859   0.063   5.779  0.1802 -0.2642  0.1859
  106OSM    H7F10809   6.755   0.085   5.809 -0.3258 -2.1001 -0.1262
  106OSM    H7G10810   6.868  -0.047   5.770 -1.0498 -0.2440 -2.0182
  106OSM    C8F10811   6.898   0.153   5.656  0.1825 -0.1783 -0.5969
  106OSM    H8F10812   7.009   0.152   5.658  0.1769  0.3177  0.8928
  106OSM    H8G10813   6.867   0.258   5.675 -1.3384 -0.3976 -1.6346
  106OSM    C9F10814   6.845   0.106   5.522  0.8231 -0.5256  0.4240
  106OSM    H9F10815   6.806   0.003   5.516  3.2565 -1.5003 -4.2019
  106OSM   C10F10816   6.866   0.165   5.398 -0.2195  0.4918 -0.1775
  106OSM   H10F10817   6.821   0.116   5.310  1.2334  0.4997 -0.9670
  106OSM   C11F10818   6.954   0.280   5.367  0.0062 -0.0118 -0.5251
  106OSM   H11F10819   6.948   0.348   5.455 -3.2079 -2.2205  1.1847
  106OSM   H11G10820   6.910   0.331   5.279 -1.8645 -0.4199  0.1203
  106OSM   C12F10821   7.095   0.236   5.334  0.1337  0.0330  0.0229
  106OSM   H12F10822   7.132   0.183   5.424 -2.1556 -1.4664  0.1510
  106OSM   H12G10823   7.164   0.319   5.307  0.1908 -0.6177 -1.9221
  106OSM   C13F10824   7.100   0.144   5.206 -0.5333 -1.2206  0.1128
  106OSM   H13F10825   7.036   0.188   5.126 -3.3772 -1.9715  1.8562
  106OSM   H13G10826   7.046   0.053   5.238 -1.4185 -0.5104  0.6772
  106OSM   C14F10827   7.239   0.110   5.164  0.1648 -0.3206  0.2586
  106OSM   H14F10828   7.296   0.066   5.248 -1.5254 -2.9924  0.1456
  106OSM   H14G10829   7.286   0.208   5.139 -1.6709 -0.0201 -2.5543
  106OSM   C15F10830   7.248   0.013   5.046  0.5033  0.2091 -0.0155
  106OSM   H15F10831   7.354   0.026   5.016  0.6047 -0.2483  0.1302
  106OSM   H15G10832   7.178   0.041   4.964  2.5480 -0.4316 -2.0743
  106OSM   C16F10833   7.227  -0.139   5.076  0.7324 -0.2078 -0.4915
  106OSM   H16F10834   7.118  -0.157   5.085  0.8855 -1.1065 -0.3753
  106OSM   H16G10835   7.291  -0.163   5.163 -0.9686  0.2731  0.9414
  106OSM   C17F10836   7.267  -0.230   4.957 -0.4437  0.1232  0.2201
  106OSM   H17F10837   7.252  -0.331   5.001 -1.6986  0.7238  1.2355
  106OSM   H17G10838   7.375  -0.210   4.941 -0.0921 -0.8201  1.2817
  106OSM   C18F10839   7.185  -0.209   4.828  0.5528  0.1047 -0.0409
  106OSM   H18F10840   7.202  -0.105   4.794 -1.1158  0.0068 -1.2952
  106OSM   H18G10841   7.076  -0.222   4.846  0.3301 -0.0859 -1.4297
  106OSM   H18H10842   7.212  -0.276   4.744  0.6842 -0.3686  0.3675
  107OSM      N10843   6.397   4.791   6.955  0.0730  0.5533 -0.1060
  107OSM    C1510844   6.445   4.929   7.002  0.0836  0.4775  0.3691
  107OSM   H15A10845   6.366   5.002   6.994 -1.3500 -1.1229 -0.9845
  107OSM   H15B10846   6.522   4.952   6.929  0.6835 -4.2399 -0.8463
  107OSM   H15C10847   6.487   4.922   7.101 -0.5332 -0.3176  0.5850
  107OSM    C1410848   6.311   4.743   7.067  0.1421 -0.6408  0.3080
  107OSM   H14A10849   6.228   4.812   7.072 -0.7383 -0.9850 -4.6949
  107OSM   H14B10850   6.367   4.744   7.159  1.8542 -2.6852 -0.6272
  107OSM   H14C10851   6.260   4.651   7.043  0.0303 -0.4448 -0.2205
  107OSM    C1310852   6.317   4.810   6.826  0.3349  0.5052  0.5037
  107OSM   H13A10853   6.231   4.875   6.830 -0.3305 -0.2320 -0.8342
  107OSM   H13B10854   6.273   4.713   6.807  0.1047  1.0127 -1.9056
  107OSM   H13C10855   6.384   4.852   6.752  2.0574  2.3204  2.9623
  107OSM    C1210856   6.525   4.702   6.945  0.1797 -0.1368  1.2197
  107OSM   H12A10857   6.492   4.599   6.945 -1.0507  0.2350  0.5834
  107OSM   H12B10858   6.579   4.715   7.038 -0.8151 -0.0829  1.8013
  107OSM    C1110859   6.613   4.731   6.819  0.4956 -0.0445  0.2387
  107OSM   H11A10860   6.562   4.701   6.725  1.2068 -1.2607  0.2164
  107OSM   H11B10861   6.694   4.656   6.809  0.2014 -0.5470  1.4082
  107OSM      P10862   6.800   4.902   6.897  0.2449 -0.0147 -0.0030
  107OSM    O1310863   6.804   5.044   6.930 -0.1603 -0.1979 -0.2569
  107OSM    O1410864   6.816   4.816   7.016  0.6560 -0.6111 -0.2584
  107OSM    O1110865   6.910   4.867   6.794  0.0640 -0.0704 -0.1266
  107OSM    O1210866   6.668   4.862   6.821 -0.2277 -0.4461  0.8594
  107OSM    C1S10867   6.884   4.902   6.659 -0.1060 -0.4095  0.1330
  107OSM    H1S10868   6.914   5.008   6.648 -3.1813  0.6195  0.5182
  107OSM    H1T10869   6.777   4.901   6.628 -0.3378 -0.2282  0.9094
  107OSM     NF10870   6.962   4.867   6.428 -0.2297  0.6920 -0.6457
  107OSM    HNF10871   6.905   4.817   6.363 -1.3112 -0.4029  1.0669
  107OSM    C2S10872   6.971   4.816   6.561 -0.3663 -0.1650  0.0227
  107OSM    H2S10873   7.078   4.828   6.587 -0.4722  1.5296 -0.1477
  107OSM    C3S10874   6.923   4.673   6.577  0.0677  0.3523 -0.7422
  107OSM    H3S10875   6.815   4.674   6.551 -0.1846 -0.7301  0.1659
  107OSM     O310876   6.953   4.606   6.702 -0.0049 -0.2637  0.8667
  107OSM    HO310877   6.951   4.672   6.772  1.7063 -0.6348  1.3039
  107OSM    C4S10878   6.994   4.585   6.473  0.1037  0.3626  0.0244
  107OSM    H4S10879   6.928   4.550   6.392  1.1027 -0.0574 -0.6215
  107OSM    C5S10880   7.119   4.545   6.472 -0.2527 -0.5810  1.0146
  107OSM    H5S10881   7.174   4.567   6.565 -0.5425  0.7291  0.8943
  107OSM    C6S10882   7.191   4.460   6.373  0.0263 -0.2286 -0.1812
  107OSM    H6S10883   7.261   4.392   6.427 -1.5135 -2.4610 -0.8578
  107OSM    H6T10884   7.255   4.531   6.317  0.4431 -0.5317 -0.0984
  107OSM    C7S10885   7.098   4.387   6.271  0.3003 -0.1866 -0.0090
  107OSM    H7S10886   7.020   4.458   6.234  0.0492 -0.1897  0.5141
  107OSM    H7T10887   7.049   4.296   6.310  0.7737 -0.4042  0.0914
  107OSM    C8S10888   7.182   4.336   6.155 -1.3126  0.1828  0.0770
  107OSM    H8S10889   7.249   4.261   6.202 -1.1920  1.0665  1.3910
  107OSM    H8T10890   7.245   4.413   6.107  0.8741 -2.1149 -0.9380
  107OSM    C9S10891   7.108   4.271   6.041 -0.1451 -0.2846 -0.9667
  107OSM    H9S10892   7.035   4.346   6.005  0.1212 -0.6709 -2.3795
  107OSM    H9T10893   7.061   4.188   6.097  1.2648  0.9364  2.2317
  107OSM   C10S10894   7.199   4.215   5.929 -0.2723 -0.2480 -0.0872
  107OSM   H10S10895   7.256   4.128   5.968 -1.8572 -1.1748  0.2482
  107OSM   H10T10896   7.271   4.296   5.903  1.6925 -1.9197 -0.0656
  107OSM   C11S10897   7.134   4.172   5.802  0.2218  0.2309 -0.8779
  107OSM   H11S10898   7.046   4.116   5.839  1.3779 -0.0399  1.7593
  107OSM   H11T10899   7.198   4.097   5.752 -1.1499  0.6973 -3.5218
  107OSM   C12S10900   7.094   4.278   5.700  1.4288  0.3272 -0.1150
  107OSM   H12S10901   7.043   4.364   5.749  0.4293  0.4587 -1.3315
  107OSM   H12T10902   7.026   4.235   5.624  2.0243 -0.7137 -0.0718
  107OSM   C13S10903   7.211   4.343   5.631  0.0614 -0.1716  0.2803
  107OSM   H13S10904   7.273   4.262   5.587  0.0621 -0.1228  0.1903
  107OSM   H13T10905   7.275   4.395   5.705 -1.6511  2.2667  0.1546
  107OSM   C14S10906   7.171   4.447   5.521  0.4033  0.1524  0.5999
  107OSM   H14S10907   7.251   4.521   5.501 -1.4185  1.9022 -0.4886
  107OSM   H14T10908   7.085   4.511   5.549 -0.2366  0.5166 -2.0108
  107OSM   C15S10909   7.153   4.391   5.379  0.4677 -0.4557  0.5281
  107OSM   H15S10910   7.088   4.460   5.320  0.2991 -1.5403 -0.6056
  107OSM   H15T10911   7.089   4.300   5.387 -3.4892  2.0897  0.5985
  107OSM   C16S10912   7.285   4.346   5.318 -0.1417  0.3301  0.0685
  107OSM   H16S10913   7.324   4.273   5.392 -1.6606 -0.0567  0.5199
  107OSM   H16T10914   7.345   4.439   5.315  1.1109 -0.4014  1.3727
  107OSM   C17S10915   7.289   4.280   5.184  0.0188 -0.0111 -0.2040
  107OSM   H17S10916   7.254   4.175   5.199  0.9022 -0.4346 -1.0231
  107OSM   H17T10917   7.396   4.274   5.153  0.2491  0.5059  0.4600
  107OSM   C18S10918   7.218   4.345   5.062  0.0200 -0.4307 -0.1633
  107OSM   H18S10919   7.244   4.452   5.053 -0.3010 -0.2527  0.8880
  107OSM   H18T10920   7.109   4.340   5.085 -0.2953 -3.0921 -1.7372
  107OSM   H18U10921   7.245   4.292   4.968  1.0295 -0.4746  0.1452
  107OSM    C1F10922   7.012   4.984   6.382 -0.0269 -0.6846  0.4718
  107OSM     OF10923   7.073   5.061   6.456 -0.3536 -0.1276 -1.2115
  107OSM    C2F10924   6.980   5.025   6.240 -0.1466 -0.2653  0.1279
  107OSM    H2F10925   7.080   5.041   6.194  0.4335 -1.2152  1.0112
  107OSM    H2G10926   6.927   5.123   6.234 -0.8272 -0.7188 -1.8027
  107OSM    C3F10927   6.907   4.916   6.161  0.1744  0.0529  0.3796
  107OSM    H3F10928   6.883   4.966   6.065 -3.6588  3.3718  2.7515
  107OSM    H3G10929   6.809   4.900   6.212  0.1972  1.3122  0.8554
  107OSM    C4F10930   6.993   4.789   6.119 -0.6827 -0.0855 -0.4686
  107OSM    H4F10931   7.057   4.754   6.203 -0.6301  2.3361  0.6131
  107OSM    H4G10932   7.061   4.830   6.042 -0.9213  0.7752 -0.2375
  107OSM    C5F10933   6.911   4.668   6.062  0.0932 -0.0281  0.1313
  107OSM    H5F10934   6.849   4.620   6.140 -0.1593  0.9121  0.5243
  107OSM    H5G10935   6.980   4.587   6.030 -0.2295 -0.7666  1.2497
  107OSM    C6F10936   6.826   4.696   5.943  0.0425 -0.1198  0.5556
  107OSM    H6F10937   6.889   4.728   5.858 -0.1100 -1.8787 -0.2523
  107OSM    H6G10938   6.759   4.781   5.969  1.9586  1.8196 -0.5486
  107OSM    C7F10939   6.741   4.579   5.900 -0.1961 -0.7096  0.0446
  107OSM    H7F10940   6.653   4.570   5.967  0.3869  0.7796  1.0726
  107OSM    H7G10941   6.797   4.483   5.903 -0.6918 -1.0186 -0.5468
  107OSM    C8F10942   6.688   4.589   5.754  0.1986 -0.2192 -0.3230
  107OSM    H8F10943   6.683   4.699   5.741  1.4008 -0.0522  0.4137
  107OSM    H8G10944   6.585   4.550   5.741  0.8861 -2.2822 -0.0058
  107OSM    C9F10945   6.779   4.549   5.640  0.0202  1.1242 -0.0490
  107OSM    H9F10946   6.882   4.540   5.680  0.7057  2.5912 -1.3849
  107OSM   C10F10947   6.747   4.527   5.510 -0.2964  0.6911 -0.7277
  107OSM   H10F10948   6.826   4.498   5.439 -1.2686 -0.3503 -1.4119
  107OSM   C11F10949   6.618   4.550   5.440  0.5738  0.5895  0.4612
  107OSM   H11F10950   6.628   4.631   5.365 -0.7494 -0.7866 -1.2891
  107OSM   H11G10951   6.549   4.588   5.518  0.8417 -1.4754  1.7890
  107OSM   C12F10952   6.570   4.423   5.369 -0.5674  0.3886  0.0856
  107OSM   H12F10953   6.461   4.425   5.348 -0.3447 -0.7840 -1.2898
  107OSM   H12G10954   6.583   4.332   5.432  1.9654 -0.9792 -2.1999
  107OSM   C13F10955   6.627   4.390   5.229  0.0478  0.1333 -0.1496
  107OSM   H13F10956   6.736   4.376   5.247 -0.7053 -2.1543  4.0882
  107OSM   H13G10957   6.613   4.481   5.167 -1.5557 -0.4976 -0.7468
  107OSM   C14F10958   6.568   4.269   5.160  0.3799 -0.3679 -0.7005
  107OSM   H14F10959   6.460   4.293   5.144  0.0820 -2.0775 -1.4305
  107OSM   H14G10960   6.565   4.177   5.222 -1.3691  0.2945  0.2743
  107OSM   C15F10961   6.625   4.234   5.019 -0.3674 -0.0508  0.4521
  107OSM   H15F10962   6.614   4.321   4.949  2.6684 -1.8603 -2.5785
  107OSM   H15G10963   6.560   4.154   4.979  1.3220  0.0465 -2.8289
  107OSM   C16F10964   6.769   4.172   5.019  0.0206  0.2069  0.1812
  107OSM   H16F10965   6.763   4.081   5.083 -1.4712  0.4690  0.4563
  107OSM   H16G10966   6.835   4.239   5.078  0.5215 -0.3402  0.2519
  107OSM   C17F10967   6.829   4.153   4.882 -0.4591  0.3475  0.3227
  107OSM   H17F10968   6.845   4.252   4.836  0.3134  0.7076  1.3319
  107OSM   H17G10969   6.769   4.087   4.815 -0.7663  3.0275 -2.2580
  107OSM   C18F10970   6.971   4.094   4.882  1.2139 -0.6181  0.0803
  107OSM   H18F10971   7.020   4.106   4.783 -1.3577  0.5741 -1.1327
  107OSM   H18G10972   6.966   3.984   4.900 -1.5669 -0.6419 -0.3099
  107OSM   H18H10973   7.025   4.149   4.962 -0.6445 -0.7166  1.4729
  108OSM      N10974   2.684   4.382   6.855  0.4010 -0.6679 -0.5988
  108OSM    C1510975   2.801   4.419   6.947  0.2444  0.2683  0.4308
  108OSM   H15A10976   2.870   4.336   6.952 -0.7612 -0.6008  0.0943
  108OSM   H15B10977   2.770   4.425   7.050 -2.3204 -1.5459 -0.1537
  108OSM   H15C10978   2.865   4.496   6.907  0.7592 -0.3873 -0.0344
  108OSM    C1410979   2.599   4.273   6.910 -0.0627 -0.3866  0.1818
  108OSM   H14A10980   2.586   4.282   7.017 -2.1310 -1.8520  0.1156
  108OSM   H14B10981   2.644   4.176   6.891  0.5359 -0.0359 -0.2028
  108OSM   H14C10982   2.506   4.270   6.856 -0.1792 -3.6363  0.3660
  108OSM    C1310983   2.598   4.508   6.845 -0.1436 -0.2242  0.1787
  108OSM   H13A10984   2.494   4.490   6.824 -0.8818  1.3885  2.1375
  108OSM   H13B10985   2.632   4.580   6.771 -1.9124 -0.7887 -1.2639
  108OSM   H13C10986   2.594   4.547   6.946 -1.4511 -1.2826  0.5610
  108OSM    C1210987   2.744   4.347   6.718 -0.0278 -0.1131  0.2656
  108OSM   H12A10988   2.803   4.432   6.686 -2.1480  0.5461 -2.2894
  108OSM   H12B10989   2.668   4.331   6.643  1.4160 -2.8028 -0.7662
  108OSM    C1110990   2.835   4.221   6.716  0.5508  0.3344  0.1917
  108OSM   H11A10991   2.853   4.192   6.610  2.9753 -2.0495  1.1275
  108OSM   H11B10992   2.789   4.136   6.771 -1.4911 -0.4415 -2.5176
  108OSM      P10993   3.073   4.328   6.715  0.2977  0.0780 -0.0471
  108OSM    O1310994   3.048   4.473   6.732 -0.6221  0.2461 -0.1012
  108OSM    O1410995   3.204   4.278   6.769 -0.5036 -0.0051  0.0639
  108OSM    O1110996   3.053   4.287   6.568  0.1696 -0.4666  0.5892
  108OSM    O1210997   2.956   4.247   6.782 -1.0220  0.0554  0.0280
  108OSM    C1S10998   3.152   4.295   6.465 -0.1548  0.3431 -0.2921
  108OSM    H1S10999   3.238   4.225   6.477 -0.2402  0.5697  1.9992
  108OSM    H1T11000   3.203   4.393   6.463  0.7727 -0.1232 -0.3447
  108OSM     NF11001   3.192   4.257   6.222 -0.2253 -0.4984 -0.0946
  108OSM    HNF11002   3.218   4.338   6.170  0.8457 -0.5315  0.3717
  108OSM    C2S11003   3.086   4.282   6.320 -0.7240 -0.7826 -0.4434
  108OSM    H2S11004   3.011   4.200   6.313 -0.1512 -1.5078  1.3584
  108OSM    C3S11005   3.007   4.408   6.294 -0.2086 -0.3946  0.2784
  108OSM    H3S11006   3.074   4.495   6.281 -0.0904 -0.1640  2.2271
  108OSM     O311007   2.925   4.448   6.400  0.0551  0.7186  0.5511
  108OSM    HO311008   2.955   4.404   6.480 -0.0884  0.5298  0.5007
  108OSM    C4S11009   2.928   4.409   6.167  0.7476 -0.2497  0.4859
  108OSM    H4S11010   2.997   4.450   6.091  0.6308  1.5732  1.3024
  108OSM    C5S11011   2.802   4.392   6.131  0.9505 -0.4780 -0.1739
  108OSM    H5S11012   2.728   4.386   6.212  1.9250  1.6636  0.9524
  108OSM    C6S11013   2.745   4.398   5.992  0.1823 -0.6795 -0.6054
  108OSM    H6S11014   2.677   4.485   5.983  4.5781  3.0278 -1.3287
  108OSM    H6T11015   2.691   4.302   5.976 -0.3435 -0.2793 -1.3405
  108OSM    C7S11016   2.838   4.421   5.875 -0.0017  0.0818 -0.5286
  108OSM    H7S11017   2.914   4.340   5.874 -0.0805 -0.0028 -2.1757
  108OSM    H7T11018   2.891   4.516   5.898  1.5511 -0.6976 -0.6865
  108OSM    C8S11019   2.761   4.429   5.747  0.6677 -0.0768 -0.0320
  108OSM    H8S11020   2.692   4.516   5.752  1.0456  0.2556 -0.4725
  108OSM    H8T11021   2.699   4.338   5.730 -1.0360  0.7211  1.6802
  108OSM    C9S11022   2.853   4.431   5.625  0.5397  0.7014  0.3408
  108OSM    H9S11023   2.914   4.339   5.613  1.3803  1.4008 -0.9867
  108OSM    H9T11024   2.925   4.515   5.634 -2.0996  2.9711  1.7274
  108OSM   C10S11025   2.767   4.452   5.496 -0.3906 -0.2788  0.1589
  108OSM   H10S11026   2.713   4.545   5.523  0.9943  0.4855  0.4053
  108OSM   H10T11027   2.698   4.366   5.481  0.9692 -1.8592  2.2152
  108OSM   C11S11028   2.847   4.486   5.373 -0.4422  0.1510  0.4798
  108OSM   H11S11029   2.926   4.409   5.356  0.0485  0.8322 -0.4410
  108OSM   H11T11030   2.905   4.579   5.391  0.8914 -0.3343 -1.0792
  108OSM   C12S11031   2.769   4.516   5.248  0.2576 -0.7931 -0.6266
  108OSM   H12S11032   2.720   4.613   5.271  2.4482 -0.0435  1.2705
  108OSM   H12T11033   2.685   4.444   5.238 -1.5544  1.5226 -4.1473
  108OSM   C13S11034   2.847   4.530   5.120  0.3288 -0.0674  0.1044
  108OSM   H13S11035   2.930   4.458   5.103  0.8321  0.8207 -1.4149
  108OSM   H13T11036   2.895   4.628   5.142 -0.4737 -0.3595  3.6432
  108OSM   C14S11037   2.752   4.534   5.004  0.7153  0.2280  1.0876
  108OSM   H14S11038   2.666   4.603   5.018  1.3307  1.1604  0.4092
  108OSM   H14T11039   2.710   4.433   4.982 -1.6136  1.7190 -2.1434
  108OSM   C15S11040   2.819   4.567   4.866 -0.6932  0.5178 -0.1737
  108OSM   H15S11041   2.898   4.491   4.849 -2.8410 -1.9932  0.3851
  108OSM   H15T11042   2.864   4.669   4.864 -1.2503  0.7868  0.4455
  108OSM   C16S11043   2.725   4.560   4.748  1.2680  0.5417  0.0520
  108OSM   H16S11044   2.656   4.647   4.760 -0.2803 -0.9145  3.1217
  108OSM   H16T11045   2.662   4.469   4.754 -0.2485  1.5346 -0.0641
  108OSM   C17S11046   2.797   4.553   4.613 -0.2172 -0.6337 -0.1668
  108OSM   H17S11047   2.880   4.478   4.612  1.3345  1.0152 -0.8609
  108OSM   H17T11048   2.855   4.648   4.603 -0.1508 -0.5343  0.9677
  108OSM   C18S11049   2.707   4.543   4.493  0.5853 -0.5660 -0.8413
  108OSM   H18S11050   2.613   4.601   4.509  1.9358  1.1378  1.4832
  108OSM   H18T11051   2.688   4.434   4.480  1.8302 -1.2598  2.2647
  108OSM   H18U11052   2.769   4.584   4.410 -0.2000  1.0498 -0.6822
  108OSM    C1F11053   3.251   4.135   6.201 -0.1224  0.1406 -0.2229
  108OSM     OF11054   3.224   4.035   6.272 -0.0047 -0.2477 -0.3969
  108OSM    C2F11055   3.349   4.123   6.089  0.2209  0.0512  0.2204
  108OSM    H2F11056   3.442   4.180   6.111  0.4086 -0.0249 -0.3635
  108OSM    H2G11057   3.312   4.161   5.992  1.5004 -2.8729 -1.5395
  108OSM    C3F11058   3.392   3.972   6.067  0.3554 -0.0305  0.3955
  108OSM    H3F11059   3.299   3.911   6.058  0.0427  0.3083  1.2553
  108OSM    H3G11060   3.445   3.932   6.155  1.6658 -1.4463 -0.9707
  108OSM    C4F11061   3.465   3.946   5.932 -0.0980  0.0350 -0.3313
  108OSM    H4F11062   3.524   3.852   5.946 -0.2109  0.0786  0.4485
  108OSM    H4G11063   3.555   4.011   5.925 -1.5667  1.9694 -2.6865
  108OSM    C5F11064   3.373   3.953   5.807  0.2280 -0.5258  0.2023
  108OSM    H5F11065   3.317   4.049   5.801 -1.1338 -1.3851 -1.9509
  108OSM    H5G11066   3.299   3.872   5.826 -0.1916 -0.8426 -2.4103
  108OSM    C6F11067   3.450   3.949   5.678  0.0651 -0.2478 -0.1250
  108OSM    H6F11068   3.499   3.850   5.663  0.0700 -0.2584 -0.0415
  108OSM    H6G11069   3.527   4.029   5.681 -0.8558  0.6365  0.4489
  108OSM    C7F11070   3.362   3.959   5.554 -0.1681  0.0076  0.3931
  108OSM    H7F11071   3.310   4.057   5.561  0.5544  0.9289 -3.9193
  108OSM    H7G11072   3.291   3.874   5.554  0.2301 -0.3566 -0.8032
  108OSM    C8F11073   3.434   3.972   5.414 -0.1461  0.7321 -0.2464
  108OSM    H8F11074   3.488   4.069   5.407  2.8392 -0.9257 -4.8788
  108OSM    H8G11075   3.360   3.971   5.331  2.1620  0.7260 -2.4340
  108OSM    C9F11076   3.528   3.855   5.394 -0.3786 -1.1313  0.2942
  108OSM    H9F11077   3.483   3.767   5.443 -0.9734 -1.3518 -0.6388
  108OSM   C10F11078   3.649   3.850   5.324 -0.1015  0.2606 -1.1430
  108OSM   H10F11079   3.709   3.758   5.318  0.6490  0.8261 -3.6383
  108OSM   C11F11080   3.703   3.971   5.255  0.8155 -0.2096 -0.0319
  108OSM   H11F11081   3.800   4.003   5.299  0.6523 -0.7376  0.7262
  108OSM   H11G11082   3.630   4.055   5.264 -2.3353 -2.7041 -0.4629
  108OSM   C12F11083   3.737   3.932   5.113 -0.6239  0.3528  0.7051
  108OSM   H12F11084   3.651   3.884   5.062  0.1183 -0.2942  0.0543
  108OSM   H12G11085   3.815   3.854   5.124 -0.7953 -0.5418 -3.1174
  108OSM   C13F11086   3.793   4.052   5.024  0.1557  0.1283  0.2828
  108OSM   H13F11087   3.886   4.092   5.068  1.9010 -1.8446 -1.3388
  108OSM   H13G11088   3.712   4.127   5.024 -0.3107 -0.3514 -0.6033
  108OSM   C14F11089   3.817   4.002   4.877  0.1456 -0.6354 -0.0865
  108OSM   H14F11090   3.731   3.935   4.854  0.3993 -1.4048  1.1329
  108OSM   H14G11091   3.912   3.946   4.868  0.3752 -0.4486  1.0778
  108OSM   C15F11092   3.815   4.116   4.773  0.4615  0.2383  0.2395
  108OSM   H15F11093   3.904   4.180   4.790  1.7651 -1.1465 -1.1001
  108OSM   H15G11094   3.724   4.179   4.784  1.1816  1.5767 -1.1268
  108OSM   C16F11095   3.806   4.065   4.628  0.7937  0.1355  0.1141
  108OSM   H16F11096   3.715   4.003   4.618  1.4453 -0.4612 -3.6137
  108OSM   H16G11097   3.892   4.003   4.594 -0.7040 -1.1623 -1.5379
  108OSM   C17F11098   3.783   4.185   4.529 -1.2511  0.2428  0.6593
  108OSM   H17F11099   3.693   4.235   4.570 -2.9158 -1.9370 -0.1599
  108OSM   H17G11100   3.742   4.147   4.433  0.5006 -1.5621  0.5659
  108OSM   C18F11101   3.903   4.276   4.498  0.3190  0.0417 -0.5259
  108OSM   H18F11102   3.934   4.346   4.578 -0.7271  2.3632 -2.0726
  108OSM   H18G11103   3.877   4.340   4.411 -0.4438 -0.5375 -0.7362
  108OSM   H18H11104   3.990   4.215   4.463 -1.0579  0.1743 -4.6753
  109OSM      N11105   5.843   0.346   6.744 -0.4931 -0.0886  0.1349
  109OSM    C1511106   5.972   0.286   6.698  0.6583  0.0794  0.2870
  109OSM   H15A11107   5.978   0.296   6.590  0.3141  0.8423  0.3370
  109OSM   H15B11108   5.977   0.182   6.727  0.9942  0.5630  2.0950
  109OSM   H15C11109   6.057   0.338   6.740  0.3280  0.5173  0.4140
  109OSM    C1411110   5.740   0.273   6.679 -1.2546 -0.0403 -0.4364
  109OSM   H14A11111   5.747   0.290   6.573 -1.1748  0.0738 -0.4134
  109OSM   H14B11112   5.642   0.314   6.699 -0.8679  1.2773 -1.1658
  109OSM   H14C11113   5.737   0.169   6.710  1.9187  0.1327  0.7617
  109OSM    C1311114   5.838   0.332   6.891  0.1252 -0.3445 -0.5350
  109OSM   H13A11115   5.733   0.346   6.915  0.4121 -0.7779  1.0882
  109OSM   H13B11116   5.893   0.416   6.929  2.0260 -1.5633 -0.4386
  109OSM   H13C11117   5.871   0.233   6.922 -0.7738 -0.8421 -1.1087
  109OSM    C1211118   5.844   0.496   6.710  0.3716  0.7771  0.5317
  109OSM   H12A11119   5.756   0.547   6.745 -0.8912 -0.1420 -1.1417
  109OSM   H12B11120   5.835   0.516   6.604  1.3295  2.9686  0.8058
  109OSM    C1111121   5.963   0.588   6.759  0.0855  0.3465  0.7040
  109OSM   H11A11122   5.976   0.592   6.869 -0.3002  1.0996  0.7264
  109OSM   H11B11123   5.937   0.693   6.736 -1.0585  0.6155  3.0230
  109OSM      P11124   6.137   0.583   6.564  0.7770  0.0661  0.0418
  109OSM    O1311125   6.122   0.726   6.540 -0.3167  0.0108 -0.2654
  109OSM    O1411126   6.265   0.522   6.542  0.4419 -0.2200 -0.2236
  109OSM    O1111127   6.028   0.516   6.474  0.5174  0.2309 -0.3030
  109OSM    O1211128   6.092   0.543   6.709  0.3180  0.0161 -0.4478
  109OSM    C1S11129   6.073   0.515   6.335  0.3705  0.2473 -0.4167
  109OSM    H1S11130   6.181   0.491   6.331  0.5317 -0.0220  2.7436
  109OSM    H1T11131   6.051   0.614   6.289  0.8832  0.1348 -0.9079
  109OSM     NF11132   6.070   0.400   6.124  0.0170 -0.2802 -0.0668
  109OSM    HNF11133   6.010   0.424   6.049 -2.3220 -2.0996  1.0694
  109OSM    C2S11134   5.994   0.411   6.250 -0.5344 -0.6216  0.1598
  109OSM    H2S11135   5.995   0.312   6.301 -0.5168 -0.8772 -0.3309
  109OSM    C3S11136   5.851   0.449   6.230  0.4374  0.3070  0.1689
  109OSM    H3S11137   5.848   0.547   6.179 -0.5993  1.1258  1.7139
  109OSM     O311138   5.787   0.471   6.356  0.1099  0.1986 -0.0803
  109OSM    HO311139   5.862   0.463   6.415  0.1662 -0.9858 -0.2862
  109OSM    C4S11140   5.780   0.352   6.142 -0.2213  0.6753  0.5881
  109OSM    H4S11141   5.773   0.396   6.042 -0.9922 -1.4323 -0.3434
  109OSM    C5S11142   5.716   0.238   6.173 -0.2697 -0.2613  0.6369
  109OSM    H5S11143   5.713   0.217   6.281  0.8091  2.4129  1.2616
  109OSM    C6S11144   5.633   0.146   6.083 -0.2439 -0.2838  0.1567
  109OSM    H6S11145   5.536   0.113   6.125 -0.1868 -1.5066 -0.6330
  109OSM    H6T11146   5.697   0.059   6.059 -1.2056 -0.6990 -0.9728
  109OSM    C7S11147   5.603   0.196   5.940  0.0160  0.2792 -0.7353
  109OSM    H7S11148   5.692   0.191   5.874 -0.5067 -0.2851 -1.4267
  109OSM    H7T11149   5.553   0.295   5.949 -0.4312 -0.1454  2.7141
  109OSM    C8S11150   5.497   0.105   5.873  0.5409 -0.1597 -0.1074
  109OSM    H8S11151   5.416   0.080   5.945  0.4277 -1.7262 -0.7421
  109OSM    H8T11152   5.543   0.005   5.863  0.8508 -0.0213 -0.0830
  109OSM    C9S11153   5.437   0.140   5.739  0.0015 -0.4530 -0.6866
  109OSM    H9S11154   5.381   0.234   5.757  1.1184 -0.3820  3.6700
  109OSM    H9T11155   5.361   0.059   5.734 -0.8097  0.2521 -0.1890
  109OSM   C10S11156   5.537   0.169   5.625  0.3318  0.7892 -0.3483
  109OSM   H10S11157   5.609   0.085   5.617 -1.4440 -1.0627  1.8292
  109OSM   H10T11158   5.601   0.257   5.649 -0.0588  1.4359 -1.6009
  109OSM   C11S11159   5.464   0.200   5.498 -0.1668 -0.0518 -0.0614
  109OSM   H11S11160   5.414   0.298   5.510 -1.2098 -0.5821  0.0845
  109OSM   H11T11161   5.387   0.120   5.487 -0.1431 -0.0260 -0.4104
  109OSM   C12S11162   5.567   0.209   5.378  0.4482  0.6087  0.3979
  109OSM   H12S11163   5.655   0.263   5.419  0.8960  0.6724 -0.6087
  109OSM   H12T11164   5.527   0.272   5.296  2.1138  0.5561 -0.5098
  109OSM   C13S11165   5.621   0.074   5.328 -0.4913 -0.0079 -0.1371
  109OSM   H13S11166   5.647   0.012   5.416  1.0213  0.2136 -0.3971
  109OSM   H13T11167   5.707   0.096   5.260  0.3581  0.0458  0.9280
  109OSM   C14S11168   5.510  -0.004   5.242 -1.2504 -0.1045 -0.2184
  109OSM   H14S11169   5.453   0.062   5.173 -2.3595 -0.1479  0.6248
  109OSM   H14T11170   5.441  -0.053   5.314  0.1084 -1.5732  0.1295
  109OSM   C15S11171   5.587  -0.111   5.169  0.4487 -0.2776  0.1933
  109OSM   H15S11172   5.512  -0.191   5.155  0.1368 -0.0668  0.6130
  109OSM   H15T11173   5.669  -0.161   5.225  0.6292  0.6784  0.8049
  109OSM   C16S11174   5.642  -0.064   5.036  0.1153 -0.8548 -0.1977
  109OSM   H16S11175   5.710   0.020   5.062 -0.9329 -0.4848  1.4626
  109OSM   H16T11176   5.556  -0.015   4.984  1.3624  0.9268 -0.6806
  109OSM   C17S11177   5.679  -0.176   4.946 -0.1200 -0.0213  0.3445
  109OSM   H17S11178   5.585  -0.230   4.919 -1.9136  2.7917  0.5320
  109OSM   H17T11179   5.748  -0.255   4.984 -0.8111  0.0464  1.7757
  109OSM   C18S11180   5.751  -0.128   4.816 -0.3670  0.4856  0.7776
  109OSM   H18S11181   5.687  -0.053   4.764 -1.6076 -1.5316 -0.7961
  109OSM   H18T11182   5.767  -0.212   4.745  1.8433 -0.0012  1.7699
  109OSM   H18U11183   5.847  -0.077   4.835  0.5786 -1.6288  1.9845
  109OSM    C1F11184   6.197   0.362   6.115 -0.8956  0.2571 -0.4482
  109OSM     OF11185   6.254   0.305   6.214 -0.0815 -0.0313 -0.6004
  109OSM    C2F11186   6.269   0.408   5.990 -0.5786  0.6817  0.4511
  109OSM    H2F11187   6.280   0.518   5.993  0.5512  0.5700  2.2573
  109OSM    H2G11188   6.205   0.372   5.907  0.9710 -0.9142 -0.1027
  109OSM    C3F11189   6.404   0.326   5.978 -0.0207  0.2821  0.7404
  109OSM    H3F11190   6.381   0.218   5.967 -2.4408  0.7704  0.4538
  109OSM    H3G11191   6.471   0.342   6.065  1.2744 -1.2674  0.0807
  109OSM    C4F11192   6.494   0.371   5.856  0.3422 -0.3421  0.2729
  109OSM    H4F11193   6.598   0.334   5.873  0.3618 -0.4602 -0.1043
  109OSM    H4G11194   6.495   0.482   5.852 -3.4245 -0.2371 -1.9502
  109OSM    C5F11195   6.452   0.312   5.722  0.0413 -0.3343 -0.0616
  109OSM    H5F11196   6.341   0.323   5.725  0.0137  0.6136 -2.3192
  109OSM    H5G11197   6.489   0.208   5.730  0.1154 -0.3139 -0.1457
  109OSM    C6F11198   6.499   0.396   5.604 -0.8987  0.3934 -0.9911
  109OSM    H6F11199   6.610   0.403   5.592 -0.9705  0.7997 -1.4303
  109OSM    H6G11200   6.467   0.502   5.612 -1.0216  0.2468  0.6863
  109OSM    C7F11201   6.433   0.345   5.473  0.2731 -0.3091  0.6741
  109OSM    H7F11202   6.324   0.334   5.492  0.1098 -1.2716 -0.6793
  109OSM    H7G11203   6.463   0.241   5.446  0.4331  0.2854 -1.6208
  109OSM    C8F11204   6.449   0.431   5.337 -0.1367  0.4516 -0.0862
  109OSM    H8F11205   6.420   0.538   5.341 -0.8324  0.3639 -1.8705
  109OSM    H8G11206   6.382   0.383   5.261  2.0071  1.3898 -2.7546
  109OSM    C9F11207   6.595   0.421   5.298  0.2747 -0.4026 -0.4856
  109OSM    H9F11208   6.665   0.368   5.363 -0.9731 -2.4952 -0.7683
  109OSM   C10F11209   6.645   0.458   5.176 -0.1743 -0.3084  0.1234
  109OSM   H10F11210   6.752   0.452   5.150  0.5720  1.1671  2.4903
  109OSM   C11F11211   6.553   0.507   5.062 -0.4153 -0.6067 -0.5488
  109OSM   H11F11212   6.582   0.609   5.030  0.5428 -0.5765  0.3457
  109OSM   H11G11213   6.445   0.508   5.088  0.1661  1.2235  2.2345
  109OSM   C12F11214   6.556   0.408   4.943 -0.1130 -0.7043  0.6785
  109OSM   H12F11215   6.529   0.304   4.971 -0.7624 -0.4474  1.0317
  109OSM   H12G11216   6.660   0.414   4.906 -0.5344  2.8711 -0.2877
  109OSM   C13F11217   6.456   0.453   4.834  0.1551 -0.1801 -0.1227
  109OSM   H13F11218   6.455   0.564   4.828  2.8021 -0.1531 -2.0829
  109OSM   H13G11219   6.351   0.431   4.864  0.0294  0.7051  0.1036
  109OSM   C14F11220   6.500   0.396   4.694 -0.0115  0.4298  0.5253
  109OSM   H14F11221   6.512   0.285   4.692 -0.0091  0.4276 -1.8965
  109OSM   H14G11222   6.600   0.439   4.669  0.3367 -0.2812  0.6487
  109OSM   C15F11223   6.403   0.435   4.571  0.4012 -0.1310  0.6981
  109OSM   H15F11224   6.440   0.426   4.467 -1.4278 -0.3073  0.0368
  109OSM   H15G11225   6.379   0.542   4.584 -0.2421  0.0438 -1.5837
  109OSM   C16F11226   6.272   0.349   4.573 -0.1021  0.8560 -0.0930
  109OSM   H16F11227   6.236   0.340   4.677 -2.1316  0.9022 -0.7379
  109OSM   H16G11228   6.298   0.251   4.528 -1.2681  0.6749 -0.3990
  109OSM   C17F11229   6.159   0.425   4.501  0.1533 -0.0721  0.2227
  109OSM   H17F11230   6.185   0.426   4.393  0.4021  0.0349  0.2828
  109OSM   H17G11231   6.153   0.528   4.543 -0.2063  0.1549 -0.3739
  109OSM   C18F11232   6.015   0.367   4.515 -0.1246  0.0598  0.6512
  109OSM   H18F11233   6.012   0.260   4.483 -1.2414 -0.5205  2.5048
  109OSM   H18G11234   5.936   0.413   4.451  1.5970  0.1560 -1.5452
  109OSM   H18H11235   5.983   0.356   4.621 -0.3221 -1.5937  0.4533
  110OSM      N11236   0.392   4.361   7.353  0.4904  0.2744 -0.2920
  110OSM    C1511237   0.244   4.377   7.340 -0.1874 -0.1515 -0.5178
  110OSM   H15A11238   0.190   4.284   7.345 -0.1013 -0.3123 -2.1426
  110OSM   H15B11239   0.225   4.408   7.239  1.3279 -0.2275 -0.8567
  110OSM   H15C11240   0.205   4.449   7.411 -0.7871 -1.0370  0.0690
  110OSM    C1411241   0.459   4.483   7.296  0.6664 -0.6453 -0.2303
  110OSM   H14A11242   0.439   4.489   7.190  0.2263  0.9713 -0.0794
  110OSM   H14B11243   0.565   4.474   7.316  1.0680 -0.9513 -2.2760
  110OSM   H14C11244   0.424   4.579   7.330  0.3863 -0.3139 -1.4024
  110OSM    C1311245   0.419   4.348   7.506 -0.1891  0.1275 -0.5624
  110OSM   H13A11246   0.395   4.437   7.562  0.2537 -0.5715  0.7874
  110OSM   H13B11247   0.521   4.316   7.522 -0.3133 -0.2699 -0.5381
  110OSM   H13C11248   0.367   4.260   7.541  1.5768 -0.7711 -0.0834
  110OSM    C1211249   0.437   4.228   7.285  0.5404  0.1680  0.0905
  110OSM   H12A11250   0.398   4.142   7.338  1.1521  1.4483  2.7739
  110OSM   H12B11251   0.542   4.212   7.303  0.6029  0.6055  0.1182
  110OSM    C1111252   0.417   4.220   7.128  0.7185 -1.0266  0.0106
  110OSM   H11A11253   0.308   4.225   7.108  0.8634  0.0744 -0.5724
  110OSM   H11B11254   0.435   4.113   7.100  0.5545 -1.5160  1.7002
  110OSM      P11255   0.657   4.286   7.040  0.2942  0.3256 -0.0616
  110OSM    O1311256   0.717   4.418   7.003 -0.1926 -0.5877 -0.3434
  110OSM    O1411257   0.699   4.221   7.167 -0.0641  0.2130 -0.2235
  110OSM    O1111258   0.678   4.191   6.913 -0.2598  0.0103  0.2324
  110OSM    O1211259   0.500   4.309   7.053  0.4493 -0.7142  0.0276
  110OSM    C1S11260   0.601   4.194   6.795  0.0288 -0.3883  0.1992
  110OSM    H1S11261   0.629   4.286   6.739 -3.7833  2.6769  2.8261
  110OSM    H1T11262   0.492   4.213   6.806  0.2921  0.7261  1.0304
  110OSM     NF11263   0.627   4.097   6.562  0.5124 -0.0522  0.0008
  110OSM    HNF11264   0.555   4.054   6.507  0.8449 -0.2286 -0.2983
  110OSM    C2S11265   0.632   4.068   6.706  0.1532  0.0386 -0.4905
  110OSM    H2S11266   0.733   4.039   6.741 -0.1947  0.8460  1.3250
  110OSM    C3S11267   0.534   3.955   6.756 -0.7997 -0.1847 -0.0165
  110OSM    H3S11268   0.434   3.986   6.720 -0.5978 -0.4810 -0.8620
  110OSM     O311269   0.538   3.936   6.900 -0.3685 -0.2578 -0.6321
  110OSM    HO311270   0.596   4.008   6.924 -1.6865  0.6144  0.0985
  110OSM    C4S11271   0.567   3.822   6.697  0.0659  0.0471 -0.3918
  110OSM    H4S11272   0.677   3.809   6.698 -0.1446 -2.0068  0.4389
  110OSM    C5S11273   0.497   3.733   6.623 -0.0483  0.6056 -0.5775
  110OSM    H5S11274   0.396   3.763   6.591 -0.5827  0.3196  0.7865
  110OSM    C6S11275   0.553   3.615   6.545  0.7617  0.2222  0.2069
  110OSM    H6S11276   0.492   3.523   6.551  1.9229 -0.8834 -3.0959
  110OSM    H6T11277   0.661   3.604   6.567  1.0241  1.2795 -0.4533
  110OSM    C7S11278   0.562   3.649   6.394  0.3660  0.1102  0.2000
  110OSM    H7S11279   0.471   3.704   6.362  1.1503  0.5443 -1.3692
  110OSM    H7T11280   0.574   3.561   6.328  1.0533  1.4704 -1.5633
  110OSM    C8S11281   0.675   3.753   6.358  0.0774  0.0891 -0.6235
  110OSM    H8S11282   0.770   3.696   6.346  0.0398 -0.4169  1.1543
  110OSM    H8T11283   0.677   3.828   6.440 -4.0976  1.5060 -1.5465
  110OSM    C9S11284   0.656   3.819   6.219 -0.5522 -0.3086  0.0831
  110OSM    H9S11285   0.715   3.912   6.209 -0.7666 -0.2242 -0.3754
  110OSM    H9T11286   0.551   3.855   6.218 -0.4481  0.0173  0.5797
  110OSM   C10S11287   0.686   3.728   6.100  0.0716  0.8164  0.1044
  110OSM   H10S11288   0.606   3.650   6.097 -0.8222  1.7293 -2.5212
  110OSM   H10T11289   0.783   3.678   6.122  0.7172  1.9346 -0.1472
  110OSM   C11S11290   0.694   3.797   5.965 -0.0863  0.1452  0.6641
  110OSM   H11S11291   0.785   3.854   5.939  0.0084 -0.1660  0.2975
  110OSM   H11T11292   0.595   3.846   5.953 -0.6720 -1.1094  0.1771
  110OSM   C12S11293   0.703   3.696   5.840  0.1754 -0.9880  0.2003
  110OSM   H12S11294   0.601   3.654   5.827  0.1045 -0.3892 -1.3580
  110OSM   H12T11295   0.783   3.623   5.865  0.5863  0.1800  2.6350
  110OSM   C13S11296   0.735   3.780   5.708  0.3713  0.0731  0.2764
  110OSM   H13S11297   0.829   3.839   5.715  0.4030 -0.1189  1.5791
  110OSM   H13T11298   0.646   3.846   5.696 -0.0118 -0.7059 -1.5044
  110OSM   C14S11299   0.750   3.694   5.589 -0.2061  0.5159  1.3519
  110OSM   H14S11300   0.669   3.704   5.515 -2.0220 -2.8336  2.6527
  110OSM   H14T11301   0.734   3.587   5.617 -1.1040  0.3235  0.1877
  110OSM   C15S11302   0.887   3.697   5.513  0.1246 -0.1952 -0.9187
  110OSM   H15S11303   0.971   3.665   5.578 -1.8901 -1.4569  1.2178
  110OSM   H15T11304   0.890   3.806   5.492 -1.1596 -0.2258 -1.3135
  110OSM   C16S11305   0.869   3.628   5.381  0.0791  0.4496 -0.5383
  110OSM   H16S11306   0.775   3.660   5.330 -0.4501  1.1698  0.8193
  110OSM   H16T11307   0.868   3.519   5.405 -0.0703  0.9448  1.9368
  110OSM   C17S11308   0.981   3.657   5.282  0.8263 -0.0148  0.2159
  110OSM   H17S11309   0.976   3.573   5.209  2.4104  0.1086 -0.0580
  110OSM   H17T11310   1.076   3.643   5.339  0.8742  3.2129  1.1146
  110OSM   C18S11311   0.979   3.787   5.205  0.0976  0.1813 -0.1968
  110OSM   H18S11312   1.009   3.863   5.281  0.3037 -0.8167  0.7416
  110OSM   H18T11313   0.875   3.809   5.171  0.7558  1.8234 -1.2798
  110OSM   H18U11314   1.052   3.779   5.122 -0.2417 -0.6577 -0.4236
  110OSM    C1F11315   0.728   4.163   6.505  0.0796  0.3009  0.2218
  110OSM     OF11316   0.837   4.165   6.562 -0.7699 -0.4078 -0.2642
  110OSM    C2F11317   0.707   4.224   6.370  0.1603  0.3124 -0.0644
  110OSM    H2F11318   0.679   4.332   6.371  0.5776  0.4235 -0.1769
  110OSM    H2G11319   0.626   4.174   6.313  1.4503 -0.5024 -1.2207
  110OSM    C3F11320   0.843   4.226   6.292 -0.5794 -0.1115  0.6238
  110OSM    H3F11321   0.859   4.120   6.263 -1.2069  0.3580 -1.6909
  110OSM    H3G11322   0.918   4.264   6.363 -2.5734  1.8146  1.8173
  110OSM    C4F11323   0.841   4.319   6.172  0.4884  1.1082  0.3113
  110OSM    H4F11324   0.864   4.417   6.218 -0.7603  0.2670  2.9274
  110OSM    H4G11325   0.745   4.307   6.117  1.4093 -1.6859 -0.9343
  110OSM    C5F11326   0.947   4.271   6.071 -0.4134  0.1862  0.7661
  110OSM    H5F11327   0.935   4.165   6.041  2.3587  0.2001 -0.7538
  110OSM    H5G11328   1.038   4.285   6.134  0.2625 -0.9426  0.0742
  110OSM    C6F11329   0.957   4.361   5.948 -0.4143 -0.3937  0.5517
  110OSM    H6F11330   1.060   4.347   5.910 -0.0748 -3.1833  2.2216
  110OSM    H6G11331   0.938   4.467   5.974 -0.8728 -0.0096 -1.2282
  110OSM    C7F11332   0.864   4.310   5.838  0.4736  0.7018 -0.5742
  110OSM    H7F11333   0.897   4.366   5.748 -2.3769 -0.7366 -2.6520
  110OSM    H7G11334   0.762   4.351   5.857 -0.4072 -1.8242  0.4872
  110OSM    C8F11335   0.861   4.155   5.795  0.3082  0.2850  0.0447
  110OSM    H8F11336   0.836   4.099   5.888  0.7072 -1.5778 -0.9112
  110OSM    H8G11337   0.961   4.126   5.758  0.0176  1.0083 -1.3755
  110OSM    C9F11338   0.759   4.129   5.696 -0.1682  0.1371 -0.5825
  110OSM    H9F11339   0.673   4.077   5.740  0.8286 -2.6111 -1.6302
  110OSM   C10F11340   0.762   4.143   5.563 -0.4626 -0.2449 -0.4077
  110OSM   H10F11341   0.669   4.113   5.513 -2.3695  2.6545  1.0787
  110OSM   C11F11342   0.860   4.214   5.481 -0.4738  0.0232  0.2704
  110OSM   H11F11343   0.898   4.293   5.549 -1.4307 -0.1763  1.0662
  110OSM   H11G11344   0.799   4.266   5.404  0.3746  1.4506  0.5189
  110OSM   C12F11345   0.956   4.118   5.405  0.3297 -0.3572  0.3625
  110OSM   H12F11346   0.893   4.046   5.349 -2.0328  0.9644  1.1559
  110OSM   H12G11347   1.006   4.057   5.483  0.1062  0.0168  0.8078
  110OSM   C13F11348   1.058   4.187   5.310 -0.1190 -0.3706  0.1225
  110OSM   H13F11349   1.139   4.116   5.281  0.4254  0.1494  0.3408
  110OSM   H13G11350   1.103   4.277   5.358  1.4160 -1.3067  0.5099
  110OSM   C14F11351   0.991   4.238   5.171  0.0039  0.1375  0.3692
  110OSM   H14F11352   0.903   4.296   5.204 -1.0402 -0.7044 -0.8456
  110OSM   H14G11353   0.950   4.149   5.120 -1.5861  1.4625 -0.7525
  110OSM   C15F11354   1.095   4.321   5.094 -0.6918 -0.2994  0.4191
  110OSM   H15F11355   1.196   4.290   5.127 -0.9517  0.1778  1.7026
  110OSM   H15G11356   1.082   4.427   5.123 -2.7181  0.1851 -1.8983
  110OSM   C16F11357   1.096   4.306   4.936  0.2682  0.0457  0.2753
  110OSM   H16F11358   1.001   4.341   4.890 -1.0115 -1.8035  1.3455
  110OSM   H16G11359   1.104   4.197   4.913  0.1847  0.6381 -2.9599
  110OSM   C17F11360   1.216   4.381   4.878  0.3033 -0.7301 -0.6019
  110OSM   H17F11361   1.311   4.355   4.929  0.2894 -1.1543 -0.7888
  110OSM   H17G11362   1.197   4.490   4.890  1.1754 -0.4892 -1.2725
  110OSM   C18F11363   1.235   4.353   4.730 -0.0465  0.4056  0.7718
  110OSM   H18F11364   1.160   4.399   4.662  0.7125 -1.8895 -1.7715
  110OSM   H18G11365   1.230   4.243   4.719 -0.7971  0.4394  0.6929
  110OSM   H18H11366   1.332   4.386   4.687 -0.0459 -0.4196  0.1282
  111OSM      N11367   3.870   2.803   6.841  0.0931 -0.1063 -0.4533
  111OSM    C1511368   3.759   2.835   6.928  1.0588  0.7737  0.0972
  111OSM   H15A11369   3.728   2.755   6.993  2.1341  1.8305  2.0063
  111OSM   H15B11370   3.671   2.858   6.870 -0.4331  1.2504  2.4356
  111OSM   H15C11371   3.773   2.924   6.986  0.6815 -0.1756  1.6930
  111OSM    C1411372   3.903   2.916   6.748  0.0295  0.2548 -0.3138
  111OSM   H14A11373   3.825   2.929   6.674 -0.4012 -0.8698 -0.0761
  111OSM   H14B11374   3.999   2.902   6.701  0.4158  1.0476  0.2001
  111OSM   H14C11375   3.896   3.007   6.806 -0.1667  0.2505 -0.3298
  111OSM    C1311376   3.993   2.794   6.935 -0.2603 -0.2390  1.1840
  111OSM   H13A11377   3.988   2.710   7.003  0.6574 -0.3379  1.1553
  111OSM   H13B11378   3.996   2.886   6.991 -1.1877  1.0504 -0.7872
  111OSM   H13C11379   4.081   2.785   6.872 -0.8987  1.4395  0.0055
  111OSM    C1211380   3.854   2.670   6.766  0.3683 -1.1475 -0.6106
  111OSM   H12A11381   3.847   2.592   6.840 -0.0631 -0.0045  0.6071
  111OSM   H12B11382   3.934   2.626   6.708  0.4936 -2.5084  0.5568
  111OSM    C1111383   3.718   2.653   6.690  0.5139 -0.3535 -0.4881
  111OSM   H11A11384   3.709   2.743   6.625 -1.1758  0.8238  1.2574
  111OSM   H11B11385   3.630   2.663   6.758  0.7954 -1.5304  0.0763
  111OSM      P11386   3.715   2.395   6.677 -0.1120 -0.0942 -0.5188
  111OSM    O1311387   3.736   2.277   6.587  0.5290 -0.2153 -0.1762
  111OSM    O1411388   3.802   2.391   6.793  0.2809 -0.3319 -0.6289
  111OSM    O1111389   3.567   2.381   6.731 -0.4275 -0.1270  0.9810
  111OSM    O1211390   3.723   2.539   6.613  0.2724 -0.4530 -0.3192
  111OSM    C1S11391   3.461   2.432   6.654 -1.0330  0.1660  0.0693
  111OSM    H1S11392   3.502   2.514   6.591  0.8379 -0.2349  0.6929
  111OSM    H1T11393   3.380   2.467   6.722 -0.7355  0.0719  0.4766
  111OSM     NF11394   3.298   2.379   6.451 -0.5002 -0.4187  0.6264
  111OSM    HNF11395   3.200   2.359   6.456 -0.8131  1.1396  1.2463
  111OSM    C2S11396   3.387   2.325   6.557 -0.3108  0.2745  0.1397
  111OSM    H2S11397   3.469   2.278   6.499  0.3505 -0.1830  1.4025
  111OSM    C3S11398   3.332   2.216   6.651 -0.0778 -0.0045  0.2892
  111OSM    H3S11399   3.243   2.248   6.709  0.7180 -0.8012  2.0379
  111OSM     O311400   3.404   2.163   6.764  0.0799 -0.7488 -0.4997
  111OSM    HO311401   3.492   2.199   6.750  0.4201 -1.8383 -1.3579
  111OSM    C4S11402   3.281   2.110   6.561 -0.1679 -0.1998  0.4529
  111OSM    H4S11403   3.173   2.113   6.545 -0.1124  1.1787  0.1945
  111OSM    C5S11404   3.346   1.997   6.521 -0.4463 -0.2690 -0.4698
  111OSM    H5S11405   3.447   1.976   6.560 -1.1885 -0.6834  1.3299
  111OSM    C6S11406   3.286   1.881   6.442 -0.8059 -0.1087 -0.6225
  111OSM    H6S11407   3.302   1.796   6.512  1.8320  1.4441  0.8010
  111OSM    H6T11408   3.358   1.862   6.359  0.3793  1.7735 -0.0861
  111OSM    C7S11409   3.144   1.877   6.395  0.7314  0.4674  0.1635
  111OSM    H7S11410   3.076   1.893   6.482 -1.0387  0.6122 -1.1787
  111OSM    H7T11411   3.107   1.776   6.368 -3.5208  1.0095  2.8969
  111OSM    C8S11412   3.119   1.979   6.281 -0.3247  0.3388 -0.0536
  111OSM    H8S11413   3.164   2.073   6.318  1.2463 -1.7174  3.9533
  111OSM    H8T11414   3.010   1.992   6.267 -0.0157  1.2312 -1.7579
  111OSM    C9S11415   3.179   1.930   6.144  0.5187  0.4791 -0.6327
  111OSM    H9S11416   3.105   1.855   6.110  0.3431  0.9356 -1.2610
  111OSM    H9T11417   3.280   1.889   6.164  0.9770  2.1036  0.6604
  111OSM   C10S11418   3.204   2.030   6.025 -0.2374 -0.1815 -0.1329
  111OSM   H10S11419   3.285   2.102   6.050  1.0174 -0.3652 -3.2439
  111OSM   H10T11420   3.112   2.084   5.993  1.1743  1.7584 -1.1649
  111OSM   C11S11421   3.260   1.959   5.903  0.3684 -0.2927 -0.0534
  111OSM   H11S11422   3.192   1.884   5.859  0.0615  0.6674 -1.2572
  111OSM   H11T11423   3.350   1.902   5.936  0.7130 -1.1964 -2.3783
  111OSM   C12S11424   3.302   2.052   5.790  0.6588  0.4350 -0.3187
  111OSM   H12S11425   3.352   1.987   5.714 -0.9906 -0.5909 -0.5712
  111OSM   H12T11426   3.374   2.133   5.814 -0.5910  1.1176  1.2981
  111OSM   C13S11427   3.186   2.125   5.727 -0.0274 -0.2903 -0.4718
  111OSM   H13S11428   3.155   2.210   5.792  0.4627 -0.0911 -0.4905
  111OSM   H13T11429   3.108   2.047   5.713 -0.8951  0.6187 -0.8222
  111OSM   C14S11430   3.223   2.154   5.580 -0.2788 -0.7126 -0.2628
  111OSM   H14S11431   3.324   2.193   5.554 -1.5671  0.9755 -3.3515
  111OSM   H14T11432   3.154   2.238   5.555 -0.7529 -0.9475  0.2337
  111OSM   C15S11433   3.207   2.037   5.482 -0.0836 -0.0972  0.0698
  111OSM   H15S11434   3.128   1.970   5.522  1.4735 -1.1364  1.5254
  111OSM   H15T11435   3.294   1.969   5.468 -0.8762 -1.0022 -0.5511
  111OSM   C16S11436   3.183   2.074   5.340 -0.6496  0.0841  0.1261
  111OSM   H16S11437   3.284   2.109   5.309  0.9823 -1.7442  2.9396
  111OSM   H16T11438   3.122   2.166   5.325 -0.1784  0.7387  1.9569
  111OSM   C17S11439   3.120   1.956   5.263 -0.7762 -0.7357  0.5242
  111OSM   H17S11440   3.179   1.869   5.299 -0.3683 -0.3676  0.7518
  111OSM   H17T11441   3.124   1.977   5.154 -0.6657 -0.5856  0.5574
  111OSM   C18S11442   2.966   1.947   5.289  0.3161  0.0331 -0.1589
  111OSM   H18S11443   2.916   1.867   5.231  2.9687 -1.4963 -0.4652
  111OSM   H18T11444   2.922   2.049   5.284 -0.9991 -0.5818 -1.8492
  111OSM   H18U11445   2.942   1.918   5.394  1.0030  1.8601  0.5627
  111OSM    C1F11446   3.343   2.445   6.346  0.0900  0.2139 -0.1184
  111OSM     OF11447   3.452   2.510   6.340  0.9554  0.3681 -0.0444
  111OSM    C2F11448   3.268   2.426   6.220  0.1177 -0.2400 -0.6394
  111OSM    H2F11449   3.164   2.438   6.255 -0.0155  1.7950 -1.5796
  111OSM    H2G11450   3.268   2.327   6.169 -0.4911  0.3940 -1.9265
  111OSM    C3F11451   3.291   2.531   6.113  0.0099 -0.0450  1.0893
  111OSM    H3F11452   3.399   2.535   6.089 -0.0983  1.1928  0.7917
  111OSM    H3G11453   3.263   2.633   6.147 -3.1850 -0.8505  1.2188
  111OSM    C4F11454   3.219   2.505   5.977  0.1301  0.1986  0.1059
  111OSM    H4F11455   3.111   2.519   5.995 -0.0133 -2.0294  1.3030
  111OSM    H4G11456   3.240   2.403   5.938 -1.1377  0.4476 -1.2864
  111OSM    C5F11457   3.274   2.611   5.885 -0.4302  0.1345  0.0289
  111OSM    H5F11458   3.374   2.581   5.847  0.7690  0.5599  2.6124
  111OSM    H5G11459   3.298   2.708   5.933  1.1023 -0.9852  1.6998
  111OSM    C6F11460   3.184   2.622   5.763  0.8493  0.4897  0.1006
  111OSM    H6F11461   3.215   2.710   5.702 -1.0455  0.0245 -1.6066
  111OSM    H6G11462   3.078   2.632   5.794  0.9073  1.4693  0.0043
  111OSM    C7F11463   3.183   2.494   5.671  0.7725  0.1172  1.0004
  111OSM    H7F11464   3.123   2.430   5.739  1.3448  0.8726  2.2725
  111OSM    H7G11465   3.286   2.453   5.664  0.9944  0.5721  1.4931
  111OSM    C8F11466   3.112   2.520   5.535  0.1490  0.4876 -0.3553
  111OSM    H8F11467   3.011   2.562   5.555 -0.3022 -1.1182  1.0079
  111OSM    H8G11468   3.099   2.422   5.485 -1.1053  0.0004  0.8650
  111OSM    C9F11469   3.198   2.607   5.450 -0.2070 -0.7342  0.2095
  111OSM    H9F11470   3.303   2.607   5.485  0.2381 -1.4777 -1.0434
  111OSM   C10F11471   3.156   2.671   5.340 -0.1028  0.2623 -0.0027
  111OSM   H10F11472   3.237   2.727   5.290  0.1051 -0.7298 -0.8122
  111OSM   C11F11473   3.028   2.674   5.270  0.7956 -0.6103 -0.8425
  111OSM   H11F11474   2.958   2.743   5.321  1.5912  0.0003 -0.5395
  111OSM   H11G11475   2.978   2.575   5.281 -0.8422  0.3845  1.4954
  111OSM   C12F11476   3.037   2.722   5.126 -0.6181  0.4124 -0.2991
  111OSM   H12F11477   3.109   2.652   5.078 -0.6604 -1.3951  2.0930
  111OSM   H12G11478   3.082   2.824   5.128  1.8635 -0.5013 -2.9316
  111OSM   C13F11479   2.899   2.726   5.053 -0.5414  0.7074 -0.1783
  111OSM   H13F11480   2.817   2.772   5.112 -0.2546  0.3297  0.5323
  111OSM   H13G11481   2.871   2.619   5.051 -0.8278  0.7063  1.9643
  111OSM   C14F11482   2.902   2.787   4.910  0.1125 -0.0363  0.2226
  111OSM   H14F11483   2.873   2.894   4.915 -1.4737 -0.4089 -0.2609
  111OSM   H14G11484   2.825   2.740   4.844 -0.7086  1.8864 -0.2625
  111OSM   C15F11485   3.032   2.774   4.831 -0.2056  0.0718  0.0079
  111OSM   H15F11486   3.078   2.679   4.866  0.5144  0.7979  1.0980
  111OSM   H15G11487   3.100   2.846   4.881 -0.0300 -1.1377  1.5988
  111OSM   C16F11488   3.021   2.802   4.682  0.1617  0.8041 -0.3896
  111OSM   H16F11489   2.951   2.888   4.673 -0.8587 -0.0301 -0.5251
  111OSM   H16G11490   2.981   2.712   4.632  0.7792  0.3541 -0.0821
  111OSM   C17F11491   3.160   2.835   4.623 -0.1609 -0.1634 -0.4865
  111OSM   H17F11492   3.214   2.739   4.607  0.1249 -0.2287  0.7336
  111OSM   H17G11493   3.224   2.902   4.685 -0.4953  0.5821 -0.9264
  111OSM   C18F11494   3.152   2.916   4.488 -0.3974  0.0695 -0.2470
  111OSM   H18F11495   3.108   2.849   4.411 -1.2156 -0.8226  0.9665
  111OSM   H18G11496   3.255   2.944   4.457 -1.4274  1.5283 -2.6910
  111OSM   H18H11497   3.082   3.002   4.490 -0.4211  0.0432  2.1553
  112OSM      N11498   0.876   6.154   7.077 -0.2940 -0.0660  0.0238
  112OSM    C1511499   0.857   6.304   7.088 -0.0915  0.0405 -0.5766
  112OSM   H15A11500   0.943   6.349   7.040 -0.1540 -0.5307 -1.2343
  112OSM   H15B11501   0.870   6.336   7.191  0.0424 -0.1430 -0.5374
  112OSM   H15C11502   0.756   6.332   7.061  0.3986  1.8609 -0.6622
  112OSM    C1411503   0.867   6.112   6.932  0.2894 -0.1862 -0.1513
  112OSM   H14A11504   0.949   6.164   6.883  0.7279 -0.7506 -0.0278
  112OSM   H14B11505   0.784   6.151   6.875  0.4456 -0.3198 -0.4711
  112OSM   H14C11506   0.883   6.006   6.925  2.5631  0.0116  1.0526
  112OSM    C1311507   1.009   6.121   7.134  0.2564  0.1187  0.3524
  112OSM   H13A11508   1.030   6.175   7.226 -0.5503  1.0105  0.0349
  112OSM   H13B11509   1.081   6.136   7.055 -0.1272 -0.2067 -0.0624
  112OSM   H13C11510   1.015   6.015   7.152 -3.0170 -0.1805  0.1737
  112OSM    C1211511   0.762   6.088   7.146 -0.1619 -0.2884 -0.1290
  112OSM   H12A11512   0.774   6.104   7.252  1.2210  1.5135 -0.5134
  112OSM   H12B11513   0.775   5.985   7.118  2.8270 -0.4716  1.5272
  112OSM    C1111514   0.629   6.134   7.091 -0.5578 -0.1703  0.4940
  112OSM   H11A11515   0.616   6.244   7.081  2.0187  0.2932  1.6637
  112OSM   H11B11516   0.551   6.107   7.166  0.6661 -0.3156  1.7473
  112OSM      P11517   0.548   5.913   6.977  0.1635 -0.2549  0.3799
  112OSM    O1311518   0.659   5.842   7.032 -0.3022 -0.1618 -0.2811
  112OSM    O1411519   0.418   5.894   7.047 -0.2480 -0.3325 -0.1068
  112OSM    O1111520   0.528   5.875   6.828 -0.6079 -0.0997  0.3893
  112OSM    O1211521   0.590   6.065   6.970  0.1706  0.1536  1.0250
  112OSM    C1S11522   0.631   5.908   6.732  0.3715  0.1492 -0.1141
  112OSM    H1S11523   0.715   5.836   6.743  0.6138  0.4596  0.1007
  112OSM    H1T11524   0.684   6.005   6.744  0.5730 -0.1448  1.7627
  112OSM     NF11525   0.685   5.958   6.509 -0.4330 -0.0077  0.1958
  112OSM    HNF11526   0.671   6.054   6.483  3.0696  0.5317 -0.2174
  112OSM    C2S11527   0.582   5.909   6.588 -0.0206  0.3447 -0.0883
  112OSM    H2S11528   0.573   5.803   6.557 -0.9646  0.8075 -1.4972
  112OSM    C3S11529   0.449   5.985   6.569  0.1507  0.0614 -0.4188
  112OSM    H3S11530   0.464   6.093   6.587 -2.0298  0.5452 -1.1949
  112OSM     O311531   0.345   5.946   6.653 -0.2650 -0.3285  0.0889
  112OSM    HO311532   0.376   5.881   6.717 -1.7485  0.3835  1.6026
  112OSM    C4S11533   0.392   5.974   6.428  0.0726 -0.2798  0.8223
  112OSM    H4S11534   0.363   5.872   6.399 -2.7287  0.3658  1.1261
  112OSM    C5S11535   0.359   6.061   6.331 -0.6552  0.4602 -0.0469
  112OSM    H5S11536   0.363   6.169   6.349  1.8883  0.1516  1.8875
  112OSM    C6S11537   0.293   6.026   6.202 -0.4659  0.2950  0.0936
  112OSM    H6S11538   0.317   6.108   6.131  0.7595 -1.8048 -2.1233
  112OSM    H6T11539   0.185   6.001   6.208 -0.1555 -1.2683 -0.3483
  112OSM    C7S11540   0.354   5.890   6.144 -0.7103 -0.6104 -0.2221
  112OSM    H7S11541   0.312   5.810   6.210 -0.4235 -0.2148  0.4450
  112OSM    H7T11542   0.464   5.887   6.156 -0.7717 -0.1856  0.4807
  112OSM    C8S11543   0.307   5.856   6.003  0.2165 -0.4885 -0.2970
  112OSM    H8S11544   0.198   5.835   6.000  0.2402 -1.7153  3.2662
  112OSM    H8T11545   0.345   5.754   5.981 -3.3004 -2.2398  0.9128
  112OSM    C9S11546   0.351   5.951   5.893  0.0818 -0.4002  0.5877
  112OSM    H9S11547   0.460   5.933   5.894 -0.0557 -1.4816 -0.9341
  112OSM    H9T11548   0.322   6.054   5.925  1.3792 -0.5906  2.5805
  112OSM   C10S11549   0.312   5.916   5.747 -0.9969 -0.4109  0.2937
  112OSM   H10S11550   0.358   5.816   5.728 -1.7643 -0.4437 -1.6727
  112OSM   H10T11551   0.348   5.993   5.675 -0.1187 -1.7959 -0.8274
  112OSM   C11S11552   0.164   5.899   5.713 -0.0073  0.1285 -0.2076
  112OSM   H11S11553   0.098   5.988   5.712 -1.6489 -1.0185  0.3877
  112OSM   H11T11554   0.121   5.824   5.783 -0.7694  1.7349  1.0838
  112OSM   C12S11555   0.149   5.841   5.573 -0.4998 -0.6365  0.3023
  112OSM   H12S11556   0.053   5.785   5.573 -0.6678 -0.4652  3.0504
  112OSM   H12T11557   0.221   5.758   5.554 -2.4539 -1.9825 -1.8521
  112OSM   C13S11558   0.152   5.952   5.455  0.4032 -0.2126  0.4602
  112OSM   H13S11559   0.256   5.991   5.449  0.6694 -0.4904  2.4482
  112OSM   H13T11560   0.090   6.042   5.476 -0.6568 -0.3584 -1.7480
  112OSM   C14S11561   0.113   5.892   5.321 -0.0620 -0.1792 -0.8398
  112OSM   H14S11562   0.143   5.785   5.321 -1.8873 -0.7406  0.5818
  112OSM   H14T11563   0.166   5.940   5.236  1.8209 -1.7496 -0.6343
  112OSM   C15S11564  -0.035   5.907   5.314 -0.2074  0.4845  0.7310
  112OSM   H15S11565  -0.059   6.012   5.342  1.0301  0.5585  1.6005
  112OSM   H15T11566  -0.075   5.841   5.393  1.5410  0.1696  1.4010
  112OSM   C16S11567  -0.100   5.862   5.181  0.8309  0.5157 -0.0323
  112OSM   H16S11568  -0.208   5.850   5.205  0.8654  1.3727  0.5639
  112OSM   H16T11569  -0.057   5.767   5.142 -0.2494  0.4781 -1.2083
  112OSM   C17S11570  -0.088   5.965   5.063  0.4566  0.1085  0.2518
  112OSM   H17S11571   0.020   5.988   5.057  0.5128 -0.3502 -0.6311
  112OSM   H17T11572  -0.128   6.061   5.101 -1.7198 -0.2582 -0.9185
  112OSM   C18S11573  -0.134   5.915   4.927 -0.1099 -0.7990 -0.2665
  112OSM   H18S11574  -0.092   5.963   4.837  0.6865 -1.4438 -0.2470
  112OSM   H18T11575  -0.245   5.920   4.918 -0.4573 -3.3354  1.4658
  112OSM   H18U11576  -0.093   5.813   4.916  3.0241  0.5250 -2.1506
  112OSM    C1F11577   0.807   5.905   6.479  0.8233  0.6488 -0.3515
  112OSM     OF11578   0.832   5.784   6.508 -0.0074  0.1327 -0.3038
  112OSM    C2F11579   0.907   5.986   6.401 -0.3371  0.3928 -1.2303
  112OSM    H2F11580   1.003   5.978   6.456 -0.3288  1.1343 -1.1204
  112OSM    H2G11581   0.878   6.093   6.406  2.1005  1.0796  0.2826
  112OSM    C3F11582   0.941   5.941   6.258  0.2246  0.1725  0.0124
  112OSM    H3F11583   0.980   5.837   6.268 -0.0182  0.1778  1.1737
  112OSM    H3G11584   1.030   5.993   6.217  0.4415 -0.3986 -0.2538
  112OSM    C4F11585   0.822   5.950   6.162  0.1737  0.5865  0.9019
  112OSM    H4F11586   0.780   6.053   6.155 -0.3949  0.2581 -3.9167
  112OSM    H4G11587   0.745   5.882   6.203  0.7259 -1.0963 -0.7544
  112OSM    C5F11588   0.848   5.904   6.019 -0.5550 -0.5754 -0.1953
  112OSM    H5F11589   0.764   5.893   5.947  0.3954 -1.1995 -1.2330
  112OSM    H5G11590   0.889   5.801   6.024  1.4427  0.1825  0.0718
  112OSM    C6F11591   0.958   5.992   5.947 -0.8230  0.5626 -0.2583
  112OSM    H6F11592   1.058   5.957   5.980 -0.9002  0.3175 -0.2794
  112OSM    H6G11593   0.952   6.099   5.976  0.9489  0.1271  2.0054
  112OSM    C7F11594   0.954   5.975   5.799 -0.2639  0.5826  0.9182
  112OSM    H7F11595   1.041   6.034   5.762 -0.2962  0.2614  0.2970
  112OSM    H7G11596   0.857   6.008   5.758 -0.8209 -0.6307  1.2087
  112OSM    C8F11597   0.977   5.824   5.751  0.1544 -0.4358 -0.5128
  112OSM    H8F11598   0.901   5.766   5.806 -0.7745  1.0736 -0.1501
  112OSM    H8G11599   1.080   5.793   5.780 -0.2217 -1.1800  0.0545
  112OSM    C9F11600   0.946   5.800   5.609 -0.3930  0.3339  0.7417
  112OSM    H9F11601   1.032   5.751   5.560  0.3950  0.4770  1.9481
  112OSM   C10F11602   0.828   5.773   5.546  0.3812  0.3112  0.1697
  112OSM   H10F11603   0.826   5.740   5.442  0.8490  0.0499  0.2423
  112OSM   C11F11604   0.693   5.810   5.592  0.1632 -0.3846  0.5328
  112OSM   H11F11605   0.675   5.918   5.571  1.8329 -0.1188  0.3010
  112OSM   H11G11606   0.682   5.789   5.700  0.7173 -0.7035  0.5330
  112OSM   C12F11607   0.586   5.718   5.525  0.5013  0.4774 -0.3425
  112OSM   H12F11608   0.488   5.732   5.574  0.9810  0.4164  0.6459
  112OSM   H12G11609   0.607   5.612   5.552 -2.5011 -0.1447 -0.1568
  112OSM   C13F11610   0.576   5.719   5.374 -0.0836 -0.3437  0.0946
  112OSM   H13F11611   0.653   5.646   5.343 -1.6521 -2.8347  1.7852
  112OSM   H13G11612   0.612   5.812   5.325  0.4320  0.8447  2.5931
  112OSM   C14F11613   0.438   5.688   5.332 -0.0598  0.1188  0.0347
  112OSM   H14F11614   0.366   5.771   5.348 -0.2988 -0.1679  0.4741
  112OSM   H14G11615   0.395   5.613   5.401  0.8969  0.4172  0.9758
  112OSM   C15F11616   0.428   5.629   5.192  0.6190 -0.5618  0.3032
  112OSM   H15F11617   0.320   5.603   5.198  0.6741 -0.8742 -0.0119
  112OSM   H15G11618   0.477   5.532   5.168  0.4361  0.0418 -2.8955
  112OSM   C16F11619   0.439   5.723   5.069 -0.4337  0.0849  0.3684
  112OSM   H16F11620   0.547   5.728   5.042 -0.5107 -1.7635 -0.4145
  112OSM   H16G11621   0.402   5.824   5.097 -0.7794 -0.3749  1.6202
  112OSM   C17F11622   0.348   5.696   4.947  0.1169  0.3366 -0.1919
  112OSM   H17F11623   0.241   5.717   4.967 -0.3297 -2.5193  0.9645
  112OSM   H17G11624   0.356   5.588   4.920 -0.5474  0.1847  0.1998
  112OSM   C18F11625   0.400   5.768   4.819 -1.2591  0.4750 -0.0957
  112OSM   H18F11626   0.500   5.726   4.795 -1.2589  0.2484  0.2858
  112OSM   H18G11627   0.418   5.877   4.826 -0.3824  0.6575 -3.4478
  112OSM   H18H11628   0.343   5.744   4.727 -0.1762 -0.5903 -0.5101
  113OSM      N11629   3.844   0.039   6.838  0.0560  0.0989  0.2797
  113OSM    C1511630   3.806  -0.084   6.765 -0.3943 -0.1766 -0.3597
  113OSM   H15A11631   3.708  -0.125   6.786 -1.7035  2.6030 -0.6708
  113OSM   H15B11632   3.873  -0.167   6.785 -2.1021 -1.0398  2.4818
  113OSM   H15C11633   3.820  -0.074   6.659  0.2397  1.7479 -0.1318
  113OSM    C1411634   3.841   0.005   6.980 -0.1712  0.6135  0.0282
  113OSM   H14A11635   3.909  -0.076   7.004 -1.1867 -0.4809 -0.6634
  113OSM   H14B11636   3.744  -0.036   7.005 -0.0197 -0.5749 -1.1909
  113OSM   H14C11637   3.861   0.084   7.051 -0.6596 -0.3413  1.2827
  113OSM    C1311638   3.987   0.067   6.794 -0.2275  0.4464 -0.2479
  113OSM   H13A11639   4.022   0.161   6.834 -0.2754 -0.1892  1.4009
  113OSM   H13B11640   3.989   0.073   6.686 -2.6887 -0.8937 -0.4522
  113OSM   H13C11641   4.054  -0.013   6.821 -1.2630 -0.3406  0.0733
  113OSM    C1211642   3.751   0.154   6.799  0.2475 -0.7131  0.5311
  113OSM   H12A11643   3.794   0.245   6.837  0.6914 -0.1540 -1.2601
  113OSM   H12B11644   3.653   0.142   6.843  0.1493 -0.4963  0.3740
  113OSM    C1111645   3.730   0.184   6.642 -0.1969 -0.2557 -0.7006
  113OSM   H11A11646   3.653   0.263   6.628  0.0921  0.0332 -0.6563
  113OSM   H11B11647   3.668   0.098   6.608 -2.3656  0.3396  1.4425
  113OSM      P11648   3.918   0.350   6.603  0.2043  0.1938  0.1281
  113OSM    O1311649   3.844   0.420   6.715 -0.0485  0.9313  0.1635
  113OSM    O1411650   4.062   0.328   6.614  0.2644 -0.6247  0.3760
  113OSM    O1111651   3.897   0.435   6.479  0.6183  0.0158  0.1760
  113OSM    O1211652   3.851   0.213   6.573  0.3924  0.1762  0.0591
  113OSM    C1S11653   3.906   0.371   6.349  0.2147 -0.5234  0.5124
  113OSM    H1S11654   3.967   0.278   6.352 -1.0959 -1.4284 -0.2079
  113OSM    H1T11655   3.957   0.438   6.276  0.5891 -0.6750  0.6286
  113OSM     NF11656   3.787   0.289   6.157  0.3008 -0.0118  0.2353
  113OSM    HNF11657   3.770   0.347   6.077 -1.5540 -1.8096 -0.7672
  113OSM    C2S11658   3.769   0.342   6.288  0.0325  0.2644 -0.0157
  113OSM    H2S11659   3.721   0.266   6.353 -1.1833 -0.4546 -1.6737
  113OSM    C3S11660   3.661   0.453   6.302  0.3728 -0.4654 -0.1918
  113OSM    H3S11661   3.704   0.547   6.261 -0.1435 -0.4640 -0.7560
  113OSM     O311662   3.643   0.498   6.442 -0.0452 -1.3074 -0.2346
  113OSM    HO311663   3.729   0.478   6.479  0.5912  1.7920  0.2272
  113OSM    C4S11664   3.519   0.421   6.249 -0.4501  0.1264  0.3543
  113OSM    H4S11665   3.471   0.500   6.191  1.5785  0.1687 -1.3876
  113OSM    C5S11666   3.444   0.317   6.294  0.2799 -1.0381  0.9369
  113OSM    H5S11667   3.475   0.247   6.374 -0.6014 -1.2542  1.0996
  113OSM    C6S11668   3.305   0.284   6.247  0.3550 -0.3203  0.2769
  113OSM    H6S11669   3.230   0.267   6.328  0.8263 -0.0673  0.7723
  113OSM    H6T11670   3.320   0.188   6.192  1.3287  0.4283 -0.7964
  113OSM    C7S11671   3.251   0.373   6.143  0.0417 -0.6016  0.6336
  113OSM    H7S11672   3.331   0.392   6.068  0.6101 -0.1995  1.3206
  113OSM    H7T11673   3.211   0.470   6.180  0.4966  0.4873 -1.5651
  113OSM    C8S11674   3.137   0.310   6.067  0.0706  0.7704 -0.5328
  113OSM    H8S11675   3.051   0.301   6.136  0.8836  0.4181  0.4465
  113OSM    H8T11676   3.157   0.204   6.039  1.0913  0.9163 -0.4158
  113OSM    C9S11677   3.093   0.387   5.936  0.4110  0.5265 -0.5535
  113OSM    H9S11678   3.129   0.492   5.926  0.6807  0.3593 -1.4837
  113OSM    H9T11679   2.983   0.385   5.948  0.3019  2.1314 -1.0750
  113OSM   C10S11680   3.125   0.324   5.801  0.2339  0.0093  0.5863
  113OSM   H10S11681   3.083   0.221   5.800 -2.4395  1.0294  0.9311
  113OSM   H10T11682   3.235   0.308   5.793  0.4582  2.0400 -1.6795
  113OSM   C11S11683   3.069   0.407   5.688  0.1101  0.8450 -0.1955
  113OSM   H11S11684   3.116   0.508   5.691  2.5757 -0.2062 -0.5521
  113OSM   H11T11685   2.960   0.427   5.691  0.3181  2.1266 -0.4948
  113OSM   C12S11686   3.118   0.336   5.562 -0.0393  0.3768 -0.1983
  113OSM   H12S11687   3.086   0.230   5.555  0.1693  0.1772  1.4247
  113OSM   H12T11688   3.229   0.345   5.562 -0.0432  0.4532  0.1760
  113OSM   C13S11689   3.079   0.402   5.430 -0.0274  0.3341 -0.2043
  113OSM   H13S11690   3.110   0.507   5.414  0.6180 -0.0335 -1.5371
  113OSM   H13T11691   2.968   0.399   5.437 -0.2503  2.3145 -1.8628
  113OSM   C14S11692   3.133   0.341   5.304  0.4472 -0.2060 -0.0824
  113OSM   H14S11693   3.240   0.362   5.281  0.1436 -0.9445 -2.4312
  113OSM   H14T11694   3.073   0.393   5.226  0.8382  1.1249  0.4689
  113OSM   C15S11695   3.110   0.195   5.275 -0.3813 -0.5823  0.1378
  113OSM   H15S11696   3.011   0.160   5.311 -1.8103  1.2176 -1.7877
  113OSM   H15T11697   3.187   0.135   5.327 -0.0186 -0.3899 -0.1720
  113OSM   C16S11698   3.102   0.144   5.128 -1.1414  0.7161 -0.3060
  113OSM   H16S11699   3.186   0.185   5.068 -0.3763  1.1463  1.0324
  113OSM   H16T11700   3.001   0.166   5.088 -1.2042  0.9053 -0.0442
  113OSM   C17S11701   3.112  -0.012   5.131 -0.2107  0.5703  0.1433
  113OSM   H17S11702   3.009  -0.048   5.154 -0.7469  2.0328  0.1346
  113OSM   H17T11703   3.188  -0.049   5.203  0.1929  1.7121  0.3216
  113OSM   C18S11704   3.150  -0.069   4.993  0.2501 -0.9889  0.8966
  113OSM   H18S11705   3.073  -0.035   4.921  0.8930 -1.7934 -0.2136
  113OSM   H18T11706   3.149  -0.179   5.007  0.1028 -1.3699 -1.6434
  113OSM   H18U11707   3.243  -0.019   4.958 -0.7996  0.8929  0.6803
  113OSM    C1F11708   3.834   0.170   6.110 -0.3136 -0.5764 -0.2422
  113OSM     OF11709   3.869   0.085   6.187 -0.2608  0.0305  0.7699
  113OSM    C2F11710   3.827   0.149   5.959  0.0124  0.5007 -0.0062
  113OSM    H2F11711   3.878   0.223   5.894  1.2377  0.5718  1.0107
  113OSM    H2G11712   3.721   0.138   5.927  0.0577 -2.8848  0.6339
  113OSM    C3F11713   3.902   0.015   5.924  0.1918  0.8294 -0.4900
  113OSM    H3F11714   3.868  -0.069   5.989 -0.0239  1.1083 -0.2401
  113OSM    H3G11715   4.009   0.033   5.950  1.0445 -2.0646 -1.5663
  113OSM    C4F11716   3.877  -0.018   5.772  0.0091 -0.3173 -0.6016
  113OSM    H4F11717   3.919   0.063   5.708  1.0837 -0.9919 -0.7758
  113OSM    H4G11718   3.770  -0.035   5.746 -1.1131  1.9522  1.9858
  113OSM    C5F11719   3.967  -0.133   5.731  0.2409 -0.0694 -0.7239
  113OSM    H5F11720   3.939  -0.232   5.772 -0.7329 -0.4255 -2.1775
  113OSM    H5G11721   4.071  -0.110   5.764 -0.1382 -1.0266  1.2924
  113OSM    C6F11722   3.976  -0.156   5.578  0.1535 -0.5704  0.0982
  113OSM    H6F11723   4.031  -0.251   5.559 -1.5856 -1.4194 -1.0214
  113OSM    H6G11724   4.029  -0.068   5.536  0.2528 -0.4649  0.4432
  113OSM    C7F11725   3.835  -0.173   5.510  0.0493  0.1019  0.3112
  113OSM    H7F11726   3.786  -0.074   5.518 -0.2390 -0.0680  0.6752
  113OSM    H7G11727   3.783  -0.241   5.580  0.3361 -0.2891  0.1463
  113OSM    C8F11728   3.830  -0.205   5.355 -0.1057 -0.7597  0.3961
  113OSM    H8F11729   3.911  -0.273   5.323  2.1888  1.2091  1.6610
  113OSM    H8G11730   3.852  -0.110   5.302 -3.9199 -0.6669 -1.3887
  113OSM    C9F11731   3.699  -0.260   5.301 -0.2234 -0.2778 -0.0102
  113OSM    H9F11732   3.617  -0.276   5.372 -0.0485  0.7203  0.4366
  113OSM   C10F11733   3.668  -0.285   5.174  0.1779  0.0231  0.8642
  113OSM   H10F11734   3.574  -0.339   5.153  0.8508 -0.6622 -0.5894
  113OSM   C11F11735   3.751  -0.262   5.047  0.3529 -0.3235  0.7043
  113OSM   H11F11736   3.843  -0.207   5.074  1.1509 -1.0162 -0.4684
  113OSM   H11G11737   3.679  -0.210   4.979  1.1159  0.9282  0.8190
  113OSM   C12F11738   3.791  -0.392   4.972  0.1709 -0.9154 -0.3614
  113OSM   H12F11739   3.842  -0.455   5.048 -1.1626 -0.1253  1.2611
  113OSM   H12G11740   3.865  -0.364   4.894 -0.1876 -0.4293 -0.5375
  113OSM   C13F11741   3.679  -0.467   4.910  0.6906  0.1785 -0.5082
  113OSM   H13F11742   3.652  -0.407   4.821 -1.1876 -0.6743 -0.5680
  113OSM   H13G11743   3.595  -0.469   4.983  0.2884  0.6592 -0.9550
  113OSM   C14F11744   3.718  -0.611   4.875 -0.1521 -0.4038 -0.1334
  113OSM   H14F11745   3.627  -0.666   4.843  0.4217 -2.2170  1.1554
  113OSM   H14G11746   3.765  -0.663   4.962  3.6566 -0.9431 -2.2812
  113OSM   C15F11747   3.815  -0.609   4.756  0.8224  0.4445 -0.4253
  113OSM   H15F11748   3.906  -0.557   4.793 -0.6253  1.7279  1.6369
  113OSM   H15G11749   3.763  -0.560   4.671 -1.2772 -2.9173 -1.2676
  113OSM   C16F11750   3.847  -0.758   4.711  0.2693  0.1866 -0.4407
  113OSM   H16F11751   3.751  -0.810   4.695 -0.3901  0.9265  0.9254
  113OSM   H16G11752   3.909  -0.807   4.790 -1.3263 -0.2244  0.5947
  113OSM   C17F11753   3.921  -0.757   4.575 -0.1594  0.1793  0.7546
  113OSM   H17F11754   3.849  -0.732   4.494 -0.2988 -3.5705 -0.4848
  113OSM   H17G11755   3.945  -0.864   4.559 -0.7338 -0.0136  1.1403
  113OSM   C18F11756   4.050  -0.676   4.571  0.0028 -0.6089  0.0980
  113OSM   H18F11757   4.118  -0.713   4.491  1.5614 -1.8121  1.8739
  113OSM   H18G11758   4.106  -0.682   4.667  0.8391 -0.1402 -0.3471
  113OSM   H18H11759   4.028  -0.570   4.546 -0.4370 -0.8613 -0.6121
  114OSM      N11760   3.736   4.362   6.467 -0.1577  0.0253  0.1215
  114OSM    C1511761   3.726   4.212   6.498  0.5604 -0.7231  0.1375
  114OSM   H15A11762   3.635   4.186   6.550  1.4980  1.8870  3.4908
  114OSM   H15B11763   3.800   4.188   6.573 -0.0555  1.5320  1.5566
  114OSM   H15C11764   3.741   4.148   6.412 -3.9784 -0.6993 -0.9077
  114OSM    C1411765   3.713   4.447   6.589 -0.2962  0.1403 -0.1216
  114OSM   H14A11766   3.742   4.548   6.564  2.5114 -0.3608  0.6981
  114OSM   H14B11767   3.763   4.432   6.684 -1.7007  3.3540  1.2874
  114OSM   H14C11768   3.606   4.444   6.601 -0.5281  2.1051 -1.2623
  114OSM    C1311769   3.878   4.397   6.428  0.0111 -0.2891  0.6612
  114OSM   H13A11770   3.951   4.391   6.508  1.9052  1.7851 -0.7657
  114OSM   H13B11771   3.874   4.502   6.402  1.7508 -1.0113 -3.3344
  114OSM   H13C11772   3.920   4.352   6.339  0.3879 -1.7762  1.5718
  114OSM    C1211773   3.638   4.392   6.356  0.5769  0.2891  0.2445
  114OSM   H12A11774   3.661   4.347   6.261  0.3035 -0.2686  0.4365
  114OSM   H12B11775   3.649   4.497   6.333  0.2063  0.5213  1.1007
  114OSM    C1111776   3.482   4.372   6.382 -1.0126 -0.0382  0.2627
  114OSM   H11A11777   3.472   4.263   6.405 -1.2939 -1.2005 -4.2451
  114OSM   H11B11778   3.439   4.377   6.280  1.7989  1.2870 -0.9766
  114OSM      P11779   3.426   4.626   6.438  0.2376  0.1038 -0.0493
  114OSM    O1311780   3.368   4.700   6.552  0.4889  0.0057  0.1180
  114OSM    O1411781   3.560   4.669   6.400 -0.1180  0.7780  0.3430
  114OSM    O1111782   3.340   4.623   6.313  0.0515  0.2767 -0.6083
  114OSM    O1211783   3.426   4.467   6.480 -0.5806  0.0061  0.7064
  114OSM    C1S11784   3.283   4.734   6.241 -0.5300  0.2884  0.0944
  114OSM    H1S11785   3.292   4.832   6.293  1.5034 -0.5335  1.4321
  114OSM    H1T11786   3.177   4.701   6.234  0.6764 -3.7751 -4.2296
  114OSM     NF11787   3.284   4.860   6.028  0.5172 -0.0418  0.0757
  114OSM    HNF11788   3.188   4.864   6.005  0.2683 -1.5468  0.7289
  114OSM    C2S11789   3.323   4.741   6.089 -0.5210  0.5040 -0.5167
  114OSM    H2S11790   3.432   4.724   6.075 -0.6643  0.2817 -1.3590
  114OSM    C3S11791   3.257   4.616   6.017 -0.1569  0.3542 -0.3668
  114OSM    H3S11792   3.153   4.653   6.028  0.6784  2.3509  1.5409
  114OSM     O311793   3.263   4.496   6.096 -0.7761  0.0781 -0.4204
  114OSM    HO311794   3.278   4.533   6.183  0.8416  0.0452 -0.6578
  114OSM    C4S11795   3.305   4.607   5.879  0.0692 -0.0048  0.0064
  114OSM    H4S11796   3.411   4.616   5.851  0.4284 -3.7436 -0.4311
  114OSM    C5S11797   3.215   4.601   5.782  0.3721  0.0424  0.8922
  114OSM    H5S11798   3.107   4.599   5.803  0.2364 -0.1334  0.2045
  114OSM    C6S11799   3.243   4.608   5.635  0.4531  0.2149  0.2806
  114OSM    H6S11800   3.319   4.683   5.605  0.1183 -0.4209 -2.5145
  114OSM    H6T11801   3.146   4.637   5.587 -0.9823 -0.9869  2.3095
  114OSM    C7S11802   3.266   4.466   5.588 -0.5342  0.3852  0.4004
  114OSM    H7S11803   3.170   4.411   5.592 -0.6526  0.5738  0.1684
  114OSM    H7T11804   3.359   4.419   5.626  0.8294  1.2896 -1.6111
  114OSM    C8S11805   3.297   4.485   5.433  0.1378 -1.1060  0.1903
  114OSM    H8S11806   3.381   4.555   5.415  0.9526 -1.7454  1.3641
  114OSM    H8T11807   3.209   4.538   5.391  0.8521  3.0779  3.3165
  114OSM    C9S11808   3.325   4.348   5.372  0.2272 -0.3005 -0.3329
  114OSM    H9S11809   3.261   4.271   5.419  1.4997 -1.1722  0.0327
  114OSM    H9T11810   3.430   4.313   5.383  0.1415 -0.4460  0.0246
  114OSM   C10S11811   3.295   4.343   5.217  0.2946  0.2430 -0.5200
  114OSM   H10S11812   3.351   4.412   5.151  0.5142  0.3738 -0.2008
  114OSM   H10T11813   3.191   4.370   5.192  0.5574  1.3551 -0.4713
  114OSM   C11S11814   3.325   4.203   5.161  0.2874  0.7367  0.0453
  114OSM   H11S11815   3.241   4.136   5.186 -1.3251  3.2519  1.8186
  114OSM   H11T11816   3.417   4.161   5.207  0.5345  0.9813 -0.2122
  114OSM   C12S11817   3.340   4.202   5.006  0.8664 -0.0837  0.7956
  114OSM   H12S11818   3.439   4.244   4.978  0.2485  0.2511 -1.0013
  114OSM   H12T11819   3.254   4.260   4.967 -0.5597 -2.2345  0.5843
  114OSM   C13S11820   3.346   4.071   4.938  0.7433 -0.2853  0.1495
  114OSM   H13S11821   3.257   4.005   4.947 -1.0003  2.2136  2.9897
  114OSM   H13T11822   3.426   4.020   4.995 -0.1169 -1.9617 -0.0826
  114OSM   C14S11823   3.407   4.080   4.797  0.2366  0.9392 -0.6647
  114OSM   H14S11824   3.515   4.104   4.795  0.7433 -1.1174 -2.5885
  114OSM   H14T11825   3.361   4.167   4.746 -1.1344  0.4331 -0.3618
  114OSM   C15S11826   3.404   3.951   4.718  0.2636  0.4037 -0.0945
  114OSM   H15S11827   3.414   3.873   4.797 -1.2010  1.2020  0.9413
  114OSM   H15T11828   3.498   3.936   4.661  0.6000  1.2352  0.2251
  114OSM   C16S11829   3.288   3.939   4.616 -0.3417 -0.6999  0.4174
  114OSM   H16S11830   3.304   4.027   4.549 -2.1065 -0.7809 -0.1684
  114OSM   H16T11831   3.194   3.949   4.675 -0.0932  0.8142  0.5967
  114OSM   C17S11832   3.304   3.816   4.534  0.2722  0.3477  0.1009
  114OSM   H17S11833   3.286   3.733   4.605  2.0854  1.1204  1.5489
  114OSM   H17T11834   3.400   3.813   4.479 -0.7739  0.8121 -1.8447
  114OSM   C18S11835   3.196   3.808   4.422  0.0660  0.1184  0.2994
  114OSM   H18S11836   3.232   3.730   4.352  1.9871 -0.1895  1.5871
  114OSM   H18T11837   3.189   3.898   4.356 -1.7332 -1.2532 -1.5289
  114OSM   H18U11838   3.094   3.796   4.464 -0.3459 -0.3604 -0.7981
  114OSM    C1F11839   3.354   4.966   6.051 -0.2446 -0.2837 -0.3007
  114OSM     OF11840   3.464   4.960   6.109 -0.3074 -0.6630  0.5102
  114OSM    C2F11841   3.286   5.094   6.031  0.1861  0.0485  0.3957
  114OSM    H2F11842   3.297   5.151   6.125  1.1276 -0.6099  0.7027
  114OSM    H2G11843   3.175   5.093   6.025  0.1587  1.2536  0.3227
  114OSM    C3F11844   3.344   5.172   5.909  0.0440  0.4372  0.1154
  114OSM    H3F11845   3.454   5.165   5.903  0.1052  2.0424 -3.7012
  114OSM    H3G11846   3.311   5.277   5.925  1.9277  0.9597  0.7841
  114OSM    C4F11847   3.309   5.111   5.771 -0.1861  0.2837  0.2069
  114OSM    H4F11848   3.199   5.107   5.759  0.0850 -1.1282 -2.4720
  114OSM    H4G11849   3.352   5.009   5.765 -2.2557 -0.6095 -0.0606
  114OSM    C5F11850   3.365   5.202   5.648 -0.8827 -0.0359 -0.3760
  114OSM    H5F11851   3.460   5.252   5.678 -0.5691 -1.5255  1.2778
  114OSM    H5G11852   3.290   5.283   5.644  0.1016  0.9471  0.3319
  114OSM    C6F11853   3.384   5.122   5.515 -0.2562 -0.4088 -0.4913
  114OSM    H6F11854   3.462   5.046   5.536  0.3191  0.9984  3.4408
  114OSM    H6G11855   3.419   5.193   5.437  0.6998 -0.3487 -0.0163
  114OSM    C7F11856   3.246   5.059   5.472  0.2127 -0.4873 -0.0093
  114OSM    H7F11857   3.168   5.137   5.478  1.4118  1.0013 -2.2854
  114OSM    H7G11858   3.222   4.971   5.535  0.2795 -2.2523 -2.2905
  114OSM    C8F11859   3.242   5.014   5.324 -0.5147 -0.8108 -0.5401
  114OSM    H8F11860   3.281   5.096   5.261  0.8040  0.7364  2.1524
  114OSM    H8G11861   3.138   4.988   5.295  0.0358 -2.9226 -0.8307
  114OSM    C9F11862   3.325   4.890   5.301 -1.0030 -0.1050  0.3530
  114OSM    H9F11863   3.413   4.888   5.367  0.0217 -1.6877 -0.9631
  114OSM   C10F11864   3.308   4.798   5.203  0.2819 -0.4743  0.2616
  114OSM   H10F11865   3.384   4.722   5.179  0.5694  0.5465 -2.3749
  114OSM   C11F11866   3.189   4.797   5.106  0.6082 -0.0628 -0.3431
  114OSM   H11F11867   3.094   4.814   5.162  0.7564 -0.3183 -0.0154
  114OSM   H11G11868   3.172   4.706   5.044 -2.2944 -0.4055  0.8117
  114OSM   C12F11869   3.179   4.924   5.013  0.6231 -0.2942 -0.1387
  114OSM   H12F11870   3.266   4.924   4.943  0.1187  0.5925 -0.7991
  114OSM   H12G11871   3.185   5.016   5.074  0.6516 -0.1013 -0.4280
  114OSM   C13F11872   3.046   4.914   4.930  1.2676  0.4672  0.3796
  114OSM   H13F11873   2.965   4.936   5.003 -0.2945 -2.1475 -0.4391
  114OSM   H13G11874   3.039   4.809   4.895  0.2092  0.0963  1.5917
  114OSM   C14F11875   3.038   5.009   4.813 -0.2643 -1.2115  0.0083
  114OSM   H14F11876   3.028   5.114   4.846 -0.0235 -0.9789 -0.6581
  114OSM   H14G11877   2.953   4.973   4.751  0.5741 -0.5563 -1.5770
  114OSM   C15F11878   3.145   4.998   4.704  0.4076  0.2534 -0.2309
  114OSM   H15F11879   3.149   4.893   4.668 -1.1699  0.1589 -0.1765
  114OSM   H15G11880   3.243   5.029   4.748 -0.7581 -0.0977  2.8706
  114OSM   C16F11881   3.108   5.082   4.581  0.4240  0.2190  0.2888
  114OSM   H16F11882   3.102   5.185   4.622  1.7811 -0.7848  3.2967
  114OSM   H16G11883   3.001   5.064   4.557  0.3055  1.4294 -0.1406
  114OSM   C17F11884   3.195   5.058   4.458  0.0998 -0.7412 -0.3554
  114OSM   H17F11885   3.169   5.127   4.375 -0.4550  1.0144  1.1937
  114OSM   H17G11886   3.185   4.954   4.421 -0.7540 -0.7702 -0.0534
  114OSM   C18F11887   3.341   5.098   4.492  0.3494 -0.4053  0.0292
  114OSM   H18F11888   3.344   5.206   4.517 -0.0240  0.3817 -2.9315
  114OSM   H18G11889   3.407   5.082   4.404  5.6860  0.2875  3.4542
  114OSM   H18H11890   3.378   5.033   4.575  0.4377 -0.4675 -0.0587
  115OSM      N11891   2.891   1.596   6.733 -0.1469  0.4968 -0.5344
  115OSM    C1511892   2.807   1.541   6.627  0.2361  0.0341 -0.1769
  115OSM   H15A11893   2.734   1.614   6.594 -0.0613  1.4205  3.1368
  115OSM   H15B11894   2.757   1.451   6.660 -0.7965  0.9856  0.9668
  115OSM   H15C11895   2.872   1.515   6.545  1.5523  0.5705  0.6503
  115OSM    C1411896   2.985   1.689   6.660  0.1243  0.2838 -0.2973
  115OSM   H14A11897   2.928   1.736   6.582 -0.0258 -0.2012 -0.4875
  115OSM   H14B11898   3.063   1.640   6.604 -0.6537  0.4904 -1.5838
  115OSM   H14C11899   3.041   1.742   6.736  0.0986 -1.1948  0.8107
  115OSM    C1311900   2.808   1.675   6.833 -0.3948  0.2020  0.2840
  115OSM   H13A11901   2.862   1.706   6.921  1.9373 -0.0167 -0.9994
  115OSM   H13B11902   2.730   1.612   6.872  0.5247  0.0070  1.8947
  115OSM   H13C11903   2.772   1.759   6.775  1.5967  0.3064 -0.9071
  115OSM    C1211904   2.962   1.483   6.805  0.0542  0.8500 -0.3336
  115OSM   H12A11905   3.022   1.531   6.882 -0.4869  0.7899  0.1364
  115OSM   H12B11906   3.035   1.450   6.733 -1.3201 -0.6166 -1.0956
  115OSM    C1111907   2.889   1.370   6.876 -1.1080  0.3449  0.1482
  115OSM   H11A11908   2.806   1.413   6.936 -1.8170 -0.6911 -0.0806
  115OSM   H11B11909   2.968   1.330   6.943 -1.2731  0.9303  0.7074
  115OSM      P11910   2.786   1.132   6.824 -0.3764  0.2596  0.1605
  115OSM    O1311911   2.889   1.064   6.904  0.0010  0.4139 -0.0203
  115OSM    O1411912   2.653   1.155   6.889  0.5344  0.3869 -0.1443
  115OSM    O1111913   2.766   1.050   6.699 -0.3785 -0.3066  0.1652
  115OSM    O1211914   2.837   1.274   6.779 -0.8433 -0.0517 -0.6412
  115OSM    C1S11915   2.706   1.113   6.583 -0.1438 -0.4522  0.0792
  115OSM    H1S11916   2.775   1.190   6.541  0.8539 -1.2556  0.1960
  115OSM    H1T11917   2.611   1.167   6.602  0.4649  0.3803  0.8379
  115OSM     NF11918   2.605   1.067   6.360 -0.1467  0.7153  0.4035
  115OSM    HNF11919   2.512   1.037   6.342  0.0556  0.2239  0.1658
  115OSM    C2S11920   2.686   1.006   6.468 -0.8605  0.0771 -0.2100
  115OSM    H2S11921   2.792   0.980   6.446 -0.4065 -0.3681  2.2025
  115OSM    C3S11922   2.627   0.874   6.515 -0.1080  0.5583  0.6486
  115OSM    H3S11923   2.525   0.893   6.553 -0.2143  2.4114 -0.4758
  115OSM     O311924   2.684   0.810   6.630 -0.3345  0.5381 -0.0481
  115OSM    HO311925   2.733   0.883   6.669  0.1265  0.4645 -0.4834
  115OSM    C4S11926   2.621   0.778   6.400  1.0778 -0.6057  0.3264
  115OSM    H4S11927   2.718   0.735   6.370  0.3364 -0.9961 -1.6149
  115OSM    C5S11928   2.497   0.740   6.348 -0.0348 -0.8886 -0.1187
  115OSM    H5S11929   2.409   0.801   6.373  1.3422  1.9250 -1.7447
  115OSM    C6S11930   2.472   0.641   6.231 -0.4140 -0.1737 -0.6489
  115OSM    H6S11931   2.417   0.703   6.157  0.7626  1.5626 -0.1218
  115OSM    H6T11932   2.404   0.565   6.273  2.5550 -1.5748  1.9990
  115OSM    C7S11933   2.598   0.564   6.181  0.0209  0.0763 -0.0907
  115OSM    H7S11934   2.650   0.520   6.269  0.5547 -0.2661 -0.5736
  115OSM    H7T11935   2.677   0.631   6.141 -1.1930  1.9987  0.5601
  115OSM    C8S11936   2.559   0.453   6.075 -0.6772 -0.6538 -0.1318
  115OSM    H8S11937   2.519   0.497   5.981  1.3974  1.3048 -0.1826
  115OSM    H8T11938   2.476   0.392   6.117 -1.4218 -0.9838 -2.0017
  115OSM    C9S11939   2.689   0.373   6.044  0.6010 -0.3722 -0.2940
  115OSM    H9S11940   2.707   0.312   6.135  1.9788 -1.1420 -1.0399
  115OSM    H9T11941   2.777   0.439   6.034  0.8722 -0.8237 -0.9444
  115OSM   C10S11942   2.659   0.285   5.929 -0.5018  0.2747  0.5373
  115OSM   H10S11943   2.552   0.261   5.910 -0.9508  0.7203  2.3321
  115OSM   H10T11944   2.710   0.187   5.944 -0.2597  0.2932 -0.1090
  115OSM   C11S11945   2.714   0.343   5.804  0.4429 -0.1666  0.0835
  115OSM   H11S11946   2.825   0.354   5.803  0.4246  0.0727  0.5307
  115OSM   H11T11947   2.667   0.441   5.784  1.9483  0.7398  0.7571
  115OSM   C12S11948   2.685   0.258   5.685  0.4301 -0.6118 -0.2727
  115OSM   H12S11949   2.575   0.249   5.674  0.4513  0.8000 -1.9264
  115OSM   H12T11950   2.708   0.150   5.695  1.7098 -0.4631 -1.3532
  115OSM   C13S11951   2.742   0.306   5.556 -0.5345 -0.6519  0.2215
  115OSM   H13S11952   2.828   0.243   5.524  2.1250  1.4156  2.7328
  115OSM   H13T11953   2.783   0.409   5.565  0.8021 -1.1859  0.4342
  115OSM   C14S11954   2.648   0.305   5.438  0.2401  0.3240 -0.5895
  115OSM   H14S11955   2.564   0.377   5.445 -1.3065 -1.4185 -0.1989
  115OSM   H14T11956   2.592   0.209   5.442 -0.0043  0.0575 -5.2695
  115OSM   C15S11957   2.710   0.307   5.298 -0.0400  0.1244  0.9898
  115OSM   H15S11958   2.782   0.225   5.276  1.3973  1.7152 -0.6444
  115OSM   H15T11959   2.776   0.394   5.281  0.4765 -0.4835 -0.3445
  115OSM   C16S11960   2.602   0.312   5.190 -1.0547 -1.0442  0.4856
  115OSM   H16S11961   2.523   0.389   5.208 -0.6834 -0.2846 -0.9446
  115OSM   H16T11962   2.541   0.219   5.190 -4.2321  0.7965  3.6638
  115OSM   C17S11963   2.660   0.330   5.048 -0.4788 -0.0510 -0.1725
  115OSM   H17S11964   2.731   0.412   5.071 -0.3435 -0.8109  2.5350
  115OSM   H17T11965   2.585   0.367   4.975  0.3129  1.6356 -0.1793
  115OSM   C18S11966   2.738   0.204   4.998  0.3775 -0.7551  0.0747
  115OSM   H18S11967   2.663   0.124   4.982  1.1331 -1.3305 -0.6739
  115OSM   H18T11968   2.818   0.173   5.069  0.4521 -0.5343  0.0890
  115OSM   H18U11969   2.780   0.223   4.897 -1.0673 -0.4222 -0.4925
  115OSM    C1F11970   2.646   1.169   6.287  0.1069 -0.1288 -0.2592
  115OSM     OF11971   2.759   1.211   6.307  0.5948 -0.4931  0.7179
  115OSM    C2F11972   2.555   1.227   6.181  0.9690  0.4854  0.7307
  115OSM    H2F11973   2.607   1.293   6.108 -1.5560  2.2599  0.3889
  115OSM    H2G11974   2.488   1.298   6.235  0.9698 -0.2918  1.7989
  115OSM    C3F11975   2.469   1.117   6.106  0.1901  0.4181  0.1557
  115OSM    H3F11976   2.416   1.065   6.189 -1.2044  1.5387 -0.0072
  115OSM    H3G11977   2.538   1.052   6.047 -0.2492 -1.0172  1.1647
  115OSM    C4F11978   2.358   1.166   6.022 -0.1165  0.5756  0.1191
  115OSM    H4F11979   2.383   1.258   5.964 -2.6203  0.0925 -1.9404
  115OSM    H4G11980   2.275   1.184   6.093  0.1699 -1.8647  1.1952
  115OSM    C5F11981   2.310   1.054   5.916  0.3341  0.6084 -0.1810
  115OSM    H5F11982   2.244   0.977   5.963  0.1816  0.8299 -0.0291
  115OSM    H5G11983   2.397   1.004   5.869  0.0864  0.4155 -0.4379
  115OSM    C6F11984   2.236   1.124   5.805 -0.0501 -0.7622  0.4413
  115OSM    H6F11985   2.315   1.170   5.742 -0.1695 -0.9055  0.1850
  115OSM    H6G11986   2.174   1.203   5.851  0.6847 -0.4279  0.8596
  115OSM    C7F11987   2.140   1.044   5.724  0.2636  0.1026  0.4957
  115OSM    H7F11988   2.055   1.109   5.694  0.2838 -0.9187 -2.0713
  115OSM    H7G11989   2.094   0.966   5.789 -0.0948 -1.1879 -1.2299
  115OSM    C8F11990   2.195   0.985   5.595 -0.7140 -0.6644 -0.2786
  115OSM    H8F11991   2.281   0.925   5.633 -1.3168 -2.8572 -2.1144
  115OSM    H8G11992   2.239   1.056   5.521 -0.2718 -2.1049 -1.4471
  115OSM    C9F11993   2.103   0.899   5.527  0.0746  0.4031  0.3459
  115OSM    H9F11994   2.079   0.811   5.588  1.0834  2.0626  3.3442
  115OSM   C10F11995   2.048   0.896   5.402  0.1954 -0.5656 -0.5337
  115OSM   H10F11996   1.977   0.816   5.376 -0.2693  0.2102 -1.7439
  115OSM   C11F11997   2.065   0.987   5.286 -0.0382 -0.4210 -0.2179
  115OSM   H11F11998   2.131   1.073   5.307 -0.1704 -0.3744  0.0086
  115OSM   H11G11999   1.968   1.041   5.270 -0.5076 -1.0112  0.5836
  115OSM   C12F12000   2.106   0.927   5.150 -0.4443  0.2952  0.0804
  115OSM   H12F12001   2.032   0.863   5.097 -0.6167  1.4947 -1.1727
  115OSM   H12G12002   2.194   0.862   5.167 -0.7012  0.0545  0.5088
  115OSM   C13F12003   2.151   1.032   5.045  0.5697 -0.0608 -0.4759
  115OSM   H13F12004   2.232   1.097   5.086 -0.9047  0.1534  2.2813
  115OSM   H13G12005   2.063   1.086   5.004 -0.0769 -1.7857 -1.4461
  115OSM   C14F12006   2.206   0.974   4.919  0.2169  0.0063  0.2689
  115OSM   H14F12007   2.129   0.900   4.886  1.5567 -0.6371 -1.5937
  115OSM   H14G12008   2.299   0.920   4.945  1.9513  1.5706 -2.2286
  115OSM   C15F12009   2.244   1.085   4.813  0.1323  0.7901  0.3756
  115OSM   H15F12010   2.350   1.111   4.833 -0.2814  1.5209  1.7802
  115OSM   H15G12011   2.175   1.173   4.815  0.8035  1.3650 -0.7060
  115OSM   C16F12012   2.255   1.027   4.673  0.6047 -0.3994 -0.2832
  115OSM   H16F12013   2.167   0.961   4.656 -0.1368  0.4935  0.0034
  115OSM   H16G12014   2.337   0.954   4.689  1.3184  0.9073  2.6361
  115OSM   C17F12015   2.288   1.139   4.582 -0.1089  0.2528  0.3711
  115OSM   H17F12016   2.367   1.206   4.623 -1.0058  1.2439  0.5312
  115OSM   H17G12017   2.199   1.201   4.558 -0.8622 -1.3043 -1.0326
  115OSM   C18F12018   2.347   1.085   4.451 -0.5782  0.0950  0.0837
  115OSM   H18F12019   2.439   1.027   4.472  0.5761  1.3921 -1.1321
  115OSM   H18G12020   2.365   1.173   4.386 -0.3177  0.5137  0.7116
  115OSM   H18H12021   2.277   1.018   4.399 -0.7616 -0.9776  1.6352
  116OSM      N12022   4.342   5.561   6.746 -0.2678  0.0024  0.4928
  116OSM    C1512023   4.451   5.657   6.712  0.3715 -0.0771  0.3678
  116OSM   H15A12024   4.452   5.674   6.606 -2.0053  3.4627  0.7230
  116OSM   H15B12025   4.541   5.611   6.750  0.9853  0.2358 -0.7053
  116OSM   H15C12026   4.430   5.750   6.762 -1.4556 -0.1943 -0.0946
  116OSM    C1412027   4.356   5.433   6.662  0.4725  0.1715  0.1485
  116OSM   H14A12028   4.456   5.392   6.671  0.6000  0.1401 -1.1024
  116OSM   H14B12029   4.341   5.443   6.555 -2.3398 -0.6078  0.4037
  116OSM   H14C12030   4.294   5.358   6.708  1.0317 -0.6185 -0.3472
  116OSM    C1312031   4.361   5.521   6.885  0.3214 -0.6953 -0.3242
  116OSM   H13A12032   4.336   5.606   6.946  0.0459 -1.2977  0.4215
  116OSM   H13B12033   4.460   5.485   6.909  0.2983 -2.0352 -2.0357
  116OSM   H13C12034   4.296   5.439   6.914 -0.8937  0.3961  0.1519
  116OSM    C1212035   4.199   5.618   6.726 -0.5297 -0.5758  0.7515
  116OSM   H12A12036   4.205   5.712   6.778  0.1498 -0.3166  0.2114
  116OSM   H12B12037   4.126   5.548   6.766 -1.4171 -0.1883 -0.1603
  116OSM    C1112038   4.154   5.638   6.580  0.1361  0.6940  0.0162
  116OSM   H11A12039   4.045   5.659   6.587  0.1196  0.9213 -0.7299
  116OSM   H11B12040   4.167   5.541   6.527 -1.0208 -0.7025  2.1512
  116OSM      P12041   4.211   5.889   6.544  0.1807  0.1387 -0.2752
  116OSM    O1312042   4.150   5.952   6.427 -0.3223 -0.2090 -0.0089
  116OSM    O1412043   4.146   5.913   6.677  0.5303  0.0740  0.5197
  116OSM    O1112044   4.357   5.942   6.548 -0.2917  0.2361 -0.4769
  116OSM    O1212045   4.228   5.741   6.519  0.8380 -0.1825 -0.0044
  116OSM    C1S12046   4.451   5.933   6.448 -0.4110  0.8403  0.1391
  116OSM    H1S12047   4.472   5.832   6.407  2.2115  1.0360  0.7828
  116OSM    H1T12048   4.553   5.933   6.492  0.6540 -2.0684 -1.9967
  116OSM     NF12049   4.510   5.993   6.207  0.4647 -0.2751 -0.2320
  116OSM    HNF12050   4.580   6.057   6.177 -0.6796  0.8277 -0.6528
  116OSM    C2S12051   4.443   6.038   6.330  0.3775  0.9008  0.4019
  116OSM    H2S12052   4.335   6.046   6.306  0.4838 -1.5400 -1.3133
  116OSM    C3S12053   4.490   6.175   6.383 -0.1967 -0.3721  0.1790
  116OSM    H3S12054   4.597   6.169   6.412 -0.3460  0.8322  1.0603
  116OSM     O312055   4.414   6.209   6.502 -1.1172  0.3259 -0.2403
  116OSM    HO312056   4.402   6.123   6.543  2.0078 -0.3704 -0.5182
  116OSM    C4S12057   4.471   6.278   6.271  0.0921 -0.0494  0.1316
  116OSM    H4S12058   4.395   6.243   6.200  0.3467 -1.3944  0.4852
  116OSM    C5S12059   4.534   6.392   6.248 -0.4764 -0.2095 -0.4329
  116OSM    H5S12060   4.596   6.431   6.330 -1.0599 -0.0748 -0.0493
  116OSM    C6S12061   4.501   6.487   6.132 -0.7970 -0.8721 -0.3765
  116OSM    H6S12062   4.482   6.587   6.176 -1.5273 -1.1212 -0.1052
  116OSM    H6T12063   4.410   6.452   6.077 -1.7407 -0.6282  0.9857
  116OSM    C7S12064   4.627   6.477   6.040 -0.4671 -0.4140  0.0794
  116OSM    H7S12065   4.659   6.373   6.017  1.1040 -0.0198  0.3986
  116OSM    H7T12066   4.715   6.530   6.082 -0.0535 -0.4340 -0.7336
  116OSM    C8S12067   4.614   6.555   5.902 -0.7697 -0.4343 -1.0654
  116OSM    H8S12068   4.718   6.561   5.863 -0.8003  0.7264 -1.0090
  116OSM    H8T12069   4.598   6.662   5.926  0.6871 -0.5034  0.4542
  116OSM    C9S12070   4.509   6.518   5.805 -0.8825  0.4790 -0.4443
  116OSM    H9S12071   4.411   6.541   5.851 -1.3263 -2.2293  0.1358
  116OSM    H9T12072   4.522   6.408   5.789  0.3002  0.2886  1.4538
  116OSM   C10S12073   4.521   6.585   5.666  0.5111  0.0097  0.7032
  116OSM   H10S12074   4.620   6.563   5.622 -0.2028  1.1421 -1.6099
  116OSM   H10T12075   4.514   6.695   5.677  0.2512 -0.0450  1.1442
  116OSM   C11S12076   4.423   6.541   5.559 -0.5162  0.7977  0.0117
  116OSM   H11S12077   4.322   6.556   5.603 -2.6829 -1.4979 -3.5785
  116OSM   H11T12078   4.436   6.432   5.543  0.3283  0.9024 -0.0393
  116OSM   C12S12079   4.436   6.605   5.419 -0.7661  0.0116  1.1993
  116OSM   H12S12080   4.531   6.584   5.366 -1.9895 -0.0778 -1.1035
  116OSM   H12T12081   4.418   6.714   5.423  0.4119  0.3646 -1.3658
  116OSM   C13S12082   4.325   6.554   5.326 -0.1900 -0.2061 -0.2712
  116OSM   H13S12083   4.229   6.591   5.366 -0.5781 -0.6880 -0.7376
  116OSM   H13T12084   4.324   6.443   5.321  0.8049 -0.1949 -1.3549
  116OSM   C14S12085   4.333   6.599   5.179  1.4495 -0.6132 -0.4263
  116OSM   H14S12086   4.435   6.571   5.143  2.1103  1.1292 -0.0266
  116OSM   H14T12087   4.320   6.709   5.189  0.3585 -0.7411 -0.3182
  116OSM   C15S12088   4.217   6.544   5.089 -0.3177  0.3396  0.5062
  116OSM   H15S12089   4.114   6.567   5.123 -1.4628  0.3011 -2.5830
  116OSM   H15T12090   4.224   6.434   5.101 -0.7335  0.2716  0.1667
  116OSM   C16S12091   4.232   6.587   4.942 -0.3767 -0.1099  0.0607
  116OSM   H16S12092   4.216   6.697   4.947  0.7803  0.0811 -0.2505
  116OSM   H16T12093   4.151   6.547   4.876  0.6123 -0.8261 -0.7581
  116OSM   C17S12094   4.364   6.550   4.875  0.0858  0.2511  0.0333
  116OSM   H17S12095   4.445   6.566   4.949 -0.2691  5.3822 -0.3673
  116OSM   H17T12096   4.407   6.618   4.799 -0.4755  1.8866  1.1241
  116OSM   C18S12097   4.352   6.406   4.817 -0.5598 -0.8326 -0.1366
  116OSM   H18S12098   4.439   6.385   4.750  0.7393  0.2143  1.1498
  116OSM   H18T12099   4.262   6.394   4.753 -1.5843  1.3098  0.8272
  116OSM   H18U12100   4.346   6.337   4.904 -1.1722 -0.7390 -0.1049
  116OSM    C1F12101   4.459   5.889   6.144 -0.5177 -0.0410 -0.7168
  116OSM     OF12102   4.365   5.825   6.184 -0.0569 -0.2464  0.0445
  116OSM    C2F12103   4.527   5.861   6.013 -0.3755  0.8166  0.8987
  116OSM    H2F12104   4.637   5.877   6.016 -0.2552 -0.0029  0.8948
  116OSM    H2G12105   4.488   5.938   5.943 -1.3155 -1.2325 -0.9531
  116OSM    C3F12106   4.498   5.723   5.949  0.0963 -0.0225 -0.0654
  116OSM    H3F12107   4.389   5.703   5.959 -0.5114  1.3628 -2.7316
  116OSM    H3G12108   4.548   5.636   5.996 -0.9355 -1.5772 -1.6894
  116OSM    C4F12109   4.518   5.715   5.795  0.0709  0.5778  0.0324
  116OSM    H4F12110   4.458   5.788   5.737 -0.4243 -0.1946 -0.4376
  116OSM    H4G12111   4.481   5.617   5.760  0.7646 -0.5331  2.2694
  116OSM    C5F12112   4.660   5.732   5.753 -0.3757 -0.3065  0.1482
  116OSM    H5F12113   4.724   5.645   5.777  0.1219 -0.2613 -0.9298
  116OSM    H5G12114   4.712   5.819   5.799  0.1321  0.0426 -1.0457
  116OSM    C6F12115   4.660   5.771   5.608 -0.7160 -0.9370 -0.0532
  116OSM    H6F12116   4.596   5.860   5.590 -0.0193  0.0780  2.0995
  116OSM    H6G12117   4.612   5.690   5.551 -0.3512 -0.7376 -0.6451
  116OSM    C7F12118   4.798   5.806   5.549  0.2563 -0.2063 -0.0554
  116OSM    H7F12119   4.851   5.709   5.558 -0.2415 -0.3321  2.0811
  116OSM    H7G12120   4.863   5.875   5.606 -1.2653  0.7407  0.6048
  116OSM    C8F12121   4.812   5.836   5.393 -0.2728 -0.1895 -0.7978
  116OSM    H8F12122   4.773   5.751   5.332 -0.3809 -0.4095 -0.4289
  116OSM    H8G12123   4.921   5.841   5.369 -0.3511 -0.4428 -1.2121
  116OSM    C9F12124   4.747   5.970   5.369  0.2597  0.6325 -0.2855
  116OSM    H9F12125   4.728   6.033   5.458 -1.5087 -0.3417  0.0687
  116OSM   C10F12126   4.711   6.021   5.251 -0.2038 -0.3680 -0.9854
  116OSM   H10F12127   4.680   6.124   5.233 -1.8111 -1.0266 -2.1868
  116OSM   C11F12128   4.754   5.953   5.122  0.1619  0.2754  0.4765
  116OSM   H11F12129   4.674   5.945   5.045 -0.0261  3.0279  0.2791
  116OSM   H11G12130   4.788   5.848   5.136 -1.2502 -1.3015 -5.3488
  116OSM   C12F12131   4.872   6.036   5.063  0.1127 -0.7730 -0.2703
  116OSM   H12F12132   4.956   6.049   5.135 -0.7885 -1.5402  0.9711
  116OSM   H12G12133   4.844   6.135   5.023 -1.3474 -0.3628  1.5976
  116OSM   C13F12134   4.937   5.945   4.952  0.7712 -0.6987  0.6607
  116OSM   H13F12135   4.864   5.922   4.872  2.0121  0.5063 -0.9022
  116OSM   H13G12136   4.956   5.849   5.005 -0.4093  1.0159  4.5633
  116OSM   C14F12137   5.067   6.008   4.896  0.1258 -0.8150 -0.4628
  116OSM   H14F12138   5.133   6.042   4.978 -0.5759  2.6840 -1.1863
  116OSM   H14G12139   5.053   6.103   4.839  1.2071  0.8193  1.8144
  116OSM   C15F12140   5.147   5.916   4.813 -0.4410  0.5440  0.1807
  116OSM   H15F12141   5.143   5.815   4.860 -1.1578 -0.2980 -1.5739
  116OSM   H15G12142   5.253   5.947   4.808  0.1684 -1.4573 -0.3640
  116OSM   C16F12143   5.103   5.901   4.666  1.0708  0.0927  0.9824
  116OSM   H16F12144   5.111   5.996   4.608  1.7201 -0.9431 -0.7019
  116OSM   H16G12145   4.996   5.875   4.679  0.4960  1.6686 -0.1811
  116OSM   C17F12146   5.161   5.787   4.583 -0.4224  0.3255  0.2367
  116OSM   H17F12147   5.107   5.798   4.487  1.0765  0.2351 -0.6386
  116OSM   H17G12148   5.150   5.692   4.639  1.9254 -0.5104 -0.5837
  116OSM   C18F12149   5.310   5.813   4.553 -0.1006  0.2524 -0.9633
  116OSM   H18F12150   5.366   5.799   4.648 -2.4091  0.7652  0.5647
  116OSM   H18G12151   5.321   5.916   4.513  0.3268  0.2904 -0.7557
  116OSM   H18H12152   5.341   5.750   4.467  1.0514 -0.3379 -0.1313
  117OSM      N12153   1.696   2.002   7.154 -0.0530 -0.4053  0.2523
  117OSM    C1512154   1.766   1.908   7.244 -0.1516 -0.2041  0.3908
  117OSM   H15A12155   1.842   1.965   7.296  1.5429 -0.2338 -1.9146
  117OSM   H15B12156   1.805   1.825   7.189 -0.6873 -0.9420  1.0939
  117OSM   H15C12157   1.696   1.872   7.319  0.7556 -0.4486  1.1307
  117OSM    C1412158   1.564   1.938   7.124 -0.1018 -0.0197 -0.6327
  117OSM   H14A12159   1.505   2.014   7.075 -0.6620 -0.8059 -1.2097
  117OSM   H14B12160   1.510   1.921   7.216 -0.2198  1.0304 -0.5027
  117OSM   H14C12161   1.572   1.846   7.067 -0.9319 -0.1758 -0.5100
  117OSM    C1312162   1.665   2.125   7.227  0.5443 -0.6120  0.2533
  117OSM   H13A12163   1.753   2.185   7.249  1.7796 -2.0920 -0.5029
  117OSM   H13B12164   1.616   2.105   7.321  1.5129 -2.3703  0.4121
  117OSM   H13C12165   1.605   2.188   7.163  1.5312 -0.3238 -0.4257
  117OSM    C1212166   1.784   2.022   7.034  0.1757 -0.3321  0.0749
  117OSM   H12A12167   1.810   1.920   7.006 -1.8168 -0.5867 -1.0197
  117OSM   H12B12168   1.867   2.077   7.076  0.2505 -1.0428  0.8782
  117OSM    C1112169   1.725   2.099   6.916 -0.7769 -0.2661 -0.3054
  117OSM   H11A12170   1.621   2.060   6.921 -1.1777  0.9181  2.0471
  117OSM   H11B12171   1.785   2.061   6.830  0.0185 -1.0984  0.5978
  117OSM      P12172   1.868   2.317   6.913 -0.1485 -0.2112 -0.5252
  117OSM    O1312173   1.839   2.457   6.950  0.5437  0.3429 -0.2655
  117OSM    O1412174   1.965   2.237   6.992  0.1758 -0.1840 -0.2114
  117OSM    O1112175   1.893   2.296   6.754 -0.3907  0.0014  0.0356
  117OSM    O1212176   1.729   2.248   6.925  0.3200 -0.2971 -0.4172
  117OSM    C1S12177   1.862   2.401   6.664 -0.0154 -1.1646  0.6493
  117OSM    H1S12178   1.928   2.489   6.683 -0.0848 -0.6899 -1.1522
  117OSM    H1T12179   1.759   2.440   6.680  0.5117  0.1123  1.0746
  117OSM     NF12180   1.900   2.489   6.435 -0.0154  0.5201  0.0311
  117OSM    HNF12181   1.823   2.515   6.379 -0.6169  1.7369  1.3748
  117OSM    C2S12182   1.873   2.369   6.512 -0.1982  0.4394  0.7025
  117OSM    H2S12183   1.967   2.310   6.506 -0.7973 -0.3976 -1.1248
  117OSM    C3S12184   1.754   2.275   6.476  0.1697 -0.0449 -0.0325
  117OSM    H3S12185   1.660   2.332   6.463  0.2217  0.0428 -0.0230
  117OSM     O312186   1.711   2.184   6.580  0.1291 -0.1777  0.0036
  117OSM    HO312187   1.755   2.205   6.663  0.1766 -0.1321 -0.0334
  117OSM    C4S12188   1.783   2.188   6.354 -0.0322 -0.0017 -0.1473
  117OSM    H4S12189   1.732   2.223   6.263  1.0823 -0.2580 -0.8894
  117OSM    C5S12190   1.855   2.074   6.357  0.6438  1.0159 -0.1790
  117OSM    H5S12191   1.900   2.033   6.448  0.1291 -0.7802 -0.6874
  117OSM    C6S12192   1.874   1.982   6.236  0.4635  0.3074  0.0644
  117OSM    H6S12193   1.835   1.883   6.266 -1.0087  0.8786  0.1002
  117OSM    H6T12194   1.982   1.964   6.214  0.5239 -0.3247  0.8322
  117OSM    C7S12195   1.810   2.023   6.100 -1.2338 -0.9550 -0.8168
  117OSM    H7S12196   1.853   2.117   6.058 -1.1253 -0.7347 -0.2246
  117OSM    H7T12197   1.701   2.041   6.115 -0.6484  1.6065  1.0477
  117OSM    C8S12198   1.828   1.926   5.986  0.6831  0.4200  0.2578
  117OSM    H8S12199   1.802   1.821   6.011  1.8823  0.0668  0.0860
  117OSM    H8T12200   1.938   1.936   5.973  1.0508  1.2180  3.1745
  117OSM    C9S12201   1.758   1.969   5.858 -0.2395  0.4783 -0.3854
  117OSM    H9S12202   1.747   2.080   5.848 -0.5540  0.5597  0.7245
  117OSM    H9T12203   1.651   1.943   5.873 -0.2806  0.9627  0.2128
  117OSM   C10S12204   1.797   1.896   5.728  0.5170 -0.0900 -0.0225
  117OSM   H10S12205   1.757   1.793   5.736 -0.8050  0.3480 -0.5196
  117OSM   H10T12206   1.907   1.895   5.715  0.5102  1.5238 -0.4917
  117OSM   C11S12207   1.733   1.967   5.608  0.0287 -0.1497  0.6729
  117OSM   H11S12208   1.760   2.074   5.616 -0.8077  0.0351  1.2008
  117OSM   H11T12209   1.624   1.958   5.626  0.1925  1.0952  2.5998
  117OSM   C12S12210   1.789   1.915   5.470 -0.0140 -0.5984 -0.1805
  117OSM   H12S12211   1.753   1.811   5.450  0.4379 -0.4207 -2.1001
  117OSM   H12T12212   1.900   1.910   5.464  0.0654  1.5465 -1.2871
  117OSM   C13S12213   1.738   2.005   5.363  0.2317 -0.1799  0.5148
  117OSM   H13S12214   1.781   2.107   5.369 -4.0390  1.8013  1.1684
  117OSM   H13T12215   1.636   2.034   5.396  0.7680  1.4062  0.8371
  117OSM   C14S12216   1.772   1.946   5.228 -0.5537  0.0355  0.5369
  117OSM   H14S12217   1.708   1.856   5.216  1.1153 -0.9517 -1.7760
  117OSM   H14T12218   1.878   1.915   5.238  0.2867  2.8908  1.3250
  117OSM   C15S12219   1.763   2.029   5.102  0.4211 -0.3118  0.0536
  117OSM   H15S12220   1.818   2.121   5.130 -0.1799 -0.3149  1.3364
  117OSM   H15T12221   1.658   2.064   5.086  0.1145 -2.0121 -2.1578
  117OSM   C16S12222   1.808   1.962   4.976  0.0133  0.7786 -0.3423
  117OSM   H16S12223   1.911   1.922   4.984 -0.8765 -1.6829 -0.3175
  117OSM   H16T12224   1.812   2.034   4.891  0.9844  0.1862 -0.8140
  117OSM   C17S12225   1.718   1.849   4.935 -0.0024 -0.3655 -0.2516
  117OSM   H17S12226   1.611   1.876   4.921  0.0143  0.1391  0.5272
  117OSM   H17T12227   1.728   1.770   5.012 -0.9405 -1.0513 -0.8096
  117OSM   C18S12228   1.771   1.787   4.805  0.1709  0.7929 -0.0245
  117OSM   H18S12229   1.879   1.760   4.807  0.0197 -0.0070 -1.1176
  117OSM   H18T12230   1.755   1.854   4.718  3.6199 -0.2795 -1.6573
  117OSM   H18U12231   1.724   1.690   4.777 -0.9492  1.5716 -0.9853
  117OSM    C1F12232   2.011   2.563   6.432  0.3252  0.4397 -0.6555
  117OSM     OF12233   2.108   2.530   6.497 -0.5102  0.7469 -0.6994
  117OSM    C2F12234   2.011   2.690   6.353 -0.1796  0.1283  0.5539
  117OSM    H2F12235   2.025   2.779   6.417 -0.2887  0.2832  0.3603
  117OSM    H2G12236   1.916   2.691   6.296  0.4261  1.0749 -0.4687
  117OSM    C3F12237   2.123   2.685   6.253 -0.3491  0.0481 -0.6596
  117OSM    H3F12238   2.122   2.604   6.177 -0.7671 -0.1658 -0.4263
  117OSM    H3G12239   2.212   2.678   6.319 -2.0234  1.2735  1.8873
  117OSM    C4F12240   2.138   2.822   6.186 -0.3361 -0.2041 -0.3390
  117OSM    H4F12241   2.227   2.816   6.119  1.5055 -3.3281  2.0933
  117OSM    H4G12242   2.148   2.910   6.252  1.1574  0.2703 -1.1335
  117OSM    C5F12243   2.019   2.846   6.092  0.3972  0.7789 -0.2057
  117OSM    H5F12244   2.022   2.953   6.062  0.9266  0.2938 -1.9910
  117OSM    H5G12245   1.926   2.852   6.153  0.5366 -0.5597  0.1731
  117OSM    C6F12246   2.008   2.757   5.973 -0.0618  0.3613 -0.0464
  117OSM    H6F12247   1.983   2.656   6.013  1.2488  0.4723  1.1296
  117OSM    H6G12248   2.091   2.770   5.901 -1.0272  4.0098 -0.6942
  117OSM    C7F12249   1.881   2.790   5.883  1.0173  0.4622 -0.9831
  117OSM    H7F12250   1.874   2.901   5.882 -1.1040  0.3871  0.0979
  117OSM    H7G12251   1.790   2.757   5.936  1.2271 -1.3469 -1.6862
  117OSM    C8F12252   1.890   2.732   5.745  0.7901  0.0111  0.1003
  117OSM    H8F12253   1.873   2.623   5.758 -4.1865  0.7678  2.1769
  117OSM    H8G12254   1.984   2.755   5.690  2.0660 -1.5804  1.5030
  117OSM    C9F12255   1.760   2.787   5.680 -0.3114  0.6058  0.5125
  117OSM    H9F12256   1.687   2.810   5.760  1.6580  2.5574  1.8689
  117OSM   C10F12257   1.738   2.829   5.555  0.0338 -0.2108  0.3131
  117OSM   H10F12258   1.645   2.883   5.535 -1.5787 -2.2821  1.7020
  117OSM   C11F12259   1.830   2.828   5.436  0.3147 -0.3321  0.1490
  117OSM   H11F12260   1.905   2.745   5.440  2.7302  1.7311  0.3130
  117OSM   H11G12261   1.889   2.922   5.431  2.5493 -1.6456  0.3213
  117OSM   C12F12262   1.752   2.803   5.307 -0.2522 -0.4957  0.8061
  117OSM   H12F12263   1.667   2.872   5.297  0.1000 -0.2054 -0.4496
  117OSM   H12G12264   1.706   2.702   5.302  1.0818 -1.1198  0.6539
  117OSM   C13F12265   1.848   2.804   5.180  0.7715  0.7777  0.0559
  117OSM   H13F12266   1.934   2.737   5.203 -0.8227 -1.1641  0.6203
  117OSM   H13G12267   1.888   2.907   5.172  0.5779  0.8313 -0.2369
  117OSM   C14F12268   1.779   2.772   5.048  0.4886 -0.3208 -0.1779
  117OSM   H14F12269   1.721   2.677   5.050 -0.5666  0.3283  1.6708
  117OSM   H14G12270   1.844   2.770   4.957 -1.1417 -1.5157 -1.3673
  117OSM   C15F12271   1.682   2.890   5.015 -0.9485 -0.2222 -0.7465
  117OSM   H15F12272   1.735   2.985   5.040 -1.8477  0.1324 -0.1140
  117OSM   H15G12273   1.594   2.881   5.083  0.1250 -0.3240  0.6896
  117OSM   C16F12274   1.639   2.886   4.869 -0.3701  0.4079 -0.0396
  117OSM   H16F12275   1.588   2.791   4.842 -0.8029  0.8335 -0.7308
  117OSM   H16G12276   1.740   2.897   4.823  0.8544 -0.1129  2.3250
  117OSM   C17F12277   1.538   3.000   4.831 -0.1035 -0.0166 -0.6209
  117OSM   H17F12278   1.513   2.984   4.724 -1.3500 -0.2177 -0.3163
  117OSM   H17G12279   1.583   3.100   4.847 -0.9649  0.6278 -2.0461
  117OSM   C18F12280   1.415   2.989   4.916  0.7130  0.5108 -0.3286
  117OSM   H18F12281   1.335   3.057   4.882  1.5602  0.9707 -1.4727
  117OSM   H18G12282   1.438   3.012   5.022  0.4375 -2.1814  0.3939
  117OSM   H18H12283   1.374   2.886   4.928  0.6321  0.6013  0.1723
  118OSM      N12284   3.485   1.254   6.861  0.0170 -0.7261  0.3055
  118OSM    C1512285   3.529   1.153   6.963 -0.1587  0.8075  0.2582
  118OSM   H15A12286   3.634   1.155   6.987 -0.1949 -2.2714  1.0753
  118OSM   H15B12287   3.509   1.055   6.923 -1.8130  0.7701  1.0670
  118OSM   H15C12288   3.474   1.173   7.054  0.5855  2.7687  0.3309
  118OSM    C1412289   3.349   1.215   6.811 -0.3597 -1.0486 -0.1869
  118OSM   H14A12290   3.337   1.116   6.771  2.3011 -0.3832 -3.0567
  118OSM   H14B12291   3.322   1.282   6.730 -1.0367  0.4202  1.1960
  118OSM   H14C12292   3.279   1.222   6.893  1.1627  1.9179  1.0257
  118OSM    C1312293   3.477   1.386   6.931  0.2708 -0.0718  0.8207
  118OSM   H13A12294   3.576   1.408   6.967  0.3746 -0.0489  0.5293
  118OSM   H13B12295   3.411   1.393   7.016  0.3177  1.5017  0.7580
  118OSM   H13C12296   3.456   1.467   6.863 -0.4181 -1.6455 -0.9369
  118OSM    C1212297   3.583   1.257   6.744 -0.4085  0.3802 -0.0367
  118OSM   H12A12298   3.677   1.277   6.794 -1.1987  3.6324  0.3573
  118OSM   H12B12299   3.577   1.348   6.685  2.9790  0.9023  0.1905
  118OSM    C1112300   3.590   1.133   6.653  0.1678 -0.5794  0.5714
  118OSM   H11A12301   3.672   1.149   6.580 -1.5355  2.4486 -0.8531
  118OSM   H11B12302   3.496   1.124   6.594  0.4773  0.6753 -0.1482
  118OSM      P12303   3.595   0.872   6.644  0.2525  0.0706 -0.3741
  118OSM    O1312304   3.711   0.791   6.665 -0.4565  0.4230  0.4652
  118OSM    O1412305   3.460   0.817   6.683  0.2254 -0.1538  0.0822
  118OSM    O1112306   3.588   0.924   6.490 -0.4462  0.0374 -0.4727
  118OSM    O1212307   3.623   1.011   6.720  0.5968  0.6068 -0.2483
  118OSM    C1S12308   3.512   0.858   6.383 -0.1480 -0.0800 -0.1768
  118OSM    H1S12309   3.418   0.819   6.427  0.1689  2.2729  2.9070
  118OSM    H1T12310   3.578   0.776   6.347  1.9398  1.4260  0.0483
  118OSM     NF12311   3.441   0.859   6.151 -0.0363  0.0685 -1.1838
  118OSM    HNF12312   3.499   0.856   6.070 -0.0547  2.4246 -1.3534
  118OSM    C2S12313   3.490   0.944   6.261 -0.4480  0.9397  0.0005
  118OSM    H2S12314   3.414   1.021   6.288  1.7026  2.6699  1.3986
  118OSM    C3S12315   3.617   1.022   6.226 -0.4899 -0.4627 -0.1289
  118OSM    H3S12316   3.690   0.946   6.192 -1.9726 -0.9154 -2.6011
  118OSM     O312317   3.678   1.111   6.320  0.4595  0.0789  0.4367
  118OSM    HO312318   3.659   1.065   6.402  0.9541 -1.4400 -0.2593
  118OSM    C4S12319   3.596   1.102   6.103 -0.4473 -0.9444  0.4919
  118OSM    H4S12320   3.509   1.168   6.122 -1.8317 -2.5012 -0.1567
  118OSM    C5S12321   3.666   1.099   5.987  0.7156 -0.1771  0.2373
  118OSM    H5S12322   3.749   1.027   5.976  1.8949  0.9211  1.5629
  118OSM    C6S12323   3.640   1.177   5.863  0.3875  0.6070 -0.0850
  118OSM    H6S12324   3.736   1.208   5.816  0.6795  0.8458  0.6447
  118OSM    H6T12325   3.575   1.267   5.871 -2.8733 -1.6948  1.2246
  118OSM    C7S12326   3.579   1.088   5.756 -0.3798  0.0651  0.0516
  118OSM    H7S12327   3.482   1.047   5.792 -0.0362 -1.1635 -0.3388
  118OSM    H7T12328   3.647   1.005   5.726 -0.7421  0.1262 -0.9754
  118OSM    C8S12329   3.550   1.170   5.621  0.5467 -0.2133 -0.5162
  118OSM    H8S12330   3.645   1.222   5.595  0.3511  0.3205 -0.1624
  118OSM    H8T12331   3.470   1.243   5.643  0.5666 -0.7899  1.7638
  118OSM    C9S12332   3.508   1.092   5.490  0.3886 -0.3797 -0.4257
  118OSM    H9S12333   3.400   1.067   5.490  0.0692  0.8606 -1.6213
  118OSM    H9T12334   3.573   1.002   5.496 -0.0026 -0.6119  0.3110
  118OSM   C10S12335   3.544   1.175   5.368 -0.3660  0.2540 -0.3461
  118OSM   H10S12336   3.654   1.187   5.373  0.2427 -3.7689 -1.1136
  118OSM   H10T12337   3.496   1.276   5.365  1.3198  1.1139  0.2425
  118OSM   C11S12338   3.516   1.105   5.233  0.3027 -0.3267 -0.2766
  118OSM   H11S12339   3.409   1.082   5.214  0.6584 -0.8101 -1.9027
  118OSM   H11T12340   3.569   1.007   5.239 -0.0464 -0.4204  2.1162
  118OSM   C12S12341   3.558   1.178   5.099  0.9641  0.5143 -0.2743
  118OSM   H12S12342   3.661   1.218   5.115  0.5360  1.5893 -0.1239
  118OSM   H12T12343   3.496   1.268   5.078 -1.0270 -1.1065 -1.7099
  118OSM   C13S12344   3.554   1.087   4.975  0.0782  0.5508 -0.8958
  118OSM   H13S12345   3.452   1.046   4.962 -0.1867  0.2173  1.7595
  118OSM   H13T12346   3.616   0.999   5.002  1.6927  1.4058 -1.6789
  118OSM   C14S12347   3.604   1.156   4.848 -0.1721 -0.2951  0.0480
  118OSM   H14S12348   3.677   1.237   4.869  0.6692 -0.4479 -2.0088
  118OSM   H14T12349   3.517   1.203   4.799  0.4137 -0.7379 -1.4838
  118OSM   C15S12350   3.650   1.059   4.748 -0.2965 -0.2059 -0.1403
  118OSM   H15S12351   3.569   0.986   4.728 -1.4034  1.2576 -1.1833
  118OSM   H15T12352   3.733   1.012   4.806  0.3106  2.6966  1.5330
  118OSM   C16S12353   3.712   1.122   4.620  0.2776 -0.1418  0.4407
  118OSM   H16S12354   3.783   1.204   4.642 -1.3750  1.1193  1.3325
  118OSM   H16T12355   3.630   1.177   4.568 -0.7223 -2.3384 -0.4789
  118OSM   C17S12356   3.754   1.011   4.513 -0.2543  0.2797 -0.1771
  118OSM   H17S12357   3.677   0.932   4.528  1.6466 -1.5227  0.5041
  118OSM   H17T12358   3.852   0.972   4.547 -0.9067 -0.1412  1.3032
  118OSM   C18S12359   3.765   1.058   4.368 -0.0981 -0.2087 -0.5950
  118OSM   H18S12360   3.850   1.128   4.357 -0.4903  1.2253  3.6558
  118OSM   H18T12361   3.670   1.108   4.339  0.7929  0.3163 -2.7261
  118OSM   H18U12362   3.795   0.975   4.300 -0.0400  0.2784 -1.1699
  118OSM    C1F12363   3.325   0.787   6.159  0.1197 -0.2058  0.1111
  118OSM     OF12364   3.259   0.767   6.266  0.0100 -0.0127 -0.4784
  118OSM    C2F12365   3.285   0.719   6.030 -0.5170 -0.8357  0.3543
  118OSM    H2F12366   3.180   0.684   6.042 -0.2081 -1.8152  0.2548
  118OSM    H2G12367   3.353   0.634   6.014 -1.3261 -1.1583 -1.6054
  118OSM    C3F12368   3.293   0.811   5.905  0.4198 -0.2660  0.3350
  118OSM    H3F12369   3.397   0.848   5.893 -0.0971  1.3129  0.4271
  118OSM    H3G12370   3.229   0.899   5.928 -0.0066 -0.3055 -0.6699
  118OSM    C4F12371   3.244   0.742   5.772 -0.2695 -0.2842  0.3487
  118OSM    H4F12372   3.150   0.691   5.804  1.7748 -2.1621  4.0839
  118OSM    H4G12373   3.309   0.659   5.735  0.8555  0.9148 -0.4376
  118OSM    C5F12374   3.235   0.847   5.649  0.2812 -0.2649 -0.5082
  118OSM    H5F12375   3.334   0.896   5.637  0.6876 -0.2887  2.1680
  118OSM    H5G12376   3.164   0.928   5.678 -1.1933 -1.9714  0.9303
  118OSM    C6F12377   3.180   0.785   5.519  0.2634  0.0575 -0.8147
  118OSM    H6F12378   3.095   0.717   5.542 -0.4407  0.7798 -1.1913
  118OSM    H6G12379   3.263   0.720   5.486  0.4073  0.3234 -0.9834
  118OSM    C7F12380   3.134   0.882   5.415 -0.0568 -0.5775 -0.0258
  118OSM    H7F12381   3.222   0.944   5.390  0.8800 -1.9448 -0.2802
  118OSM    H7G12382   3.057   0.942   5.468 -1.0476 -2.1650  0.4014
  118OSM    C8F12383   3.086   0.809   5.292 -0.5043  0.7505 -0.8876
  118OSM    H8F12384   3.009   0.738   5.327  0.1214 -0.9010 -2.6540
  118OSM    H8G12385   3.170   0.746   5.254 -0.5500  0.7813 -1.0413
  118OSM    C9F12386   3.038   0.898   5.186 -0.7163 -0.2710  0.2317
  118OSM    H9F12387   2.956   0.966   5.214  1.0722  1.6933  0.9492
  118OSM   C10F12388   3.085   0.915   5.060  0.4734 -0.4598  0.7138
  118OSM   H10F12389   3.030   0.979   4.990  0.6718  0.1865  1.1463
  118OSM   C11F12390   3.183   0.830   4.989 -0.1175  0.2161  1.1723
  118OSM   H11F12391   3.281   0.840   5.039  0.5426 -0.0201 -0.0379
  118OSM   H11G12392   3.198   0.867   4.885 -0.4836 -3.1612 -0.2130
  118OSM   C12F12393   3.154   0.683   4.966 -0.3417  0.0986 -0.3339
  118OSM   H12F12394   3.154   0.628   5.063  2.1347  0.3588 -0.1164
  118OSM   H12G12395   3.245   0.644   4.917 -0.7479  1.1672 -2.0282
  118OSM   C13F12396   3.030   0.643   4.885  0.1531 -0.1566 -0.8327
  118OSM   H13F12397   3.042   0.695   4.788  1.7365  0.0820 -0.5450
  118OSM   H13G12398   2.940   0.683   4.937  0.1259  2.1410 -2.5070
  118OSM   C14F12399   3.006   0.493   4.866  0.4755  0.6550 -0.1467
  118OSM   H14F12400   2.913   0.492   4.806 -0.4166  0.6610  1.2025
  118OSM   H14G12401   2.991   0.439   4.962 -0.2733 -0.9139 -1.1049
  118OSM   C15F12402   3.116   0.425   4.794  0.6185  0.5853  0.6230
  118OSM   H15F12403   3.181   0.383   4.874  0.6939 -2.2844 -0.7926
  118OSM   H15G12404   3.173   0.501   4.738  2.7016 -0.8677  0.6756
  118OSM   C16F12405   3.080   0.312   4.700 -0.2260  0.5023  1.2810
  118OSM   H16F12406   3.062   0.360   4.602  0.3496 -0.6189  0.5970
  118OSM   H16G12407   2.992   0.250   4.729 -0.6616  0.2364 -0.5239
  118OSM   C17F12408   3.196   0.208   4.685 -0.0896 -0.5498 -0.5117
  118OSM   H17F12409   3.239   0.178   4.782  2.9591 -0.6501 -1.7753
  118OSM   H17G12410   3.282   0.254   4.632 -0.0253 -0.8360 -0.6594
  118OSM   C18F12411   3.157   0.086   4.608  0.7378 -0.3104  0.5267
  118OSM   H18F12412   3.180   0.115   4.503 -0.3937  0.5607  0.5060
  118OSM   H18G12413   3.048   0.071   4.623  0.2823  0.9198 -1.2757
  118OSM   H18H12414   3.220   0.003   4.647 -1.9918 -2.2823  1.0401
  119OSM      N12415   5.987   5.246   6.388 -0.2035  0.0671  0.5381
  119OSM    C1512416   5.852   5.212   6.447  0.4763 -0.2083 -0.1664
  119OSM   H15A12417   5.775   5.283   6.421  3.5179  3.1937 -0.8306
  119OSM   H15B12418   5.865   5.210   6.554 -0.7952 -0.4092 -0.0045
  119OSM   H15C12419   5.813   5.118   6.412  1.2330 -0.8738  0.7031
  119OSM    C1412420   5.978   5.230   6.234  0.4733 -0.1510 -0.7076
  119OSM   H14A12421   5.963   5.127   6.205  1.2010 -0.3677 -0.3471
  119OSM   H14B12422   6.065   5.250   6.172 -0.4141 -1.9233 -2.6271
  119OSM   H14C12423   5.897   5.290   6.197  1.7535  1.3471 -1.1874
  119OSM    C1312424   6.023   5.382   6.431  0.0872 -1.1466  0.1714
  119OSM   H13A12425   6.104   5.432   6.380 -2.3856  0.9706 -1.9405
  119OSM   H13B12426   6.029   5.379   6.538 -1.9806 -1.4026  0.3167
  119OSM   H13C12427   5.950   5.455   6.399  1.8983 -1.1014 -4.8518
  119OSM    C1212428   6.070   5.138   6.448 -0.3999 -0.1370  0.2434
  119OSM   H12A12429   6.061   5.035   6.420  1.5423  0.0599 -1.3109
  119OSM   H12B12430   6.060   5.150   6.555 -0.6346  2.4726  0.0146
  119OSM    C1112431   6.221   5.167   6.420  0.3147  0.0014 -0.0873
  119OSM   H11A12432   6.241   5.265   6.469 -1.5345  1.0380 -1.3142
  119OSM   H11B12433   6.238   5.166   6.310  1.1319  1.1121  0.0140
  119OSM      P12434   6.298   4.924   6.434  0.0151 -0.3539  0.2321
  119OSM    O1312435   6.410   4.856   6.502 -0.2336  0.5757 -0.6826
  119OSM    O1412436   6.162   4.861   6.443  0.5472  0.5452 -0.0576
  119OSM    O1112437   6.350   4.953   6.293 -0.0919  0.4669 -0.2492
  119OSM    O1212438   6.299   5.066   6.491 -0.4096  0.3377 -0.6807
  119OSM    C1S12439   6.272   4.919   6.176 -0.2966  0.0249  1.0698
  119OSM    H1S12440   6.170   4.961   6.181  0.0041  0.7968  0.9290
  119OSM    H1T12441   6.275   4.808   6.167  2.4856 -0.1577  2.7662
  119OSM     NF12442   6.237   4.949   5.921 -0.3375 -0.1518 -0.1616
  119OSM    HNF12443   6.256   4.866   5.869 -0.4331  0.1590 -0.7041
  119OSM    C2S12444   6.333   4.962   6.032 -0.7592 -0.8807  0.1949
  119OSM    H2S12445   6.359   5.070   6.036 -3.3987 -0.1162 -0.6947
  119OSM    C3S12446   6.472   4.893   6.001  0.1469  0.0273  0.3484
  119OSM    H3S12447   6.456   4.783   5.994 -0.1760 -0.0501  1.8319
  119OSM     O312448   6.557   4.899   6.109 -0.0337  0.7120 -0.3479
  119OSM    HO312449   6.508   4.961   6.163 -0.3941 -0.3287  0.5502
  119OSM    C4S12450   6.538   4.934   5.870  0.0902  0.2733  0.7470
  119OSM    H4S12451   6.505   4.877   5.782 -0.8234  1.2826  0.4114
  119OSM    C5S12452   6.634   5.024   5.864 -0.4229  0.5042  0.0990
  119OSM    H5S12453   6.671   5.075   5.954  1.4569 -0.0364 -0.3225
  119OSM    C6S12454   6.726   5.058   5.750  0.1139 -0.6289  0.7032
  119OSM    H6S12455   6.832   5.060   5.784 -0.1655 -1.1082  1.6475
  119OSM    H6T12456   6.703   5.165   5.731  0.7593 -0.7969 -1.2295
  119OSM    C7S12457   6.697   4.992   5.617  0.4427 -0.1158  0.2356
  119OSM    H7S12458   6.589   5.010   5.598  0.9512  1.9065 -1.1028
  119OSM    H7T12459   6.723   4.884   5.626  0.0982 -0.0954  1.6711
  119OSM    C8S12460   6.772   5.058   5.503 -0.3576 -0.1770  0.1083
  119OSM    H8S12461   6.877   5.081   5.532 -0.4189 -0.6091  0.6847
  119OSM    H8T12462   6.723   5.154   5.477  0.6617  1.0522  2.3823
  119OSM    C9S12463   6.792   4.969   5.379 -0.5987 -0.1312  0.2703
  119OSM    H9S12464   6.837   4.871   5.403  1.9820  0.7849 -0.4539
  119OSM    H9T12465   6.859   5.010   5.300 -0.8877 -1.3908 -0.6516
  119OSM   C10S12466   6.663   4.928   5.310  0.0985  0.0996 -0.8984
  119OSM   H10S12467   6.607   5.021   5.287 -1.0030 -0.4278 -0.4413
  119OSM   H10T12468   6.597   4.858   5.365  1.8447 -2.3202 -1.7041
  119OSM   C11S12469   6.702   4.864   5.178 -0.1686  0.0063 -0.0655
  119OSM   H11S12470   6.737   4.762   5.206  0.6184 -0.1410 -1.4690
  119OSM   H11T12471   6.785   4.919   5.128  1.4965 -2.5535 -0.3586
  119OSM   C12S12472   6.597   4.819   5.078 -0.0322  0.4305  0.2273
  119OSM   H12S12473   6.515   4.893   5.071  0.9591  1.5256 -0.0507
  119OSM   H12T12474   6.553   4.725   5.120  1.2285 -1.0410 -1.5591
  119OSM   C13S12475   6.643   4.775   4.940 -0.0311  0.4109 -0.2644
  119OSM   H13S12476   6.666   4.864   4.878 -0.6785  3.6111  3.6995
  119OSM   H13T12477   6.558   4.718   4.899 -0.4257  0.5423  0.3539
  119OSM   C14S12478   6.753   4.669   4.952  0.2731 -0.4979 -0.7364
  119OSM   H14S12479   6.737   4.614   5.047  1.2930 -0.0589 -0.2929
  119OSM   H14T12480   6.852   4.719   4.952  0.0020  0.1608  1.6589
  119OSM   C15S12481   6.767   4.571   4.832  1.1270  0.3956 -0.4809
  119OSM   H15S12482   6.699   4.483   4.838 -0.7257  1.6757 -2.0670
  119OSM   H15T12483   6.870   4.528   4.837  0.5127 -1.1816 -0.6535
  119OSM   C16S12484   6.746   4.640   4.696  0.0528  0.0411 -0.0697
  119OSM   H16S12485   6.791   4.742   4.699 -0.8985  0.4655  2.1563
  119OSM   H16T12486   6.637   4.654   4.685 -0.1599 -2.3343 -1.9276
  119OSM   C17S12487   6.789   4.547   4.573 -0.0932 -0.4836  0.0019
  119OSM   H17S12488   6.899   4.537   4.575  0.0302  0.1902 -1.7625
  119OSM   H17T12489   6.767   4.602   4.479  1.1604 -1.1610 -0.7064
  119OSM   C18S12490   6.719   4.410   4.560 -0.1916  0.8858 -0.8622
  119OSM   H18S12491   6.619   4.414   4.609  0.6497  1.7395  0.8905
  119OSM   H18T12492   6.787   4.335   4.607  0.6742  2.2865  0.2032
  119OSM   H18U12493   6.694   4.378   4.457 -1.0793  0.3082 -0.4845
  119OSM    C1F12494   6.122   5.016   5.923  0.6788 -0.2199 -0.0217
  119OSM     OF12495   6.111   5.102   6.009  0.2590 -0.1917 -0.7037
  119OSM    C2F12496   6.001   4.970   5.844  0.4762 -0.9840  0.1150
  119OSM    H2F12497   6.033   4.879   5.787 -0.9804  0.2312 -2.8816
  119OSM    H2G12498   5.986   5.056   5.775 -2.3774 -0.7751  0.8873
  119OSM    C3F12499   5.873   4.937   5.922 -0.0606  0.3514  0.4055
  119OSM    H3F12500   5.831   5.017   5.987  1.0194  2.0417 -0.8852
  119OSM    H3G12501   5.888   4.845   5.982  0.3725  1.6558  2.4077
  119OSM    C4F12502   5.757   4.915   5.824 -0.0080 -0.4452  0.5368
  119OSM    H4F12503   5.807   4.870   5.736 -1.4456  1.5313 -1.4243
  119OSM    H4G12504   5.726   5.016   5.789  0.9425 -0.3105  0.0404
  119OSM    C5F12505   5.639   4.830   5.868  0.0785  0.0610  0.0611
  119OSM    H5F12506   5.593   4.870   5.962 -1.3714  1.4959 -1.2026
  119OSM    H5G12507   5.672   4.725   5.884 -1.6647 -0.6002 -0.3705
  119OSM    C6F12508   5.521   4.848   5.774  0.0877 -0.0270  0.7744
  119OSM    H6F12509   5.554   4.807   5.676 -0.0574 -0.0018  0.7153
  119OSM    H6G12510   5.500   4.956   5.760  1.9661  0.2588 -0.1150
  119OSM    C7F12511   5.403   4.757   5.812  0.0597 -0.5457 -0.0829
  119OSM    H7F12512   5.382   4.783   5.918  2.0476 -1.9593  0.7205
  119OSM    H7G12513   5.434   4.652   5.830 -1.9481 -1.1110  0.3493
  119OSM    C8F12514   5.275   4.778   5.737 -0.1803 -0.3107  0.4331
  119OSM    H8F12515   5.287   4.737   5.634  2.9964 -1.5470  1.1614
  119OSM    H8G12516   5.252   4.887   5.735 -0.1293 -0.2555  1.9995
  119OSM    C9F12517   5.163   4.707   5.807  0.1693  0.3487  0.1045
  119OSM    H9F12518   5.156   4.733   5.914 -0.8613 -1.4555  0.5260
  119OSM   C10F12519   5.068   4.628   5.748 -0.3164 -0.0485  0.7393
  119OSM   H10F12520   5.007   4.562   5.812  0.8458 -3.1020 -1.0815
  119OSM   C11F12521   5.049   4.595   5.603 -0.1290  0.2126  0.0419
  119OSM   H11F12522   5.099   4.668   5.535  0.4117 -3.4294 -3.9779
  119OSM   H11G12523   4.942   4.582   5.574  0.0241 -1.1403 -0.0086
  119OSM   C12F12524   5.125   4.466   5.568  0.2775 -0.1597 -0.3734
  119OSM   H12F12525   5.084   4.386   5.633 -0.6298  0.2376 -0.4409
  119OSM   H12G12526   5.225   4.487   5.613 -0.2549  0.2649  0.6549
  119OSM   C13F12527   5.135   4.431   5.417 -0.0430 -0.4742  0.6407
  119OSM   H13F12528   5.040   4.397   5.371 -1.5154  0.6661  2.6504
  119OSM   H13G12529   5.201   4.344   5.398  1.0841  0.6031 -0.6639
  119OSM   C14F12530   5.198   4.549   5.336 -0.2638  0.7095  0.2132
  119OSM   H14F12531   5.284   4.588   5.395 -1.3222  1.6939  1.1508
  119OSM   H14G12532   5.123   4.628   5.313 -1.6664 -0.6823 -0.1739
  119OSM   C15F12533   5.248   4.497   5.199  0.5607 -0.6496 -0.9614
  119OSM   H15F12534   5.158   4.478   5.137 -0.7953 -1.5702  1.1534
  119OSM   H15G12535   5.300   4.400   5.216 -0.2946 -0.8138  0.9712
  119OSM   C16F12536   5.350   4.593   5.132 -0.2800  0.2125 -0.4679
  119OSM   H16F12537   5.430   4.623   5.203  0.3260 -0.0402 -1.0371
  119OSM   H16G12538   5.292   4.683   5.104  1.6326  1.4023 -0.7915
  119OSM   C17F12539   5.420   4.539   5.005 -0.2655 -0.4033  0.3292
  119OSM   H17F12540   5.353   4.475   4.943  2.0539 -1.2213 -1.4624
  119OSM   H17G12541   5.496   4.469   5.046  2.0318  1.3554 -0.7259
  119OSM   C18F12542   5.487   4.650   4.914  0.0631  0.7490 -0.9437
  119OSM   H18F12543   5.407   4.722   4.888 -1.6280 -1.1597 -1.2516
  119OSM   H18G12544   5.528   4.594   4.827  0.7327 -1.2048  0.5462
  119OSM   H18H12545   5.570   4.702   4.967  1.6662 -1.3371 -1.2805
  120OSM      N12546   6.692   4.234   6.600 -0.3483 -0.0807  0.1831
  120OSM    C1512547   6.726   4.374   6.614 -0.0165 -0.3306  0.6414
  120OSM   H15A12548   6.677   4.426   6.695 -1.9932 -0.9347 -0.1010
  120OSM   H15B12549   6.704   4.431   6.525 -1.5992 -2.0314 -0.1104
  120OSM   H15C12550   6.832   4.384   6.633  0.3690  0.0193 -1.4677
  120OSM    C1412551   6.546   4.221   6.588 -0.4267 -0.2229 -0.6352
  120OSM   H14A12552   6.503   4.268   6.675  1.3381 -0.9557  0.6976
  120OSM   H14B12553   6.510   4.120   6.586 -0.6196 -0.1534 -1.9206
  120OSM   H14C12554   6.514   4.277   6.501 -2.8628 -0.8847 -0.2452
  120OSM    C1312555   6.751   4.172   6.475  0.1981 -0.6137 -0.5441
  120OSM   H13A12556   6.694   4.206   6.390 -2.5059 -0.4661  1.2057
  120OSM   H13B12557   6.745   4.065   6.484 -0.4546 -0.6340 -1.1012
  120OSM   H13C12558   6.852   4.208   6.460 -0.2127 -0.1853 -2.6941
  120OSM    C1212559   6.745   4.159   6.718  0.4004  0.6914  0.0963
  120OSM   H12A12560   6.730   4.213   6.810  1.8263  1.5221 -0.1231
  120OSM   H12B12561   6.853   4.159   6.720  0.4288  1.4799  3.2391
  120OSM    C1112562   6.705   4.014   6.738 -0.4437  0.1895  0.2088
  120OSM   H11A12563   6.594   4.010   6.738 -0.5543  1.9033 -1.7496
  120OSM   H11B12564   6.743   3.987   6.839 -2.4384  2.2447  1.6015
  120OSM      P12565   6.910   3.877   6.637 -0.1151 -0.0718 -0.1252
  120OSM    O1312566   6.977   3.991   6.573 -0.3289 -0.6682 -0.1636
  120OSM    O1412567   6.972   3.836   6.766 -0.2737 -0.4176 -0.3373
  120OSM    O1112568   6.921   3.763   6.539 -0.0723 -0.2031 -0.3932
  120OSM    O1212569   6.759   3.915   6.642 -0.0570 -0.7813 -0.1377
  120OSM    C1S12570   6.875   3.779   6.403  0.0714 -0.4653 -0.3811
  120OSM    H1S12571   6.888   3.884   6.369  1.2478 -0.0812  1.1743
  120OSM    H1T12572   6.768   3.747   6.401  0.1224 -0.7401  0.7629
  120OSM     NF12573   6.943   3.719   6.175 -0.5812 -0.1731  0.0739
  120OSM    HNF12574   6.857   3.691   6.134 -0.8068 -0.8981  1.0237
  120OSM    C2S12575   6.966   3.689   6.313 -0.9749 -1.0069  0.7169
  120OSM    H2S12576   7.068   3.714   6.349 -1.0813 -1.8197  1.6413
  120OSM    C3S12577   6.931   3.543   6.346 -0.7226 -0.0992 -0.3962
  120OSM    H3S12578   6.822   3.532   6.331 -0.5187 -0.5557 -1.6815
  120OSM     O312579   6.952   3.514   6.485 -0.3804  0.1880 -0.0483
  120OSM    HO312580   6.968   3.597   6.529 -1.7011  0.0921  0.6720
  120OSM    C4S12581   6.992   3.437   6.254 -0.0937  0.0424  0.1719
  120OSM    H4S12582   6.918   3.409   6.177  0.1344  0.0480 -0.0528
  120OSM    C5S12583   7.125   3.403   6.249  0.5044 -0.0617 -0.0657
  120OSM    H5S12584   7.196   3.453   6.317 -2.2000  2.6970  1.0020
  120OSM    C6S12585   7.183   3.306   6.149  0.5347  1.0887 -0.3037
  120OSM    H6S12586   7.104   3.258   6.087  0.5164 -1.9805  1.8247
  120OSM    H6T12587   7.218   3.212   6.198 -0.4746 -0.1839 -1.8942
  120OSM    C7S12588   7.293   3.366   6.063  0.0899 -0.4552  1.1522
  120OSM    H7S12589   7.383   3.380   6.126  0.7709 -0.4821  0.2105
  120OSM    H7T12590   7.260   3.462   6.019  1.5897 -0.7872 -0.8674
  120OSM    C8S12591   7.351   3.287   5.939  0.1232  0.0213  0.0725
  120OSM    H8S12592   7.361   3.177   5.953 -1.3688 -0.2442 -0.7569
  120OSM    H8T12593   7.450   3.332   5.914 -0.3617  1.5216  0.7096
  120OSM    C9S12594   7.270   3.319   5.811 -0.5849 -0.4717  0.4745
  120OSM    H9S12595   7.246   3.427   5.801 -0.8997 -0.4727  1.1313
  120OSM    H9T12596   7.186   3.246   5.816  1.5662 -3.1173  0.3090
  120OSM   C10S12597   7.355   3.297   5.681  0.5672  0.1233 -0.2405
  120OSM   H10S12598   7.387   3.192   5.665  1.7246  0.5492 -0.7890
  120OSM   H10T12599   7.450   3.344   5.713  0.2273  0.7915 -0.1745
  120OSM   C11S12600   7.321   3.370   5.551 -0.2648  0.1962  0.5727
  120OSM   H11S12601   7.306   3.479   5.568  0.0171  0.6179 -1.5621
  120OSM   H11T12602   7.220   3.334   5.523 -0.8313  2.0140  0.1527
  120OSM   C12S12603   7.428   3.349   5.447  1.2356 -0.1069 -0.5179
  120OSM   H12S12604   7.452   3.241   5.432  1.2643 -0.0252 -1.0913
  120OSM   H12T12605   7.522   3.397   5.481  1.0420 -0.7827  1.0403
  120OSM   C13S12606   7.372   3.396   5.313 -0.2391 -0.5545  0.5143
  120OSM   H13S12607   7.377   3.506   5.319  0.6661 -0.6276  1.5111
  120OSM   H13T12608   7.270   3.359   5.293 -0.2692 -0.9658  1.3815
  120OSM   C14S12609   7.450   3.353   5.192  0.1685  0.2795 -0.6185
  120OSM   H14S12610   7.445   3.242   5.182 -0.6043  0.2859 -0.3857
  120OSM   H14T12611   7.557   3.378   5.210 -0.5787  3.5015  0.0643
  120OSM   C15S12612   7.423   3.419   5.049  0.0296 -0.0151  0.2480
  120OSM   H15S12613   7.435   3.528   5.066 -2.5816  0.2375  0.9751
  120OSM   H15T12614   7.313   3.408   5.032 -0.6475  2.1700  2.6514
  120OSM   C16S12615   7.499   3.355   4.930 -0.1084 -0.0709 -0.3247
  120OSM   H16S12616   7.457   3.254   4.910  0.1505  0.2565 -2.8174
  120OSM   H16T12617   7.608   3.363   4.948 -0.3368  0.9546  0.8255
  120OSM   C17S12618   7.478   3.415   4.787 -0.4307 -0.1178 -0.0312
  120OSM   H17S12619   7.368   3.423   4.776 -0.4663  0.9103  0.9660
  120OSM   H17T12620   7.522   3.341   4.716  2.4014  2.4531 -1.1727
  120OSM   C18S12621   7.554   3.549   4.784  0.2294 -0.4162  0.2676
  120OSM   H18S12622   7.660   3.528   4.758 -0.9838 -3.1935 -3.3584
  120OSM   H18T12623   7.560   3.612   4.876  0.5312 -0.3518  0.2046
  120OSM   H18U12624   7.530   3.604   4.690  1.8552 -0.8735 -0.4531
  120OSM    C1F12625   6.986   3.835   6.127 -1.1576 -0.5380 -0.2816
  120OSM     OF12626   7.040   3.916   6.201 -0.0921 -0.1640  0.1326
  120OSM    C2F12627   6.979   3.857   5.981  0.3810  0.5030 -0.5543
  120OSM    H2F12628   7.005   3.963   5.965 -0.7722  0.7136 -1.1810
  120OSM    H2G12629   6.875   3.830   5.951  0.2175  0.6592 -0.1373
  120OSM    C3F12630   7.075   3.773   5.899  0.7966 -0.1098  0.0531
  120OSM    H3F12631   7.064   3.666   5.925 -0.7214  0.4148  1.7960
  120OSM    H3G12632   7.181   3.801   5.916 -0.3082  3.6700  2.1394
  120OSM    C4F12633   7.035   3.800   5.756  0.3137 -0.2041  0.1034
  120OSM    H4F12634   7.020   3.905   5.725 -1.3065 -0.0449  1.3199
  120OSM    H4G12635   6.939   3.747   5.738  0.0626  0.6774 -1.3800
  120OSM    C5F12636   7.135   3.730   5.651  0.2900 -0.1310 -0.5665
  120OSM    H5F12637   7.147   3.625   5.687 -0.9068 -0.5818 -1.4220
  120OSM    H5G12638   7.238   3.771   5.647  0.8486 -1.5877 -2.6675
  120OSM    C6F12639   7.074   3.734   5.510 -0.3816  0.2802  0.7020
  120OSM    H6F12640   7.069   3.844   5.492  1.1378  0.3643  0.6441
  120OSM    H6G12641   6.971   3.692   5.503 -0.4829  0.6189  0.0944
  120OSM    C7F12642   7.162   3.678   5.398  0.1817  0.5326 -0.1674
  120OSM    H7F12643   7.162   3.567   5.389 -0.1409  0.6934 -3.2392
  120OSM    H7G12644   7.269   3.706   5.411 -0.6990  4.7275 -0.5142
  120OSM    C8F12645   7.116   3.733   5.258  0.0099  0.3351 -0.6356
  120OSM    H8F12646   7.120   3.844   5.257  0.2950  0.3345 -1.8418
  120OSM    H8G12647   7.012   3.694   5.251  0.6037 -1.7297  0.9757
  120OSM    C9F12648   7.186   3.672   5.146 -0.1106 -0.2342  0.0846
  120OSM    H9F12649   7.186   3.562   5.146 -1.7736 -0.2556  0.8844
  120OSM   C10F12650   7.241   3.738   5.041  0.2488  0.4781  0.1433
  120OSM   H10F12651   7.284   3.672   4.964 -2.5884 -1.0562 -0.2478
  120OSM   C11F12652   7.265   3.885   5.018  0.3461  0.1541  0.7200
  120OSM   H11F12653   7.273   3.930   5.119  1.3564 -0.6569  1.0188
  120OSM   H11G12654   7.177   3.931   4.968  0.7382 -1.3635 -1.5425
  120OSM   C12F12655   7.399   3.900   4.947 -0.1231  0.6457 -0.2366
  120OSM   H12F12656   7.399   3.863   4.842 -1.4314  1.3891 -0.5207
  120OSM   H12G12657   7.476   3.847   5.008 -0.2942  0.2491 -0.3634
  120OSM   C13F12658   7.450   4.049   4.930  0.0958  0.9981 -0.1048
  120OSM   H13F12659   7.470   4.104   5.024  0.1841  1.6208 -0.4872
  120OSM   H13G12660   7.367   4.106   4.884 -1.4020 -1.1288 -0.2014
  120OSM   C14F12661   7.576   4.068   4.844 -0.1953  0.2069  0.1754
  120OSM   H14F12662   7.627   4.159   4.885  1.5719 -0.8828  0.4934
  120OSM   H14G12663   7.550   4.092   4.739  1.7113 -1.8226 -0.8502
  120OSM   C15F12664   7.670   3.942   4.836 -0.0608 -0.5630  0.3792
  120OSM   H15F12665   7.618   3.848   4.805 -0.2852 -0.8172  1.4859
  120OSM   H15G12666   7.702   3.918   4.940  2.8992 -1.0777 -0.5437
  120OSM   C16F12667   7.785   3.951   4.732  0.0504 -0.0848  0.3812
  120OSM   H16F12668   7.874   4.011   4.761  0.6695  0.2588 -2.0842
  120OSM   H16G12669   7.739   3.996   4.642  2.2425 -0.7379 -1.1247
  120OSM   C17F12670   7.836   3.805   4.703  0.0747 -0.7427  0.4582
  120OSM   H17F12671   7.752   3.741   4.670  0.5232  0.1073 -2.5789
  120OSM   H17G12672   7.863   3.769   4.805 -0.8487 -0.3688  0.8430
  120OSM   C18F12673   7.961   3.794   4.612  0.7508  0.7471 -0.5016
  120OSM   H18F12674   8.003   3.893   4.584  0.9271  0.0034 -3.1516
  120OSM   H18G12675   7.939   3.735   4.521 -0.2097 -0.0382  0.2142
  120OSM   H18H12676   8.044   3.737   4.660  0.2112 -0.7752 -1.3104
  121OSM      N12677   3.694   4.968   6.689  0.6162  0.0287  0.4488
  121OSM    C1512678   3.604   4.845   6.690 -0.2320 -0.4575  0.4194
  121OSM   H15A12679   3.601   4.789   6.782 -0.9602 -0.1158  0.6066
  121OSM   H15B12680   3.640   4.776   6.615  1.1177  0.4982  0.1377
  121OSM   H15C12681   3.502   4.867   6.664 -0.3902 -0.4285  1.0576
  121OSM    C1412682   3.839   4.931   6.712  1.0689  0.2724  0.5269
  121OSM   H14A12683   3.855   4.862   6.793  1.9977 -0.6294 -0.4028
  121OSM   H14B12684   3.882   5.026   6.742  2.4380 -0.4777  1.0287
  121OSM   H14C12685   3.887   4.912   6.617 -1.9971  1.3510 -1.4160
  121OSM    C1312686   3.673   5.037   6.555 -0.0455  0.5987 -0.6614
  121OSM   H13A12687   3.721   4.981   6.476  1.8176 -1.7304  1.8953
  121OSM   H13B12688   3.714   5.137   6.559 -0.1940  0.6658 -0.8496
  121OSM   H13C12689   3.571   5.051   6.525 -0.3637 -0.5060 -0.1614
  121OSM    C1212690   3.643   5.062   6.796 -0.3567 -0.4441 -0.0591
  121OSM   H12A12691   3.643   5.013   6.892  0.0106  0.0308  0.1811
  121OSM   H12B12692   3.538   5.077   6.774 -0.4092 -1.6935 -0.8268
  121OSM    C1112693   3.724   5.197   6.816  0.7575  0.4929 -0.2183
  121OSM   H11A12694   3.825   5.169   6.854  0.7355 -0.8933 -1.0765
  121OSM   H11B12695   3.671   5.247   6.899  0.1727  2.0859 -1.4950
  121OSM      P12696   3.790   5.433   6.714  0.0510  0.1887  0.3635
  121OSM    O1312697   3.689   5.520   6.776 -0.1796  0.3032 -0.2572
  121OSM    O1412698   3.924   5.412   6.775  0.2236  0.2429  0.4470
  121OSM    O1112699   3.804   5.473   6.564 -0.0060 -0.5649 -0.5205
  121OSM    O1212700   3.721   5.284   6.699 -0.9044 -0.4790 -0.3365
  121OSM    C1S12701   3.865   5.386   6.464  0.4110 -0.2904 -0.0736
  121OSM    H1S12702   3.816   5.288   6.451 -3.4838  1.0693  2.3753
  121OSM    H1T12703   3.971   5.364   6.488  0.7646  1.2630 -0.0682
  121OSM     NF12704   3.940   5.356   6.239 -0.6112  0.2023  0.3471
  121OSM    HNF12705   4.037   5.375   6.226 -0.1957  0.4914  3.1741
  121OSM    C2S12706   3.869   5.447   6.319 -0.4194 -0.7805 -0.3477
  121OSM    H2S12707   3.762   5.449   6.290 -0.5090  0.4601  0.0101
  121OSM    C3S12708   3.914   5.599   6.327  0.2841 -0.1146  0.6727
  121OSM    H3S12709   4.008   5.617   6.385  1.4395  2.4356 -1.7499
  121OSM     O312710   3.819   5.671   6.402 -0.0874 -0.3102 -0.1320
  121OSM    HO312711   3.782   5.613   6.469  0.6827  1.3983  1.8849
  121OSM    C4S12712   3.926   5.662   6.191  0.4977  0.1709 -0.6017
  121OSM    H4S12713   3.835   5.700   6.143 -1.2850 -1.5703  1.2189
  121OSM    C5S12714   4.043   5.670   6.127  0.0152  0.6666 -0.1434
  121OSM    H5S12715   4.136   5.661   6.185  0.4437  1.5999 -0.6654
  121OSM    C6S12716   4.064   5.743   5.998 -0.3485 -0.0651  0.4953
  121OSM    H6S12717   4.159   5.800   6.000  0.7380 -1.5016 -3.0440
  121OSM    H6T12718   3.976   5.804   5.968 -1.0003 -2.1910 -2.3354
  121OSM    C7S12719   4.084   5.628   5.902  0.7392  0.7608  0.1446
  121OSM    H7S12720   3.991   5.566   5.897  1.7931 -0.9453  0.8365
  121OSM    H7T12721   4.165   5.557   5.927  0.1930 -0.6693 -1.9000
  121OSM    C8S12722   4.121   5.677   5.762  0.6255 -0.1934 -1.0177
  121OSM    H8S12723   4.212   5.738   5.778  1.2921 -1.3245 -0.4039
  121OSM    H8T12724   4.028   5.734   5.739 -0.4046 -0.5500  1.7921
  121OSM    C9S12725   4.148   5.559   5.667 -0.0034 -0.2012 -0.2454
  121OSM    H9S12726   4.063   5.489   5.651 -0.3824  0.0184  0.7579
  121OSM    H9T12727   4.232   5.498   5.707  0.2767  1.0590  1.2192
  121OSM   C10S12728   4.199   5.603   5.528  0.0640  0.0059 -0.1820
  121OSM   H10S12729   4.298   5.652   5.537  1.3721 -2.5073 -0.2116
  121OSM   H10T12730   4.144   5.689   5.484  1.3976  0.2944 -1.3550
  121OSM   C11S12731   4.198   5.487   5.424 -0.0462 -0.0639  0.0777
  121OSM   H11S12732   4.093   5.452   5.422 -0.3849  0.9130  0.1947
  121OSM   H11T12733   4.266   5.403   5.449  0.2165  0.0107 -0.3731
  121OSM   C12S12734   4.245   5.525   5.286  0.0052 -0.3715  0.4739
  121OSM   H12S12735   4.194   5.621   5.264  0.9612 -0.1222 -0.7425
  121OSM   H12T12736   4.190   5.461   5.214  1.0167  0.1301 -0.7773
  121OSM   C13S12737   4.394   5.513   5.265  0.1276 -0.7054  0.2336
  121OSM   H13S12738   4.426   5.409   5.288 -0.4762 -0.8507  0.4472
  121OSM   H13T12739   4.449   5.588   5.327 -1.4113 -1.2733  2.4240
  121OSM   C14S12740   4.430   5.542   5.119 -0.2657 -1.0785 -0.5633
  121OSM   H14S12741   4.398   5.645   5.092 -1.6241 -0.9289  1.4562
  121OSM   H14T12742   4.364   5.482   5.054 -0.6179  0.0470 -1.2878
  121OSM   C15S12743   4.581   5.523   5.100  1.2910 -0.0980 -0.1523
  121OSM   H15S12744   4.604   5.415   5.112  0.6603 -0.2193 -0.0219
  121OSM   H15T12745   4.632   5.580   5.181  1.2527  1.8518 -1.4473
  121OSM   C16S12746   4.642   5.563   4.964  0.0676 -0.3261 -0.4079
  121OSM   H16S12747   4.614   5.668   4.946 -0.4941 -0.4614 -0.3434
  121OSM   H16T12748   4.602   5.507   4.876 -0.4156 -0.1943 -0.2738
  121OSM   C17S12749   4.796   5.524   4.967  0.7317 -0.2590  0.2967
  121OSM   H17S12750   4.836   5.531   5.070 -0.2236  0.4272  0.6319
  121OSM   H17T12751   4.839   5.598   4.896 -0.2735  1.3387  1.2814
  121OSM   C18S12752   4.811   5.383   4.908  0.4809 -0.0795  0.2625
  121OSM   H18S12753   4.736   5.307   4.939  0.4822 -0.9723 -1.7674
  121OSM   H18T12754   4.916   5.346   4.919  0.6063 -0.4998 -1.9820
  121OSM   H18U12755   4.801   5.387   4.798  1.3945  1.2483  0.2089
  121OSM    C1F12756   3.893   5.251   6.186 -0.2369  0.5999  0.1363
  121OSM     OF12757   3.784   5.219   6.223  0.7043  0.4723 -0.3408
  121OSM    C2F12758   3.970   5.172   6.084  0.0859  0.4309  0.9257
  121OSM    H2F12759   3.924   5.072   6.069  2.8141 -0.6619 -0.9796
  121OSM    H2G12760   4.069   5.143   6.125 -1.2942 -1.8802  2.8804
  121OSM    C3F12761   4.001   5.248   5.953  0.6143 -0.1704  0.6884
  121OSM    H3F12762   4.067   5.334   5.979 -0.4233  0.9985 -0.3873
  121OSM    H3G12763   3.919   5.303   5.903  1.6432  0.3811 -0.4744
  121OSM    C4F12764   4.086   5.159   5.860  0.3279  0.5911 -0.3006
  121OSM    H4F12765   4.172   5.117   5.916  0.0869 -0.7179 -0.8795
  121OSM    H4G12766   4.131   5.216   5.776 -1.4754  0.2816 -1.5312
  121OSM    C5F12767   4.028   5.043   5.771 -0.5354  0.4496  0.0019
  121OSM    H5F12768   3.991   4.967   5.843 -2.0486  0.2657 -0.9151
  121OSM    H5G12769   4.109   4.998   5.710 -0.8778  0.5334 -0.5263
  121OSM    C6F12770   3.924   5.095   5.672  0.9469 -0.3608 -0.0147
  121OSM    H6F12771   3.837   5.138   5.726  1.4435 -0.7390  1.1176
  121OSM    H6G12772   3.877   5.009   5.619  0.2367  0.0330 -0.0269
  121OSM    C7F12773   3.983   5.181   5.562  0.4327 -1.1638  0.0709
  121OSM    H7F12774   4.060   5.242   5.615 -0.8350  0.6025 -0.0514
  121OSM    H7G12775   3.906   5.257   5.538 -0.0713 -1.3967  0.9089
  121OSM    C8F12776   4.018   5.113   5.426 -0.4721  0.4849  0.1594
  121OSM    H8F12777   4.059   5.014   5.454 -3.1540 -0.4443  1.0566
  121OSM    H8G12778   4.094   5.181   5.380  1.3995 -1.2810  0.4769
  121OSM    C9F12779   3.903   5.080   5.343  0.0841 -0.1849  0.3171
  121OSM    H9F12780   3.846   4.991   5.374  1.5214 -2.1995 -2.3109
  121OSM   C10F12781   3.865   5.138   5.225  0.9278  0.4010 -0.0919
  121OSM   H10F12782   3.774   5.095   5.180  1.0486  1.3426 -1.3160
  121OSM   C11F12783   3.936   5.251   5.158 -0.4606  0.2683 -0.0915
  121OSM   H11F12784   4.009   5.298   5.226  2.2640 -0.1538 -2.5264
  121OSM   H11G12785   3.868   5.333   5.125 -0.4385  0.7628  1.0508
  121OSM   C12F12786   4.011   5.195   5.039  0.5241 -0.2543  0.0500
  121OSM   H12F12787   4.084   5.122   5.079  0.6149 -0.4742 -0.5068
  121OSM   H12G12788   4.074   5.281   5.008  0.5085 -0.6260 -1.0404
  121OSM   C13F12789   3.924   5.143   4.918 -0.2426  0.1597  0.9500
  121OSM   H13F12790   3.852   5.212   4.869 -0.0947 -1.4485 -1.7247
  121OSM   H13G12791   3.869   5.060   4.966 -0.8157  0.6993  1.2337
  121OSM   C14F12792   4.010   5.076   4.811  0.3475  0.6927 -0.0381
  121OSM   H14F12793   3.945   5.015   4.745  0.7055  2.1586 -1.8376
  121OSM   H14G12794   4.091   5.014   4.854 -0.0972 -1.9614 -2.7217
  121OSM   C15F12795   4.076   5.178   4.722  0.2344 -0.1701 -0.2543
  121OSM   H15F12796   4.173   5.217   4.759  0.2542  1.4413 -1.8788
  121OSM   H15G12797   4.005   5.262   4.709 -1.5364 -1.6857 -0.8342
  121OSM   C16F12798   4.100   5.123   4.583  0.5034  0.6187 -0.5208
  121OSM   H16F12799   4.001   5.085   4.550 -0.5612  1.6825  1.2389
  121OSM   H16G12800   4.170   5.038   4.592  1.6807  1.5397 -0.8243
  121OSM   C17F12801   4.146   5.222   4.478  0.0748  0.6205 -0.2826
  121OSM   H17F12802   4.106   5.322   4.505 -0.3666  0.8608 -1.7453
  121OSM   H17G12803   4.111   5.193   4.377 -1.2220  1.0537  0.0308
  121OSM   C18F12804   4.296   5.225   4.462  0.5254 -0.1288  0.1605
  121OSM   H18F12805   4.338   5.249   4.562  0.1120  1.4252 -0.0023
  121OSM   H18G12806   4.329   5.301   4.389  0.6890 -0.3468  0.0082
  121OSM   H18H12807   4.330   5.127   4.423 -2.0017 -0.2681 -1.9616
  122OSM      N12808   0.889   1.627   7.311  0.8643 -0.5554 -0.0875
  122OSM    C1512809   0.920   1.758   7.391  0.8889 -0.0389 -0.2560
  122OSM   H15A12810   1.002   1.808   7.341  0.3710  0.4857 -0.6035
  122OSM   H15B12811   0.941   1.740   7.495  0.1676  0.7506  0.0418
  122OSM   H15C12812   0.835   1.825   7.382  0.9609  0.2578  1.0383
  122OSM    C1412813   1.020   1.560   7.327 -0.2812  0.1361  1.1416
  122OSM   H14A12814   1.093   1.614   7.270  0.1736 -2.0123 -0.4801
  122OSM   H14B12815   1.004   1.465   7.277 -0.1087  0.9327 -0.4920
  122OSM   H14C12816   1.051   1.546   7.429  1.0731 -1.4238  0.5735
  122OSM    C1312817   0.775   1.553   7.372 -0.2904  0.2872 -0.1150
  122OSM   H13A12818   0.811   1.502   7.460  3.3484 -1.2633 -2.2810
  122OSM   H13B12819   0.752   1.474   7.303 -2.7900  0.1412  0.7802
  122OSM   H13C12820   0.687   1.616   7.376 -0.3631  0.2621 -1.1438
  122OSM    C1212821   0.856   1.654   7.165 -0.9431  0.4901 -0.3213
  122OSM   H12A12822   0.758   1.699   7.163 -0.7562  0.8909 -0.7560
  122OSM   H12B12823   0.846   1.557   7.119  0.2471 -0.6832  1.7449
  122OSM    C1112824   0.950   1.740   7.081  0.4126 -0.9095  0.7956
  122OSM   H11A12825   0.943   1.850   7.092 -0.8770 -0.1953 -4.5065
  122OSM   H11B12826   0.904   1.729   6.981  2.0805 -0.5733 -0.0415
  122OSM      P12827   1.215   1.772   7.111  0.5582  0.0870 -0.2169
  122OSM    O1312828   1.194   1.836   7.245 -0.3977  0.0431 -0.4250
  122OSM    O1412829   1.330   1.678   7.094 -0.4852  0.5536 -0.1837
  122OSM    O1112830   1.225   1.887   7.004  0.1221 -0.3089  0.2278
  122OSM    O1212831   1.083   1.691   7.088 -1.0232  0.0393 -0.3098
  122OSM    C1S12832   1.274   1.841   6.875 -0.1859 -0.1062  0.1034
  122OSM    H1S12833   1.228   1.747   6.838  1.3494 -0.3035 -1.4440
  122OSM    H1T12834   1.384   1.825   6.883  0.2472  2.5753  0.7729
  122OSM     NF12835   1.292   1.911   6.631  0.1717  0.2431 -0.3931
  122OSM    HNF12836   1.382   1.938   6.598  0.9908  1.2542  2.3753
  122OSM    C2S12837   1.259   1.961   6.769 -0.0092 -0.3340  0.0997
  122OSM    H2S12838   1.152   1.990   6.771  0.8835  3.4569 -0.0152
  122OSM    C3S12839   1.342   2.084   6.817 -0.4279 -0.4214  0.7132
  122OSM    H3S12840   1.448   2.055   6.801 -1.4112 -2.7765 -2.9645
  122OSM     O312841   1.339   2.111   6.956 -0.3184  0.0014 -0.0198
  122OSM    HO312842   1.293   2.035   6.994  1.2203 -0.3868  1.1744
  122OSM    C4S12843   1.306   2.206   6.736 -0.3671  0.7811  1.1607
  122OSM    H4S12844   1.198   2.226   6.729 -0.0091  2.3806 -3.3184
  122OSM    C5S12845   1.386   2.272   6.653  0.1293 -0.0855 -0.1864
  122OSM    H5S12846   1.485   2.229   6.635  0.6298  1.0117 -0.1638
  122OSM    C6S12847   1.343   2.383   6.560 -1.3085 -0.6298  0.0306
  122OSM    H6S12848   1.404   2.382   6.467 -2.2658  3.0538 -0.8037
  122OSM    H6T12849   1.361   2.485   6.601 -0.2796  0.1593 -2.2428
  122OSM    C7S12850   1.203   2.391   6.508  0.5475 -0.4528 -0.2629
  122OSM    H7S12851   1.150   2.435   6.595  1.2316 -0.2846  0.0774
  122OSM    H7T12852   1.162   2.288   6.504  1.5234 -0.9818  1.9639
  122OSM    C8S12853   1.186   2.482   6.386 -0.6061 -1.4359 -0.1518
  122OSM    H8S12854   1.233   2.432   6.299  2.2761 -0.0593  0.4974
  122OSM    H8T12855   1.259   2.562   6.410 -0.9309 -0.8726 -1.0037
  122OSM    C9S12856   1.045   2.526   6.364  0.0138 -0.4989  0.4524
  122OSM    H9S12857   1.015   2.590   6.450 -1.0457 -2.9567  2.0272
  122OSM    H9T12858   0.983   2.434   6.364 -2.3758  1.0223  1.5107
  122OSM   C10S12859   1.027   2.602   6.233  0.2452  0.7371  0.7781
  122OSM   H10S12860   1.074   2.702   6.238 -0.2421  0.9617  1.0227
  122OSM   H10T12861   0.917   2.622   6.234 -0.0702 -0.8905  0.6063
  122OSM   C11S12862   1.074   2.530   6.109  0.4191  0.7885  0.3532
  122OSM   H11S12863   1.054   2.421   6.111 -0.7024  0.8855 -1.8560
  122OSM   H11T12864   1.185   2.523   6.107  0.3356 -4.9931 -0.7670
  122OSM   C12S12865   1.012   2.585   5.985 -0.1898  0.2900  0.3109
  122OSM   H12S12866   1.014   2.696   5.985 -0.1622  0.3006  1.5103
  122OSM   H12T12867   0.906   2.553   5.978 -0.6615  1.6960  0.7883
  122OSM   C13S12868   1.076   2.534   5.849 -0.3652 -0.0368  0.3358
  122OSM   H13S12869   1.063   2.425   5.833  2.6919 -0.4118 -0.2654
  122OSM   H13T12870   1.186   2.545   5.854 -0.5313  2.6102 -0.2631
  122OSM   C14S12871   1.023   2.606   5.724  0.6107  0.2624 -0.1798
  122OSM   H14S12872   1.058   2.710   5.739  4.2662 -0.9582  0.5608
  122OSM   H14T12873   0.912   2.604   5.730  0.7035  0.3128  2.4689
  122OSM   C15S12874   1.089   2.551   5.590 -0.0348  0.3186  0.5881
  122OSM   H15S12875   1.088   2.440   5.587  1.6385  0.2859 -1.0200
  122OSM   H15T12876   1.196   2.582   5.593 -0.6706  2.6028  2.6522
  122OSM   C16S12877   1.027   2.611   5.464 -0.0993  0.0231 -0.8713
  122OSM   H16S12878   1.039   2.721   5.458  0.4020 -0.0815 -2.0249
  122OSM   H16T12879   0.921   2.579   5.467 -0.4315  1.0176 -1.3480
  122OSM   C17S12880   1.101   2.553   5.343  0.4314 -0.1535 -0.3929
  122OSM   H17S12881   1.203   2.534   5.383 -0.7607 -0.1928  2.9408
  122OSM   H17T12882   1.092   2.630   5.263  1.1674 -0.2638 -0.5897
  122OSM   C18S12883   1.027   2.422   5.303 -0.7037 -0.1879 -0.1134
  122OSM   H18S12884   1.046   2.341   5.377  0.8874  1.0691  0.9188
  122OSM   H18T12885   1.062   2.384   5.205 -0.8418  0.1312 -0.2885
  122OSM   H18U12886   0.917   2.438   5.302 -0.9628 -1.5711  1.1775
  122OSM    C1F12887   1.205   1.826   6.573  1.1332  0.1367 -0.3378
  122OSM     OF12888   1.105   1.790   6.634  0.1544 -0.2123  0.3085
  122OSM    C2F12889   1.246   1.767   6.441 -0.0579 -0.5431  0.6493
  122OSM    H2F12890   1.196   1.668   6.441 -1.0159 -0.1206  3.1545
  122OSM    H2G12891   1.356   1.749   6.434  0.1161  0.6766 -0.0483
  122OSM    C3F12892   1.195   1.855   6.319  0.0735  0.6291  0.4676
  122OSM    H3F12893   1.089   1.889   6.324  0.4206  1.7392  0.4428
  122OSM    H3G12894   1.209   1.790   6.229 -0.4301 -0.0754  0.8875
  122OSM    C4F12895   1.283   1.981   6.293 -0.0152  0.5194 -0.0734
  122OSM    H4F12896   1.385   1.948   6.263  0.0233  1.1066 -0.6283
  122OSM    H4G12897   1.296   2.036   6.388 -0.9318  1.1909 -0.3207
  122OSM    C5F12898   1.228   2.067   6.184 -0.4382 -0.8596  0.0800
  122OSM    H5F12899   1.253   2.173   6.207 -1.4323 -0.3850 -0.9491
  122OSM    H5G12900   1.117   2.057   6.182 -0.3028 -2.5378 -1.5040
  122OSM    C6F12901   1.273   2.026   6.041 -0.2426  0.2376 -0.1895
  122OSM    H6F12902   1.252   1.919   6.019  0.4439  0.3514 -1.5465
  122OSM    H6G12903   1.384   2.026   6.038 -0.2326 -0.3721 -0.0390
  122OSM    C7F12904   1.219   2.119   5.936 -0.0743 -0.7244  0.5272
  122OSM    H7F12905   1.257   2.223   5.947 -0.0038 -0.7730  0.7481
  122OSM    H7G12906   1.110   2.136   5.949 -0.4418 -0.9311 -1.7871
  122OSM    C8F12907   1.250   2.065   5.790  0.3399 -0.3002  0.5995
  122OSM    H8F12908   1.357   2.037   5.796  0.5575 -0.0111 -1.3074
  122OSM    H8G12909   1.247   2.148   5.716  0.1406  0.8426  1.8299
  122OSM    C9F12910   1.159   1.953   5.747 -0.3413 -0.3655 -0.3774
  122OSM    H9F12911   1.095   1.902   5.820 -0.7936  1.5227  0.5857
  122OSM   C10F12912   1.184   1.889   5.631  0.5962 -0.4133 -0.0426
  122OSM   H10F12913   1.114   1.817   5.587  0.1296  0.5078 -0.8463
  122OSM   C11F12914   1.278   1.930   5.526 -0.2444  0.2297 -0.2474
  122OSM   H11F12915   1.356   1.851   5.521 -0.8055 -0.2676 -1.6166
  122OSM   H11G12916   1.334   2.016   5.568 -0.3216  1.0245 -1.7137
  122OSM   C12F12917   1.235   1.962   5.382  0.2069 -0.0932  0.3817
  122OSM   H12F12918   1.159   2.042   5.372  0.9376  0.4930 -0.6172
  122OSM   H12G12919   1.199   1.871   5.331 -0.0153 -0.1311  0.6052
  122OSM   C13F12920   1.351   2.021   5.300 -0.2389  0.0725 -0.2373
  122OSM   H13F12921   1.434   1.952   5.326 -2.3119 -2.1183  1.0081
  122OSM   H13G12922   1.353   2.125   5.338 -1.3461  0.8890 -2.2598
  122OSM   C14F12923   1.341   2.020   5.145  0.1811 -0.0413  0.1551
  122OSM   H14F12924   1.313   1.917   5.113  2.6506 -0.8595  0.4001
  122OSM   H14G12925   1.437   2.056   5.101  0.6526 -0.3646  0.9024
  122OSM   C15F12926   1.236   2.117   5.088  0.1231 -0.1220  0.0795
  122OSM   H15F12927   1.288   2.214   5.096  2.3225 -1.2229 -0.2453
  122OSM   H15G12928   1.145   2.116   5.152 -0.2771  0.3003 -0.4769
  122OSM   C16F12929   1.196   2.089   4.948  0.1884 -0.0330 -0.0905
  122OSM   H16F12930   1.124   2.005   4.941 -1.1405  1.0512 -0.0487
  122OSM   H16G12931   1.284   2.064   4.885 -0.8980 -0.7023 -1.4146
  122OSM   C17F12932   1.133   2.201   4.883 -0.2576 -0.4742 -0.0040
  122OSM   H17F12933   1.183   2.294   4.918 -1.7247  0.8996 -1.3828
  122OSM   H17G12934   1.026   2.201   4.909 -0.2820 -1.5116 -0.0817
  122OSM   C18F12935   1.128   2.194   4.731 -0.7014  0.7204 -0.4116
  122OSM   H18F12936   1.233   2.188   4.696  0.2139  0.7408  2.1385
  122OSM   H18G12937   1.076   2.284   4.692 -0.2649  2.4341  2.6524
  122OSM   H18H12938   1.094   2.098   4.686  3.0136 -0.4968 -0.9027
  123OSM      N12939   3.814   3.525   2.116  0.3877  0.0134 -0.3973
  123OSM    C1512940   3.872   3.472   1.991 -0.2514  0.1095 -0.2232
  123OSM   H15A12941   3.979   3.477   2.005  0.0240  0.3505 -2.2209
  123OSM   H15B12942   3.848   3.537   1.908 -0.0464  2.7765  1.6620
  123OSM   H15C12943   3.847   3.368   1.972  0.1122  0.1584 -0.9918
  123OSM    C1412944   3.838   3.675   2.124  0.2003 -0.4879  0.0575
  123OSM   H14A12945   3.797   3.734   2.205 -1.4442 -1.0982 -0.2838
  123OSM   H14B12946   3.810   3.714   2.027  1.9659 -0.1623 -0.3564
  123OSM   H14C12947   3.942   3.701   2.134  0.2585 -1.2251  1.4967
  123OSM    C1312948   3.661   3.501   2.111  0.7802  0.8483 -0.4647
  123OSM   H13A12949   3.635   3.396   2.106  1.1258  0.6810  0.9628
  123OSM   H13B12950   3.622   3.544   2.019 -0.9027  0.3790 -0.0002
  123OSM   H13C12951   3.618   3.550   2.196  0.5623 -0.0758 -0.0324
  123OSM    C1212952   3.871   3.451   2.237 -0.3782 -0.1054 -0.5413
  123OSM   H12A12953   3.854   3.507   2.327  1.1731  0.7496 -0.7541
  123OSM   H12B12954   3.979   3.453   2.239 -0.3895  2.1313  1.6736
  123OSM    C1112955   3.837   3.306   2.272  0.7390  0.1965  0.8696
  123OSM   H11A12956   3.729   3.313   2.295  0.9313  1.4781  1.4249
  123OSM   H11B12957   3.873   3.264   2.368 -2.3301  1.3918  2.6682
  123OSM      P12958   3.756   3.127   2.102  0.1903 -0.3078  0.5786
  123OSM    O1312959   3.645   3.208   2.048  0.0874  0.2299 -0.3978
  123OSM    O1412960   3.823   3.035   2.007  0.4323  0.0058 -0.2057
  123OSM    O1112961   3.703   3.045   2.219  0.1781 -0.2805 -0.5672
  123OSM    O1212962   3.870   3.224   2.160  0.1734  0.4766  0.0388
  123OSM    C1S12963   3.765   2.944   2.304  0.4084  0.0833 -0.0112
  123OSM    H1S12964   3.869   2.923   2.273  0.6185  1.8708 -0.6220
  123OSM    H1T12965   3.697   2.856   2.303 -0.7048  0.8987 -1.7923
  123OSM     NF12966   3.822   2.885   2.538  0.1439  0.3947  0.0371
  123OSM    HNF12967   3.753   2.830   2.585  0.6994  0.6333  1.1666
  123OSM    C2S12968   3.774   2.992   2.456 -0.5555 -0.1363  0.2127
  123OSM    H2S12969   3.856   3.067   2.458 -0.6314 -0.0679  1.1627
  123OSM    C3S12970   3.654   3.061   2.510  0.2645 -0.2999 -0.0749
  123OSM    H3S12971   3.577   2.981   2.517  1.6604 -1.5956  1.3554
  123OSM     O312972   3.587   3.153   2.422 -0.2822  0.4291  0.9693
  123OSM    HO312973   3.619   3.121   2.337 -0.2554 -2.5870  1.9963
  123OSM    C4S12974   3.665   3.121   2.651 -0.3660  0.2832 -0.5940
  123OSM    H4S12975   3.653   3.043   2.728  2.6451  0.6888  0.4201
  123OSM    C5S12976   3.694   3.246   2.689 -0.8353 -1.2019 -0.1700
  123OSM    H5S12977   3.695   3.328   2.616 -1.5980  0.0569  1.1854
  123OSM    C6S12978   3.704   3.303   2.827  0.1927 -0.2838 -0.5940
  123OSM    H6S12979   3.607   3.354   2.846 -0.0619 -1.7384  2.7860
  123OSM    H6T12980   3.787   3.377   2.835  0.6252 -0.9062  1.2281
  123OSM    C7S12981   3.734   3.204   2.940 -0.8068 -0.1242  0.2982
  123OSM    H7S12982   3.837   3.165   2.926 -0.1732  1.5636  0.0470
  123OSM    H7T12983   3.658   3.122   2.936  0.5583 -1.4343  0.4308
  123OSM    C8S12984   3.744   3.273   3.081 -0.5291 -0.1697  0.6476
  123OSM    H8S12985   3.651   3.327   3.110 -0.7235  0.1957 -0.6140
  123OSM    H8T12986   3.821   3.353   3.076  0.6846 -1.3825 -2.1312
  123OSM    C9S12987   3.797   3.177   3.190  0.2544 -0.0124 -0.0112
  123OSM    H9S12988   3.893   3.136   3.154  1.4949  0.9338  2.0265
  123OSM    H9T12989   3.723   3.096   3.208  0.5104 -0.1249  0.5424
  123OSM   C10S12990   3.829   3.250   3.321  0.6743 -0.7210 -0.1700
  123OSM   H10S12991   3.738   3.277   3.379  1.2920 -0.0394  0.4999
  123OSM   H10T12992   3.897   3.337   3.309  2.6219 -1.9868  1.1791
  123OSM   C11S12993   3.907   3.153   3.420  0.4524 -0.1992  0.7320
  123OSM   H11S12994   4.001   3.119   3.371  0.5710  0.3199  0.5931
  123OSM   H11T12995   3.860   3.055   3.441  0.0046  0.2345  1.8388
  123OSM   C12S12996   3.956   3.202   3.558  0.0157 -0.7363  0.3168
  123OSM   H12S12997   3.863   3.227   3.614  0.0316  0.8329 -0.3273
  123OSM   H12T12998   4.013   3.297   3.559  0.6358 -1.0736  1.8946
  123OSM   C13S12999   4.036   3.090   3.627 -0.3009  0.4965 -0.2294
  123OSM   H13S13000   4.136   3.081   3.579 -0.4153  1.0650 -0.5885
  123OSM   H13T13001   3.975   2.999   3.611  0.5611  0.0069 -0.8521
  123OSM   C14S13002   4.054   3.106   3.781 -0.2382 -0.0175 -0.9531
  123OSM   H14S13003   3.955   3.120   3.830 -1.4039 -2.1611 -2.5617
  123OSM   H14T13004   4.122   3.190   3.806  0.3189 -0.4665 -0.9536
  123OSM   C15S13005   4.122   2.984   3.852 -0.4482 -0.0960  0.6004
  123OSM   H15S13006   4.226   2.981   3.814 -0.3854  0.0728  0.7542
  123OSM   H15T13007   4.067   2.896   3.812  0.1614 -0.7814  1.2334
  123OSM   C16S13008   4.127   2.978   4.009  0.0273 -0.0084 -0.0772
  123OSM   H16S13009   4.181   3.073   4.027  1.0851 -0.5278 -0.3986
  123OSM   H16T13010   4.191   2.895   4.045  1.4393  0.1656 -1.9889
  123OSM   C17S13011   3.996   2.974   4.086 -0.3943 -0.1792  0.0519
  123OSM   H17S13012   3.927   3.043   4.033 -1.2459 -2.2274 -1.6868
  123OSM   H17T13013   4.005   3.021   4.187  0.6420 -0.5943  0.1638
  123OSM   C18S13014   3.927   2.837   4.074 -0.1239  0.0881 -1.0138
  123OSM   H18S13015   3.991   2.755   4.112  0.0352  0.5769 -0.2017
  123OSM   H18T13016   3.908   2.816   3.966 -2.8286  0.5113 -0.6946
  123OSM   H18U13017   3.828   2.837   4.125  0.9318  1.0503  1.1459
  123OSM    C1F13018   3.947   2.840   2.542 -0.7632 -0.7002  0.1694
  123OSM     OF13019   4.028   2.913   2.483  0.0392 -0.5947  0.4972
  123OSM    C2F13020   3.996   2.721   2.605  0.1071 -0.0260  0.4303
  123OSM    H2F13021   4.106   2.718   2.588 -0.3630 -0.7767 -3.4505
  123OSM    H2G13022   3.944   2.635   2.556 -0.5707  0.3606  0.4603
  123OSM    C3F13023   3.954   2.726   2.750 -0.1613  0.3069 -0.5382
  123OSM    H3F13024   3.972   2.623   2.787 -2.0280 -0.2633 -1.0870
  123OSM    H3G13025   3.845   2.747   2.761 -0.0554  0.8503 -0.4995
  123OSM    C4F13026   4.029   2.825   2.836 -0.1785  0.8625 -0.5781
  123OSM    H4F13027   4.043   2.923   2.785  2.6857  0.7781 -0.1222
  123OSM    H4G13028   4.134   2.789   2.847 -0.5853 -0.2734 -0.3366
  123OSM    C5F13029   3.967   2.853   2.976 -0.0401 -0.0775  0.3871
  123OSM    H5F13030   3.865   2.891   2.955  0.2027 -0.5965 -2.0290
  123OSM    H5G13031   4.024   2.934   3.027  0.1912  0.8016 -1.1998
  123OSM    C6F13032   3.960   2.729   3.066  0.0259 -0.8760  0.6985
  123OSM    H6F13033   4.050   2.666   3.050  1.9397  1.4357  1.6318
  123OSM    H6G13034   3.874   2.661   3.053 -0.0219 -0.6868  0.0092
  123OSM    C7F13035   3.965   2.782   3.204  0.2703 -0.5106 -0.0427
  123OSM    H7F13036   3.869   2.834   3.223  0.7381  0.6478 -0.7400
  123OSM    H7G13037   4.055   2.848   3.206  0.3177 -0.6024  1.7260
  123OSM    C8F13038   3.992   2.678   3.305  0.1179  0.2315  1.2853
  123OSM    H8F13039   4.086   2.625   3.280 -0.4506  0.4867 -1.7762
  123OSM    H8G13040   3.927   2.587   3.297 -0.8996  0.9678  0.9202
  123OSM    C9F13041   3.977   2.729   3.444  0.8909  0.4935 -0.0954
  123OSM    H9F13042   3.924   2.822   3.469  1.5809  1.1792 -1.0664
  123OSM   C10F13043   4.047   2.685   3.549 -0.1285  0.0435 -0.3057
  123OSM   H10F13044   4.010   2.721   3.646  1.3303  0.7016  0.0397
  123OSM   C11F13045   4.150   2.572   3.557 -0.2002  0.2531 -0.1673
  123OSM   H11F13046   4.244   2.615   3.598 -0.7955  1.3249  0.1275
  123OSM   H11G13047   4.180   2.550   3.453 -0.5123 -0.9096 -0.0299
  123OSM   C12F13048   4.115   2.441   3.636  1.1439  0.4887 -0.0299
  123OSM   H12F13049   4.183   2.353   3.629  2.1150  0.7685  3.6277
  123OSM   H12G13050   4.013   2.413   3.604 -0.3677  2.1519  2.9196
  123OSM   C13F13051   4.098   2.459   3.787 -0.4313 -0.6457 -0.4763
  123OSM   H13F13052   4.050   2.559   3.795  0.7428 -0.0263 -0.9621
  123OSM   H13G13053   4.191   2.463   3.847 -0.8131 -2.2871  0.2723
  123OSM   C14F13054   4.007   2.354   3.843  0.4775 -0.3627 -0.1226
  123OSM   H14F13055   4.047   2.259   3.802  1.6399  0.2476 -0.4630
  123OSM   H14G13056   3.904   2.379   3.811  0.1600 -1.6568 -0.1900
  123OSM   C15F13057   4.003   2.339   3.994 -0.4989  0.3850 -0.6390
  123OSM   H15F13058   4.023   2.433   4.050 -0.1643 -0.1338  0.1355
  123OSM   H15G13059   4.083   2.273   4.036  0.7933  2.6671  0.6630
  123OSM   C16F13060   3.864   2.293   4.032  0.1514  0.1663 -0.0558
  123OSM   H16F13061   3.844   2.203   3.969  1.9057 -0.2572 -0.0587
  123OSM   H16G13062   3.793   2.373   4.004 -1.4202 -0.3654  2.1052
  123OSM   C17F13063   3.844   2.260   4.181  0.8209 -0.1608  0.5616
  123OSM   H17F13064   3.934   2.214   4.225  1.0872  0.1757  0.3701
  123OSM   H17G13065   3.758   2.190   4.170  2.0845 -1.4163 -2.6657
  123OSM   C18F13066   3.795   2.389   4.253 -0.4829  0.4013  0.5916
  123OSM   H18F13067   3.751   2.372   4.354  0.1587 -0.4303  0.7403
  123OSM   H18G13068   3.714   2.439   4.197 -0.2854  0.7608  0.6279
  123OSM   H18H13069   3.896   2.434   4.259  1.1271 -2.7695 -0.3387
  124OSM      N13070   5.031   3.822   1.542 -0.7726 -0.5220 -0.4655
  124OSM    C1513071   5.151   3.800   1.452 -0.1576  0.1163  0.1058
  124OSM   H15A13072   5.219   3.883   1.466  0.2850 -0.0233 -1.1087
  124OSM   H15B13073   5.118   3.778   1.352 -1.2061  1.3400  0.1582
  124OSM   H15C13074   5.217   3.722   1.489  1.5147 -0.1156 -3.0237
  124OSM    C1413075   4.977   3.956   1.508  0.3370 -0.5267  0.0555
  124OSM   H14A13076   4.921   3.995   1.592  1.8533  0.3923  0.6789
  124OSM   H14B13077   4.921   3.961   1.416  1.9174  1.2617 -0.8732
  124OSM   H14C13078   5.052   4.031   1.491  1.5595 -1.6363  0.3449
  124OSM    C1313079   4.924   3.720   1.512 -0.3016  0.2201  0.5395
  124OSM   H13A13080   4.902   3.725   1.407  0.0170 -1.4955  0.3714
  124OSM   H13B13081   4.829   3.733   1.562 -0.4488 -1.2492  0.6754
  124OSM   H13C13082   4.956   3.619   1.530 -0.8559  0.1137  0.9420
  124OSM    C1213083   5.073   3.809   1.691  0.2507 -0.2992  0.1872
  124OSM   H12A13084   5.144   3.890   1.703 -1.8886  1.9634 -1.2609
  124OSM   H12B13085   5.105   3.707   1.706  0.7432 -0.0477  0.8691
  124OSM    C1113086   4.961   3.843   1.795 -0.6691 -0.0518  0.0934
  124OSM   H11A13087   4.989   3.813   1.898  1.5022 -0.2842 -0.4960
  124OSM   H11B13088   4.872   3.781   1.774  0.5958 -2.8086  2.1973
  124OSM      P13089   4.930   4.078   1.917 -0.3265  0.3840 -0.2947
  124OSM    O1313090   5.071   4.112   1.938 -0.3280  0.1993  0.2871
  124OSM    O1413091   4.830   4.185   1.913 -0.5229 -0.6231  0.3025
  124OSM    O1113092   4.894   3.985   2.039  0.3811  0.3691  0.0725
  124OSM    O1213093   4.927   3.984   1.795 -0.5165  0.1827  0.4108
  124OSM    C1S13094   4.988   3.953   2.141  0.1075 -0.6814 -0.1781
  124OSM    H1S13095   5.030   4.045   2.187 -0.3282 -2.0004  3.1300
  124OSM    H1T13096   5.071   3.894   2.097  0.6010  0.9030 -1.4811
  124OSM     NF13097   5.029   3.853   2.371  0.4813 -0.5888 -0.1398
  124OSM    HNF13098   5.092   3.776   2.373  0.6917 -0.6257 -3.1044
  124OSM    C2S13099   4.935   3.865   2.262 -0.6236  0.2790 -0.1655
  124OSM    H2S13100   4.846   3.920   2.300 -0.2237 -0.6904  2.3257
  124OSM    C3S13101   4.883   3.728   2.211  0.0463 -0.2790  0.7477
  124OSM    H3S13102   4.979   3.682   2.176  1.3227  2.3786  0.5203
  124OSM     O313103   4.795   3.740   2.096 -0.6490 -0.4051  0.1067
  124OSM    HO313104   4.815   3.828   2.064 -1.4673  0.7898  2.5919
  124OSM    C4S13105   4.832   3.649   2.327 -0.4896  0.5589  0.0363
  124OSM    H4S13106   4.909   3.595   2.385 -2.1003 -1.0141  0.8045
  124OSM    C5S13107   4.703   3.632   2.366  0.5158  0.0139 -0.0578
  124OSM    H5S13108   4.627   3.687   2.309  0.2058 -1.8956 -1.5828
  124OSM    C6S13109   4.656   3.548   2.486 -0.7380 -0.1421  0.2139
  124OSM    H6S13110   4.609   3.457   2.443  2.2265 -0.8590 -1.8358
  124OSM    H6T13111   4.592   3.616   2.546 -3.0317  1.1540 -3.3500
  124OSM    C7S13112   4.777   3.505   2.578  0.6986 -0.0047 -0.5968
  124OSM    H7S13113   4.852   3.435   2.534  0.4113 -1.8177  1.5955
  124OSM    H7T13114   4.739   3.453   2.668 -2.5374  0.9744 -1.2698
  124OSM    C8S13115   4.855   3.614   2.650 -0.5296 -0.1474 -1.7573
  124OSM    H8S13116   4.805   3.713   2.639  2.5182  1.7639  0.2856
  124OSM    H8T13117   4.952   3.628   2.597 -0.1369  1.2877 -0.7189
  124OSM    C9S13118   4.881   3.575   2.797 -0.4117  0.1549 -0.7810
  124OSM    H9S13119   4.926   3.473   2.797  2.0965  1.1764 -1.7350
  124OSM    H9T13120   4.785   3.575   2.852 -1.4058  1.3106 -2.4350
  124OSM   C10S13121   4.969   3.679   2.847 -0.7258  0.2419  1.2273
  124OSM   H10S13122   4.940   3.778   2.807 -0.2700 -0.7645 -1.8506
  124OSM   H10T13123   5.067   3.651   2.802 -1.2976  0.5096 -0.2198
  124OSM   C11S13124   4.976   3.685   3.002 -0.0992 -0.1932  0.1519
  124OSM   H11S13125   5.081   3.715   3.024 -0.6459  0.1566  2.5836
  124OSM   H11T13126   4.950   3.584   3.040  0.8072 -1.3933 -2.2287
  124OSM   C12S13127   4.889   3.795   3.057  0.1702 -0.3480  0.3882
  124OSM   H12S13128   4.780   3.787   3.034  0.7013  1.5086 -3.6521
  124OSM   H12T13129   4.915   3.882   2.993 -0.5841  0.0236  0.5767
  124OSM   C13S13130   4.913   3.842   3.201  0.4026  0.1546 -0.4175
  124OSM   H13S13131   4.887   3.762   3.275  2.5080 -0.4656 -0.2682
  124OSM   H13T13132   4.836   3.921   3.205 -0.4724 -0.7012  0.1366
  124OSM   C14S13133   5.045   3.906   3.245  1.0399 -0.9531  0.1759
  124OSM   H14S13134   5.088   3.969   3.164 -1.5219  1.4584  0.5523
  124OSM   H14T13135   5.119   3.825   3.265  0.8508 -1.2921 -0.4633
  124OSM   C15S13136   5.028   4.004   3.361  0.1164 -0.0663  0.0744
  124OSM   H15S13137   4.974   4.095   3.329  1.0988  0.6366  0.3587
  124OSM   H15T13138   5.131   4.027   3.395  0.2163  0.4509 -0.5610
  124OSM   C16S13139   4.957   3.957   3.485  0.9198  0.0201  0.5204
  124OSM   H16S13140   5.009   3.860   3.503 -0.4789 -0.8651 -0.0276
  124OSM   H16T13141   4.849   3.952   3.459  0.9391  2.7251 -0.2964
  124OSM   C17S13142   4.971   4.052   3.603 -0.7131 -0.6126  0.1848
  124OSM   H17S13143   4.923   4.146   3.569 -2.1261 -1.6381 -0.7463
  124OSM   H17T13144   5.079   4.074   3.619 -1.0468  1.7271 -0.3614
  124OSM   C18S13145   4.902   4.009   3.732  0.1894 -0.5195  0.1057
  124OSM   H18S13146   4.923   4.081   3.813  1.7162 -0.0713 -0.6400
  124OSM   H18T13147   4.942   3.909   3.758 -0.0406 -0.4636  0.6719
  124OSM   H18U13148   4.791   4.007   3.722 -0.1597  0.0111  3.1595
  124OSM    C1F13149   5.058   3.963   2.451  0.2149  0.1926 -0.1720
  124OSM     OF13150   4.991   4.066   2.440  0.1016  0.5131 -0.7630
  124OSM    C2F13151   5.177   3.942   2.539  0.4757 -0.2468 -0.2264
  124OSM    H2F13152   5.265   3.994   2.496 -1.1204  2.4692 -0.4291
  124OSM    H2G13153   5.197   3.833   2.541  1.5309 -0.0588  0.1092
  124OSM    C3F13154   5.154   3.999   2.680 -0.2746  0.0828 -0.1732
  124OSM    H3F13155   5.063   3.954   2.725  0.0199 -0.0388  0.3064
  124OSM    H3G13156   5.144   4.108   2.666 -0.2950 -0.1136 -1.9341
  124OSM    C4F13157   5.268   3.988   2.776  0.2840  0.1022 -0.0727
  124OSM    H4F13158   5.227   4.012   2.876 -3.1505 -3.3779 -0.4239
  124OSM    H4G13159   5.349   4.063   2.760  0.1992  0.2361  0.1204
  124OSM    C5F13160   5.318   3.845   2.790 -0.9676  0.1287  0.0465
  124OSM    H5F13161   5.375   3.824   2.697  1.7127  3.1090  0.8194
  124OSM    H5G13162   5.228   3.784   2.812 -0.7543  0.2864  1.4771
  124OSM    C6F13163   5.422   3.832   2.913 -0.5215 -0.9416  0.9149
  124OSM    H6F13164   5.493   3.917   2.898  0.5863 -1.7520  1.3956
  124OSM    H6G13165   5.489   3.744   2.914 -0.5207 -0.9398  1.3902
  124OSM    C7F13166   5.353   3.842   3.048  0.8347  1.0266  0.6867
  124OSM    H7F13167   5.288   3.754   3.068  2.1145 -0.3652 -0.9238
  124OSM    H7G13168   5.292   3.935   3.053 -0.3868  0.1799  2.4243
  124OSM    C8F13169   5.451   3.826   3.166 -0.4913  0.0475 -0.2647
  124OSM    H8F13170   5.499   3.726   3.170  1.6122  1.0009 -0.6225
  124OSM    H8G13171   5.382   3.824   3.253  2.4667 -0.2698  2.2403
  124OSM    C9F13172   5.571   3.921   3.177 -0.7186  0.2994 -0.0223
  124OSM    H9F13173   5.652   3.907   3.104 -0.0937 -2.7582  1.0994
  124OSM   C10F13174   5.589   4.007   3.274  0.4165  0.4064 -0.5148
  124OSM   H10F13175   5.674   4.077   3.271  0.7181  0.1128  0.6432
  124OSM   C11F13176   5.502   4.016   3.396 -0.3680 -0.6129 -0.6695
  124OSM   H11F13177   5.393   4.008   3.375 -0.8764 -2.3452  2.0774
  124OSM   H11G13178   5.504   4.119   3.439 -0.5098  0.1116 -2.3230
  124OSM   C12F13179   5.537   3.921   3.511  0.8685  0.1359 -0.3815
  124OSM   H12F13180   5.646   3.914   3.529  0.7291 -1.9913 -0.1638
  124OSM   H12G13181   5.512   3.815   3.491 -0.6395 -0.6405  4.3721
  124OSM   C13F13182   5.465   3.947   3.647 -0.4981  0.0657  0.4334
  124OSM   H13F13183   5.490   3.868   3.721 -0.2536  0.6739  1.0208
  124OSM   H13G13184   5.354   3.944   3.643 -0.4734 -2.6558 -0.3277
  124OSM   C14F13185   5.520   4.080   3.703  0.9753 -0.1912  0.3176
  124OSM   H14F13186   5.472   4.162   3.645  0.2441  0.7680  2.1664
  124OSM   H14G13187   5.631   4.075   3.700  1.0685  1.2289  0.7760
  124OSM   C15F13188   5.484   4.103   3.852  0.9211  0.3820  0.5525
  124OSM   H15F13189   5.511   4.015   3.913 -0.6474 -0.5727 -0.0741
  124OSM   H15G13190   5.374   4.116   3.863  0.6191 -2.3679  1.3694
  124OSM   C16F13191   5.552   4.225   3.909 -0.7217 -0.0316 -0.3368
  124OSM   H16F13192   5.561   4.315   3.844 -1.1409  0.7147  0.6133
  124OSM   H16G13193   5.649   4.186   3.946 -1.9444 -2.1806  0.7975
  124OSM   C17F13194   5.469   4.277   4.026  0.1656 -0.7189  0.1976
  124OSM   H17F13195   5.458   4.208   4.113 -0.6459 -1.9326 -0.8338
  124OSM   H17G13196   5.370   4.295   3.979 -0.7660 -1.6736  1.6986
  124OSM   C18F13197   5.529   4.413   4.077  0.0401  0.0773 -0.5215
  124OSM   H18F13198   5.466   4.454   4.159 -1.7524 -1.0289 -1.2810
  124OSM   H18G13199   5.538   4.486   3.994 -0.6957  1.9253  0.9388
  124OSM   H18H13200   5.629   4.405   4.126  0.7840  2.4244 -1.5376
  125OSM      N13201   6.533   1.932   2.314  0.1741  0.1361 -0.5377
  125OSM    C1513202   6.554   2.034   2.211  0.3313 -0.0053 -0.2270
  125OSM   H15A13203   6.516   2.129   2.246  0.5038 -0.4253  1.1678
  125OSM   H15B13204   6.487   2.010   2.129 -0.8607  0.9358  0.4298
  125OSM   H15C13205   6.657   2.042   2.183  0.3083  1.5363  0.0707
  125OSM    C1413206   6.639   1.939   2.413 -0.0695 -0.7444 -0.1215
  125OSM   H14A13207   6.725   1.946   2.348 -0.3826 -2.4514 -0.7553
  125OSM   H14B13208   6.650   1.850   2.474 -1.1191 -1.3393 -0.7689
  125OSM   H14C13209   6.652   2.031   2.469  1.2082  0.3252 -2.0771
  125OSM    C1313210   6.397   1.962   2.381  0.5721  0.4374 -0.5144
  125OSM   H13A13211   6.395   2.054   2.437  3.1984 -0.7239  1.7012
  125OSM   H13B13212   6.361   1.880   2.442 -2.6192  0.8075 -1.6632
  125OSM   H13C13213   6.317   1.963   2.308 -0.4522  1.9033  0.5743
  125OSM    C1213214   6.527   1.804   2.243 -0.6328 -0.2576  0.1855
  125OSM   H12A13215   6.456   1.808   2.162  0.0452 -1.5191 -0.4885
  125OSM   H12B13216   6.494   1.732   2.317 -0.8317 -0.7300 -0.3547
  125OSM    C1113217   6.655   1.760   2.169 -0.2434  0.2106 -0.9084
  125OSM   H11A13218   6.678   1.835   2.090  1.3113  1.7175  0.8652
  125OSM   H11B13219   6.637   1.663   2.117 -1.9332 -0.2892  0.5428
  125OSM      P13220   6.800   1.626   2.337  0.2165  0.1172  0.1749
  125OSM    O1313221   6.804   1.496   2.258  0.2041  0.6028 -0.1537
  125OSM    O1413222   6.925   1.666   2.410  0.6523 -0.2029 -0.1773
  125OSM    O1113223   6.680   1.621   2.442 -0.4714 -0.0737  0.8549
  125OSM    O1213224   6.775   1.750   2.251  0.8068 -0.0736 -0.2233
  125OSM    C1S13225   6.622   1.503   2.497 -0.2373 -0.0290 -0.2677
  125OSM    H1S13226   6.675   1.412   2.462  0.3635  0.7495 -1.4765
  125OSM    H1T13227   6.522   1.487   2.451  0.2843 -0.6272 -1.2327
  125OSM     NF13228   6.616   1.371   2.704  0.6524  0.1637 -0.8336
  125OSM    HNF13229   6.532   1.328   2.735  1.3928 -0.9685 -0.3002
  125OSM    C2S13230   6.611   1.509   2.653  0.1355  0.2466  0.4479
  125OSM    H2S13231   6.701   1.564   2.687  1.8110 -0.7652 -2.0525
  125OSM    C3S13232   6.479   1.589   2.686  0.6693  0.2876  0.9019
  125OSM    H3S13233   6.385   1.552   2.639  0.9947  0.6932 -0.1086
  125OSM     O313234   6.488   1.724   2.641 -0.1128  0.3396 -0.5304
  125OSM    HO313235   6.546   1.715   2.565 -2.0395  1.0796 -2.1664
  125OSM    C4S13236   6.469   1.599   2.832  0.0217  0.1588 -0.1488
  125OSM    H4S13237   6.536   1.675   2.873 -2.5626  3.1316 -1.0459
  125OSM    C5S13238   6.388   1.522   2.909  0.2980  0.2844 -0.0107
  125OSM    H5S13239   6.329   1.446   2.855  1.6733 -0.6808 -0.2050
  125OSM    C6S13240   6.369   1.517   3.053 -0.3888  0.0703  0.7012
  125OSM    H6S13241   6.375   1.411   3.086  1.3328 -0.7261 -1.8884
  125OSM    H6T13242   6.266   1.551   3.080  0.0536  1.2264  0.9950
  125OSM    C7S13243   6.476   1.586   3.140 -0.3918 -0.7510 -0.3239
  125OSM    H7S13244   6.487   1.691   3.106  1.4308 -1.2788 -1.4806
  125OSM    H7T13245   6.581   1.552   3.129  0.4845  1.7600 -0.3577
  125OSM    C8S13246   6.449   1.578   3.292 -0.2257 -0.3611  0.2069
  125OSM    H8S13247   6.543   1.604   3.346  1.5790  0.8706 -3.1592
  125OSM    H8T13248   6.426   1.477   3.330  0.6677 -0.6976 -0.1123
  125OSM    C9S13249   6.342   1.679   3.334  0.4979  0.6244 -0.1842
  125OSM    H9S13250   6.243   1.644   3.295  0.1100 -2.4843  3.0533
  125OSM    H9T13251   6.370   1.778   3.294 -0.3983  1.7120  1.7470
  125OSM   C10S13252   6.332   1.691   3.487 -0.0933  0.0026  0.3036
  125OSM   H10S13253   6.435   1.722   3.512 -0.2299  0.0813  0.7758
  125OSM   H10T13254   6.324   1.595   3.541 -1.2695 -0.2995 -0.3691
  125OSM   C11S13255   6.246   1.805   3.546  0.5012 -0.3094 -0.2728
  125OSM   H11S13256   6.143   1.792   3.505  0.7133 -0.4174 -0.7820
  125OSM   H11T13257   6.267   1.902   3.497 -1.6463  0.5542  0.3964
  125OSM   C12S13258   6.256   1.813   3.695 -0.2596  0.8942 -0.1697
  125OSM   H12S13259   6.364   1.823   3.723 -0.5039  0.4393  0.9961
  125OSM   H12T13260   6.210   1.723   3.740 -0.1270  1.7704  1.8598
  125OSM   C13S13261   6.167   1.926   3.754  0.5857 -0.6214 -0.3110
  125OSM   H13S13262   6.065   1.900   3.719  1.0500 -1.3039 -1.2232
  125OSM   H13T13263   6.189   2.021   3.700 -1.3260  0.6401  1.0019
  125OSM   C14S13264   6.189   1.940   3.897 -0.3924  0.3526 -0.5122
  125OSM   H14S13265   6.282   1.990   3.932 -1.1346  1.6235 -0.3009
  125OSM   H14T13266   6.190   1.838   3.943 -1.5356  0.9252  0.8459
  125OSM   C15S13267   6.072   2.011   3.980  0.3912  0.7401  0.0482
  125OSM   H15S13268   5.977   1.987   3.929  1.6915  0.4099 -2.3922
  125OSM   H15T13269   6.077   2.119   3.957 -2.7279  0.8792 -0.3110
  125OSM   C16S13270   6.078   1.983   4.127  0.2064 -0.1047  0.6227
  125OSM   H16S13271   6.178   2.017   4.161 -0.2752  0.5041  1.4590
  125OSM   H16T13272   6.062   1.875   4.149 -0.0854 -0.6415 -1.9222
  125OSM   C17S13273   5.985   2.071   4.215 -0.0192  0.0833 -0.1473
  125OSM   H17S13274   6.030   2.171   4.229 -2.7039  1.3949 -0.4279
  125OSM   H17T13275   5.983   2.032   4.319 -0.4670  0.6478  0.0550
  125OSM   C18S13276   5.846   2.103   4.160  0.3697  0.1604  0.3905
  125OSM   H18S13277   5.787   2.010   4.144  0.2189  0.2799  0.2493
  125OSM   H18T13278   5.856   2.166   4.069  0.1048 -0.8229 -0.3452
  125OSM   H18U13279   5.802   2.163   4.243  1.0281 -1.1245  1.7209
  125OSM    C1F13280   6.730   1.305   2.707 -0.0416 -0.0942 -0.7876
  125OSM     OF13281   6.835   1.350   2.657 -0.5896  0.0586 -0.3539
  125OSM    C2F13282   6.713   1.169   2.772 -0.5302  0.7949 -0.1663
  125OSM    H2F13283   6.795   1.114   2.721 -0.4088  1.1246 -0.3316
  125OSM    H2G13284   6.615   1.121   2.752 -0.1377 -0.0648 -0.0894
  125OSM    C3F13285   6.737   1.169   2.925  0.5098 -0.2092  0.1247
  125OSM    H3F13286   6.709   1.066   2.957 -0.1723 -0.0800 -0.0273
  125OSM    H3G13287   6.657   1.236   2.962  0.4239 -0.4706  0.4137
  125OSM    C4F13288   6.867   1.226   2.974  0.2172  0.2242  0.3350
  125OSM    H4F13289   6.894   1.326   2.932  0.9636  0.3817  1.1687
  125OSM    H4G13290   6.946   1.150   2.952 -0.0936 -0.3351  1.1270
  125OSM    C5F13291   6.883   1.247   3.127 -0.1498  0.0324  0.4607
  125OSM    H5F13292   6.988   1.273   3.150  0.1832 -1.1556  0.3610
  125OSM    H5G13293   6.856   1.145   3.164 -0.5966  0.1542  0.4841
  125OSM    C6F13294   6.777   1.342   3.193 -0.2917  0.1277 -0.5281
  125OSM    H6F13295   6.740   1.405   3.109  3.1263  1.3424 -1.2578
  125OSM    H6G13296   6.831   1.410   3.262  0.4038 -1.5711  0.6535
  125OSM    C7F13297   6.670   1.272   3.279 -0.2746 -0.3760  0.0426
  125OSM    H7F13298   6.614   1.195   3.222  0.0528 -0.2496 -0.4614
  125OSM    H7G13299   6.591   1.350   3.287  0.0904  0.1089 -0.8831
  125OSM    C8F13300   6.716   1.213   3.411  0.2954 -0.6290  0.3131
  125OSM    H8F13301   6.763   1.293   3.472  0.7514  0.7150 -1.7018
  125OSM    H8G13302   6.806   1.147   3.403  1.8003  1.3285  0.2543
  125OSM    C9F13303   6.612   1.143   3.487  0.6588  0.5707 -0.2401
  125OSM    H9F13304   6.566   1.053   3.444 -2.7198  1.8409  0.3857
  125OSM   C10F13305   6.571   1.170   3.611 -0.2496  0.3407  0.2044
  125OSM   H10F13306   6.486   1.113   3.652 -0.0793  0.8392  1.2789
  125OSM   C11F13307   6.624   1.294   3.682 -0.1439 -0.0532  0.0715
  125OSM   H11F13308   6.644   1.381   3.616  1.7004  0.4014  1.1540
  125OSM   H11G13309   6.723   1.264   3.724 -1.6214 -2.7291  1.9350
  125OSM   C12F13310   6.552   1.335   3.817 -0.8450  0.5380  0.0706
  125OSM   H12F13311   6.628   1.395   3.871 -1.1111  0.5282  0.4621
  125OSM   H12G13312   6.526   1.242   3.873 -0.0754  1.0793  1.3717
  125OSM   C13F13313   6.426   1.416   3.810 -0.0195 -0.0963 -0.5813
  125OSM   H13F13314   6.356   1.383   3.731  1.8428  0.2364 -2.4419
  125OSM   H13G13315   6.461   1.515   3.774 -0.3111 -0.7728 -2.8708
  125OSM   C14F13316   6.365   1.424   3.946 -0.7873  0.6491 -0.2849
  125OSM   H14F13317   6.439   1.437   4.029  0.4305  1.5916 -1.4672
  125OSM   H14G13318   6.328   1.322   3.968  1.4580 -0.1572  0.0274
  125OSM   C15F13319   6.262   1.535   3.958 -0.4362  0.6907 -0.1554
  125OSM   H15F13320   6.184   1.519   3.881 -1.8508 -0.4902  1.4550
  125OSM   H15G13321   6.321   1.629   3.952  0.3665  0.3706  1.8466
  125OSM   C16F13322   6.196   1.537   4.097  0.0306 -0.0562  0.0709
  125OSM   H16F13323   6.154   1.435   4.105 -1.0393  0.3181 -0.6194
  125OSM   H16G13324   6.115   1.612   4.103 -0.7369 -0.7084 -1.7184
  125OSM   C17F13325   6.290   1.569   4.212 -0.1584  0.6983  0.1639
  125OSM   H17F13326   6.359   1.484   4.230  0.3439  0.6839 -1.6146
  125OSM   H17G13327   6.234   1.586   4.306  1.7779 -0.1498  1.5377
  125OSM   C18F13328   6.370   1.700   4.186 -0.5320 -0.1505 -0.4917
  125OSM   H18F13329   6.429   1.727   4.276  0.8536  1.5813 -1.8402
  125OSM   H18G13330   6.309   1.791   4.164 -0.1016  0.5815  1.2242
  125OSM   H18H13331   6.448   1.684   4.109 -0.3046  1.4511 -0.6322
  126OSM      N13332   3.262   6.705   2.147 -0.3433 -0.2115  0.8556
  126OSM    C1513333   3.149   6.755   2.067 -0.2068  0.2269 -0.5877
  126OSM   H15A13334   3.063   6.715   2.119  1.2850 -2.7683 -0.2289
  126OSM   H15B13335   3.154   6.735   1.961  1.5456 -0.8795 -0.3515
  126OSM   H15C13336   3.139   6.862   2.071 -0.2920  0.2142 -0.4262
  126OSM    C1413337   3.273   6.564   2.119 -0.0381 -0.1143 -0.5196
  126OSM   H14A13338   3.242   6.545   2.018 -2.7981  2.3964 -0.2723
  126OSM   H14B13339   3.195   6.504   2.164 -0.6879 -0.2853 -1.8252
  126OSM   H14C13340   3.371   6.524   2.144 -0.5246 -1.0569 -0.0313
  126OSM    C1313341   3.380   6.767   2.086  0.1874  0.0627  0.9189
  126OSM   H13A13342   3.468   6.754   2.147  0.4481  2.5048  1.1333
  126OSM   H13B13343   3.371   6.874   2.083 -0.1713  0.0136 -0.3485
  126OSM   H13C13344   3.398   6.726   1.988 -3.3683 -0.5316  0.3490
  126OSM    C1213345   3.252   6.735   2.298  0.4127  0.9923  0.3584
  126OSM   H12A13346   3.266   6.841   2.310  0.7766  1.0971 -0.8305
  126OSM   H12B13347   3.341   6.707   2.353 -0.0388  0.1629  0.6938
  126OSM    C1113348   3.125   6.680   2.376  0.8658 -0.6348  0.1375
  126OSM   H11A13349   3.143   6.681   2.486  0.5956  1.1173  0.1942
  126OSM   H11B13350   3.108   6.575   2.344 -1.0770 -0.2743 -0.1515
  126OSM      P13351   2.971   6.896   2.382 -0.1382 -0.0369  0.2789
  126OSM    O1313352   3.049   6.991   2.303  0.3463 -0.4332 -0.1182
  126OSM    O1413353   2.825   6.910   2.362 -1.0302 -0.1540 -0.0143
  126OSM    O1113354   3.005   6.902   2.546  0.1820  0.4242  0.3095
  126OSM    O1213355   3.004   6.743   2.337  0.6197  0.0565 -0.2598
  126OSM    C1S13356   3.119   6.986   2.575  0.5247  0.7495 -0.5018
  126OSM    H1S13357   3.115   7.088   2.530 -1.4887  1.0161  0.1694
  126OSM    H1T13358   3.215   6.939   2.545 -0.5782 -1.5244 -0.6470
  126OSM     NF13359   3.239   7.086   2.765  0.2606  0.5538 -0.2763
  126OSM    HNF13360   3.321   7.042   2.800  0.8396  1.3239 -0.6370
  126OSM    C2S13361   3.126   6.995   2.726 -0.3306 -0.1926  0.1316
  126OSM    H2S13362   3.036   7.034   2.777  0.8630  3.6488 -0.3889
  126OSM    C3S13363   3.132   6.854   2.787 -0.1573  0.4407 -0.7995
  126OSM    H3S13364   3.223   6.809   2.742  0.3358  0.7769 -0.1458
  126OSM     O313365   3.018   6.764   2.766 -0.1707 -0.4097  0.4077
  126OSM    HO313366   2.978   6.804   2.688 -1.2922 -0.9678  0.6907
  126OSM    C4S13367   3.152   6.848   2.939 -0.6984 -0.1841  0.5713
  126OSM    H4S13368   3.076   6.899   3.000  0.5165 -1.6434  3.5567
  126OSM    C5S13369   3.254   6.788   3.010  0.2159 -0.2449 -0.3813
  126OSM    H5S13370   3.333   6.730   2.959  0.9067 -0.7095  1.1766
  126OSM    C6S13371   3.263   6.783   3.161 -0.6832  1.0085  0.5238
  126OSM    H6S13372   3.202   6.861   3.211 -0.0053  2.2143 -0.4701
  126OSM    H6T13373   3.361   6.803   3.210 -0.2432 -0.8257  0.4551
  126OSM    C7S13374   3.212   6.658   3.218  0.6553 -0.0122 -0.6384
  126OSM    H7S13375   3.268   6.566   3.189  0.6122 -0.9492  2.0382
  126OSM    H7T13376   3.107   6.640   3.188  0.0872  0.1176  1.2035
  126OSM    C8S13377   3.221   6.659   3.375 -0.1311 -0.0232 -0.2734
  126OSM    H8S13378   3.160   6.743   3.415 -0.4316 -0.9707  1.3523
  126OSM    H8T13379   3.326   6.681   3.401  0.3960 -1.6784 -0.8790
  126OSM    C9S13380   3.184   6.520   3.440 -0.0718 -0.1742 -0.3288
  126OSM    H9S13381   3.238   6.434   3.397  1.7167  0.8704 -0.2736
  126OSM    H9T13382   3.080   6.517   3.401 -0.2767  2.1208 -0.1367
  126OSM   C10S13383   3.187   6.523   3.590  1.2249 -1.2172  0.6995
  126OSM   H10S13384   3.136   6.612   3.633  2.3283 -0.9556  1.5140
  126OSM   H10T13385   3.296   6.516   3.613  1.5347 -1.5319 -0.7516
  126OSM   C11S13386   3.112   6.406   3.667  0.2720 -0.2795  0.2191
  126OSM   H11S13387   3.171   6.312   3.658  1.6483  0.6404 -0.8214
  126OSM   H11T13388   3.012   6.395   3.618  0.1264  0.4091  0.3489
  126OSM   C12S13389   3.099   6.443   3.819  0.0289 -0.1192  0.5925
  126OSM   H12S13390   3.182   6.515   3.837  2.0623 -2.1047 -0.2373
  126OSM   H12T13391   3.117   6.348   3.874  0.8289 -0.5114 -0.3150
  126OSM   C13S13392   2.961   6.478   3.869 -0.3240 -0.1327  0.6406
  126OSM   H13S13393   2.891   6.393   3.855 -1.3214  0.2404  2.9738
  126OSM   H13T13394   2.922   6.554   3.798 -3.2245 -2.2275 -0.1693
  126OSM   C14S13395   2.950   6.516   4.016 -0.1739  0.2136 -0.2894
  126OSM   H14S13396   3.027   6.588   4.051 -0.4400  0.0429  0.6655
  126OSM   H14T13397   2.977   6.416   4.055  0.2907 -0.0657 -1.2844
  126OSM   C15S13398   2.806   6.545   4.059  0.0126 -0.8419 -1.0494
  126OSM   H15S13399   2.738   6.470   4.012 -1.4812  1.1944 -2.2721
  126OSM   H15T13400   2.787   6.646   4.017 -1.8755  0.2204  1.9820
  126OSM   C16S13401   2.799   6.540   4.214 -0.0865  0.1380 -0.0460
  126OSM   H16S13402   2.850   6.624   4.266  0.6115 -1.0862  1.2962
  126OSM   H16T13403   2.850   6.446   4.244 -1.0070 -1.0905 -2.0818
  126OSM   C17S13404   2.658   6.542   4.275 -0.2324 -0.2595 -0.0015
  126OSM   H17S13405   2.615   6.643   4.254 -0.8102 -0.8463 -1.8240
  126OSM   H17T13406   2.675   6.528   4.383  0.0837  0.5428  0.0624
  126OSM   C18S13407   2.548   6.448   4.217  0.9626 -0.6072  0.2703
  126OSM   H18S13408   2.524   6.482   4.114  0.1258 -1.3883  0.1950
  126OSM   H18T13409   2.454   6.452   4.275 -0.4153  1.1448 -1.9338
  126OSM   H18U13410   2.590   6.345   4.219  2.8575  0.1060 -0.0157
  126OSM    C1F13411   3.229   7.224   2.754  0.3546 -0.3943  0.0577
  126OSM     OF13412   3.124   7.280   2.719  0.1093  1.0208 -0.0724
  126OSM    C2F13413   3.355   7.303   2.787 -0.7161  0.2751  0.0568
  126OSM    H2F13414   3.337   7.412   2.795  1.1388  0.5601  0.7837
  126OSM    H2G13415   3.414   7.272   2.698 -1.4866 -2.4120  0.3864
  126OSM    C3F13416   3.447   7.248   2.902 -0.3871 -0.1077 -0.0088
  126OSM    H3F13417   3.509   7.338   2.921 -0.9611  0.4056 -0.5053
  126OSM    H3G13418   3.504   7.159   2.870  0.3015 -0.4700  2.0746
  126OSM    C4F13419   3.373   7.213   3.032  0.1489 -0.4118 -0.9867
  126OSM    H4F13420   3.340   7.107   3.020 -1.6937 -0.0183  0.0884
  126OSM    H4G13421   3.279   7.272   3.039  1.0566  1.1526 -1.5694
  126OSM    C5F13422   3.438   7.229   3.167 -0.7368  0.0086 -0.6770
  126OSM    H5F13423   3.362   7.276   3.234 -0.9520 -1.7655  0.3976
  126OSM    H5G13424   3.521   7.300   3.144  0.2426 -0.8555  0.0801
  126OSM    C6F13425   3.483   7.098   3.233  0.5477  0.3251 -0.2049
  126OSM    H6F13426   3.570   7.057   3.177  0.2536 -1.7528  0.7504
  126OSM    H6G13427   3.404   7.021   3.241  1.2166 -0.2109  2.2890
  126OSM    C7F13428   3.531   7.132   3.375 -0.6041  0.1624 -0.0916
  126OSM    H7F13429   3.467   7.215   3.411 -2.6693  0.1033 -3.1578
  126OSM    H7G13430   3.635   7.167   3.363  0.1571 -1.6431  0.7972
  126OSM    C8F13431   3.529   7.014   3.476  0.1452  0.1930  0.7042
  126OSM    H8F13432   3.571   7.048   3.573  0.3016 -0.8716  1.0266
  126OSM    H8G13433   3.602   6.934   3.448  1.1722  1.4157 -0.2353
  126OSM    C9F13434   3.386   6.964   3.505 -0.1610  0.1061  0.6695
  126OSM    H9F13435   3.344   6.915   3.415  0.7955  0.4674  0.0031
  126OSM   C10F13436   3.317   6.967   3.620 -0.0925 -0.4240 -0.3808
  126OSM   H10F13437   3.212   6.934   3.613 -0.7032  0.9993  1.3487
  126OSM   C11F13438   3.352   7.010   3.762  0.4300  0.1160  0.6119
  126OSM   H11F13439   3.463   7.017   3.755  0.3216  0.8212 -0.7603
  126OSM   H11G13440   3.320   6.930   3.832  1.1405 -0.8968 -0.1855
  126OSM   C12F13441   3.299   7.148   3.810 -0.0192 -0.3639  0.3567
  126OSM   H12F13442   3.190   7.144   3.792  0.1217 -0.9279 -0.4463
  126OSM   H12G13443   3.345   7.227   3.748 -0.1178  1.8002  2.8797
  126OSM   C13F13444   3.327   7.192   3.952 -0.3195 -0.1812  0.4077
  126OSM   H13F13445   3.283   7.292   3.970 -0.3052  0.0142 -0.6060
  126OSM   H13G13446   3.437   7.194   3.966 -0.4612  2.7606  1.8807
  126OSM   C14F13447   3.264   7.086   4.047 -0.4760  0.2390 -0.5418
  126OSM   H14F13448   3.343   7.009   4.042  0.7605  1.4290 -0.0858
  126OSM   H14G13449   3.173   7.040   4.004 -1.3042  1.2934  0.0193
  126OSM   C15F13450   3.246   7.124   4.193 -0.6143  0.0192 -0.2116
  126OSM   H15F13451   3.234   7.026   4.245  1.8029 -1.0580 -1.5139
  126OSM   H15G13452   3.161   7.195   4.203 -0.3427  0.0972  1.8124
  126OSM   C16F13453   3.365   7.206   4.240 -0.0921  0.0869  0.4428
  126OSM   H16F13454   3.376   7.308   4.196  0.3140 -0.7512 -1.4944
  126OSM   H16G13455   3.456   7.153   4.206 -0.9682 -0.4871 -1.0987
  126OSM   C17F13456   3.366   7.221   4.392 -0.8865  0.7852 -0.1484
  126OSM   H17F13457   3.462   7.262   4.431  0.7924 -4.0185  1.6180
  126OSM   H17G13458   3.352   7.129   4.453 -1.4204  0.0058 -1.3981
  126OSM   C18F13459   3.258   7.320   4.426 -0.6936 -0.4848 -0.5233
  126OSM   H18F13460   3.279   7.419   4.379 -0.1597  0.1562  0.9867
  126OSM   H18G13461   3.244   7.335   4.535  2.7734  0.7627 -0.1389
  126OSM   H18H13462   3.157   7.282   4.400 -1.2538 -1.1979  2.3423
  127OSM      N13463   4.557   3.523   1.890  0.3585 -0.1791  0.1909
  127OSM    C1513464   4.689   3.499   1.930  0.2657  0.2563 -0.6663
  127OSM   H15A13465   4.763   3.557   1.876 -1.2337  0.2624 -2.8474
  127OSM   H15B13466   4.712   3.393   1.924 -0.8582 -0.0624  0.2763
  127OSM   H15C13467   4.691   3.520   2.036 -1.1839 -1.2014 -0.2933
  127OSM    C1413468   4.533   3.670   1.902 -0.1737  0.1501  0.2266
  127OSM   H14A13469   4.429   3.690   1.878 -0.2654 -0.8290 -0.2199
  127OSM   H14B13470   4.596   3.740   1.850  1.5071 -1.2799  0.2529
  127OSM   H14C13471   4.545   3.693   2.007 -0.8005  2.2005 -0.0947
  127OSM    C1313472   4.533   3.474   1.751  0.3016  0.7890 -0.4801
  127OSM   H13A13473   4.436   3.504   1.714  0.3947 -0.5162 -1.8840
  127OSM   H13B13474   4.530   3.367   1.755 -0.7438  0.8330  0.1726
  127OSM   H13C13475   4.613   3.502   1.683  2.0305  0.9963  1.5297
  127OSM    C1213476   4.445   3.453   1.973  0.1865 -0.8937  0.2710
  127OSM   H12A13477   4.453   3.348   1.949  2.1564 -0.5778 -0.5780
  127OSM   H12B13478   4.344   3.476   1.941  0.7849 -1.7392 -2.4978
  127OSM    C1113479   4.460   3.471   2.127  0.2534 -0.0698 -0.4681
  127OSM   H11A13480   4.553   3.439   2.180 -0.0049  1.6771  1.1492
  127OSM   H11B13481   4.382   3.404   2.168  3.1646 -2.3917  1.7587
  127OSM      P13482   4.287   3.659   2.175 -0.4148 -0.3026  0.1874
  127OSM    O1313483   4.287   3.808   2.194  0.6200 -0.6411  0.1290
  127OSM    O1413484   4.207   3.609   2.059  0.1554 -0.3378  0.0256
  127OSM    O1113485   4.238   3.583   2.313  0.1594 -0.0363  0.1349
  127OSM    O1213486   4.442   3.612   2.158 -0.3818 -0.8644 -0.1817
  127OSM    C1S13487   4.297   3.606   2.437 -0.2021  0.3100  0.4035
  127OSM    H1S13488   4.404   3.636   2.436 -0.3866  0.9667  0.1723
  127OSM    H1T13489   4.287   3.522   2.509  0.2372  0.9692  1.2423
  127OSM     NF13490   4.311   3.793   2.605  0.0417 -0.4762 -0.9516
  127OSM    HNF13491   4.269   3.799   2.696  0.0761  0.1006 -0.9721
  127OSM    C2S13492   4.222   3.727   2.512 -0.1770  0.4673  0.0915
  127OSM    H2S13493   4.208   3.803   2.432  0.0453  0.5425  0.1214
  127OSM    C3S13494   4.079   3.681   2.568 -0.0983 -0.0638  0.2494
  127OSM    H3S13495   4.097   3.614   2.656 -0.3203  0.1816  0.4839
  127OSM     O313496   4.007   3.605   2.469 -0.2568  0.0103 -0.1382
  127OSM    HO313497   4.066   3.607   2.393  0.2701  0.6324  0.2710
  127OSM    C4S13498   3.998   3.801   2.614 -0.6624 -0.0799 -0.1963
  127OSM    H4S13499   4.036   3.842   2.708  0.6075 -1.4929 -0.0646
  127OSM    C5S13500   3.909   3.874   2.541  0.1755  0.0841 -0.5957
  127OSM    H5S13501   3.901   3.853   2.434 -2.8803  1.5268 -0.7437
  127OSM    C6S13502   3.842   3.995   2.582  0.3980 -0.0638  0.1442
  127OSM    H6S13503   3.734   3.970   2.577  0.8928 -2.0917 -1.6062
  127OSM    H6T13504   3.866   4.079   2.513 -1.4513  0.7563  0.4440
  127OSM    C7S13505   3.870   4.043   2.729 -0.0367 -0.1563  0.6556
  127OSM    H7S13506   3.979   4.054   2.748 -0.1595  0.3647  1.0571
  127OSM    H7T13507   3.835   3.963   2.798  0.2116 -1.3568 -0.5567
  127OSM    C8S13508   3.796   4.179   2.752  0.4260 -0.1451 -0.8009
  127OSM    H8S13509   3.692   4.143   2.765  1.0290 -2.1769 -1.3006
  127OSM    H8T13510   3.805   4.232   2.655 -2.7164 -2.8023 -2.7539
  127OSM    C9S13511   3.862   4.251   2.873  0.2654 -0.6491  0.5572
  127OSM    H9S13512   3.815   4.349   2.895  0.3124 -0.8623  1.6598
  127OSM    H9T13513   3.959   4.283   2.828 -0.1571 -1.7245 -1.2010
  127OSM   C10S13514   3.861   4.168   2.994  0.0652 -0.3482 -0.2518
  127OSM   H10S13515   3.940   4.090   2.996  0.3633 -0.0490 -0.2834
  127OSM   H10T13516   3.761   4.121   3.005 -0.7402  1.6033  1.3060
  127OSM   C11S13517   3.877   4.247   3.122  0.3502  0.2225  0.3603
  127OSM   H11S13518   3.788   4.312   3.130  1.2599  1.5630  0.0336
  127OSM   H11T13519   3.967   4.313   3.123 -0.3155  1.1781 -0.3716
  127OSM   C12S13520   3.875   4.149   3.237  0.0815 -0.3853 -0.8674
  127OSM   H12S13521   3.966   4.086   3.245 -0.4710 -0.9731  2.0014
  127OSM   H12T13522   3.797   4.073   3.215  0.5236 -1.9203  2.3609
  127OSM   C13S13523   3.846   4.225   3.373  0.4858  0.1758 -0.0615
  127OSM   H13S13524   3.749   4.272   3.349  1.1271  0.5898 -2.0843
  127OSM   H13T13525   3.926   4.301   3.389 -0.2744  0.8743  0.5210
  127OSM   C14S13526   3.825   4.138   3.496  0.1254 -0.3810 -0.0299
  127OSM   H14S13527   3.898   4.055   3.500 -0.2187 -0.7092 -0.5310
  127OSM   H14T13528   3.742   4.065   3.496  0.4944 -0.8123 -0.6385
  127OSM   C15S13529   3.822   4.224   3.623 -0.2005 -0.1084  0.4561
  127OSM   H15S13530   3.727   4.281   3.629 -0.5085 -0.5655 -0.0170
  127OSM   H15T13531   3.911   4.291   3.627  0.4814 -0.9951  0.4106
  127OSM   C16S13532   3.845   4.139   3.748 -0.4950 -0.0142 -0.4334
  127OSM   H16S13533   3.949   4.103   3.734 -0.2094  0.7936 -0.4252
  127OSM   H16T13534   3.778   4.051   3.744 -0.4616 -0.0671  0.1289
  127OSM   C17S13535   3.835   4.225   3.877 -0.8728 -0.0823  0.0228
  127OSM   H17S13536   3.733   4.267   3.885 -0.3378  1.2550  0.1107
  127OSM   H17T13537   3.905   4.308   3.855 -0.8577 -0.3754 -1.1324
  127OSM   C18S13538   3.872   4.148   4.013  0.3424  0.3761 -0.3216
  127OSM   H18S13539   3.980   4.126   4.003  0.0099 -0.6431 -1.9838
  127OSM   H18T13540   3.796   4.069   4.032 -0.1996  0.5977 -1.4369
  127OSM   H18U13541   3.866   4.214   4.102  0.8496 -1.6651  1.3027
  127OSM    C1F13542   4.418   3.867   2.563 -0.4831 -0.1931 -0.3504
  127OSM     OF13543   4.442   3.886   2.445  0.1225  0.2390  0.0642
  127OSM    C2F13544   4.522   3.913   2.663  0.1813 -0.0837 -0.3845
  127OSM    H2F13545   4.529   3.825   2.730 -2.6026  1.5560  2.3226
  127OSM    H2G13546   4.479   3.994   2.725 -0.1651  1.5365 -2.6192
  127OSM    C3F13547   4.650   3.947   2.597 -0.5899 -0.0901 -0.5990
  127OSM    H3F13548   4.634   4.041   2.540 -1.2760 -0.7142 -1.4534
  127OSM    H3G13549   4.687   3.866   2.531 -1.0911  0.8842 -2.1273
  127OSM    C4F13550   4.760   3.975   2.704 -0.3210 -0.9815 -0.3281
  127OSM    H4F13551   4.851   3.951   2.645 -0.5757 -1.2419 -0.6240
  127OSM    H4G13552   4.758   3.894   2.780  1.9588 -0.5265  0.2704
  127OSM    C5F13553   4.761   4.115   2.770 -0.3205 -1.0620 -0.3954
  127OSM    H5F13554   4.726   4.193   2.699  0.3918  0.1873  0.5565
  127OSM    H5G13555   4.863   4.142   2.806  0.0484 -1.3467 -1.2057
  127OSM    C6F13556   4.678   4.138   2.894  0.3826  0.2801 -1.1864
  127OSM    H6F13557   4.716   4.070   2.973 -0.9018 -1.5409 -2.0647
  127OSM    H6G13558   4.572   4.115   2.871  0.0379  0.3377  0.2257
  127OSM    C7F13559   4.680   4.284   2.949 -0.0612  0.2521 -0.1437
  127OSM    H7F13560   4.585   4.303   3.005 -1.1040  1.2725 -2.1367
  127OSM    H7G13561   4.672   4.359   2.868  0.3002 -0.1698 -0.5765
  127OSM    C8F13562   4.793   4.321   3.049  0.1984  0.6689  0.6093
  127OSM    H8F13563   4.814   4.430   3.047  0.3283  0.6466 -1.4210
  127OSM    H8G13564   4.879   4.268   3.004  0.2519  0.3650  1.0645
  127OSM    C9F13565   4.770   4.253   3.186  0.6303 -0.1995  0.3448
  127OSM    H9F13566   4.752   4.145   3.194 -1.5955  0.2475  3.1932
  127OSM   C10F13567   4.752   4.312   3.307 -0.0459 -0.5155 -0.2989
  127OSM   H10F13568   4.742   4.249   3.396 -1.7319  0.8532  0.5333
  127OSM   C11F13569   4.753   4.457   3.334 -0.9363  1.1910 -0.8979
  127OSM   H11F13570   4.648   4.495   3.336 -1.0691  0.8753  2.0937
  127OSM   H11G13571   4.810   4.509   3.254  0.4434  0.3201 -0.5154
  127OSM   C12F13572   4.804   4.485   3.479  0.2808 -0.2598 -0.5621
  127OSM   H12F13573   4.837   4.591   3.479 -1.3934  0.3027 -1.9576
  127OSM   H12G13574   4.886   4.418   3.514  1.2175  1.5490  0.8712
  127OSM   C13F13575   4.687   4.468   3.576 -0.1279  0.5087  0.3237
  127OSM   H13F13576   4.653   4.363   3.586  1.8052 -0.2268 -0.4445
  127OSM   H13G13577   4.600   4.525   3.536 -2.0329 -0.3357  2.9267
  127OSM   C14F13578   4.728   4.531   3.706  0.2458  0.4297  0.2646
  127OSM   H14F13579   4.736   4.640   3.684  1.1485  0.0909 -1.3007
  127OSM   H14G13580   4.828   4.486   3.723 -1.1043 -3.3149 -0.6224
  127OSM   C15F13581   4.628   4.502   3.810  0.2046 -0.0764 -0.7665
  127OSM   H15F13582   4.628   4.393   3.830 -1.7076  0.0298  0.0817
  127OSM   H15G13583   4.531   4.520   3.758 -0.4529 -3.2051 -0.8059
  127OSM   C16F13584   4.659   4.572   3.950  0.4889  0.2771  0.0023
  127OSM   H16F13585   4.641   4.679   3.928  1.1623  0.0012 -2.0204
  127OSM   H16G13586   4.765   4.550   3.974  0.1290  0.7992  2.3157
  127OSM   C17F13587   4.566   4.533   4.065  0.0262 -0.3468  0.4866
  127OSM   H17F13588   4.590   4.425   4.074  1.6224 -0.2020 -1.2939
  127OSM   H17G13589   4.465   4.554   4.024  0.1539  0.7839  0.7173
  127OSM   C18F13590   4.583   4.598   4.196  0.0895 -0.0698  0.0678
  127OSM   H18F13591   4.612   4.704   4.177  1.3319 -0.8453 -2.9637
  127OSM   H18G13592   4.670   4.549   4.245  1.1422  1.0778 -0.5721
  127OSM   H18H13593   4.499   4.595   4.269 -1.0284  0.5896 -1.1503
  128OSM      N13594   3.559   0.599   1.849  0.1631 -0.1218 -0.5084
  128OSM    C1513595   3.619   0.481   1.787  0.1170 -0.6792  0.1424
  128OSM   H15A13596   3.619   0.508   1.683 -0.4418  1.4061  0.6334
  128OSM   H15B13597   3.564   0.389   1.800 -1.6354  0.2799 -0.1501
  128OSM   H15C13598   3.724   0.468   1.807  1.0799  0.5784 -3.3329
  128OSM    C1413599   3.599   0.583   1.992 -0.2516 -0.0787 -0.4597
  128OSM   H14A13600   3.614   0.479   2.018  0.2057  0.1533  0.2257
  128OSM   H14B13601   3.517   0.616   2.055  0.4390  0.1935  0.3095
  128OSM   H14C13602   3.688   0.638   2.016  0.7697 -2.5954  2.1921
  128OSM    C1313603   3.622   0.725   1.797 -0.0091 -0.8236  0.1302
  128OSM   H13A13604   3.727   0.732   1.818  0.8700 -1.6000 -3.4604
  128OSM   H13B13605   3.579   0.814   1.840  2.1547 -0.0900  0.9092
  128OSM   H13C13606   3.619   0.728   1.689 -1.9737  0.5435  0.1567
  128OSM    C1213607   3.404   0.599   1.842  0.1148  0.3217 -0.2242
  128OSM   H12A13608   3.369   0.510   1.892  0.2887 -0.5254 -1.5615
  128OSM   H12B13609   3.377   0.590   1.738  1.0931 -2.4563 -0.3316
  128OSM    C1113610   3.338   0.729   1.891  0.8870  0.8631 -0.6753
  128OSM   H11A13611   3.230   0.725   1.864  1.3907  0.3675 -2.8173
  128OSM   H11B13612   3.380   0.816   1.835 -0.0904  1.7793 -0.0310
  128OSM      P13613   3.260   0.676   2.131  0.0805  0.1665  0.3179
  128OSM    O1313614   3.135   0.752   2.160  0.7456 -0.2718  0.3601
  128OSM    O1413615   3.229   0.540   2.079  0.5402 -0.2236  0.1672
  128OSM    O1113616   3.347   0.653   2.268  0.1174 -0.1582  0.1100
  128OSM    O1213617   3.354   0.752   2.029 -0.0102  0.4930  0.8985
  128OSM    C1S13618   3.379   0.774   2.338  0.3302  0.0351 -0.2811
  128OSM    H1S13619   3.292   0.843   2.340  0.5845  0.3450  0.3946
  128OSM    H1T13620   3.456   0.832   2.283  2.1340  1.6606  3.5669
  128OSM     NF13621   3.428   0.871   2.547 -0.3999  0.2042 -0.8837
  128OSM    HNF13622   3.500   0.940   2.558  1.2566 -1.7717  1.6228
  128OSM    C2S13623   3.448   0.746   2.475 -0.2627 -0.6066  0.9229
  128OSM    H2S13624   3.389   0.670   2.531  0.8224 -0.3584  2.4736
  128OSM    C3S13625   3.586   0.673   2.455 -0.4927  0.2898  0.0678
  128OSM    H3S13626   3.663   0.741   2.413 -1.3122  0.3325 -1.4333
  128OSM     O313627   3.581   0.565   2.367 -0.6088 -0.7477  0.3142
  128OSM    HO313628   3.497   0.566   2.321 -1.3340  2.0061  1.5021
  128OSM    C4S13629   3.635   0.627   2.596 -0.3093  0.4404  0.1147
  128OSM    H4S13630   3.583   0.540   2.639  0.5000  0.1472  0.5221
  128OSM    C5S13631   3.744   0.675   2.663 -0.0262  0.0163  0.4254
  128OSM    H5S13632   3.807   0.754   2.621  0.5142  0.0780  1.3216
  128OSM    C6S13633   3.790   0.622   2.797  0.5055  0.5518 -0.0312
  128OSM    H6S13634   3.898   0.610   2.774  0.4698 -0.4007  0.2620
  128OSM    H6T13635   3.745   0.522   2.814  0.7292  0.5811  0.7803
  128OSM    C7S13636   3.756   0.708   2.917  0.4251 -0.6641 -0.3543
  128OSM    H7S13637   3.647   0.701   2.937  0.3834 -1.2497 -0.7477
  128OSM    H7T13638   3.782   0.814   2.898 -1.4374  0.1088  1.1263
  128OSM    C8S13639   3.823   0.653   3.048 -0.2896  0.2794 -0.1116
  128OSM    H8S13640   3.926   0.624   3.017 -0.2070 -0.6406  0.9743
  128OSM    H8T13641   3.774   0.557   3.072  1.5837 -1.0747 -1.4242
  128OSM    C9S13642   3.824   0.755   3.160 -0.7573  0.3103 -0.0986
  128OSM    H9S13643   3.724   0.779   3.200 -0.1190  1.8403  0.6697
  128OSM    H9T13644   3.852   0.854   3.117 -1.7299  1.0267  0.8875
  128OSM   C10S13645   3.919   0.721   3.272  0.0297 -0.1894  0.2709
  128OSM   H10S13646   4.019   0.692   3.233 -0.8196 -1.6107 -0.9404
  128OSM   H10T13647   3.870   0.639   3.329 -1.0211  1.6781  2.1929
  128OSM   C11S13648   3.945   0.834   3.373  0.0621 -0.2018 -0.3603
  128OSM   H11S13649   3.854   0.899   3.376 -0.5282 -1.0475  0.4173
  128OSM   H11T13650   4.027   0.900   3.337 -0.8275  1.1421  0.0068
  128OSM   C12S13651   3.963   0.788   3.521  0.1262  0.2391  0.0016
  128OSM   H12S13652   4.056   0.729   3.529 -0.4384 -1.2596 -2.9149
  128OSM   H12T13653   3.863   0.741   3.536 -0.2000  1.1915  0.9816
  128OSM   C13S13654   3.974   0.888   3.635 -0.4297 -0.6158 -0.7042
  128OSM   H13S13655   3.881   0.946   3.652 -0.6467 -0.2071 -2.9019
  128OSM   H13T13656   4.045   0.973   3.618 -0.8032 -0.1460  0.0468
  128OSM   C14S13657   3.993   0.804   3.766 -0.0214  0.3829  0.2954
  128OSM   H14S13658   4.103   0.791   3.775  0.3792  2.9956 -0.0010
  128OSM   H14T13659   3.942   0.706   3.752  1.0267  0.0197 -1.2948
  128OSM   C15S13660   3.956   0.866   3.906  0.1145 -0.5501 -0.0045
  128OSM   H15S13661   3.978   0.796   3.989  1.9142  1.8249  1.6873
  128OSM   H15T13662   3.846   0.885   3.906  0.0579 -0.8510  0.7627
  128OSM   C16S13663   4.031   0.997   3.939 -0.0807 -0.1463 -0.4344
  128OSM   H16S13664   4.027   1.054   3.844 -1.5024  0.5118 -0.0079
  128OSM   H16T13665   4.138   0.971   3.953  0.1661  1.1727  0.2381
  128OSM   C17S13666   3.966   1.073   4.057 -1.1755 -0.6015  0.6642
  128OSM   H17S13667   3.999   1.016   4.147  1.7123  2.2489  1.6368
  128OSM   H17T13668   3.857   1.072   4.034 -1.3161 -1.8742  1.3192
  128OSM   C18S13669   4.020   1.215   4.064 -0.3256  0.1413  0.0250
  128OSM   H18S13670   4.123   1.206   4.104 -0.6621  1.7876  1.3334
  128OSM   H18T13671   3.960   1.262   4.144 -0.9202  0.6627 -0.7134
  128OSM   H18U13672   4.006   1.281   3.975 -1.3255  0.2261  0.2329
  128OSM    C1F13673   3.303   0.895   2.595 -0.0919 -0.2339 -0.2040
  128OSM     OF13674   3.204   0.829   2.564 -0.2922 -0.1979 -0.0551
  128OSM    C2F13675   3.284   1.005   2.693 -0.2206 -0.1490 -0.6258
  128OSM    H2F13676   3.359   1.086   2.685 -1.7132  1.6320  1.8979
  128OSM    H2G13677   3.305   0.953   2.789 -1.3083 -0.3621 -0.4863
  128OSM    C3F13678   3.148   1.078   2.686  0.1222  0.0722 -0.1405
  128OSM    H3F13679   3.065   1.004   2.688  0.6589 -0.5266  1.0949
  128OSM    H3G13680   3.159   1.130   2.588  0.4447 -1.6332 -1.0548
  128OSM    C4F13681   3.128   1.176   2.795 -0.0832 -0.3882 -0.0044
  128OSM    H4F13682   3.213   1.248   2.797 -0.4237 -0.0008  1.1035
  128OSM    H4G13683   3.140   1.136   2.898  0.9920  0.4452  0.2224
  128OSM    C5F13684   2.989   1.242   2.793 -0.4198 -0.4770  0.1147
  128OSM    H5F13685   2.907   1.167   2.789 -0.6612 -0.1816 -0.6472
  128OSM    H5G13686   2.987   1.300   2.698  2.8188  1.2600  0.9688
  128OSM    C6F13687   2.967   1.316   2.915 -0.2682  0.5359 -0.2563
  128OSM    H6F13688   3.053   1.383   2.934 -0.9528  1.6631 -1.0316
  128OSM    H6G13689   2.964   1.248   3.004  2.4840 -1.1732 -1.3312
  128OSM    C7F13690   2.835   1.403   2.893  0.0144 -0.2157 -0.4294
  128OSM    H7F13691   2.743   1.341   2.900 -1.3071  1.4351 -2.0332
  128OSM    H7G13692   2.827   1.433   2.786 -0.0004 -0.8015 -0.5956
  128OSM    C8F13693   2.830   1.526   2.995 -0.3263 -0.1562 -0.3966
  128OSM    H8F13694   2.842   1.492   3.100  0.3604 -1.7848 -0.9773
  128OSM    H8G13695   2.724   1.560   2.987  0.2163  1.6765 -0.1782
  128OSM    C9F13696   2.917   1.639   2.949 -0.3377 -0.3557  0.2674
  128OSM    H9F13697   2.949   1.640   2.843 -1.2349  2.3047 -0.0509
  128OSM   C10F13698   2.960   1.735   3.028 -0.2045 -0.3170 -0.6548
  128OSM   H10F13699   3.010   1.824   2.987 -3.3017  1.2184 -1.3954
  128OSM   C11F13700   2.916   1.759   3.173 -0.3345  0.9367  0.3232
  128OSM   H11F13701   2.807   1.742   3.182 -0.8144  1.8445 -2.7569
  128OSM   H11G13702   2.926   1.867   3.198 -0.4768  0.8923  0.5786
  128OSM   C12F13703   2.991   1.672   3.282  0.5801 -0.2974  0.2734
  128OSM   H12F13704   3.100   1.683   3.263  0.9098  2.2593  2.8810
  128OSM   H12G13705   2.959   1.566   3.272  0.4504 -0.1821 -0.5873
  128OSM   C13F13706   2.968   1.711   3.429  0.2511 -0.1341  0.4099
  128OSM   H13F13707   2.862   1.734   3.453 -0.5835 -1.1435 -1.9904
  128OSM   H13G13708   3.034   1.794   3.462  1.4598 -0.1309 -1.7816
  128OSM   C14F13709   3.018   1.597   3.522 -0.2707 -0.5359  0.0598
  128OSM   H14F13710   3.129   1.602   3.518 -0.2829  0.5309 -3.8522
  128OSM   H14G13711   2.991   1.495   3.486  0.6883 -0.9969  0.6072
  128OSM   C15F13712   2.958   1.609   3.662 -0.1093  0.2218 -0.1968
  128OSM   H15F13713   2.942   1.509   3.707 -0.2949  0.3283 -0.0218
  128OSM   H15G13714   2.854   1.649   3.654 -0.8089 -1.7266 -1.8467
  128OSM   C16F13715   3.041   1.691   3.760 -0.2445 -0.0777  0.2990
  128OSM   H16F13716   3.048   1.792   3.716 -3.9472 -0.1331 -0.7699
  128OSM   H16G13717   3.142   1.645   3.760  0.2760  1.0182 -0.6680
  128OSM   C17F13718   2.986   1.694   3.903 -0.3395  0.4176  0.5197
  128OSM   H17F13719   3.057   1.755   3.963 -0.4222  0.3279  0.7059
  128OSM   H17G13720   2.996   1.591   3.942 -1.2119 -0.2893 -1.0321
  128OSM   C18F13721   2.847   1.746   3.931  0.6839  0.5379  0.7024
  128OSM   H18F13722   2.767   1.692   3.877  0.9055 -0.0969  1.0026
  128OSM   H18G13723   2.837   1.846   3.884 -0.1462 -0.6938 -1.9147
  128OSM   H18H13724   2.828   1.747   4.041  1.6356 -0.2889  0.8944
  129OSM      N13725   4.224   1.798   2.026  0.0644  0.2566 -0.9521
  129OSM    C1513726   4.167   1.660   1.984 -0.3205 -0.1439  0.0554
  129OSM   H15A13727   4.107   1.670   1.894  0.1500  1.6505 -0.0922
  129OSM   H15B13728   4.105   1.613   2.059 -3.4291  2.1155 -0.8760
  129OSM   H15C13729   4.256   1.602   1.962 -0.1768  0.1312 -0.0976
  129OSM    C1413730   4.299   1.870   1.921 -0.3373 -0.6458 -0.2457
  129OSM   H14A13731   4.232   1.896   1.840 -0.5534 -0.9500 -0.1659
  129OSM   H14B13732   4.382   1.816   1.878 -1.5112 -1.2948 -1.8237
  129OSM   H14C13733   4.333   1.964   1.961 -1.5317 -0.9298  1.5237
  129OSM    C1313734   4.097   1.875   2.062  0.3999 -0.1250 -0.4197
  129OSM   H13A13735   4.047   1.838   2.150 -0.4066  0.9593 -0.4028
  129OSM   H13B13736   4.032   1.861   1.977 -0.6267  0.3081  0.2678
  129OSM   H13C13737   4.119   1.980   2.075 -1.1742 -0.0170  2.1363
  129OSM    C1213738   4.310   1.782   2.151 -0.1611  0.4977 -0.5413
  129OSM   H12A13739   4.241   1.742   2.224  0.5822  0.1282 -0.0265
  129OSM   H12B13740   4.344   1.872   2.199 -0.8873 -0.8446  2.7555
  129OSM    C1113741   4.416   1.662   2.155 -0.3631 -0.4427 -0.1326
  129OSM   H11A13742   4.482   1.672   2.244 -2.7471 -0.3337  1.7541
  129OSM   H11B13743   4.468   1.690   2.061 -2.2006  1.7076 -0.5878
  129OSM      P13744   4.433   1.400   2.097  0.1619 -0.4950 -0.3510
  129OSM    O1313745   4.346   1.282   2.124  0.6787  0.1131 -0.3314
  129OSM    O1413746   4.470   1.411   1.958 -0.1826  0.4864  0.4543
  129OSM    O1113747   4.560   1.407   2.190  0.8240  0.0042  0.1236
  129OSM    O1213748   4.357   1.528   2.145 -1.0787  0.9848  0.4234
  129OSM    C1S13749   4.543   1.407   2.340 -0.0769  0.2768  0.2630
  129OSM    H1S13750   4.496   1.312   2.372 -2.9820  1.3777 -0.4357
  129OSM    H1T13751   4.472   1.488   2.368 -0.1667 -0.0163  0.8767
  129OSM     NF13752   4.658   1.422   2.559  0.2667 -0.1497 -0.0422
  129OSM    HNF13753   4.648   1.508   2.610  1.0261 -1.2193  2.0426
  129OSM    C2S13754   4.676   1.426   2.415 -0.1747 -0.8655  0.4583
  129OSM    H2S13755   4.744   1.346   2.377 -1.1219 -1.4551 -0.0202
  129OSM    C3S13756   4.750   1.565   2.359 -0.5860 -0.0860 -0.2815
  129OSM    H3S13757   4.681   1.647   2.389  1.7652  0.7773  3.5474
  129OSM     O313758   4.765   1.583   2.216 -0.1648 -0.5195 -0.2310
  129OSM    HO313759   4.698   1.527   2.176 -0.0560 -0.7141 -0.1432
  129OSM    C4S13760   4.870   1.604   2.448 -0.1678 -0.3308  0.8948
  129OSM    H4S13761   4.840   1.636   2.549 -0.0612  0.6577  0.6230
  129OSM    C5S13762   4.999   1.590   2.424 -0.5954  0.3133 -0.0765
  129OSM    H5S13763   5.028   1.530   2.337  1.5885  2.3280 -0.8769
  129OSM    C6S13764   5.120   1.620   2.516  0.0289  0.8660  0.4308
  129OSM    H6S13765   5.175   1.699   2.462 -0.8866  0.8861 -0.5026
  129OSM    H6T13766   5.181   1.527   2.526  1.7401  1.8439 -0.5916
  129OSM    C7S13767   5.107   1.685   2.657  0.7275  0.1869  1.0430
  129OSM    H7S13768   5.025   1.759   2.647 -1.8920 -2.5410  0.9719
  129OSM    H7T13769   5.209   1.725   2.676  1.4687  1.6331 -4.3425
  129OSM    C8S13770   5.068   1.570   2.760  1.2051  0.2107 -0.5979
  129OSM    H8S13771   5.160   1.539   2.813  0.4998  1.1062  1.2826
  129OSM    H8T13772   5.018   1.480   2.719 -2.3245  0.4259  2.6557
  129OSM    C9S13773   4.975   1.636   2.860  0.1784 -0.4222  0.6329
  129OSM    H9S13774   4.889   1.681   2.807 -0.8732 -1.5930  1.2886
  129OSM    H9T13775   5.025   1.724   2.906 -1.8449  0.7635  0.6881
  129OSM   C10S13776   4.922   1.545   2.968 -0.3218 -0.1197 -0.4478
  129OSM   H10S13777   5.002   1.513   3.039 -1.2810  0.5369  0.9854
  129OSM   H10T13778   4.870   1.461   2.917 -0.4164 -0.2303 -0.1725
  129OSM   C11S13779   4.827   1.629   3.058  0.0380  0.2199 -0.1457
  129OSM   H11S13780   4.739   1.672   3.006  1.2465  2.8970 -0.1214
  129OSM   H11T13781   4.887   1.713   3.100  0.7352 -0.1569 -0.3815
  129OSM   C12S13782   4.776   1.539   3.169  0.7661  0.3328  0.0606
  129OSM   H12S13783   4.768   1.433   3.135  2.9785  1.1533 -3.3998
  129OSM   H12T13784   4.673   1.575   3.190  1.2823  1.4899  0.6985
  129OSM   C13S13785   4.863   1.534   3.291 -0.1343 -0.0901 -0.1872
  129OSM   H13S13786   4.872   1.641   3.319 -1.0794  0.3905 -1.6201
  129OSM   H13T13787   4.961   1.489   3.264 -0.4302 -0.3513 -0.8423
  129OSM   C14S13788   4.804   1.451   3.402  0.3406  0.5283  0.1403
  129OSM   H14S13789   4.821   1.345   3.376 -1.9315  0.2386 -0.3819
  129OSM   H14T13790   4.696   1.473   3.415  0.2619  0.8492 -0.9517
  129OSM   C15S13791   4.870   1.482   3.533 -0.1018  0.0147 -1.0403
  129OSM   H15S13792   4.977   1.454   3.520 -0.3832 -0.3735 -2.7458
  129OSM   H15T13793   4.824   1.405   3.599  2.3243 -1.4923 -0.9397
  129OSM   C16S13794   4.858   1.619   3.594 -0.1386  0.7962  0.0427
  129OSM   H16S13795   4.758   1.663   3.572 -0.8270 -0.4233  0.6840
  129OSM   H16T13796   4.943   1.674   3.548  0.9744 -0.4158  0.5926
  129OSM   C17S13797   4.873   1.621   3.742  0.3872  0.9711  0.0482
  129OSM   H17S13798   4.831   1.527   3.785  3.4997 -0.2990  0.5263
  129OSM   H17T13799   4.824   1.714   3.778  0.4663  1.6318 -1.4891
  129OSM   C18S13800   5.016   1.627   3.786 -0.1174 -0.4205  0.1229
  129OSM   H18S13801   5.057   1.724   3.750 -0.0432 -0.2813  0.5780
  129OSM   H18T13802   5.071   1.541   3.743  1.1340  0.9275 -1.0884
  129OSM   H18U13803   5.027   1.634   3.896 -1.5083  0.0260  0.2546
  129OSM    C1F13804   4.649   1.309   2.627  0.1210  0.3670 -0.1907
  129OSM     OF13805   4.641   1.201   2.564  0.0871 -0.3632 -0.2673
  129OSM    C2F13806   4.644   1.323   2.777  0.0243  0.0735  0.3989
  129OSM    H2F13807   4.574   1.405   2.805 -1.4007 -1.2497  0.8951
  129OSM    H2G13808   4.740   1.368   2.808  0.4486  0.8191 -1.7988
  129OSM    C3F13809   4.591   1.195   2.852 -0.0416  0.3866 -0.4260
  129OSM    H3F13810   4.662   1.109   2.847  2.5828  2.4060 -0.1412
  129OSM    H3G13811   4.498   1.159   2.804  1.2833 -1.2746 -1.8802
  129OSM    C4F13812   4.561   1.220   2.995  0.1390  0.3864 -0.4423
  129OSM    H4F13813   4.494   1.308   3.006 -0.6625 -0.0048 -1.9143
  129OSM    H4G13814   4.659   1.233   3.044 -1.1051  1.9570  1.8086
  129OSM    C5F13815   4.498   1.102   3.067 -0.0020  0.0868  0.0660
  129OSM    H5F13816   4.579   1.029   3.087  0.3019  0.2052 -0.7142
  129OSM    H5G13817   4.413   1.054   3.013  0.2921 -0.8560  0.4167
  129OSM    C6F13818   4.440   1.138   3.208 -0.0496  0.5771 -0.2602
  129OSM    H6F13819   4.374   1.056   3.243  1.0449 -0.3451 -0.3167
  129OSM    H6G13820   4.374   1.227   3.196  1.1483  1.8215  1.8035
  129OSM    C7F13821   4.556   1.174   3.303 -0.0615  0.3354 -0.0493
  129OSM    H7F13822   4.606   1.270   3.281  2.0170 -0.4498  0.9902
  129OSM    H7G13823   4.633   1.094   3.301  1.3075  1.6289 -0.3209
  129OSM    C8F13824   4.506   1.180   3.455  0.1023  1.5273  0.3754
  129OSM    H8F13825   4.471   1.081   3.491  1.4783  1.3157  1.2133
  129OSM    H8G13826   4.422   1.250   3.470 -2.5161 -1.1630 -0.7651
  129OSM    C9F13827   4.608   1.217   3.554  0.1901  0.6069 -0.5811
  129OSM    H9F13828   4.711   1.197   3.522  0.1607 -1.3164  0.4150
  129OSM   C10F13829   4.587   1.279   3.679  0.1327  0.1043 -0.1567
  129OSM   H10F13830   4.669   1.307   3.746  0.5513  2.1423 -1.4304
  129OSM   C11F13831   4.448   1.297   3.743 -0.4312  0.4738  0.1052
  129OSM   H11F13832   4.374   1.225   3.703 -1.9043 -0.3270  3.8539
  129OSM   H11G13833   4.399   1.396   3.727 -2.7686 -0.5800  0.2855
  129OSM   C12F13834   4.439   1.263   3.889  0.1116 -0.4264  0.1265
  129OSM   H12F13835   4.335   1.263   3.929  0.3004  0.4516  0.6445
  129OSM   H12G13836   4.503   1.344   3.930  0.6787 -0.2416 -1.0625
  129OSM   C13F13837   4.516   1.132   3.936  0.2634  0.3830 -0.0750
  129OSM   H13F13838   4.621   1.115   3.902  0.7871 -2.2738  2.5198
  129OSM   H13G13839   4.454   1.049   3.897  0.9716 -0.0573 -0.2842
  129OSM   C14F13840   4.530   1.129   4.087  0.0504  0.1571  0.2553
  129OSM   H14F13841   4.425   1.126   4.122 -0.4769 -0.6718 -1.2714
  129OSM   H14G13842   4.583   1.219   4.127  0.9570 -0.1079 -0.3131
  129OSM   C15F13843   4.606   0.999   4.129  0.0433 -0.2906  0.5643
  129OSM   H15F13844   4.699   0.990   4.069  0.2509 -0.1612  0.8670
  129OSM   H15G13845   4.538   0.913   4.110  0.5650 -0.4281 -0.7915
  129OSM   C16F13846   4.646   0.987   4.281 -0.1216  0.0210 -0.6079
  129OSM   H16F13847   4.554   0.980   4.343 -0.1399 -0.2000 -0.6614
  129OSM   H16G13848   4.706   1.073   4.316  2.2282 -1.5611 -0.5410
  129OSM   C17F13849   4.726   0.861   4.307  0.3968  0.3224 -0.1758
  129OSM   H17F13850   4.670   0.770   4.278 -0.3486  0.2940  1.2555
  129OSM   H17G13851   4.735   0.853   4.418 -1.1266 -0.4504 -0.0772
  129OSM   C18F13852   4.871   0.863   4.256  1.3711  0.8552  0.0389
  129OSM   H18F13853   4.921   0.766   4.278  1.4021  1.0152  0.7105
  129OSM   H18G13854   4.937   0.941   4.298  1.8984  0.8737 -0.8054
  129OSM   H18H13855   4.864   0.867   4.145 -2.4309 -3.0675 -0.1419
  130OSM      N13856   4.504   2.708   1.924 -0.8012 -0.2747  0.1178
  130OSM    C1513857   4.549   2.788   1.814 -0.1749 -0.6136  0.2660
  130OSM   H15A13858   4.495   2.763   1.723 -0.8122 -0.9004  0.7190
  130OSM   H15B13859   4.655   2.782   1.795  0.2727  1.5860  1.7168
  130OSM   H15C13860   4.530   2.893   1.827  0.7699 -0.5169  0.9262
  130OSM    C1413861   4.363   2.741   1.947  0.2477 -0.5116 -1.1242
  130OSM   H14A13862   4.342   2.837   1.993 -1.1331 -1.4844  0.4254
  130OSM   H14B13863   4.313   2.677   2.019 -0.7554  1.2235 -0.2136
  130OSM   H14C13864   4.300   2.712   1.864 -0.6383  0.3618 -0.7755
  130OSM    C1313865   4.515   2.563   1.884  0.3517 -0.3323  0.1145
  130OSM   H13A13866   4.618   2.540   1.859  0.3658 -1.3376  1.0283
  130OSM   H13B13867   4.458   2.540   1.795 -0.3592  3.7247 -0.6487
  130OSM   H13C13868   4.497   2.498   1.968 -0.0583  4.1462  3.8877
  130OSM    C1213869   4.592   2.741   2.047  0.0669 -0.2241 -0.1857
  130OSM   H12A13870   4.697   2.742   2.020  0.2755  0.9781  0.5804
  130OSM   H12B13871   4.591   2.666   2.124  1.3012 -0.3938 -0.3080
  130OSM    C1113872   4.567   2.877   2.113 -0.4160 -0.6486 -0.3813
  130OSM   H11A13873   4.633   2.888   2.202 -1.7110  0.6844  0.4600
  130OSM   H11B13874   4.462   2.877   2.150 -0.0392 -0.9023  0.7171
  130OSM      P13875   4.723   3.037   1.983 -0.2253  0.2075  0.5183
  130OSM    O1313876   4.831   2.934   1.983 -0.2832 -0.4476  0.9323
  130OSM    O1413877   4.706   3.114   1.862 -0.0978  0.0312  0.3477
  130OSM    O1113878   4.748   3.140   2.105 -0.5271 -0.5013  1.0444
  130OSM    O1213879   4.582   2.978   2.014 -0.0968  0.1687 -0.0307
  130OSM    C1S13880   4.858   3.115   2.195 -0.0218  0.1988  0.3823
  130OSM    H1S13881   4.954   3.149   2.150  0.4958 -0.1609  1.1706
  130OSM    H1T13882   4.878   3.007   2.213  1.8444  0.5523  0.7380
  130OSM     NF13883   4.977   3.179   2.404  0.1171  0.0849  0.1552
  130OSM    HNF13884   4.981   3.092   2.454 -0.6698 -0.1142 -0.1134
  130OSM    C2S13885   4.849   3.186   2.334 -0.0480  0.2095 -0.6353
  130OSM    H2S13886   4.819   3.292   2.320  2.3537  1.2796  1.5911
  130OSM    C3S13887   4.734   3.108   2.407  0.4538  0.0582  0.1777
  130OSM    H3S13888   4.745   2.998   2.395  0.2141 -0.1002  1.3720
  130OSM     O313889   4.606   3.137   2.351  0.2669 -0.4994 -0.0335
  130OSM    HO313890   4.630   3.176   2.267  3.5464  0.2101  1.0960
  130OSM    C4S13891   4.739   3.144   2.548  0.6068  0.4756  0.1350
  130OSM    H4S13892   4.744   3.253   2.561  4.7709  0.3791  0.6396
  130OSM    C5S13893   4.749   3.060   2.653 -0.2224  0.1301 -0.4681
  130OSM    H5S13894   4.765   2.952   2.644  0.3654  0.1053  0.7381
  130OSM    C6S13895   4.766   3.116   2.798 -0.3250  0.5143  0.0323
  130OSM    H6S13896   4.732   3.039   2.871 -1.1638 -1.4763 -2.3172
  130OSM    H6T13897   4.698   3.203   2.813  0.2591  0.9848 -0.0249
  130OSM    C7S13898   4.901   3.170   2.823  0.3064 -0.4624 -0.5051
  130OSM    H7S13899   4.943   3.224   2.735  0.4212 -0.2856 -0.3446
  130OSM    H7T13900   4.969   3.084   2.841 -1.8340 -1.5434  3.9178
  130OSM    C8S13901   4.912   3.254   2.952 -0.2287  0.0419  0.1991
  130OSM    H8S13902   4.852   3.345   2.932 -0.3138 -0.5185 -2.5190
  130OSM    H8T13903   5.016   3.290   2.966  0.1622 -0.0413 -2.0952
  130OSM    C9S13904   4.855   3.193   3.076 -0.4515 -0.1593 -1.1867
  130OSM    H9S13905   4.887   3.087   3.083 -4.0367 -1.3288 -0.6759
  130OSM    H9T13906   4.744   3.189   3.074 -0.6928  2.4895  0.7403
  130OSM   C10S13907   4.897   3.273   3.208 -0.2693  0.4115  0.6486
  130OSM   H10S13908   4.855   3.374   3.222  0.6713  0.9683 -0.3905
  130OSM   H10T13909   5.002   3.302   3.187 -0.4075  1.1458  0.9638
  130OSM   C11S13910   4.881   3.192   3.337 -0.4063 -0.1040 -0.9346
  130OSM   H11S13911   4.946   3.102   3.339 -4.2785 -3.1961  1.0456
  130OSM   H11T13912   4.781   3.143   3.341 -1.4150  1.7428 -2.4509
  130OSM   C12S13913   4.917   3.280   3.459  0.1458  0.2563  0.2534
  130OSM   H12S13914   4.825   3.341   3.473  0.2786  0.4356  0.3485
  130OSM   H12T13915   5.003   3.345   3.431 -0.9278  1.4498 -0.3413
  130OSM   C13S13916   4.938   3.204   3.590  0.1159 -0.3251  1.0757
  130OSM   H13S13917   5.015   3.131   3.558  0.5124  0.0669  1.1230
  130OSM   H13T13918   4.847   3.148   3.620 -1.0306 -0.3377 -2.0200
  130OSM   C14S13919   5.000   3.297   3.698 -0.0277  0.1137  0.6314
  130OSM   H14S13920   4.940   3.389   3.708  0.2902  0.3013  0.8613
  130OSM   H14T13921   5.098   3.335   3.662  0.7334 -2.6267 -0.4945
  130OSM   C15S13922   4.997   3.235   3.836  0.3923  0.3196 -0.2116
  130OSM   H15S13923   5.054   3.139   3.842  0.8257  0.5670 -0.3522
  130OSM   H15T13924   4.892   3.207   3.862  0.1588  0.1790 -1.2693
  130OSM   C16S13925   5.058   3.330   3.946  0.2747  0.4473  0.2752
  130OSM   H16S13926   5.016   3.433   3.941  0.8733  0.6821 -0.1045
  130OSM   H16T13927   5.162   3.344   3.908 -0.5089  2.4353 -1.3476
  130OSM   C17S13928   5.062   3.271   4.091 -0.4510 -0.1278  0.2271
  130OSM   H17S13929   5.107   3.171   4.076  0.3222  0.1598  0.5853
  130OSM   H17T13930   4.954   3.256   4.113 -0.6721  1.2765  0.1726
  130OSM   C18S13931   5.151   3.333   4.195  0.1693  0.1651 -0.5706
  130OSM   H18S13932   5.160   3.274   4.289 -2.7440  1.5830  0.7196
  130OSM   H18T13933   5.124   3.439   4.209  0.5383  0.3787 -1.3865
  130OSM   H18U13934   5.255   3.342   4.156  0.7269  1.7075  1.1617
  130OSM    C1F13935   5.083   3.256   2.382 -0.6319  0.5372  0.2098
  130OSM     OF13936   5.084   3.344   2.292  0.6871 -0.0319 -0.4225
  130OSM    C2F13937   5.208   3.215   2.459 -0.4631 -0.1211 -0.1420
  130OSM    H2F13938   5.287   3.213   2.381 -1.7421 -1.2733 -1.4853
  130OSM    H2G13939   5.190   3.115   2.504  1.8914 -0.1343  0.9257
  130OSM    C3F13940   5.245   3.304   2.581 -0.5203 -0.5620  0.6442
  130OSM    H3F13941   5.188   3.276   2.673  1.1895  2.2317  2.7363
  130OSM    H3G13942   5.230   3.412   2.561  2.5282  0.0602  1.1668
  130OSM    C4F13943   5.398   3.303   2.612  0.1153  0.0333 -0.0947
  130OSM    H4F13944   5.448   3.335   2.519 -0.3550 -0.1884 -0.4275
  130OSM    H4G13945   5.430   3.199   2.632  1.1277  0.0275 -1.5854
  130OSM    C5F13946   5.434   3.399   2.729 -0.0086 -0.1817  0.4503
  130OSM    H5F13947   5.369   3.489   2.722 -0.0865 -0.2653  0.0457
  130OSM    H5G13948   5.540   3.433   2.731  0.1921 -0.7667  0.1386
  130OSM    C6F13949   5.412   3.332   2.870 -0.0239  0.2178  0.6620
  130OSM    H6F13950   5.450   3.228   2.866 -1.1080 -0.1550 -2.4281
  130OSM    H6G13951   5.301   3.330   2.882  0.0005 -0.4937  0.8396
  130OSM    C7F13952   5.466   3.414   2.986  0.0114  0.0530 -0.1702
  130OSM    H7F13953   5.448   3.523   2.989  1.0653  0.2096  1.5185
  130OSM    H7G13954   5.575   3.397   2.971  0.2132 -0.1107  1.3767
  130OSM    C8F13955   5.433   3.356   3.127  0.1445  0.4346  0.3040
  130OSM    H8F13956   5.495   3.419   3.195  2.4116 -1.6274  0.2895
  130OSM    H8G13957   5.477   3.256   3.144  0.7395  0.6657  0.1750
  130OSM    C9F13958   5.295   3.360   3.180  0.5835  0.4195  0.8256
  130OSM    H9F13959   5.233   3.281   3.136  0.6844  0.1773  1.1055
  130OSM   C10F13960   5.247   3.439   3.280  0.5384 -0.2706  0.2974
  130OSM   H10F13961   5.142   3.413   3.304  0.6126 -3.2869 -1.9350
  130OSM   C11F13962   5.304   3.546   3.365 -0.0425  0.3713  0.2581
  130OSM   H11F13963   5.247   3.634   3.329 -0.4331 -0.2164 -0.6280
  130OSM   H11G13964   5.414   3.565   3.358  0.0489  0.6713  2.1091
  130OSM   C12F13965   5.280   3.522   3.516  0.6911  0.4515  0.7596
  130OSM   H12F13966   5.346   3.449   3.568 -0.1731  1.6701  3.7685
  130OSM   H12G13967   5.180   3.476   3.527  1.1419 -0.1117  3.0421
  130OSM   C13F13968   5.271   3.645   3.608  0.0482 -0.1954  0.0542
  130OSM   H13F13969   5.212   3.727   3.561  0.4908  0.1989  0.1713
  130OSM   H13G13970   5.372   3.688   3.627  0.5366  0.0307 -2.6147
  130OSM   C14F13971   5.195   3.625   3.743 -0.7549 -0.3300 -1.1421
  130OSM   H14F13972   5.224   3.530   3.794 -2.8865  0.6315  2.2011
  130OSM   H14G13973   5.085   3.623   3.726 -1.2930 -0.7164  1.7932
  130OSM   C15F13974   5.220   3.749   3.835  0.9313  0.3212  0.5495
  130OSM   H15F13975   5.188   3.842   3.782 -1.0299 -1.1352 -1.0007
  130OSM   H15G13976   5.330   3.748   3.852  1.1559 -1.2137 -0.6532
  130OSM   C16F13977   5.151   3.749   3.978  0.4611  0.8675  0.2189
  130OSM   H16F13978   5.179   3.647   4.014  0.7271  0.2795 -1.5367
  130OSM   H16G13979   5.040   3.755   3.974  0.4292  0.4050  0.3062
  130OSM   C17F13980   5.201   3.856   4.068 -0.6891 -0.4136 -0.5263
  130OSM   H17F13981   5.312   3.858   4.064 -0.7132 -0.3951 -1.3147
  130OSM   H17G13982   5.171   3.833   4.173  0.3144 -0.2685 -0.2031
  130OSM   C18F13983   5.146   3.996   4.033  0.2227 -0.6348  0.3707
  130OSM   H18F13984   5.229   4.070   4.032 -0.3217 -0.0287 -0.8756
  130OSM   H18G13985   5.072   4.038   4.104 -0.8383  0.5177 -1.3771
  130OSM   H18H13986   5.121   3.989   3.926 -0.2181 -0.6069  0.4727
  131OSM      N13987   2.336   2.321   1.681 -0.4392  0.3514 -0.3108
  131OSM    C1513988   2.198   2.286   1.689  0.9488  0.2909 -0.3356
  131OSM   H15A13989   2.159   2.190   1.660 -2.4358  1.7240 -1.0789
  131OSM   H15B13990   2.132   2.351   1.632 -2.4521 -2.0108  0.6600
  131OSM   H15C13991   2.170   2.300   1.792  1.3033  0.3190 -0.2433
  131OSM    C1413992   2.371   2.312   1.537 -0.4619 -0.0904  0.8301
  131OSM   H14A13993   2.464   2.363   1.515 -0.7021 -0.5402 -1.5688
  131OSM   H14B13994   2.298   2.367   1.481 -0.1848  2.4152  2.7840
  131OSM   H14C13995   2.361   2.211   1.499  0.6442  0.4543 -1.0389
  131OSM    C1313996   2.372   2.453   1.732 -0.0219 -0.7126  0.3371
  131OSM   H13A13997   2.310   2.524   1.681  2.1577  0.2686 -1.0691
  131OSM   H13B13998   2.475   2.485   1.732 -0.5486  1.1372  1.2401
  131OSM   H13C13999   2.337   2.460   1.835  0.1795  0.2604  0.3479
  131OSM    C1214000   2.422   2.226   1.761 -0.2704 -0.2316  0.1596
  131OSM   H12A14001   2.517   2.272   1.785 -0.0208 -1.2611  1.2304
  131OSM   H12B14002   2.432   2.134   1.705  0.1859  0.1356 -0.3714
  131OSM    C1114003   2.372   2.184   1.905 -1.1407  0.5885 -0.5726
  131OSM   H11A14004   2.445   2.109   1.943 -0.9988  0.9767 -0.0706
  131OSM   H11B14005   2.285   2.115   1.900 -1.3017  0.2766  3.5230
  131OSM      P14006   2.228   2.301   2.094  0.2163  0.0460  0.5067
  131OSM    O1314007   2.247   2.412   2.191  0.2079  0.3473  0.6325
  131OSM    O1414008   2.108   2.308   2.009  0.1109  0.4783 -0.7687
  131OSM    O1114009   2.234   2.165   2.170 -0.0330 -0.2691 -0.3701
  131OSM    O1214010   2.349   2.288   2.000 -0.1418 -0.0118 -0.4374
  131OSM    C1S14011   2.350   2.144   2.260  0.2789 -0.3792  0.8107
  131OSM    H1S14012   2.443   2.184   2.214  1.1133 -0.8120  2.0548
  131OSM    H1T14013   2.374   2.035   2.270  1.6753 -0.2448 -0.6015
  131OSM     NF14014   2.451   2.198   2.473 -0.3026 -0.2896  0.7130
  131OSM    HNF14015   2.463   2.146   2.558 -0.5793 -0.0560  0.8984
  131OSM    C2S14016   2.320   2.204   2.402  0.3370  0.6705 -0.4671
  131OSM    H2S14017   2.276   2.306   2.397 -1.8736 -0.1251  1.1160
  131OSM    C3S14018   2.202   2.134   2.473 -0.3318  0.2310  0.2500
  131OSM    H3S14019   2.221   2.026   2.486 -1.7718  0.2119  2.7643
  131OSM     O314020   2.088   2.130   2.388 -0.4247  0.0317 -0.4062
  131OSM    HO314021   2.125   2.179   2.315 -0.3052  1.4361  0.5719
  131OSM    C4S14022   2.176   2.196   2.611  0.3172 -0.2691  0.3004
  131OSM    H4S14023   2.148   2.303   2.614 -2.0987 -0.8452  1.3728
  131OSM    C5S14024   2.192   2.131   2.730  0.2475  0.1329  0.2531
  131OSM    H5S14025   2.225   2.026   2.729 -3.1741 -1.2106 -4.0386
  131OSM    C6S14026   2.163   2.204   2.863  0.2681  0.8518  0.1094
  131OSM    H6S14027   2.073   2.159   2.909  0.4495 -0.0905 -0.4332
  131OSM    H6T14028   2.128   2.308   2.841 -1.0946  0.6186  1.0509
  131OSM    C7S14029   2.283   2.190   2.961 -0.6654 -0.1893 -0.1905
  131OSM    H7S14030   2.363   2.213   2.887  0.1665  1.5244  1.1818
  131OSM    H7T14031   2.301   2.086   2.995  2.9810  0.7728  1.2079
  131OSM    C8S14032   2.274   2.289   3.086  0.5597  0.4424  0.6048
  131OSM    H8S14033   2.205   2.373   3.064  0.0011 -0.3506 -0.8182
  131OSM    H8T14034   2.377   2.326   3.103  0.4315  0.6844  0.8655
  131OSM    C9S14035   2.211   2.224   3.209  0.2073 -0.0012  0.4656
  131OSM    H9S14036   2.252   2.123   3.229  0.6159  0.0026 -0.3066
  131OSM    H9T14037   2.100   2.229   3.203  0.2309 -0.8016 -2.6533
  131OSM   C10S14038   2.237   2.322   3.329  0.8317  0.1470 -0.5884
  131OSM   H10S14039   2.204   2.427   3.313 -1.1885  0.2019  2.9076
  131OSM   H10T14040   2.346   2.327   3.351  0.3109 -0.8611  2.7195
  131OSM   C11S14041   2.178   2.274   3.462 -0.6763  0.8506 -0.5374
  131OSM   H11S14042   2.217   2.176   3.498 -4.2566 -0.0196  1.3903
  131OSM   H11T14043   2.068   2.266   3.457 -0.7666 -0.6748  2.2843
  131OSM   C12S14044   2.212   2.370   3.581 -0.0290 -0.2967 -0.0195
  131OSM   H12S14045   2.162   2.468   3.563  0.8530 -0.3039 -3.0719
  131OSM   H12T14046   2.323   2.368   3.586  0.0656 -2.8605 -1.2319
  131OSM   C13S14047   2.160   2.312   3.714 -0.6397 -0.2463 -0.7515
  131OSM   H13S14048   2.240   2.243   3.750 -0.6450  0.1217 -0.0122
  131OSM   H13T14049   2.073   2.244   3.702 -0.6033 -0.8454  1.6835
  131OSM   C14S14050   2.141   2.415   3.824 -0.2031  0.3783  0.2691
  131OSM   H14S14051   2.074   2.491   3.777  1.7416  0.6131 -2.3491
  131OSM   H14T14052   2.236   2.463   3.853  1.0731 -0.7937 -1.7421
  131OSM   C15S14053   2.075   2.364   3.955 -0.4853  0.3542 -0.2746
  131OSM   H15S14054   2.155   2.315   4.014 -0.7609 -0.1039 -0.2714
  131OSM   H15T14055   1.993   2.292   3.934 -0.2059 -0.4817  1.3156
  131OSM   C16S14056   2.028   2.480   4.038 -0.5742  0.1637  0.2186
  131OSM   H16S14057   1.934   2.524   3.998 -1.3625 -2.0548 -0.5034
  131OSM   H16T14058   2.101   2.562   4.023 -0.5417  0.5484  2.2085
  131OSM   C17S14059   2.016   2.453   4.189  0.4966  0.0728 -0.3770
  131OSM   H17S14060   2.091   2.375   4.214  0.3342  0.4569  1.3926
  131OSM   H17T14061   1.922   2.400   4.215  2.1686 -2.9359 -0.0521
  131OSM   C18S14062   2.039   2.574   4.280 -0.0876 -0.0032 -0.0564
  131OSM   H18S14063   2.146   2.604   4.280  0.0110 -0.3439  0.0507
  131OSM   H18T14064   2.020   2.536   4.382 -0.9388  0.0137 -0.2039
  131OSM   H18U14065   1.984   2.668   4.260  0.6103  0.6925  1.2088
  131OSM    C1F14066   2.531   2.294   2.445 -0.6747 -0.1978  0.2243
  131OSM     OF14067   2.513   2.374   2.354  0.0902 -0.2335  0.6262
  131OSM    C2F14068   2.652   2.309   2.533  0.1460  0.1079  0.3990
  131OSM    H2F14069   2.736   2.248   2.493  0.7914  0.4690  1.1675
  131OSM    H2G14070   2.631   2.274   2.637 -0.8119 -0.0824  0.1497
  131OSM    C3F14071   2.712   2.453   2.540 -0.4451  0.1562 -0.2812
  131OSM    H3F14072   2.629   2.515   2.579 -1.0384 -0.8146  0.0386
  131OSM    H3G14073   2.732   2.470   2.432 -1.5946 -0.9178 -0.6885
  131OSM    C4F14074   2.823   2.479   2.640 -0.4183  0.0873  0.0353
  131OSM    H4F14075   2.854   2.586   2.644 -0.1441 -0.0010  0.2869
  131OSM    H4G14076   2.914   2.426   2.604 -1.0706 -0.5310 -0.7348
  131OSM    C5F14077   2.794   2.431   2.780  0.1724 -0.2197  0.1614
  131OSM    H5F14078   2.887   2.442   2.840  1.4101  2.3892 -2.0300
  131OSM    H5G14079   2.776   2.321   2.781 -0.2072 -0.1743  1.7059
  131OSM    C6F14080   2.675   2.501   2.852 -0.6842 -0.9417  0.5773
  131OSM    H6F14081   2.599   2.498   2.771  1.5694  0.0642 -1.6941
  131OSM    H6G14082   2.705   2.606   2.871 -1.9797 -0.3743 -0.3495
  131OSM    C7F14083   2.640   2.434   2.985  0.5096 -0.6924 -0.3823
  131OSM    H7F14084   2.639   2.323   2.992 -1.9862 -0.6400  1.9517
  131OSM    H7G14085   2.541   2.470   3.020  0.9777  1.4982 -1.1787
  131OSM    C8F14086   2.738   2.473   3.099 -0.0034 -0.3998 -0.2549
  131OSM    H8F14087   2.718   2.580   3.120  1.6440 -0.0249 -0.4999
  131OSM    H8G14088   2.841   2.478   3.058 -0.2111 -1.8554 -1.0323
  131OSM    C9F14089   2.729   2.397   3.228 -0.2494 -0.1531  0.1894
  131OSM    H9F14090   2.754   2.292   3.205  0.9585 -0.0138  0.7767
  131OSM   C10F14091   2.690   2.444   3.348 -0.0930  0.1156 -0.3445
  131OSM   H10F14092   2.692   2.385   3.441 -1.1849 -0.3549 -0.6028
  131OSM   C11F14093   2.637   2.587   3.377  0.5026  0.5674  0.1880
  131OSM   H11F14094   2.559   2.609   3.300 -0.2995 -2.3385  0.0740
  131OSM   H11G14095   2.718   2.662   3.362 -1.6554  2.7415 -1.5345
  131OSM   C12F14096   2.570   2.585   3.516  0.1252 -0.7371  0.0863
  131OSM   H12F14097   2.482   2.518   3.505  0.1978 -1.1876  1.9488
  131OSM   H12G14098   2.531   2.688   3.531  2.5411  0.3353 -0.4959
  131OSM   C13F14099   2.652   2.561   3.645 -0.5451  0.4164 -0.5091
  131OSM   H13F14100   2.714   2.652   3.663  0.6101 -0.4177 -0.2206
  131OSM   H13G14101   2.720   2.474   3.634 -0.4132  0.7041 -2.1786
  131OSM   C14F14102   2.553   2.554   3.769  0.1061 -0.2067  0.6380
  131OSM   H14F14103   2.480   2.471   3.770 -1.1394  0.8457  1.8092
  131OSM   H14G14104   2.496   2.649   3.772  1.0425  0.3730  3.8913
  131OSM   C15F14105   2.648   2.548   3.884  0.6111 -0.1221  0.1837
  131OSM   H15F14106   2.724   2.627   3.869 -0.2151  0.9533  1.4506
  131OSM   H15G14107   2.689   2.445   3.894  1.3895  0.2064  0.4029
  131OSM   C16F14108   2.591   2.596   4.017  0.3016  0.1804 -0.1621
  131OSM   H16F14109   2.541   2.695   4.006 -2.3971 -0.7825  2.2541
  131OSM   H16G14110   2.674   2.621   4.087 -0.8969  0.8209  1.0667
  131OSM   C17F14111   2.492   2.491   4.079 -0.0428 -0.1352  0.2994
  131OSM   H17F14112   2.540   2.392   4.095 -0.7367 -0.1681  2.4155
  131OSM   H17G14113   2.400   2.513   4.021  0.5325  3.1037  0.4159
  131OSM   C18F14114   2.452   2.536   4.222 -0.0153  0.2588 -0.6739
  131OSM   H18F14115   2.444   2.646   4.232 -2.6022  0.0556  0.6099
  131OSM   H18G14116   2.540   2.508   4.284  0.5855  0.8026 -1.2801
  131OSM   H18H14117   2.369   2.475   4.265 -0.7994  1.9588  0.3408
  132OSM      N14118   1.621   2.554   2.096 -0.2188  0.3622  0.1060
  132OSM    C1514119   1.639   2.428   2.025 -0.2202  0.2496  0.9462
  132OSM   H15A14120   1.595   2.412   1.928 -0.8125  1.2503  1.0323
  132OSM   H15B14121   1.603   2.350   2.091 -0.4940  0.9230  1.6108
  132OSM   H15C14122   1.746   2.417   2.012 -0.4790 -0.6734 -0.5923
  132OSM    C1414123   1.663   2.668   2.010 -0.3403 -0.6102  0.2214
  132OSM   H14A14124   1.761   2.650   1.968  1.0811  2.8144  1.7080
  132OSM   H14B14125   1.667   2.757   2.070 -0.7495  0.2901 -1.0320
  132OSM   H14C14126   1.605   2.690   1.921  1.2933 -0.0631 -0.7567
  132OSM    C1314127   1.478   2.568   2.128  0.1052 -0.1549 -0.0212
  132OSM   H13A14128   1.445   2.496   2.201  1.3204 -0.0179  0.6979
  132OSM   H13B14129   1.405   2.557   2.050 -0.0540 -0.5514  0.1832
  132OSM   H13C14130   1.462   2.661   2.180  0.4837 -0.1929  0.1655
  132OSM    C1214131   1.715   2.546   2.211 -0.0855  0.1173 -0.5024
  132OSM   H12A14132   1.820   2.557   2.186  0.4012  1.0973  1.7043
  132OSM   H12B14133   1.701   2.453   2.264 -2.4311 -0.5903 -2.2090
  132OSM    C1114134   1.695   2.659   2.324 -0.2845  0.0732  0.6611
  132OSM   H11A14135   1.766   2.644   2.408  0.3472  0.0595  0.1341
  132OSM   H11B14136   1.595   2.648   2.371 -0.7516  0.3660 -0.2331
  132OSM      P14137   1.859   2.870   2.286  0.0946 -0.2566 -0.2309
  132OSM    O1314138   1.965   2.777   2.312  0.5822  0.7032 -0.4591
  132OSM    O1414139   1.877   2.958   2.167  1.0963 -0.3955  0.1213
  132OSM    O1114140   1.846   2.973   2.412 -1.0393 -0.4515  0.4695
  132OSM    O1214141   1.721   2.795   2.270 -0.2541  0.4512  0.3838
  132OSM    C1S14142   1.812   2.938   2.545  0.8515 -0.0409  0.4781
  132OSM    H1S14143   1.782   2.832   2.560 -0.6443  0.1341 -0.9334
  132OSM    H1T14144   1.723   3.000   2.570  0.8960  0.8740 -1.4817
  132OSM     NF14145   1.904   2.954   2.775 -0.1088  0.9150 -0.3584
  132OSM    HNF14146   1.905   3.030   2.839 -0.6604  0.7092 -0.0995
  132OSM    C2S14147   1.939   2.977   2.638 -0.0040  1.0389 -0.1727
  132OSM    H2S14148   2.023   2.911   2.610  0.7636  1.0866  1.8807
  132OSM    C3S14149   1.985   3.123   2.614 -0.3722  0.1111  0.1259
  132OSM    H3S14150   1.904   3.198   2.621 -0.7345  0.0151 -2.3537
  132OSM     O314151   2.057   3.140   2.490  0.3729  0.0199 -0.3936
  132OSM    HO314152   2.013   3.088   2.423  1.5808  0.2105 -1.3762
  132OSM    C4S14153   2.085   3.161   2.726  0.1870 -0.1918  0.0740
  132OSM    H4S14154   2.049   3.230   2.804  4.1941  0.3174  1.6727
  132OSM    C5S14155   2.211   3.121   2.736 -0.0912 -0.0351 -0.6830
  132OSM    H5S14156   2.256   3.066   2.652 -4.0628  2.1437 -4.6894
  132OSM    C6S14157   2.300   3.145   2.856  0.4067 -0.2753  0.0472
  132OSM    H6S14158   2.384   3.213   2.831  0.2835 -0.1912 -0.1393
  132OSM    H6T14159   2.351   3.051   2.886  2.5527  0.6619 -0.4720
  132OSM    C7S14160   2.225   3.194   2.972 -0.3882 -0.1465 -0.6018
  132OSM    H7S14161   2.156   3.113   3.003  0.8377 -1.3682 -0.9678
  132OSM    H7T14162   2.165   3.287   2.960 -2.1490 -0.7797  2.2753
  132OSM    C8S14163   2.318   3.234   3.088 -0.7317 -0.0347 -0.5058
  132OSM    H8S14164   2.369   3.330   3.064 -1.0016  0.3519  0.4506
  132OSM    H8T14165   2.394   3.153   3.086  0.3032  0.8689  0.6971
  132OSM    C9S14166   2.251   3.233   3.225  0.1339 -1.4499  0.5344
  132OSM    H9S14167   2.186   3.144   3.238 -1.5556 -0.2806  0.4396
  132OSM    H9T14168   2.188   3.324   3.234  1.3211 -0.3860 -1.2710
  132OSM   C10S14169   2.352   3.230   3.338 -0.2847 -0.0865 -0.3178
  132OSM   H10S14170   2.298   3.257   3.431  1.2422  1.6996  0.1151
  132OSM   H10T14171   2.418   3.319   3.333 -1.1039  0.6502  1.1138
  132OSM   C11S14172   2.436   3.103   3.359  0.2331 -0.4402 -0.8030
  132OSM   H11S14173   2.523   3.115   3.291  2.5041  0.4557  2.0755
  132OSM   H11T14174   2.373   3.025   3.311 -1.1785  0.6418 -0.8005
  132OSM   C12S14175   2.490   3.061   3.490 -0.0438  0.0290 -0.3854
  132OSM   H12S14176   2.556   2.973   3.473  1.4748  1.1634 -0.5510
  132OSM   H12T14177   2.399   3.037   3.550 -0.5992  2.2957 -0.2193
  132OSM   C13S14178   2.561   3.174   3.572  0.6880  1.0954 -0.5469
  132OSM   H13S14179   2.493   3.261   3.577  1.2840  1.5769 -0.7662
  132OSM   H13T14180   2.660   3.196   3.528  1.0534  0.5840 -0.0017
  132OSM   C14S14181   2.591   3.121   3.714  0.4751  0.7434  0.2361
  132OSM   H14S14182   2.679   3.054   3.718 -0.9981 -1.2660  0.4470
  132OSM   H14T14183   2.498   3.064   3.735  1.6339 -0.4158  2.6250
  132OSM   C15S14184   2.602   3.230   3.821  0.9494  0.0208  0.1856
  132OSM   H15S14185   2.513   3.296   3.817  0.6537 -0.3514  0.5416
  132OSM   H15T14186   2.692   3.294   3.808  0.2338  0.7273 -1.7018
  132OSM   C16S14187   2.606   3.182   3.967  0.0989  0.2157  0.2819
  132OSM   H16S14188   2.677   3.099   3.983  1.0199  0.4008 -2.3486
  132OSM   H16T14189   2.502   3.152   3.992 -0.5943  2.6894  0.7216
  132OSM   C17S14190   2.641   3.292   4.070  0.4903  0.5705  0.0983
  132OSM   H17S14191   2.748   3.310   4.051  1.2266 -3.4376 -0.4581
  132OSM   H17T14192   2.648   3.250   4.173  0.1751  2.7610  1.0855
  132OSM   C18S14193   2.544   3.408   4.077 -0.1453  0.3588  1.5347
  132OSM   H18S14194   2.441   3.370   4.092  0.2175 -1.7572 -0.7377
  132OSM   H18T14195   2.531   3.465   3.983 -1.8542  1.4807  2.4005
  132OSM   H18U14196   2.576   3.472   4.163  2.7328 -0.6278  1.3141
  132OSM    C1F14197   1.902   2.827   2.821  0.2599  0.4225 -0.2847
  132OSM     OF14198   1.919   2.746   2.739  0.2513 -0.3961  0.3529
  132OSM    C2F14199   1.893   2.803   2.971  0.0839  0.7623  0.1121
  132OSM    H2F14200   1.821   2.867   3.026 -0.3410 -0.0753  0.5587
  132OSM    H2G14201   1.989   2.832   3.019 -0.9552  2.7288  1.1340
  132OSM    C3F14202   1.846   2.655   2.994  0.2281 -0.4380 -0.5011
  132OSM    H3F14203   1.923   2.589   2.948  2.0638  1.2312 -0.0026
  132OSM    H3G14204   1.747   2.642   2.946 -0.0939 -1.8304  0.4528
  132OSM    C4F14205   1.831   2.621   3.149  0.5821  0.2904  0.0400
  132OSM    H4F14206   1.732   2.663   3.177  0.7546  0.8471 -0.1879
  132OSM    H4G14207   1.896   2.678   3.218  0.9792  2.6593 -2.1605
  132OSM    C5F14208   1.844   2.468   3.173 -0.0494 -1.1925 -0.9676
  132OSM    H5F14209   1.952   2.445   3.158 -0.0184 -0.0461 -2.7281
  132OSM    H5G14210   1.781   2.420   3.096 -0.3841 -0.4105 -1.1903
  132OSM    C6F14211   1.806   2.416   3.304  0.2097 -0.5379 -0.3563
  132OSM    H6F14212   1.847   2.313   3.315  2.0914  0.3203  1.6203
  132OSM    H6G14213   1.697   2.398   3.312  0.7155 -3.6621  1.2844
  132OSM    C7F14214   1.859   2.495   3.418 -0.7834 -0.0243 -0.4699
  132OSM    H7F14215   1.800   2.590   3.420 -2.8819 -1.2390 -1.2689
  132OSM    H7G14216   1.963   2.513   3.385 -0.5918 -1.5072 -0.7243
  132OSM    C8F14217   1.852   2.421   3.557  0.4374  0.3323  0.5780
  132OSM    H8F14218   1.897   2.497   3.624  1.8409  1.2102 -1.2961
  132OSM    H8G14219   1.908   2.325   3.554 -1.6626 -1.0024  1.1302
  132OSM    C9F14220   1.705   2.388   3.590 -0.3648  0.1883  0.3435
  132OSM    H9F14221   1.667   2.314   3.518  0.2022 -2.5673  2.6882
  132OSM   C10F14222   1.624   2.432   3.682  0.4194  0.0072 -0.9782
  132OSM   H10F14223   1.520   2.396   3.677 -0.5099  2.3950 -0.1886
  132OSM   C11F14224   1.651   2.524   3.803  0.6324 -0.7772  0.6380
  132OSM   H11F14225   1.620   2.627   3.775 -1.2420 -1.2521  0.7944
  132OSM   H11G14226   1.761   2.532   3.817  0.5963 -0.1040  0.5643
  132OSM   C12F14227   1.596   2.484   3.945 -0.9252 -0.4091  0.4580
  132OSM   H12F14228   1.485   2.480   3.944 -1.1281  2.6898 -1.2314
  132OSM   H12G14229   1.618   2.569   4.013 -4.3121  1.6379 -0.7658
  132OSM   C13F14230   1.648   2.351   3.990 -0.4598 -0.0884 -0.7599
  132OSM   H13F14231   1.757   2.367   4.001 -0.8123  1.8888  0.4021
  132OSM   H13G14232   1.627   2.268   3.919 -0.6475 -1.5120  0.8892
  132OSM   C14F14233   1.581   2.316   4.125  0.0947  0.1233 -0.2660
  132OSM   H14F14234   1.477   2.278   4.118 -0.1718  1.0734 -2.1995
  132OSM   H14G14235   1.584   2.403   4.194 -1.3255  0.6938 -0.8902
  132OSM   C15F14236   1.667   2.211   4.197  0.1402 -0.2416 -0.2337
  132OSM   H15F14237   1.774   2.232   4.181  0.2870  0.0575  1.0283
  132OSM   H15G14238   1.640   2.114   4.149  0.1442  0.4183 -1.6054
  132OSM   C16F14239   1.629   2.211   4.345  0.6714 -0.2650  0.1454
  132OSM   H16F14240   1.525   2.184   4.371  0.6025  1.4933  1.9866
  132OSM   H16G14241   1.646   2.313   4.387  0.5595 -0.0255 -0.3737
  132OSM   C17F14242   1.715   2.110   4.423 -0.3854 -1.1549  0.2411
  132OSM   H17F14243   1.819   2.148   4.433 -0.7748 -0.4493  2.3404
  132OSM   H17G14244   1.719   2.011   4.374  0.3881 -0.8536 -0.3330
  132OSM   C18F14245   1.658   2.105   4.558  0.0505 -0.9317  0.7259
  132OSM   H18F14246   1.548   2.090   4.560  0.1091 -1.5495 -0.2303
  132OSM   H18G14247   1.674   2.206   4.603 -1.5852  0.7434 -2.1254
  132OSM   H18H14248   1.705   2.024   4.618  1.5439 -1.3458 -0.9126
  133OSM      N14249   0.283   0.559   1.999 -0.5875  0.2356 -0.2805
  133OSM    C1514250   0.376   0.676   2.002  0.4021 -0.5801 -0.9033
  133OSM   H15A14251   0.473   0.652   2.042  0.3367  1.1836  0.4321
  133OSM   H15B14252   0.333   0.757   2.059 -0.0027 -1.3572 -0.0822
  133OSM   H15C14253   0.388   0.719   1.904  1.3546  0.9357 -0.1654
  133OSM    C1414254   0.154   0.610   1.948  0.0316  0.0715  0.5714
  133OSM   H14A14255   0.114   0.681   2.018  1.7059  0.1953  1.4519
  133OSM   H14B14256   0.088   0.528   1.924 -0.2908  0.2072  0.9804
  133OSM   H14C14257   0.161   0.665   1.855  0.3365 -0.7521  0.0924
  133OSM    C1314258   0.343   0.457   1.905  0.4029  0.1248 -1.0047
  133OSM   H13A14259   0.442   0.428   1.937  1.2021  2.0728 -1.5923
  133OSM   H13B14260   0.352   0.495   1.804  0.1365  0.4313 -0.9142
  133OSM   H13C14261   0.293   0.362   1.907  0.6512 -0.0385  1.4600
  133OSM    C1214262   0.256   0.488   2.136  0.4010 -0.1138 -0.6758
  133OSM   H12A14263   0.344   0.446   2.184 -0.2034 -0.8636 -0.1802
  133OSM   H12B14264   0.198   0.403   2.105  1.0238 -0.2125 -1.5864
  133OSM    C1114265   0.189   0.570   2.252 -0.2345  0.2712  0.4929
  133OSM   H11A14266   0.254   0.661   2.250 -0.2651  0.3441 -2.3780
  133OSM   H11B14267   0.202   0.515   2.347 -1.2791 -0.3832  0.2622
  133OSM      P14268  -0.060   0.469   2.255 -0.0372  0.2361  0.1164
  133OSM    O1314269  -0.199   0.525   2.235 -0.3653  0.1062 -0.2116
  133OSM    O1414270  -0.008   0.357   2.168 -0.0334 -0.4003 -0.0085
  133OSM    O1114271  -0.035   0.430   2.408 -0.4476 -0.0887 -0.5138
  133OSM    O1214272   0.043   0.592   2.235 -0.0762  0.3775  0.3181
  133OSM    C1S14273  -0.063   0.530   2.501 -0.7732  0.1889 -0.3662
  133OSM    H1S14274  -0.170   0.560   2.497 -0.6428  1.0834  1.7403
  133OSM    H1T14275  -0.001   0.622   2.500 -0.5472  0.0486  0.2380
  133OSM     NF14276  -0.127   0.532   2.739  0.5396 -0.3601 -1.3385
  133OSM    HNF14277  -0.080   0.584   2.810 -0.8418  0.6729 -1.1297
  133OSM    C2S14278  -0.051   0.459   2.636 -0.2564 -0.6685  0.1445
  133OSM    H2S14279  -0.102   0.360   2.641  0.6773 -1.0814  2.3586
  133OSM    C3S14280   0.100   0.431   2.678  0.9030  0.2134 -0.0409
  133OSM    H3S14281   0.151   0.530   2.677  1.0878  0.1155 -0.9237
  133OSM     O314282   0.172   0.350   2.582  0.1427  0.1388  0.3911
  133OSM    HO314283   0.116   0.347   2.503  1.8150 -1.4266 -0.8245
  133OSM    C4S14284   0.114   0.375   2.818  0.6467  0.3733 -0.0331
  133OSM    H4S14285   0.136   0.452   2.893  0.8956 -0.0872  0.3692
  133OSM    C5S14286   0.125   0.241   2.844 -0.3943 -0.3821 -0.1681
  133OSM    H5S14287   0.120   0.165   2.764 -3.0477 -0.1570 -0.3064
  133OSM    C6S14288   0.138   0.195   2.987 -0.5558 -0.6003  0.3917
  133OSM    H6S14289   0.229   0.240   3.031 -0.4860  1.2689 -1.4905
  133OSM    H6T14290   0.146   0.085   2.999 -1.7047 -0.8409 -0.7823
  133OSM    C7S14291   0.023   0.232   3.081  0.0323 -0.4565  0.4356
  133OSM    H7S14292  -0.070   0.194   3.035 -0.0729 -0.2207  0.4504
  133OSM    H7T14293   0.018   0.343   3.090 -0.7463 -0.0221 -3.4323
  133OSM    C8S14294   0.051   0.180   3.219  0.7506  0.9559 -0.3879
  133OSM    H8S14295   0.146   0.224   3.258  0.5584  3.2832 -2.3277
  133OSM    H8T14296   0.059   0.070   3.208  0.2572  1.0530 -1.8899
  133OSM    C9S14297  -0.066   0.200   3.313  0.3030  0.4291 -0.1808
  133OSM    H9S14298  -0.159   0.171   3.260  0.1266  1.5516 -0.5207
  133OSM    H9T14299  -0.085   0.305   3.346 -1.0444  0.4962 -1.0654
  133OSM   C10S14300  -0.033   0.110   3.438 -0.1056  0.4690 -0.3981
  133OSM   H10S14301   0.043   0.160   3.501 -1.4179  0.9689  0.8380
  133OSM   H10T14302   0.007   0.009   3.414  0.3932  0.7733 -0.8553
  133OSM   C11S14303  -0.148   0.097   3.536 -0.0604  0.4134  0.0822
  133OSM   H11S14304  -0.138   0.022   3.617 -1.5642  0.8599  0.7159
  133OSM   H11T14305  -0.238   0.066   3.478 -0.5871 -1.8922  1.9713
  133OSM   C12S14306  -0.174   0.227   3.606 -0.3112  0.5260 -0.1872
  133OSM   H12S14307  -0.201   0.296   3.524 -0.1582  1.3652  0.4456
  133OSM   H12T14308  -0.080   0.266   3.652 -1.0310 -0.8956  2.7101
  133OSM   C13S14309  -0.286   0.211   3.711  0.3487 -0.7080  0.2194
  133OSM   H13S14310  -0.272   0.137   3.792  0.5597 -0.2992  0.5634
  133OSM   H13T14311  -0.381   0.179   3.665  0.1157 -1.6489  1.3213
  133OSM   C14S14312  -0.317   0.347   3.791 -0.0037  0.6745  0.3500
  133OSM   H14S14313  -0.342   0.417   3.709  0.4253 -1.9829 -2.2244
  133OSM   H14T14314  -0.229   0.369   3.856 -0.0087 -0.3083  0.7111
  133OSM   C15S14315  -0.431   0.318   3.888 -0.1691 -0.4136  0.1242
  133OSM   H15S14316  -0.395   0.246   3.965 -0.3331 -0.1321  0.4695
  133OSM   H15T14317  -0.515   0.269   3.835 -1.0583 -0.0713  1.1749
  133OSM   C16S14318  -0.484   0.439   3.970 -0.0426 -0.2040  0.1648
  133OSM   H16S14319  -0.553   0.399   4.046 -0.3672 -0.2461 -0.1531
  133OSM   H16T14320  -0.537   0.513   3.906  0.7742 -0.2546 -0.5932
  133OSM   C17S14321  -0.372   0.501   4.055 -0.1783  0.4173  0.2328
  133OSM   H17S14322  -0.293   0.555   3.998  1.2813 -0.9134  0.9006
  133OSM   H17T14323  -0.318   0.424   4.115  1.2535  0.8760 -0.4186
  133OSM   C18S14324  -0.438   0.593   4.161 -0.3360 -0.3494  0.5489
  133OSM   H18S14325  -0.519   0.537   4.212 -0.5150  0.0187  0.6669
  133OSM   H18T14326  -0.504   0.669   4.114 -1.6725 -1.1342  1.1283
  133OSM   H18U14327  -0.356   0.615   4.233  1.0141 -2.3759 -0.2671
  133OSM    C1F14328  -0.265   0.536   2.745 -0.6743 -0.2142 -0.1714
  133OSM     OF14329  -0.332   0.478   2.662 -0.7513  0.0686 -0.3235
  133OSM    C2F14330  -0.331   0.614   2.851  0.0267  0.0216  0.0342
  133OSM    H2F14331  -0.440   0.612   2.833  0.2212  2.5690 -2.0136
  133OSM    H2G14332  -0.302   0.722   2.845  0.0323  0.0128 -0.0901
  133OSM    C3F14333  -0.295   0.560   2.988 -0.6420  0.0110  0.3436
  133OSM    H3F14334  -0.186   0.538   2.985 -1.0412 -2.1743  0.5908
  133OSM    H3G14335  -0.340   0.459   2.992 -1.4216 -0.1250 -5.2647
  133OSM    C4F14336  -0.338   0.658   3.105 -0.6700  0.0551 -0.5567
  133OSM    H4F14337  -0.446   0.683   3.107 -0.3064  1.7631 -0.9059
  133OSM    H4G14338  -0.281   0.752   3.089  1.7264 -0.3048  4.0518
  133OSM    C5F14339  -0.303   0.606   3.250  0.7087 -0.1363 -0.1127
  133OSM    H5F14340  -0.193   0.596   3.262  0.9945 -0.4389 -2.4151
  133OSM    H5G14341  -0.360   0.510   3.251  2.6629 -1.3559  0.7616
  133OSM    C6F14342  -0.357   0.705   3.352 -0.5537  0.2967 -0.2550
  133OSM    H6F14343  -0.461   0.737   3.331 -0.8589 -1.3052 -1.4582
  133OSM    H6G14344  -0.307   0.804   3.346  0.8638 -0.2761  1.3502
  133OSM    C7F14345  -0.321   0.668   3.497 -0.0506  0.0711 -0.2005
  133OSM    H7F14346  -0.211   0.649   3.498  0.6108  3.3392  0.0487
  133OSM    H7G14347  -0.381   0.575   3.509  1.1898 -0.4633  2.8851
  133OSM    C8F14348  -0.369   0.761   3.604  0.4193  0.3590 -0.7266
  133OSM    H8F14349  -0.478   0.774   3.589 -0.1384 -1.4749  1.1215
  133OSM    H8G14350  -0.322   0.857   3.576 -0.5922  0.9183 -0.5689
  133OSM    C9F14351  -0.344   0.728   3.749  0.1081  0.2024 -0.6122
  133OSM    H9F14352  -0.432   0.688   3.802  1.1184  1.6061  2.3969
  133OSM   C10F14353  -0.231   0.752   3.817 -0.5177  0.4960  0.0967
  133OSM   H10F14354  -0.222   0.728   3.924  0.4094 -0.2792 -0.1522
  133OSM   C11F14355  -0.109   0.822   3.753  1.1393  0.2124 -0.5295
  133OSM   H11F14356  -0.132   0.856   3.650 -1.8320  0.5603  0.1559
  133OSM   H11G14357  -0.029   0.745   3.750  0.7271 -0.3065  1.1272
  133OSM   C12F14358  -0.058   0.935   3.847  0.1516  1.2343  0.0640
  133OSM   H12F14359  -0.122   1.025   3.857 -0.3319  1.0179 -0.9760
  133OSM   H12G14360   0.035   0.970   3.799 -0.4168  0.8043 -1.3966
  133OSM   C13F14361  -0.029   0.894   3.993 -0.0168 -0.7818 -0.0933
  133OSM   H13F14362   0.029   0.801   4.006  0.4047 -0.2477  2.0929
  133OSM   H13G14363  -0.124   0.873   4.047 -0.4086  3.1309  1.0185
  133OSM   C14F14364   0.030   1.018   4.071 -0.0206  0.6822 -0.3279
  133OSM   H14F14365  -0.029   1.111   4.055  1.2297  1.4448 -0.6728
  133OSM   H14G14366   0.131   1.042   4.029  0.2961  1.4133  0.7893
  133OSM   C15F14367   0.045   0.993   4.219 -0.3383 -0.0270 -0.5357
  133OSM   H15F14368   0.097   1.079   4.267  0.7463 -0.1750 -1.3820
  133OSM   H15G14369   0.108   0.903   4.234  1.4841  1.4406  1.2968
  133OSM   C16F14370  -0.092   0.975   4.288 -0.2746  0.4803 -0.6362
  133OSM   H16F14371  -0.066   0.961   4.395  0.4686  1.4878 -0.6754
  133OSM   H16G14372  -0.149   0.886   4.253 -1.0510  1.1190 -0.9988
  133OSM   C17F14373  -0.178   1.103   4.283  0.0076  0.0248 -0.1721
  133OSM   H17F14374  -0.120   1.197   4.273 -2.8864  1.7606 -2.2902
  133OSM   H17G14375  -0.235   1.102   4.379  1.1452 -0.6094  0.5205
  133OSM   C18F14376  -0.285   1.101   4.169  0.5352 -0.1051 -0.2253
  133OSM   H18F14377  -0.346   1.194   4.169 -1.0428 -1.1074  0.3700
  133OSM   H18G14378  -0.362   1.021   4.173 -0.1522  0.5984  1.6020
  133OSM   H18H14379  -0.250   1.107   4.064 -2.5414  1.5807 -1.2775
  134OSM      N14380   0.048   5.186   2.206  0.0920  0.6965  0.2214
  134OSM    C1514381  -0.071   5.192   2.290  0.3863  0.3332 -0.6627
  134OSM   H15A14382  -0.055   5.244   2.383 -1.3449 -0.6205  0.2147
  134OSM   H15B14383  -0.103   5.089   2.296 -0.3022  0.4592 -1.7561
  134OSM   H15C14384  -0.148   5.243   2.234 -1.0875 -1.3850 -0.2811
  134OSM    C1414385   0.025   5.071   2.113  0.1332 -0.4771 -0.4459
  134OSM   H14A14386   0.034   4.973   2.156  2.1127 -1.2189 -2.3227
  134OSM   H14B14387   0.102   5.072   2.037 -0.2219  1.7361 -0.8580
  134OSM   H14C14388  -0.074   5.088   2.072 -2.2012 -0.2075  4.6239
  134OSM    C1314389   0.083   5.313   2.137  0.1446 -0.1531  0.5533
  134OSM   H13A14390   0.031   5.312   2.043  1.8284 -0.4277 -0.4152
  134OSM   H13B14391   0.190   5.318   2.124  0.5165  0.1482  3.2066
  134OSM   H13C14392   0.059   5.401   2.195  0.7557 -0.1801  0.8556
  134OSM    C1214393   0.167   5.150   2.297 -0.7242  0.1289  0.3284
  134OSM   H12A14394   0.157   5.060   2.355  1.5538 -0.6730 -0.4457
  134OSM   H12B14395   0.174   5.237   2.361  1.6363  1.1319 -1.1464
  134OSM    C1114396   0.311   5.147   2.232 -0.4139  0.2924 -0.1711
  134OSM   H11A14397   0.303   5.086   2.139  1.2478  0.7454 -0.6596
  134OSM   H11B14398   0.386   5.091   2.292  0.7751  0.5245 -1.3909
  134OSM      P14399   0.464   5.349   2.299 -0.2900  0.0806  0.2389
  134OSM    O1314400   0.602   5.300   2.277  0.1220  0.9130 -0.0645
  134OSM    O1414401   0.442   5.500   2.306 -0.2716 -0.4242  0.9857
  134OSM    O1114402   0.418   5.295   2.441 -0.1976 -0.2597  0.0606
  134OSM    O1214403   0.359   5.284   2.204 -0.1127  0.6159 -0.6844
  134OSM    C1S14404   0.389   5.376   2.551  0.7411 -0.0408  0.2880
  134OSM    H1S14405   0.314   5.451   2.519  3.8621  3.2181 -0.0090
  134OSM    H1T14406   0.474   5.434   2.592  0.3368  0.7621  0.0171
  134OSM     NF14407   0.266   5.382   2.757 -0.0479 -0.2172  0.3033
  134OSM    HNF14408   0.321   5.410   2.836 -2.1386 -1.5718  2.3547
  134OSM    C2S14409   0.339   5.291   2.671  0.3662  0.0262 -0.0387
  134OSM    H2S14410   0.263   5.218   2.636  0.5889  0.0141 -0.5047
  134OSM    C3S14411   0.463   5.216   2.726 -0.0333  0.1873 -0.1722
  134OSM    H3S14412   0.542   5.289   2.752  0.4254  1.1037 -3.5891
  134OSM     O314413   0.537   5.132   2.633 -0.7775  0.0077  0.0815
  134OSM    HO314414   0.507   5.158   2.545 -1.9230 -1.9412 -0.1784
  134OSM    C4S14415   0.429   5.131   2.853 -0.8247  0.5447  0.0716
  134OSM    H4S14416   0.434   5.185   2.949  1.9415  1.9363 -0.7609
  134OSM    C5S14417   0.404   4.998   2.849 -0.9836  0.0378  0.4664
  134OSM    H5S14418   0.402   4.943   2.754  2.1082  1.3024 -0.4461
  134OSM    C6S14419   0.355   4.916   2.962 -0.2346 -0.3535  0.0863
  134OSM    H6S14420   0.435   4.848   2.998  0.6424  0.6079  0.0104
  134OSM    H6T14421   0.271   4.852   2.931  0.5888 -1.3860 -0.0721
  134OSM    C7S14422   0.319   4.996   3.090  0.5524  1.0762 -0.9917
  134OSM    H7S14423   0.236   5.066   3.068 -1.4200 -0.8598 -0.0202
  134OSM    H7T14424   0.400   5.066   3.120 -0.4875  1.8187  0.2158
  134OSM    C8S14425   0.291   4.902   3.206  0.0429 -0.2901 -0.3700
  134OSM    H8S14426   0.352   4.810   3.207 -0.5454 -0.7790 -2.5707
  134OSM    H8T14427   0.186   4.866   3.200 -0.5017  1.1509 -0.0089
  134OSM    C9S14428   0.316   4.971   3.346 -0.2333 -0.4988  0.6590
  134OSM    H9S14429   0.251   5.058   3.370  0.2553 -0.3528  1.4995
  134OSM    H9T14430   0.418   5.013   3.355 -0.1816 -0.9383  2.4025
  134OSM   C10S14431   0.291   4.864   3.450 -0.4277 -0.3790 -0.2280
  134OSM   H10S14432   0.360   4.777   3.441  0.4083  0.1895  0.4457
  134OSM   H10T14433   0.188   4.826   3.437  0.4835 -3.5126  0.7722
  134OSM   C11S14434   0.292   4.902   3.603  0.3952 -0.0154 -0.5991
  134OSM   H11S14435   0.208   4.973   3.618  0.5948 -0.1040  1.2336
  134OSM   H11T14436   0.384   4.960   3.626 -0.9068  1.0557  2.5026
  134OSM   C12S14437   0.280   4.790   3.702 -0.2133 -0.0480  0.3998
  134OSM   H12S14438   0.356   4.709   3.690  1.0204  0.8737  1.6108
  134OSM   H12T14439   0.172   4.763   3.700 -0.4781  0.9949 -0.0105
  134OSM   C13S14440   0.295   4.852   3.841  0.7375  0.2465 -0.2984
  134OSM   H13S14441   0.222   4.933   3.861 -1.7939 -2.0422  0.4393
  134OSM   H13T14442   0.392   4.904   3.853  0.9459  0.0987 -1.2628
  134OSM   C14S14443   0.276   4.751   3.959 -0.4730 -0.3029 -0.6636
  134OSM   H14S14444   0.365   4.688   3.940  1.2034  2.0153 -1.0054
  134OSM   H14T14445   0.179   4.697   3.954 -1.1679  0.7121  1.0603
  134OSM   C15S14446   0.283   4.810   4.100 -0.0186 -0.1954  0.7329
  134OSM   H15S14447   0.372   4.876   4.092  0.9487 -1.5581 -0.2037
  134OSM   H15T14448   0.305   4.728   4.172  1.3827 -1.1693 -0.7501
  134OSM   C16S14449   0.168   4.894   4.150  0.0443  0.0023  0.1026
  134OSM   H16S14450   0.148   4.983   4.087 -0.3400  0.7650  1.2776
  134OSM   H16T14451   0.195   4.919   4.255  1.8586 -1.1183 -0.0551
  134OSM   C17S14452   0.038   4.814   4.157 -0.3076 -0.5517  0.4264
  134OSM   H17S14453   0.009   4.772   4.058 -1.8372  1.1192  0.1122
  134OSM   H17T14454  -0.052   4.876   4.177 -1.9465 -2.1227 -1.5663
  134OSM   C18S14455   0.032   4.712   4.267  0.3248 -0.2972  0.0383
  134OSM   H18S14456   0.051   4.760   4.366  0.4518  0.1964 -0.2197
  134OSM   H18T14457   0.111   4.636   4.257 -1.2307 -2.3178  2.0803
  134OSM   H18U14458  -0.073   4.674   4.269 -0.4246  1.6051 -0.1098
  134OSM    C1F14459   0.157   5.451   2.726  0.6877 -0.1208  0.4550
  134OSM     OF14460   0.095   5.431   2.616 -0.3696 -0.3078 -0.0596
  134OSM    C2F14461   0.111   5.549   2.835 -0.6457 -0.6281  0.5745
  134OSM    H2F14462   0.147   5.652   2.815 -0.4015 -0.8441 -0.1159
  134OSM    H2G14463   0.150   5.513   2.932  0.0392  3.3267  1.9297
  134OSM    C3F14464  -0.044   5.553   2.846 -0.2619 -0.2469  0.3107
  134OSM    H3F14465  -0.078   5.450   2.870 -1.9154  0.6827  2.2278
  134OSM    H3G14466  -0.086   5.583   2.748 -0.1073 -1.2015 -0.0638
  134OSM    C4F14467  -0.087   5.654   2.950  0.0418 -0.9126  0.0711
  134OSM    H4F14468  -0.198   5.655   2.950 -0.0396 -1.5459  3.0688
  134OSM    H4G14469  -0.056   5.757   2.921 -0.2379 -1.1335 -1.0402
  134OSM    C5F14470  -0.032   5.623   3.092  0.7129 -0.4128  0.3687
  134OSM    H5F14471   0.067   5.670   3.112  0.0574  0.8624  0.7382
  134OSM    H5G14472  -0.043   5.516   3.120  1.9721 -0.6874 -0.1018
  134OSM    C6F14473  -0.101   5.708   3.194  0.5016 -0.1630 -0.5603
  134OSM    H6F14474  -0.205   5.673   3.210  0.8295  0.3899  3.7586
  134OSM    H6G14475  -0.108   5.817   3.175  0.6768  0.1031  0.8118
  134OSM    C7F14476  -0.034   5.681   3.333  0.1279  0.1893 -0.3667
  134OSM    H7F14477   0.071   5.718   3.323  1.7748 -4.2971 -1.9547
  134OSM    H7G14478  -0.023   5.579   3.374 -0.7158  0.0525 -0.4639
  134OSM    C8F14479  -0.114   5.759   3.442 -0.1569  0.4280  0.4705
  134OSM    H8F14480  -0.204   5.695   3.457 -0.7095  1.4129  1.5049
  134OSM    H8G14481  -0.134   5.858   3.396  0.9074  0.3441 -0.2108
  134OSM    C9F14482  -0.034   5.768   3.573 -0.1206 -0.5806 -0.3987
  134OSM    H9F14483   0.027   5.860   3.581 -1.3629  0.3938 -1.5951
  134OSM   C10F14484  -0.035   5.676   3.675  0.0091  0.1091  0.3257
  134OSM   H10F14485   0.001   5.712   3.773 -2.0919 -0.9214  1.5532
  134OSM   C11F14486  -0.100   5.541   3.668 -0.9145  0.0312  0.0700
  134OSM   H11F14487  -0.025   5.471   3.711 -1.0364 -0.2288 -0.1406
  134OSM   H11G14488  -0.112   5.499   3.567 -1.1068 -1.5600  0.7268
  134OSM   C12F14489  -0.238   5.529   3.728  0.0384 -0.0815 -0.7270
  134OSM   H12F14490  -0.287   5.430   3.715 -0.3679 -0.1063  0.7855
  134OSM   H12G14491  -0.304   5.601   3.676 -1.2704 -0.0608  0.8551
  134OSM   C13F14492  -0.257   5.549   3.881  0.0099 -0.2534 -0.0615
  134OSM   H13F14493  -0.367   5.559   3.895  0.0722  3.5134 -1.0544
  134OSM   H13G14494  -0.225   5.650   3.915 -0.6976 -0.5258  1.4698
  134OSM   C14F14495  -0.181   5.446   3.964  1.0329 -0.6869  0.0633
  134OSM   H14F14496  -0.074   5.466   3.942  1.0792 -0.0966  0.7838
  134OSM   H14G14497  -0.211   5.345   3.930  0.9519 -0.5091 -0.4021
  134OSM   C15F14498  -0.213   5.460   4.115 -0.0765 -0.7045 -0.3153
  134OSM   H15F14499  -0.320   5.434   4.130  0.0938 -0.5966  1.2757
  134OSM   H15G14500  -0.201   5.566   4.145 -0.1771 -1.1381  1.3642
  134OSM   C16F14501  -0.119   5.371   4.199 -0.0655  0.5142  0.0632
  134OSM   H16F14502  -0.100   5.410   4.301 -2.4676 -0.1079  0.8336
  134OSM   H16G14503  -0.018   5.358   4.155  0.4409 -0.4439  1.4209
  134OSM   C17F14504  -0.179   5.226   4.223 -0.6074  0.3570 -0.0755
  134OSM   H17F14505  -0.193   5.175   4.125 -1.6175 -2.7863  1.5524
  134OSM   H17G14506  -0.285   5.227   4.254 -1.0821 -0.9775 -1.4727
  134OSM   C18F14507  -0.084   5.136   4.308  0.0866  0.4877  0.3071
  134OSM   H18F14508  -0.090   5.166   4.415 -0.4259  0.9838  0.1467
  134OSM   H18G14509   0.022   5.134   4.275  0.2633  0.4572  0.8756
  134OSM   H18H14510  -0.127   5.036   4.289  0.8681 -0.0413  1.2705
  135OSM      N14511   3.348   4.676   1.638  0.1819 -0.3442  0.0437
  135OSM    C1514512   3.321   4.815   1.695  0.9485 -0.3395 -0.1035
  135OSM   H15A14513   3.299   4.885   1.616 -1.0052  2.2352  2.4821
  135OSM   H15B14514   3.411   4.853   1.741 -0.0729 -0.0187  1.7294
  135OSM   H15C14515   3.234   4.819   1.759 -0.9235  1.8107 -2.5840
  135OSM    C1414516   3.238   4.657   1.530 -0.5861  0.0833 -0.3926
  135OSM   H14A14517   3.240   4.741   1.463  1.9536 -0.3014 -0.9020
  135OSM   H14B14518   3.144   4.680   1.577  0.8960  2.8202  1.5270
  135OSM   H14C14519   3.240   4.571   1.465 -2.8445  0.0042 -0.4323
  135OSM    C1314520   3.473   4.674   1.570  0.1590  0.7037 -0.3101
  135OSM   H13A14521   3.468   4.733   1.479  0.4279  2.0512  0.5267
  135OSM   H13B14522   3.499   4.571   1.550  0.2730  0.5374  0.6909
  135OSM   H13C14523   3.554   4.718   1.625  1.2041 -1.8826  0.3777
  135OSM    C1214524   3.346   4.579   1.751  0.1569 -0.2870 -0.4634
  135OSM   H12A14525   3.422   4.605   1.823  0.8924  0.4585 -1.4814
  135OSM   H12B14526   3.370   4.478   1.722  0.4105 -0.1125 -0.8745
  135OSM    C1114527   3.221   4.572   1.843  1.0168  0.7314 -0.1232
  135OSM   H11A14528   3.198   4.670   1.889  0.2330 -0.2709  1.7593
  135OSM   H11B14529   3.242   4.518   1.938 -0.1298  0.6987  0.1306
  135OSM      P14530   2.972   4.610   1.765  0.5074  0.0722  0.2573
  135OSM    O1314531   3.005   4.750   1.745 -0.2575  0.5002 -0.1801
  135OSM    O1414532   2.884   4.541   1.663  0.0543 -0.1385  0.5100
  135OSM    O1114533   2.916   4.594   1.916 -0.1495  0.4031  0.3548
  135OSM    O1214534   3.103   4.524   1.778  0.3901 -0.6494  0.7383
  135OSM    C1S14535   2.885   4.465   1.961  0.1023  0.2029 -0.2486
  135OSM    H1S14536   2.962   4.389   1.935 -0.7197 -0.9772  0.6844
  135OSM    H1T14537   2.790   4.441   1.909 -0.3607  3.0048 -0.8995
  135OSM     NF14538   2.814   4.322   2.161 -0.5158 -0.1714 -0.3334
  135OSM    HNF14539   2.721   4.287   2.155  0.2281 -2.1319 -1.3461
  135OSM    C2S14540   2.851   4.458   2.111  0.6795  0.0742  0.0062
  135OSM    H2S14541   2.940   4.493   2.168  1.0746 -1.7023  0.5585
  135OSM    C3S14542   2.738   4.555   2.144 -0.0401 -0.5646 -0.2964
  135OSM    H3S14543   2.647   4.530   2.086 -0.3299  2.0511 -1.0799
  135OSM     O314544   2.757   4.691   2.102 -0.0274  0.6366  0.0575
  135OSM    HO314545   2.825   4.676   2.036 -1.0640 -1.9016 -0.5376
  135OSM    C4S14546   2.700   4.555   2.293  0.0684 -0.0833 -1.2421
  135OSM    H4S14547   2.793   4.558   2.353  0.6559 -0.6430 -2.1000
  135OSM    C5S14548   2.581   4.551   2.362 -0.0391  0.6481  0.3647
  135OSM    H5S14549   2.494   4.532   2.297  1.9839 -0.2049 -2.2802
  135OSM    C6S14550   2.568   4.548   2.508 -0.0945 -0.5080 -0.2473
  135OSM    H6S14551   2.480   4.616   2.518  2.3865  2.6119  3.1632
  135OSM    H6T14552   2.653   4.594   2.563 -1.6015  1.6804  0.4053
  135OSM    C7S14553   2.531   4.415   2.575  0.5955 -0.0062 -0.6888
  135OSM    H7S14554   2.605   4.334   2.561  1.2785  0.5339 -0.3084
  135OSM    H7T14555   2.433   4.389   2.530  0.2727 -0.2709  0.1448
  135OSM    C8S14556   2.506   4.449   2.721 -0.0398  0.1032 -0.7886
  135OSM    H8S14557   2.447   4.543   2.733 -0.1804 -0.3442  3.8649
  135OSM    H8T14558   2.609   4.463   2.761  0.2533 -2.4353 -0.5222
  135OSM    C9S14559   2.444   4.342   2.813 -0.8751 -0.4473  0.7797
  135OSM    H9S14560   2.509   4.253   2.809 -3.2926 -2.2553 -1.4163
  135OSM    H9T14561   2.347   4.315   2.767 -0.4499  0.3501 -0.6476
  135OSM   C10S14562   2.430   4.392   2.957  0.2482 -0.0134 -0.4541
  135OSM   H10S14563   2.337   4.448   2.979  1.1058  0.6574  1.8057
  135OSM   H10T14564   2.516   4.459   2.979  0.6236 -0.6819  0.1788
  135OSM   C11S14565   2.451   4.280   3.060 -0.3691  0.5333  0.4077
  135OSM   H11S14566   2.538   4.223   3.022  0.6900  1.7573  0.9373
  135OSM   H11T14567   2.363   4.212   3.049 -0.3673  0.6283 -0.2250
  135OSM   C12S14568   2.483   4.333   3.202  0.5285 -0.1358 -0.0400
  135OSM   H12S14569   2.562   4.411   3.194  2.0033 -1.4322  1.0592
  135OSM   H12T14570   2.522   4.248   3.263  0.8646 -0.0900 -0.1881
  135OSM   C13S14571   2.364   4.395   3.283  0.0404  0.2288 -0.6649
  135OSM   H13S14572   2.329   4.482   3.224 -1.4253  0.0768 -0.0572
  135OSM   H13T14573   2.405   4.434   3.378 -2.3615 -1.1187  1.0289
  135OSM   C14S14574   2.243   4.303   3.302 -0.2802 -0.5702 -0.4556
  135OSM   H14S14575   2.210   4.268   3.202 -1.2377  1.3273 -0.8634
  135OSM   H14T14576   2.164   4.372   3.338  0.4267  1.0616 -1.8477
  135OSM   C15S14577   2.266   4.185   3.392  0.5060  0.6444  0.2689
  135OSM   H15S14578   2.361   4.130   3.374  2.6319  4.0202  0.1669
  135OSM   H15T14579   2.178   4.119   3.378 -0.7517  1.9227  1.6848
  135OSM   C16S14580   2.285   4.231   3.532 -0.3297  0.0673  0.4528
  135OSM   H16S14581   2.197   4.294   3.559  0.0777  1.4605 -1.2457
  135OSM   H16T14582   2.360   4.310   3.553  1.0096 -0.6145 -1.4676
  135OSM   C17S14583   2.306   4.116   3.632 -0.2695 -0.3171 -0.3457
  135OSM   H17S14584   2.399   4.062   3.605 -0.3353  0.4513 -2.2902
  135OSM   H17T14585   2.225   4.040   3.632  1.9870 -2.8761 -0.9435
  135OSM   C18S14586   2.317   4.169   3.775 -0.8080 -0.0631  0.0003
  135OSM   H18S14587   2.419   4.211   3.787 -0.4641 -0.5540 -1.0308
  135OSM   H18T14588   2.310   4.075   3.834  1.0480 -1.4739 -1.8608
  135OSM   H18U14589   2.241   4.246   3.801  1.4639  1.8946  1.2489
  135OSM    C1F14590   2.904   4.230   2.174  0.0297 -0.1538  0.3205
  135OSM     OF14591   3.023   4.266   2.171 -0.3581  0.2364  0.1628
  135OSM    C2F14592   2.857   4.086   2.179 -0.9603  0.1663 -0.2341
  135OSM    H2F14593   2.864   4.050   2.074  1.7778  0.8426 -0.3553
  135OSM    H2G14594   2.750   4.076   2.208 -0.8517 -1.4280 -0.2768
  135OSM    C3F14595   2.952   3.989   2.262  0.4103  0.1581  0.1618
  135OSM    H3F14596   3.053   3.995   2.216  1.7361  0.0386  2.8590
  135OSM    H3G14597   2.917   3.884   2.253  1.7572 -0.2721 -0.2552
  135OSM    C4F14598   2.973   4.028   2.405 -0.4028 -0.1224  0.2799
  135OSM    H4F14599   3.012   4.132   2.395  0.3953 -0.4201  0.2477
  135OSM    H4G14600   3.060   3.971   2.444 -0.8850 -1.3513 -0.3702
  135OSM    C5F14601   2.857   4.013   2.501 -0.1239 -0.7623 -0.1878
  135OSM    H5F14602   2.837   3.904   2.512  0.6663 -0.7838  1.1914
  135OSM    H5G14603   2.769   4.064   2.456  0.1537  0.1099  0.2402
  135OSM    C6F14604   2.884   4.074   2.639  0.0274 -0.4978 -0.2947
  135OSM    H6F14605   2.900   4.183   2.631 -0.1422 -0.5711 -1.9018
  135OSM    H6G14606   2.980   4.027   2.669 -0.2470 -1.1228 -0.3834
  135OSM    C7F14607   2.789   4.021   2.739 -0.3122  0.1017  0.0686
  135OSM    H7F14608   2.817   3.915   2.752  3.7516  0.7953 -1.4738
  135OSM    H7G14609   2.684   4.027   2.702 -0.7262 -1.5502  0.8966
  135OSM    C8F14610   2.793   4.102   2.866  0.1119 -0.4516 -0.2335
  135OSM    H8F14611   2.704   4.067   2.922 -0.0696  0.1393 -0.1462
  135OSM    H8G14612   2.777   4.211   2.850  0.0350 -0.4716 -0.2951
  135OSM    C9F14613   2.906   4.059   2.950  0.6142 -0.4253  0.4886
  135OSM    H9F14614   3.003   4.108   2.932 -0.1377  1.1287  0.4885
  135OSM   C10F14615   2.898   3.977   3.055 -0.4809 -0.3902  0.6049
  135OSM   H10F14616   2.988   3.953   3.114 -1.1815 -1.8357  1.1280
  135OSM   C11F14617   2.772   3.915   3.109  0.5936  0.3238  0.3028
  135OSM   H11F14618   2.795   3.815   3.152  0.3949 -0.3523 -1.1002
  135OSM   H11G14619   2.692   3.907   3.033  0.5501 -0.7885  0.4489
  135OSM   C12F14620   2.732   3.998   3.232  0.8432 -0.7113  0.3856
  135OSM   H12F14621   2.632   3.961   3.262 -0.0744  0.8094 -0.6680
  135OSM   H12G14622   2.727   4.106   3.204  0.9448  0.3287  3.9054
  135OSM   C13F14623   2.828   4.001   3.355  0.1516  0.1427  0.7463
  135OSM   H13F14624   2.934   4.022   3.326 -0.4761  0.7857 -1.2635
  135OSM   H13G14625   2.828   3.897   3.392  0.9453 -0.6296 -1.2479
  135OSM   C14F14626   2.781   4.107   3.451  0.7002  0.4381  0.4547
  135OSM   H14F14627   2.674   4.110   3.481  1.1548  2.2238  2.0876
  135OSM   H14G14628   2.801   4.212   3.420 -1.6391  0.8324  0.0611
  135OSM   C15F14629   2.849   4.092   3.588  0.2012 -0.0680 -0.2744
  135OSM   H15F14630   2.821   3.988   3.618  4.0332 -0.6326  2.1264
  135OSM   H15G14631   2.802   4.167   3.655  1.7046  0.2621  0.4506
  135OSM   C16F14632   2.999   4.116   3.589  0.7879 -0.0951  0.3773
  135OSM   H16F14633   3.018   4.220   3.555 -0.6395 -0.3061 -1.2190
  135OSM   H16G14634   3.038   4.031   3.529  0.1576 -0.5882  0.6484
  135OSM   C17F14635   3.061   4.117   3.728  0.4447  0.2553  0.2533
  135OSM   H17F14636   3.018   4.195   3.796 -2.2618  0.0310 -1.0507
  135OSM   H17G14637   3.163   4.157   3.709  0.8461 -2.2791 -4.1293
  135OSM   C18F14638   3.061   3.979   3.805  0.7503 -0.2676  0.1783
  135OSM   H18F14639   3.088   3.895   3.737  0.9588 -0.9346  1.0806
  135OSM   H18G14640   2.965   3.957   3.856 -1.0060  2.4844 -1.5898
  135OSM   H18H14641   3.139   3.972   3.883  1.4570  1.4903 -0.3132
  136OSM      N14642   6.034   6.082   1.726  0.1293  0.3379  0.4685
  136OSM    C1514643   6.180   6.043   1.737 -0.0541  0.1297 -0.3094
  136OSM   H15A14644   6.201   5.954   1.795  4.4733 -0.4867 -2.4430
  136OSM   H15B14645   6.233   6.125   1.782  2.0687 -1.4678  0.2763
  136OSM   H15C14646   6.215   6.019   1.638  0.9915 -0.5888  0.2105
  136OSM    C1414647   6.020   6.196   1.636 -0.0365 -0.3309 -0.0648
  136OSM   H14A14648   5.917   6.226   1.627 -0.2743 -1.0028  0.3939
  136OSM   H14B14649   6.050   6.168   1.536  2.3065 -0.1805  0.5453
  136OSM   H14C14650   6.085   6.281   1.652  0.2875 -0.4079 -0.9039
  136OSM    C1314651   5.951   5.972   1.667 -1.1554  0.4827  0.0581
  136OSM   H13A14652   5.964   5.881   1.725 -0.0572 -1.2020 -2.6591
  136OSM   H13B14653   5.978   5.949   1.565 -1.4679  1.4536 -0.2512
  136OSM   H13C14654   5.848   5.999   1.649 -0.8062  1.9744  0.2455
  136OSM    C1214655   5.986   6.125   1.866 -0.3166 -0.7984 -0.3023
  136OSM   H12A14656   5.879   6.132   1.859 -0.2488  0.3460 -0.5020
  136OSM   H12B14657   6.019   6.228   1.871  0.1072 -0.9825  1.4437
  136OSM    C1114658   6.005   6.030   1.986  0.1932 -0.4817  0.8168
  136OSM   H11A14659   5.989   6.097   2.073  2.2035  0.0217  0.8560
  136OSM   H11B14660   6.114   6.012   1.999  0.8115  0.8985 -1.8058
  136OSM      P14661   5.967   5.770   1.992 -0.1897 -0.0032  0.0729
  136OSM    O1314662   5.841   5.690   1.967  0.0249  0.4864 -0.8995
  136OSM    O1414663   6.085   5.763   1.908  0.0243  0.2501 -0.2116
  136OSM    O1114664   6.010   5.749   2.147 -0.1288 -0.1610 -0.4545
  136OSM    O1214665   5.920   5.917   1.985  0.3447  0.0064 -0.3138
  136OSM    C1S14666   5.906   5.785   2.244 -0.3588 -0.7275  0.1553
  136OSM    H1S14667   5.843   5.695   2.263 -1.5069  0.3222  1.5751
  136OSM    H1T14668   5.846   5.870   2.205  0.9510 -0.4966 -1.4816
  136OSM     NF14669   5.890   5.823   2.491 -0.9139 -0.5804  0.8311
  136OSM    HNF14670   5.845   5.904   2.528 -1.0194 -1.4029  2.5652
  136OSM    C2S14671   5.970   5.836   2.371  0.2593  0.1197  0.2811
  136OSM    H2S14672   6.056   5.770   2.396 -0.6228 -0.5083  1.8651
  136OSM    C3S14673   6.031   5.982   2.354  0.5062 -0.0743 -0.5794
  136OSM    H3S14674   5.943   6.030   2.304 -0.4418  0.4371  1.4542
  136OSM     O314675   6.130   5.994   2.262  0.5667 -0.1197  0.2520
  136OSM    HO314676   6.102   5.924   2.203 -2.8470  1.4740 -0.2267
  136OSM    C4S14677   6.076   6.060   2.472  0.4050  0.0052  0.5796
  136OSM    H4S14678   6.172   6.027   2.514  0.0658  0.1239  1.4611
  136OSM    C5S14679   6.015   6.171   2.526 -0.0687 -0.4536 -0.5970
  136OSM    H5S14680   5.922   6.208   2.480  0.2712 -1.7135 -2.4217
  136OSM    C6S14681   6.067   6.250   2.639  0.3979 -0.2441  0.3306
  136OSM    H6S14682   6.008   6.343   2.655  0.6882  0.6056 -2.8544
  136OSM    H6T14683   6.168   6.287   2.612  1.1319  0.0292  3.0999
  136OSM    C7S14684   6.074   6.161   2.768 -0.3955  0.4388  0.5540
  136OSM    H7S14685   6.143   6.076   2.747 -0.3854 -0.3195  3.2526
  136OSM    H7T14686   5.975   6.112   2.781  0.1273 -1.7004 -2.3578
  136OSM    C8S14687   6.129   6.238   2.889 -0.0759 -0.4639  0.8216
  136OSM    H8S14688   6.139   6.347   2.875  1.2315  0.1593  5.1802
  136OSM    H8T14689   6.232   6.206   2.915  0.9502  2.5003  0.6986
  136OSM    C9S14690   6.048   6.218   3.011  0.0403 -0.2407 -0.0300
  136OSM    H9S14691   6.038   6.110   3.039  1.2147 -0.6141 -0.9949
  136OSM    H9T14692   5.948   6.262   2.993  0.3565  1.0218  1.1858
  136OSM   C10S14693   6.109   6.288   3.131 -0.6145  0.5009  0.7622
  136OSM   H10S14694   6.135   6.396   3.128 -0.2727  0.4205  0.6823
  136OSM   H10T14695   6.207   6.235   3.137 -0.9288 -0.0598  0.9874
  136OSM   C11S14696   6.040   6.253   3.258 -0.0143  0.1099  0.3860
  136OSM   H11S14697   6.029   6.146   3.285 -0.5090 -0.5341 -2.1233
  136OSM   H11T14698   5.934   6.282   3.248  0.6553  2.9927  0.7382
  136OSM   C12S14699   6.105   6.326   3.380 -0.5307  0.1024 -0.4827
  136OSM   H12S14700   6.108   6.437   3.370  1.9452  0.3055  1.4470
  136OSM   H12T14701   6.212   6.295   3.387  0.1310  2.5050  1.7223
  136OSM   C13S14702   6.023   6.315   3.508 -0.5084 -0.1178 -0.2774
  136OSM   H13S14703   5.975   6.215   3.506 -0.8509  0.0426 -0.2156
  136OSM   H13T14704   5.943   6.393   3.507  1.3240  1.8639 -1.3596
  136OSM   C14S14705   6.102   6.318   3.636  0.5390  0.3184 -0.5493
  136OSM   H14S14706   6.162   6.226   3.651 -1.4287 -1.0792 -0.9271
  136OSM   H14T14707   6.022   6.308   3.712 -0.7194 -0.4768 -1.9313
  136OSM   C15S14708   6.173   6.448   3.654  0.2688 -0.7466 -0.2954
  136OSM   H15S14709   6.104   6.534   3.667  2.1174  0.7946 -0.1826
  136OSM   H15T14710   6.234   6.474   3.564  0.1991 -0.1711 -0.1855
  136OSM   C16S14711   6.257   6.444   3.778  0.2487  0.0069 -0.2618
  136OSM   H16S14712   6.211   6.392   3.864  1.4764 -0.5072  0.1044
  136OSM   H16T14713   6.284   6.546   3.814 -0.6802 -0.3585  1.5962
  136OSM   C17S14714   6.386   6.370   3.747  0.0586 -0.1499  0.8105
  136OSM   H17S14715   6.418   6.416   3.651 -1.3206  0.3351  0.5604
  136OSM   H17T14716   6.381   6.261   3.725  0.0242 -0.1568  0.8513
  136OSM   C18S14717   6.486   6.385   3.850  0.8926  0.3225  0.8761
  136OSM   H18S14718   6.520   6.491   3.856 -2.9165  1.6376  2.5320
  136OSM   H18T14719   6.571   6.320   3.820  0.3389 -0.5667  1.2010
  136OSM   H18U14720   6.449   6.359   3.952  1.0107 -0.9304  0.6125
  136OSM    C1F14721   5.850   5.703   2.531  0.1054 -0.1376 -0.5983
  136OSM     OF14722   5.922   5.601   2.519 -0.1495 -0.0849 -0.1025
  136OSM    C2F14723   5.721   5.694   2.607 -0.5306  0.1392  0.0883
  136OSM    H2F14724   5.638   5.651   2.547 -2.1687  0.0527  2.3228
  136OSM    H2G14725   5.689   5.796   2.637 -0.8819  0.5325 -1.5163
  136OSM    C3F14726   5.744   5.613   2.735 -0.3444  0.1821 -0.7360
  136OSM    H3F14727   5.794   5.516   2.713 -1.9678 -0.4233 -1.9513
  136OSM    H3G14728   5.652   5.592   2.794  0.1358  1.4799  0.5318
  136OSM    C4F14729   5.832   5.686   2.838  0.4526 -0.8098  0.6096
  136OSM    H4F14730   5.926   5.729   2.795  0.4627 -0.6734  0.7687
  136OSM    H4G14731   5.866   5.627   2.926 -0.1768 -1.6664  0.2942
  136OSM    C5F14732   5.766   5.811   2.908  0.1206 -0.1030 -0.4153
  136OSM    H5F14733   5.682   5.781   2.973 -0.3027 -0.5864 -1.1706
  136OSM    H5G14734   5.724   5.875   2.828 -0.7953  1.8801  1.5534
  136OSM    C6F14735   5.858   5.914   2.983 -0.7729  0.4530 -0.4299
  136OSM    H6F14736   5.788   5.993   3.017 -1.2806  0.4522 -1.4444
  136OSM    H6G14737   5.934   5.964   2.920  1.3542  0.4056  1.9487
  136OSM    C7F14738   5.945   5.849   3.095  0.2308 -0.0656 -0.4507
  136OSM    H7F14739   6.011   5.932   3.127  1.7868 -0.8320 -1.5601
  136OSM    H7G14740   6.016   5.772   3.058  1.0442  0.6057 -0.3229
  136OSM    C8F14741   5.872   5.778   3.208  0.0672  0.4022  0.2477
  136OSM    H8F14742   5.946   5.732   3.277 -1.2595  1.6382  2.6150
  136OSM    H8G14743   5.798   5.702   3.174  0.7696  0.9773 -2.9234
  136OSM    C9F14744   5.793   5.886   3.273  0.3077  0.6351 -0.5080
  136OSM    H9F14745   5.713   5.929   3.211  1.1009  0.6864 -1.5219
  136OSM   C10F14746   5.796   5.919   3.408  0.2751 -0.8915  0.5945
  136OSM   H10F14747   5.741   6.009   3.440 -0.1347 -0.3028 -1.5976
  136OSM   C11F14748   5.870   5.852   3.512 -0.1093 -0.2571 -0.7986
  136OSM   H11F14749   5.979   5.835   3.497  0.2541 -0.2917  1.4873
  136OSM   H11G14750   5.817   5.756   3.529  2.4843 -1.9238 -1.5761
  136OSM   C12F14751   5.866   5.923   3.653 -0.1743  0.7768 -0.4288
  136OSM   H12F14752   5.765   5.967   3.665 -0.8040 -1.0948  1.7344
  136OSM   H12G14753   5.931   6.012   3.635  1.2495 -0.3488 -1.0362
  136OSM   C13F14754   5.914   5.844   3.776  0.1893 -0.2495 -0.4458
  136OSM   H13F14755   6.022   5.818   3.773  0.8886  1.5678  3.1886
  136OSM   H13G14756   5.848   5.756   3.789 -0.1790 -0.0032 -0.6110
  136OSM   C14F14757   5.892   5.920   3.916  0.3681 -0.1185  0.0570
  136OSM   H14F14758   5.925   5.854   3.999 -1.3422 -1.0122  0.0620
  136OSM   H14G14759   5.782   5.925   3.933  0.3444 -0.8818  0.1182
  136OSM   C15F14760   5.964   6.057   3.929  0.0486  0.8811  0.6763
  136OSM   H15F14761   5.916   6.134   3.865 -0.2914  0.8362  0.8696
  136OSM   H15G14762   6.068   6.049   3.893 -0.4491 -2.6513 -0.4586
  136OSM   C16F14763   5.961   6.112   4.072  0.0986  0.4221 -0.0792
  136OSM   H16F14764   5.854   6.140   4.080  0.0069  0.9328 -2.3992
  136OSM   H16G14765   6.018   6.206   4.062 -0.3429  1.3223  4.1004
  136OSM   C17F14766   6.017   6.026   4.186 -0.1484 -0.2641 -0.3257
  136OSM   H17F14767   6.109   5.979   4.145 -0.7793 -1.9307  0.0621
  136OSM   H17G14768   5.949   5.942   4.211 -0.3636  0.0919  0.3095
  136OSM   C18F14769   6.052   6.091   4.321  0.1678  0.0714 -0.4870
  136OSM   H18F14770   6.111   6.012   4.370  1.0090 -0.7682 -2.7338
  136OSM   H18G14771   5.957   6.106   4.378 -0.9920 -0.1451 -2.2684
  136OSM   H18H14772   6.111   6.182   4.296  0.3510  0.3041  0.7458
  137OSM      N14773   1.549   4.647   2.109  0.1408 -0.5099  0.7474
  137OSM    C1514774   1.575   4.786   2.076  0.7799  0.0934 -0.3150
  137OSM   H15A14775   1.528   4.817   1.984  1.2153  3.0421  0.3779
  137OSM   H15B14776   1.677   4.788   2.041  0.5275 -2.7257 -1.5495
  137OSM   H15C14777   1.551   4.858   2.153  0.6009  0.5257 -0.7709
  137OSM    C1414778   1.629   4.616   2.230 -0.1876  0.4569 -0.7231
  137OSM   H14A14779   1.623   4.691   2.307 -1.5089 -0.0685 -0.2951
  137OSM   H14B14780   1.731   4.606   2.195 -0.3950  1.4056 -1.6213
  137OSM   H14C14781   1.596   4.519   2.267  0.9151 -0.4356 -1.9712
  137OSM    C1314782   1.402   4.638   2.130 -0.5981  0.6983 -0.7804
  137OSM   H13A14783   1.393   4.670   2.233  1.7394  0.3574 -0.4153
  137OSM   H13B14784   1.363   4.539   2.111 -1.0015  0.9404 -1.2347
  137OSM   H13C14785   1.344   4.701   2.065 -0.4988 -1.5504 -3.2098
  137OSM    C1214786   1.594   4.547   1.998 -0.2023 -0.2958  0.8490
  137OSM   H12A14787   1.548   4.581   1.907 -0.6847 -2.4719  0.2223
  137OSM   H12B14788   1.552   4.452   2.027  0.2829 -0.3691  1.3465
  137OSM    C1114789   1.748   4.529   1.973  0.1483  0.4100 -0.0519
  137OSM   H11A14790   1.762   4.475   1.876 -0.8690  0.6592 -0.3516
  137OSM   H11B14791   1.781   4.474   2.063  1.7765 -0.9355 -1.3833
  137OSM      P14792   1.972   4.662   2.008  0.1898 -0.6152  0.0873
  137OSM    O1314793   2.051   4.573   1.921 -0.5235  1.0947  0.0494
  137OSM    O1414794   2.001   4.809   2.010 -0.0296 -0.1554  0.5024
  137OSM    O1114795   1.977   4.607   2.151  0.1277  0.2536 -0.3018
  137OSM    O1214796   1.818   4.649   1.973  0.0019 -0.6096 -0.3449
  137OSM    C1S14797   2.032   4.479   2.189  0.2916  0.9415  0.0077
  137OSM    H1S14798   2.104   4.440   2.114 -2.3684 -4.4545 -0.1921
  137OSM    H1T14799   1.955   4.400   2.195  1.3474 -0.2814 -1.6031
  137OSM     NF14800   2.129   4.348   2.374 -0.0182  0.4340  0.7422
  137OSM    HNF14801   2.047   4.307   2.414 -1.6272  2.2635 -0.4802
  137OSM    C2S14802   2.095   4.483   2.336  0.0273 -0.1561  0.4843
  137OSM    H2S14803   2.185   4.547   2.346  0.1321  0.1026 -1.6592
  137OSM    C3S14804   1.995   4.556   2.424  0.1793  0.3818 -0.0613
  137OSM    H3S14805   1.895   4.507   2.420 -0.0643  0.7791  0.8409
  137OSM     O314806   1.976   4.691   2.393 -0.1210  0.3706  0.2030
  137OSM    HO314807   2.013   4.697   2.304  1.8068  2.0880  1.0245
  137OSM    C4S14808   2.038   4.542   2.572  0.2860 -0.0888 -0.4313
  137OSM    H4S14809   2.146   4.546   2.591  0.0496  0.0098  1.0047
  137OSM    C5S14810   1.970   4.494   2.673 -0.1056  0.7648  0.7417
  137OSM    H5S14811   1.867   4.471   2.643  0.3082 -0.0689 -0.0663
  137OSM    C6S14812   2.018   4.438   2.802 -0.0478  0.4864  0.3323
  137OSM    H6S14813   2.020   4.517   2.880 -1.3767  0.2627  0.6162
  137OSM    H6T14814   2.120   4.394   2.803  0.0709  0.6846  2.2576
  137OSM    C7S14815   1.922   4.329   2.854  0.6152  0.4550 -0.1440
  137OSM    H7S14816   1.887   4.248   2.786 -0.3333 -2.1536  3.1665
  137OSM    H7T14817   1.826   4.379   2.879  0.6733 -0.0068  1.0862
  137OSM    C8S14818   1.970   4.282   2.987  0.0341  0.2982 -0.0898
  137OSM    H8S14819   2.010   4.373   3.037 -0.2940 -0.6940  2.0936
  137OSM    H8T14820   2.051   4.206   2.977 -0.4283 -0.1538 -0.4318
  137OSM    C9S14821   1.872   4.203   3.070 -0.0251  0.6168 -0.9041
  137OSM    H9S14822   1.845   4.102   3.032 -2.4532 -0.0572  2.1547
  137OSM    H9T14823   1.778   4.261   3.078 -0.8812 -0.9348  1.1801
  137OSM   C10S14824   1.922   4.173   3.219  0.1285  0.1070  0.0469
  137OSM   H10S14825   1.944   4.265   3.277 -1.5200  0.4448  0.1799
  137OSM   H10T14826   2.014   4.111   3.214  0.0472 -0.1268  1.1542
  137OSM   C11S14827   1.823   4.096   3.308  0.1119 -0.4973  0.2641
  137OSM   H11S14828   1.794   3.993   3.278 -1.8604  0.0315  0.2475
  137OSM   H11T14829   1.736   4.164   3.308  2.2312  2.5022  2.3661
  137OSM   C12S14830   1.871   4.093   3.451  0.0230  0.4999 -0.4966
  137OSM   H12S14831   1.863   4.194   3.495  0.2809 -0.3570  1.6610
  137OSM   H12T14832   1.980   4.073   3.459 -0.3975 -1.2966  2.4549
  137OSM   C13S14833   1.797   3.989   3.537  0.0527 -0.0814 -0.0380
  137OSM   H13S14834   1.822   3.892   3.489  0.1952  0.5573 -1.3016
  137OSM   H13T14835   1.687   4.005   3.536 -0.2759 -1.9911  0.2423
  137OSM   C14S14836   1.843   3.991   3.680 -0.1840 -0.0609 -0.9022
  137OSM   H14S14837   1.793   4.075   3.733 -0.6109 -1.1743  0.5223
  137OSM   H14T14838   1.950   4.021   3.680 -0.2094  0.0341 -1.4504
  137OSM   C15S14839   1.804   3.863   3.755 -0.0437  0.6833  1.1809
  137OSM   H15S14840   1.888   3.796   3.725 -0.5760  0.4750  0.0996
  137OSM   H15T14841   1.718   3.808   3.712 -0.2861  1.6627  0.3702
  137OSM   C16S14842   1.805   3.877   3.910  0.1485  0.0002  0.5198
  137OSM   H16S14843   1.715   3.928   3.951  0.1435 -1.1159  1.9853
  137OSM   H16T14844   1.893   3.936   3.942  0.2934 -1.0925  2.2630
  137OSM   C17S14845   1.817   3.747   3.987 -0.4791  0.0448 -0.5613
  137OSM   H17S14846   1.735   3.675   3.965 -0.3887 -0.5335  0.8638
  137OSM   H17T14847   1.796   3.785   4.089 -1.4495 -0.3473 -0.6117
  137OSM   C18S14848   1.959   3.685   3.973  0.6408 -0.0141  0.1563
  137OSM   H18S14849   2.044   3.734   4.025  0.6412 -2.0587  2.3000
  137OSM   H18T14850   1.971   3.669   3.864  1.9183 -1.4658  0.4809
  137OSM   H18U14851   1.946   3.590   4.029 -0.4875  0.5854  0.9390
  137OSM    C1F14852   2.232   4.285   2.323 -0.0898 -0.1545  0.3629
  137OSM     OF14853   2.321   4.345   2.264 -0.1166 -0.2228 -0.2824
  137OSM    C2F14854   2.234   4.138   2.342 -0.6465  0.1499  0.5142
  137OSM    H2F14855   2.276   4.088   2.251  2.2086  1.8623  0.7665
  137OSM    H2G14856   2.128   4.111   2.360 -1.1625 -0.1333 -2.3942
  137OSM    C3F14857   2.319   4.088   2.458 -0.5216 -0.0617  0.5930
  137OSM    H3F14858   2.409   4.152   2.470 -1.6251  1.8259 -0.7434
  137OSM    H3G14859   2.360   3.991   2.423 -1.6772  0.1948 -1.6254
  137OSM    C4F14860   2.234   4.095   2.587 -0.0386  0.5223 -0.5902
  137OSM    H4F14861   2.130   4.064   2.564  0.3331  0.5158 -2.4101
  137OSM    H4G14862   2.228   4.194   2.636 -1.6649 -0.3487  1.0823
  137OSM    C5F14863   2.282   3.979   2.675  0.9130 -0.5616  0.0247
  137OSM    H5F14864   2.391   3.999   2.686  0.7608 -0.0596  0.6535
  137OSM    H5G14865   2.251   3.881   2.633 -3.0277  0.2283  0.7258
  137OSM    C6F14866   2.220   3.995   2.818 -0.7147  0.6545 -0.3129
  137OSM    H6F14867   2.116   3.957   2.816 -1.0430  1.5605 -1.4455
  137OSM    H6G14868   2.213   4.104   2.835 -0.6861  0.4426  1.1344
  137OSM    C7F14869   2.316   3.916   2.914 -0.6264  0.3675  0.4729
  137OSM    H7F14870   2.299   3.961   3.014 -0.0097  0.5072  0.5137
  137OSM    H7G14871   2.419   3.934   2.879 -1.2369  1.7803 -0.7035
  137OSM    C8F14872   2.290   3.768   2.920 -0.2342 -0.9303  0.4534
  137OSM    H8F14873   2.319   3.724   2.823 -2.2792 -0.9717 -0.1871
  137OSM    H8G14874   2.182   3.747   2.935 -0.7601  0.6570 -0.7879
  137OSM    C9F14875   2.369   3.704   3.032 -0.1851 -0.1697 -0.0025
  137OSM    H9F14876   2.472   3.681   3.003  1.0539  1.8858  2.3555
  137OSM   C10F14877   2.339   3.679   3.159  0.7672 -0.2345  0.1838
  137OSM   H10F14878   2.411   3.627   3.224  0.9071 -2.5370 -1.7123
  137OSM   C11F14879   2.207   3.705   3.228 -0.5432 -0.7419 -0.3818
  137OSM   H11F14880   2.137   3.619   3.223 -2.6233  0.9066 -1.2153
  137OSM   H11G14881   2.160   3.791   3.176 -0.5977 -0.2305  0.4971
  137OSM   C12F14882   2.235   3.738   3.381 -0.4418  0.3168  1.0128
  137OSM   H12F14883   2.278   3.841   3.381  0.7052 -0.1065 -0.7408
  137OSM   H12G14884   2.311   3.671   3.426  1.0307  0.6460 -0.8226
  137OSM   C13F14885   2.115   3.750   3.465  0.3070 -0.4044 -0.3061
  137OSM   H13F14886   2.053   3.824   3.410  1.2893  0.2105 -0.6018
  137OSM   H13G14887   2.139   3.794   3.564 -0.1407 -1.5460  0.3379
  137OSM   C14F14888   2.041   3.615   3.481 -0.0457  0.3139  0.1329
  137OSM   H14F14889   2.043   3.565   3.382  3.1799  0.7869 -0.1429
  137OSM   H14G14890   1.938   3.645   3.511 -0.3800 -1.2109  0.6250
  137OSM   C15F14891   2.097   3.512   3.575  0.1377  0.0424 -1.0331
  137OSM   H15F14892   2.100   3.553   3.678 -2.4008 -2.7123  0.3037
  137OSM   H15G14893   2.203   3.493   3.550  0.1129  0.2553 -1.3039
  137OSM   C16F14894   2.002   3.397   3.589 -0.2469 -0.3122 -0.4684
  137OSM   H16F14895   2.010   3.335   3.497 -4.0406 -1.6257 -0.0971
  137OSM   H16G14896   1.894   3.418   3.601 -1.3687 -4.6324 -1.3925
  137OSM   C17F14897   2.036   3.309   3.710  0.0904  0.0745 -0.8121
  137OSM   H17F14898   1.968   3.223   3.725 -0.9603  0.6793 -1.9004
  137OSM   H17G14899   2.033   3.356   3.810  1.6439 -0.2285 -0.5873
  137OSM   C18F14900   2.178   3.248   3.703  0.2307 -0.1966  0.0022
  137OSM   H18F14901   2.258   3.322   3.726  0.8116 -0.9808  0.5774
  137OSM   H18G14902   2.188   3.206   3.600 -3.7987 -0.7869 -0.3096
  137OSM   H18H14903   2.200   3.168   3.777 -1.1402  0.7890  1.5267
  138OSM      N14904   1.247   6.699   2.263 -0.2333 -0.1972  0.8450
  138OSM    C1514905   1.276   6.576   2.182  0.1718 -0.3066 -0.2647
  138OSM   H15A14906   1.362   6.583   2.117  0.5453 -0.6118  0.1893
  138OSM   H15B14907   1.186   6.547   2.130  1.8298 -1.0935 -2.8939
  138OSM   H15C14908   1.294   6.489   2.243 -2.6506  0.1496  1.3954
  138OSM    C1414909   1.188   6.805   2.174  0.4276 -0.6004 -0.5904
  138OSM   H14A14910   1.142   6.881   2.235  2.5908  0.7608 -0.5275
  138OSM   H14B14911   1.112   6.774   2.104 -1.6025  1.2847  0.6513
  138OSM   H14C14912   1.267   6.862   2.127  0.2105  1.3562  1.2731
  138OSM    C1314913   1.134   6.665   2.360 -0.0377 -0.7012 -0.4120
  138OSM   H13A14914   1.115   6.747   2.429  0.1434 -1.1286  0.1598
  138OSM   H13B14915   1.157   6.575   2.415  0.2851  0.3893  1.3524
  138OSM   H13C14916   1.038   6.662   2.311  1.3632 -0.9354 -3.3154
  138OSM    C1214917   1.380   6.753   2.329 -0.3062  0.2684  0.0585
  138OSM   H12A14918   1.415   6.676   2.395  1.0059  0.2383 -0.6519
  138OSM   H12B14919   1.349   6.842   2.382 -2.6753 -0.3712 -0.1301
  138OSM    C1114920   1.507   6.784   2.233  0.1812 -0.4849 -0.3804
  138OSM   H11A14921   1.588   6.832   2.292  1.3345 -2.1025 -0.5708
  138OSM   H11B14922   1.488   6.858   2.153 -3.6203  0.4762  1.2119
  138OSM      P14923   1.652   6.558   2.229  0.3811 -0.1689 -0.3089
  138OSM    O1314924   1.681   6.454   2.134  0.2802 -0.3084  0.1625
  138OSM    O1414925   1.770   6.630   2.284 -0.2424  0.4784 -0.1342
  138OSM    O1114926   1.561   6.502   2.351  0.3268  0.1124  0.0186
  138OSM    O1214927   1.553   6.666   2.164  0.5568  0.3481 -0.5536
  138OSM    C1S14928   1.566   6.365   2.387 -0.7250 -0.2863 -0.6956
  138OSM    H1S14929   1.620   6.303   2.312  1.2354 -0.4558  0.7774
  138OSM    H1T14930   1.466   6.321   2.407  0.3007 -1.8252  1.3402
  138OSM     NF14931   1.703   6.211   2.530 -0.5940  0.2951 -0.6211
  138OSM    HNF14932   1.660   6.151   2.597 -0.6038 -0.7028 -1.4953
  138OSM    C2S14933   1.647   6.346   2.513  0.0631 -0.8623  0.0713
  138OSM    H2S14934   1.727   6.420   2.496 -1.4131  1.0799  1.1374
  138OSM    C3S14935   1.570   6.408   2.641  0.0353 -0.1402 -0.1564
  138OSM    H3S14936   1.479   6.349   2.662  0.1081  0.0296  0.6954
  138OSM     O314937   1.535   6.543   2.604  0.0061  0.2883 -0.2667
  138OSM    HO314938   1.553   6.546   2.509  0.5472  1.5049 -0.1480
  138OSM    C4S14939   1.658   6.420   2.759 -0.0864 -0.0664 -0.3229
  138OSM    H4S14940   1.699   6.521   2.774  0.9806 -0.5170 -0.0467
  138OSM    C5S14941   1.681   6.329   2.859 -0.6030 -0.3632  0.1391
  138OSM    H5S14942   1.635   6.229   2.851  0.2426 -0.8576  1.1937
  138OSM    C6S14943   1.771   6.358   2.982  0.2740 -0.4190  0.6200
  138OSM    H6S14944   1.811   6.461   2.975  1.0948 -0.8548 -2.4163
  138OSM    H6T14945   1.854   6.286   2.997 -0.0520 -1.0632 -0.5083
  138OSM    C7S14946   1.686   6.356   3.117 -0.4001 -0.5696 -0.1231
  138OSM    H7S14947   1.653   6.249   3.114 -0.1588 -0.6656  0.5486
  138OSM    H7T14948   1.600   6.425   3.108 -0.9432 -1.3168 -0.9372
  138OSM    C8S14949   1.762   6.387   3.246  0.3913 -0.7104 -0.1503
  138OSM    H8S14950   1.818   6.481   3.228 -1.1517  0.3132  0.1524
  138OSM    H8T14951   1.852   6.325   3.265  0.2295 -1.0219 -0.3869
  138OSM    C9S14952   1.673   6.398   3.372  0.4516  0.1406 -0.4552
  138OSM    H9S14953   1.570   6.433   3.352  0.6411  0.8494 -0.2264
  138OSM    H9T14954   1.723   6.469   3.441  1.7243 -1.1719  0.0259
  138OSM   C10S14955   1.658   6.249   3.416  0.0024 -0.4546  0.0783
  138OSM   H10S14956   1.754   6.204   3.448 -0.5019  0.1814  2.6720
  138OSM   H10T14957   1.591   6.196   3.345 -0.5391 -1.7402  1.5039
  138OSM   C11S14958   1.585   6.238   3.557 -0.6743  0.6743 -0.6329
  138OSM   H11S14959   1.482   6.281   3.551 -0.8505  0.2429 -0.7393
  138OSM   H11T14960   1.637   6.311   3.623 -1.6946  1.5511 -0.7719
  138OSM   C12S14961   1.589   6.099   3.617  0.1362  0.4443  0.4206
  138OSM   H12S14962   1.689   6.050   3.618 -1.0477 -2.1133  1.0119
  138OSM   H12T14963   1.521   6.030   3.563 -0.0388 -0.5334  1.8307
  138OSM   C13S14964   1.524   6.105   3.762 -0.2590  0.0865 -0.2226
  138OSM   H13S14965   1.429   6.162   3.758 -1.4355 -1.7638  0.3893
  138OSM   H13T14966   1.597   6.164   3.821 -0.8676  2.5473 -1.7655
  138OSM   C14S14967   1.487   5.967   3.828 -0.2468 -0.6816 -0.0548
  138OSM   H14S14968   1.583   5.912   3.818  0.3813  0.3200  0.3154
  138OSM   H14T14969   1.404   5.921   3.769 -0.3191 -0.5617 -0.0472
  138OSM   C15S14970   1.448   5.972   3.976 -0.6007  0.5541 -0.5006
  138OSM   H15S14971   1.352   6.025   3.997  0.0468  1.6816 -0.3046
  138OSM   H15T14972   1.526   6.034   4.026 -0.9972  1.4822 -1.0156
  138OSM   C16S14973   1.428   5.831   4.039  0.3366  0.1717  0.2119
  138OSM   H16S14974   1.523   5.774   4.044  0.2096 -0.0388  0.2473
  138OSM   H16T14975   1.366   5.764   3.975 -0.1782  1.0625 -0.2408
  138OSM   C17S14976   1.374   5.836   4.180  0.5691 -0.3141 -0.0291
  138OSM   H17S14977   1.277   5.886   4.157  1.3417  0.6578 -1.2861
  138OSM   H17T14978   1.418   5.907   4.252 -5.2029  2.3476  1.4235
  138OSM   C18S14979   1.362   5.696   4.233 -0.2473  0.1886  0.0111
  138OSM   H18S14980   1.459   5.645   4.250 -0.9336 -2.2613 -2.6646
  138OSM   H18T14981   1.299   5.644   4.159 -2.9747  3.1098  0.0856
  138OSM   H18U14982   1.308   5.693   4.331  0.9442 -1.8320  0.6744
  138OSM    C1F14983   1.804   6.164   2.458  0.1392 -1.0945  0.2062
  138OSM     OF14984   1.864   6.226   2.371  0.0690  0.6718  0.4767
  138OSM    C2F14985   1.851   6.029   2.497  0.5066  0.2083 -0.2551
  138OSM    H2F14986   1.822   5.967   2.410 -1.0411  1.0844 -0.4063
  138OSM    H2G14987   1.791   5.996   2.585 -1.8429  1.3918 -1.3275
  138OSM    C3F14988   2.000   6.010   2.534 -0.1364 -0.2136 -0.0348
  138OSM    H3F14989   2.068   6.025   2.448  1.4664 -1.5439  0.9321
  138OSM    H3G14990   2.016   5.902   2.553 -0.4800 -0.1771  0.5065
  138OSM    C4F14991   2.040   6.089   2.654 -0.7571  0.1589 -0.5850
  138OSM    H4F14992   2.018   6.197   2.639  2.6525  1.2170  1.0005
  138OSM    H4G14993   2.150   6.085   2.669 -0.7203  1.7705 -0.3276
  138OSM    C5F14994   1.983   6.045   2.781  0.4727  0.4007 -0.3112
  138OSM    H5F14995   1.980   5.936   2.804 -1.7608  0.5774  0.5155
  138OSM    H5G14996   1.876   6.074   2.775 -0.7207 -2.9796  1.7926
  138OSM    C6F14997   2.059   6.110   2.902 -0.2656 -0.8093  0.5951
  138OSM    H6F14998   2.039   6.219   2.897  0.0350 -0.7738  0.0733
  138OSM    H6G14999   2.169   6.094   2.893  0.0764  1.5682 -0.0899
  138OSM    C7F15000   2.004   6.049   3.032  0.1367  0.4053  0.1211
  138OSM    H7F15001   2.024   5.941   3.044 -3.1493 -0.0895  2.6895
  138OSM    H7G15002   1.894   6.041   3.017  0.1146  0.8685  0.0181
  138OSM    C8F15003   2.035   6.127   3.166  0.3199  0.3109 -0.0379
  138OSM    H8F15004   1.971   6.100   3.253  0.9863  2.0020  1.0416
  138OSM    H8G15005   2.037   6.232   3.129  1.1052 -0.2536 -1.6612
  138OSM    C9F15006   2.183   6.114   3.205 -0.0378  0.4711 -0.0205
  138OSM    H9F15007   2.239   6.032   3.158  1.1070  1.1961  0.0339
  138OSM   C10F15008   2.243   6.179   3.308 -0.2402  0.1365 -0.9342
  138OSM   H10F15009   2.353   6.170   3.314 -0.2637 -1.6901 -2.4211
  138OSM   C11F15010   2.188   6.307   3.374  0.2994 -0.2925  0.0066
  138OSM   H11F15011   2.080   6.327   3.357  0.1538  2.0269  2.8402
  138OSM   H11G15012   2.240   6.394   3.331 -0.4704 -0.2603 -0.8969
  138OSM   C12F15013   2.206   6.317   3.527 -0.2355  0.3672  0.3912
  138OSM   H12F15014   2.166   6.414   3.563  0.1243  0.0500  1.7160
  138OSM   H12G15015   2.314   6.317   3.556  0.0112 -0.1045 -0.5063
  138OSM   C13F15016   2.113   6.217   3.599  0.1617 -0.4114 -0.7007
  138OSM   H13F15017   2.152   6.113   3.603 -0.0141 -0.4709 -0.4821
  138OSM   H13G15018   2.021   6.207   3.537  0.0987 -0.8431 -0.5481
  138OSM   C14F15019   2.070   6.274   3.744 -0.1612 -0.4883 -0.6016
  138OSM   H14F15020   1.972   6.230   3.773 -0.9792  1.9754  0.6889
  138OSM   H14G15021   2.039   6.381   3.734  1.4293 -0.1250 -2.0932
  138OSM   C15F15022   2.170   6.255   3.852  0.0244  0.0112  0.1089
  138OSM   H15F15023   2.273   6.289   3.830  1.8883 -3.1816  2.8357
  138OSM   H15G15024   2.182   6.145   3.868 -1.0625  0.1073  1.8430
  138OSM   C16F15025   2.123   6.311   3.986  1.2462  0.3692 -0.6322
  138OSM   H16F15026   2.185   6.263   4.064 -0.3282  0.6947  0.8668
  138OSM   H16G15027   2.031   6.251   3.997  1.5724 -0.5142 -2.2767
  138OSM   C17F15028   2.119   6.464   3.998  0.7030  0.2318 -1.1181
  138OSM   H17F15029   2.124   6.498   4.104  2.4181 -1.1429 -0.7160
  138OSM   H17G15030   2.027   6.508   3.955  1.4542  3.5106  0.2897
  138OSM   C18F15031   2.236   6.532   3.926 -0.1637  0.1891 -0.5573
  138OSM   H18F15032   2.230   6.643   3.937  1.8529  0.5207 -2.0929
  138OSM   H18G15033   2.218   6.523   3.817 -0.0804  0.4641 -0.5962
  138OSM   H18H15034   2.330   6.482   3.958 -0.1244  0.6135  0.0095
  139OSM      N15035   3.388   2.866   2.003 -0.0126 -0.0459 -0.0213
  139OSM    C1515036   3.454   2.746   1.956  0.0946  0.0352 -0.3107
  139OSM   H15A15037   3.428   2.664   2.020  2.1061 -0.7723 -0.4694
  139OSM   H15B15038   3.561   2.747   1.970 -0.1570  0.2543  1.9073
  139OSM   H15C15039   3.433   2.720   1.853 -0.0116  0.1644 -0.3212
  139OSM    C1415040   3.431   2.891   2.140  0.9995 -0.0369 -0.9142
  139OSM   H14A15041   3.413   2.805   2.203 -0.8197  1.1895  0.3295
  139OSM   H14B15042   3.365   2.969   2.174 -0.2011 -2.3757  2.7812
  139OSM   H14C15043   3.531   2.930   2.156  0.9601 -0.6787  1.1770
  139OSM    C1315044   3.438   2.974   1.920 -0.2003 -0.6769  0.1677
  139OSM   H13A15045   3.418   2.973   1.814  0.3741 -1.6933  0.0564
  139OSM   H13B15046   3.545   2.982   1.930 -0.1852  1.5838 -1.1530
  139OSM   H13C15047   3.398   3.073   1.939  0.6066 -0.4328  0.6450
  139OSM    C1215048   3.238   2.853   1.994 -0.8159  0.5443 -0.3535
  139OSM   H12A15049   3.205   2.759   2.036 -1.0587  0.1385 -1.4068
  139OSM   H12B15050   3.211   2.863   1.889 -0.7876  2.7225 -0.1908
  139OSM    C1115051   3.153   2.962   2.054 -0.8862 -0.5908  0.4571
  139OSM   H11A15052   3.186   3.060   2.014  2.5245 -1.4662  0.8594
  139OSM   H11B15053   3.167   2.962   2.164 -1.3778 -0.8249  0.5220
  139OSM      P15054   2.896   2.996   2.100 -0.1601  0.2853  0.3013
  139OSM    O1315055   2.843   3.120   2.029 -0.2889  0.0621  0.3043
  139OSM    O1415056   2.797   2.888   2.109  0.0476  0.0761 -0.0650
  139OSM    O1115057   2.945   3.034   2.243 -0.0034  0.0753 -0.4656
  139OSM    O1215058   3.014   2.943   2.025 -0.1235  0.6336  0.1939
  139OSM    C1S15059   3.015   3.156   2.264 -0.7688 -0.1866  0.2409
  139OSM    H1S15060   2.953   3.243   2.231  0.5191  0.8188  0.4181
  139OSM    H1T15061   3.108   3.165   2.204 -1.4335 -1.4548 -1.0618
  139OSM     NF15062   3.103   3.326   2.405 -0.5690  0.2338  0.5753
  139OSM    HNF15063   3.200   3.350   2.405 -0.4513 -0.2399  0.8488
  139OSM    C2S15064   3.052   3.193   2.412  0.0943  1.2870  0.5319
  139OSM    H2S15065   2.960   3.184   2.473 -0.4624 -2.2824 -0.6051
  139OSM    C3S15066   3.159   3.088   2.459  0.1369  0.0023  0.0864
  139OSM    H3S15067   3.256   3.096   2.407 -0.5325  2.1112 -0.9401
  139OSM     O315068   3.103   2.960   2.460  0.2055 -0.3647  0.2648
  139OSM    HO315069   3.015   2.978   2.427 -0.0680 -3.2706 -0.9026
  139OSM    C4S15070   3.180   3.121   2.605 -0.3307  0.2937 -0.6529
  139OSM    H4S15071   3.108   3.076   2.675 -0.1797 -0.6731 -1.1011
  139OSM    C5S15072   3.283   3.194   2.658 -0.1996  0.0916 -0.1175
  139OSM    H5S15073   3.362   3.225   2.588  1.1761  0.5238  1.5614
  139OSM    C6S15074   3.297   3.219   2.805  0.0149 -0.1708 -0.1700
  139OSM    H6S15075   3.203   3.264   2.842 -0.5413 -1.5289  0.1132
  139OSM    H6T15076   3.383   3.287   2.823 -0.0148 -0.2583  0.3098
  139OSM    C7S15077   3.328   3.089   2.878 -0.2316 -0.5935 -0.3083
  139OSM    H7S15078   3.419   3.035   2.843  1.5035  0.4151  2.4283
  139OSM    H7T15079   3.249   3.012   2.858  1.5400 -2.9463  1.1900
  139OSM    C8S15080   3.349   3.112   3.023 -0.0861 -0.7059  0.1913
  139OSM    H8S15081   3.264   3.154   3.081  0.9096  0.6380  0.7342
  139OSM    H8T15082   3.424   3.191   3.046 -1.3930 -0.0156  2.3849
  139OSM    C9S15083   3.388   2.988   3.099  0.6285 -0.2088  1.6374
  139OSM    H9S15084   3.478   2.947   3.049 -0.9291 -1.0350 -0.6783
  139OSM    H9T15085   3.307   2.914   3.082 -1.0082  1.7599  0.3207
  139OSM   C10S15086   3.407   3.019   3.244 -0.4103 -0.4855 -0.1159
  139OSM   H10S15087   3.316   3.033   3.306 -1.2723 -0.2541 -1.4018
  139OSM   H10T15088   3.456   3.119   3.254 -0.9621 -0.3625  1.6404
  139OSM   C11S15089   3.488   2.922   3.327  0.0566 -0.4750 -0.3817
  139OSM   H11S15090   3.583   2.889   3.280  0.4411 -0.6131  0.4673
  139OSM   H11T15091   3.425   2.833   3.342  1.0161 -0.9520  1.0657
  139OSM   C12S15092   3.530   2.970   3.471  0.1375 -0.1765 -0.1270
  139OSM   H12S15093   3.442   3.005   3.528  1.2363 -0.0246  1.5250
  139OSM   H12T15094   3.612   3.045   3.468 -0.2363  0.2923  0.8147
  139OSM   C13S15095   3.586   2.849   3.550 -0.2868 -0.4340 -0.4295
  139OSM   H13S15096   3.676   2.816   3.493 -0.4570  1.1148 -1.6462
  139OSM   H13T15097   3.510   2.770   3.568 -2.8940  2.3730  2.2182
  139OSM   C14S15098   3.620   2.899   3.696  0.1016  0.5312  0.1070
  139OSM   H14S15099   3.652   3.005   3.685  1.8756  0.0904  0.6047
  139OSM   H14T15100   3.705   2.836   3.728 -1.6480 -1.3414  1.3052
  139OSM   C15S15101   3.500   2.874   3.789 -0.9437  0.0968  0.1698
  139OSM   H15S15102   3.478   2.766   3.772 -0.0713 -0.1753  0.6672
  139OSM   H15T15103   3.416   2.944   3.769 -0.5826  0.1844 -1.1201
  139OSM   C16S15104   3.542   2.892   3.937 -0.1690 -0.2608  0.1795
  139OSM   H16S15105   3.621   2.969   3.930 -1.0654  0.6413 -0.3561
  139OSM   H16T15106   3.579   2.792   3.969 -1.1673 -1.3782 -1.9034
  139OSM   C17S15107   3.428   2.949   4.035 -0.6671  1.2832 -0.2931
  139OSM   H17S15108   3.356   2.866   4.053  1.1977 -0.8523 -2.0534
  139OSM   H17T15109   3.376   3.036   3.990 -0.9203  0.2064 -2.1915
  139OSM   C18S15110   3.493   2.989   4.169 -0.4545 -0.7394 -1.4700
  139OSM   H18S15111   3.556   2.905   4.205  3.4288  2.6484  0.3622
  139OSM   H18T15112   3.412   3.020   4.239  1.2863  2.3069 -0.6544
  139OSM   H18U15113   3.562   3.074   4.152 -1.3671  0.4821  0.5485
  139OSM    C1F15114   3.012   3.428   2.398  0.3854 -0.6018 -0.2835
  139OSM     OF15115   2.887   3.419   2.388 -0.2084  0.3249 -0.4803
  139OSM    C2F15116   3.082   3.561   2.391  0.3742 -0.4044  0.9283
  139OSM    H2F15117   3.049   3.619   2.303  1.5582  0.2194  0.8814
  139OSM    H2G15118   3.191   3.546   2.385  0.4123 -1.1773  2.7471
  139OSM    C3F15119   3.066   3.651   2.514  0.2529  0.1874 -0.1196
  139OSM    H3F15120   2.957   3.668   2.525 -0.1621 -2.2738  0.2211
  139OSM    H3G15121   3.108   3.753   2.504 -1.7249  1.5396  3.3142
  139OSM    C4F15122   3.131   3.585   2.639 -0.1170  0.2297 -0.0360
  139OSM    H4F15123   3.239   3.566   2.624  0.2311  2.3260 -0.4341
  139OSM    H4G15124   3.092   3.481   2.642 -0.7467  0.4372 -0.5773
  139OSM    C5F15125   3.117   3.656   2.771 -0.3548  0.6010 -0.2468
  139OSM    H5F15126   3.009   3.670   2.795  0.0830  1.8478  1.0877
  139OSM    H5G15127   3.173   3.751   2.763 -1.7447  1.4925  0.2049
  139OSM    C6F15128   3.178   3.574   2.887  0.1397  0.1389 -0.2868
  139OSM    H6F15129   3.284   3.549   2.864 -0.3340 -1.0679 -1.2859
  139OSM    H6G15130   3.124   3.477   2.898 -2.1170  1.1744 -1.5137
  139OSM    C7F15131   3.178   3.646   3.020  1.1221 -0.0851  0.7336
  139OSM    H7F15132   3.081   3.681   3.063  0.2688  0.4145 -1.4908
  139OSM    H7G15133   3.248   3.732   3.024  2.7162 -1.3564  1.4284
  139OSM    C8F15134   3.220   3.547   3.132 -0.2035  0.4470  0.6060
  139OSM    H8F15135   3.322   3.520   3.099 -0.2040 -1.0382  1.7101
  139OSM    H8G15136   3.159   3.455   3.118  2.6983 -1.6781  0.9546
  139OSM    C9F15137   3.222   3.593   3.276  0.6508  0.2149 -0.2106
  139OSM    H9F15138   3.157   3.680   3.294 -0.8040 -1.2612  2.2468
  139OSM   C10F15139   3.312   3.553   3.368  0.4386  0.3779  0.1940
  139OSM   H10F15140   3.302   3.589   3.471  3.2812 -0.1084  0.7220
  139OSM   C11F15141   3.415   3.444   3.346  0.0946 -0.5540  0.1347
  139OSM   H11F15142   3.507   3.494   3.310  0.7139 -0.9937  1.0834
  139OSM   H11G15143   3.385   3.382   3.258  2.7549  1.1461 -2.1145
  139OSM   C12F15144   3.443   3.351   3.461 -0.5553  0.5519 -0.3893
  139OSM   H12F15145   3.523   3.282   3.428  1.1395  2.3662 -0.2974
  139OSM   H12G15146   3.347   3.302   3.489 -0.1803 -0.0475 -0.1362
  139OSM   C13F15147   3.507   3.436   3.570  0.3172 -0.5507 -0.6453
  139OSM   H13F15148   3.430   3.498   3.622  1.3982  0.4690 -0.2170
  139OSM   H13G15149   3.597   3.485   3.527  0.4477 -0.4557 -0.2640
  139OSM   C14F15150   3.567   3.348   3.678  0.4499 -0.4595 -0.4397
  139OSM   H14F15151   3.661   3.310   3.632  0.7221 -0.8121  0.3881
  139OSM   H14G15152   3.491   3.274   3.711 -2.4457  1.9248 -1.3348
  139OSM   C15F15153   3.613   3.428   3.806 -0.2251 -0.4322 -0.0052
  139OSM   H15F15154   3.525   3.467   3.861  0.9758  0.5966  1.2645
  139OSM   H15G15155   3.687   3.506   3.779  1.8671 -2.0178  0.8669
  139OSM   C16F15156   3.689   3.336   3.897 -0.4751 -0.1476 -0.7351
  139OSM   H16F15157   3.778   3.298   3.843  1.0372  0.8910  0.9101
  139OSM   H16G15158   3.630   3.244   3.917  1.4456 -1.2816 -0.0068
  139OSM   C17F15159   3.743   3.408   4.022 -0.8337  0.3129 -0.4640
  139OSM   H17F15160   3.650   3.433   4.078 -1.6659  0.1125 -1.7089
  139OSM   H17G15161   3.790   3.503   3.988  0.9247 -0.5936 -0.6595
  139OSM   C18F15162   3.850   3.331   4.104  0.1487 -0.2431  0.2680
  139OSM   H18F15163   3.875   3.403   4.184 -1.9038  0.7464  0.0695
  139OSM   H18G15164   3.934   3.296   4.041 -1.3005  0.2141 -2.0667
  139OSM   H18H15165   3.811   3.241   4.158  0.4054 -1.1948 -1.0772
  140OSM      N15166   1.033   1.292   2.645 -0.5675  0.4840 -0.9397
  140OSM    C1515167   0.982   1.291   2.506 -0.2800 -0.0694  0.0345
  140OSM   H15A15168   0.874   1.293   2.502 -0.4890 -0.3159  3.1579
  140OSM   H15B15169   1.022   1.198   2.468  0.9281  0.0704  0.9024
  140OSM   H15C15170   1.024   1.372   2.447  0.6651 -0.6730 -0.1408
  140OSM    C1415171   1.187   1.293   2.638 -0.1082 -0.0302 -0.1992
  140OSM   H14A15172   1.227   1.329   2.731  0.1413  2.6001 -1.2399
  140OSM   H14B15173   1.218   1.355   2.555 -0.5007 -2.0871 -1.9544
  140OSM   H14C15174   1.215   1.189   2.631 -0.7010 -0.3187  1.2909
  140OSM    C1315175   0.978   1.416   2.722  0.0443 -0.9793  0.5659
  140OSM   H13A15176   0.871   1.423   2.710  0.2394  0.8996 -0.3591
  140OSM   H13B15177   1.034   1.503   2.692  0.5850 -1.8172 -0.9534
  140OSM   H13C15178   0.994   1.412   2.829 -2.1563 -0.2601  0.9565
  140OSM    C1215179   0.989   1.163   2.715  0.1869  0.3206 -0.6068
  140OSM   H12A15180   0.887   1.177   2.748  0.5419 -1.0615  1.2446
  140OSM   H12B15181   1.040   1.169   2.811 -0.2709 -1.0324 -0.2529
  140OSM    C1115182   0.992   1.027   2.648 -0.2298  0.0516  0.2372
  140OSM   H11A15183   0.909   1.001   2.579 -0.1446 -0.2825  0.2543
  140OSM   H11B15184   0.970   0.966   2.739 -3.0018  0.3040 -0.1673
  140OSM      P15185   1.145   0.862   2.518 -0.2083  0.0625  0.1992
  140OSM    O1315186   1.036   0.831   2.421  0.1574  0.5333  0.5160
  140OSM    O1415187   1.283   0.855   2.459 -0.0028 -0.4627 -0.4319
  140OSM    O1115188   1.135   0.764   2.637 -0.1305 -0.4155 -0.5864
  140OSM    O1215189   1.116   1.005   2.580 -0.2018  0.4827 -0.4994
  140OSM    C1S15190   1.244   0.757   2.735  0.8306  0.5017 -0.3583
  140OSM    H1S15191   1.243   0.853   2.790 -1.7868  0.1171  0.4355
  140OSM    H1T15192   1.347   0.744   2.697  0.6370  0.9100 -1.0485
  140OSM     NF15193   1.290   0.644   2.959  0.0971  0.3404  0.0288
  140OSM    HNF15194   1.369   0.583   2.959  0.5570  0.9114 -0.7124
  140OSM    C2S15195   1.211   0.650   2.838  0.0822  0.6724 -0.2033
  140OSM    H2S15196   1.103   0.668   2.860  0.3398  1.0667  0.7651
  140OSM    C3S15197   1.205   0.513   2.761  0.3188  0.1687  0.1280
  140OSM    H3S15198   1.307   0.486   2.727  1.0802  2.1543  0.6827
  140OSM     O315199   1.112   0.512   2.649  0.1151  0.0656 -0.4740
  140OSM    HO315200   1.111   0.607   2.637  1.3320  0.4675  1.8989
  140OSM    C4S15201   1.175   0.402   2.863  0.3902  0.1941  0.6906
  140OSM    H4S15202   1.261   0.337   2.883  1.2352  1.3025  0.7167
  140OSM    C5S15203   1.057   0.360   2.918  0.5319  0.4398 -0.1175
  140OSM    H5S15204   0.963   0.412   2.891  1.1127 -0.1824 -3.7586
  140OSM    C6S15205   1.039   0.245   3.015  0.0524 -0.2675  0.8811
  140OSM    H6S15206   1.051   0.151   2.956 -4.0527 -0.4463  0.0529
  140OSM    H6T15207   0.932   0.239   3.042 -0.6169  1.8408 -0.9441
  140OSM    C7S15208   1.140   0.249   3.132  0.4179  0.2754 -0.1639
  140OSM    H7S15209   1.240   0.204   3.113  0.6632 -0.4710  2.4406
  140OSM    H7T15210   1.102   0.166   3.196 -0.3037 -0.8263 -1.9422
  140OSM    C8S15211   1.160   0.376   3.217  0.6064  0.0286  0.4800
  140OSM    H8S15212   1.058   0.419   3.224 -0.9726 -3.0872 -1.1731
  140OSM    H8T15213   1.223   0.442   3.153  0.6659 -0.0610  0.4454
  140OSM    C9S15214   1.223   0.343   3.350  0.2301 -1.0028 -0.3521
  140OSM    H9S15215   1.279   0.431   3.388 -0.6141  0.0718 -1.5195
  140OSM    H9T15216   1.300   0.264   3.335  1.9846  0.9805 -2.6137
  140OSM   C10S15217   1.117   0.307   3.453 -0.2033  0.1804  0.4329
  140OSM   H10S15218   1.064   0.217   3.415  1.1085 -1.0834  1.4600
  140OSM   H10T15219   1.047   0.393   3.453 -0.0051  0.3401 -0.1141
  140OSM   C11S15220   1.174   0.284   3.588 -0.2727 -0.0889  0.0357
  140OSM   H11S15221   1.248   0.360   3.622 -0.1628 -0.0820 -0.2097
  140OSM   H11T15222   1.234   0.191   3.585  0.5309  0.4230 -0.1868
  140OSM   C12S15223   1.066   0.275   3.696 -0.2053  0.1292  0.3761
  140OSM   H12S15224   0.988   0.197   3.688  1.0758 -1.2104  0.6793
  140OSM   H12T15225   1.005   0.369   3.693 -1.9329 -0.9715 -1.5530
  140OSM   C13S15226   1.122   0.286   3.845 -0.0690  0.5071  0.1883
  140OSM   H13S15227   1.206   0.357   3.849  0.7722 -0.4474 -0.0575
  140OSM   H13T15228   1.169   0.192   3.881  0.8076  0.9636  0.2429
  140OSM   C14S15229   1.019   0.318   3.952  0.6318  0.2610  0.6797
  140OSM   H14S15230   0.935   0.244   3.942  1.2646 -0.6277  1.7615
  140OSM   H14T15231   0.966   0.413   3.931  0.8634  0.4640  1.0124
  140OSM   C15S15232   1.065   0.329   4.095 -0.0436 -0.5855 -0.4206
  140OSM   H15S15233   1.137   0.413   4.104  0.0571 -0.8486  1.7818
  140OSM   H15T15234   1.108   0.235   4.134  0.7566  1.3555  3.9348
  140OSM   C16S15235   0.956   0.364   4.203  0.2649 -0.3329 -0.5024
  140OSM   H16S15236   0.879   0.286   4.217 -0.1847  0.2136  0.1239
  140OSM   H16T15237   0.898   0.455   4.174 -0.9900 -1.0664 -0.3536
  140OSM   C17S15238   1.017   0.388   4.342 -0.3261 -0.5251  0.5603
  140OSM   H17S15239   1.091   0.471   4.334 -2.2898  1.1805 -1.2346
  140OSM   H17T15240   1.072   0.296   4.372  1.0350  0.1882  0.3656
  140OSM   C18S15241   0.914   0.415   4.443  0.4622  0.0412  0.1058
  140OSM   H18S15242   0.852   0.500   4.409  0.9039  0.1587 -0.4176
  140OSM   H18T15243   0.967   0.441   4.538 -2.1626  2.3903  1.0770
  140OSM   H18U15244   0.848   0.327   4.453  1.4280 -0.8696 -1.1882
  140OSM    C1F15245   1.274   0.724   3.060  0.0367 -0.7115 -0.6247
  140OSM     OF15246   1.177   0.803   3.067  0.9498 -0.4591  0.4942
  140OSM    C2F15247   1.378   0.721   3.171  0.7771 -0.6012  0.7370
  140OSM    H2F15248   1.459   0.793   3.148  0.8566  0.1632  3.2045
  140OSM    H2G15249   1.424   0.620   3.168 -1.0321 -1.4494 -0.5456
  140OSM    C3F15250   1.314   0.752   3.308  0.7773 -0.1475  0.4448
  140OSM    H3F15251   1.217   0.698   3.307  2.5189 -3.5212 -0.2421
  140OSM    H3G15252   1.300   0.862   3.316  0.2013 -0.0333 -1.6200
  140OSM    C4F15253   1.397   0.698   3.424 -0.2877  0.8380  0.7527
  140OSM    H4F15254   1.483   0.768   3.433  0.4840 -0.2193  1.9307
  140OSM    H4G15255   1.435   0.595   3.408 -0.5351  1.0463 -1.4560
  140OSM    C5F15256   1.322   0.703   3.558 -0.2722  1.1184 -0.1546
  140OSM    H5F15257   1.254   0.616   3.567 -1.1198  1.6196 -1.4320
  140OSM    H5G15258   1.258   0.794   3.550 -1.2672  0.2916 -3.5195
  140OSM    C6F15259   1.422   0.718   3.685 -0.3483  0.2211 -0.6790
  140OSM    H6F15260   1.459   0.823   3.682  2.0988 -0.6088 -2.6295
  140OSM    H6G15261   1.497   0.637   3.673 -2.2087 -2.1726  2.4201
  140OSM    C7F15262   1.327   0.706   3.810 -0.3009  0.5936  0.1427
  140OSM    H7F15263   1.239   0.642   3.789  0.0836  0.6109 -1.6679
  140OSM    H7G15264   1.303   0.806   3.853  0.7625  0.9855 -0.1487
  140OSM    C8F15265   1.410   0.641   3.918 -0.5957 -0.0209  0.0650
  140OSM    H8F15266   1.509   0.692   3.914 -1.1283  0.9378 -1.5120
  140OSM    H8G15267   1.421   0.532   3.897  0.5337 -0.2411  1.5713
  140OSM    C9F15268   1.351   0.644   4.056  0.2101  0.6112 -0.2142
  140OSM    H9F15269   1.296   0.554   4.087  1.4850  0.0146  0.3905
  140OSM   C10F15270   1.363   0.746   4.137  0.1923 -0.7282 -0.4028
  140OSM   H10F15271   1.323   0.743   4.239  2.0955  0.2957  0.4313
  140OSM   C11F15272   1.435   0.880   4.108  0.4553  0.2082 -0.1926
  140OSM   H11F15273   1.493   0.870   4.013 -1.4274 -0.4389 -1.3454
  140OSM   H11G15274   1.508   0.888   4.191  1.2941  0.6764 -0.9583
  140OSM   C12F15275   1.345   1.011   4.079 -0.3879  0.4590  0.0587
  140OSM   H12F15276   1.315   1.050   4.178 -4.1545  0.0127 -0.7502
  140OSM   H12G15277   1.251   0.979   4.028 -0.0663 -0.2184 -0.1166
  140OSM   C13F15278   1.412   1.127   4.007  0.2051  0.1648 -0.1793
  140OSM   H13F15279   1.505   1.156   4.060  1.3503 -1.5767 -1.0985
  140OSM   H13G15280   1.350   1.218   4.009  1.4350  1.0389  2.1974
  140OSM   C14F15281   1.452   1.102   3.859  0.8090  0.4193  1.0299
  140OSM   H14F15282   1.363   1.050   3.816  1.0632  1.1164 -0.3918
  140OSM   H14G15283   1.538   1.035   3.840  1.9092  1.3386  2.6201
  140OSM   C15F15284   1.451   1.232   3.779 -0.5011 -0.9667 -0.0852
  140OSM   H15F15285   1.519   1.313   3.813 -0.2332 -0.1993 -2.2525
  140OSM   H15G15286   1.350   1.275   3.763 -0.0199  0.4333  0.5265
  140OSM   C16F15287   1.494   1.212   3.631  0.3862  0.8724  0.2129
  140OSM   H16F15288   1.597   1.172   3.634  0.0763 -0.0772 -0.9026
  140OSM   H16G15289   1.496   1.312   3.583 -2.9021  0.7752 -0.3612
  140OSM   C17F15290   1.403   1.119   3.554  0.1129  0.4067 -0.3119
  140OSM   H17F15291   1.293   1.136   3.555 -0.1873 -1.3405 -0.9252
  140OSM   H17G15292   1.422   1.018   3.595  0.4400  0.9483  0.9222
  140OSM   C18F15293   1.449   1.131   3.405  0.3539 -0.3821 -0.1934
  140OSM   H18F15294   1.384   1.056   3.355  0.1661 -0.9464  0.8490
  140OSM   H18G15295   1.555   1.098   3.396  0.0369 -1.5410  0.1095
  140OSM   H18H15296   1.440   1.231   3.358  0.7454 -0.1298  0.2535
  141OSM      N15297   1.271   3.854   2.177  0.0336 -0.2469  0.8860
  141OSM    C1515298   1.182   3.973   2.212 -0.5389  0.8423  0.6223
  141OSM   H15A15299   1.250   4.049   2.249  0.9021 -0.5068  0.8214
  141OSM   H15B15300   1.116   3.946   2.292  0.5739  0.8908  1.5851
  141OSM   H15C15301   1.124   4.011   2.129  0.2096 -0.4602 -0.5446
  141OSM    C1415302   1.340   3.800   2.294  0.1195 -0.0769 -0.0837
  141OSM   H14A15303   1.270   3.804   2.376 -0.3880 -2.4385 -0.3335
  141OSM   H14B15304   1.425   3.864   2.312  1.1573 -1.0312 -1.3584
  141OSM   H14C15305   1.373   3.699   2.277  1.8068  0.7922 -2.5455
  141OSM    C1315306   1.171   3.746   2.125  0.0795 -0.3048  0.0192
  141OSM   H13A15307   1.216   3.651   2.098 -2.2771 -0.7886 -2.6102
  141OSM   H13B15308   1.118   3.786   2.041  2.0079  3.5591  0.4367
  141OSM   H13C15309   1.096   3.739   2.202  0.0805 -1.4210 -0.0603
  141OSM    C1215310   1.362   3.888   2.062  0.1743 -0.5322  0.1168
  141OSM   H12A15311   1.299   3.938   1.990  2.0370  0.0300 -1.1926
  141OSM   H12B15312   1.390   3.792   2.021 -0.4199 -0.7905  0.3111
  141OSM    C1115313   1.482   3.982   2.086 -0.4625 -0.2256  0.3942
  141OSM   H11A15314   1.539   3.985   1.990  0.8575 -1.9224  1.0605
  141OSM   H11B15315   1.549   3.935   2.161  0.4942  2.2600  1.1664
  141OSM      P15316   1.433   4.233   2.050  0.3767 -0.0943  0.2562
  141OSM    O1315317   1.548   4.248   1.961 -0.2302 -0.1444  0.1419
  141OSM    O1415318   1.295   4.237   1.999  0.1085 -0.2223  0.3222
  141OSM    O1115319   1.445   4.333   2.175 -0.1261 -0.2928  0.7215
  141OSM    O1215320   1.443   4.100   2.136  0.0425  0.4366  0.2656
  141OSM    C1S15321   1.350   4.340   2.282  0.5875  0.5681 -0.5144
  141OSM    H1S15322   1.256   4.292   2.249  1.2723  0.8932 -3.1849
  141OSM    H1T15323   1.333   4.447   2.306  1.0519  0.9762 -1.8996
  141OSM     NF15324   1.293   4.283   2.531  0.5733  0.2539 -0.0733
  141OSM    HNF15325   1.305   4.336   2.615 -3.5775 -1.0136  1.5912
  141OSM    C2S15326   1.391   4.274   2.426  0.1200 -0.7046  0.3320
  141OSM    H2S15327   1.406   4.166   2.407 -2.4328 -1.5091  2.3283
  141OSM    C3S15328   1.533   4.321   2.472 -0.5460 -0.3263  0.4001
  141OSM    H3S15329   1.533   4.428   2.501  3.3869 -0.6905  2.4799
  141OSM     O315330   1.641   4.309   2.379 -0.0422  0.3664  0.1670
  141OSM    HO315331   1.600   4.269   2.301  0.0231 -2.1127  1.3225
  141OSM    C4S15332   1.562   4.250   2.605 -0.3422 -0.1845 -0.3410
  141OSM    H4S15333   1.571   4.322   2.687  0.8035 -1.2376  0.4967
  141OSM    C5S15334   1.585   4.117   2.619  0.1401 -0.4812 -0.5292
  141OSM    H5S15335   1.576   4.045   2.536 -1.5812 -2.0123  0.8731
  141OSM    C6S15336   1.590   4.050   2.752  0.6018 -0.8363 -0.0960
  141OSM    H6S15337   1.698   4.035   2.773  1.2929  2.9354 -0.3167
  141OSM    H6T15338   1.541   3.951   2.748  0.7333 -0.8567 -1.2984
  141OSM    C7S15339   1.518   4.136   2.865 -0.3118  0.5414  0.0384
  141OSM    H7S15340   1.413   4.163   2.841 -0.2322  0.2771 -0.6275
  141OSM    H7T15341   1.572   4.233   2.862  0.5854  0.0276 -0.7774
  141OSM    C8S15342   1.537   4.070   3.007  0.0372 -0.5801 -0.4355
  141OSM    H8S15343   1.639   4.089   3.048  0.1466  0.5855 -1.1946
  141OSM    H8T15344   1.527   3.960   2.999  3.0336 -0.8316 -2.2617
  141OSM    C9S15345   1.424   4.118   3.100 -0.3181 -0.5505  0.2915
  141OSM    H9S15346   1.329   4.083   3.056  0.4874 -1.5827 -0.6852
  141OSM    H9T15347   1.427   4.229   3.097  1.2871 -0.5793 -1.5892
  141OSM   C10S15348   1.445   4.083   3.250  0.8828  0.4566 -0.2759
  141OSM   H10S15349   1.547   4.125   3.266  0.4574  0.9723  1.2510
  141OSM   H10T15350   1.433   3.974   3.262 -2.3366  0.6686 -0.6651
  141OSM   C11S15351   1.350   4.155   3.349  0.2242 -0.7050  0.2648
  141OSM   H11S15352   1.246   4.117   3.342  0.5956 -1.6321 -0.5641
  141OSM   H11T15353   1.332   4.259   3.317  0.1420 -0.5316  0.8621
  141OSM   C12S15354   1.407   4.155   3.492 -0.1553 -0.4783 -0.4420
  141OSM   H12S15355   1.343   4.231   3.542  0.4882 -2.1026  3.1210
  141OSM   H12T15356   1.515   4.178   3.484  0.0280 -0.9968  0.4343
  141OSM   C13S15357   1.381   4.023   3.574  0.1835  0.1405  0.0152
  141OSM   H13S15358   1.420   3.937   3.515 -0.5793 -0.9721  1.0901
  141OSM   H13T15359   1.273   3.999   3.585  0.4256 -1.5279 -0.9287
  141OSM   C14S15360   1.436   4.027   3.719  0.1740  0.2575  0.0828
  141OSM   H14S15361   1.546   4.016   3.708  0.2508  0.9099  0.1688
  141OSM   H14T15362   1.409   3.929   3.764  0.4795  0.1193 -0.0270
  141OSM   C15S15363   1.415   4.145   3.809 -0.2245 -0.4986 -0.2390
  141OSM   H15S15364   1.306   4.164   3.820 -0.5529 -1.1679 -2.0077
  141OSM   H15T15365   1.461   4.235   3.762 -0.0960 -0.5560 -0.2218
  141OSM   C16S15366   1.493   4.143   3.941 -0.3573 -0.0172  0.3061
  141OSM   H16S15367   1.597   4.116   3.912 -1.1041 -1.0867 -1.5878
  141OSM   H16T15368   1.458   4.052   3.993  1.6235 -0.7132  0.5083
  141OSM   C17S15369   1.503   4.272   4.023 -0.2329  0.0824  0.9249
  141OSM   H17S15370   1.401   4.289   4.064 -0.1604 -0.7104  1.4501
  141OSM   H17T15371   1.528   4.354   3.953 -2.7139  0.2618  0.1526
  141OSM   C18S15372   1.598   4.269   4.140  0.4515  0.1829 -0.3413
  141OSM   H18S15373   1.540   4.229   4.226 -1.3180 -1.3068 -2.1123
  141OSM   H18T15374   1.631   4.368   4.178  2.3018 -0.4844 -0.0895
  141OSM   H18U15375   1.698   4.221   4.129  0.1676 -0.5102  0.0149
  141OSM    C1F15376   1.176   4.223   2.522 -0.1345 -0.0873  0.2714
  141OSM     OF15377   1.142   4.171   2.416  0.3609 -0.0895 -0.1813
  141OSM    C2F15378   1.088   4.231   2.646 -0.8386  0.4303  0.2318
  141OSM    H2F15379   1.014   4.311   2.625 -2.4514 -1.9783 -4.7550
  141OSM    H2G15380   1.155   4.256   2.731  1.0269 -1.7239 -0.5101
  141OSM    C3F15381   1.026   4.102   2.695 -0.0866  0.7657 -0.2340
  141OSM    H3F15382   1.112   4.043   2.733 -1.3415 -0.1390  1.3345
  141OSM    H3G15383   0.964   4.051   2.618 -1.2040 -3.0661  2.8929
  141OSM    C4F15384   0.943   4.124   2.815 -0.9293  0.2694 -0.0110
  141OSM    H4F15385   0.917   4.032   2.871  0.6162 -0.6200 -0.6709
  141OSM    H4G15386   0.857   4.189   2.788 -0.3387  1.3890  0.6892
  141OSM    C5F15387   1.015   4.206   2.929 -0.3903  0.7481  0.7490
  141OSM    H5F15388   1.004   4.312   2.896 -1.6790 -0.0194 -1.5162
  141OSM    H5G15389   1.122   4.178   2.942 -0.4299 -0.2452 -0.8395
  141OSM    C6F15390   0.943   4.197   3.060 -0.2765  1.0417  0.2947
  141OSM    H6F15391   0.958   4.097   3.104  0.0513  0.1118 -1.7996
  141OSM    H6G15392   0.834   4.208   3.044 -0.1756 -1.2164 -2.8289
  141OSM    C7F15393   0.992   4.297   3.165 -0.5871 -0.4166 -0.1757
  141OSM    H7F15394   0.963   4.395   3.120 -3.1652 -1.2081 -0.4079
  141OSM    H7G15395   1.102   4.291   3.177 -0.9293 -1.8541  3.8683
  141OSM    C8F15396   0.920   4.295   3.301  0.0199 -0.0557 -0.2703
  141OSM    H8F15397   0.811   4.296   3.277 -0.0905 -3.4499 -0.2805
  141OSM    H8G15398   0.945   4.391   3.352  1.1265 -0.0946 -0.7099
  141OSM    C9F15399   0.971   4.173   3.380 -0.0142  0.4492 -0.2477
  141OSM    H9F15400   0.988   4.081   3.322 -0.1440  0.0790  0.2962
  141OSM   C10F15401   1.004   4.180   3.509 -0.2016  0.8211 -0.6804
  141OSM   H10F15402   1.040   4.089   3.558  0.5049  1.1090 -0.6587
  141OSM   C11F15403   0.989   4.298   3.604  0.1752 -0.2704  0.5651
  141OSM   H11F15404   0.918   4.268   3.684  0.3579  1.5821  1.4809
  141OSM   H11G15405   0.947   4.388   3.554 -3.0508 -2.0267 -0.1498
  141OSM   C12F15406   1.118   4.339   3.679 -0.7024  0.1840 -0.4712
  141OSM   H12F15407   1.187   4.256   3.703 -0.7617 -0.3498 -2.0193
  141OSM   H12G15408   1.081   4.383   3.774  1.3640  0.0746  0.4314
  141OSM   C13F15409   1.201   4.450   3.600 -0.0419 -0.1848 -0.2243
  141OSM   H13F15410   1.130   4.526   3.561 -0.5150  0.6007  2.0404
  141OSM   H13G15411   1.245   4.399   3.512  0.3001  1.4513 -1.0376
  141OSM   C14F15412   1.315   4.521   3.679  0.3692 -0.5035  0.5060
  141OSM   H14F15413   1.380   4.564   3.600  1.3900 -1.1571  0.9758
  141OSM   H14G15414   1.380   4.451   3.735  1.2614  0.7840  1.1412
  141OSM   C15F15415   1.277   4.623   3.788 -0.3704  0.2081  0.2901
  141OSM   H15F15416   1.239   4.560   3.871  1.7896 -0.8944  0.4982
  141OSM   H15G15417   1.194   4.669   3.730 -0.7448 -3.9174 -2.9182
  141OSM   C16F15418   1.386   4.711   3.853  0.3979  0.0916  0.4879
  141OSM   H16F15419   1.434   4.767   3.770  1.3447 -0.8970  0.3433
  141OSM   H16G15420   1.470   4.652   3.895  0.3170 -1.0494 -0.9109
  141OSM   C17F15421   1.335   4.800   3.965  0.4243  0.6577 -0.3731
  141OSM   H17F15422   1.417   4.863   4.006  0.2992  0.5568  0.0404
  141OSM   H17G15423   1.291   4.745   4.051  0.5202  2.3022  0.7863
  141OSM   C18F15424   1.228   4.903   3.925  0.6955 -0.5467 -0.1247
  141OSM   H18F15425   1.220   4.976   4.008  1.7810 -1.3219  0.7062
  141OSM   H18G15426   1.128   4.859   3.911  1.2182 -1.8446  0.0817
  141OSM   H18H15427   1.254   4.967   3.838  0.4952  1.2212  1.0762
  142OSM      N15428   3.091   5.810   2.180  0.6425 -0.1735 -0.2614
  142OSM    C1515429   3.112   5.827   2.030  0.0798 -0.1607  0.1127
  142OSM   H15A15430   3.027   5.878   1.987 -1.4930 -1.3989  1.5588
  142OSM   H15B15431   3.115   5.727   1.989 -4.7053  0.0120 -1.2461
  142OSM   H15C15432   3.206   5.877   2.015  1.5165 -2.7867 -0.1559
  142OSM    C1415433   3.033   5.943   2.221  0.4416 -0.0853  0.6374
  142OSM   H14A15434   3.103   6.025   2.213 -0.3386  0.5701  0.3453
  142OSM   H14B15435   2.998   5.957   2.322  0.2264  1.5285  0.3645
  142OSM   H14C15436   2.948   5.965   2.158  0.3421 -1.7054  0.1671
  142OSM    C1315437   2.980   5.709   2.207 -0.2521 -0.2171 -0.2012
  142OSM   H13A15438   2.897   5.731   2.142 -1.3125 -0.4201  1.0587
  142OSM   H13B15439   2.928   5.704   2.301  0.4159  0.0563  0.1873
  142OSM   H13C15440   3.011   5.609   2.179 -0.6750 -1.2473  2.7232
  142OSM    C1215441   3.212   5.791   2.273  0.8646 -0.5211 -0.6757
  142OSM   H12A15442   3.244   5.688   2.265 -1.5559 -1.7054  2.5117
  142OSM   H12B15443   3.181   5.794   2.377  2.9364  1.9129 -0.0330
  142OSM    C1115444   3.336   5.885   2.267 -0.0793  0.0622  0.5182
  142OSM   H11A15445   3.378   5.914   2.168  0.3990  1.8727  1.2036
  142OSM   H11B15446   3.414   5.834   2.327  2.4002  1.2080 -1.5648
  142OSM      P15447   3.346   6.146   2.288  0.1300  0.2029  0.0572
  142OSM    O1315448   3.477   6.140   2.209 -0.2373 -0.3510 -0.0299
  142OSM    O1415449   3.233   6.231   2.240  0.4458  0.1495 -0.3164
  142OSM    O1115450   3.398   6.200   2.432  0.7729  0.6512  0.8452
  142OSM    O1215451   3.290   6.006   2.331  0.3024 -0.0676 -0.4897
  142OSM    C1S15452   3.289   6.218   2.524  0.2916 -0.4253  0.1189
  142OSM    H1S15453   3.234   6.123   2.537  0.8373 -0.9251 -1.0335
  142OSM    H1T15454   3.228   6.305   2.491  3.2401  1.2671 -1.2672
  142OSM     NF15455   3.237   6.237   2.755 -0.9792  0.0348 -0.9079
  142OSM    HNF15456   3.196   6.321   2.790  1.7579  1.0777  0.1050
  142OSM    C2S15457   3.344   6.255   2.662  0.2915  0.1189  0.3568
  142OSM    H2S15458   3.430   6.187   2.679  0.3205  0.4254  1.5046
  142OSM    C3S15459   3.396   6.401   2.659 -0.3014  0.3343 -0.4129
  142OSM    H3S15460   3.306   6.464   2.668 -1.1512 -1.0692  1.6030
  142OSM     O315461   3.467   6.435   2.542  0.2098 -0.0328  0.3841
  142OSM    HO315462   3.462   6.351   2.496 -0.5072 -0.1730  0.7064
  142OSM    C4S15463   3.486   6.434   2.772  0.5104 -0.1952 -0.7964
  142OSM    H4S15464   3.592   6.408   2.758  0.3714 -0.6439 -1.0248
  142OSM    C5S15465   3.447   6.493   2.883  0.4754  0.0602 -0.9669
  142OSM    H5S15466   3.337   6.500   2.885  0.4972  0.3833 -0.9434
  142OSM    C6S15467   3.528   6.533   3.005 -0.4325 -0.5081  0.1897
  142OSM    H6S15468   3.488   6.620   3.062  1.8014 -0.7928  2.3863
  142OSM    H6T15469   3.633   6.555   2.976 -1.2371  4.4986  0.1281
  142OSM    C7S15470   3.532   6.412   3.102  0.3902  0.7649 -0.3720
  142OSM    H7S15471   3.555   6.312   3.059  1.8691  0.7895  0.2804
  142OSM    H7T15472   3.434   6.391   3.148  0.9913  0.1444  0.6796
  142OSM    C8S15473   3.633   6.426   3.220 -0.1861 -0.1138  0.1383
  142OSM    H8S15474   3.736   6.440   3.181  0.4781 -0.9700  1.5110
  142OSM    H8T15475   3.637   6.333   3.281 -0.5486  0.0741  0.4484
  142OSM    C9S15476   3.590   6.542   3.313 -0.1138  0.4343  0.3902
  142OSM    H9S15477   3.481   6.546   3.334  0.0184  0.9115  1.0022
  142OSM    H9T15478   3.613   6.642   3.271 -1.7887  0.6122 -0.1952
  142OSM   C10S15479   3.661   6.533   3.448  0.3191  0.5673 -0.0467
  142OSM   H10S15480   3.771   6.545   3.436  1.2120 -3.0370  2.7154
  142OSM   H10T15481   3.648   6.434   3.496 -0.3674 -0.3140 -1.9504
  142OSM   C11S15482   3.605   6.623   3.550  0.0027  0.0867 -0.7692
  142OSM   H11S15483   3.495   6.609   3.540 -0.3768 -1.5250  3.5525
  142OSM   H11T15484   3.634   6.725   3.517  0.7423  0.8853  2.0041
  142OSM   C12S15485   3.662   6.609   3.690 -0.4639  0.4436  0.1489
  142OSM   H12S15486   3.757   6.666   3.703 -1.1482  1.9881 -1.2589
  142OSM   H12T15487   3.685   6.505   3.721 -1.1040  0.6994  1.5345
  142OSM   C13S15488   3.571   6.661   3.799  0.1219  0.2321 -0.5732
  142OSM   H13S15489   3.466   6.624   3.800  0.0244  0.4831  0.9870
  142OSM   H13T15490   3.558   6.771   3.787 -1.5361  0.4573  2.4451
  142OSM   C14S15491   3.620   6.637   3.945  0.6846 -0.7832  0.6592
  142OSM   H14S15492   3.716   6.690   3.961  2.0388 -3.0929  0.6649
  142OSM   H14T15493   3.635   6.528   3.956 -2.3666 -1.2099  1.5644
  142OSM   C15S15494   3.515   6.687   4.049 -0.5637  0.3602  0.5387
  142OSM   H15S15495   3.423   6.626   4.044 -0.8731  0.8060  0.7869
  142OSM   H15T15496   3.500   6.793   4.021  0.8957  0.9510  1.7956
  142OSM   C16S15497   3.559   6.677   4.198  0.1850 -0.2440  0.0665
  142OSM   H16S15498   3.642   6.746   4.224 -0.0008  0.3036 -0.7374
  142OSM   H16T15499   3.588   6.574   4.225  1.8080  0.2683  0.3685
  142OSM   C17S15500   3.447   6.707   4.291  0.4259 -0.9587 -1.0101
  142OSM   H17S15501   3.362   6.635   4.281 -2.7346  1.9800  1.9320
  142OSM   H17T15502   3.389   6.795   4.257  0.1285 -2.0513 -3.6226
  142OSM   C18S15503   3.500   6.716   4.436  0.7080 -0.1102 -0.0264
  142OSM   H18S15504   3.414   6.730   4.506  1.1887 -0.5653  0.6649
  142OSM   H18T15505   3.565   6.806   4.438  0.3678  0.1252  0.8638
  142OSM   H18U15506   3.562   6.626   4.454  0.4782 -0.3390 -0.3774
  142OSM    C1F15507   3.183   6.128   2.798  0.3056  0.4301 -0.5799
  142OSM     OF15508   3.220   6.014   2.761  0.0052  0.1859 -0.5295
  142OSM    C2F15509   3.067   6.147   2.899  0.2997 -0.4054 -0.1523
  142OSM    H2F15510   2.973   6.123   2.845  0.0171  0.4409 -0.0469
  142OSM    H2G15511   3.066   6.257   2.909  0.1936 -0.1291 -2.7230
  142OSM    C3F15512   3.093   6.075   3.031 -0.7016 -0.5170  0.1601
  142OSM    H3F15513   3.102   5.965   3.016 -3.1799 -0.7419  0.0162
  142OSM    H3G15514   3.005   6.090   3.097  0.9170 -0.4491  2.4369
  142OSM    C4F15515   3.228   6.111   3.093  0.4834 -0.2345 -0.4400
  142OSM    H4F15516   3.228   6.222   3.098 -1.3337 -0.2607  1.3123
  142OSM    H4G15517   3.312   6.069   3.034  1.4243  0.3247  0.4621
  142OSM    C5F15518   3.224   6.064   3.236 -0.4734 -0.4447  0.0294
  142OSM    H5F15519   3.184   5.961   3.241  0.1860 -0.6483  2.6906
  142OSM    H5G15520   3.154   6.125   3.298 -3.6188 -2.2542 -1.5266
  142OSM    C6F15521   3.366   6.061   3.296 -0.4564 -0.4963 -0.4325
  142OSM    H6F15522   3.400   6.166   3.306 -0.4394 -0.7131  3.3938
  142OSM    H6G15523   3.429   5.997   3.230 -0.4214 -2.4180  1.3452
  142OSM    C7F15524   3.361   6.000   3.439  0.1627  0.0820 -0.6126
  142OSM    H7F15525   3.328   5.895   3.456  2.0275 -0.2728  1.4324
  142OSM    H7G15526   3.289   6.058   3.501 -1.1297 -2.6054  0.5678
  142OSM    C8F15527   3.502   6.021   3.500 -0.1661 -0.6228  0.0208
  142OSM    H8F15528   3.577   5.994   3.423 -1.8128  0.4224 -2.0709
  142OSM    H8G15529   3.510   5.958   3.591  3.1414  0.6386  0.7304
  142OSM    C9F15530   3.530   6.167   3.543 -0.2512 -1.3350 -0.2219
  142OSM    H9F15531   3.513   6.241   3.463  0.9679 -0.9171 -0.1248
  142OSM   C10F15532   3.581   6.205   3.660 -0.0284 -0.3389  0.6182
  142OSM   H10F15533   3.601   6.312   3.671 -0.7052  0.1153 -1.9438
  142OSM   C11F15534   3.621   6.112   3.774  0.4193  0.0372  0.4428
  142OSM   H11F15535   3.710   6.149   3.830 -0.2930  1.6126  0.5967
  142OSM   H11G15536   3.662   6.016   3.736 -3.0810 -1.6574  0.5336
  142OSM   C12F15537   3.505   6.081   3.874  0.5579  0.2812 -0.7726
  142OSM   H12F15538   3.541   6.003   3.944 -0.0843 -0.7440 -1.5484
  142OSM   H12G15539   3.425   6.028   3.818  1.5028 -2.7869  0.5504
  142OSM   C13F15540   3.453   6.202   3.956 -0.1158 -0.0890  0.5030
  142OSM   H13F15541   3.387   6.265   3.893  0.8827  1.4977  1.0027
  142OSM   H13G15542   3.539   6.265   3.986  0.6579 -1.2019  0.6968
  142OSM   C14F15543   3.364   6.152   4.072 -0.2085 -0.0080  0.4109
  142OSM   H14F15544   3.328   6.249   4.113 -0.6061 -0.5876  1.4835
  142OSM   H14G15545   3.429   6.112   4.153  0.8034 -0.4996 -0.6270
  142OSM   C15F15546   3.259   6.049   4.026  0.0840  0.1061  0.2548
  142OSM   H15F15547   3.303   5.953   3.992  2.6488  1.3602 -0.2510
  142OSM   H15G15548   3.210   6.076   3.930  1.1393 -3.1598 -1.3330
  142OSM   C16F15549   3.150   6.015   4.123  0.7071 -0.2643 -0.1778
  142OSM   H16F15550   3.198   5.999   4.222 -0.6702 -0.8426  0.4224
  142OSM   H16G15551   3.107   5.920   4.084 -0.5789  0.7811 -1.4062
  142OSM   C17F15552   3.048   6.121   4.121  0.1603 -0.1554  0.0463
  142OSM   H17F15553   3.020   6.127   4.013  1.5566  2.0144 -0.2753
  142OSM   H17G15554   3.094   6.219   4.148 -1.5417  1.0845 -1.2541
  142OSM   C18F15555   2.928   6.093   4.211  0.0895  0.5209  0.0715
  142OSM   H18F15556   2.950   6.047   4.309 -0.9684  1.5407  0.8177
  142OSM   H18G15557   2.858   6.029   4.151 -0.0556  0.5474  0.2111
  142OSM   H18H15558   2.886   6.194   4.230  1.7461  1.8270 -2.5605
  143OSM      N15559   2.382   4.688   1.876  1.0467  0.0324  0.1878
  143OSM    C1515560   2.335   4.624   2.006  0.3690  0.1668 -0.5481
  143OSM   H15A15561   2.336   4.688   2.093 -0.0109  1.0261 -1.1523
  143OSM   H15B15562   2.399   4.541   2.030 -2.3716 -2.1051 -0.5374
  143OSM   H15C15563   2.245   4.565   2.002 -0.4319  1.2254  0.7654
  143OSM    C1415564   2.352   4.599   1.760 -0.1893  0.4011  0.5926
  143OSM   H14A15565   2.251   4.562   1.750 -0.1637  0.1449  1.2269
  143OSM   H14B15566   2.412   4.509   1.760 -3.7888 -2.2785  2.7252
  143OSM   H14C15567   2.369   4.655   1.669  1.3094 -0.2432  0.4547
  143OSM    C1315568   2.293   4.812   1.856 -0.5616 -0.3853 -0.1207
  143OSM   H13A15569   2.338   4.867   1.774 -0.0307 -1.4837 -0.5996
  143OSM   H13B15570   2.292   4.864   1.950  2.2884 -2.6620  1.3198
  143OSM   H13C15571   2.195   4.782   1.820 -0.5979 -1.1696  0.6014
  143OSM    C1215572   2.528   4.725   1.888  0.5718  0.2366 -0.0129
  143OSM   H12A15573   2.585   4.636   1.908  1.3856  0.3893 -1.5094
  143OSM   H12B15574   2.533   4.789   1.975  0.9930  0.6021 -0.3056
  143OSM    C1115575   2.601   4.796   1.770  0.6546  0.3112  0.1346
  143OSM   H11A15576   2.597   4.732   1.679 -0.9986 -1.4354  1.3611
  143OSM   H11B15577   2.710   4.808   1.786  0.8405 -1.1287  0.0658
  143OSM      P15578   2.586   5.056   1.810  0.1933  0.0574 -0.0410
  143OSM    O1315579   2.717   5.091   1.758 -0.0979 -0.4874 -0.6076
  143OSM    O1415580   2.475   5.155   1.806  0.0736  0.1957  0.7511
  143OSM    O1115581   2.593   5.003   1.962 -0.4043  0.0914  0.1839
  143OSM    O1215582   2.544   4.927   1.732 -0.3676 -0.2008  0.0049
  143OSM    C1S15583   2.493   5.020   2.064  0.1949  0.4208  0.1338
  143OSM    H1S15584   2.395   4.973   2.039  0.7543 -0.3205 -0.7005
  143OSM    H1T15585   2.466   5.127   2.081  0.9822  0.7012 -0.3389
  143OSM     NF15586   2.449   4.960   2.307  0.2372 -0.2296  0.0092
  143OSM    HNF15587   2.461   5.024   2.383  0.1051 -0.6383  0.3742
  143OSM    C2S15588   2.546   4.970   2.202  0.0632  0.4532 -0.7819
  143OSM    H2S15589   2.583   4.866   2.188  1.5636  1.0332 -1.3668
  143OSM    C3S15590   2.678   5.046   2.247  0.2482  0.1223  0.1308
  143OSM    H3S15591   2.665   5.146   2.295 -0.8866  0.2556 -0.4048
  143OSM     O315592   2.775   5.086   2.148 -0.1996 -0.3237 -0.2410
  143OSM    HO315593   2.749   5.048   2.064  0.2054  0.7615 -0.8834
  143OSM    C4S15594   2.754   4.956   2.346  0.0479 -0.4488 -0.8160
  143OSM    H4S15595   2.800   4.869   2.296  0.9440 -0.8120  0.5853
  143OSM    C5S15596   2.769   4.989   2.476 -0.2747  0.0662 -0.3294
  143OSM    H5S15597   2.730   5.087   2.508 -1.2335  0.4610 -2.5424
  143OSM    C6S15598   2.846   4.906   2.581  0.6046  0.5800  0.2296
  143OSM    H6S15599   2.951   4.939   2.598  0.7459  0.2986 -0.0807
  143OSM    H6T15600   2.858   4.798   2.554 -0.5835  0.1523  1.3456
  143OSM    C7S15601   2.756   4.901   2.705 -0.2206 -0.4428 -0.0712
  143OSM    H7S15602   2.653   4.870   2.678 -0.5570 -0.3146  1.0377
  143OSM    H7T15603   2.738   5.004   2.743 -1.6438 -0.3639 -0.8843
  143OSM    C8S15604   2.829   4.805   2.798  0.0523  0.3898 -0.4100
  143OSM    H8S15605   2.938   4.804   2.780  0.4735 -1.9691  1.6946
  143OSM    H8T15606   2.785   4.705   2.778 -2.4340  1.3551 -0.1590
  143OSM    C9S15607   2.818   4.831   2.953 -0.3830  0.5529 -0.1668
  143OSM    H9S15608   2.861   4.929   2.982 -1.0543  1.0769 -0.8909
  143OSM    H9T15609   2.888   4.760   3.001  0.5259  0.4958 -1.5440
  143OSM   C10S15610   2.678   4.797   3.016 -0.7924 -0.1108  0.3094
  143OSM   H10S15611   2.634   4.702   2.978 -1.8525 -0.3205  1.9455
  143OSM   H10T15612   2.612   4.882   2.990 -1.0334 -0.2355  0.5121
  143OSM   C11S15613   2.680   4.784   3.166 -0.3685 -0.1608  0.1874
  143OSM   H11S15614   2.728   4.872   3.212  1.4871 -1.2498  0.4197
  143OSM   H11T15615   2.745   4.696   3.184 -0.7388 -0.0546  2.2130
  143OSM   C12S15616   2.538   4.767   3.232 -0.6869 -0.3318  0.0850
  143OSM   H12S15617   2.491   4.681   3.180  1.1060 -0.4338 -1.4640
  143OSM   H12T15618   2.478   4.854   3.196 -1.1507 -0.4297  0.6091
  143OSM   C13S15619   2.537   4.736   3.385  0.2961 -0.0509 -0.4066
  143OSM   H13S15620   2.596   4.643   3.396 -1.2929 -0.9684  0.8007
  143OSM   H13T15621   2.430   4.709   3.402 -0.5989  2.5951 -1.2739
  143OSM   C14S15622   2.575   4.858   3.475 -0.1830  0.1000 -0.9940
  143OSM   H14S15623   2.500   4.859   3.556 -0.9746  2.5510 -1.6762
  143OSM   H14T15624   2.559   4.948   3.411 -1.1294 -0.3174 -1.3594
  143OSM   C15S15625   2.722   4.850   3.525  0.7337 -0.1430  0.3026
  143OSM   H15S15626   2.786   4.828   3.437 -0.6916 -1.8950 -0.3409
  143OSM   H15T15627   2.731   4.761   3.590  1.7985 -0.4474 -0.2374
  143OSM   C16S15628   2.760   4.971   3.617  1.0854 -0.0167 -0.1937
  143OSM   H16S15629   2.676   4.982   3.689 -0.7105  0.1530 -2.2110
  143OSM   H16T15630   2.777   5.068   3.565 -0.3169  0.6395  0.5230
  143OSM   C17S15631   2.894   4.947   3.698  0.3778  0.7337  0.0293
  143OSM   H17S15632   2.986   4.939   3.636  0.8486  0.8262  0.7043
  143OSM   H17T15633   2.889   4.852   3.756  0.8222 -0.1113 -1.2641
  143OSM   C18S15634   2.908   5.067   3.785  0.1125  0.5110 -0.9096
  143OSM   H18S15635   3.001   5.051   3.844 -1.3627  1.2016  1.7514
  143OSM   H18T15636   2.822   5.073   3.856  0.0368 -0.5940 -0.8882
  143OSM   H18U15637   2.915   5.164   3.732 -1.0158  2.2001  1.7977
  143OSM    C1F15638   2.343   4.883   2.312 -0.2739  0.2022  0.0689
  143OSM     OF15639   2.307   4.854   2.201  0.5204  0.7281  0.3968
  143OSM    C2F15640   2.272   4.855   2.442  0.0831  0.0813  0.3103
  143OSM    H2F15641   2.255   4.746   2.447 -0.7494  0.2234  0.8633
  143OSM    H2G15642   2.178   4.914   2.435  0.5993  0.8664 -0.2394
  143OSM    C3F15643   2.347   4.894   2.576  0.4848  0.3709  0.2649
  143OSM    H3F15644   2.349   5.003   2.595 -2.0966  0.4841  0.3147
  143OSM    H3G15645   2.449   4.850   2.579 -0.4640 -1.8844  2.2445
  143OSM    C4F15646   2.275   4.830   2.703 -0.3088  0.5349  0.3038
  143OSM    H4F15647   2.297   4.722   2.694 -1.5775  0.2077  0.8542
  143OSM    H4G15648   2.165   4.845   2.692 -0.3423  0.8914  1.0709
  143OSM    C5F15649   2.334   4.894   2.825  0.1995  0.3217 -0.2067
  143OSM    H5F15650   2.341   5.004   2.826  0.8899  0.2778  0.1498
  143OSM    H5G15651   2.442   4.869   2.816  0.1344 -0.5713  1.2252
  143OSM    C6F15652   2.263   4.858   2.958 -0.1190 -0.5772 -0.0250
  143OSM    H6F15653   2.169   4.918   2.958  0.7320  0.8219 -1.0485
  143OSM    H6G15654   2.332   4.889   3.039 -0.2167 -0.6937  0.1027
  143OSM    C7F15655   2.222   4.717   2.963  0.0003 -0.0764  0.4339
  143OSM    H7F15656   2.314   4.662   2.934  0.0743  0.4865 -0.4586
  143OSM    H7G15657   2.148   4.702   2.881  0.6495  0.1691 -0.2110
  143OSM    C8F15658   2.150   4.686   3.101 -0.4082  0.8325  0.5297
  143OSM    H8F15659   2.224   4.713   3.180 -1.6435 -0.3825  2.1648
  143OSM    H8G15660   2.138   4.576   3.107 -0.1277  0.4000 -3.8960
  143OSM    C9F15661   2.007   4.739   3.116  0.2502 -0.1071  0.3416
  143OSM    H9F15662   1.951   4.743   3.022  0.3400 -0.5122  0.2694
  143OSM   C10F15663   1.945   4.773   3.223  0.1559  0.1615 -0.0005
  143OSM   H10F15664   1.843   4.815   3.215 -0.2884 -0.7535  0.6611
  143OSM   C11F15665   1.992   4.748   3.361  0.2284  0.1540 -0.1238
  143OSM   H11F15666   2.014   4.640   3.374 -2.6982 -0.5491 -0.3280
  143OSM   H11G15667   1.901   4.767   3.422  1.1320 -1.2800  1.7558
  143OSM   C12F15668   2.079   4.848   3.423 -0.2907 -0.3546 -0.1088
  143OSM   H12F15669   2.054   4.953   3.396  0.3951  0.0736  0.8529
  143OSM   H12G15670   2.182   4.830   3.386 -0.1754 -1.6246  0.7739
  143OSM   C13F15671   2.101   4.844   3.571 -0.2174 -0.7921 -0.2352
  143OSM   H13F15672   2.019   4.865   3.644  1.7890 -0.1687  1.9483
  143OSM   H13G15673   2.179   4.918   3.597 -1.8306  0.5993  0.9285
  143OSM   C14F15674   2.171   4.716   3.605  0.4655  0.5112 -0.4891
  143OSM   H14F15675   2.260   4.692   3.543  0.7711  0.6664 -0.1143
  143OSM   H14G15676   2.097   4.634   3.590  0.0386  0.3695  1.9849
  143OSM   C15F15677   2.210   4.701   3.753 -1.0420  0.0367  0.3136
  143OSM   H15F15678   2.229   4.595   3.778  0.6983  0.3551  0.4331
  143OSM   H15G15679   2.144   4.741   3.833  0.5997  4.0799 -0.1225
  143OSM   C16F15680   2.344   4.767   3.790 -0.4196  0.0883 -0.3765
  143OSM   H16F15681   2.352   4.878   3.789  1.5684 -0.0269 -0.3752
  143OSM   H16G15682   2.412   4.736   3.708 -1.2755 -2.9737 -0.0542
  143OSM   C17F15683   2.403   4.719   3.929  0.0746 -0.0307  0.0736
  143OSM   H17F15684   2.442   4.615   3.927 -1.0954 -0.4735 -1.0772
  143OSM   H17G15685   2.323   4.728   4.005 -0.2726 -1.8430 -0.0168
  143OSM   C18F15686   2.524   4.798   3.977 -0.4294 -0.2552 -0.5462
  143OSM   H18F15687   2.584   4.744   4.053  0.5401 -0.2754 -1.3164
  143OSM   H18G15688   2.491   4.893   4.023 -0.2842 -0.4512 -0.0257
  143OSM   H18H15689   2.588   4.825   3.891 -0.2455  0.8691 -0.0721
  144OSM      N15690   1.896   5.101   2.203  0.2273  0.4411 -0.4109
  144OSM    C1515691   1.873   5.011   2.320 -0.1055  0.4669 -0.0205
  144OSM   H15A15692   1.896   4.908   2.300 -2.7477 -0.3375  0.6380
  144OSM   H15B15693   1.769   5.012   2.347  0.1898 -1.3236  1.3107
  144OSM   H15C15694   1.922   5.041   2.411  1.0303  0.7858 -0.7165
  144OSM    C1415695   1.823   5.041   2.078 -0.4577  0.3519 -0.1565
  144OSM   H14A15696   1.862   4.947   2.044  0.7189  1.1597 -1.1241
  144OSM   H14B15697   1.836   5.108   1.994  1.6593  0.3722  0.1348
  144OSM   H14C15698   1.716   5.049   2.093 -0.4537  2.1876 -0.8370
  144OSM    C1315699   1.847   5.233   2.243  0.1135  0.1242  0.4787
  144OSM   H13A15700   1.746   5.230   2.279  0.1450  0.1046  0.5637
  144OSM   H13B15701   1.864   5.307   2.166  0.3879 -0.3570  0.0641
  144OSM   H13C15702   1.909   5.271   2.323  0.5136  0.4817  0.0061
  144OSM    C1215703   2.044   5.105   2.167  0.2322  0.1675  0.4109
  144OSM   H12A15704   2.066   5.175   2.088 -0.4543 -1.8738 -1.6758
  144OSM   H12B15705   2.075   5.015   2.117 -1.8007 -0.2899 -0.1065
  144OSM    C1115706   2.136   5.150   2.286 -0.0443 -0.3730  0.2140
  144OSM   H11A15707   2.243   5.124   2.268 -0.0747  0.5539 -1.5464
  144OSM   H11B15708   2.116   5.120   2.391 -0.9826  1.9502  0.7480
  144OSM      P15709   2.214   5.387   2.196 -0.2729  0.0031 -0.0092
  144OSM    O1315710   2.204   5.334   2.061  0.2884 -0.3449 -0.1346
  144OSM    O1415711   2.168   5.524   2.223  0.0317 -0.3180 -0.0282
  144OSM    O1115712   2.362   5.359   2.248 -0.4847 -0.8277 -0.3430
  144OSM    O1215713   2.131   5.295   2.297  0.4468 -0.6805  0.0474
  144OSM    C1S15714   2.429   5.471   2.320 -0.3931 -0.0416 -0.1018
  144OSM    H1S15715   2.381   5.570   2.307 -0.1875 -0.0363 -0.9184
  144OSM    H1T15716   2.538   5.478   2.296 -0.3675 -1.1468 -0.3640
  144OSM     NF15717   2.455   5.571   2.553 -1.0578 -0.1681 -0.5073
  144OSM    HNF15718   2.528   5.563   2.621  0.0842  0.4359 -1.6370
  144OSM    C2S15719   2.417   5.450   2.476  0.0837 -0.4782 -0.1971
  144OSM    H2S15720   2.313   5.428   2.508  0.4300 -0.1403  1.2148
  144OSM    C3S15721   2.501   5.324   2.522  0.4831 -0.2713  0.6152
  144OSM    H3S15722   2.611   5.335   2.509  0.1017  0.4382 -3.4746
  144OSM     O315723   2.460   5.207   2.452 -0.8724  0.1523 -0.2470
  144OSM    HO315724   2.394   5.238   2.390 -2.4216 -0.7600  0.8695
  144OSM    C4S15725   2.476   5.303   2.666  0.5022  0.5616  0.3061
  144OSM    H4S15726   2.379   5.257   2.689  2.5255 -3.1401  2.3233
  144OSM    C5S15727   2.562   5.318   2.770 -1.0855  0.5062  0.1144
  144OSM    H5S15728   2.665   5.338   2.737 -0.6796 -0.7390  0.5615
  144OSM    C6S15729   2.534   5.291   2.912 -0.3757 -0.0191  0.2974
  144OSM    H6S15730   2.444   5.231   2.936 -0.4160  0.9530  2.9769
  144OSM    H6T15731   2.538   5.392   2.960  1.9000  1.0000 -1.7983
  144OSM    C7S15732   2.650   5.219   2.972 -0.4492  0.1510 -0.4953
  144OSM    H7S15733   2.744   5.274   2.954 -1.1399  1.3832 -0.4813
  144OSM    H7T15734   2.668   5.121   2.923  1.8822 -0.3110  1.1290
  144OSM    C8S15735   2.627   5.208   3.125 -0.3251 -0.5204  0.7974
  144OSM    H8S15736   2.701   5.133   3.161  0.4814 -0.0524  0.1530
  144OSM    H8T15737   2.532   5.156   3.151  0.6877 -2.3662  1.0043
  144OSM    C9S15738   2.631   5.341   3.200  0.3426  0.9739 -0.0166
  144OSM    H9S15739   2.546   5.401   3.161 -0.9149  0.0323  1.1624
  144OSM    H9T15740   2.730   5.389   3.187  1.4110 -1.5423 -1.6902
  144OSM   C10S15741   2.604   5.317   3.345 -0.5062  0.2015  0.3956
  144OSM   H10S15742   2.683   5.254   3.391 -0.3699 -0.0900 -0.2345
  144OSM   H10T15743   2.512   5.258   3.370 -0.8089  0.7087  0.4832
  144OSM   C11S15744   2.591   5.443   3.434 -0.4270 -0.1295  0.0466
  144OSM   H11S15745   2.499   5.491   3.394 -1.1660 -0.0500  1.7409
  144OSM   H11T15746   2.678   5.510   3.419 -0.2282 -0.7664 -1.8722
  144OSM   C12S15747   2.559   5.419   3.577  0.8792  0.3789  0.0057
  144OSM   H12S15748   2.474   5.351   3.558  0.5633  1.2252 -1.8764
  144OSM   H12T15749   2.519   5.499   3.644  0.1511 -0.6036  0.7654
  144OSM   C13S15750   2.666   5.344   3.660  0.4804 -0.7650 -0.1921
  144OSM   H13S15751   2.753   5.410   3.677 -0.0384 -0.7527  2.8306
  144OSM   H13T15752   2.701   5.253   3.606  0.9481 -0.4373 -0.4518
  144OSM   C14S15753   2.617   5.305   3.791 -0.2448 -0.0978  0.0479
  144OSM   H14S15754   2.589   5.392   3.854 -0.3589 -1.3730  1.8489
  144OSM   H14T15755   2.687   5.233   3.839 -0.9715  0.0866  1.4498
  144OSM   C15S15756   2.494   5.214   3.792 -0.4899 -0.3144  0.3509
  144OSM   H15S15757   2.515   5.132   3.720  1.4493 -0.3290  0.8826
  144OSM   H15T15758   2.404   5.273   3.764  0.9627  2.6016  1.4112
  144OSM   C16S15759   2.474   5.148   3.930 -0.5700 -0.4955  0.3920
  144OSM   H16S15760   2.555   5.076   3.955  0.4293 -0.0542 -1.3572
  144OSM   H16T15761   2.380   5.090   3.928 -0.6846 -0.3320 -2.1093
  144OSM   C17S15762   2.461   5.256   4.043  0.2697 -1.1317  0.7946
  144OSM   H17S15763   2.384   5.319   3.993  1.1545 -2.3713 -2.3717
  144OSM   H17T15764   2.557   5.311   4.044  0.4525 -1.4578  1.2813
  144OSM   C18S15765   2.406   5.214   4.179 -0.2820 -0.1531 -0.7303
  144OSM   H18S15766   2.310   5.159   4.171  0.3131 -1.2230 -0.6700
  144OSM   H18T15767   2.385   5.303   4.243 -2.0620  0.7367 -2.4384
  144OSM   H18U15768   2.480   5.152   4.234  1.4308  2.8301  0.5387
  144OSM    C1F15769   2.385   5.685   2.543 -0.6755 -0.3561 -0.4125
  144OSM     OF15770   2.289   5.694   2.470 -0.0699  0.4073 -0.6494
  144OSM    C2F15771   2.432   5.806   2.625  0.0634 -0.4529 -0.0359
  144OSM    H2F15772   2.456   5.884   2.549  1.4024 -0.9961 -0.2034
  144OSM    H2G15773   2.521   5.777   2.685  0.0287 -1.2362 -0.3497
  144OSM    C3F15774   2.319   5.861   2.708  0.6799 -0.0514  0.2127
  144OSM    H3F15775   2.231   5.903   2.654  2.2798 -0.7487 -3.1409
  144OSM    H3G15776   2.372   5.947   2.755  3.0857 -0.1714 -2.0945
  144OSM    C4F15777   2.275   5.769   2.826 -0.1440 -0.4225 -0.4749
  144OSM    H4F15778   2.242   5.674   2.779 -2.7063  0.5354 -0.7528
  144OSM    H4G15779   2.189   5.814   2.880  1.7079  2.3626  0.3829
  144OSM    C5F15780   2.392   5.749   2.930  0.0374  0.3533 -0.0312
  144OSM    H5F15781   2.447   5.844   2.945 -2.2522  1.7296  0.1140
  144OSM    H5G15782   2.472   5.684   2.889  0.6966 -0.2971  2.1502
  144OSM    C6F15783   2.344   5.687   3.058 -0.0820 -0.5983 -0.0256
  144OSM    H6F15784   2.318   5.580   3.046  1.8212 -1.0320 -0.7706
  144OSM    H6G15785   2.251   5.739   3.087 -0.2226 -0.4507 -0.7209
  144OSM    C7F15786   2.442   5.687   3.176  0.0093 -0.1323  0.5962
  144OSM    H7F15787   2.535   5.637   3.142  1.2343  0.2458  3.1198
  144OSM    H7G15788   2.392   5.623   3.251 -3.4272  0.3004 -1.0987
  144OSM    C8F15789   2.476   5.825   3.236  0.3839  0.4030 -0.5134
  144OSM    H8F15790   2.390   5.895   3.241 -0.7700 -0.9783 -0.2981
  144OSM    H8G15791   2.562   5.862   3.176  0.0887 -1.7241 -2.3528
  144OSM    C9F15792   2.522   5.802   3.381  0.3613 -0.2338  1.0810
  144OSM    H9F15793   2.623   5.844   3.393  0.6323 -0.8375  0.9046
  144OSM   C10F15794   2.457   5.753   3.490 -1.0213  0.0428  0.7053
  144OSM   H10F15795   2.513   5.748   3.584  0.9448  2.6279 -0.1930
  144OSM   C11F15796   2.317   5.702   3.497  0.1120  0.1563  0.1349
  144OSM   H11F15797   2.315   5.591   3.489 -2.0097  0.2034 -0.6270
  144OSM   H11G15798   2.250   5.740   3.417 -0.0387 -1.1268 -0.3763
  144OSM   C12F15799   2.252   5.729   3.637 -0.2914  0.4901  0.6049
  144OSM   H12F15800   2.261   5.837   3.659 -1.6819  0.7925 -0.2252
  144OSM   H12G15801   2.314   5.668   3.706  1.0235  0.0962 -0.8639
  144OSM   C13F15802   2.106   5.696   3.633  0.0088 -0.0058 -0.1833
  144OSM   H13F15803   2.093   5.586   3.647  1.0110 -0.3092 -1.4204
  144OSM   H13G15804   2.055   5.730   3.541  1.3054 -2.1069 -1.7843
  144OSM   C14F15805   2.039   5.766   3.753 -0.0585 -0.3671 -0.3422
  144OSM   H14F15806   1.928   5.768   3.759  0.0073  0.8316  0.6522
  144OSM   H14G15807   2.062   5.873   3.736 -0.4682 -0.4714 -1.7067
  144OSM   C15F15808   2.085   5.721   3.892 -0.2312  0.5890 -0.0507
  144OSM   H15F15809   2.180   5.768   3.926 -0.0159 -0.2461  0.5339
  144OSM   H15G15810   2.108   5.614   3.872  1.2250  1.3873 -3.0533
  144OSM   C16F15811   1.976   5.727   4.005 -0.2160  0.5119  1.0413
  144OSM   H16F15812   2.023   5.670   4.088  2.5974 -2.5031 -2.2867
  144OSM   H16G15813   1.896   5.664   3.959  3.7560 -2.0360 -3.2695
  144OSM   C17F15814   1.928   5.869   4.043  1.0624 -0.5910 -0.7735
  144OSM   H17F15815   1.864   5.915   3.964  0.2094 -0.4355 -0.0066
  144OSM   H17G15816   2.015   5.931   4.070  0.5222 -0.1819  0.0654
  144OSM   C18F15817   1.832   5.845   4.153  0.4776  0.1198 -0.7084
  144OSM   H18F15818   1.882   5.790   4.236  0.2896  0.9663 -0.0159
  144OSM   H18G15819   1.742   5.786   4.123  1.6449 -1.3682 -1.3972
  144OSM   H18H15820   1.794   5.933   4.209 -1.1256  0.0452 -1.6197
  145SAPE     N15821   4.740   5.410   6.565  0.0351  0.2019  0.1125
  145SAPE   HN115822   4.690   5.320   6.582  0.3786  0.2821  1.7102
  145SAPE   HN215823   4.840   5.387   6.550 -0.2054 -0.9920  0.2635
  145SAPE   HN315824   4.737   5.466   6.653 -2.2461  0.8369 -0.3089
  145SAPE   C1215825   4.674   5.507   6.467  0.2040 -0.0853  0.4265
  145SAPE  H12A15826   4.574   5.537   6.505 -0.0217  3.8296 -2.5835
  145SAPE  H12B15827   4.670   5.454   6.369 -1.2133 -0.2119  0.5306
  145SAPE   C1115828   4.749   5.638   6.448 -0.1051 -0.5818 -0.3772
  145SAPE  H11A15829   4.707   5.688   6.358  0.8374  2.7194  0.8629
  145SAPE  H11B15830   4.854   5.607   6.430  0.6654  0.2290  2.2776
  145SAPE     P15831   4.851   5.769   6.656  0.2037 -0.7455 -0.1903
  145SAPE   O1315832   4.793   5.867   6.756 -0.0312  0.4878  0.0972
  145SAPE   O1415833   4.920   5.657   6.716 -0.4522 -0.3760 -0.0339
  145SAPE   O1215834   4.733   5.711   6.570  0.0570 -0.0891  0.2482
  145SAPE   O1115835   4.945   5.829   6.552 -0.4691 -0.3174 -0.4676
  145SAPE    C115836   4.918   5.961   6.490 -0.0335  0.6966 -0.1575
  145SAPE    HA15837   4.815   6.000   6.506  0.0569  0.1808  2.0361
  145SAPE    HB15838   4.989   6.033   6.536  0.5754 -0.4965  0.8321
  145SAPE    C215839   4.929   5.970   6.335  0.7434  0.5139 -0.0402
  145SAPE    HS15840   4.834   5.920   6.306  0.8470 -0.8534  1.7582
  145SAPE   O2115841   5.045   5.890   6.298  0.7389  0.7112  0.7286
  145SAPE   C2115842   5.017   5.838   6.175 -0.0791 -0.5547  0.3732
  145SAPE   O2215843   4.912   5.842   6.117  0.3852  0.1397 -0.8723
  145SAPE   C2215844   5.147   5.783   6.118  0.1517 -0.5437  0.5078
  145SAPE   H2R15845   5.228   5.811   6.189  0.6224 -1.7594  0.4733
  145SAPE   H2S15846   5.131   5.674   6.134 -1.5874 -0.3741  0.0623
  145SAPE    C315847   4.943   6.114   6.292 -0.6213  0.0285 -0.4467
  145SAPE    HX15848   5.024   6.149   6.359 -1.2316 -2.8062  1.9450
  145SAPE    HY15849   4.851   6.169   6.320 -0.6395 -0.1389 -0.1743
  145SAPE   O3115850   4.987   6.135   6.158 -0.0623 -0.1058 -0.0330
  145SAPE   C3115851   4.888   6.138   6.073  0.2360 -0.8814  0.1969
  145SAPE   O3215852   4.770   6.128   6.099  0.3644  1.2665 -0.7275
  145SAPE   C3215853   4.951   6.165   5.934  0.2274  0.1575  0.2684
  145SAPE   H2X15854   4.987   6.072   5.885 -0.6493 -0.4108  0.6600
  145SAPE   H2Y15855   5.028   6.244   5.944 -1.2676  1.7371 -0.1834
  145SAPE   C2315856   5.156   5.809   5.969  0.2342 -0.3727  0.2697
  145SAPE   H3R15857   5.264   5.794   5.946  0.1248 -1.5821  0.4811
  145SAPE   H3S15858   5.143   5.916   5.944  3.9465 -0.1463 -1.3635
  145SAPE   C2415859   5.070   5.712   5.883  0.0355  0.1490  0.0460
  145SAPE   H4R15860   4.962   5.732   5.901 -0.1794 -0.4542 -0.5017
  145SAPE   H4S15861   5.081   5.605   5.911  0.0699 -0.7945 -3.1568
  145SAPE   C2515862   5.086   5.728   5.732  0.7913  0.3255  0.9575
  145SAPE   H5R15863   5.060   5.828   5.695 -2.7187 -0.5931  0.5753
  145SAPE   C2615864   5.129   5.631   5.643  0.5621 -0.2770 -0.0982
  145SAPE   H6R15865   5.145   5.659   5.538  1.7983  0.3934  0.2538
  145SAPE   C2715866   5.151   5.482   5.667  0.0385  0.5125  0.3209
  145SAPE   H7R15867   5.240   5.468   5.732  0.3758 -2.8886 -0.6475
  145SAPE   H7S15868   5.175   5.436   5.568  0.5407  1.7057 -0.1298
  145SAPE   C2815869   5.036   5.404   5.721  0.4729  0.0365  0.1279
  145SAPE   H8R15870   4.953   5.464   5.763  2.1508  1.5546  1.4225
  145SAPE   C2915871   5.028   5.270   5.730 -0.6024 -0.5110 -0.0516
  145SAPE   H9R15872   4.934   5.221   5.757  0.6899 -2.3698  1.3635
  145SAPE  C21015873   5.136   5.167   5.692 -0.3750 -0.9325  0.3044
  145SAPE  H10R15874   5.169   5.103   5.776 -0.5082 -2.0800 -0.5013
  145SAPE  H10S15875   5.227   5.210   5.645 -2.2677  0.9849 -1.8289
  145SAPE  C21115876   5.082   5.070   5.587  0.5755  0.0101  0.3650
  145SAPE  H11R15877   4.973   5.056   5.584  0.4303  1.1769 -1.4808
  145SAPE  C21215878   5.149   5.010   5.493 -0.3051 -0.4881  0.7777
  145SAPE  H12R15879   5.101   4.932   5.432 -0.8515 -1.3770  2.2812
  145SAPE  C21315880   5.304   5.010   5.471  0.3563 -0.0466 -0.0829
  145SAPE  H13R15881   5.360   4.943   5.538 -2.8899 -2.4302  0.5014
  145SAPE  H13S15882   5.335   5.115   5.487  2.5622 -0.9516  2.1030
  145SAPE  C21415883   5.335   4.964   5.334  0.3060  0.0364  0.2475
  145SAPE  H14R15884   5.266   4.889   5.295 -1.0505  0.0886  2.3672
  145SAPE  C21515885   5.437   5.003   5.254  0.0321  0.9070 -0.0554
  145SAPE  H15R15886   5.447   4.943   5.162  1.7571 -0.5960  1.0416
  145SAPE  C21615887   5.537   5.108   5.273  0.1398 -0.6208  0.3779
  145SAPE  H16R15888   5.493   5.180   5.345 -0.8174  0.8816 -1.6028
  145SAPE  H16S15889   5.537   5.168   5.179 -2.5243  1.1675  1.4014
  145SAPE  C21715890   5.684   5.064   5.303  0.7629 -0.3567  0.0393
  145SAPE  H17R15891   5.752   5.125   5.240  0.7897 -0.4716 -0.0437
  145SAPE  H17S15892   5.698   4.957   5.277 -0.8473  0.0223 -2.7594
  145SAPE  C21815893   5.707   5.092   5.457  0.5035 -1.0034 -0.5343
  145SAPE  H18R15894   5.641   5.016   5.504  2.3423 -1.0734  2.1937
  145SAPE  H18S15895   5.663   5.191   5.482 -0.8540 -1.3215 -1.5347
  145SAPE  C21915896   5.851   5.072   5.496 -0.1136  0.2162  0.3020
  145SAPE  H19R15897   5.878   5.103   5.600 -1.6617  0.5573  0.6235
  145SAPE  H19S15898   5.904   5.148   5.436  4.2732 -0.1441  3.2430
  145SAPE  C22015899   5.914   4.932   5.466  0.5594 -0.9329 -0.7361
  145SAPE  H20R15900   5.932   4.916   5.357 -0.5342 -3.7875 -0.5760
  145SAPE  H20S15901   5.839   4.854   5.489 -0.7354  0.5518  0.3417
  145SAPE  H20T15902   5.999   4.912   5.533 -1.0777  1.4032  2.3072
  145SAPE   C3315903   4.842   6.224   5.839  0.2831 -0.2653 -0.5597
  145SAPE   H3X15904   4.829   6.326   5.881  1.2168 -0.4477  0.2167
  145SAPE   H3Y15905   4.746   6.169   5.850 -0.5358  1.2207  0.0492
  145SAPE   C3415906   4.887   6.231   5.695 -0.1696  0.0031  0.6428
  145SAPE   H4X15907   4.902   6.124   5.672  1.2550  0.3165  0.0483
  145SAPE   H4Y15908   4.988   6.277   5.701 -0.0280 -0.3515  1.0196
  145SAPE   C3515909   4.789   6.291   5.599 -0.3347  0.2076 -0.1259
  145SAPE   H5X15910   4.753   6.379   5.657  0.3226  0.3168  0.1231
  145SAPE   H5Y15911   4.705   6.219   5.582  1.0978 -1.4780 -0.3470
  145SAPE   C3615912   4.855   6.330   5.468  0.2543  0.2449  0.1614
  145SAPE   H6X15913   4.867   6.232   5.415 -1.7561  0.3261 -0.5447
  145SAPE   H6Y15914   4.951   6.381   5.493  0.1941  0.7112 -0.5131
  145SAPE   C3715915   4.778   6.423   5.385 -0.1456 -1.1426  0.6687
  145SAPE   H7X15916   4.762   6.521   5.434 -0.2252 -0.1480 -1.2832
  145SAPE   H7Y15917   4.680   6.374   5.369 -0.8650  0.5667 -0.3259
  145SAPE   C3815918   4.834   6.429   5.239  0.0364 -0.2669  0.2701
  145SAPE   H8X15919   4.865   6.325   5.213  0.6726  0.4290 -1.9147
  145SAPE   H8Y15920   4.937   6.470   5.249  1.5678 -4.0542  2.4014
  145SAPE   C3915921   4.747   6.514   5.139  0.7852 -0.4749  0.7934
  145SAPE   H9X15922   4.714   6.608   5.188 -0.3244 -0.6817  0.4781
  145SAPE   H9Y15923   4.647   6.465   5.129  1.2623 -1.2866 -0.2203
  145SAPE  C31015924   4.813   6.535   5.008 -0.2760  1.0236 -0.4965
  145SAPE  H10X15925   4.899   6.601   5.030  0.3613 -0.4490  1.7354
  145SAPE  H10Y15926   4.735   6.580   4.943 -0.6325 -1.1284 -1.6626
  145SAPE  C31115927   4.863   6.400   4.950  0.4175  0.1118  0.3648
  145SAPE  H11X15928   4.790   6.326   4.989 -1.7427  2.8866  1.9842
  145SAPE  H11Y15929   4.958   6.378   5.003 -1.2525 -0.8023  3.2140
  145SAPE  C31215930   4.880   6.414   4.797  0.8765 -0.2926  0.0802
  145SAPE  H12X15931   4.984   6.438   4.767 -0.1569  2.4369 -1.7708
  145SAPE  H12Y15932   4.808   6.490   4.759  0.5528 -0.1775  0.9135
  145SAPE  C31315933   4.837   6.277   4.730 -0.8459 -0.5902 -0.5809
  145SAPE  H13X15934   4.870   6.190   4.791 -0.0206 -1.7308 -2.5816
  145SAPE  H13Y15935   4.883   6.275   4.629 -0.7043 -0.6187 -0.5162
  145SAPE  C31415936   4.688   6.274   4.703 -0.3151 -0.0202  0.3665
  145SAPE  H14X15937   4.670   6.322   4.604  3.2186  1.4953  0.3317
  145SAPE  H14Y15938   4.626   6.339   4.768 -3.3128 -2.4738  0.1937
  145SAPE  C31515939   4.622   6.136   4.714  0.7989  0.2009 -0.4678
  145SAPE  H15X15940   4.519   6.135   4.672  0.2180 -1.5222  0.8701
  145SAPE  H15Y15941   4.608   6.106   4.820  1.8440  0.6726 -0.1876
  145SAPE  C31615942   4.687   6.025   4.624 -0.4675 -0.6105 -0.1151
  145SAPE  H16X15943   4.792   6.017   4.660 -0.3350  2.1666  0.3632
  145SAPE  H16Y15944   4.676   6.046   4.516  1.3359  0.3530 -0.1465
  145SAPE  C31715945   4.633   5.888   4.661  0.2980  0.4941  0.5989
  145SAPE  H17X15946   4.528   5.904   4.627  1.0989  0.9312 -1.9134
  145SAPE  H17Y15947   4.622   5.876   4.771 -2.4511 -1.5558  0.2043
  145SAPE  C31815948   4.696   5.768   4.590 -0.1375  0.0136 -0.1757
  145SAPE  H18X15949   4.628   5.681   4.599  1.3764 -1.0833  1.6080
  145SAPE  H18Y15950   4.790   5.730   4.635 -1.0990 -2.9425 -0.4808
  145SAPE  H18Z15951   4.701   5.788   4.481  1.8042  2.8138  0.3043
  146SAPE     N15952   2.317   0.698   6.720  0.1533 -0.4117 -0.4697
  146SAPE   HN115953   2.277   0.774   6.662 -1.1558  1.1485  2.2796
  146SAPE   HN215954   2.358   0.634   6.650 -0.8760  0.0914 -1.5574
  146SAPE   HN315955   2.247   0.648   6.779 -1.9912  1.4591 -1.2876
  146SAPE   C1215956   2.416   0.756   6.824  0.8928 -0.5241 -0.3131
  146SAPE  H12A15957   2.360   0.786   6.914 -0.6867  0.8513 -1.7010
  146SAPE  H12B15958   2.460   0.850   6.784 -1.2462  0.2242 -1.0121
  146SAPE   C1115959   2.531   0.658   6.854  0.2945  0.6316 -0.6452
  146SAPE  H11A15960   2.591   0.700   6.937  0.2592  0.5195 -0.5623
  146SAPE  H11B15961   2.590   0.644   6.761  0.3448  3.8818 -1.2157
  146SAPE     P15962   2.484   0.398   6.832  0.1248  0.1847 -0.3588
  146SAPE   O1315963   2.625   0.358   6.834  0.1608 -0.2672 -0.6731
  146SAPE   O1415964   2.397   0.298   6.901  0.6640 -0.5956  0.0128
  146SAPE   O1215965   2.475   0.535   6.909 -0.1578  0.0081  0.0765
  146SAPE   O1115966   2.432   0.421   6.682 -0.7736  0.2516 -0.1848
  146SAPE    C115967   2.477   0.321   6.591  0.1557  0.1118 -0.2583
  146SAPE    HA15968   2.584   0.323   6.562 -0.3459  1.1366 -2.1647
  146SAPE    HB15969   2.459   0.221   6.638 -3.0329 -0.1058 -1.6656
  146SAPE    C215970   2.393   0.304   6.461 -0.5044  0.4164 -0.5874
  146SAPE    HS15971   2.433   0.383   6.393  0.7755  3.6747  3.5177
  146SAPE   O2115972   2.250   0.325   6.476 -0.0813  0.0929 -0.3338
  146SAPE   C2115973   2.211   0.451   6.490 -0.4252 -0.4792 -0.4597
  146SAPE   O2215974   2.288   0.548   6.500 -0.0501  0.2219 -0.2098
  146SAPE   C2215975   2.060   0.463   6.478 -0.0468 -0.7000 -0.1666
  146SAPE   H2R15976   2.012   0.435   6.574  0.6518  0.1430  0.4423
  146SAPE   H2S15977   2.042   0.572   6.465  1.0055 -0.3798  0.9051
  146SAPE    C315978   2.409   0.165   6.395 -0.6075  0.1173 -0.0229
  146SAPE    HX15979   2.330   0.097   6.433 -2.1517  1.9807  0.2433
  146SAPE    HY15980   2.508   0.124   6.424 -0.3272 -0.5541 -1.8109
  146SAPE   O3115981   2.407   0.182   6.247 -0.1121  0.2280 -0.6411
  146SAPE   C3115982   2.296   0.143   6.181  0.4110 -0.1252  0.0979
  146SAPE   O3215983   2.204   0.083   6.231 -0.3054  0.1069 -0.5547
  146SAPE   C3215984   2.298   0.191   6.041  0.3875  0.0592  0.0900
  146SAPE   H2X15985   2.394   0.150   6.004 -0.4246  0.0254 -2.1396
  146SAPE   H2Y15986   2.287   0.302   6.047  0.7245  0.0335  1.6016
  146SAPE   C2315987   1.999   0.382   6.366  0.6595  0.2831 -0.2753
  146SAPE   H3R15988   1.976   0.282   6.410  2.0887  0.4421  0.9053
  146SAPE   H3S15989   2.072   0.361   6.285  1.2905 -0.4969  0.4729
  146SAPE   C2415990   1.866   0.442   6.325  0.7169 -0.0573  0.3105
  146SAPE   H4R15991   1.894   0.539   6.278  0.2130 -0.3742 -0.6847
  146SAPE   H4S15992   1.805   0.488   6.405 -1.7619  0.3280 -1.6547
  146SAPE   C2515993   1.778   0.365   6.231  0.2829  0.0977  0.4243
  146SAPE   H5R15994   1.701   0.301   6.278  0.6814 -1.1358 -0.5432
  146SAPE   C2615995   1.795   0.346   6.097  0.7934 -0.6049 -0.5684
  146SAPE   H6R15996   1.716   0.284   6.051  2.0847 -1.5117 -1.6230
  146SAPE   C2715997   1.899   0.392   6.004 -0.6904 -0.2167  0.6609
  146SAPE   H7R15998   1.944   0.300   5.961 -0.5086  0.0093  0.3651
  146SAPE   H7S15999   1.986   0.431   6.062 -0.0668 -2.7283  1.5481
  146SAPE   C2816000   1.851   0.488   5.899  0.2795  0.2640  0.2490
  146SAPE   H8R16001   1.852   0.593   5.934 -0.2127  0.1598  0.5903
  146SAPE   C2916002   1.796   0.455   5.775 -0.1964  0.1384 -0.9601
  146SAPE   H9R16003   1.797   0.537   5.702  0.8613  0.5134 -0.5534
  146SAPE  C21016004   1.770   0.317   5.713 -0.2040 -0.0537  0.7948
  146SAPE  H10R16005   1.753   0.237   5.789 -1.1537  1.0004  1.7202
  146SAPE  H10S16006   1.848   0.289   5.639 -0.5910  0.3349  0.2336
  146SAPE  C21116007   1.637   0.302   5.648  0.2228 -0.8987 -0.0484
  146SAPE  H11R16008   1.556   0.258   5.709  2.7421 -2.2643  2.5001
  146SAPE  C21216009   1.615   0.318   5.514  0.2844 -0.2180  0.3220
  146SAPE  H12R16010   1.516   0.301   5.470  0.2932 -0.7351  0.4996
  146SAPE  C21316011   1.705   0.360   5.402  0.3535 -0.4439  0.8831
  146SAPE  H13R16012   1.761   0.275   5.357 -0.6421  0.0249 -1.4031
  146SAPE  H13S16013   1.785   0.422   5.447 -0.1516  1.0910 -0.2456
  146SAPE  C21416014   1.641   0.442   5.294 -0.5420  0.1303  0.3688
  146SAPE  H14R16015   1.597   0.530   5.342  0.1124  0.0580  1.1325
  146SAPE  C21516016   1.644   0.428   5.161 -0.0930 -0.7575 -0.2080
  146SAPE  H15R16017   1.594   0.510   5.108  1.4064 -0.5754 -1.4065
  146SAPE  C21616018   1.694   0.305   5.093 -0.1882 -0.0582  0.8410
  146SAPE  H16R16019   1.641   0.215   5.132  0.9453 -0.7011  0.9605
  146SAPE  H16S16020   1.804   0.288   5.095 -0.2520 -0.5374  0.3732
  146SAPE  C21716021   1.656   0.313   4.945  0.2575  0.4416 -0.1003
  146SAPE  H17R16022   1.719   0.392   4.900 -1.0706  0.1585 -2.6623
  146SAPE  H17S16023   1.552   0.350   4.931  0.4181  1.6888  1.7316
  146SAPE  C21816024   1.675   0.175   4.873 -0.8625 -0.0446  0.0612
  146SAPE  H18R16025   1.626   0.096   4.933  1.3478 -1.6965 -0.1741
  146SAPE  H18S16026   1.781   0.143   4.865 -0.9903 -0.8908  1.4896
  146SAPE  C21916027   1.627   0.178   4.726  0.5866 -0.2105 -0.1800
  146SAPE  H19R16028   1.679   0.260   4.672  0.2993  0.8290  1.0691
  146SAPE  H19S16029   1.517   0.191   4.734  0.4545 -1.3277  0.1040
  146SAPE  C22016030   1.651   0.043   4.651 -0.5193 -0.1873 -0.5101
  146SAPE  H20R16031   1.625  -0.047   4.712 -2.0847  0.9908  0.6215
  146SAPE  H20S16032   1.757   0.041   4.619 -0.1234  1.7549  0.5569
  146SAPE  H20T16033   1.591   0.034   4.558 -0.8101 -1.6763 -0.2083
  146SAPE   C3316034   2.187   0.123   5.954 -0.3121  0.7839  0.5095
  146SAPE   H3X16035   2.086   0.168   5.963 -0.0898  1.9603 -1.9191
  146SAPE   H3Y16036   2.181   0.015   5.981 -0.1108 -0.1993 -2.8807
  146SAPE   C3416037   2.228   0.130   5.807  0.1995  0.3621  0.0725
  146SAPE   H4X16038   2.316   0.064   5.792 -1.1537 -1.1848 -1.6285
  146SAPE   H4Y16039   2.247   0.237   5.782 -0.9833  0.5920  0.0983
  146SAPE   C3516040   2.115   0.062   5.727 -0.1383 -0.7668 -0.0286
  146SAPE   H5X16041   2.017   0.104   5.760  0.8341  0.2357  1.7147
  146SAPE   H5Y16042   2.114  -0.045   5.757  1.0792 -0.8020 -0.0976
  146SAPE   C3616043   2.141   0.073   5.578 -0.1480  0.3296  0.2217
  146SAPE   H6X16044   2.222  -0.001   5.559 -1.4192 -0.7416 -1.2609
  146SAPE   H6Y16045   2.178   0.173   5.548 -1.7760  0.5204 -1.2695
  146SAPE   C3716046   2.023   0.056   5.476  0.2234  0.2498  0.1698
  146SAPE   H7X16047   1.936   0.123   5.494  0.4477  0.8800 -1.0543
  146SAPE   H7Y16048   1.986  -0.049   5.488 -0.7931  0.6975  1.1430
  146SAPE   C3816049   2.072   0.076   5.331 -0.3370 -0.3345 -0.8585
  146SAPE   H8X16050   2.173   0.034   5.312 -0.3476 -0.1035 -1.4488
  146SAPE   H8Y16051   2.091   0.186   5.327 -0.5496 -0.1206  1.8410
  146SAPE   C3916052   1.971   0.036   5.225 -0.3465 -0.0732  0.1558
  146SAPE   H9X16053   1.875   0.082   5.257  0.8181  3.2979 -0.8235
  146SAPE   H9Y16054   1.958  -0.074   5.225 -0.6905 -0.0728  2.2323
  146SAPE  C31016055   2.008   0.092   5.086  0.0508  0.0343  0.2934
  146SAPE  H10X16056   2.017   0.199   5.112 -4.5631  1.0672 -1.5061
  146SAPE  H10Y16057   1.922   0.073   5.018 -1.0769  0.8831  1.4311
  146SAPE  C31116058   2.133   0.033   5.029  0.4893 -0.4145  0.0145
  146SAPE  H11X16059   2.135  -0.077   5.043 -0.6057 -0.6782 -1.4925
  146SAPE  H11Y16060   2.224   0.077   5.074  0.2141  1.0494 -0.7719
  146SAPE  C31216061   2.138   0.053   4.878 -0.1971 -0.0389 -0.2341
  146SAPE  H12X16062   2.165   0.158   4.853  2.0092 -0.2212  1.1194
  146SAPE  H12Y16063   2.036   0.038   4.836 -0.4267 -1.3903  0.7573
  146SAPE  C31316064   2.245  -0.029   4.805 -0.0303  1.1403  0.3581
  146SAPE  H13X16065   2.197  -0.129   4.795  1.3104  0.7232 -3.2092
  146SAPE  H13Y16066   2.340  -0.038   4.861  0.1507 -2.1869 -0.2821
  146SAPE  C31416067   2.274   0.019   4.658 -0.3368  0.1850  0.7844
  146SAPE  H14X16068   2.289   0.129   4.656 -0.7392  0.2508  1.0893
  146SAPE  H14Y16069   2.190  -0.011   4.592 -0.0105 -1.0914  0.9059
  146SAPE  C31516070   2.397  -0.045   4.595  0.2807 -0.0784  0.4446
  146SAPE  H15X16071   2.401  -0.017   4.487 -0.0743 -0.1227  0.4191
  146SAPE  H15Y16072   2.388  -0.156   4.587  0.3844 -0.0786  0.3202
  146SAPE  C31616073   2.524  -0.008   4.672 -0.8324 -0.2166 -0.7983
  146SAPE  H16X16074   2.518  -0.061   4.770 -2.4877 -1.0328 -1.2960
  146SAPE  H16Y16075   2.540   0.102   4.679  1.2933 -0.5197 -0.1718
  146SAPE  C31716076   2.645  -0.067   4.598  0.5115 -0.3803  0.0915
  146SAPE  H17X16077   2.650  -0.009   4.503 -1.8912  0.8770  0.6520
  146SAPE  H17Y16078   2.633  -0.177   4.582  0.5348 -0.1789 -1.5063
  146SAPE  C31816079   2.781  -0.044   4.666 -0.4676  0.0240  0.5386
  146SAPE  H18X16080   2.855  -0.097   4.602 -0.0148  0.9490  0.2889
  146SAPE  H18Y16081   2.780  -0.089   4.768 -0.4481  0.3308  0.6760
  146SAPE  H18Z16082   2.797   0.065   4.676 -0.8662  0.0405  1.0793
  147SAPE     N16083   5.577   3.915   6.549  0.4355 -0.6049 -0.2339
  147SAPE   HN116084   5.618   3.901   6.454 -0.3921 -1.3668 -0.4868
  147SAPE   HN216085   5.497   3.851   6.564 -0.7819  0.7016 -0.9458
  147SAPE   HN316086   5.545   4.013   6.561  2.7083 -0.0142  1.9005
  147SAPE   C1216087   5.688   3.883   6.646  0.2102  0.3985 -0.4393
  147SAPE  H12A16088   5.650   3.894   6.750  0.0738 -1.1253 -0.3055
  147SAPE  H12B16089   5.779   3.947   6.639  1.1399 -0.6075  1.6121
  147SAPE   C1116090   5.735   3.741   6.626 -0.0324  0.3813  0.5127
  147SAPE  H11A16091   5.651   3.668   6.630  0.3314 -0.1090 -0.5558
  147SAPE  H11B16092   5.803   3.710   6.708  0.8432 -2.0506 -1.0099
  147SAPE     P16093   5.894   3.600   6.482  0.1573 -0.2248 -0.4563
  147SAPE   O1316094   5.986   3.582   6.601 -0.8124 -0.4074 -0.0560
  147SAPE   O1416095   5.812   3.479   6.459  0.3426 -0.3820 -0.1247
  147SAPE   O1216096   5.804   3.724   6.499  0.1366  0.2390 -0.3508
  147SAPE   O1116097   5.976   3.626   6.347  0.2874 -0.0754  0.0803
  147SAPE    C116098   5.962   3.749   6.277 -0.6195 -0.3101 -0.0137
  147SAPE    HA16099   5.859   3.787   6.268 -0.1372  1.5975  1.8311
  147SAPE    HB16100   6.024   3.828   6.325  0.5527 -1.4966  0.4931
  147SAPE    C216101   6.011   3.718   6.134 -0.2211 -0.3260  0.8500
  147SAPE    HS16102   6.000   3.803   6.063 -1.4941 -0.0546  1.3491
  147SAPE   O2116103   5.944   3.591   6.094 -0.5590  0.1078 -0.0869
  147SAPE   C2116104   5.818   3.597   6.063  0.0583  0.5959  0.3440
  147SAPE   O2216105   5.751   3.697   6.046 -0.5857  0.5475  0.1278
  147SAPE   C2216106   5.772   3.455   6.050 -0.1608  0.1132  0.0093
  147SAPE   H2R16107   5.814   3.401   6.138  2.0617  0.4169 -0.7801
  147SAPE   H2S16108   5.662   3.450   6.044 -0.3654  1.8348  1.5079
  147SAPE    C316109   6.171   3.699   6.138 -0.0878  0.5387 -0.8362
  147SAPE    HX16110   6.179   3.611   6.206  0.8845  0.6461 -0.8004
  147SAPE    HY16111   6.219   3.782   6.193  2.0675 -2.5222  2.3729
  147SAPE   O3116112   6.230   3.688   6.001 -0.2017  0.2250  0.0335
  147SAPE   C3116113   6.221   3.557   5.949  0.7287 -0.1615  0.2546
  147SAPE   O3216114   6.192   3.465   6.018 -0.9552 -0.5417  0.2186
  147SAPE   C3216115   6.254   3.553   5.795 -0.2723 -0.1680 -0.0344
  147SAPE   H2X16116   6.339   3.621   5.771  0.0921  0.0478  1.7715
  147SAPE   H2Y16117   6.158   3.592   5.753  0.0690  2.7009  1.5735
  147SAPE   C2316118   5.834   3.386   5.924 -0.1361  0.0165  0.0570
  147SAPE   H3R16119   5.799   3.281   5.922 -2.7595  0.8186 -1.2730
  147SAPE   H3S16120   5.945   3.394   5.915 -0.3769  3.6560 -1.9316
  147SAPE   C2416121   5.779   3.451   5.793 -0.3216  1.3081  0.4617
  147SAPE   H4R16122   5.768   3.559   5.815  1.0758  1.6006 -0.1882
  147SAPE   H4S16123   5.673   3.416   5.786 -0.5648  2.3147 -1.5744
  147SAPE   C2516124   5.836   3.400   5.665  0.7381  0.2213 -0.6811
  147SAPE   H5R16125   5.809   3.296   5.644 -1.0816  0.3931  0.6410
  147SAPE   C2616126   5.889   3.478   5.568  0.2392  0.3913 -0.6817
  147SAPE   H6R16127   5.931   3.440   5.473 -0.2517  2.8828 -1.9841
  147SAPE   C2716128   5.905   3.627   5.577 -0.7247  0.0634  0.0780
  147SAPE   H7R16129   5.923   3.645   5.686  1.1149  0.0604 -0.1821
  147SAPE   H7S16130   5.817   3.687   5.547 -0.3523  1.5460  1.7728
  147SAPE   C2816131   6.010   3.671   5.482 -0.2389 -0.1369  0.0278
  147SAPE   H8R16132   6.102   3.704   5.533 -1.0498  0.7581  0.9647
  147SAPE   C2916133   6.005   3.679   5.344  0.0345  0.4240 -0.7731
  147SAPE   H9R16134   6.100   3.702   5.294  1.2809 -0.8364  0.8546
  147SAPE  C21016135   5.884   3.654   5.256 -0.0025 -0.4154 -0.7173
  147SAPE  H10R16136   5.882   3.732   5.177 -2.8239  1.0752  0.6798
  147SAPE  H10S16137   5.795   3.670   5.321  0.5604 -2.3298  0.6174
  147SAPE  C21116138   5.878   3.509   5.210 -0.1433  0.1852 -0.0585
  147SAPE  H11R16139   5.881   3.434   5.290 -0.4532 -0.8294 -0.9633
  147SAPE  C21216140   5.877   3.462   5.088 -0.1311 -0.1905 -0.1146
  147SAPE  H12R16141   5.879   3.354   5.069  1.8156 -0.0127 -1.1589
  147SAPE  C21316142   5.868   3.547   4.956 -0.2831  0.4159  0.2014
  147SAPE  H13R16143   5.968   3.557   4.909 -0.8741  0.9847 -0.9446
  147SAPE  H13S16144   5.833   3.649   4.979  0.4633  1.0128 -1.1981
  147SAPE  C21416145   5.769   3.493   4.856 -0.8388 -0.2005  0.0604
  147SAPE  H14R16146   5.763   3.383   4.851  2.1497 -0.4343 -0.4010
  147SAPE  C21516147   5.674   3.560   4.783 -0.2101  0.1681  0.4539
  147SAPE  H15R16148   5.602   3.507   4.719 -0.2975 -0.5862  1.1634
  147SAPE  C21616149   5.654   3.709   4.771  0.7937  0.4615  0.3157
  147SAPE  H16R16150   5.744   3.765   4.804 -0.0160  1.2698  1.2109
  147SAPE  H16S16151   5.574   3.747   4.838  1.7695  2.5639  0.3950
  147SAPE  C21716152   5.623   3.731   4.621  0.2088 -0.6716 -0.7872
  147SAPE  H17R16153   5.543   3.664   4.583 -0.0206 -0.9341  0.1343
  147SAPE  H17S16154   5.714   3.712   4.561  0.6615  1.2643 -0.7952
  147SAPE  C21816155   5.584   3.881   4.600 -0.4754  0.3231  0.5706
  147SAPE  H18R16156   5.668   3.941   4.639  0.1245 -0.7223  0.9350
  147SAPE  H18S16157   5.491   3.905   4.656 -0.1789  2.6363  0.1646
  147SAPE  C21916158   5.545   3.912   4.455 -0.1812 -0.1338  0.2063
  147SAPE  H19R16159   5.634   3.881   4.396  0.3748  0.1286  0.9054
  147SAPE  H19S16160   5.542   4.023   4.451 -1.1600 -0.0531  2.1895
  147SAPE  C22016161   5.429   3.843   4.390 -0.2552 -0.3397  0.6111
  147SAPE  H20R16162   5.394   3.882   4.292 -2.0089 -2.9555  0.1035
  147SAPE  H20S16163   5.347   3.838   4.464  0.1488  0.9647  1.1884
  147SAPE  H20T16164   5.453   3.739   4.361  0.2557  0.2830 -1.3825
  147SAPE   C3316165   6.277   3.402   5.743 -0.3106  0.1768  0.3796
  147SAPE   H3X16166   6.185   3.341   5.752 -0.9457  0.9304 -0.8497
  147SAPE   H3Y16167   6.360   3.354   5.799  1.9158  1.4100 -1.6560
  147SAPE   C3416168   6.296   3.388   5.588  0.1642 -0.4333 -1.0119
  147SAPE   H4X16169   6.209   3.440   5.544  1.5628  0.9142 -2.2978
  147SAPE   H4Y16170   6.291   3.280   5.561 -0.9645 -0.1751 -1.8904
  147SAPE   C3516171   6.421   3.450   5.524 -0.1651  0.2979 -0.1512
  147SAPE   H5X16172   6.515   3.413   5.570 -0.2011  0.4256  0.0269
  147SAPE   H5Y16173   6.421   3.560   5.540 -1.5012  0.3473 -0.3508
  147SAPE   C3616174   6.437   3.420   5.374 -0.1036  0.3658  0.5304
  147SAPE   H6X16175   6.471   3.315   5.361  0.0352  0.3847  0.7319
  147SAPE   H6Y16176   6.523   3.483   5.342  0.3179 -0.8850 -0.8989
  147SAPE   C3716177   6.320   3.469   5.285  0.4754  0.0230  0.0548
  147SAPE   H7X16178   6.305   3.577   5.305 -1.3452 -0.5983  2.5963
  147SAPE   H7Y16179   6.222   3.420   5.300  0.6995 -1.0706 -1.6782
  147SAPE   C3816180   6.349   3.464   5.132 -0.2913  0.6288  0.3491
  147SAPE   H8X16181   6.375   3.358   5.109  0.0153  0.9567 -0.8541
  147SAPE   H8Y16182   6.437   3.522   5.098 -0.6217  0.8363 -0.1512
  147SAPE   C3916183   6.231   3.496   5.042  0.2630 -0.0310  0.4411
  147SAPE   H9X16184   6.205   3.604   5.042  1.4470  0.2811 -0.7677
  147SAPE   H9Y16185   6.147   3.445   5.094 -0.9557  0.0810 -1.3241
  147SAPE  C31016186   6.235   3.428   4.901 -0.1852  0.1389 -0.2920
  147SAPE  H10X16187   6.136   3.435   4.850  0.0574 -0.1052 -0.8019
  147SAPE  H10Y16188   6.240   3.319   4.923 -1.2700 -0.1132 -1.1985
  147SAPE  C31116189   6.349   3.471   4.812 -0.3283  0.0556  0.1609
  147SAPE  H11X16190   6.438   3.484   4.878 -0.5507 -1.0319  0.7124
  147SAPE  H11Y16191   6.324   3.566   4.761  0.5858  0.4924  0.4994
  147SAPE  C31216192   6.370   3.369   4.702 -0.1904 -0.0286  0.4842
  147SAPE  H12X16193   6.269   3.342   4.664 -0.8503 -0.7603  2.5811
  147SAPE  H12Y16194   6.418   3.276   4.740  0.9285 -0.1040 -1.0467
  147SAPE  C31316195   6.447   3.417   4.580  0.0110  0.0800 -0.1599
  147SAPE  H13X16196   6.550   3.440   4.616  0.3999 -1.3589 -0.2991
  147SAPE  H13Y16197   6.392   3.500   4.532 -3.5567 -1.1701  1.4302
  147SAPE  C31416198   6.462   3.307   4.477  0.5799  0.2964  0.1579
  147SAPE  H14X16199   6.365   3.252   4.472  1.3316 -1.0222 -0.3625
  147SAPE  H14Y16200   6.530   3.231   4.521  0.9646  0.2240 -0.5541
  147SAPE  C31516201   6.510   3.358   4.340  1.4895 -0.6795  0.1851
  147SAPE  H15X16202   6.612   3.403   4.343  0.9526  0.5662  0.6142
  147SAPE  H15Y16203   6.432   3.427   4.301  0.7608 -2.6593 -2.1335
  147SAPE  C31616204   6.503   3.242   4.237  0.0564  0.3682 -0.1649
  147SAPE  H16X16205   6.552   3.155   4.285  1.1080  0.5107 -0.9573
  147SAPE  H16Y16206   6.556   3.261   4.141 -0.9435 -1.4857 -1.1400
  147SAPE  C31716207   6.360   3.198   4.190 -0.2410 -0.8424  0.3183
  147SAPE  H17X16208   6.299   3.290   4.172  0.8424 -0.2450 -0.4476
  147SAPE  H17Y16209   6.317   3.143   4.276 -0.0150  1.8830  2.3383
  147SAPE  C31816210   6.373   3.126   4.058 -0.9804 -0.1005  0.2222
  147SAPE  H18X16211   6.278   3.115   4.001 -0.0568  1.0262 -1.6307
  147SAPE  H18Y16212   6.404   3.022   4.080 -1.1301  0.1781  1.8616
  147SAPE  H18Z16213   6.434   3.183   3.984  0.1205  2.8784  3.1580
  148SAPE     N16214   5.554   4.628   6.392  0.0590  0.5753 -0.7237
  148SAPE   HN116215   5.550   4.689   6.308 -0.7626  0.5681 -0.6931
  148SAPE   HN216216   5.505   4.673   6.472 -0.9796 -1.0286 -0.4004
  148SAPE   HN316217   5.652   4.605   6.418 -0.4813  0.3496  1.2767
  148SAPE   C1216218   5.476   4.503   6.355 -0.1916  0.1404 -0.4944
  148SAPE  H12A16219   5.521   4.423   6.417  0.3633 -0.4880 -1.6793
  148SAPE  H12B16220   5.490   4.467   6.250  2.5311 -2.3484  0.5781
  148SAPE   C1116221   5.327   4.524   6.372 -0.1674 -0.2692 -0.4002
  148SAPE  H11A16222   5.269   4.433   6.347  0.7005 -0.4485 -1.8918
  148SAPE  H11B16223   5.273   4.588   6.299 -1.4633  0.3139  1.0246
  148SAPE     P16224   5.262   4.718   6.550 -0.5315 -0.1478 -0.3300
  148SAPE   O1316225   5.177   4.706   6.675  0.3841 -0.3614  0.1604
  148SAPE   O1416226   5.384   4.798   6.550  0.0605 -0.1664 -0.6814
  148SAPE   O1216227   5.302   4.567   6.504  0.0676 -0.0749 -0.0966
  148SAPE   O1116228   5.189   4.765   6.420  0.0919  0.2553 -0.0232
  148SAPE    C116229   5.047   4.773   6.428  0.3589 -0.3227  0.2859
  148SAPE    HA16230   5.003   4.678   6.468  1.2507 -0.3503  1.2442
  148SAPE    HB16231   5.009   4.854   6.493 -1.9751 -2.1728  1.4263
  148SAPE    C216232   4.970   4.789   6.290 -1.3908  0.1347 -0.1204
  148SAPE    HS16233   4.861   4.809   6.303 -1.4949 -0.2218 -0.4235
  148SAPE   O2116234   4.994   4.669   6.208 -0.0242 -0.1428 -0.2139
  148SAPE   C2116235   4.897   4.589   6.197  0.2731  0.5335 -0.0140
  148SAPE   O2216236   4.785   4.604   6.233 -0.3687  0.0031 -0.1280
  148SAPE   C2216237   4.940   4.470   6.117  0.6178 -0.2593  0.2845
  148SAPE   H2R16238   5.013   4.501   6.038  0.3183  2.0264  0.8172
  148SAPE   H2S16239   4.987   4.387   6.173 -1.2141 -0.3354  1.7883
  148SAPE    C316240   5.037   4.910   6.212 -0.1724  0.1438  0.4640
  148SAPE    HX16241   5.147   4.901   6.197 -0.6175 -0.3979 -3.3478
  148SAPE    HY16242   5.025   4.999   6.278 -2.5104 -0.7752  1.3721
  148SAPE   O3116243   4.970   4.920   6.090 -0.4834 -0.6048  0.0865
  148SAPE   C3116244   4.845   4.970   6.091 -0.0498  0.3680 -0.4828
  148SAPE   O3216245   4.782   5.008   6.192  0.1645 -0.5048  0.2837
  148SAPE   C3216246   4.793   4.962   5.948  0.4379  0.9649 -0.7005
  148SAPE   H2X16247   4.860   5.016   5.878  1.9476  0.8001  0.5480
  148SAPE   H2Y16248   4.708   5.033   5.951  0.0402  0.5744 -2.1350
  148SAPE   C2316249   4.814   4.410   6.062  0.8860 -0.4101 -0.7820
  148SAPE   H3R16250   4.742   4.481   6.018  1.2106  1.0397  0.9171
  148SAPE   H3S16251   4.751   4.356   6.136 -2.1065  2.1590 -1.2393
  148SAPE   C2416252   4.847   4.299   5.965 -0.2911  0.2484 -0.5833
  148SAPE   H4R16253   4.900   4.225   6.030  0.1384  1.2886  0.2855
  148SAPE   H4S16254   4.908   4.348   5.887 -2.5681  1.4280 -1.7088
  148SAPE   C2516255   4.723   4.238   5.905  0.4069  0.6063  0.1207
  148SAPE   H5R16256   4.663   4.187   5.982  1.2748  0.2174  0.5574
  148SAPE   C2616257   4.677   4.247   5.780 -0.6186  0.8146 -0.0933
  148SAPE   H6R16258   4.588   4.187   5.756 -0.0518 -0.2907  0.4648
  148SAPE   C2716259   4.747   4.320   5.669  0.4248  1.0632  0.0916
  148SAPE   H7R16260   4.813   4.253   5.610  0.6734  1.5334 -0.1780
  148SAPE   H7S16261   4.807   4.399   5.719  1.5980  0.4281 -0.2639
  148SAPE   C2816262   4.647   4.397   5.582 -0.3789  0.4281  0.3261
  148SAPE   H8R16263   4.639   4.498   5.624 -0.8459  0.7563 -0.5237
  148SAPE   C2916264   4.578   4.355   5.473 -0.7646  0.2321  0.0847
  148SAPE   H9R16265   4.526   4.438   5.425  3.6640  3.3394  0.0685
  148SAPE  C21016266   4.594   4.215   5.411  0.4705 -0.3143  0.3369
  148SAPE  H10R16267   4.525   4.156   5.475 -0.3005  1.1695  0.9036
  148SAPE  H10S16268   4.694   4.173   5.436  0.9609  1.8078  2.2921
  148SAPE  C21116269   4.563   4.189   5.264  0.0665  1.0103 -0.5330
  148SAPE  H11R16270   4.459   4.181   5.230  0.3023  1.0537 -1.2638
  148SAPE  C21216271   4.644   4.185   5.160 -0.2239 -0.1029 -0.7795
  148SAPE  H12R16272   4.594   4.164   5.065 -1.3505 -3.3407  0.4003
  148SAPE  C21316273   4.791   4.203   5.152 -0.1297 -0.1205  0.2901
  148SAPE  H13R16274   4.835   4.187   5.052 -0.0058  3.8080 -0.4407
  148SAPE  H13S16275   4.838   4.129   5.220  1.1712 -0.6352 -1.1226
  148SAPE  C21416276   4.836   4.343   5.193 -0.4751  0.5090 -0.1821
  148SAPE  H14R16277   4.858   4.358   5.300 -1.7766  2.0987 -0.1073
  148SAPE  C21516278   4.858   4.445   5.110  0.5283  1.0787 -1.1055
  148SAPE  H15R16279   4.906   4.537   5.148 -2.1327  1.7993  0.8485
  148SAPE  C21616280   4.822   4.437   4.968  0.6579  0.5793  0.1954
  148SAPE  H16R16281   4.754   4.522   4.946 -0.3991 -0.3713 -0.3134
  148SAPE  H16S16282   4.767   4.343   4.945  1.1424  0.3560 -0.0801
  148SAPE  C21716283   4.953   4.455   4.878  0.0769  0.2088 -0.8105
  148SAPE  H17R16284   5.018   4.367   4.895 -1.5474 -1.3849 -2.3538
  148SAPE  H17S16285   5.010   4.541   4.918 -0.6925 -0.0299  0.9062
  148SAPE  C21816286   4.916   4.469   4.732  0.0846  0.1164 -0.4883
  148SAPE  H18R16287   4.875   4.375   4.691  0.8262  0.2648 -1.6071
  148SAPE  H18S16288   4.999   4.515   4.674 -1.0098  0.8006 -1.5672
  148SAPE  C21916289   4.802   4.562   4.681 -0.2232 -0.2652 -0.3762
  148SAPE  H19R16290   4.807   4.665   4.722  0.8712 -0.5288  0.1768
  148SAPE  H19S16291   4.706   4.526   4.725 -0.6042  2.0971  0.8761
  148SAPE  C22016292   4.775   4.562   4.533 -0.6113  0.0133 -0.0297
  148SAPE  H20R16293   4.694   4.627   4.495  0.4755  1.2923 -0.2307
  148SAPE  H20S16294   4.743   4.461   4.499  1.0504 -0.7998  0.6959
  148SAPE  H20T16295   4.859   4.613   4.482 -1.4756  1.7788  0.2348
  148SAPE   C3316296   4.769   4.812   5.912  0.2299 -0.2161  0.3905
  148SAPE   H3X16297   4.673   4.777   5.956 -0.4076 -0.3081 -1.0086
  148SAPE   H3Y16298   4.835   4.744   5.969 -1.2474  0.9191  3.6986
  148SAPE   C3416299   4.771   4.787   5.754  0.8473 -0.7139 -0.3241
  148SAPE   H4X16300   4.765   4.676   5.746  0.5310 -0.8586  1.5127
  148SAPE   H4Y16301   4.868   4.801   5.701  1.2387  0.7018  0.6943
  148SAPE   C3516302   4.659   4.861   5.681  0.0529  0.2876  0.5465
  148SAPE   H5X16303   4.680   4.969   5.693 -0.8930  0.6041 -0.5259
  148SAPE   H5Y16304   4.560   4.846   5.730 -0.6069  1.4653 -0.3639
  148SAPE   C3616305   4.639   4.808   5.537  0.4208 -0.3508  0.0934
  148SAPE   H6X16306   4.560   4.877   5.500  1.5340  0.8746 -0.0454
  148SAPE   H6Y16307   4.593   4.707   5.545 -0.6549  0.2258  1.5837
  148SAPE   C3716308   4.764   4.819   5.449 -0.4925  0.5350  0.5466
  148SAPE   H7X16309   4.844   4.753   5.488 -1.7922  0.5316  3.4199
  148SAPE   H7Y16310   4.801   4.922   5.468 -2.1182  0.8704  2.1760
  148SAPE   C3816311   4.738   4.807   5.305  0.2054 -0.0468  0.0061
  148SAPE   H8X16312   4.660   4.874   5.264  1.2770  0.1028 -1.8991
  148SAPE   H8Y16313   4.700   4.704   5.292 -2.4240  0.8675 -0.0820
  148SAPE   C3916314   4.865   4.845   5.232 -0.5709  0.6946  0.3317
  148SAPE   H9X16315   4.923   4.751   5.238 -0.3301  0.5630 -2.5456
  148SAPE   H9Y16316   4.910   4.939   5.272 -0.3049  0.9613 -0.5661
  148SAPE  C31016317   4.851   4.873   5.081 -0.1540 -0.1459 -0.3685
  148SAPE  H10X16318   4.797   4.966   5.055  0.8322  0.4035 -0.5067
  148SAPE  H10Y16319   4.785   4.795   5.038  0.1774  0.8494 -2.8506
  148SAPE  C31116320   4.988   4.861   4.992  0.4638  0.2198  0.3680
  148SAPE  H11X16321   4.951   4.842   4.889 -3.0830 -1.6900  1.8156
  148SAPE  H11Y16322   5.037   4.769   5.032  3.6385  2.5568  2.2910
  148SAPE  C31216323   5.089   4.973   5.006 -0.0542  0.3630 -0.0268
  148SAPE  H12X16324   5.186   4.926   4.977 -1.5585 -3.2587  0.2520
  148SAPE  H12Y16325   5.101   4.996   5.114  2.0706 -1.1400  0.1271
  148SAPE  C31316326   5.065   5.100   4.923 -0.0507 -0.2813 -0.7744
  148SAPE  H13X16327   5.142   5.173   4.955  0.5378 -1.0747 -0.3480
  148SAPE  H13Y16328   4.962   5.135   4.947 -0.3478 -1.7913  0.2709
  148SAPE  C31416329   5.084   5.075   4.768 -0.2559  0.4590  0.5193
  148SAPE  H14X16330   5.017   4.991   4.739 -1.6825  1.9172 -0.6087
  148SAPE  H14Y16331   5.190   5.054   4.744  0.1522  0.1828  2.3766
  148SAPE  C31516332   5.045   5.197   4.678 -0.0007  0.2450 -0.1758
  148SAPE  H15X16333   5.125   5.273   4.687 -0.8301  1.0084  0.9480
  148SAPE  H15Y16334   4.951   5.238   4.721 -1.2437 -0.0534 -2.4154
  148SAPE  C31616335   5.023   5.156   4.531  0.0429  0.0987  0.3822
  148SAPE  H16X16336   4.954   5.070   4.521 -1.1821  1.2480 -1.8585
  148SAPE  H16Y16337   5.122   5.121   4.496 -0.3662 -1.5290  0.7733
  148SAPE  C31716338   4.970   5.267   4.443 -0.0313  0.1331 -0.1701
  148SAPE  H17X16339   5.029   5.358   4.467 -0.0181 -0.0372  0.4812
  148SAPE  H17Y16340   4.861   5.284   4.460  0.1678  2.6520 -1.0410
  148SAPE  C31816341   4.993   5.234   4.294 -0.1660  0.0660 -0.0384
  148SAPE  H18X16342   5.096   5.214   4.258 -0.0775  2.8045 -1.5521
  148SAPE  H18Y16343   4.956   5.323   4.238 -0.1287 -0.3128 -0.6714
  148SAPE  H18Z16344   4.931   5.144   4.273 -0.8865  0.9672 -2.0810
  149SAPE     N16345   5.844   1.004   6.677  0.2025 -0.5403 -0.3077
  149SAPE   HN116346   5.943   0.974   6.663  0.3575  0.0478 -0.4932
  149SAPE   HN216347   5.848   1.104   6.705 -1.3733 -0.6173  0.2855
  149SAPE   HN316348   5.807   0.950   6.758 -0.2392 -0.6968 -0.6110
  149SAPE   C1216349   5.764   0.976   6.555 -0.1021 -0.3096  0.2601
  149SAPE  H12A16350   5.831   1.019   6.478  0.4089 -0.5689  0.5539
  149SAPE  H12B16351   5.665   1.026   6.563 -0.2771 -0.7433  0.9103
  149SAPE   C1116352   5.761   0.825   6.535 -0.2379  0.3528 -0.0973
  149SAPE  H11A16353   5.857   0.771   6.525 -0.5887 -0.1989 -0.5994
  149SAPE  H11B16354   5.711   0.805   6.438 -0.8893  1.3747  0.0055
  149SAPE     P16355   5.519   0.763   6.627 -0.2645 -0.1280 -0.0038
  149SAPE   O1316356   5.474   0.660   6.532 -0.4548 -0.6025  0.1246
  149SAPE   O1416357   5.478   0.730   6.769 -0.5368 -0.2058  0.7359
  149SAPE   O1216358   5.677   0.772   6.637 -0.1138 -0.0831  0.2895
  149SAPE   O1116359   5.472   0.908   6.583 -0.2202  0.3286  0.4894
  149SAPE    C116360   5.349   0.931   6.508 -0.3178 -0.2584  0.1784
  149SAPE    HA16361   5.272   0.852   6.522 -1.1199  0.0927 -1.8801
  149SAPE    HB16362   5.297   1.021   6.548  1.0617 -0.4338  2.5443
  149SAPE    C216363   5.371   0.962   6.358 -0.3820  0.2512 -0.4023
  149SAPE    HS16364   5.278   1.009   6.318 -1.1457  0.1493  1.1634
  149SAPE   O2116365   5.418   0.846   6.296  0.1527 -0.3632  0.0463
  149SAPE   C2116366   5.340   0.745   6.265  0.1794  0.3678  0.1237
  149SAPE   O2216367   5.222   0.737   6.289  0.2485 -0.3078  0.1151
  149SAPE   C2216368   5.428   0.638   6.201 -0.4083 -0.0012  0.4532
  149SAPE   H2R16369   5.514   0.690   6.154 -1.3142  3.1183  1.9339
  149SAPE   H2S16370   5.474   0.577   6.282 -0.8481  0.4367  1.0506
  149SAPE    C316371   5.480   1.068   6.343 -0.4926  0.2055 -0.2502
  149SAPE    HX16372   5.579   1.033   6.378 -0.5073 -1.3950 -1.6431
  149SAPE    HY16373   5.441   1.162   6.386 -1.7966  0.6005 -2.1800
  149SAPE   O3116374   5.484   1.100   6.205 -0.2481 -0.2701  0.1710
  149SAPE   C3116375   5.577   1.055   6.126  0.2681 -0.0440 -0.3383
  149SAPE   O3216376   5.661   0.974   6.149  0.0897 -0.0594  0.8469
  149SAPE   C3216377   5.566   1.122   5.987  0.3165 -0.2075  0.5959
  149SAPE   H2X16378   5.560   1.231   6.007 -1.1460  0.1484 -1.3686
  149SAPE   H2Y16379   5.462   1.097   5.954  0.2703  1.2697 -0.4809
  149SAPE   C2316380   5.358   0.552   6.099 -0.0272  0.3940 -0.2308
  149SAPE   H3R16381   5.252   0.536   6.129 -0.5891  3.7728 -0.0171
  149SAPE   H3S16382   5.408   0.453   6.094  1.8990  1.3090 -0.0328
  149SAPE   C2416383   5.358   0.614   5.961 -0.1265 -0.9364  0.4515
  149SAPE   H4R16384   5.314   0.716   5.959  1.7981 -0.0774 -0.7633
  149SAPE   H4S16385   5.288   0.552   5.901  0.0522 -0.6861 -0.0138
  149SAPE   C2516386   5.493   0.653   5.891 -0.5161  0.7699  0.8864
  149SAPE   H5R16387   5.565   0.715   5.946 -1.1618  2.9453 -0.5725
  149SAPE   C2616388   5.532   0.610   5.763 -0.1975  0.5120 -0.0444
  149SAPE   H6R16389   5.621   0.660   5.722  1.7520 -1.6731  1.3087
  149SAPE   C2716390   5.438   0.538   5.665  0.1838  0.5039 -0.2775
  149SAPE   H7R16391   5.387   0.455   5.718  0.9831  1.0090  1.3630
  149SAPE   H7S16392   5.502   0.474   5.601 -1.1157 -1.5392  0.3820
  149SAPE   C2816393   5.349   0.629   5.584 -0.4070 -0.5017 -0.0319
  149SAPE   H8R16394   5.260   0.673   5.631 -0.2689  0.2455 -0.4565
  149SAPE   C2916395   5.380   0.690   5.465  0.0691  0.0472  0.1337
  149SAPE   H9R16396   5.297   0.756   5.432 -0.2079  0.2016  1.0953
  149SAPE  C21016397   5.498   0.670   5.370  0.4008 -0.6544 -0.4660
  149SAPE  H10R16398   5.596   0.661   5.423 -0.9552  0.9995  2.5928
  149SAPE  H10S16399   5.525   0.763   5.316  0.4324  0.3388  1.1772
  149SAPE  C21116400   5.465   0.545   5.293  0.2390 -0.2078  0.1443
  149SAPE  H11R16401   5.469   0.453   5.352  1.2610  0.4659  1.1537
  149SAPE  C21216402   5.420   0.540   5.166 -0.0292 -0.4620 -0.3850
  149SAPE  H12R16403   5.417   0.437   5.126  1.3209 -0.4006 -0.6943
  149SAPE  C21316404   5.406   0.652   5.062 -0.0092  0.2044 -0.0580
  149SAPE  H13R16405   5.498   0.711   5.045  0.2498 -0.2713 -0.3295
  149SAPE  H13S16406   5.333   0.719   5.113 -1.0675 -0.5109 -0.5902
  149SAPE  C21416407   5.338   0.606   4.936  0.2620  0.8392 -1.2876
  149SAPE  H14R16408   5.232   0.601   4.964  0.7442  1.1619  0.7470
  149SAPE  C21516409   5.381   0.552   4.824 -0.3037  0.4421  0.5720
  149SAPE  H15R16410   5.310   0.523   4.746 -1.4729 -0.4003  1.9106
  149SAPE  C21616411   5.529   0.530   4.797 -0.0267  0.3603 -0.2252
  149SAPE  H16R16412   5.593   0.572   4.878  2.9231  0.1245 -2.2610
  149SAPE  H16S16413   5.553   0.592   4.708  0.1878  0.2596 -0.2380
  149SAPE  C21716414   5.593   0.385   4.755 -0.5004 -0.9973  0.5400
  149SAPE  H17R16415   5.553   0.311   4.828 -0.4078  0.0225  1.6678
  149SAPE  H17S16416   5.704   0.390   4.757 -0.5254  1.5017 -0.4775
  149SAPE  C21816417   5.536   0.353   4.617 -0.3176 -0.6351 -0.1283
  149SAPE  H18R16418   5.581   0.420   4.541  0.3471 -0.6687  0.2312
  149SAPE  H18S16419   5.426   0.362   4.605 -0.2629  1.1176  0.4632
  149SAPE  C21916420   5.563   0.209   4.578 -0.3406  0.2823 -0.2829
  149SAPE  H19R16421   5.516   0.189   4.479 -0.0036  2.4941 -0.9426
  149SAPE  H19S16422   5.518   0.132   4.645 -0.8789  0.0614 -0.8812
  149SAPE  C22016423   5.708   0.188   4.557 -0.2733  0.0946 -0.5801
  149SAPE  H20R16424   5.730   0.251   4.468 -5.8863  0.3245 -2.1912
  149SAPE  H20S16425   5.736   0.082   4.536  3.1302  0.7675 -0.0558
  149SAPE  H20T16426   5.767   0.224   4.644  0.9118 -0.0187 -1.3044
  149SAPE   C3316427   5.670   1.082   5.882 -0.2074  0.2613  0.0273
  149SAPE   H3X16428   5.661   0.972   5.867 -0.6114 -0.1184  2.6403
  149SAPE   H3Y16429   5.774   1.093   5.920 -0.1722 -1.2353  0.4152
  149SAPE   C3416430   5.639   1.135   5.743  0.3827  0.0685 -0.5646
  149SAPE   H4X16431   5.689   1.234   5.746  1.1022 -0.2744 -0.9029
  149SAPE   H4Y16432   5.529   1.128   5.736  0.5288 -2.3239 -2.0670
  149SAPE   C3516433   5.694   1.049   5.630 -0.3473  0.5461 -0.3547
  149SAPE   H5X16434   5.695   0.940   5.648  0.2714  0.7280  0.7959
  149SAPE   H5Y16435   5.800   1.080   5.618  0.2229  0.2022  2.8781
  149SAPE   C3616436   5.622   1.081   5.506  0.3047 -0.6816  0.0276
  149SAPE   H6X16437   5.629   1.191   5.491 -2.3570 -0.6462 -1.8114
  149SAPE   H6Y16438   5.513   1.068   5.522  0.0449 -0.7121 -1.5808
  149SAPE   C3716439   5.680   1.007   5.380  0.3788 -0.7160  1.0756
  149SAPE   H7X16440   5.684   0.898   5.401  2.0919 -0.9422 -0.1520
  149SAPE   H7Y16441   5.786   1.039   5.364  0.3501 -1.2324 -0.3428
  149SAPE   C3816442   5.587   1.027   5.259 -0.0933 -0.6685  0.0111
  149SAPE   H8X16443   5.579   1.136   5.241  0.1301 -0.9446 -2.0529
  149SAPE   H8Y16444   5.490   0.983   5.291 -0.6789  1.4276  1.3439
  149SAPE   C3916445   5.639   0.964   5.127 -0.4754  0.3360 -1.3562
  149SAPE   H9X16446   5.663   0.857   5.145  1.9220  1.1605  0.8698
  149SAPE   H9Y16447   5.733   1.016   5.100  0.5837 -0.3716  0.7484
  149SAPE  C31016448   5.525   0.980   5.020 -0.2997  0.1494 -0.0204
  149SAPE  H10X16449   5.487   1.083   5.011  0.7131  0.6916  1.4568
  149SAPE  H10Y16450   5.443   0.914   5.055 -0.1785  1.2723  2.5665
  149SAPE  C31116451   5.566   0.931   4.880 -0.2610  0.0893 -0.2693
  149SAPE  H11X16452   5.603   0.826   4.882  2.6682  1.0410  0.0574
  149SAPE  H11Y16453   5.656   0.994   4.865 -1.5931  2.0032 -0.4895
  149SAPE  C31216454   5.466   0.945   4.771 -0.1137 -0.0977 -0.2457
  149SAPE  H12X16455   5.429   1.049   4.781 -0.5409 -0.4620  2.6232
  149SAPE  H12Y16456   5.388   0.867   4.780  0.8310 -0.9809  0.6854
  149SAPE  C31316457   5.533   0.927   4.624  0.5061  0.0092 -0.1542
  149SAPE  H13X16458   5.548   0.819   4.603 -0.8458 -0.4530  1.0376
  149SAPE  H13Y16459   5.629   0.983   4.628  0.2677  0.8567 -3.5410
  149SAPE  C31416460   5.442   0.997   4.523  0.5782  0.3445  0.0440
  149SAPE  H14X16461   5.430   1.105   4.546  0.3048  0.1721  0.7305
  149SAPE  H14Y16462   5.349   0.937   4.534  0.4679  0.7778  1.7365
  149SAPE  C31516463   5.499   1.000   4.380 -0.2784 -0.3971  0.2531
  149SAPE  H15X16464   5.535   0.896   4.360  2.5877  0.9612 -2.5217
  149SAPE  H15Y16465   5.595   1.056   4.385 -0.0315 -0.6378 -1.1751
  149SAPE  C31616466   5.404   1.035   4.259 -0.1188  0.2387  0.1795
  149SAPE  H16X16467   5.466   1.064   4.172 -1.4254 -0.5475 -1.0680
  149SAPE  H16Y16468   5.357   1.131   4.288  1.0347  0.9982 -0.4019
  149SAPE  C31716469   5.314   0.916   4.237  0.0740  0.3971  0.2051
  149SAPE  H17X16470   5.241   0.902   4.319 -1.0252 -1.5380 -1.0244
  149SAPE  H17Y16471   5.369   0.821   4.221  0.9130  1.1164 -1.4131
  149SAPE  C31816472   5.229   0.946   4.110 -0.3360 -0.0878 -0.6719
  149SAPE  H18X16473   5.154   0.868   4.084 -1.0438 -1.0255  3.4120
  149SAPE  H18Y16474   5.295   0.969   4.023 -1.0307 -0.4757 -1.3134
  149SAPE  H18Z16475   5.165   1.037   4.123  0.7628  0.3985  1.9410
  150SAPE     N16476   0.605   6.660   6.519 -0.6166  0.2834  0.4708
  150SAPE   HN116477   0.686   6.617   6.469 -0.6005 -1.2975  1.7567
  150SAPE   HN216478   0.526   6.594   6.506 -0.4680  0.1566  0.2111
  150SAPE   HN316479   0.576   6.749   6.475 -0.7583  1.1699  2.2510
  150SAPE   C1216480   0.649   6.671   6.656 -1.0779  0.2954 -0.1159
  150SAPE  H12A16481   0.620   6.582   6.716  1.0288  0.3076  1.0525
  150SAPE  H12B16482   0.596   6.759   6.697  0.3025  2.1164 -2.0520
  150SAPE   C1116483   0.797   6.685   6.674 -0.3196 -0.0566 -0.3216
  150SAPE  H11A16484   0.816   6.704   6.782  1.4948 -0.2722 -0.5753
  150SAPE  H11B16485   0.837   6.777   6.628 -2.0951  0.5671 -0.7142
  150SAPE     P16486   0.987   6.494   6.696 -0.1551  0.1969 -0.0591
  150SAPE   O1316487   0.997   6.541   6.837  0.2658  0.3059  0.4823
  150SAPE   O1416488   0.968   6.355   6.668 -0.9002  1.1818 -0.0086
  150SAPE   O1216489   0.863   6.570   6.628  0.1897  0.1339 -0.6203
  150SAPE   O1116490   1.115   6.555   6.627  0.0529  0.3351  0.0565
  150SAPE    C116491   1.121   6.664   6.532 -0.1382  0.5150 -0.2682
  150SAPE    HA16492   1.074   6.761   6.559 -0.2248  1.1794 -2.5505
  150SAPE    HB16493   1.227   6.697   6.525 -0.6544  2.1712 -0.7724
  150SAPE    C216494   1.074   6.617   6.386  0.0185  0.7813 -0.1634
  150SAPE    HS16495   0.967   6.590   6.394  0.1633 -0.2723 -1.4142
  150SAPE   O2116496   1.166   6.515   6.343 -0.7141 -0.7016  0.7683
  150SAPE   C2116497   1.107   6.433   6.259 -0.9765  0.1872 -0.2756
  150SAPE   O2216498   0.987   6.427   6.238  0.1231 -0.5696  0.3760
  150SAPE   C2216499   1.212   6.334   6.207 -0.3253 -0.4746  0.2195
  150SAPE   H2R16500   1.278   6.312   6.293 -0.5212  2.2751  1.1852
  150SAPE   H2S16501   1.160   6.238   6.186  0.7368 -0.8630 -0.6953
  150SAPE    C316502   1.082   6.727   6.283 -0.5389 -0.2070  0.5931
  150SAPE    HX16503   1.187   6.756   6.264 -1.0370  2.6892  1.6984
  150SAPE    HY16504   1.039   6.819   6.329  2.0132  0.6047  1.4796
  150SAPE   O3116505   1.021   6.692   6.162  0.5421 -0.5799  0.4566
  150SAPE   C3116506   0.881   6.701   6.164 -0.2142  0.1770 -0.1606
  150SAPE   O3216507   0.824   6.748   6.262 -0.3631  0.0546  0.4585
  150SAPE   C3216508   0.815   6.646   6.034 -0.4310  0.2095 -0.1993
  150SAPE   H2X16509   0.825   6.535   6.036 -0.7507  0.1589 -0.8888
  150SAPE   H2Y16510   0.878   6.681   5.949 -1.0161  0.5564 -0.4962
  150SAPE   C2316511   1.293   6.390   6.084  0.1909  0.1139  0.1861
  150SAPE   H3R16512   1.364   6.306   6.065 -2.4722 -2.6299  1.5387
  150SAPE   H3S16513   1.354   6.479   6.112 -0.0100  0.0158  0.9634
  150SAPE   C2416514   1.217   6.410   5.952  0.0305  0.2467 -0.0744
  150SAPE   H4R16515   1.139   6.485   5.977 -0.3448  0.0388 -0.6110
  150SAPE   H4S16516   1.168   6.313   5.928  0.6581  0.0972 -0.8095
  150SAPE   C2516517   1.309   6.446   5.846 -0.1290  1.0370  0.3210
  150SAPE   H5R16518   1.411   6.461   5.885 -0.2880 -0.0480  1.2002
  150SAPE   C2616519   1.269   6.462   5.720  0.7539  0.7277 -0.5080
  150SAPE   H6R16520   1.334   6.514   5.648  0.1749  0.2052 -1.4161
  150SAPE   C2716521   1.116   6.458   5.690 -0.3105  0.0046  0.1588
  150SAPE   H7R16522   1.057   6.517   5.763 -1.9285  0.0946 -1.1720
  150SAPE   H7S16523   1.084   6.352   5.701  0.7092 -0.1949  1.5283
  150SAPE   C2816524   1.083   6.518   5.553  0.4091 -0.3149 -0.9071
  150SAPE   H8R16525   1.066   6.626   5.558 -2.1219 -0.6474 -0.9018
  150SAPE   C2916526   1.052   6.444   5.445  0.1324  0.0046  0.6515
  150SAPE   H9R16527   0.995   6.490   5.363 -0.1931  0.4148  1.0991
  150SAPE  C21016528   1.071   6.299   5.433  0.5704 -0.0177 -0.5277
  150SAPE  H10R16529   0.986   6.260   5.495  1.4126 -0.6023  0.2956
  150SAPE  H10S16530   1.158   6.258   5.489 -0.3095 -2.2085 -0.6571
  150SAPE  C21116531   1.057   6.238   5.291 -0.3096 -0.5977  0.4765
  150SAPE  H11R16532   1.147   6.257   5.230  0.0576  2.2426  1.7291
  150SAPE  C21216533   0.952   6.205   5.215  0.8934  0.1098 -0.2949
  150SAPE  H12R16534   0.966   6.159   5.116 -4.3542  2.5163 -2.5321
  150SAPE  C21316535   0.807   6.181   5.261  0.0234  0.7468 -0.8110
  150SAPE  H13R16536   0.807   6.167   5.371 -2.4369  3.1053 -0.4306
  150SAPE  H13S16537   0.769   6.083   5.225  1.0342 -0.7441  1.9108
  150SAPE  C21416538   0.709   6.289   5.233  0.3773 -0.4868 -0.0779
  150SAPE  H14R16539   0.729   6.368   5.159  0.6745 -0.0022  0.5101
  150SAPE  C21516540   0.592   6.278   5.292  0.4585 -0.4256  0.0787
  150SAPE  H15R16541   0.516   6.350   5.256 -0.0499 -1.2164 -0.4666
  150SAPE  C21616542   0.536   6.160   5.377 -0.2116  0.0080 -0.3830
  150SAPE  H16R16543   0.598   6.069   5.391  0.1798  0.4454  0.7962
  150SAPE  H16S16544   0.444   6.116   5.334 -1.0826 -0.0713  1.4755
  150SAPE  C21716545   0.502   6.217   5.513  0.6156 -0.2670  0.2715
  150SAPE  H17R16546   0.429   6.142   5.549  0.6888 -0.2071  0.5506
  150SAPE  H17S16547   0.461   6.320   5.505  0.4393 -0.3779 -0.2434
  150SAPE  C21816548   0.632   6.223   5.604  0.6264 -0.2457  0.4471
  150SAPE  H18R16549   0.695   6.305   5.563 -0.9831  0.1680 -1.3177
  150SAPE  H18S16550   0.688   6.127   5.607 -0.9852 -1.2561 -0.4257
  150SAPE  C21916551   0.591   6.256   5.752 -0.6928 -0.3721  0.2398
  150SAPE  H19R16552   0.509   6.189   5.788 -1.0205  0.6225  1.4385
  150SAPE  H19S16553   0.543   6.355   5.761 -0.1530 -0.0509 -0.3917
  150SAPE  C22016554   0.705   6.238   5.859  0.0153 -0.6347  0.0084
  150SAPE  H20R16555   0.722   6.129   5.874 -0.7661 -0.6603  0.8723
  150SAPE  H20S16556   0.670   6.278   5.957 -0.8632 -0.4000 -0.3876
  150SAPE  H20T16557   0.794   6.292   5.822 -1.3346  0.9220 -1.1090
  150SAPE   C3316558   0.666   6.683   6.009  0.3579 -0.0221  0.0202
  150SAPE   H3X16559   0.641   6.785   6.044 -3.4737 -0.7398 -0.1123
  150SAPE   H3Y16560   0.598   6.605   6.049  1.4599 -0.2791  1.4410
  150SAPE   C3416561   0.636   6.678   5.853  0.6865  0.3021  0.5325
  150SAPE   H4X16562   0.660   6.577   5.813  0.0710  0.3063  0.1465
  150SAPE   H4Y16563   0.694   6.756   5.800 -0.9810  0.1970 -1.5472
  150SAPE   C3516564   0.493   6.709   5.827  0.2752 -0.4261 -0.4186
  150SAPE   H5X16565   0.462   6.788   5.899 -0.6253 -0.6965 -0.4982
  150SAPE   H5Y16566   0.440   6.616   5.854 -0.1469 -0.0762 -0.0201
  150SAPE   C3616567   0.452   6.743   5.680 -0.8335 -0.2437 -0.1501
  150SAPE   H6X16568   0.508   6.833   5.649  0.1470 -1.0061 -0.6284
  150SAPE   H6Y16569   0.345   6.775   5.679  0.0336  2.9720 -0.2592
  150SAPE   C3716570   0.486   6.633   5.579  0.0391 -0.1767  0.0208
  150SAPE   H7X16571   0.459   6.537   5.629  0.1747  0.2256  0.8885
  150SAPE   H7Y16572   0.597   6.627   5.579 -0.0079 -1.8827  0.5227
  150SAPE   C3816573   0.425   6.648   5.442  0.5580  0.3324 -0.3630
  150SAPE   H8X16574   0.477   6.584   5.368  0.6655 -0.4126  0.3466
  150SAPE   H8Y16575   0.452   6.750   5.407  0.1653  0.9944  1.1737
  150SAPE   C3916576   0.272   6.624   5.434  0.0932  0.5571  0.4948
  150SAPE   H9X16577   0.225   6.692   5.360 -1.2538  1.5031  2.1328
  150SAPE   H9Y16578   0.219   6.655   5.527  1.1707  2.3250  0.5593
  150SAPE  C31016579   0.229   6.481   5.398 -1.0122 -0.2459  0.4710
  150SAPE  H10X16580   0.276   6.411   5.470  0.6914  0.9452  0.5892
  150SAPE  H10Y16581   0.282   6.455   5.305  1.3859 -2.4710  2.3123
  150SAPE  C31116582   0.079   6.443   5.387  0.0564  0.3016  0.7042
  150SAPE  H11X16583   0.024   6.518   5.326 -0.7117 -1.9233 -1.5369
  150SAPE  H11Y16584   0.035   6.439   5.489  0.3446 -2.8056  0.8184
  150SAPE  C31216585   0.061   6.300   5.338  0.1088  0.3458  0.4408
  150SAPE  H12X16586  -0.045   6.269   5.350  0.0212 -0.9642 -2.7447
  150SAPE  H12Y16587   0.110   6.237   5.415 -3.6410 -3.6001 -0.0303
  150SAPE  C31316588   0.111   6.256   5.197  0.0235 -0.5426  0.3440
  150SAPE  H13X16589   0.105   6.145   5.191  4.2705 -0.9191  0.2163
  150SAPE  H13Y16590   0.221   6.273   5.202  0.0798 -1.2793  2.9272
  150SAPE  C31416591   0.043   6.324   5.079 -0.1240 -0.8546  0.0688
  150SAPE  H14X16592   0.042   6.432   5.105  0.6395 -0.4489 -1.4595
  150SAPE  H14Y16593  -0.065   6.300   5.070  0.2805 -2.3701 -1.1615
  150SAPE  C31516594   0.099   6.305   4.938 -0.0553  0.6940 -0.2463
  150SAPE  H15X16595   0.104   6.201   4.899  0.0691  1.7278 -3.2383
  150SAPE  H15Y16596   0.198   6.355   4.940 -0.5050  1.6005  1.4321
  150SAPE  C31616597   0.026   6.384   4.833 -0.2091 -0.4299  0.7263
  150SAPE  H16X16598   0.021   6.493   4.856  0.6268  0.4072 -2.6095
  150SAPE  H16Y16599  -0.078   6.347   4.826 -0.4060  0.1081  0.7421
  150SAPE  C31716600   0.096   6.384   4.692  0.1923  0.4465 -0.5055
  150SAPE  H17X16601   0.118   6.280   4.659 -1.1992  0.6188 -2.1506
  150SAPE  H17Y16602   0.185   6.450   4.687  0.0983  0.5006 -1.8738
  150SAPE  C31816603   0.001   6.435   4.584 -0.0762 -0.5278 -0.3773
  150SAPE  H18X16604   0.046   6.399   4.488  1.6749 -2.8515  1.2191
  150SAPE  H18Y16605  -0.007   6.546   4.594 -1.0549 -0.7590  1.8698
  150SAPE  H18Z16606  -0.099   6.391   4.602 -0.4298  0.4903  0.1913
  151SAPE     N16607   1.387   6.409   6.570 -0.2442 -0.3346 -0.2610
  151SAPE   HN116608   1.289   6.382   6.553 -0.3260 -1.7724  1.9900
  151SAPE   HN216609   1.429   6.464   6.493  0.7797  0.3402  0.7305
  151SAPE   HN316610   1.434   6.316   6.577 -2.1306 -1.2419  1.3105
  151SAPE   C1216611   1.400   6.478   6.702 -0.5277  0.5632 -0.2952
  151SAPE  H12A16612   1.321   6.555   6.712  0.7439  1.6994  1.9770
  151SAPE  H12B16613   1.499   6.528   6.700 -0.2274 -0.0532 -1.1158
  151SAPE   C1116614   1.404   6.390   6.828  0.6876 -0.1035 -0.1949
  151SAPE  H11A16615   1.323   6.316   6.808 -0.7300  1.4509 -0.4741
  151SAPE  H11B16616   1.376   6.441   6.922  1.0146  1.3504 -0.8536
  151SAPE     P16617   1.560   6.172   6.802 -0.2145 -0.0708  0.3852
  151SAPE   O1316618   1.693   6.124   6.836 -0.6151 -0.3103  0.2291
  151SAPE   O1416619   1.450   6.084   6.846  0.2876  0.2485  0.2569
  151SAPE   O1216620   1.535   6.320   6.855  0.1000  0.7731  0.5504
  151SAPE   O1116621   1.551   6.201   6.642 -0.6594 -0.1226  0.6119
  151SAPE    C116622   1.651   6.155   6.547 -0.2107 -0.3493  0.7768
  151SAPE    HA16623   1.741   6.218   6.538 -0.2523 -0.5624 -2.5795
  151SAPE    HB16624   1.695   6.058   6.577 -1.6627 -1.8480 -1.5857
  151SAPE    C216625   1.596   6.144   6.393 -0.8264 -0.2748 -0.2643
  151SAPE    HS16626   1.583   6.249   6.357  0.3469 -0.7992 -2.3806
  151SAPE   O2116627   1.463   6.091   6.377 -0.0056  0.5761  0.1148
  151SAPE   C2116628   1.462   5.959   6.403 -0.2798  0.3273 -0.0472
  151SAPE   O2216629   1.553   5.896   6.453  0.3397  0.4266 -0.0198
  151SAPE   C2216630   1.338   5.889   6.339 -0.2057 -0.2563 -0.1670
  151SAPE   H2R16631   1.303   5.811   6.411 -3.3169  1.0511 -0.0838
  151SAPE   H2S16632   1.268   5.969   6.305  0.0891  0.1075  0.0718
  151SAPE    C316633   1.696   6.089   6.292 -0.4944  0.1209 -0.1253
  151SAPE    HX16634   1.737   6.001   6.346 -0.6483  0.7627  1.0448
  151SAPE    HY16635   1.787   6.152   6.285 -0.2869 -0.2592 -1.0687
  151SAPE   O3116636   1.646   6.035   6.170  0.7226 -0.6769  0.2270
  151SAPE   C3116637   1.656   6.120   6.070  0.8227 -0.3141  0.0717
  151SAPE   O3216638   1.700   6.229   6.070 -0.1527  0.2164 -0.1924
  151SAPE   C3216639   1.580   6.055   5.948 -0.4299 -0.0784  0.0333
  151SAPE   H2X16640   1.478   6.021   5.975 -0.4981 -0.9881 -1.3316
  151SAPE   H2Y16641   1.644   5.970   5.917  0.4174  0.6675 -0.2947
  151SAPE   C2316642   1.383   5.820   6.208  0.3363  0.7715  0.4470
  151SAPE   H3R16643   1.461   5.744   6.231  2.5298  3.0662  0.9977
  151SAPE   H3S16644   1.429   5.891   6.137  1.6701 -1.6591 -1.2818
  151SAPE   C2416645   1.274   5.749   6.122  1.1300 -0.1137  0.3696
  151SAPE   H4R16646   1.311   5.740   6.017 -1.1034 -0.2072 -0.4693
  151SAPE   H4S16647   1.184   5.812   6.103 -0.7100 -2.8401 -0.6076
  151SAPE   C2516648   1.225   5.624   6.184  0.0829  0.0018  0.3093
  151SAPE   H5R16649   1.184   5.632   6.285 -1.5805  1.5083 -0.4300
  151SAPE   C2616650   1.219   5.506   6.116  0.3866 -0.4124 -0.6808
  151SAPE   H6R16651   1.175   5.423   6.173 -2.1948  1.1966 -0.1718
  151SAPE   C2716652   1.252   5.480   5.968 -0.2242  0.3656  0.4214
  151SAPE   H7R16653   1.260   5.372   5.945 -2.5553  0.5500 -1.6395
  151SAPE   H7S16654   1.357   5.509   5.945  0.1310 -1.7590 -0.8696
  151SAPE   C2816655   1.159   5.534   5.864 -0.4045  0.7612  0.2721
  151SAPE   H8R16656   1.067   5.583   5.901 -2.3037 -0.8834 -2.0095
  151SAPE   C2916657   1.179   5.518   5.733 -0.7750  0.8928  0.4087
  151SAPE   H9R16658   1.102   5.552   5.662 -1.9719 -2.8140 -0.3028
  151SAPE  C21016659   1.302   5.454   5.669  0.4814 -0.2899 -0.7045
  151SAPE  H10R16660   1.270   5.393   5.582  1.3459 -1.0948 -0.4800
  151SAPE  H10S16661   1.340   5.383   5.746 -2.6126 -1.1961  0.1657
  151SAPE  C21116662   1.404   5.558   5.622  0.4086  1.0911 -0.3243
  151SAPE  H11R16663   1.463   5.589   5.710  0.0015 -3.2547  1.7526
  151SAPE  C21216664   1.428   5.600   5.498 -0.1440 -0.3442  0.2494
  151SAPE  H12R16665   1.510   5.672   5.481 -1.7524  1.4590 -0.2211
  151SAPE  C21316666   1.359   5.551   5.377 -0.0813  0.1621  0.5476
  151SAPE  H13R16667   1.252   5.539   5.405  0.0036  0.2205  0.8962
  151SAPE  H13S16668   1.399   5.449   5.357 -1.4312 -0.3655  0.4350
  151SAPE  C21416669   1.375   5.643   5.254  0.0548 -0.1786  0.3549
  151SAPE  H14R16670   1.452   5.615   5.181  1.5665  3.2691  0.4021
  151SAPE  C21516671   1.312   5.765   5.239  0.4407  0.4537  0.3507
  151SAPE  H15R16672   1.334   5.828   5.152  0.4307 -0.6578 -0.4782
  151SAPE  C21616673   1.201   5.821   5.324  0.0946 -0.9093 -0.2173
  151SAPE  H16R16674   1.230   5.913   5.380  0.6627 -0.8257 -0.6404
  151SAPE  H16S16675   1.163   5.738   5.387  2.4183 -1.0299  1.1396
  151SAPE  C21716676   1.084   5.862   5.229 -0.1729 -0.0296 -0.1226
  151SAPE  H17R16677   1.122   5.946   5.167 -0.7237 -0.7307 -1.4424
  151SAPE  H17S16678   1.017   5.907   5.305  1.5713  1.7379  0.4652
  151SAPE  C21816679   1.014   5.757   5.148 -0.3656  0.0842  0.3089
  151SAPE  H18R16680   0.972   5.681   5.218 -0.4708  0.4236  0.6198
  151SAPE  H18S16681   1.077   5.711   5.070 -1.7856 -1.3827 -0.0225
  151SAPE  C21916682   0.895   5.821   5.072 -0.4457 -0.3883 -0.6440
  151SAPE  H19R16683   0.924   5.908   5.009 -0.0998  0.7601  1.0228
  151SAPE  H19S16684   0.822   5.863   5.144 -1.7812 -2.5652 -0.6382
  151SAPE  C22016685   0.818   5.725   4.987 -0.3260  0.4550  0.1331
  151SAPE  H20R16686   0.896   5.660   4.942  0.6710  2.5109 -1.2558
  151SAPE  H20S16687   0.756   5.782   4.915 -2.5291 -1.4750  0.3873
  151SAPE  H20T16688   0.750   5.671   5.057 -0.6817  0.3265 -0.3088
  151SAPE   C3316689   1.568   6.156   5.829 -0.1543  0.5265 -0.3875
  151SAPE   H3X16690   1.666   6.205   5.814 -1.1212  3.4073  1.8231
  151SAPE   H3Y16691   1.493   6.234   5.853 -1.0074 -0.3013 -0.3086
  151SAPE   C3416692   1.516   6.082   5.704 -0.6233 -0.7628 -0.0918
  151SAPE   H4X16693   1.411   6.046   5.708 -0.2007 -1.9764  0.6026
  151SAPE   H4Y16694   1.582   5.993   5.700  2.7683  1.5660 -1.2322
  151SAPE   C3516695   1.526   6.165   5.579 -0.1642 -0.0213  0.0424
  151SAPE   H5X16696   1.633   6.187   5.559 -0.2876 -1.0647 -1.8972
  151SAPE   H5Y16697   1.473   6.261   5.601 -1.6525 -1.1249  1.5392
  151SAPE   C3616698   1.478   6.100   5.452  0.1676  0.0171 -0.2626
  151SAPE   H6X16699   1.379   6.052   5.468  0.4414 -1.7674 -3.1232
  151SAPE   H6Y16700   1.535   6.007   5.431 -1.3580 -0.5629 -2.1638
  151SAPE   C3716701   1.484   6.188   5.326 -0.1847 -0.4697  0.2862
  151SAPE   H7X16702   1.578   6.243   5.345  0.3018 -0.6355 -1.4669
  151SAPE   H7Y16703   1.405   6.266   5.330 -1.5785 -1.7964 -0.2760
  151SAPE   C3816704   1.476   6.108   5.195 -0.4185  0.2471  0.2791
  151SAPE   H8X16705   1.380   6.053   5.189 -0.4956  0.3566  0.5197
  151SAPE   H8Y16706   1.557   6.031   5.193 -1.1824 -0.6326  1.6639
  151SAPE   C3916707   1.481   6.203   5.076  0.0484 -0.1855  0.8082
  151SAPE   H9X16708   1.584   6.239   5.051  0.2569 -1.3398 -0.0951
  151SAPE   H9Y16709   1.410   6.288   5.081 -0.0512 -0.2241  0.1968
  151SAPE  C31016710   1.450   6.150   4.932 -0.2459  0.4307  0.5470
  151SAPE  H10X16711   1.434   6.236   4.863  5.2466 -0.3358 -2.2267
  151SAPE  H10Y16712   1.355   6.093   4.934  0.5221 -1.0525 -1.6599
  151SAPE  C31116713   1.553   6.067   4.854  0.9615  0.4207 -0.0064
  151SAPE  H11X16714   1.560   5.962   4.889 -3.6014 -0.1617 -0.3054
  151SAPE  H11Y16715   1.647   6.126   4.856  0.5628  1.0501  1.0928
  151SAPE  C31216716   1.508   6.058   4.709  0.0121 -0.5240  0.5361
  151SAPE  H12X16717   1.590   6.019   4.644 -0.9182 -1.9101  0.1597
  151SAPE  H12Y16718   1.518   6.161   4.666 -0.1267 -0.9174 -0.4774
  151SAPE  C31316719   1.379   5.984   4.674 -0.0756  0.8192 -0.1350
  151SAPE  H13X16720   1.341   6.031   4.580 -0.6572 -0.2619 -0.4652
  151SAPE  H13Y16721   1.292   6.014   4.737  0.3599  2.2288 -0.1568
  151SAPE  C31416722   1.395   5.831   4.660 -0.0438  0.0298  0.3083
  151SAPE  H14X16723   1.488   5.804   4.605 -0.1123  2.3248 -1.0648
  151SAPE  H14Y16724   1.308   5.803   4.597 -0.1474  0.1464  0.3968
  151SAPE  C31516725   1.403   5.752   4.789 -0.0420  0.3945 -0.8388
  151SAPE  H15X16726   1.317   5.758   4.858  1.7238 -1.1649  1.6734
  151SAPE  H15Y16727   1.481   5.798   4.853 -0.4571 -0.0002 -0.0245
  151SAPE  C31616728   1.450   5.609   4.765 -0.0035  0.4305  0.0831
  151SAPE  H16X16729   1.558   5.598   4.742 -0.7840 -0.1507 -3.9921
  151SAPE  H16Y16730   1.399   5.557   4.681  0.3163  1.2408 -0.6235
  151SAPE  C31716731   1.413   5.520   4.887  0.2211  0.4396 -0.3107
  151SAPE  H17X16732   1.302   5.522   4.889  0.2267  0.3926 -0.0087
  151SAPE  H17Y16733   1.456   5.571   4.975 -0.4794  0.4637  0.0208
  151SAPE  C31816734   1.466   5.379   4.879 -0.5247  0.2304 -0.0440
  151SAPE  H18X16735   1.425   5.334   4.785 -1.2770  0.2675  0.2608
  151SAPE  H18Y16736   1.441   5.329   4.975 -3.2053  0.2597 -0.6469
  151SAPE  H18Z16737   1.576   5.384   4.867 -0.3764 -1.3793  0.3100
  152SAPE     N16738   2.852   0.313   6.694 -0.7081  0.2984 -0.1509
  152SAPE   HN116739   2.845   0.257   6.607  2.8639 -2.6080  1.1568
  152SAPE   HN216740   2.763   0.314   6.747 -0.0109 -0.6246  1.0802
  152SAPE   HN316741   2.877   0.411   6.673  1.1687  0.6634  3.0786
  152SAPE   C1216742   2.971   0.243   6.764 -0.5562 -0.6583  0.1037
  152SAPE  H12A16743   2.945   0.136   6.779 -0.4025 -0.7958 -0.5371
  152SAPE  H12B16744   2.982   0.296   6.860  1.8392  0.0090 -0.4515
  152SAPE   C1116745   3.103   0.243   6.680  0.9241  0.1159 -0.0286
  152SAPE  H11A16746   3.120   0.349   6.652 -1.0432 -0.0036 -1.8982
  152SAPE  H11B16747   3.069   0.190   6.589 -0.5013  0.6561  0.1653
  152SAPE     P16748   3.345   0.141   6.685 -0.0436  0.0250 -0.2251
  152SAPE   O1316749   3.420   0.267   6.666 -0.2080  0.0240 -0.2576
  152SAPE   O1416750   3.413   0.037   6.772  0.1775 -0.0409  0.5964
  152SAPE   O1216751   3.213   0.188   6.749 -0.5449 -0.2807 -0.2480
  152SAPE   O1116752   3.303   0.081   6.542  0.9654  0.2491 -0.3334
  152SAPE    C116753   3.220  -0.037   6.550  0.0502  0.1305  0.1086
  152SAPE    HA16754   3.268  -0.116   6.612  0.1581  0.3608  0.3207
  152SAPE    HB16755   3.133  -0.023   6.618 -0.3425 -0.5897 -0.2292
  152SAPE    C216756   3.184  -0.098   6.404 -0.4911 -0.4704  0.0534
  152SAPE    HS16757   3.160  -0.205   6.416  0.7259 -0.7965 -0.2394
  152SAPE   O2116758   3.285  -0.066   6.300 -0.2545  0.0427  0.4114
  152SAPE   C2116759   3.413  -0.109   6.326  0.2007  0.0469  0.2628
  152SAPE   O2216760   3.444  -0.170   6.422 -0.6435  0.3325 -0.6991
  152SAPE   C2216761   3.500  -0.076   6.209  0.4403  0.3796 -0.1075
  152SAPE   H2R16762   3.534   0.028   6.193  0.9816  0.1395 -0.6019
  152SAPE   H2S16763   3.600  -0.119   6.232  0.6120  1.9441  2.4143
  152SAPE    C316764   3.048  -0.032   6.359 -0.6266 -0.0660  0.6850
  152SAPE    HX16765   3.069   0.077   6.360 -2.4067  0.3830 -1.5786
  152SAPE    HY16766   2.975  -0.062   6.437 -0.3209 -0.3244  0.8742
  152SAPE   O3116767   3.007  -0.065   6.226  0.1504 -0.3454 -0.0581
  152SAPE   C3116768   2.905  -0.000   6.169  0.2562  0.1135 -0.4008
  152SAPE   O3216769   2.850   0.096   6.222 -0.1053  0.3465 -0.0945
  152SAPE   C3216770   2.881  -0.064   6.037  0.5604 -0.1386 -0.2634
  152SAPE   H2X16771   2.814   0.007   5.983 -0.3489 -0.3193  0.6103
  152SAPE   H2Y16772   2.822  -0.157   6.053 -1.3846  1.0200 -0.2883
  152SAPE   C2316773   3.449  -0.127   6.073 -0.1726 -0.5754  0.0309
  152SAPE   H3R16774   3.390  -0.218   6.098  0.1942 -0.4101  1.6201
  152SAPE   H3S16775   3.530  -0.176   6.015 -0.8127  0.1505 -1.5522
  152SAPE   C2416776   3.356  -0.032   5.989  0.0259  0.6044 -0.3846
  152SAPE   H4R16777   3.268  -0.013   6.054 -0.4966  0.5039 -1.0507
  152SAPE   H4S16778   3.327  -0.084   5.896 -0.8122  2.4558 -1.2210
  152SAPE   C2516779   3.432   0.092   5.950 -0.3668  0.2772  0.4903
  152SAPE   H5R16780   3.448   0.165   6.031  0.0699 -0.4421  1.0592
  152SAPE   C2616781   3.478   0.121   5.825  0.3501  0.1351  0.3793
  152SAPE   H6R16782   3.532   0.217   5.818  1.7559 -0.6582  0.1251
  152SAPE   C2716783   3.480   0.038   5.702  0.3111  0.0665  0.2003
  152SAPE   H7R16784   3.436  -0.063   5.720  2.1976 -1.3722 -2.5002
  152SAPE   H7S16785   3.582   0.010   5.670  0.2269  2.7845 -2.8661
  152SAPE   C2816786   3.406   0.124   5.598  0.0931 -0.3292 -0.1952
  152SAPE   H8R16787   3.306   0.158   5.628 -0.0489 -0.5641 -0.3991
  152SAPE   C2916788   3.423   0.136   5.467  0.5386  0.0690 -0.3868
  152SAPE   H9R16789   3.357   0.212   5.422 -0.1077 -0.8289 -0.9846
  152SAPE  C21016790   3.527   0.081   5.376 -0.1695 -0.1759 -0.2488
  152SAPE  H10R16791   3.573  -0.003   5.433  1.1965 -0.2335 -1.3961
  152SAPE  H10S16792   3.597   0.163   5.350 -0.7264  0.5176  0.3935
  152SAPE  C21116793   3.483   0.017   5.249 -0.2136 -1.0285 -0.2910
  152SAPE  H11R16794   3.420  -0.072   5.264  0.9569 -1.6719  1.0381
  152SAPE  C21216795   3.510   0.061   5.123 -0.0050 -0.1239 -0.4333
  152SAPE  H12R16796   3.480  -0.005   5.040  2.2977 -1.2560 -0.4534
  152SAPE  C21316797   3.608   0.164   5.079 -0.3023  0.7545  0.1370
  152SAPE  H13R16798   3.597   0.249   5.149 -0.4024  0.7577  0.1182
  152SAPE  H13S16799   3.580   0.199   4.977 -0.4491 -0.2036 -0.1703
  152SAPE  C21416800   3.755   0.119   5.098 -0.0070  0.1741  0.7239
  152SAPE  H14R16801   3.788   0.076   5.193 -0.2022 -0.1484  0.6508
  152SAPE  C21516802   3.850   0.117   5.001 -0.5932 -0.4629  0.8097
  152SAPE  H15R16803   3.944   0.063   5.021  0.1169  0.3388 -0.2921
  152SAPE  C21616804   3.843   0.168   4.858 -0.0728  0.2446  1.1500
  152SAPE  H16R16805   3.944   0.207   4.830 -0.7017  1.6277  0.7090
  152SAPE  H16S16806   3.777   0.257   4.847 -0.7444 -0.2769  0.9160
  152SAPE  C21716807   3.824   0.049   4.764  0.3326  1.1986 -0.2760
  152SAPE  H17R16808   3.737  -0.008   4.806 -0.3469  2.6613  0.3559
  152SAPE  H17S16809   3.910  -0.021   4.763  0.2775  1.1329 -0.4366
  152SAPE  C21816810   3.789   0.088   4.618  0.0539  0.4964  0.3760
  152SAPE  H18R16811   3.726   0.179   4.604 -0.1687  0.3982  0.7142
  152SAPE  H18S16812   3.740   0.003   4.566  0.2433  0.8528 -0.3947
  152SAPE  C21916813   3.916   0.111   4.537  0.1208 -0.5462 -0.8760
  152SAPE  H19R16814   3.974   0.016   4.538 -0.2775 -0.7908  0.3563
  152SAPE  H19S16815   3.965   0.199   4.584 -1.3986 -0.7624  1.2465
  152SAPE  C22016816   3.893   0.136   4.393 -0.3611  0.3867 -0.3711
  152SAPE  H20R16817   3.816   0.216   4.387  0.0815  0.9121  0.7169
  152SAPE  H20S16818   3.853   0.040   4.351 -2.4349  1.0632 -0.0902
  152SAPE  H20T16819   3.986   0.160   4.338  0.7436 -2.9572 -0.1560
  152SAPE   C3316820   3.007  -0.101   5.960 -0.1775 -0.8569  0.3985
  152SAPE   H3X16821   3.079  -0.178   5.993  0.2180 -0.6335  0.0645
  152SAPE   H3Y16822   3.064  -0.006   5.962 -1.6585  0.0505  1.3142
  152SAPE   C3416823   2.965  -0.104   5.804  0.9435 -0.2681 -0.5486
  152SAPE   H4X16824   2.913  -0.017   5.759  1.0939  0.9147  1.4791
  152SAPE   H4Y16825   2.903  -0.195   5.789  0.8267 -0.2412 -0.2251
  152SAPE   C3516826   3.092  -0.106   5.719 -0.2747 -0.1319  0.1342
  152SAPE   H5X16827   3.159  -0.190   5.748  0.2564 -0.2705 -1.3944
  152SAPE   H5Y16828   3.171  -0.028   5.734  3.9551 -3.3138 -3.0605
  152SAPE   C3616829   3.070  -0.120   5.569  0.3727 -0.1438  0.4595
  152SAPE   H6X16830   3.172  -0.120   5.525 -0.4387  1.5775 -1.5978
  152SAPE   H6Y16831   3.018  -0.032   5.526  1.4030  0.4738  0.4680
  152SAPE   C3716832   3.035  -0.265   5.536 -0.1643 -0.2803 -0.2970
  152SAPE   H7X16833   2.937  -0.298   5.578  0.6668 -1.0158  1.1015
  152SAPE   H7Y16834   3.116  -0.332   5.571 -2.0320 -1.9043  1.2260
  152SAPE   C3816835   3.030  -0.284   5.381 -0.3667 -0.0045  0.2886
  152SAPE   H8X16836   3.123  -0.247   5.333 -0.7341 -1.8073 -1.9862
  152SAPE   H8Y16837   2.949  -0.221   5.338 -2.8628 -2.3903  1.1867
  152SAPE   C3916838   3.007  -0.431   5.343  0.0622  0.0234  0.8768
  152SAPE   H9X16839   2.958  -0.439   5.243  2.2734 -1.4082 -0.1904
  152SAPE   H9Y16840   2.939  -0.466   5.423  2.5221 -0.3927  2.9238
  152SAPE  C31016841   3.129  -0.523   5.340 -0.4882 -0.1176  0.3518
  152SAPE  H10X16842   3.106  -0.630   5.319  0.7786 -0.4944  0.7874
  152SAPE  H10Y16843   3.178  -0.523   5.439  1.7024  0.4920 -0.6776
  152SAPE  C31116844   3.236  -0.488   5.232 -0.1571 -0.0541 -0.1876
  152SAPE  H11X16845   3.320  -0.560   5.238  0.4504  0.7054  0.8191
  152SAPE  H11Y16846   3.283  -0.389   5.249  4.1957 -1.6937 -1.2929
  152SAPE  C31216847   3.189  -0.495   5.094 -0.5732 -0.2330 -0.1822
  152SAPE  H12X16848   3.088  -0.448   5.092 -1.9368 -2.9531 -1.8509
  152SAPE  H12Y16849   3.161  -0.602   5.089 -2.6353  0.2437  0.1771
  152SAPE  C31316850   3.274  -0.439   4.980 -0.7107  0.2919 -0.9644
  152SAPE  H13X16851   3.369  -0.498   4.982  1.1094  3.0783 -0.1543
  152SAPE  H13Y16852   3.308  -0.335   4.995 -3.0451  1.0646 -0.6820
  152SAPE  C31416853   3.198  -0.429   4.849  0.6357 -0.4685 -0.0648
  152SAPE  H14X16854   3.105  -0.373   4.872  0.1525  0.2522 -3.2488
  152SAPE  H14Y16855   3.164  -0.528   4.812 -1.9228  1.6164 -3.9669
  152SAPE  C31516856   3.257  -0.367   4.727  0.4855  0.0700 -0.3568
  152SAPE  H15X16857   3.356  -0.413   4.709  0.6717  0.4834 -0.3933
  152SAPE  H15Y16858   3.271  -0.259   4.750 -0.2903 -0.0187  0.5879
  152SAPE  C31616859   3.177  -0.384   4.595  0.2476 -0.4967 -0.0987
  152SAPE  H16X16860   3.070  -0.358   4.610 -0.3835 -2.7211 -0.3611
  152SAPE  H16Y16861   3.166  -0.489   4.561 -0.4017 -0.6335  0.5127
  152SAPE  C31716862   3.228  -0.295   4.482  0.3408 -0.1192 -0.4458
  152SAPE  H17X16863   3.336  -0.314   4.466  0.5287  1.8326 -1.7439
  152SAPE  H17Y16864   3.212  -0.190   4.514 -2.1268  0.0597 -1.9398
  152SAPE  C31816865   3.147  -0.314   4.352 -0.4430  0.2807 -0.4191
  152SAPE  H18X16866   3.144  -0.415   4.306  0.1349 -0.0125  0.1634
  152SAPE  H18Y16867   3.193  -0.256   4.270  2.7541 -1.4961 -0.0208
  152SAPE  H18Z16868   3.045  -0.274   4.370 -0.6315 -0.4800  0.2824
  153SAPE     N16869   3.876   5.966   6.658 -0.4708 -0.2520 -0.2693
  153SAPE   HN116870   3.978   5.952   6.646 -0.1594  0.4344  1.3337
  153SAPE   HN216871   3.849   5.982   6.559  0.4509 -0.7012 -0.6087
  153SAPE   HN316872   3.848   6.054   6.706 -2.5200 -0.6547 -0.6447
  153SAPE   C1216873   3.801   5.854   6.707  0.1457 -0.5161 -0.5749
  153SAPE  H12A16874   3.849   5.812   6.798  3.0686  1.6245 -1.0123
  153SAPE  H12B16875   3.814   5.777   6.628  1.0215 -2.0162  0.9634
  153SAPE   C1116876   3.651   5.900   6.733  0.1955  0.3011 -0.2006
  153SAPE  H11A16877   3.604   5.804   6.761  1.5466 -0.5140 -0.6000
  153SAPE  H11B16878   3.608   5.928   6.634 -0.1997  0.9544  0.1475
  153SAPE     P16879   3.522   6.095   6.844 -0.3689 -0.3534 -0.0332
  153SAPE   O1316880   3.398   6.020   6.862  1.2290 -0.0555  0.2179
  153SAPE   O1416881   3.554   6.203   6.940 -0.9712  0.3565 -0.2973
  153SAPE   O1216882   3.642   5.995   6.840  0.5583  0.8275 -0.0527
  153SAPE   O1116883   3.537   6.153   6.697  0.5203 -0.3485 -0.4796
  153SAPE    C116884   3.478   6.281   6.655 -0.0665 -0.4706  0.5459
  153SAPE    HA16885   3.379   6.303   6.700  0.9075  1.1147  2.1046
  153SAPE    HB16886   3.536   6.361   6.708  1.8607 -0.7567 -1.0169
  153SAPE    C216887   3.478   6.294   6.503  1.0369  0.0579  0.2533
  153SAPE    HS16888   3.405   6.377   6.485  0.5703 -0.1792  1.0020
  153SAPE   O2116889   3.442   6.170   6.446  0.1971  0.0560  0.0475
  153SAPE   C2116890   3.325   6.119   6.480 -0.7885 -0.2445  0.7364
  153SAPE   O2216891   3.238   6.183   6.531 -0.3569  0.5924  0.0776
  153SAPE   C2216892   3.340   5.964   6.476 -0.5766  0.7005 -0.7155
  153SAPE   H2R16893   3.373   5.941   6.579 -0.0894  0.7902 -0.8490
  153SAPE   H2S16894   3.235   5.934   6.457 -0.2112 -2.5660  1.6734
  153SAPE    C316895   3.617   6.334   6.438  0.2194 -0.1727 -0.0464
  153SAPE    HX16896   3.691   6.253   6.457  1.7353  1.6362  2.4589
  153SAPE    HY16897   3.645   6.423   6.498  0.5164 -0.4838  0.2816
  153SAPE   O3116898   3.612   6.367   6.299 -0.4260 -0.7508 -0.4084
  153SAPE   C3116899   3.677   6.299   6.215  0.0974 -0.5192 -0.3846
  153SAPE   O3216900   3.750   6.201   6.233 -0.2966 -0.0395  0.4142
  153SAPE   C3216901   3.660   6.371   6.081  0.1215  0.6569 -0.2325
  153SAPE   H2X16902   3.759   6.400   6.038  0.0856 -1.1493 -1.6356
  153SAPE   H2Y16903   3.601   6.464   6.097  1.3825  1.3151  0.8016
  153SAPE   C2316904   3.444   5.899   6.384 -0.5971 -0.5494 -0.1842
  153SAPE   H3R16905   3.485   5.805   6.427 -0.1708 -1.9105 -3.2984
  153SAPE   H3S16906   3.532   5.965   6.365  0.4850 -1.4397  1.4387
  153SAPE   C2416907   3.387   5.865   6.241  1.1625  0.5472 -0.3491
  153SAPE   H4R16908   3.326   5.951   6.207 -0.4536 -0.7885 -0.9745
  153SAPE   H4S16909   3.302   5.795   6.251 -1.1058  2.7870 -2.5509
  153SAPE   C2516910   3.491   5.836   6.135  0.1340 -0.1960 -0.1537
  153SAPE   H5R16911   3.548   5.927   6.114  1.3422 -0.7173  0.7492
  153SAPE   C2616912   3.521   5.733   6.060  0.4602  0.3241 -0.5161
  153SAPE   H6R16913   3.588   5.741   5.973 -0.9521  1.3789 -1.5514
  153SAPE   C2716914   3.450   5.600   6.068 -0.4456 -0.2020 -0.2067
  153SAPE   H7R16915   3.356   5.598   6.010  0.1534 -1.6165 -1.1932
  153SAPE   H7S16916   3.445   5.585   6.178  3.0737  0.5064  0.1902
  153SAPE   C2816917   3.525   5.476   6.022  0.7633  0.3083 -0.2747
  153SAPE   H8R16918   3.545   5.402   6.101 -2.5694  2.1706  2.6030
  153SAPE   C2916919   3.574   5.461   5.894 -0.4444 -0.1483  0.2024
  153SAPE   H9R16920   3.630   5.369   5.875 -0.6973  0.1451 -2.2259
  153SAPE  C21016921   3.554   5.557   5.774 -0.0211 -0.2942  0.7527
  153SAPE  H10R16922   3.599   5.658   5.779  0.7877 -0.5962 -0.0901
  153SAPE  H10S16923   3.445   5.578   5.773 -0.6517 -3.0665 -1.5901
  153SAPE  C21116924   3.610   5.503   5.647 -0.3566  0.0193  0.4385
  153SAPE  H11R16925   3.708   5.458   5.666 -0.2729  0.7790  1.9106
  153SAPE  C21216926   3.554   5.521   5.524 -0.5083  0.2545 -0.8953
  153SAPE  H12R16927   3.610   5.480   5.438  1.0381 -0.5735  0.4282
  153SAPE  C21316928   3.423   5.579   5.493  0.3395 -0.1453 -0.4602
  153SAPE  H13R16929   3.440   5.678   5.444 -0.0916  0.6422  0.9337
  153SAPE  H13S16930   3.370   5.624   5.579 -0.0453  0.3523 -0.9501
  153SAPE  C21416931   3.334   5.483   5.416 -0.0486  0.8563 -0.6077
  153SAPE  H14R16932   3.273   5.424   5.486 -2.6737  0.2982 -3.1557
  153SAPE  C21516933   3.343   5.451   5.288 -0.0986 -0.8276  0.9882
  153SAPE  H15R16934   3.286   5.363   5.255  0.6423 -0.3003 -1.9813
  153SAPE  C21616935   3.448   5.503   5.185  0.4163 -0.3905 -1.0052
  153SAPE  H16R16936   3.524   5.566   5.237  1.9303 -2.1324 -1.0133
  153SAPE  H16S16937   3.402   5.571   5.110  0.1051  0.4793 -0.0431
  153SAPE  C21716938   3.525   5.389   5.115 -0.0369  0.7804  0.2225
  153SAPE  H17R16939   3.552   5.317   5.195  0.8520  0.7290 -0.1042
  153SAPE  H17S16940   3.615   5.431   5.064 -0.9152  0.0390 -2.0931
  153SAPE  C21816941   3.455   5.314   5.003 -0.1234 -0.3705  0.1356
  153SAPE  H18R16942   3.429   5.384   4.920 -0.2713 -2.3844 -1.5889
  153SAPE  H18S16943   3.357   5.279   5.044  0.0971 -0.4877  0.5658
  153SAPE  C21916944   3.535   5.192   4.957  0.4528 -0.5745  0.0319
  153SAPE  H19R16945   3.565   5.123   5.039  2.0541  0.7558  0.6230
  153SAPE  H19S16946   3.631   5.238   4.925 -1.3555  0.8959 -3.8414
  153SAPE  C22016947   3.473   5.120   4.832 -0.1356  0.1301 -0.5508
  153SAPE  H20R16948   3.413   5.189   4.768  0.0252 -1.0949 -2.0967
  153SAPE  H20S16949   3.421   5.033   4.877  0.2418 -1.3399 -2.7746
  153SAPE  H20T16950   3.563   5.078   4.784  0.1959  0.8363 -0.5618
  153SAPE   C3316951   3.596   6.266   5.976 -0.1813 -0.6913 -0.2256
  153SAPE   H3X16952   3.560   6.326   5.889  0.3201  1.4822  1.0049
  153SAPE   H3Y16953   3.496   6.232   6.010 -1.3926  1.9958 -0.8595
  153SAPE   C3416954   3.679   6.148   5.926  0.1212  0.3053 -0.8450
  153SAPE   H4X16955   3.712   6.083   6.009 -0.7032  0.5814 -0.2861
  153SAPE   H4Y16956   3.768   6.194   5.880  0.5526  0.3601  0.0317
  153SAPE   C3516957   3.613   6.072   5.813 -0.0740 -0.0273  0.4101
  153SAPE   H5X16958   3.596   6.149   5.734  2.4875  1.5222  1.2263
  153SAPE   H5Y16959   3.519   6.030   5.853 -0.7649 -0.1039 -1.2100
  153SAPE   C3616960   3.699   5.959   5.752  0.3845  0.4149  0.0608
  153SAPE   H6X16961   3.656   5.865   5.794 -1.7523 -0.3897 -3.5009
  153SAPE   H6Y16962   3.807   5.964   5.779  0.3507 -0.9142  0.5554
  153SAPE   C3716963   3.691   5.958   5.598  0.4219  0.1802  0.1920
  153SAPE   H7X16964   3.733   6.058   5.572 -2.2559  1.1505 -0.6904
  153SAPE   H7Y16965   3.587   5.962   5.559 -0.2433  1.2698  1.9502
  153SAPE   C3816966   3.748   5.832   5.525  0.2349  0.1702 -0.3761
  153SAPE   H8X16967   3.712   5.735   5.567  2.5090 -0.1324  1.0305
  153SAPE   H8Y16968   3.857   5.822   5.545 -0.2229 -1.2346  1.7201
  153SAPE   C3916969   3.736   5.834   5.369 -0.2690 -0.5908  0.3811
  153SAPE   H9X16970   3.786   5.929   5.341 -1.0587 -0.0258  0.8303
  153SAPE   H9Y16971   3.626   5.831   5.356 -0.5345  3.6757  0.3188
  153SAPE  C31016972   3.812   5.723   5.286 -0.3647 -0.1687  0.1652
  153SAPE  H10X16973   3.763   5.636   5.334 -1.4906  0.1468 -0.3790
  153SAPE  H10Y16974   3.922   5.725   5.305 -0.1717  1.0087 -0.9405
  153SAPE  C31116975   3.774   5.720   5.143 -0.6766  0.0237  0.6324
  153SAPE  H11X16976   3.779   5.823   5.102 -0.8780  0.4583  1.6718
  153SAPE  H11Y16977   3.666   5.695   5.138 -0.6240 -0.6198  2.1169
  153SAPE  C31216978   3.858   5.635   5.047  0.1159  0.0480  0.2271
  153SAPE  H12X16979   3.850   5.528   5.078 -1.3955  0.0715  0.0104
  153SAPE  H12Y16980   3.963   5.669   5.041  0.0560  0.2286  0.1994
  153SAPE  C31316981   3.810   5.653   4.902 -0.5186  0.5323  0.8215
  153SAPE  H13X16982   3.831   5.750   4.851 -1.5230 -0.3704 -1.4726
  153SAPE  H13Y16983   3.702   5.628   4.900 -0.7042  0.9662  2.8752
  153SAPE  C31416984   3.867   5.536   4.809  0.1330 -0.3410 -0.4987
  153SAPE  H14X16985   3.807   5.445   4.832 -1.8643  0.8289 -0.8041
  153SAPE  H14Y16986   3.972   5.518   4.838 -0.3266  0.9500  2.3536
  153SAPE  C31516987   3.847   5.551   4.661  0.1007  0.3008  0.3928
  153SAPE  H15X16988   3.902   5.466   4.615  0.8319  0.1602  1.4904
  153SAPE  H15Y16989   3.899   5.636   4.611  0.0070 -0.5340 -1.1726
  153SAPE  C31616990   3.702   5.557   4.620  0.2657 -0.0568  0.5361
  153SAPE  H16X16991   3.693   5.583   4.512 -1.1925 -1.5278  0.2517
  153SAPE  H16Y16992   3.640   5.635   4.670  2.1477  3.7042 -2.4633
  153SAPE  C31716993   3.617   5.430   4.643  0.1888  0.2505  0.7604
  153SAPE  H17X16994   3.518   5.449   4.596  0.4025 -0.5635 -0.0522
  153SAPE  H17Y16995   3.601   5.418   4.752  0.3418 -1.1937  0.6430
  153SAPE  C31816996   3.668   5.302   4.594 -0.4826  0.3780 -0.5830
  153SAPE  H18X16997   3.756   5.259   4.646 -0.5570 -0.2465 -0.9614
  153SAPE  H18Y16998   3.681   5.307   4.484  0.0521 -1.8011 -0.6573
  153SAPE  H18Z16999   3.591   5.222   4.593  1.4084 -1.5714 -2.8083
  154SAPE     N17000   0.376   5.605   6.950 -0.0557 -0.0400  0.4496
  154SAPE   HN117001   0.479   5.589   6.955  0.3105  1.5102 -1.2370
  154SAPE   HN217002   0.366   5.688   7.012  0.7388  1.3330 -1.1783
  154SAPE   HN317003   0.318   5.526   6.986 -1.0097 -0.6283 -2.1523
  154SAPE   C1217004   0.346   5.638   6.806 -0.1297  0.3467  0.3721
  154SAPE  H12A17005   0.342   5.543   6.749  1.3254  0.5550 -0.1190
  154SAPE  H12B17006   0.433   5.688   6.759 -0.7940  1.7776  0.5985
  154SAPE   C1117007   0.206   5.699   6.795 -0.7640 -0.1808 -0.4140
  154SAPE  H11A17008   0.171   5.715   6.691 -1.3510  0.2105 -0.1623
  154SAPE  H11B17009   0.215   5.800   6.841  0.5397  0.1528 -1.3682
  154SAPE     P17010  -0.018   5.546   6.809  0.0329  0.1105 -0.0636
  154SAPE   O1317011   0.013   5.405   6.813 -0.3662  0.5354  0.3189
  154SAPE   O1417012  -0.140   5.591   6.886 -0.0521 -0.9028  0.0143
  154SAPE   O1217013   0.105   5.626   6.870 -0.8206 -0.2840 -0.3281
  154SAPE   O1117014  -0.022   5.610   6.655  0.4650 -0.4327  0.4065
  154SAPE    C117015  -0.126   5.704   6.630  0.7581  0.7355  0.2800
  154SAPE    HA17016  -0.227   5.662   6.609  0.4802  0.3852  2.1497
  154SAPE    HB17017  -0.133   5.775   6.714  1.1316 -0.7675  1.6382
  154SAPE    C217018  -0.098   5.783   6.502 -0.0266 -0.1025 -0.4583
  154SAPE    HS17019  -0.192   5.839   6.481  0.5880  0.4325 -1.9444
  154SAPE   O2117020  -0.054   5.686   6.404  0.1150 -0.3031 -0.4406
  154SAPE   C2117021  -0.147   5.640   6.323  0.2580 -0.3237 -0.5925
  154SAPE   O2217022  -0.268   5.667   6.330 -0.2882 -0.4189  0.0733
  154SAPE   C2217023  -0.081   5.571   6.197 -0.3041 -0.5455 -0.0490
  154SAPE   H2R17024  -0.074   5.653   6.122  0.3400 -0.9798 -0.4674
  154SAPE   H2S17025   0.025   5.547   6.219 -0.0692  0.5060  0.0204
  154SAPE    C317026   0.024   5.884   6.517  1.0846  0.0993 -0.3234
  154SAPE    HX17027   0.116   5.822   6.523  0.7346 -0.4199 -0.2833
  154SAPE    HY17028   0.015   5.931   6.617  2.2255 -0.1298 -0.0996
  154SAPE   O3117029   0.029   5.979   6.408 -0.0473 -0.6184 -0.2723
  154SAPE   C3117030  -0.056   6.083   6.421  0.7869 -0.9351 -0.1642
  154SAPE   O3217031  -0.147   6.083   6.503  0.0433  0.8408 -0.0702
  154SAPE   C3217032  -0.048   6.179   6.304 -0.2178  0.2025  0.0539
  154SAPE   H2X17033   0.060   6.185   6.281  0.0072  0.2968  1.0700
  154SAPE   H2Y17034  -0.071   6.279   6.345 -1.7928 -1.0707  2.5273
  154SAPE   C2317035  -0.166   5.448   6.159  0.5719 -0.1091  0.2753
  154SAPE   H3R17036  -0.269   5.489   6.160  0.0740 -1.3024 -0.0278
  154SAPE   H3S17037  -0.161   5.363   6.231  0.8073 -0.5294 -0.2228
  154SAPE   C2417038  -0.138   5.396   6.014 -0.4783 -0.1590  0.7514
  154SAPE   H4R17039  -0.145   5.484   5.947  2.3733  0.9408  1.7277
  154SAPE   H4S17040  -0.220   5.328   5.984 -0.6456  1.3688 -2.7189
  154SAPE   C2517041  -0.005   5.327   6.016 -0.8852  0.2801  0.2098
  154SAPE   H5R17042   0.006   5.254   6.098  0.8583  1.1460  0.8111
  154SAPE   C2617043   0.094   5.342   5.924  0.3600 -0.3325  0.0078
  154SAPE   H6R17044   0.196   5.303   5.935  1.2726  0.6079 -3.7033
  154SAPE   C2717045   0.096   5.415   5.794  0.5020 -0.6417  0.5843
  154SAPE   H7R17046   0.026   5.502   5.795 -1.1335 -1.9124 -0.0516
  154SAPE   H7S17047   0.054   5.343   5.721  0.5439 -0.4116  0.3319
  154SAPE   C2817048   0.225   5.471   5.745  0.3666  0.2901  0.1821
  154SAPE   H8R17049   0.285   5.523   5.820  0.9280 -2.5864  1.8832
  154SAPE   C2917050   0.297   5.437   5.638 -0.1513  0.0985  0.0456
  154SAPE   H9R17051   0.393   5.487   5.624  0.1715  0.8039  3.7384
  154SAPE  C21017052   0.255   5.350   5.522  0.2054 -0.0168 -0.0044
  154SAPE  H10R17053   0.216   5.422   5.446  1.6222 -0.1479 -0.8777
  154SAPE  H10S17054   0.168   5.289   5.556  1.1385 -0.4971  1.6095
  154SAPE  C21117055   0.362   5.266   5.453  0.1013 -0.0738  0.6433
  154SAPE  H11R17056   0.449   5.231   5.511  0.7230 -0.6029 -0.5788
  154SAPE  C21217057   0.363   5.247   5.323 -0.9473 -0.5084  0.0370
  154SAPE  H12R17058   0.448   5.196   5.275 -1.4684 -0.3458 -1.0953
  154SAPE  C21317059   0.252   5.298   5.233  0.3591  0.0779 -0.6208
  154SAPE  H13R17060   0.280   5.398   5.192 -1.8639 -0.2382 -3.2417
  154SAPE  H13S17061   0.156   5.306   5.288  0.0724 -1.5828 -0.8325
  154SAPE  C21417062   0.225   5.212   5.113  0.2871 -0.0424 -0.2861
  154SAPE  H14R17063   0.227   5.105   5.138 -2.6884  0.0830  0.9034
  154SAPE  C21517064   0.191   5.249   4.991  0.1108  0.5059 -0.2820
  154SAPE  H15R17065   0.176   5.175   4.911  3.5959 -0.2231 -0.3877
  154SAPE  C21617066   0.168   5.389   4.935  0.6249  0.1761  0.1415
  154SAPE  H16R17067   0.256   5.424   4.876  0.0812  2.6914  0.7048
  154SAPE  H16S17068   0.154   5.471   5.009 -1.6180 -0.3741  0.3925
  154SAPE  C21717069   0.041   5.397   4.839  0.4277 -0.8827 -0.5340
  154SAPE  H17R17070  -0.048   5.395   4.905  1.4651  1.7717  1.1071
  154SAPE  H17S17071   0.039   5.309   4.770 -1.2669 -0.2835 -1.3051
  154SAPE  C21817072   0.047   5.530   4.758 -0.7061  0.4493 -0.0808
  154SAPE  H18R17073   0.133   5.519   4.688  0.4193 -1.2369  1.4653
  154SAPE  H18S17074   0.054   5.611   4.833 -1.2332  0.2085  0.2300
  154SAPE  C21917075  -0.067   5.542   4.659 -0.1194 -0.4593  0.3089
  154SAPE  H19R17076  -0.168   5.544   4.705  0.6509 -2.0467  2.2467
  154SAPE  H19S17077  -0.069   5.452   4.594 -2.3405 -2.2225  2.6418
  154SAPE  C22017078  -0.066   5.665   4.561 -0.7033 -0.0945 -0.3300
  154SAPE  H20R17079  -0.091   5.749   4.629 -0.2135  0.4919 -0.8505
  154SAPE  H20S17080  -0.136   5.656   4.475 -1.2425 -1.5653  0.2411
  154SAPE  H20T17081   0.035   5.684   4.517 -0.6641 -1.8443 -1.0613
  154SAPE   C3317082  -0.132   6.141   6.176  0.2564  0.6796 -0.0751
  154SAPE   H3X17083  -0.102   6.204   6.090 -0.3663 -0.3069 -1.0483
  154SAPE   H3Y17084  -0.241   6.151   6.194 -0.0512 -0.3762 -1.1472
  154SAPE   C3417085  -0.129   5.991   6.123 -0.3237  0.0291  0.1036
  154SAPE   H4X17086  -0.176   5.932   6.205 -2.1593 -0.1897 -1.0583
  154SAPE   H4Y17087  -0.024   5.968   6.096  0.3130  2.2074  0.5162
  154SAPE   C3517088  -0.212   5.959   5.998  0.3327  0.1531  0.6317
  154SAPE   H5X17089  -0.162   6.013   5.916  0.7033 -0.1081  0.6831
  154SAPE   H5Y17090  -0.319   5.987   5.997 -0.1912 -1.5674 -2.0040
  154SAPE   C3617091  -0.211   5.812   5.955  0.5562 -0.3483  0.3334
  154SAPE   H6X17092  -0.258   5.758   6.040 -2.5072  1.4908 -0.0221
  154SAPE   H6Y17093  -0.105   5.780   5.959  0.3188 -1.1729  0.2222
  154SAPE   C3717094  -0.264   5.790   5.812  0.2556 -0.0787 -0.0188
  154SAPE   H7X17095  -0.231   5.876   5.750  0.3262 -0.0581  0.0468
  154SAPE   H7Y17096  -0.375   5.797   5.811  0.1659 -0.3487 -3.2618
  154SAPE   C3817097  -0.211   5.662   5.746 -0.4509  0.4320 -0.2984
  154SAPE   H8X17098  -0.238   5.575   5.810  3.7434  1.1305  2.8910
  154SAPE   H8Y17099  -0.100   5.670   5.743 -0.6195  4.1195 -1.1572
  154SAPE   C3917100  -0.252   5.638   5.602 -0.2373 -0.5394 -1.0647
  154SAPE   H9X17101  -0.243   5.737   5.553 -1.2034  1.4293  2.4092
  154SAPE   H9Y17102  -0.358   5.608   5.584 -0.4423 -0.7053  0.3281
  154SAPE  C31017103  -0.156   5.541   5.535 -0.4582  0.7910  0.2489
  154SAPE  H10X17104  -0.157   5.443   5.589  0.2329  0.4286 -0.3826
  154SAPE  H10Y17105  -0.059   5.592   5.519 -0.0727 -0.2543 -0.9375
  154SAPE  C31117106  -0.209   5.497   5.398  0.6784 -0.0828  0.4577
  154SAPE  H11X17107  -0.220   5.590   5.339 -2.3936 -2.0634 -2.4916
  154SAPE  H11Y17108  -0.308   5.450   5.417 -0.9832  2.2385 -1.7431
  154SAPE  C31217109  -0.114   5.412   5.314 -0.5755  0.1208  0.7770
  154SAPE  H12X17110  -0.095   5.317   5.370 -2.2250 -1.2120 -0.8100
  154SAPE  H12Y17111  -0.009   5.449   5.311  0.0554 -1.5872 -0.4560
  154SAPE  C31317112  -0.162   5.385   5.175  0.0195  0.3582  0.1068
  154SAPE  H13X17113  -0.085   5.327   5.119  0.6192  0.0344  1.2368
  154SAPE  H13Y17114  -0.190   5.476   5.118 -0.4255 -1.0227 -2.0033
  154SAPE  C31417115  -0.291   5.303   5.178 -0.0223  0.1543  0.2317
  154SAPE  H14X17116  -0.375   5.375   5.189 -1.0694 -1.0122  0.1751
  154SAPE  H14Y17117  -0.281   5.244   5.272  2.3799  0.5877  0.3156
  154SAPE  C31517118  -0.311   5.209   5.059 -0.4771  0.1032 -0.6288
  154SAPE  H15X17119  -0.383   5.134   5.098 -1.3315  1.4385  0.4922
  154SAPE  H15Y17120  -0.215   5.155   5.053  0.6708  2.1303 -1.4750
  154SAPE  C31617121  -0.348   5.270   4.930 -0.1853 -0.8301  0.4978
  154SAPE  H16X17122  -0.309   5.373   4.916 -1.9002 -0.2072 -0.1023
  154SAPE  H16Y17123  -0.458   5.284   4.916 -0.0339 -1.0395 -1.1320
  154SAPE  C31717124  -0.293   5.183   4.814  0.0649 -0.8999 -0.0738
  154SAPE  H17X17125  -0.316   5.075   4.830 -1.8709 -0.7859 -1.6514
  154SAPE  H17Y17126  -0.189   5.216   4.793 -0.5194  2.0725  1.0957
  154SAPE  C31817127  -0.359   5.215   4.676  0.2652  0.3064 -0.3593
  154SAPE  H18X17128  -0.315   5.149   4.599  0.3382  0.0060 -0.0615
  154SAPE  H18Y17129  -0.347   5.322   4.648  0.1716  0.4966  0.3139
  154SAPE  H18Z17130  -0.467   5.189   4.686  0.0712  1.1736 -0.0555
  155SAPE     N17131   2.175   5.063   7.109 -0.1249 -0.4602  0.1895
  155SAPE   HN117132   2.222   5.092   7.021  1.3858 -1.2109  0.6962
  155SAPE   HN217133   2.156   5.153   7.157 -0.6292 -1.5047  2.0573
  155SAPE   HN317134   2.246   5.019   7.172 -1.1117  0.5963  2.1368
  155SAPE   C1217135   2.054   4.976   7.095 -0.8029 -0.4381 -0.2343
  155SAPE  H12A17136   1.969   5.030   7.049  0.8534  2.1080 -0.5106
  155SAPE  H12B17137   2.034   4.941   7.198  1.4776 -1.9852 -0.2298
  155SAPE   C1117138   2.083   4.849   7.008 -0.3003 -0.2018  0.3534
  155SAPE  H11A17139   2.154   4.778   7.055 -0.7126 -2.2365 -1.8623
  155SAPE  H11B17140   2.123   4.880   6.909 -1.3831  0.9932  0.2582
  155SAPE     P17141   1.919   4.730   6.846  0.0127 -0.4030 -0.2474
  155SAPE   O1317142   1.996   4.610   6.826  0.0231 -0.1920  0.0471
  155SAPE   O1417143   1.772   4.715   6.840 -0.0862 -0.3998 -0.1185
  155SAPE   O1217144   1.953   4.782   6.991  0.1036 -0.1234 -0.1324
  155SAPE   O1117145   1.964   4.839   6.742 -0.2366  0.1543  0.6126
  155SAPE    C117146   1.892   4.961   6.698 -0.2286  0.6439  0.4002
  155SAPE    HA17147   1.824   4.989   6.781 -0.4708  3.7918 -0.7166
  155SAPE    HB17148   1.961   5.048   6.684 -0.2772  0.9106  1.6501
  155SAPE    C217149   1.822   4.939   6.566  0.0465 -0.7117  0.1900
  155SAPE    HS17150   1.739   4.866   6.581  0.1241 -0.9444 -0.4606
  155SAPE   O2117151   1.917   4.891   6.469  0.0409 -0.3787  0.1060
  155SAPE   C2117152   1.861   4.821   6.372  0.1687 -0.3238  0.3145
  155SAPE   O2217153   1.746   4.779   6.369  0.3894  0.6183 -0.0354
  155SAPE   C2217154   1.966   4.766   6.274 -0.2815 -0.3404 -0.1896
  155SAPE   H2R17155   2.054   4.833   6.271  0.1376 -0.9063 -0.6167
  155SAPE   H2S17156   2.001   4.665   6.301  0.6732  0.3502  1.2393
  155SAPE    C317157   1.748   5.066   6.517 -0.6315  0.0641 -0.4182
  155SAPE    HX17158   1.819   5.133   6.463  0.2624  0.4122  1.1417
  155SAPE    HY17159   1.714   5.128   6.603 -0.0178  0.0782 -0.1815
  155SAPE   O3117160   1.651   5.030   6.418  0.1295 -0.9116 -0.0816
  155SAPE   C3117161   1.522   5.060   6.419  0.4639  0.3439  0.0883
  155SAPE   O3217162   1.462   5.103   6.518 -0.3223 -1.0238 -0.0063
  155SAPE   C3217163   1.452   5.003   6.294 -0.1715  0.4645  1.2130
  155SAPE   H2X17164   1.419   4.898   6.299  2.0138 -0.4118 -0.8128
  155SAPE   H2Y17165   1.526   5.000   6.212 -2.2418 -0.6116 -0.7039
  155SAPE   C2317166   1.898   4.755   6.128  0.2972  0.2038  0.2819
  155SAPE   H3R17167   1.816   4.830   6.122  0.2168  0.0656 -0.3522
  155SAPE   H3S17168   1.850   4.655   6.126  1.2332 -0.2546 -0.3595
  155SAPE   C2417169   2.003   4.764   6.021 -0.0876  0.5950  0.0660
  155SAPE   H4R17170   1.976   4.696   5.938  1.3153  1.0556 -0.8023
  155SAPE   H4S17171   2.098   4.730   6.067  0.6086  2.2896 -0.0231
  155SAPE   C2517172   2.034   4.901   5.976 -0.0893 -0.4336 -0.2637
  155SAPE   H5R17173   2.075   4.964   6.056 -1.1529 -0.2090  0.1238
  155SAPE   C2617174   1.972   4.958   5.868  0.2581 -0.1731  0.6789
  155SAPE   H6R17175   1.992   5.061   5.834 -1.0651  0.6302  2.1840
  155SAPE   C2717176   1.891   4.879   5.768 -0.0588  0.4290  0.8536
  155SAPE   H7R17177   1.799   4.840   5.816 -1.4333  2.1745 -0.2167
  155SAPE   H7S17178   1.964   4.799   5.742  1.3711  1.1924  2.3286
  155SAPE   C2817179   1.838   4.942   5.640 -0.2572  1.2325 -0.0399
  155SAPE   H8R17180   1.740   4.993   5.646 -1.0760 -0.2450 -0.2475
  155SAPE   C2917181   1.895   4.911   5.515 -0.5951  0.2349 -0.1434
  155SAPE   H9R17182   1.853   4.955   5.423 -1.3640  0.2381  0.2033
  155SAPE  C21017183   2.016   4.823   5.481 -0.5846 -0.1563  0.4319
  155SAPE  H10R17184   2.021   4.733   5.546  0.0327 -0.3410  0.1359
  155SAPE  H10S17185   2.111   4.878   5.496 -0.5647  0.1609 -0.7060
  155SAPE  C21117186   2.022   4.758   5.343  0.0599 -0.7963  0.1364
  155SAPE  H11R17187   1.991   4.653   5.336  1.6203 -1.2356 -0.6137
  155SAPE  C21217188   2.073   4.818   5.233  0.1346 -0.1260  0.6389
  155SAPE  H12R17189   2.071   4.770   5.135  1.5721  0.6327  0.2063
  155SAPE  C21317190   2.114   4.956   5.224  0.0371 -0.0784  0.6230
  155SAPE  H13R17191   2.207   4.959   5.164 -0.4994  0.7267 -0.2043
  155SAPE  H13S17192   2.155   4.976   5.325  1.9233  0.9645 -0.3051
  155SAPE  C21417193   2.010   5.060   5.181 -1.0326  0.0716  0.0690
  155SAPE  H14R17194   1.943   5.099   5.260 -0.2156 -1.2275  1.4561
  155SAPE  C21517195   2.015   5.121   5.062 -0.0262  0.1341  0.4669
  155SAPE  H15R17196   1.932   5.192   5.046 -1.0528 -1.2306 -0.6205
  155SAPE  C21617197   2.114   5.097   4.949  0.0722 -0.1683 -0.2048
  155SAPE  H16R17198   2.202   5.034   4.974  4.0575  4.5948 -0.9127
  155SAPE  H16S17199   2.165   5.190   4.916  0.6304 -0.1388  0.7073
  155SAPE  C21717200   2.053   5.034   4.826  0.2481 -0.2554  0.6193
  155SAPE  H17R17201   1.961   5.094   4.809  0.7231  0.6417  1.1278
  155SAPE  H17S17202   2.018   4.933   4.858 -0.2504 -0.2352  0.1424
  155SAPE  C21817203   2.146   5.033   4.697 -0.3113 -0.1168  0.1948
  155SAPE  H18R17204   2.234   4.969   4.719 -0.9067 -0.6741  1.0351
  155SAPE  H18S17205   2.191   5.134   4.687 -2.1512  0.6624 -0.6550
  155SAPE  C21917206   2.066   4.985   4.570  0.7834  0.6627 -0.2235
  155SAPE  H19R17207   1.965   5.029   4.583 -0.2903 -1.8824  0.7151
  155SAPE  H19S17208   2.054   4.877   4.595 -0.0135  0.9594  0.7796
  155SAPE  C22017209   2.132   5.007   4.430  0.2595 -0.1165 -0.2213
  155SAPE  H20R17210   2.235   4.965   4.432  0.7453  1.0084 -0.5560
  155SAPE  H20S17211   2.126   5.115   4.406  0.8053  0.5373  2.3235
  155SAPE  H20T17212   2.072   4.960   4.349 -1.0722 -0.0839  0.7160
  155SAPE   C3317213   1.334   5.085   6.241 -0.0974  0.3260 -0.7235
  155SAPE   H3X17214   1.306   5.170   6.307 -1.5530 -0.3158 -0.4504
  155SAPE   H3Y17215   1.241   5.024   6.237 -2.1217  2.6348  3.7658
  155SAPE   C3417216   1.357   5.154   6.100  0.1652  0.4201 -0.5686
  155SAPE   H4X17217   1.451   5.213   6.095  0.4373  0.0552  0.0670
  155SAPE   H4Y17218   1.273   5.216   6.064 -0.3678  0.3986  0.5771
  155SAPE   C3517219   1.397   5.051   5.996  0.0723 -0.1428 -0.8136
  155SAPE   H5X17220   1.343   4.955   5.995  3.3045 -2.0984 -0.6259
  155SAPE   H5Y17221   1.503   5.022   6.011 -0.3842 -2.0765 -1.1456
  155SAPE   C3617222   1.383   5.127   5.860 -0.1321  0.3711  0.2015
  155SAPE   H6X17223   1.432   5.226   5.861  3.4669 -1.1035 -3.3743
  155SAPE   H6Y17224   1.273   5.136   5.847 -0.1138  3.0317  1.3657
  155SAPE   C3717225   1.438   5.053   5.736  0.3616 -0.5118 -0.4595
  155SAPE   H7X17226   1.399   4.950   5.725 -1.5203  0.2991 -2.0507
  155SAPE   H7Y17227   1.549   5.056   5.740  0.3731 -0.6678 -0.6371
  155SAPE   C3817228   1.391   5.131   5.608  0.1647 -0.8874  1.1386
  155SAPE   H8X17229   1.425   5.237   5.612 -0.8628 -0.5765  3.4677
  155SAPE   H8Y17230   1.281   5.147   5.612 -0.2960 -3.3290 -0.0649
  155SAPE   C3917231   1.429   5.062   5.481  0.6268 -0.1038  0.0364
  155SAPE   H9X17232   1.382   4.962   5.489 -2.6240  1.1990 -1.0437
  155SAPE   H9Y17233   1.540   5.066   5.476  0.6854 -1.5636 -0.3072
  155SAPE  C31017234   1.372   5.128   5.354  0.3117 -0.1255 -0.4410
  155SAPE  H10X17235   1.421   5.100   5.258 -1.0297 -0.3471 -1.0846
  155SAPE  H10Y17236   1.389   5.238   5.365 -0.5584  0.0618 -0.8700
  155SAPE  C31117237   1.223   5.110   5.339 -0.0723 -0.2639 -0.9785
  155SAPE  H11X17238   1.181   5.191   5.275 -0.7266 -0.0402 -0.2749
  155SAPE  H11Y17239   1.169   5.098   5.435  0.7111 -1.6135 -0.6870
  155SAPE  C31217240   1.185   4.987   5.256 -0.2246  0.0493  0.1894
  155SAPE  H12X17241   1.079   4.962   5.278 -0.8489  1.1745 -1.3312
  155SAPE  H12Y17242   1.243   4.908   5.309 -2.1687 -0.9319  0.9338
  155SAPE  C31317243   1.205   4.999   5.106  0.2400  0.4791 -0.1804
  155SAPE  H13X17244   1.186   4.901   5.058 -1.1161 -0.1328  1.5086
  155SAPE  H13Y17245   1.311   5.026   5.082 -0.6715  3.3606 -1.4524
  155SAPE  C31417246   1.116   5.096   5.027 -0.5500  0.0774 -0.3750
  155SAPE  H14X17247   1.105   5.198   5.070 -0.4152  0.3698 -1.0178
  155SAPE  H14Y17248   1.018   5.044   5.036 -0.4822 -0.5978 -2.7770
  155SAPE  C31517249   1.156   5.114   4.880  0.5061 -0.2610 -0.2155
  155SAPE  H15X17250   1.190   5.014   4.845 -1.7001 -1.0243 -0.3197
  155SAPE  H15Y17251   1.247   5.177   4.866  0.2574  0.3379  0.7776
  155SAPE  C31617252   1.031   5.153   4.806  0.4782  0.2176  0.2571
  155SAPE  H16X17253   0.967   5.229   4.857 -1.2888 -0.6913 -0.5154
  155SAPE  H16Y17254   0.975   5.058   4.801  0.6876  0.0397  1.0811
  155SAPE  C31717255   1.059   5.191   4.663  0.1883  1.0886 -0.6794
  155SAPE  H17X17256   0.968   5.192   4.600  0.3073 -0.6959 -0.9449
  155SAPE  H17Y17257   1.131   5.111   4.637 -0.7246  0.0068 -0.0102
  155SAPE  C31817258   1.121   5.323   4.654 -0.0243 -0.7634  0.5758
  155SAPE  H18X17259   1.055   5.404   4.692  0.9752 -0.4892  1.7785
  155SAPE  H18Y17260   1.140   5.352   4.548  0.6590 -0.8772  0.6580
  155SAPE  H18Z17261   1.207   5.329   4.724  0.9604 -2.2974 -0.4410
  156SAPE     N17262   3.932   0.692   6.533  0.1922  0.1775  0.3809
  156SAPE   HN117263   3.864   0.693   6.613 -1.4150 -1.7442 -0.8691
  156SAPE   HN217264   3.915   0.601   6.486  2.0311 -0.0138  0.0102
  156SAPE   HN317265   4.028   0.697   6.571  0.5070 -1.5810 -0.1250
  156SAPE   C1217266   3.910   0.807   6.443  0.5370 -0.2469  0.5941
  156SAPE  H12A17267   3.929   0.902   6.498 -0.8256 -0.6893  1.9084
  156SAPE  H12B17268   3.802   0.797   6.420  0.9639 -4.1484 -0.4120
  156SAPE   C1117269   4.002   0.799   6.315  0.1019 -0.2406 -0.0860
  156SAPE  H11A17270   4.107   0.805   6.351  0.0605  0.3748 -0.0622
  156SAPE  H11B17271   3.984   0.883   6.245 -0.0457  1.0194  1.3981
  156SAPE     P17272   3.975   0.668   6.095 -0.0685  0.1907 -0.3220
  156SAPE   O1317273   3.920   0.539   6.051  0.4399 -0.4563 -0.1845
  156SAPE   O1417274   3.912   0.790   6.042 -0.0900  0.2274  0.1679
  156SAPE   O1217275   3.978   0.674   6.250 -0.5502 -0.3784 -0.0116
  156SAPE   O1117276   4.129   0.665   6.061 -0.0715  0.0531  0.1771
  156SAPE    C117277   4.213   0.549   6.112 -0.1943  0.1343  0.5144
  156SAPE    HA17278   4.300   0.592   6.165  0.3692  0.8709 -0.9696
  156SAPE    HB17279   4.161   0.473   6.175  1.0729 -0.1339  1.2545
  156SAPE    C217280   4.269   0.456   6.000 -0.3045  0.8387  0.0187
  156SAPE    HS17281   4.362   0.403   6.029  0.8741  1.6388 -2.0436
  156SAPE   O2117282   4.296   0.538   5.881 -0.3174 -0.1567  0.3745
  156SAPE   C2117283   4.405   0.617   5.885  0.6772 -0.3726  0.1715
  156SAPE   O2217284   4.473   0.649   5.975 -0.0570  0.5159 -0.0739
  156SAPE   C2217285   4.417   0.672   5.752  0.3970  0.0218 -0.1553
  156SAPE   H2R17286   4.365   0.608   5.678 -0.9908  2.4379 -1.4036
  156SAPE   H2S17287   4.371   0.773   5.751  1.8564  0.7082 -0.6774
  156SAPE    C317288   4.163   0.346   5.962  0.6077 -0.0723  0.8071
  156SAPE    HX17289   4.077   0.402   5.920 -1.4396 -2.7427  1.1866
  156SAPE    HY17290   4.113   0.300   6.050  0.2425 -3.2775 -0.8967
  156SAPE   O3117291   4.199   0.249   5.869 -0.2050 -0.2721 -0.3790
  156SAPE   C3117292   4.272   0.145   5.917  0.2613 -0.2596 -0.2641
  156SAPE   O3217293   4.280   0.115   6.037 -0.2624  0.5376  0.5276
  156SAPE   C3217294   4.355   0.071   5.809  0.9798 -0.2481  0.0034
  156SAPE   H2X17295   4.304  -0.028   5.802 -0.4581  0.3480  1.4711
  156SAPE   H2Y17296   4.458   0.046   5.841  1.8498  0.1716 -2.3218
  156SAPE   C2317297   4.554   0.705   5.697 -0.1747 -0.5228 -0.3975
  156SAPE   H3R17298   4.615   0.614   5.717 -0.0565 -0.3004  0.2982
  156SAPE   H3S17299   4.602   0.790   5.752  0.4053 -0.1364 -1.4714
  156SAPE   C2417300   4.561   0.740   5.550 -0.3274  0.5279 -0.4918
  156SAPE   H4R17301   4.661   0.774   5.515 -1.0904  0.8683 -2.4516
  156SAPE   H4S17302   4.491   0.824   5.532  1.3740  2.5525  1.6920
  156SAPE   C2517303   4.530   0.615   5.467  0.6077  0.5532  0.1399
  156SAPE   H5R17304   4.569   0.520   5.506  0.3698  0.8774  1.2059
  156SAPE   C2617305   4.453   0.619   5.355 -0.3426 -0.7835  0.6743
  156SAPE   H6R17306   4.433   0.521   5.310 -2.4733 -0.8179  1.5967
  156SAPE   C2717307   4.399   0.745   5.287  0.1071 -0.1585 -0.5603
  156SAPE   H7R17308   4.489   0.786   5.236  0.2242 -2.3526 -2.2567
  156SAPE   H7S17309   4.372   0.827   5.356 -0.6770 -0.1723 -0.8477
  156SAPE   C2817310   4.285   0.713   5.196 -0.4055  0.0423 -0.1491
  156SAPE   H8R17311   4.192   0.680   5.244 -1.9195  4.0743  0.1166
  156SAPE   C2917312   4.291   0.730   5.060 -0.0078  0.4852 -0.5572
  156SAPE   H9R17313   4.202   0.699   5.004 -0.4186 -0.0407  0.3549
  156SAPE  C21017314   4.400   0.784   4.983 -0.7263 -0.0835  0.7467
  156SAPE  H10R17315   4.485   0.718   4.955  0.7408  1.7073  0.7717
  156SAPE  H10S17316   4.454   0.856   5.048  0.5915 -0.0260 -0.3819
  156SAPE  C21117317   4.363   0.856   4.856 -0.2583  0.2969  0.1494
  156SAPE  H11R17318   4.328   0.960   4.864 -4.1708 -0.7273 -1.4842
  156SAPE  C21217319   4.373   0.819   4.720 -0.0538 -0.0633 -0.4282
  156SAPE  H12R17320   4.368   0.902   4.649  1.1739  0.6939  0.3169
  156SAPE  C21317321   4.412   0.674   4.672  0.5175 -0.9104  0.0206
  156SAPE  H13R17322   4.341   0.607   4.726 -0.4897 -1.2533 -1.6563
  156SAPE  H13S17323   4.512   0.639   4.707  0.3479  0.0652  1.5939
  156SAPE  C21417324   4.394   0.655   4.522  0.6164 -0.1276 -0.7401
  156SAPE  H14R17325   4.326   0.727   4.474  0.4916  0.4530  0.2803
  156SAPE  C21517326   4.447   0.565   4.444  0.1310  0.2243 -0.4935
  156SAPE  H15R17327   4.399   0.557   4.346 -0.2271 -0.1898 -0.2828
  156SAPE  C21617328   4.544   0.455   4.484 -0.2882  0.6004 -0.8220
  156SAPE  H16R17329   4.552   0.447   4.594 -1.7750 -0.4232 -0.7598
  156SAPE  H16S17330   4.646   0.480   4.447  0.5022 -1.7498 -0.4216
  156SAPE  C21717331   4.487   0.325   4.424  0.2109  0.5674 -0.8258
  156SAPE  H17R17332   4.565   0.247   4.438  0.2348  0.8834  0.9104
  156SAPE  H17S17333   4.482   0.337   4.313  1.3768 -0.2511 -0.9867
  156SAPE  C21817334   4.366   0.257   4.488 -0.2718 -0.6493 -0.0976
  156SAPE  H18R17335   4.281   0.330   4.492 -0.7122 -1.0021 -2.0191
  156SAPE  H18S17336   4.386   0.226   4.592 -3.1677 -0.2974  0.6508
  156SAPE  C21917337   4.314   0.130   4.426 -0.3267 -0.4039 -0.1145
  156SAPE  H19R17338   4.295   0.159   4.321 -2.6183  1.2790  0.6803
  156SAPE  H19S17339   4.223   0.097   4.480 -1.1824  0.5550 -0.9321
  156SAPE  C22017340   4.407   0.007   4.443  0.1418 -0.2658  0.0113
  156SAPE  H20R17341   4.359  -0.080   4.395  0.1703 -0.5011  0.4052
  156SAPE  H20S17342   4.410  -0.017   4.551  1.9753  0.9394  0.2698
  156SAPE  H20T17343   4.501   0.013   4.384 -0.5052 -0.8354 -1.1062
  156SAPE   C3317344   4.370   0.140   5.670 -0.2602 -0.2201  0.7232
  156SAPE   H3X17345   4.453   0.100   5.608 -0.9987 -0.2221 -0.2810
  156SAPE   H3Y17346   4.395   0.244   5.700 -0.4226 -0.4690  1.7577
  156SAPE   C3417347   4.241   0.137   5.586  0.1812  0.2359  0.0089
  156SAPE   H4X17348   4.152   0.166   5.645 -0.1220 -0.8144  0.0790
  156SAPE   H4Y17349   4.225   0.033   5.552 -0.4370 -0.0972  1.2966
  156SAPE   C3517350   4.258   0.230   5.461 -0.3194 -0.0146 -0.8306
  156SAPE   H5X17351   4.359   0.202   5.424  0.6739  0.4491  1.3408
  156SAPE   H5Y17352   4.279   0.335   5.490 -0.1161  0.4719 -2.6019
  156SAPE   C3617353   4.137   0.214   5.368 -1.1176 -0.4269  0.1538
  156SAPE   H6X17354   4.047   0.253   5.419  0.0580  1.7346  0.7013
  156SAPE   H6Y17355   4.132   0.106   5.343  1.0229 -0.5187 -0.1064
  156SAPE   C3717356   4.152   0.296   5.234  0.0880  0.3174 -0.8867
  156SAPE   H7X17357   4.196   0.396   5.250  0.7041 -0.0082 -0.5303
  156SAPE   H7Y17358   4.056   0.331   5.189 -0.0213  0.7518 -0.3289
  156SAPE   C3817359   4.221   0.212   5.126 -0.1646  0.4230 -0.5627
  156SAPE   H8X17360   4.152   0.128   5.102  0.6490 -1.3008  2.5095
  156SAPE   H8Y17361   4.313   0.173   5.176  0.3956  2.0400 -0.2992
  156SAPE   C3917362   4.266   0.290   5.006  0.2242  0.3460  0.6753
  156SAPE   H9X17363   4.334   0.368   5.046 -2.0620  2.0947  1.3126
  156SAPE   H9Y17364   4.177   0.330   4.953 -0.3836 -1.1319  0.5080
  156SAPE  C31017365   4.344   0.193   4.906 -0.0777 -1.4020 -0.0679
  156SAPE  H10X17366   4.371   0.257   4.819 -0.3381  0.6396  1.2865
  156SAPE  H10Y17367   4.267   0.117   4.877 -0.0323 -0.4477 -3.0376
  156SAPE  C31117368   4.469   0.121   4.959 -0.6575 -0.3274  0.1195
  156SAPE  H11X17369   4.436   0.036   5.023  0.6625 -1.0685 -0.1566
  156SAPE  H11Y17370   4.519   0.185   5.035  0.6741 -0.7910 -0.3301
  156SAPE  C31217371   4.562   0.066   4.852  0.0701 -0.3499 -0.5820
  156SAPE  H12X17372   4.494   0.019   4.777  0.8044 -1.5221 -0.5361
  156SAPE  H12Y17373   4.622  -0.018   4.893 -1.1572 -0.7585  0.4642
  156SAPE  C31317374   4.654   0.171   4.798 -0.2448  0.4542 -0.4827
  156SAPE  H13X17375   4.723   0.216   4.873  1.5984 -0.3842 -1.5983
  156SAPE  H13Y17376   4.601   0.253   4.744 -2.8476  1.5123  3.2658
  156SAPE  C31417377   4.753   0.121   4.696 -0.1263 -0.7953  0.0520
  156SAPE  H14X17378   4.696   0.096   4.604 -1.8725  1.1753  0.5211
  156SAPE  H14Y17379   4.802   0.034   4.745  3.4960  1.6088  1.1033
  156SAPE  C31517380   4.865   0.220   4.662 -0.7447  0.1718 -0.2235
  156SAPE  H15X17381   4.924   0.235   4.755  2.4951 -0.4980 -2.0515
  156SAPE  H15Y17382   4.811   0.312   4.630 -1.2744 -1.4713 -4.6516
  156SAPE  C31617383   4.961   0.161   4.554 -0.4965  0.3559  0.1503
  156SAPE  H16X17384   4.906   0.110   4.472  1.7347 -0.7770 -0.7091
  156SAPE  H16Y17385   5.030   0.089   4.602  1.5031  1.9789 -0.1430
  156SAPE  C31717386   5.058   0.269   4.497  0.8845 -0.9894 -0.4387
  156SAPE  H17X17387   5.110   0.312   4.585 -0.6211  0.4019 -0.1811
  156SAPE  H17Y17388   4.994   0.350   4.454 -0.2654 -1.8467 -0.3971
  156SAPE  C31817389   5.147   0.212   4.389 -0.0253 -0.4983  0.2086
  156SAPE  H18X17390   5.085   0.159   4.314 -1.3558 -1.0968  1.6654
  156SAPE  H18Y17391   5.230   0.147   4.425 -1.4273 -1.4811  1.7969
  156SAPE  H18Z17392   5.202   0.289   4.330  0.2531 -1.2885 -0.5948
  157SAPE     N17393   2.807   5.367   6.426 -0.5234  0.0493 -0.2523
  157SAPE   HN117394   2.723   5.314   6.456 -4.6118  4.4720 -2.4385
  157SAPE   HN217395   2.890   5.324   6.471 -1.0940  0.5067  1.2727
  157SAPE   HN317396   2.787   5.465   6.453  0.0783 -0.4014  2.0025
  157SAPE   C1217397   2.826   5.364   6.276 -0.0268 -0.5462  0.0888
  157SAPE  H12A17398   2.907   5.438   6.259  0.5083 -1.2775 -0.5714
  157SAPE  H12B17399   2.738   5.403   6.220  0.6428 -0.6814 -1.0617
  157SAPE   C1117400   2.877   5.230   6.220 -0.2976  0.0332 -0.1451
  157SAPE  H11A17401   2.886   5.243   6.110  2.5398  2.0470  0.2403
  157SAPE  H11B17402   2.805   5.146   6.235 -0.4522  0.2505  0.3603
  157SAPE     P17403   3.039   5.113   6.385  0.1620 -0.2720 -0.1372
  157SAPE   O1317404   3.177   5.055   6.388  0.3156 -0.0751 -0.0455
  157SAPE   O1417405   2.999   5.198   6.504 -0.2385  0.0863  0.1929
  157SAPE   O1217406   3.013   5.210   6.262  0.1523  0.5276  0.3765
  157SAPE   O1117407   2.934   4.995   6.368  0.4827 -0.4685 -0.0433
  157SAPE    C117408   2.964   4.869   6.306 -0.1989  0.4690 -0.3486
  157SAPE    HA17409   3.058   4.862   6.248  0.6401 -5.9459  0.9801
  157SAPE    HB17410   2.986   4.791   6.383  0.8577  0.2781 -0.8247
  157SAPE    C217411   2.860   4.826   6.201 -0.2991  0.3402  1.1028
  157SAPE    HS17412   2.901   4.735   6.153  0.8634  0.2178  2.2764
  157SAPE   O2117413   2.837   4.930   6.107  0.2840 -0.1758  1.0130
  157SAPE   C2117414   2.921   4.931   5.997  0.3901  0.0260 -0.1203
  157SAPE   O2217415   3.015   4.859   5.982  0.2296  0.0380 -0.0680
  157SAPE   C2217416   2.867   5.026   5.890 -0.4486 -0.6703  0.2465
  157SAPE   H2R17417   2.814   5.110   5.940 -1.6668 -1.8488  1.0035
  157SAPE   H2S17418   2.947   5.076   5.832 -0.8586 -0.9846 -0.6078
  157SAPE    C317419   2.727   4.791   6.267  0.8695 -0.2225  0.2625
  157SAPE    HX17420   2.687   4.875   6.328  0.4995 -0.0610 -0.1960
  157SAPE    HY17421   2.746   4.718   6.348  0.7379 -0.7490 -0.1754
  157SAPE   O3117422   2.636   4.737   6.174  0.6796  0.1112 -0.6808
  157SAPE   C3117423   2.510   4.739   6.212 -0.0589  0.1176  0.2266
  157SAPE   O3217424   2.463   4.785   6.313  0.3353 -0.3948 -0.6889
  157SAPE   C3217425   2.426   4.660   6.110 -0.0711 -0.1292 -0.1120
  157SAPE   H2X17426   2.321   4.676   6.143  0.3411  0.8653  0.7965
  157SAPE   H2Y17427   2.447   4.552   6.121 -1.0223 -0.2086  1.1244
  157SAPE   C2317428   2.769   4.955   5.784 -0.1519  0.4568 -1.0545
  157SAPE   H3R17429   2.715   5.031   5.724 -1.3365  0.9554  0.5511
  157SAPE   H3S17430   2.695   4.903   5.850  2.4422 -2.3025 -0.0903
  157SAPE   C2417431   2.832   4.846   5.691 -0.1394 -0.2598 -0.5307
  157SAPE   H4R17432   2.752   4.777   5.658 -0.7369 -0.0052  0.3550
  157SAPE   H4S17433   2.902   4.790   5.756 -0.7195 -0.9236 -0.4603
  157SAPE   C2517434   2.923   4.913   5.594 -0.1261  0.1293 -0.2559
  157SAPE   H5R17435   3.013   4.961   5.635  0.0994 -0.4026 -0.1165
  157SAPE   C2617436   2.901   4.923   5.461 -0.5868  0.8352 -0.7648
  157SAPE   H6R17437   2.974   4.982   5.403  1.0489  2.2997  2.5155
  157SAPE   C2717438   2.780   4.873   5.384  0.5923 -0.6782 -0.3759
  157SAPE   H7R17439   2.754   4.770   5.418 -0.1994 -0.7001 -1.0101
  157SAPE   H7S17440   2.820   4.850   5.282 -0.4441 -4.6849 -0.0612
  157SAPE   C2817441   2.658   4.961   5.388  0.5771  0.4856 -0.2819
  157SAPE   H8R17442   2.631   4.996   5.488  1.5549  0.9241 -0.1606
  157SAPE   C2917443   2.589   5.003   5.279 -0.3688  0.9233  0.4607
  157SAPE   H9R17444   2.496   5.060   5.290 -1.2134 -0.6630  1.9826
  157SAPE  C21017445   2.619   4.966   5.133  0.3101 -0.0209  1.4387
  157SAPE  H10R17446   2.646   4.859   5.119 -0.9812 -0.1566 -0.3536
  157SAPE  H10S17447   2.704   5.024   5.093  0.3547 -0.8927  0.1975
  157SAPE  C21117448   2.503   5.003   5.037  0.2323  0.0269 -0.0780
  157SAPE  H11R17449   2.415   5.049   5.085  0.0434 -1.4478  1.0611
  157SAPE  C21217450   2.496   4.990   4.899  0.1908  0.3571 -0.2813
  157SAPE  H12R17451   2.410   5.036   4.849 -1.1142 -0.9504  0.6540
  157SAPE  C21317452   2.597   4.930   4.811 -0.2568 -0.0684  0.5412
  157SAPE  H13R17453   2.540   4.874   4.733 -0.7593  0.0984  0.7879
  157SAPE  H13S17454   2.651   4.847   4.862 -1.4687 -1.4309 -0.2926
  157SAPE  C21417455   2.689   5.033   4.748 -0.4866 -0.0444 -1.1020
  157SAPE  H14R17456   2.764   5.075   4.817 -0.1548  0.6761 -1.8831
  157SAPE  C21517457   2.680   5.087   4.627 -0.5841 -0.0372 -0.0520
  157SAPE  H15R17458   2.747   5.164   4.585 -1.0367 -0.5435 -1.7551
  157SAPE  C21617459   2.576   5.034   4.528  0.1489  0.3560 -0.1115
  157SAPE  H16R17460   2.529   5.113   4.466  0.1475 -1.9097 -3.2773
  157SAPE  H16S17461   2.488   4.979   4.568 -0.0517  0.2151 -0.7304
  157SAPE  C21717462   2.653   4.922   4.450 -0.0692  0.0801 -0.1924
  157SAPE  H17R17463   2.572   4.870   4.394  0.1514 -0.8370  0.3241
  157SAPE  H17S17464   2.704   4.860   4.527  1.6611  1.0118 -0.5431
  157SAPE  C21817465   2.761   4.976   4.353 -0.9180 -0.4025  0.5738
  157SAPE  H18R17466   2.834   5.040   4.408  1.1618 -1.7665 -0.4709
  157SAPE  H18S17467   2.706   5.037   4.278 -0.1581 -1.2818 -0.7338
  157SAPE  C21917468   2.829   4.859   4.274 -0.2297  0.9125  0.1816
  157SAPE  H19R17469   2.757   4.797   4.217  0.6780 -2.4388  2.3819
  157SAPE  H19S17470   2.863   4.790   4.354 -2.4649 -1.0565 -0.4757
  157SAPE  C22017471   2.927   4.909   4.163  0.4321 -0.4294  0.7011
  157SAPE  H20R17472   2.895   5.001   4.111  0.3334 -1.3366 -0.9169
  157SAPE  H20S17473   2.947   4.836   4.081  3.3462  2.5941 -1.5581
  157SAPE  H20T17474   3.025   4.938   4.208  1.2941  2.7151 -2.7494
  157SAPE   C3317475   2.426   4.710   5.970 -0.5538  1.0556  0.2096
  157SAPE   H3X17476   2.528   4.694   5.929  0.1229 -0.5466  2.3267
  157SAPE   H3Y17477   2.397   4.817   5.981 -2.0708  0.7724 -0.7507
  157SAPE   C3417478   2.339   4.622   5.880 -0.2077  0.4655  0.5050
  157SAPE   H4X17479   2.240   4.599   5.925 -0.6691  0.1622 -0.6422
  157SAPE   H4Y17480   2.381   4.520   5.892  0.9022  1.1295  2.8043
  157SAPE   C3517481   2.327   4.678   5.738 -0.0800  0.1641  0.5629
  157SAPE   H5X17482   2.269   4.773   5.743  0.5236  0.6199 -0.6707
  157SAPE   H5Y17483   2.266   4.610   5.675 -0.6934  0.8357  0.4164
  157SAPE   C3617484   2.458   4.693   5.677  0.1489 -0.1937  0.1898
  157SAPE   H6X17485   2.517   4.600   5.692 -1.8622 -1.4906  0.4211
  157SAPE   H6Y17486   2.510   4.772   5.735 -0.9621  0.7832 -0.1156
  157SAPE   C3717487   2.453   4.737   5.531  0.3789  0.6767 -0.3272
  157SAPE   H7X17488   2.561   4.730   5.507  0.9750  2.2146  1.6294
  157SAPE   H7Y17489   2.430   4.846   5.528  0.6642  1.0641  4.4435
  157SAPE   C3817490   2.367   4.649   5.435  0.2378 -0.0577  0.2327
  157SAPE   H8X17491   2.258   4.654   5.455  0.2631  0.3544  0.2896
  157SAPE   H8Y17492   2.393   4.543   5.454 -1.1928 -0.7125 -1.1707
  157SAPE   C3917493   2.406   4.664   5.286 -0.4045 -0.2594  0.5856
  157SAPE   H9X17494   2.508   4.630   5.260  0.0252  1.7039 -0.4579
  157SAPE   H9Y17495   2.394   4.771   5.261  1.2700  0.7972  3.8450
  157SAPE  C31017496   2.326   4.588   5.180 -0.1863  1.1215  0.3214
  157SAPE  H10X17497   2.216   4.584   5.188 -0.2194  1.2594 -0.0470
  157SAPE  H10Y17498   2.354   4.480   5.179  3.9509  1.9761  1.5161
  157SAPE  C31117499   2.349   4.654   5.044 -0.0988  0.1141 -0.6587
  157SAPE  H11X17500   2.459   4.667   5.033  0.0820 -0.8213 -0.0509
  157SAPE  H11Y17501   2.287   4.746   5.036  0.0197  0.2245 -0.3432
  157SAPE  C31217502   2.303   4.574   4.922 -0.2428  0.3528  0.4021
  157SAPE  H12X17503   2.297   4.465   4.942 -1.1377  0.4956  0.9977
  157SAPE  H12Y17504   2.383   4.590   4.846 -0.9066  0.7067 -0.2356
  157SAPE  C31317505   2.159   4.620   4.880  0.4414  0.5412  0.0093
  157SAPE  H13X17506   2.134   4.728   4.886 -2.3022 -0.0965  1.4059
  157SAPE  H13Y17507   2.101   4.584   4.967 -0.1731 -1.6766 -1.2165
  157SAPE  C31417508   2.122   4.560   4.743 -0.4795  0.4044  0.3315
  157SAPE  H14X17509   2.014   4.582   4.729 -0.7998 -1.0731  0.3559
  157SAPE  H14Y17510   2.138   4.454   4.770 -1.2309  0.4540  1.0357
  157SAPE  C31517511   2.205   4.609   4.623 -0.4020 -0.2637  0.3735
  157SAPE  H15X17512   2.313   4.611   4.649 -0.3378  1.4634  0.0967
  157SAPE  H15Y17513   2.176   4.713   4.596  0.8808  0.9930  3.4431
  157SAPE  C31617514   2.179   4.516   4.499 -0.2623  0.0547  0.4279
  157SAPE  H16X17515   2.071   4.514   4.474 -0.2123  1.0793  0.0847
  157SAPE  H16Y17516   2.210   4.415   4.531 -0.0484 -0.6417 -1.8397
  157SAPE  C31717517   2.242   4.562   4.365 -0.2235 -0.1776  0.4676
  157SAPE  H17X17518   2.353   4.563   4.372 -0.1788 -0.1412 -0.1413
  157SAPE  H17Y17519   2.216   4.669   4.350 -0.5464 -0.2869  0.2493
  157SAPE  C31817520   2.209   4.479   4.243 -0.1053 -0.3863  0.4898
  157SAPE  H18X17521   2.226   4.533   4.148  0.1840 -2.0161 -0.4304
  157SAPE  H18Y17522   2.100   4.459   4.236 -0.3376  0.9295  0.1090
  157SAPE  H18Z17523   2.270   4.387   4.233  0.3488 -0.4072  2.8811
  158SAPE     N17524   4.331   3.392   6.970  0.0884  0.6468 -0.0238
  158SAPE   HN117525   4.296   3.354   7.060  1.6563  0.1702  0.4250
  158SAPE   HN217526   4.238   3.397   6.924 -1.4793 -2.8599  2.3321
  158SAPE   HN317527   4.378   3.313   6.922  1.9216  1.7774 -0.1904
  158SAPE   C1217528   4.415   3.511   6.988 -0.1113 -0.4505  0.2051
  158SAPE  H12A17529   4.493   3.498   7.065 -1.4584  0.5386  1.7998
  158SAPE  H12B17530   4.344   3.587   7.028 -0.9500  0.1510 -2.2195
  158SAPE   C1117531   4.464   3.562   6.843 -0.2110 -0.7999 -0.0003
  158SAPE  H11A17532   4.520   3.654   6.870  0.8882 -1.6609  0.7502
  158SAPE  H11B17533   4.379   3.593   6.779  0.6818 -0.9879 -1.3347
  158SAPE     P17534   4.693   3.481   6.738 -0.1336 -0.0302 -0.4120
  158SAPE   O1317535   4.771   3.523   6.854  0.4313 -0.5951  0.1082
  158SAPE   O1417536   4.744   3.365   6.667 -0.2743 -0.5990  0.2881
  158SAPE   O1217537   4.543   3.464   6.777 -0.4754 -0.1707  0.2996
  158SAPE   O1117538   4.684   3.603   6.644  0.0407 -0.6762 -0.7765
  158SAPE    C117539   4.597   3.592   6.529 -0.7044 -0.4919  0.3356
  158SAPE    HA17540   4.620   3.498   6.475  1.1619 -1.1794  2.1970
  158SAPE    HB17541   4.488   3.596   6.551 -0.9574 -1.0788 -0.7135
  158SAPE    C217542   4.626   3.701   6.417  0.1309 -0.2974  0.5556
  158SAPE    HS17543   4.585   3.795   6.461 -3.5979 -1.4558 -0.1033
  158SAPE   O2117544   4.533   3.674   6.311 -0.1641  0.3138 -0.5005
  158SAPE   C2117545   4.497   3.764   6.228  0.4156  0.5066 -0.8440
  158SAPE   O2217546   4.536   3.877   6.230  0.4359 -0.8392 -0.4928
  158SAPE   C2217547   4.391   3.699   6.139 -0.4277  0.1982 -0.3160
  158SAPE   H2R17548   4.423   3.598   6.107  2.0681  1.4154 -2.0874
  158SAPE   H2S17549   4.299   3.703   6.201  1.0457  0.6978  1.9689
  158SAPE    C317550   4.775   3.717   6.391 -0.2042  0.2067 -0.2751
  158SAPE    HX17551   4.814   3.621   6.350 -1.2518 -0.6184  0.5697
  158SAPE    HY17552   4.815   3.749   6.489  1.3752 -0.2104 -0.7555
  158SAPE   O3117553   4.806   3.820   6.294 -0.4872  0.8875 -0.4052
  158SAPE   C3117554   4.841   3.774   6.175  0.2840 -0.1613  0.6739
  158SAPE   O3217555   4.840   3.657   6.140  0.2870 -0.1920 -0.0184
  158SAPE   C3217556   4.861   3.893   6.085 -0.2491 -0.3577 -0.2384
  158SAPE   H2X17557   4.908   3.979   6.137  0.4040 -1.4838  1.0924
  158SAPE   H2Y17558   4.755   3.922   6.066  0.0791  0.8614 -0.2500
  158SAPE   C2317559   4.365   3.780   6.015 -0.4394 -0.0822 -0.0025
  158SAPE   H3R17560   4.332   3.880   6.052  1.5581  0.9187 -0.7762
  158SAPE   H3S17561   4.280   3.736   5.958 -2.2916  0.6627  2.0683
  158SAPE   C2417562   4.484   3.798   5.917  0.0358 -0.6227  0.6578
  158SAPE   H4R17563   4.543   3.704   5.916  0.4575 -0.3598  0.6171
  158SAPE   H4S17564   4.555   3.880   5.941  0.3213 -0.3571 -0.9934
  158SAPE   C2517565   4.426   3.823   5.773 -0.8167 -0.2911  0.1184
  158SAPE   H5R17566   4.320   3.853   5.778 -0.8412 -0.5745  2.1501
  158SAPE   C2617567   4.479   3.790   5.654  0.5148 -0.3393  0.4378
  158SAPE   H6R17568   4.421   3.810   5.563 -0.1372 -2.8257  0.2532
  158SAPE   C2717569   4.628   3.756   5.636 -0.1595 -0.1916  0.0680
  158SAPE   H7R17570   4.648   3.653   5.600  1.4101  0.0451  0.1923
  158SAPE   H7S17571   4.670   3.749   5.739  0.3428 -1.5120 -0.2074
  158SAPE   C2817572   4.705   3.863   5.571 -0.3497 -0.1694  0.9545
  158SAPE   H8R17573   4.709   3.955   5.631 -2.6729  0.4853  0.2160
  158SAPE   C2917574   4.740   3.865   5.442  0.4828  0.5643  0.5800
  158SAPE   H9R17575   4.777   3.965   5.412 -1.4292  1.3609  0.7341
  158SAPE  C21017576   4.733   3.756   5.332  0.9850  0.0682 -0.5493
  158SAPE  H10R17577   4.635   3.760   5.280  1.5983  1.3841 -1.6762
  158SAPE  H10S17578   4.720   3.659   5.385  0.5421 -0.1326 -1.0185
  158SAPE  C21117579   4.854   3.749   5.244 -0.3338 -0.7033  0.1928
  158SAPE  H11R17580   4.951   3.781   5.284  0.0749 -1.0005 -0.5506
  158SAPE  C21217581   4.857   3.715   5.115 -0.6071 -0.1747  0.6135
  158SAPE  H12R17582   4.956   3.707   5.067  0.7822 -0.9435  3.3859
  158SAPE  C21317583   4.747   3.688   5.019  0.2740  0.1303  0.1026
  158SAPE  H13R17584   4.663   3.637   5.071 -1.9532  2.8293 -0.5797
  158SAPE  H13S17585   4.783   3.629   4.932  1.0707  0.8211 -0.0503
  158SAPE  C21417586   4.676   3.804   4.950 -0.7622  0.2103  0.8295
  158SAPE  H14R17587   4.577   3.827   4.993 -1.5608  1.5786 -1.5254
  158SAPE  C21517588   4.733   3.902   4.875 -0.1241  0.9631  0.6886
  158SAPE  H15R17589   4.663   3.983   4.850 -2.2238 -1.1843 -0.9505
  158SAPE  C21617590   4.878   3.909   4.825 -0.1684  0.0653 -0.4479
  158SAPE  H16R17591   4.928   3.811   4.836  1.2968  0.7161 -1.0340
  158SAPE  H16S17592   4.934   3.973   4.897 -2.1815 -0.1857  1.4377
  158SAPE  C21717593   4.888   3.948   4.678 -0.4607  0.0662  0.5397
  158SAPE  H17R17594   4.998   3.943   4.661 -0.3358 -2.7318  1.6451
  158SAPE  H17S17595   4.850   4.050   4.658 -0.7171 -0.0328  0.5170
  158SAPE  C21817596   4.830   3.850   4.572  0.7243  0.5216  1.0650
  158SAPE  H18R17597   4.721   3.849   4.590  1.0791  0.6020  3.4439
  158SAPE  H18S17598   4.872   3.748   4.583  0.7448  0.5176  0.9526
  158SAPE  C21917599   4.853   3.906   4.428 -0.4704 -0.0629  0.3864
  158SAPE  H19R17600   4.814   4.010   4.430 -0.9895 -0.2449 -0.1004
  158SAPE  H19S17601   4.800   3.848   4.349  1.4597 -0.3319 -0.7824
  158SAPE  C22017602   5.001   3.920   4.384  0.5900  0.4069  0.2822
  158SAPE  H20R17603   4.996   3.970   4.285 -0.2545 -1.2464 -0.5493
  158SAPE  H20S17604   5.053   3.822   4.384  0.4695  0.3143  1.5834
  158SAPE  H20T17605   5.056   3.982   4.459 -0.0932  2.0603 -0.5363
  158SAPE   C3317606   4.932   3.853   5.960 -0.1145 -0.1354  1.4292
  158SAPE   H3X17607   4.862   3.808   5.887  1.6071  0.0692 -0.4556
  158SAPE   H3Y17608   5.019   3.786   5.977  1.5786  1.8306  0.9901
  158SAPE   C3417609   4.982   3.972   5.868  0.7936  0.1766  0.2033
  158SAPE   H4X17610   5.060   4.028   5.924 -0.2831  3.2091 -1.1393
  158SAPE   H4Y17611   4.894   4.036   5.846 -1.2782 -2.8480 -0.8930
  158SAPE   C3517612   5.040   3.924   5.735  0.2060  0.0606  0.6197
  158SAPE   H5X17613   4.975   3.843   5.698 -1.5965  0.1490  3.3189
  158SAPE   H5Y17614   5.137   3.874   5.757  1.4663  2.3707  0.6096
  158SAPE   C3617615   5.034   4.019   5.621 -0.2132  0.3149 -0.0550
  158SAPE   H6X17616   5.094   4.107   5.654  0.3595 -0.5988  1.4323
  158SAPE   H6Y17617   4.937   4.060   5.587  0.6197  2.7026  0.2197
  158SAPE   C3717618   5.097   3.955   5.498 -0.4455 -0.4723  0.8632
  158SAPE   H7X17619   5.037   3.867   5.467 -2.3632  0.8089  0.7371
  158SAPE   H7Y17620   5.202   3.925   5.519  0.8333  1.3249 -2.1338
  158SAPE   C3817621   5.114   4.056   5.378  0.0441  0.1541  0.4057
  158SAPE   H8X17622   5.186   4.132   5.414  0.3651 -0.4167  0.9964
  158SAPE   H8Y17623   5.021   4.109   5.347 -0.4796 -0.9409  0.0013
  158SAPE   C3917624   5.174   3.992   5.243  0.0149  0.3958 -0.7491
  158SAPE   H9X17625   5.105   3.915   5.203  2.7127 -1.8709 -1.4151
  158SAPE   H9Y17626   5.276   3.950   5.255  0.4778  1.1488 -1.8580
  158SAPE  C31017627   5.172   4.094   5.131 -0.4778  0.3951  0.0995
  158SAPE  H10X17628   5.245   4.175   5.151  0.6802 -0.6247  0.1213
  158SAPE  H10Y17629   5.077   4.149   5.116  0.0628  1.5510  0.7760
  158SAPE  C31117630   5.205   4.024   4.999 -0.5039 -0.3713  0.5530
  158SAPE  H11X17631   5.146   3.935   4.968 -1.0841 -0.1791  1.1009
  158SAPE  H11Y17632   5.304   3.973   5.001 -1.5018 -2.3888  1.7674
  158SAPE  C31217633   5.197   4.139   4.893 -0.1437  0.1544  0.3130
  158SAPE  H12X17634   5.249   4.235   4.915  2.3983 -1.0243 -0.2240
  158SAPE  H12Y17635   5.091   4.171   4.883 -0.7930 -2.5657 -3.5132
  158SAPE  C31317636   5.241   4.102   4.754 -0.7511 -0.1295  0.2502
  158SAPE  H13X17637   5.177   4.151   4.678  0.8967  0.1607 -1.0018
  158SAPE  H13Y17638   5.225   3.992   4.749  1.3236 -0.4900  0.7074
  158SAPE  C31417639   5.383   4.153   4.715 -0.1705 -0.1620 -0.1072
  158SAPE  H14X17640   5.423   4.098   4.628  0.3436 -1.1043  0.6962
  158SAPE  H14Y17641   5.452   4.137   4.801  1.2880 -1.4271 -1.4334
  158SAPE  C31517642   5.401   4.297   4.656 -0.2770  0.0263 -0.4714
  158SAPE  H15X17643   5.334   4.364   4.714  0.7685 -0.5424  1.4947
  158SAPE  H15Y17644   5.380   4.291   4.547  2.1878 -1.9384 -0.9417
  158SAPE  C31617645   5.539   4.355   4.662 -0.0010  0.1136 -0.6055
  158SAPE  H16X17646   5.588   4.332   4.759 -0.0301 -1.2776 -0.8981
  158SAPE  H16Y17647   5.541   4.466   4.651 -0.0032  0.0110 -1.8057
  158SAPE  C31717648   5.639   4.317   4.549 -0.4745 -0.6964 -0.2494
  158SAPE  H17X17649   5.654   4.207   4.545 -0.5490 -0.6798 -1.2125
  158SAPE  H17Y17650   5.741   4.354   4.574 -1.0963  0.4072  0.8338
  158SAPE  C31817651   5.604   4.373   4.408 -0.3906 -0.0557 -0.1749
  158SAPE  H18X17652   5.519   4.319   4.362 -1.1911  2.3401 -1.7328
  158SAPE  H18Y17653   5.693   4.356   4.344  0.6168 -0.9263  1.3758
  158SAPE  H18Z17654   5.576   4.481   4.412  2.9218  0.9165 -0.2736
  159SAPE     N17655   0.311   3.041   2.336 -0.0627  0.0612 -0.5443
  159SAPE   HN117656   0.328   2.965   2.404  0.6424 -0.7017 -1.5317
  159SAPE   HN217657   0.306   3.005   2.238 -0.3940  0.0302 -0.5160
  159SAPE   HN317658   0.400   3.092   2.356  0.8140 -2.0838  1.3906
  159SAPE   C1217659   0.189   3.126   2.383  0.3539  0.3735  0.3830
  159SAPE  H12A17660   0.110   3.053   2.410 -1.2022  1.7465 -0.2985
  159SAPE  H12B17661   0.155   3.183   2.294 -0.9378  0.7786  1.1199
  159SAPE   C1117662   0.212   3.221   2.504 -0.1926  0.5255 -0.6657
  159SAPE  H11A17663   0.284   3.305   2.492 -0.2351  0.8803  1.1914
  159SAPE  H11B17664   0.249   3.154   2.585 -1.1145 -0.0607 -0.7119
  159SAPE     P17665   0.017   3.404   2.532 -0.0728  0.0023  0.0742
  159SAPE   O1317666   0.099   3.476   2.429  0.3135 -0.1669  0.0923
  159SAPE   O1417667  -0.120   3.386   2.501 -0.1067 -0.0878  0.5569
  159SAPE   O1217668   0.085   3.259   2.547  0.6433 -0.4128 -0.1967
  159SAPE   O1117669   0.038   3.468   2.675  0.4690  0.0682 -0.4040
  159SAPE    C117670  -0.015   3.408   2.796 -1.0763 -0.3004  0.4628
  159SAPE    HA17671  -0.061   3.307   2.785 -1.6106 -0.0908  0.7375
  159SAPE    HB17672   0.070   3.380   2.861 -0.7891  1.7313  1.0249
  159SAPE    C217673  -0.110   3.510   2.867 -0.5070 -0.7212 -0.7524
  159SAPE    HS17674  -0.074   3.614   2.855  1.9835 -1.4640 -0.1645
  159SAPE   O2117675  -0.122   3.467   3.007  0.0658 -0.0816 -0.1273
  159SAPE   C2117676  -0.113   3.552   3.100  0.9923  1.0058  0.0067
  159SAPE   O2217677  -0.096   3.672   3.084  0.3551 -0.0383  0.0046
  159SAPE   C2217678  -0.103   3.477   3.230  0.7119  0.0104 -0.6887
  159SAPE   H2R17679  -0.204   3.437   3.251  0.0340  0.7640 -2.3134
  159SAPE   H2S17680  -0.043   3.385   3.213 -0.7243 -1.3481  1.2188
  159SAPE    C317681  -0.250   3.492   2.799  0.2854  0.2061 -0.0420
  159SAPE    HX17682  -0.271   3.384   2.816 -0.2343  0.2214 -0.5448
  159SAPE    HY17683  -0.249   3.509   2.689  3.0562 -1.9499 -0.4571
  159SAPE   O3117684  -0.347   3.569   2.879 -0.0533 -0.2435 -0.0970
  159SAPE   C3117685  -0.470   3.599   2.835  0.7343 -0.3587  0.2911
  159SAPE   O3217686  -0.518   3.541   2.741  0.4173 -0.8236  0.5965
  159SAPE   C3217687  -0.536   3.674   2.955  0.5334  0.3166 -0.0373
  159SAPE   H2X17688  -0.493   3.777   2.952  3.5451 -0.8806 -1.0709
  159SAPE   H2Y17689  -0.498   3.621   3.044  0.1252 -0.3194 -0.2373
  159SAPE   C2317690  -0.036   3.561   3.336 -0.2089 -0.0293 -0.6834
  159SAPE   H3R17691  -0.079   3.663   3.346  0.2610  0.1153 -0.0754
  159SAPE   H3S17692   0.068   3.564   3.297 -0.3462 -0.4515 -1.0866
  159SAPE   C2417693  -0.025   3.501   3.477  0.0408 -0.4987 -0.4820
  159SAPE   H4R17694  -0.129   3.470   3.500 -0.5896  1.8733  0.2013
  159SAPE   H4S17695  -0.010   3.581   3.553  0.1343  0.2455 -1.2590
  159SAPE   C2517696   0.077   3.392   3.486  0.3879  0.0260  0.3105
  159SAPE   H5R17697   0.068   3.312   3.411  0.6623  0.9092 -0.6841
  159SAPE   C2617698   0.185   3.393   3.564  0.0357  0.1745  0.7337
  159SAPE   H6R17699   0.254   3.307   3.563  2.3904  1.9440  0.8207
  159SAPE   C2717700   0.230   3.503   3.651 -0.6823  0.6863  0.1090
  159SAPE   H7R17701   0.238   3.459   3.752  0.9472  1.2718  0.2524
  159SAPE   H7S17702   0.157   3.586   3.658 -0.7036  0.7339 -0.5599
  159SAPE   C2817703   0.356   3.566   3.595 -0.4613 -0.4860 -0.6540
  159SAPE   H8R17704   0.354   3.612   3.495  3.1207 -0.4966 -0.8492
  159SAPE   C2917705   0.475   3.568   3.655 -0.2125  0.1314  1.0574
  159SAPE   H9R17706   0.558   3.611   3.597 -0.0398 -1.1846  0.2967
  159SAPE  C21017707   0.514   3.514   3.792 -0.1766 -0.1911  0.2256
  159SAPE  H10R17708   0.430   3.471   3.850 -1.1678  1.0708 -0.2065
  159SAPE  H10S17709   0.543   3.602   3.853  0.2957  0.9329 -1.5411
  159SAPE  C21117710   0.621   3.414   3.778 -0.1317  0.6642 -0.7715
  159SAPE  H11R17711   0.608   3.351   3.689  0.0907 -0.8448  0.2357
  159SAPE  C21217712   0.723   3.400   3.863 -0.1114 -0.5292  0.4835
  159SAPE  H12R17713   0.793   3.317   3.850  1.0585  0.5346 -0.2325
  159SAPE  C21317714   0.760   3.490   3.981 -0.0468  0.6211 -0.0875
  159SAPE  H13R17715   0.732   3.593   3.951 -2.6606  0.2932  0.9616
  159SAPE  H13S17716   0.871   3.481   3.989  0.0340  0.3654 -1.2856
  159SAPE  C21417717   0.675   3.468   4.098  0.7408 -0.1776 -0.1713
  159SAPE  H14R17718   0.572   3.459   4.062  0.5282  0.9366  0.1259
  159SAPE  C21517719   0.715   3.449   4.227  0.1221 -0.2226 -0.0841
  159SAPE  H15R17720   0.634   3.432   4.299 -0.6458 -4.0218 -1.5852
  159SAPE  C21617721   0.858   3.443   4.282 -0.3851  0.5349 -0.1976
  159SAPE  H16R17722   0.887   3.541   4.325  1.3099  1.6273 -3.4185
  159SAPE  H16S17723   0.921   3.438   4.190  0.3108 -2.1091  0.3291
  159SAPE  C21717724   0.897   3.329   4.376  0.3180 -0.4941 -0.2025
  159SAPE  H17R17725   0.881   3.242   4.310 -2.7451 -1.9540  2.2017
  159SAPE  H17S17726   0.825   3.338   4.460  0.0292  1.2516 -0.5861
  159SAPE  C21817727   1.033   3.345   4.443 -0.0514 -0.5479  0.1268
  159SAPE  H18R17728   1.035   3.441   4.499  1.4190  0.5150 -1.6454
  159SAPE  H18S17729   1.113   3.348   4.367 -0.5852  0.2845 -0.4084
  159SAPE  C21917730   1.064   3.228   4.533 -0.1003 -0.4337 -0.2654
  159SAPE  H19R17731   1.056   3.129   4.484  0.0961 -0.8706  0.5721
  159SAPE  H19S17732   0.993   3.223   4.619 -0.0815 -2.6738 -0.3292
  159SAPE  C22017733   1.205   3.239   4.596 -0.2843 -0.7330 -0.2130
  159SAPE  H20R17734   1.269   3.257   4.507 -2.6239  0.6969 -1.7390
  159SAPE  H20S17735   1.229   3.149   4.656  0.3689 -0.4539 -0.0488
  159SAPE  H20T17736   1.225   3.329   4.657  1.7908 -1.1933 -0.1359
  159SAPE   C3317737  -0.693   3.671   2.943 -1.0594  0.5847 -0.4752
  159SAPE   H3X17738  -0.721   3.564   2.929 -2.5571  0.9640 -0.5537
  159SAPE   H3Y17739  -0.713   3.734   2.854 -0.2882  1.2405 -0.1998
  159SAPE   C3417740  -0.767   3.724   3.068  0.5532 -0.2581 -0.4147
  159SAPE   H4X17741  -0.726   3.824   3.090  1.4597 -0.4869 -1.0340
  159SAPE   H4Y17742  -0.761   3.664   3.162  1.2244  2.4817  1.4222
  159SAPE   C3517743  -0.927   3.750   3.043  0.0978  0.4269  0.5792
  159SAPE   H5X17744  -0.951   3.812   2.954 -1.3454  0.5719  1.0361
  159SAPE   H5Y17745  -0.971   3.798   3.133  1.3653 -0.4698  1.7123
  159SAPE   C3617746  -1.004   3.621   3.032 -0.0918 -0.3783  0.2252
  159SAPE   H6X17747  -0.995   3.589   2.926 -1.3219  1.4986 -0.4924
  159SAPE   H6Y17748  -1.112   3.642   3.044 -0.0718  0.1400 -0.4208
  159SAPE   C3717749  -0.978   3.496   3.110  0.9726  0.1195  0.4003
  159SAPE   H7X17750  -0.876   3.452   3.107  0.4689 -1.0849 -2.4180
  159SAPE   H7Y17751  -1.055   3.421   3.084 -1.9608  3.0720 -0.0712
  159SAPE   C3817752  -1.008   3.527   3.260 -0.8520 -0.5537  0.3241
  159SAPE   H8X17753  -1.104   3.583   3.264  0.2265  1.3244  1.5793
  159SAPE   H8Y17754  -0.935   3.602   3.297 -0.3384 -0.6667 -0.4366
  159SAPE   C3917755  -1.024   3.397   3.341 -0.3161  0.0322 -0.2773
  159SAPE   H9X17756  -0.927   3.343   3.344 -0.5741 -0.3977  0.4637
  159SAPE   H9Y17757  -1.102   3.334   3.293 -0.2758  0.1073 -0.4428
  159SAPE  C31017758  -1.071   3.430   3.486  0.2094  0.3767  0.0935
  159SAPE  H10X17759  -1.097   3.340   3.545 -2.1829  0.8328 -0.1557
  159SAPE  H10Y17760  -1.167   3.486   3.484  0.0706  0.2282  1.6062
  159SAPE  C31117761  -0.965   3.504   3.561  0.0417 -0.2801 -0.0825
  159SAPE  H11X17762  -0.953   3.604   3.514  0.5057  0.1563  0.9201
  159SAPE  H11Y17763  -0.862   3.463   3.554  0.3470  0.2575  0.9214
  159SAPE  C31217764  -0.994   3.520   3.713  0.5847 -0.0337 -0.0980
  159SAPE  H12X17765  -0.905   3.555   3.768 -0.1575 -0.5351  1.4732
  159SAPE  H12Y17766  -1.013   3.418   3.753  0.2419  0.5013  1.1310
  159SAPE  C31317767  -1.095   3.632   3.736 -0.1575 -0.0817  0.1347
  159SAPE  H13X17768  -1.198   3.616   3.698  0.1382  2.0508 -1.7486
  159SAPE  H13Y17769  -1.058   3.708   3.664  2.4247 -2.9800 -1.8804
  159SAPE  C31417770  -1.110   3.697   3.874 -0.3735  0.2737  0.2165
  159SAPE  H14X17771  -1.167   3.792   3.877  1.5316  1.4547  2.7780
  159SAPE  H14Y17772  -1.009   3.725   3.909  0.4020 -1.1834 -0.7097
  159SAPE  C31517773  -1.175   3.598   3.976 -0.5834 -0.7344 -0.2902
  159SAPE  H15X17774  -1.115   3.505   3.964  0.2026 -0.4263  1.0673
  159SAPE  H15Y17775  -1.284   3.581   3.966 -1.4143  2.6760  1.4712
  159SAPE  C31617776  -1.152   3.651   4.123  0.0027 -0.1278  0.5954
  159SAPE  H16X17777  -1.244   3.706   4.152  0.8453  2.1083 -0.7240
  159SAPE  H16Y17778  -1.062   3.716   4.118 -0.8896  1.0707 -1.1829
  159SAPE  C31717779  -1.125   3.545   4.229  0.6914 -0.1148  0.6374
  159SAPE  H17X17780  -1.100   3.600   4.322  0.1542  2.1614 -0.4818
  159SAPE  H17Y17781  -1.051   3.472   4.191  1.6264  0.5243  1.1988
  159SAPE  C31817782  -1.242   3.455   4.262 -0.3644 -0.3037  0.2406
  159SAPE  H18X17783  -1.272   3.390   4.178 -2.2988  1.7473 -0.7865
  159SAPE  H18Y17784  -1.333   3.515   4.287 -0.3549  0.3564 -1.2353
  159SAPE  H18Z17785  -1.215   3.394   4.351  0.5264  0.6609  0.6531
  160SAPE     N17786   0.432   6.569   2.137  0.1695  0.0759 -0.0909
  160SAPE   HN117787   0.347   6.564   2.196  0.5910  0.1185  0.5412
  160SAPE   HN217788   0.466   6.473   2.117 -0.6637 -0.5560  1.3439
  160SAPE   HN317789   0.507   6.624   2.184  1.5659 -0.5556 -1.4859
  160SAPE   C1217790   0.388   6.639   2.014 -0.4874 -0.4929 -0.1498
  160SAPE  H12A17791   0.394   6.562   1.934 -1.6277 -1.2205  0.4314
  160SAPE  H12B17792   0.464   6.718   1.999  1.5436 -2.3090 -0.0822
  160SAPE   C1117793   0.248   6.695   2.025  0.5864 -0.6455  0.3666
  160SAPE  H11A17794   0.220   6.719   1.921  2.7764 -0.0203 -0.1279
  160SAPE  H11B17795   0.253   6.789   2.084 -0.4598  0.6227 -1.4836
  160SAPE     P17796   0.018   6.657   2.141 -0.0163 -0.0965 -0.1375
  160SAPE   O1317797  -0.049   6.752   2.049 -0.1216 -0.1650 -0.1675
  160SAPE   O1417798  -0.060   6.543   2.198  0.0074  0.2539 -0.2670
  160SAPE   O1217799   0.154   6.605   2.081  0.6352  0.5492  0.2360
  160SAPE   O1117800   0.074   6.740   2.255  0.3832 -0.9497 -0.6475
  160SAPE    C117801   0.125   6.686   2.380 -0.0204 -0.8353  0.6886
  160SAPE    HA17802   0.084   6.585   2.405  1.2242 -2.0461 -1.8352
  160SAPE    HB17803   0.236   6.681   2.374  0.0065  0.3578 -0.0069
  160SAPE    C217804   0.079   6.778   2.505  0.0065  0.0086  0.2794
  160SAPE    HS17805   0.146   6.864   2.522  0.3402 -0.5988  2.2824
  160SAPE   O2117806   0.066   6.702   2.625  0.3017 -0.4544 -0.0374
  160SAPE   C2117807   0.179   6.648   2.660  0.1037  0.0757 -0.2638
  160SAPE   O2217808   0.289   6.660   2.608  0.3259  0.3135 -0.2114
  160SAPE   C2217809   0.140   6.583   2.799  0.0979 -0.9488 -0.1607
  160SAPE   H2R17810   0.071   6.650   2.855  0.1516  0.5240 -1.7738
  160SAPE   H2S17811   0.100   6.482   2.775  2.6818 -2.0885 -0.0524
  160SAPE    C317812  -0.062   6.846   2.480 -0.0863 -0.5875  0.6776
  160SAPE    HX17813  -0.123   6.769   2.428  1.5898 -0.4567 -1.6430
  160SAPE    HY17814  -0.058   6.927   2.404  0.6591  1.4055  2.7067
  160SAPE   O3117815  -0.115   6.899   2.602  0.0031 -0.6607 -0.5168
  160SAPE   C3117816  -0.247   6.894   2.615 -0.0456 -0.3916 -0.0633
  160SAPE   O3217817  -0.332   6.849   2.542 -0.0323 -0.4054  0.4674
  160SAPE   C3217818  -0.272   6.930   2.765 -0.6923 -0.0457  0.4743
  160SAPE   H2X17819  -0.250   7.039   2.774  3.4894 -0.4311 -2.4769
  160SAPE   H2Y17820  -0.201   6.874   2.828 -0.9869  1.3922  2.1761
  160SAPE   C2317821   0.266   6.568   2.888  0.3426 -0.5371  0.6857
  160SAPE   H3R17822   0.294   6.659   2.945  2.0084 -1.9793  2.2836
  160SAPE   H3S17823   0.346   6.525   2.824  0.5976 -1.7682  1.7963
  160SAPE   C2417824   0.260   6.454   2.991  0.6480  0.7072  0.1543
  160SAPE   H4R17825   0.266   6.360   2.934  0.4046  0.6235  0.2631
  160SAPE   H4S17826   0.160   6.453   3.039  0.8953 -0.3616  0.6803
  160SAPE   C2517827   0.375   6.471   3.093 -0.0181 -0.7533 -0.4704
  160SAPE   H5R17828   0.475   6.437   3.063 -0.1371 -0.0714 -1.7169
  160SAPE   C2617829   0.368   6.534   3.219 -0.6177 -0.3650  0.2579
  160SAPE   H6R17830   0.467   6.551   3.265  0.6432  1.7237 -2.9062
  160SAPE   C2717831   0.247   6.591   3.283  0.8377 -0.0982  0.2701
  160SAPE   H7R17832   0.198   6.503   3.331  0.5488  0.4188  0.9262
  160SAPE   H7S17833   0.179   6.622   3.201  0.6772 -2.9661 -0.8158
  160SAPE   C2817834   0.289   6.696   3.380  0.0586 -0.5210 -0.4998
  160SAPE   H8R17835   0.338   6.788   3.344  0.1028 -1.4784 -3.0879
  160SAPE   C2917836   0.253   6.713   3.510 -0.1560 -0.3753 -0.3555
  160SAPE   H9R17837   0.308   6.792   3.562  0.8210  1.9236 -4.4514
  160SAPE  C21017838   0.172   6.607   3.581 -0.6902 -0.4883  0.2072
  160SAPE  H10R17839   0.176   6.508   3.531  1.2317 -0.6713  0.6647
  160SAPE  H10S17840   0.067   6.644   3.586 -0.5020 -0.0390  1.2794
  160SAPE  C21117841   0.223   6.574   3.723 -0.3540 -0.0854  0.2129
  160SAPE  H11R17842   0.326   6.537   3.731  0.1818  1.0523 -1.0209
  160SAPE  C21217843   0.147   6.566   3.837  0.0594  0.1570  1.2478
  160SAPE  H12R17844   0.202   6.560   3.932 -1.4831  0.7983  2.2229
  160SAPE  C21317845   0.001   6.603   3.856 -0.3772 -0.1534  0.5056
  160SAPE  H13R17846  -0.040   6.543   3.940 -1.2063  1.2508  1.1493
  160SAPE  H13S17847  -0.072   6.565   3.781  0.0132 -0.1292  0.1120
  160SAPE  C21417848  -0.029   6.747   3.885  0.5807  0.0267 -0.2731
  160SAPE  H14R17849   0.004   6.815   3.805 -1.0737 -0.6210 -1.5765
  160SAPE  C21517850  -0.094   6.801   3.993 -0.8773  0.2387 -0.2429
  160SAPE  H15R17851  -0.095   6.911   3.995  5.1606  0.8104 -4.2438
  160SAPE  C21617852  -0.152   6.722   4.110  0.3198 -0.3160  0.2450
  160SAPE  H16R17853  -0.132   6.613   4.102  3.2803  0.2542 -1.6024
  160SAPE  H16S17854  -0.262   6.730   4.097  0.6543  1.2303 -2.5139
  160SAPE  C21717855  -0.104   6.778   4.245  0.8421  0.2368 -0.0092
  160SAPE  H17R17856   0.004   6.794   4.266  1.0376 -2.8946  2.2389
  160SAPE  H17S17857  -0.147   6.697   4.308 -2.3816  0.0885 -2.1732
  160SAPE  C21817858  -0.188   6.896   4.289 -0.1360  0.2061 -0.4404
  160SAPE  H18R17859  -0.293   6.859   4.300 -0.1067  0.1258 -0.4284
  160SAPE  H18S17860  -0.174   6.974   4.211  1.7387  0.6734  0.3122
  160SAPE  C21917861  -0.161   6.947   4.435  0.5040 -0.3110 -0.2141
  160SAPE  H19R17862  -0.221   7.039   4.450  2.1519  0.5462  1.3399
  160SAPE  H19S17863  -0.055   6.972   4.455  0.3889 -1.0726  1.5688
  160SAPE  C22017864  -0.210   6.850   4.539 -0.6033  0.9961 -0.5914
  160SAPE  H20R17865  -0.205   6.891   4.642 -1.0274  0.8025 -0.4929
  160SAPE  H20S17866  -0.144   6.760   4.533  0.0016  1.3132  0.8233
  160SAPE  H20T17867  -0.315   6.826   4.514 -0.5539  1.4749 -1.2983
  160SAPE   C3317868  -0.423   6.899   2.806 -0.3200  0.3527  0.9107
  160SAPE   H3X17869  -0.445   6.794   2.780  0.6633  0.1663  0.8245
  160SAPE   H3Y17870  -0.492   6.957   2.741 -0.9245 -1.7351 -0.4037
  160SAPE   C3417871  -0.465   6.940   2.946  0.1263 -0.7827  0.2040
  160SAPE   H4X17872  -0.569   6.902   2.957  0.2588 -1.0763  0.4475
  160SAPE   H4Y17873  -0.466   7.050   2.952  0.8075 -0.7614  0.0731
  160SAPE   C3517874  -0.379   6.887   3.052  0.0638 -0.6438  0.5161
  160SAPE   H5X17875  -0.289   6.952   3.057 -0.1818  0.0217 -2.1142
  160SAPE   H5Y17876  -0.337   6.786   3.037  1.4907  0.2733 -2.2307
  160SAPE   C3617877  -0.449   6.880   3.190 -0.0344 -0.4096 -0.1514
  160SAPE   H6X17878  -0.382   6.874   3.278 -1.6632  0.4441  1.2201
  160SAPE   H6Y17879  -0.526   6.802   3.205 -1.5519  1.6321  4.2714
  160SAPE   C3717880  -0.522   7.009   3.225 -0.6906 -0.8883 -0.0619
  160SAPE   H7X17881  -0.625   7.012   3.185 -1.1057  0.4911  1.0387
  160SAPE   H7Y17882  -0.470   7.085   3.163  2.0791 -0.0172  3.0245
  160SAPE   C3817883  -0.527   7.051   3.379 -0.1366 -0.5611  0.2132
  160SAPE   H8X17884  -0.428   7.049   3.429 -0.4559 -2.1642  0.8264
  160SAPE   H8Y17885  -0.596   6.986   3.435 -1.4705  0.2999 -0.3810
  160SAPE   C3917886  -0.601   7.187   3.404 -0.1363 -0.2076 -0.6391
  160SAPE   H9X17887  -0.678   7.200   3.325  1.0555  0.4154 -1.7332
  160SAPE   H9Y17888  -0.530   7.273   3.397 -1.1341  0.6884 -0.0025
  160SAPE  C31017889  -0.654   7.176   3.549 -0.1971 -0.7031  0.2679
  160SAPE  H10X17890  -0.570   7.168   3.621 -0.2983 -0.2833  0.4392
  160SAPE  H10Y17891  -0.734   7.100   3.559 -2.5590  1.7815  2.0886
  160SAPE  C31117892  -0.720   7.306   3.602 -0.4533  0.3588  0.2154
  160SAPE  H11X17893  -0.791   7.346   3.526 -2.9632 -0.0508  2.2408
  160SAPE  H11Y17894  -0.638   7.377   3.625  0.6148 -1.7878  3.7983
  160SAPE  C31217895  -0.792   7.284   3.742  0.0592 -0.5025  0.1496
  160SAPE  H12X17896  -0.718   7.227   3.802 -0.8926 -0.3843  1.4784
  160SAPE  H12Y17897  -0.873   7.211   3.717  0.0382 -0.3364 -0.2702
  160SAPE  C31317898  -0.850   7.407   3.817 -0.0498 -0.0705  0.6227
  160SAPE  H13X17899  -0.924   7.451   3.746  1.1596  1.7791  0.4276
  160SAPE  H13Y17900  -0.766   7.480   3.824  1.4708 -1.5519 -0.9570
  160SAPE  C31417901  -0.929   7.376   3.943  0.1271  0.0279  0.5398
  160SAPE  H14X17902  -0.985   7.467   3.973 -1.1816 -0.6356  0.1662
  160SAPE  H14Y17903  -0.871   7.341   4.031  0.1078 -1.1146  0.1051
  160SAPE  C31517904  -1.027   7.250   3.935  0.3787 -0.1527  0.3714
  160SAPE  H15X17905  -0.972   7.155   3.919  2.1393  0.7675  0.6659
  160SAPE  H15Y17906  -1.096   7.276   3.853  1.4388  0.3254 -0.3881
  160SAPE  C31617907  -1.115   7.234   4.058  0.0098 -0.3161 -0.1640
  160SAPE  H16X17908  -1.173   7.328   4.076 -0.2416 -0.4223 -0.4086
  160SAPE  H16Y17909  -1.047   7.206   4.141 -0.8611 -2.4719 -0.1214
  160SAPE  C31717910  -1.219   7.123   4.053 -0.2124 -0.4346 -0.0760
  160SAPE  H17X17911  -1.173   7.025   4.029 -0.8607 -0.7553 -0.0282
  160SAPE  H17Y17912  -1.281   7.144   3.963 -1.6565 -0.1795  0.9367
  160SAPE  C31817913  -1.301   7.119   4.179 -1.0686 -0.6532 -0.0781
  160SAPE  H18X17914  -1.374   7.035   4.173 -0.7416 -1.0590  1.2604
  160SAPE  H18Y17915  -1.358   7.214   4.183 -2.2008 -1.3096 -0.2827
  160SAPE  H18Z17916  -1.244   7.098   4.273  0.1959  1.1136 -0.3907
  161SAPE     N17917   5.272   5.047   1.845 -0.2157  0.3012 -0.0746
  161SAPE   HN117918   5.259   4.944   1.845 -1.0377  0.3808  1.0412
  161SAPE   HN217919   5.205   5.086   1.915 -0.7086 -0.9968  0.2096
  161SAPE   HN317920   5.254   5.080   1.749 -0.8070 -2.5729 -1.0691
  161SAPE   C1217921   5.398   5.086   1.905 -0.6957  0.3675  0.0324
  161SAPE  H12A17922   5.404   5.197   1.906 -0.8297  0.4271  2.8322
  161SAPE  H12B17923   5.486   5.062   1.843  0.1272  0.0281  1.2893
  161SAPE   C1117924   5.408   5.026   2.038  0.3077 -0.1567 -0.1061
  161SAPE  H11A17925   5.514   5.031   2.072  0.0065 -0.4797  0.9062
  161SAPE  H11B17926   5.393   4.917   2.030 -0.4861  0.0242 -1.1845
  161SAPE     P17927   5.289   5.033   2.271  0.0414 -0.2233 -0.0611
  161SAPE   O1317928   5.378   4.928   2.297  0.0794 -0.0617  0.5119
  161SAPE   O1417929   5.281   5.151   2.365  0.2326 -0.3468 -0.3309
  161SAPE   O1217930   5.319   5.092   2.133  0.0568  0.2987 -0.2739
  161SAPE   O1117931   5.141   4.975   2.251  0.1912 -0.4652  0.7738
  161SAPE    C117932   5.050   4.969   2.362  0.5492 -0.2780 -0.1183
  161SAPE    HA17933   5.063   5.047   2.439 -1.4002  0.3427 -0.3503
  161SAPE    HB17934   4.939   4.970   2.349  0.4085  2.1519  0.7755
  161SAPE    C217935   5.075   4.832   2.434  0.8463  0.1077  0.6864
  161SAPE    HS17936   4.987   4.819   2.500 -0.8821  2.2601 -1.0186
  161SAPE   O2117937   5.212   4.837   2.494  0.0869 -0.0630 -0.0794
  161SAPE   C2117938   5.207   4.903   2.609 -0.8571  0.3982  1.0349
  161SAPE   O2217939   5.105   4.930   2.669 -0.2038 -0.2386  0.1118
  161SAPE   C2217940   5.351   4.927   2.648  0.5482  0.0612 -0.6434
  161SAPE   H2R17941   5.421   4.855   2.600  1.7670 -1.1302  2.5800
  161SAPE   H2S17942   5.377   5.029   2.614  0.9133 -0.3539 -1.6547
  161SAPE    C317943   5.068   4.711   2.338 -0.1297  0.4862  0.2340
  161SAPE    HX17944   5.162   4.694   2.282 -1.2012  1.5569 -2.0610
  161SAPE    HY17945   4.996   4.732   2.255  0.5154 -0.3561 -0.5556
  161SAPE   O3117946   5.028   4.605   2.422 -0.3631  0.8026 -0.6112
  161SAPE   C3117947   5.122   4.537   2.483  0.1339 -0.2997  0.5305
  161SAPE   O3217948   5.242   4.543   2.473  0.3701  0.6732 -0.1806
  161SAPE   C3217949   5.038   4.440   2.573 -0.6178  0.9547 -0.1072
  161SAPE   H2X17950   5.027   4.348   2.512  1.4239  0.3767  0.3110
  161SAPE   H2Y17951   4.936   4.483   2.586 -1.4392 -0.6405 -1.0252
  161SAPE   C2317952   5.360   4.915   2.802  0.1406  0.3982 -0.0216
  161SAPE   H3R17953   5.278   4.968   2.855  0.2032  0.2891  0.1832
  161SAPE   H3S17954   5.454   4.961   2.839  0.3022 -0.5525  0.7750
  161SAPE   C2417955   5.356   4.775   2.865 -0.4984  0.7309  0.5596
  161SAPE   H4R17956   5.413   4.717   2.789 -0.8198 -0.5430  1.2755
  161SAPE   H4S17957   5.253   4.736   2.849  0.8623 -2.9972 -0.1886
  161SAPE   C2517958   5.413   4.762   3.006  0.4887 -0.3442  0.1557
  161SAPE   H5R17959   5.487   4.682   3.018 -1.0849 -1.8095  0.4597
  161SAPE   C2617960   5.367   4.822   3.121 -0.2131 -0.2703 -0.2891
  161SAPE   H6R17961   5.407   4.782   3.215  0.0595 -0.3306 -0.4307
  161SAPE   C2717962   5.260   4.922   3.144 -0.6011 -0.5113 -0.2872
  161SAPE   H7R17963   5.199   4.882   3.228 -0.2904  0.0534  0.2149
  161SAPE   H7S17964   5.192   4.956   3.062  0.1132  4.1001  0.7139
  161SAPE   C2817965   5.332   5.047   3.190  0.6953 -0.2362 -0.3728
  161SAPE   H8R17966   5.433   5.061   3.147  0.3401  0.4373 -1.0059
  161SAPE   C2917967   5.284   5.142   3.279 -0.3422 -0.3078  0.1671
  161SAPE   H9R17968   5.356   5.222   3.302  0.6525 -1.4131  1.0194
  161SAPE  C21017969   5.145   5.153   3.351 -0.2910 -0.3317 -0.6424
  161SAPE  H10R17970   5.063   5.107   3.292 -0.7210  0.2506 -0.5123
  161SAPE  H10S17971   5.120   5.261   3.364  0.1162 -0.4281  1.1678
  161SAPE  C21117972   5.147   5.080   3.481 -0.0348 -0.2331  0.8546
  161SAPE  H11R17973   5.135   4.973   3.457  1.4517  0.1627 -2.2220
  161SAPE  C21217974   5.203   5.112   3.594  0.0505  0.1980  0.5605
  161SAPE  H12R17975   5.186   5.036   3.671  0.7226 -0.9908 -0.4372
  161SAPE  C21317976   5.254   5.247   3.631 -0.3642  0.2070 -0.2717
  161SAPE  H13R17977   5.179   5.292   3.698 -1.7292 -0.8340 -1.0527
  161SAPE  H13S17978   5.267   5.310   3.540  1.6459  0.3230  0.0436
  161SAPE  C21417979   5.376   5.225   3.718  0.0425 -0.4817 -0.0918
  161SAPE  H14R17980   5.476   5.222   3.673  0.0860 -1.5513  0.0564
  161SAPE  C21517981   5.374   5.233   3.850  0.4177 -0.5134 -0.4728
  161SAPE  H15R17982   5.466   5.226   3.910 -0.0233 -3.1285  0.0096
  161SAPE  C21617983   5.249   5.253   3.931 -0.0957  1.0865 -0.7010
  161SAPE  H16R17984   5.251   5.177   4.012  1.9832 -1.8747 -3.2722
  161SAPE  H16S17985   5.152   5.231   3.882  0.0510 -0.5383 -0.3301
  161SAPE  C21717986   5.261   5.392   4.001  0.5107 -0.0691  0.3868
  161SAPE  H17R17987   5.158   5.432   4.008 -0.5813 -2.4493 -0.7593
  161SAPE  H17S17988   5.317   5.461   3.934  0.4802 -1.0462 -0.6837
  161SAPE  C21817989   5.325   5.375   4.140  0.7220  0.4341  0.1493
  161SAPE  H18R17990   5.432   5.402   4.130 -0.0190  2.9443 -2.3593
  161SAPE  H18S17991   5.323   5.271   4.179  0.3086  0.0338 -0.8965
  161SAPE  C21917992   5.263   5.475   4.241  1.0647 -0.1196  0.9648
  161SAPE  H19R17993   5.152   5.474   4.248  0.9580 -0.3986 -0.4666
  161SAPE  H19S17994   5.293   5.579   4.219 -0.1573  0.2072  0.7555
  161SAPE  C22017995   5.309   5.434   4.378 -0.1702 -1.0137 -0.1898
  161SAPE  H20R17996   5.410   5.476   4.394 -1.0219  1.2430 -0.3895
  161SAPE  H20S17997   5.319   5.324   4.390  0.1606 -1.0981 -1.0993
  161SAPE  H20T17998   5.253   5.484   4.459  1.2382 -2.2537  1.6203
  161SAPE   C3317999   5.116   4.404   2.701  0.2566 -0.2233  0.4973
  161SAPE   H3X18000   5.224   4.394   2.679 -0.2474 -0.1255 -2.3101
  161SAPE   H3Y18001   5.081   4.301   2.725  0.5297 -0.4092  0.0944
  161SAPE   C3418002   5.075   4.488   2.827 -0.4141 -0.0752 -0.0974
  161SAPE   H4X18003   4.969   4.455   2.838 -0.3645  0.1843  1.2160
  161SAPE   H4Y18004   5.079   4.598   2.815 -0.9202 -0.1225 -0.7735
  161SAPE   C3518005   5.146   4.441   2.955 -0.2380 -0.6310  0.9858
  161SAPE   H5X18006   5.256   4.454   2.942 -0.2329 -1.9715 -0.5545
  161SAPE   H5Y18007   5.130   4.332   2.970 -1.2025 -0.4023  1.7464
  161SAPE   C3618008   5.101   4.528   3.075 -0.0717  0.0123  0.0050
  161SAPE   H6X18009   4.994   4.508   3.098  0.0934 -0.9510 -0.0638
  161SAPE   H6Y18010   5.102   4.636   3.046 -0.0310 -0.2033 -0.8256
  161SAPE   C3718011   5.183   4.502   3.204 -0.5169 -0.1380  0.7278
  161SAPE   H7X18012   5.288   4.537   3.196 -0.7496  0.5258  0.4747
  161SAPE   H7Y18013   5.182   4.391   3.211 -0.3098 -0.1723  0.2512
  161SAPE   C3818014   5.127   4.576   3.321  0.0562 -0.0535 -0.1170
  161SAPE   H8X18015   5.019   4.550   3.328 -0.0593 -0.2528 -2.0388
  161SAPE   H8Y18016   5.150   4.681   3.293  0.2069  0.0849  0.5117
  161SAPE   C3918017   5.194   4.544   3.450  0.4117  0.4718 -0.2758
  161SAPE   H9X18018   5.138   4.598   3.529 -1.9283 -0.1097 -1.4216
  161SAPE   H9Y18019   5.299   4.579   3.452  0.7201 -0.4563  0.3072
  161SAPE  C31018020   5.201   4.396   3.490  0.1099 -0.2453 -0.1881
  161SAPE  H10X18021   5.251   4.347   3.404  1.5148  1.2918 -0.2736
  161SAPE  H10Y18022   5.101   4.348   3.502 -0.1632  0.4300  0.2960
  161SAPE  C31118023   5.282   4.369   3.615  0.0271  0.4361  0.6549
  161SAPE  H11X18024   5.391   4.385   3.603  0.0967 -1.2168 -1.5489
  161SAPE  H11Y18025   5.277   4.260   3.639  0.3897  0.7358  2.1999
  161SAPE  C31218026   5.247   4.440   3.743 -0.1251 -0.8147  0.2812
  161SAPE  H12X18027   5.245   4.548   3.718  0.0055 -1.5220 -3.3048
  161SAPE  H12Y18028   5.331   4.420   3.813  0.0623 -1.2032 -0.0504
  161SAPE  C31318029   5.114   4.397   3.797 -0.0878  0.6003  0.2700
  161SAPE  H13X18030   5.121   4.288   3.821  1.3119  0.4654 -0.6015
  161SAPE  H13Y18031   5.036   4.409   3.719  0.3832  0.3094 -0.2621
  161SAPE  C31418032   5.063   4.450   3.923 -0.5610 -0.4774  0.6159
  161SAPE  H14X18033   5.010   4.545   3.897  1.3830  0.8586  1.3475
  161SAPE  H14Y18034   5.153   4.471   3.984  0.1820  0.8767 -0.8558
  161SAPE  C31518035   4.980   4.350   4.008 -0.0558 -0.6838 -0.3957
  161SAPE  H15X18036   5.036   4.254   4.008  1.2269  0.0279  0.3825
  161SAPE  H15Y18037   4.878   4.327   3.969 -0.2069 -1.4104  0.4125
  161SAPE  C31618038   4.983   4.391   4.149 -0.0944 -0.1258  0.1071
  161SAPE  H16X18039   4.919   4.480   4.165 -0.8564 -0.4736 -0.8610
  161SAPE  H16Y18040   5.085   4.403   4.192 -1.0743  1.3782  2.1869
  161SAPE  C31718041   4.924   4.274   4.239  0.1932  0.0669  0.6452
  161SAPE  H17X18042   4.957   4.174   4.204 -2.0270 -0.1549 -1.0530
  161SAPE  H17Y18043   4.816   4.292   4.226  0.5949  1.2066 -1.6961
  161SAPE  C31818044   4.967   4.294   4.383 -1.0347 -0.2831  0.1423
  161SAPE  H18X18045   4.903   4.228   4.445 -2.2585  0.2572 -0.5112
  161SAPE  H18Y18046   4.957   4.398   4.421 -0.5876  1.1506 -3.2553
  161SAPE  H18Z18047   5.073   4.264   4.400 -1.5726 -1.8750  0.9309
  162SAPE     N18048   4.939   6.064   1.939  0.5588 -0.7642  0.2762
  162SAPE   HN118049   4.975   5.966   1.930  1.5460 -0.2131 -2.7609
  162SAPE   HN218050   5.007   6.134   1.974 -3.0534  2.7370  0.9605
  162SAPE   HN318051   4.851   6.064   1.994  1.0541  0.1502  1.1085
  162SAPE   C1218052   4.886   6.109   1.817 -0.3006 -0.3124 -0.2491
  162SAPE  H12A18053   4.967   6.109   1.741 -1.0209  2.4084 -1.1461
  162SAPE  H12B18054   4.839   6.209   1.821  0.9825  0.2956  0.2915
  162SAPE   C1118055   4.772   6.017   1.768  0.6248 -0.4037 -0.4852
  162SAPE  H11A18056   4.824   5.926   1.733 -1.9216 -1.8714 -0.6794
  162SAPE  H11B18057   4.725   6.078   1.687 -0.8699  2.5142  2.3343
  162SAPE     P18058   4.532   5.945   1.852 -0.2507  0.8538 -0.1685
  162SAPE   O1318059   4.482   5.998   1.719 -0.5038  0.3805 -1.1252
  162SAPE   O1418060   4.549   5.802   1.874  0.3215 -0.3843  0.2575
  162SAPE   O1218061   4.678   6.001   1.878 -0.4938  0.4604  0.7924
  162SAPE   O1118062   4.439   6.006   1.971 -0.2854 -0.3953 -0.6801
  162SAPE    C118063   4.454   6.143   1.994 -0.5348 -0.1475 -0.6062
  162SAPE    HA18064   4.558   6.176   2.014 -0.3957 -0.8434 -0.1513
  162SAPE    HB18065   4.414   6.209   1.914 -0.8606  0.9061  0.4055
  162SAPE    C218066   4.372   6.193   2.123 -0.2582  0.1893  0.5689
  162SAPE    HS18067   4.399   6.301   2.128  2.2605 -0.3845  0.5777
  162SAPE   O2118068   4.409   6.114   2.242 -0.6192 -0.1171 -0.3427
  162SAPE   C2118069   4.507   6.158   2.316  1.1756 -0.2012 -0.3779
  162SAPE   O2218070   4.567   6.264   2.302  0.0432  0.2912  0.1244
  162SAPE   C2218071   4.553   6.046   2.411 -0.1099  0.1855 -0.3076
  162SAPE   H2R18072   4.562   5.958   2.345 -3.3061 -1.0991  0.7597
  162SAPE   H2S18073   4.652   6.076   2.452  0.0512 -2.0515  1.1038
  162SAPE    C318074   4.223   6.186   2.094  0.1834  0.4247 -0.1853
  162SAPE    HX18075   4.197   6.078   2.091 -0.2369  0.5224 -0.1992
  162SAPE    HY18076   4.201   6.219   1.990  1.1283  1.1263 -0.1757
  162SAPE   O3118077   4.136   6.254   2.185 -0.4201  0.2711  1.3176
  162SAPE   C3118078   4.140   6.384   2.172  0.0952  0.0622  0.4907
  162SAPE   O3218079   4.186   6.454   2.084 -0.7318  0.2462  0.3200
  162SAPE   C3218080   4.073   6.435   2.305  0.4967 -0.1120  0.7952
  162SAPE   H2X18081   4.050   6.347   2.369 -0.0038 -0.8625 -0.3910
  162SAPE   H2Y18082   3.980   6.488   2.277  2.2542  1.5591 -2.4181
  162SAPE   C2318083   4.453   6.013   2.529 -0.4619 -0.0584 -0.3594
  162SAPE   H3R18084   4.483   5.915   2.570 -2.8618 -0.7402 -0.0683
  162SAPE   H3S18085   4.349   6.009   2.488 -1.4822  1.8773  1.7888
  162SAPE   C2418086   4.445   6.136   2.627  0.8366  0.4856  0.3347
  162SAPE   H4R18087   4.366   6.118   2.704  0.4097 -1.8250 -0.5479
  162SAPE   H4S18088   4.401   6.218   2.567  0.0482  0.4632  0.8620
  162SAPE   C2518089   4.578   6.187   2.677  0.0082  0.3702  0.1769
  162SAPE   H5R18090   4.641   6.233   2.600  0.2415 -0.0163  0.1325
  162SAPE   C2618091   4.615   6.199   2.807 -0.1048  0.3749 -0.5439
  162SAPE   H6R18092   4.714   6.244   2.826  1.6984 -3.4369  0.1346
  162SAPE   C2718093   4.537   6.145   2.922 -0.8774  0.2841 -0.0823
  162SAPE   H7R18094   4.454   6.081   2.886 -0.9617  0.7213 -0.6662
  162SAPE   H7S18095   4.492   6.238   2.964 -1.0854  0.2175 -0.1573
  162SAPE   C2818096   4.617   6.076   3.029  0.5980 -0.2572 -0.1189
  162SAPE   H8R18097   4.703   6.018   2.994  1.1406  0.0152  0.7430
  162SAPE   C2918098   4.607   6.072   3.162  0.3959 -0.7281  0.0099
  162SAPE   H9R18099   4.681   6.018   3.223  1.2334 -0.7906 -1.0326
  162SAPE  C21018100   4.504   6.153   3.237 -0.1951  1.0037 -0.3242
  162SAPE  H10R18101   4.485   6.108   3.336  1.2967 -2.2232 -1.3538
  162SAPE  H10S18102   4.403   6.156   3.190 -1.0259 -0.3515  1.2710
  162SAPE  C21118103   4.545   6.298   3.244  0.5907  0.7386  0.6120
  162SAPE  H11R18104   4.565   6.350   3.149  2.0868  0.1322  0.5708
  162SAPE  C21218105   4.556   6.369   3.358  0.4353 -0.6527 -0.6931
  162SAPE  H12R18106   4.563   6.478   3.353 -1.0080 -0.4072  1.4171
  162SAPE  C21318107   4.517   6.315   3.495  0.6350  0.3500  0.6308
  162SAPE  H13R18108   4.439   6.237   3.483 -0.6697  1.0897  3.4729
  162SAPE  H13S18109   4.455   6.385   3.556 -2.6739 -1.0976 -0.8480
  162SAPE  C21418110   4.633   6.258   3.570 -0.0115  0.3987 -0.4464
  162SAPE  H14R18111   4.724   6.245   3.509  0.8175  0.7676  0.6867
  162SAPE  C21518112   4.627   6.228   3.700 -0.4151  0.1574 -0.1379
  162SAPE  H15R18113   4.726   6.196   3.734  1.3752  0.6314 -4.2617
  162SAPE  C21618114   4.511   6.255   3.795  0.0116  0.0317 -0.5458
  162SAPE  H16R18115   4.506   6.174   3.871 -1.3027  0.3636 -0.2581
  162SAPE  H16S18116   4.408   6.254   3.753 -1.2883  0.4002  2.3817
  162SAPE  C21718117   4.528   6.382   3.880  0.3734 -0.2767 -0.3067
  162SAPE  H17R18118   4.442   6.401   3.948  2.9984  0.5186  3.0104
  162SAPE  H17S18119   4.532   6.467   3.809  0.0728 -0.6104 -0.7300
  162SAPE  C21818120   4.648   6.380   3.976 -0.0142 -0.0446 -0.4948
  162SAPE  H18R18121   4.742   6.405   3.923 -0.3024 -1.1954 -1.5789
  162SAPE  H18S18122   4.658   6.276   4.014  1.2667 -0.4410 -1.8065
  162SAPE  C21918123   4.642   6.472   4.101  0.5215  0.3065  0.3183
  162SAPE  H19R18124   4.549   6.463   4.162  0.0794  2.2420  0.0043
  162SAPE  H19S18125   4.631   6.577   4.066 -1.0513 -0.1244 -0.5801
  162SAPE  C22018126   4.760   6.444   4.198 -0.7169  0.2096  0.0568
  162SAPE  H20R18127   4.786   6.546   4.234 -0.9114  0.0705  0.6018
  162SAPE  H20S18128   4.850   6.411   4.142 -0.2175 -0.8318  1.4079
  162SAPE  H20T18129   4.736   6.374   4.281 -0.1118  1.1996  1.0955
  162SAPE   C3318130   4.161   6.543   2.365 -0.3991  0.7223 -0.2162
  162SAPE   H3X18131   4.103   6.599   2.441 -1.4362  1.8894 -1.8078
  162SAPE   H3Y18132   4.176   6.624   2.290 -1.0185  0.9102 -0.1390
  162SAPE   C3418133   4.284   6.493   2.428  0.1348  0.0987  0.4463
  162SAPE   H4X18134   4.341   6.428   2.358  1.8800  1.9360  0.0453
  162SAPE   H4Y18135   4.256   6.436   2.519  0.1952  0.2424  0.5555
  162SAPE   C3518136   4.373   6.610   2.455  0.2257  0.0781 -0.0983
  162SAPE   H5X18137   4.321   6.685   2.518 -0.3020 -0.3690  0.0120
  162SAPE   H5Y18138   4.385   6.665   2.359 -0.1216  3.2401  1.5643
  162SAPE   C3618139   4.504   6.557   2.511 -0.4162  0.0200  0.6602
  162SAPE   H6X18140   4.588   6.627   2.493 -0.8596  0.4212  0.0803
  162SAPE   H6Y18141   4.517   6.463   2.453 -2.1650  0.9785 -1.4338
  162SAPE   C3718142   4.511   6.529   2.661 -0.7700 -0.0519 -0.0730
  162SAPE   H7X18143   4.602   6.477   2.700 -0.5265  0.9354  0.7272
  162SAPE   H7Y18144   4.428   6.459   2.685 -2.7812  2.2218 -0.0692
  162SAPE   C3818145   4.506   6.648   2.759  0.3043 -0.2355  0.1639
  162SAPE   H8X18146   4.401   6.683   2.754  0.5673  0.5268 -0.1682
  162SAPE   H8Y18147   4.567   6.731   2.718 -2.2888  2.4609  1.4128
  162SAPE   C3918148   4.532   6.620   2.909  0.2082 -0.3695  0.3034
  162SAPE   H9X18149   4.625   6.560   2.918 -0.7218 -1.6869  1.5648
  162SAPE   H9Y18150   4.454   6.553   2.951  1.8448 -2.9240 -0.4718
  162SAPE  C31018151   4.531   6.749   2.996  0.4535 -0.1727  0.3168
  162SAPE  H10X18152   4.431   6.798   2.993 -0.1036 -1.3231 -0.4395
  162SAPE  H10Y18153   4.602   6.829   2.963 -0.3380 -0.9137 -3.6666
  162SAPE  C31118154   4.570   6.717   3.142 -0.1682 -0.1932 -0.0065
  162SAPE  H11X18155   4.680   6.711   3.149 -0.1007 -0.7082 -1.2583
  162SAPE  H11Y18156   4.551   6.610   3.168 -1.2678 -0.3068 -1.1419
  162SAPE  C31218157   4.498   6.804   3.252  0.9096  1.2697 -0.1381
  162SAPE  H12X18158   4.388   6.792   3.241  1.0922 -1.1176 -0.0580
  162SAPE  H12Y18159   4.505   6.911   3.225 -0.3733  0.9763 -1.8310
  162SAPE  C31318160   4.545   6.791   3.403 -0.0830  0.0740  0.2989
  162SAPE  H13X18161   4.638   6.848   3.425 -0.4579 -0.0913  2.6163
  162SAPE  H13Y18162   4.559   6.684   3.429 -1.3476 -0.4324 -0.9979
  162SAPE  C31418163   4.437   6.843   3.495  1.0744 -1.0748  0.2075
  162SAPE  H14X18164   4.335   6.802   3.478  0.0124  0.9557  1.3214
  162SAPE  H14Y18165   4.424   6.949   3.467  0.0268 -1.3898 -0.5958
  162SAPE  C31518166   4.472   6.819   3.643 -0.6666 -0.1178  0.4218
  162SAPE  H15X18167   4.571   6.868   3.655  0.8607 -2.6762 -0.7768
  162SAPE  H15Y18168   4.494   6.711   3.655  1.2732  0.2610  0.5254
  162SAPE  C31618169   4.356   6.863   3.732  0.3341 -0.3410  0.2678
  162SAPE  H16X18170   4.281   6.783   3.718  0.0033 -0.1599  0.9382
  162SAPE  H16Y18171   4.318   6.960   3.692 -0.1586 -0.6089  0.0860
  162SAPE  C31718172   4.387   6.868   3.885  0.1270  0.2596  0.2476
  162SAPE  H17X18173   4.295   6.907   3.934 -2.0002 -1.7423 -1.8873
  162SAPE  H17Y18174   4.475   6.928   3.915  1.4377 -2.2829  1.8723
  162SAPE  C31818175   4.406   6.730   3.949 -0.1721  0.5234 -0.1158
  162SAPE  H18X18176   4.500   6.684   3.912 -0.5034  0.6922 -1.2096
  162SAPE  H18Y18177   4.321   6.666   3.917  0.4781  0.1917 -1.2313
  162SAPE  H18Z18178   4.402   6.721   4.059  1.1949 -1.3288 -0.1766
  163SAPE     N18179   3.993   4.697   2.245 -0.3649  0.3717 -0.0068
  163SAPE   HN118180   3.983   4.744   2.338 -0.5330  1.9747 -0.8075
  163SAPE   HN218181   4.084   4.724   2.203 -0.7061 -1.1944 -1.8482
  163SAPE   HN318182   3.919   4.741   2.188  0.7437  0.7526 -1.1948
  163SAPE   C1218183   3.973   4.550   2.259 -0.1724 -0.4372  0.3078
  163SAPE  H12A18184   3.998   4.498   2.165 -0.5004  1.0813 -0.6629
  163SAPE  H12B18185   3.865   4.529   2.277 -0.4082  0.8347  0.5353
  163SAPE   C1118186   4.069   4.503   2.373  0.0120  0.0854  0.1495
  163SAPE  H11A18187   4.052   4.395   2.389 -0.3403 -0.3564 -2.7353
  163SAPE  H11B18188   4.020   4.555   2.458 -0.9839 -0.4916 -0.0580
  163SAPE     P18189   4.294   4.452   2.249  0.1337  0.2752 -0.1492
  163SAPE   O1318190   4.221   4.331   2.209 -0.7850 -0.7254 -0.2915
  163SAPE   O1418191   4.352   4.533   2.144 -0.1577  0.2684  0.2403
  163SAPE   O1218192   4.205   4.539   2.347 -0.4007  0.6316 -0.7933
  163SAPE   O1118193   4.415   4.408   2.341  0.3268  0.4405  0.2864
  163SAPE    C118194   4.518   4.500   2.372 -0.0807  0.6381 -0.2433
  163SAPE    HA18195   4.606   4.462   2.316 -0.1937 -1.4876  0.9378
  163SAPE    HB18196   4.490   4.602   2.337 -0.0228  0.4977 -0.7035
  163SAPE    C218197   4.554   4.508   2.521 -0.5643 -0.2879  0.2760
  163SAPE    HS18198   4.582   4.407   2.558 -1.1178 -0.1334  1.1747
  163SAPE   O2118199   4.432   4.548   2.582  0.2507 -0.2481 -0.4685
  163SAPE   C2118200   4.361   4.448   2.632  0.4569  0.3063 -0.3945
  163SAPE   O2218201   4.408   4.337   2.660 -0.3896  0.0258  0.3586
  163SAPE   C2218202   4.225   4.503   2.664 -0.0933  0.7718 -0.9283
  163SAPE   H2R18203   4.227   4.613   2.648 -1.6487  1.0026  0.2020
  163SAPE   H2S18204   4.154   4.443   2.603  0.6440 -0.9494 -0.1452
  163SAPE    C318205   4.664   4.613   2.543 -0.1979 -0.4805  0.1143
  163SAPE    HX18206   4.613   4.703   2.506 -0.3790 -0.2400  0.9188
  163SAPE    HY18207   4.765   4.606   2.496 -0.6803 -0.0951 -0.9861
  163SAPE   O3118208   4.681   4.626   2.682 -0.0893  0.3946 -0.0641
  163SAPE   C3118209   4.731   4.739   2.722  0.1908  0.2037  0.2043
  163SAPE   O3218210   4.759   4.832   2.647  0.2319 -0.4405 -0.0225
  163SAPE   C3218211   4.731   4.748   2.872  0.3909  0.3901  0.8763
  163SAPE   H2X18212   4.711   4.650   2.919 -2.1092  0.0699 -0.6659
  163SAPE   H2Y18213   4.646   4.812   2.904 -0.5381 -0.6460  0.5279
  163SAPE   C2318214   4.176   4.479   2.814 -0.0984  0.4281  0.0694
  163SAPE   H3R18215   4.188   4.372   2.841 -1.8748 -0.0177 -0.8092
  163SAPE   H3S18216   4.067   4.493   2.801 -0.3283 -0.8759  0.3979
  163SAPE   C2418217   4.234   4.580   2.915 -1.1571 -0.0341  0.0077
  163SAPE   H4R18218   4.165   4.583   3.001 -1.9578 -0.9501 -0.5823
  163SAPE   H4S18219   4.223   4.681   2.871 -1.0505 -0.1130 -0.2028
  163SAPE   C2518220   4.383   4.559   2.939  0.0928  0.3551 -0.2561
  163SAPE   H5R18221   4.454   4.549   2.855  0.5674  0.5095  0.1222
  163SAPE   C2618222   4.435   4.540   3.055 -0.5384 -0.4161 -0.1623
  163SAPE   H6R18223   4.544   4.520   3.053 -0.1254  1.6973 -1.4368
  163SAPE   C2718224   4.363   4.548   3.182 -0.1660 -0.1503  0.3905
  163SAPE   H7R18225   4.428   4.503   3.260  0.9526  1.9439  0.7511
  163SAPE   H7S18226   4.268   4.491   3.182 -0.9319  1.0926  0.4539
  163SAPE   C2818227   4.318   4.688   3.218  1.3366 -0.2877  0.1592
  163SAPE   H8R18228   4.292   4.762   3.141  2.3236  0.4927  0.5451
  163SAPE   C2918229   4.309   4.731   3.348 -0.1168  0.5978  0.4317
  163SAPE   H9R18230   4.277   4.836   3.354 -1.5868  0.2509 -0.7033
  163SAPE  C21018231   4.348   4.661   3.479  0.4752 -0.3155  0.2134
  163SAPE  H10R18232   4.452   4.675   3.514  0.7169 -0.2262 -0.5263
  163SAPE  H10S18233   4.338   4.551   3.467  0.6700 -0.2415 -0.6963
  163SAPE  C21118234   4.255   4.713   3.584  0.0428 -0.3903  0.3681
  163SAPE  H11R18235   4.158   4.661   3.584  0.2698 -0.8167  0.4619
  163SAPE  C21218236   4.274   4.797   3.690 -0.8224 -0.1467 -0.3360
  163SAPE  H12R18237   4.196   4.803   3.768 -2.7046  1.1719 -2.2277
  163SAPE  C21318238   4.401   4.882   3.705  0.2630 -0.3364 -0.7864
  163SAPE  H13R18239   4.397   4.968   3.634  0.0342  1.3924  1.1880
  163SAPE  H13S18240   4.481   4.810   3.682 -0.3768 -0.8046 -1.5999
  163SAPE  C21418241   4.423   4.932   3.849 -0.7876 -0.1638 -0.4901
  163SAPE  H14R18242   4.408   4.860   3.931  3.4011 -0.6275  0.0781
  163SAPE  C21518243   4.480   5.046   3.885 -0.2229 -0.1351 -0.4318
  163SAPE  H15R18244   4.497   5.062   3.993 -1.8089  0.1314 -0.1965
  163SAPE  C21618245   4.524   5.148   3.776  0.3720  0.2863  0.0685
  163SAPE  H16R18246   4.435   5.158   3.710 -0.8193  0.7070  1.6676
  163SAPE  H16S18247   4.616   5.116   3.723  1.1131 -0.5380  1.7534
  163SAPE  C21718248   4.565   5.283   3.839  0.1550  0.1853  0.2540
  163SAPE  H17R18249   4.486   5.324   3.906  1.4981  0.3096  1.8065
  163SAPE  H17S18250   4.576   5.354   3.753 -1.7237  0.1744 -0.0517
  163SAPE  C21818251   4.696   5.277   3.912 -0.0356 -1.3717  0.0673
  163SAPE  H18R18252   4.776   5.257   3.837 -0.1844  0.7053 -0.6970
  163SAPE  H18S18253   4.712   5.189   3.978  2.0514 -1.9870 -1.1688
  163SAPE  C21918254   4.738   5.399   3.996 -0.6763  0.2620  0.4491
  163SAPE  H19R18255   4.691   5.491   3.955 -1.3968  0.6802  2.1160
  163SAPE  H19S18256   4.846   5.421   3.993 -0.7138  0.3574 -1.3944
  163SAPE  C22018257   4.684   5.388   4.138  0.4099 -0.6014 -0.2334
  163SAPE  H20R18258   4.727   5.300   4.190  3.5654  0.0214 -1.5373
  163SAPE  H20S18259   4.575   5.368   4.133  0.1838  0.5150 -0.1712
  163SAPE  H20T18260   4.694   5.483   4.195  0.6138 -1.0516  0.5006
  163SAPE   C3318261   4.868   4.798   2.916 -0.2789  0.0059 -0.1680
  163SAPE   H3X18262   4.890   4.906   2.902  1.4082 -0.3197 -0.1910
  163SAPE   H3Y18263   4.954   4.752   2.864 -0.6138 -2.5796  1.3816
  163SAPE   C3418264   4.879   4.780   3.067  0.2894  0.1511  0.5361
  163SAPE   H4X18265   4.985   4.809   3.086  0.7005  0.0834 -1.3921
  163SAPE   H4Y18266   4.864   4.673   3.093 -1.2772  0.1151 -0.4220
  163SAPE   C3518267   4.786   4.869   3.142  0.7822 -0.0014  0.4260
  163SAPE   H5X18268   4.682   4.832   3.133  0.6265 -0.2493  2.6969
  163SAPE   H5Y18269   4.787   4.966   3.087 -0.7268 -1.0062 -1.4882
  163SAPE   C3618270   4.808   4.879   3.291  0.6512  0.0676 -0.5123
  163SAPE   H6X18271   4.917   4.901   3.299  0.7101 -0.3739  0.0030
  163SAPE   H6Y18272   4.788   4.791   3.357 -0.3526  1.9103  1.7623
  163SAPE   C3718273   4.729   4.993   3.356  0.3443  0.6629 -0.4945
  163SAPE   H7X18274   4.625   4.955   3.360  0.7636 -0.4480  1.5486
  163SAPE   H7Y18275   4.735   5.083   3.292 -0.0223  1.8859  1.1227
  163SAPE   C3818276   4.781   5.040   3.491  0.4154 -0.8652  0.0829
  163SAPE   H8X18277   4.722   5.123   3.536  0.7687  0.4252 -1.7121
  163SAPE   H8Y18278   4.881   5.088   3.483 -0.1405  0.2780 -0.3317
  163SAPE   C3918279   4.781   4.929   3.597 -0.1349 -0.0482  0.0970
  163SAPE   H9X18280   4.828   4.838   3.554 -1.1751 -1.3162  1.5301
  163SAPE   H9Y18281   4.677   4.895   3.620 -0.1217 -0.9912 -1.1404
  163SAPE  C31018282   4.855   4.967   3.733  0.1877  0.2159 -0.0718
  163SAPE  H10X18283   4.798   5.044   3.790  0.0459  0.0000  0.0770
  163SAPE  H10Y18284   4.954   5.014   3.716  0.6822 -0.5429  0.6388
  163SAPE  C31118285   4.881   4.846   3.825 -0.6469  0.3560 -0.1696
  163SAPE  H11X18286   4.917   4.756   3.771  1.4396 -0.6350  2.6239
  163SAPE  H11Y18287   4.783   4.813   3.866  0.3341  0.1597  2.1795
  163SAPE  C31218288   4.975   4.870   3.939  0.1162  0.3960  0.7855
  163SAPE  H12X18289   4.981   4.980   3.956  1.3509  0.5249 -0.3907
  163SAPE  H12Y18290   5.078   4.848   3.905 -0.5482  1.3295 -2.1252
  163SAPE  C31318291   4.926   4.815   4.077 -0.4877  0.1417  0.8797
  163SAPE  H13X18292   4.946   4.706   4.069 -1.0742 -0.0165  1.4627
  163SAPE  H13Y18293   4.815   4.822   4.087 -0.6235 -0.7984  0.1996
  163SAPE  C31418294   5.004   4.874   4.192 -0.2164 -0.1710 -0.2887
  163SAPE  H14X18295   4.942   4.933   4.263  0.4610  2.9780 -2.1619
  163SAPE  H14Y18296   5.079   4.948   4.158  0.0357 -0.7112 -0.9339
  163SAPE  C31518297   5.078   4.766   4.276 -0.3066  1.0441 -0.2394
  163SAPE  H15X18298   5.175   4.734   4.233  0.5038  2.6823  0.3149
  163SAPE  H15Y18299   5.015   4.674   4.276 -0.2429  0.9933  0.4949
  163SAPE  C31618300   5.094   4.805   4.425 -0.0306  0.0394  0.5140
  163SAPE  H16X18301   4.997   4.832   4.473  1.2661  5.6412  0.7431
  163SAPE  H16Y18302   5.148   4.902   4.426 -1.0516  0.6243  1.3695
  163SAPE  C31718303   5.174   4.697   4.502 -0.0538 -0.0067  0.3916
  163SAPE  H17X18304   5.251   4.654   4.434 -1.1382 -1.8481  0.2648
  163SAPE  H17Y18305   5.101   4.615   4.512 -1.2371  0.9723 -0.0291
  163SAPE  C31818306   5.243   4.738   4.634 -0.5872  0.2581  0.2239
  163SAPE  H18X18307   5.326   4.667   4.654 -0.2145  0.3988 -0.7748
  163SAPE  H18Y18308   5.179   4.755   4.724  0.6362  1.9833  0.8118
  163SAPE  H18Z18309   5.302   4.830   4.612 -0.5944  0.4227  0.8754
  164SAPE     N18310   0.131   3.572   2.176  0.5781  0.5291  0.0606
  164SAPE   HN118311   0.120   3.519   2.265 -0.7252 -1.8479 -1.4107
  164SAPE   HN218312   0.035   3.597   2.145 -0.3315 -1.8361  0.7667
  164SAPE   HN318313   0.162   3.506   2.102 -0.5416  0.8349 -0.7162
  164SAPE   C1218314   0.228   3.685   2.169  0.5051  0.4676  0.8144
  164SAPE  H12A18315   0.227   3.732   2.068  0.2490  0.2211  0.6992
  164SAPE  H12B18316   0.327   3.635   2.174 -0.6596 -2.1612 -0.2741
  164SAPE   C1118317   0.208   3.799   2.277 -0.2894  0.0993 -0.3293
  164SAPE  H11A18318   0.235   3.759   2.376  1.6991  3.1475  0.5095
  164SAPE  H11B18319   0.098   3.819   2.280 -0.1727  0.6007  1.5946
  164SAPE     P18320   0.443   3.915   2.241  0.5086  0.4185  0.1026
  164SAPE   O1318321   0.470   3.827   2.127 -0.1730  0.6232 -0.0162
  164SAPE   O1418322   0.504   4.049   2.241  0.2628 -0.4285 -0.8480
  164SAPE   O1218323   0.285   3.919   2.251 -0.0534 -0.1341  0.0664
  164SAPE   O1118324   0.475   3.848   2.376  0.0956 -0.5780 -0.3870
  164SAPE    C118325   0.553   3.732   2.387 -0.6812 -0.4573  0.8023
  164SAPE    HA18326   0.499   3.637   2.365 -2.4641  0.3854  1.3224
  164SAPE    HB18327   0.643   3.739   2.323 -1.0921  4.0640  0.3992
  164SAPE    C218328   0.605   3.717   2.530 -0.1496  1.0219 -0.6953
  164SAPE    HS18329   0.662   3.622   2.540 -0.9165  0.5732 -0.4509
  164SAPE   O2118330   0.501   3.715   2.631 -0.3705 -0.9001 -0.2884
  164SAPE   C2118331   0.424   3.606   2.628 -0.6714 -0.2183  0.2038
  164SAPE   O2218332   0.445   3.507   2.558  0.0053 -0.0275  0.5627
  164SAPE   C2218333   0.301   3.627   2.725 -0.1063  0.0930 -0.4442
  164SAPE   H2R18334   0.223   3.682   2.668  0.4629 -0.9115 -2.3004
  164SAPE   H2S18335   0.268   3.523   2.748 -0.0721 -0.0687 -1.1038
  164SAPE    C318336   0.707   3.824   2.565 -0.0595  0.0726 -0.1727
  164SAPE    HX18337   0.647   3.917   2.565  2.8318  2.0645  1.1680
  164SAPE    HY18338   0.781   3.831   2.482  0.0838 -0.9342 -0.1458
  164SAPE   O3118339   0.759   3.793   2.699 -0.1466  0.2023  0.0728
  164SAPE   C3118340   0.700   3.850   2.802  0.8211 -0.4259  0.2968
  164SAPE   O3218341   0.607   3.930   2.795  0.1666 -0.3501 -0.2416
  164SAPE   C3218342   0.773   3.810   2.932 -0.0420  0.4973  0.3998
  164SAPE   H2X18343   0.883   3.822   2.923 -0.1444  0.1156 -1.9595
  164SAPE   H2Y18344   0.759   3.702   2.951  0.3074  0.3966  0.0958
  164SAPE   C2318345   0.338   3.692   2.858  0.5723  0.4962  0.4612
  164SAPE   H3R18346   0.242   3.711   2.912  0.0600  2.1648 -0.9334
  164SAPE   H3S18347   0.385   3.790   2.835 -0.0835  0.5293 -0.8546
  164SAPE   C2418348   0.431   3.606   2.941 -0.0574 -0.1521  0.7493
  164SAPE   H4R18349   0.475   3.678   3.012 -0.9293 -1.4705  2.7268
  164SAPE   H4S18350   0.522   3.576   2.885  0.6081  1.7102  0.7790
  164SAPE   C2518351   0.368   3.492   3.023  0.4350 -0.1461  0.3807
  164SAPE   H5R18352   0.280   3.439   2.983  1.8207 -0.5364 -2.4524
  164SAPE   C2618353   0.409   3.473   3.147  0.5245 -0.3974  0.3041
  164SAPE   H6R18354   0.359   3.392   3.202  0.9793 -0.8208  0.1046
  164SAPE   C2718355   0.521   3.536   3.222 -0.3244 -0.3666 -0.0388
  164SAPE   H7R18356   0.496   3.544   3.329  1.4970  1.1256  0.3352
  164SAPE   H7S18357   0.542   3.642   3.195  1.1811 -0.5251  0.4292
  164SAPE   C2818358   0.652   3.458   3.201 -0.0042  0.0027  0.1739
  164SAPE   H8R18359   0.712   3.499   3.119  0.9127 -0.5401  0.5549
  164SAPE   C2918360   0.695   3.348   3.265 -0.6795  0.3649 -0.0707
  164SAPE   H9R18361   0.789   3.298   3.238  0.7275  0.6379  3.7565
  164SAPE  C21018362   0.628   3.284   3.386  0.5230  0.1509  0.1314
  164SAPE  H10R18363   0.538   3.337   3.424  0.8812  0.5459  0.4298
  164SAPE  H10S18364   0.700   3.288   3.471 -0.3596 -0.3379  0.9374
  164SAPE  C21118365   0.581   3.141   3.357 -0.5596 -0.3928  0.2495
  164SAPE  H11R18366   0.625   3.102   3.264  1.1114 -0.9776  1.2362
  164SAPE  C21218367   0.514   3.050   3.431 -0.7515  0.1059  0.5115
  164SAPE  H12R18368   0.495   2.953   3.383 -1.1204  0.3713  0.1093
  164SAPE  C21318369   0.471   3.076   3.571  0.9162  0.3350 -0.1824
  164SAPE  H13R18370   0.457   3.184   3.594 -0.7955 -0.0915  0.9724
  164SAPE  H13S18371   0.543   3.052   3.653 -0.5465 -1.1694  0.7510
  164SAPE  C21418372   0.344   3.004   3.610  0.8165 -0.2090 -0.6976
  164SAPE  H14R18373   0.309   2.931   3.536  1.7686 -2.8409  1.2750
  164SAPE  C21518374   0.277   3.010   3.728  0.0546  0.3214 -0.6399
  164SAPE  H15R18375   0.201   2.933   3.748  2.6202 -3.2633 -3.5853
  164SAPE  C21618376   0.316   3.112   3.838  0.1856 -0.2543 -0.7296
  164SAPE  H16R18377   0.233   3.177   3.871 -0.1267 -1.0706  0.1361
  164SAPE  H16S18378   0.388   3.187   3.799  0.9611  0.8076  2.4652
  164SAPE  C21718379   0.377   3.042   3.968 -0.4487 -0.8302  0.3666
  164SAPE  H17R18380   0.430   3.130   4.011  0.5724 -1.8668  1.2922
  164SAPE  H17S18381   0.454   2.968   3.936  1.6948  0.5561  1.9573
  164SAPE  C21818382   0.277   2.984   4.065  0.2422  0.5907  0.1093
  164SAPE  H18R18383   0.218   2.902   4.020  0.1452  0.5157  0.3775
  164SAPE  H18S18384   0.207   3.070   4.076 -1.0755 -0.1858 -1.6803
  164SAPE  C21918385   0.341   2.924   4.190  0.2751  0.1284  0.2010
  164SAPE  H19R18386   0.426   2.989   4.220  0.0249  0.1950  0.7789
  164SAPE  H19S18387   0.381   2.821   4.187  0.1975  0.0819  0.7873
  164SAPE  C22018388   0.230   2.943   4.306  0.3070 -0.3623  0.5858
  164SAPE  H20R18389   0.282   2.959   4.403  0.0173 -1.5260  0.9544
  164SAPE  H20S18390   0.167   2.852   4.300 -1.3695  0.5902  2.3361
  164SAPE  H20T18391   0.171   3.037   4.296  1.1484  0.1808  0.6289
  164SAPE   C3318392   0.710   3.889   3.050 -0.2854  0.5407  0.0536
  164SAPE   H3X18393   0.601   3.865   3.047 -0.1182 -0.2542  0.1671
  164SAPE   H3Y18394   0.713   3.998   3.029 -1.0757 -0.0202 -3.6330
  164SAPE   C3418395   0.761   3.852   3.189  0.1385 -0.6845 -0.0449
  164SAPE   H4X18396   0.870   3.867   3.176  0.2476 -2.2819 -1.4273
  164SAPE   H4Y18397   0.761   3.741   3.197 -1.3071 -0.5633  3.1904
  164SAPE   C3518398   0.692   3.910   3.301 -0.4397 -0.1474 -0.0350
  164SAPE   H5X18399   0.584   3.894   3.277 -0.3109  0.0739 -0.7596
  164SAPE   H5Y18400   0.715   4.019   3.300  2.8281 -0.7539 -0.4534
  164SAPE   C3618401   0.722   3.866   3.444 -0.0328  0.6782  0.7556
  164SAPE   H6X18402   0.829   3.889   3.461  0.1262  1.5290 -1.1367
  164SAPE   H6Y18403   0.705   3.757   3.451  0.7415  0.3389 -1.7061
  164SAPE   C3718404   0.633   3.939   3.550  0.3124 -0.3018 -0.7099
  164SAPE   H7X18405   0.527   3.908   3.536 -0.1148  1.3768 -1.6228
  164SAPE   H7Y18406   0.643   4.050   3.539 -3.4357  0.1611 -0.7314
  164SAPE   C3818407   0.669   3.916   3.696 -0.4679 -0.2326  0.0555
  164SAPE   H8X18408   0.676   3.806   3.713 -0.5263 -0.1150  0.8952
  164SAPE   H8Y18409   0.592   3.949   3.769 -0.1779 -0.0223  0.2657
  164SAPE   C3918410   0.810   3.963   3.728 -0.1672 -0.1774 -0.6699
  164SAPE   H9X18411   0.801   4.072   3.711 -0.6395  0.0104  0.6780
  164SAPE   H9Y18412   0.893   3.925   3.665  0.6797  0.0906  0.2632
  164SAPE  C31018413   0.842   3.940   3.883  0.0194 -0.0313 -0.4522
  164SAPE  H10X18414   0.818   3.832   3.895 -2.2990  0.5316  0.5460
  164SAPE  H10Y18415   0.767   4.004   3.934 -1.2440 -2.3939  0.8451
  164SAPE  C31118416   0.976   3.998   3.923  0.6833  0.3289  0.0485
  164SAPE  H11X18417   0.978   4.105   3.893  2.6430  0.3070 -0.0568
  164SAPE  H11Y18418   1.051   3.947   3.859 -0.2325  0.7111 -1.3709
  164SAPE  C31218419   1.004   3.983   4.077 -0.3205  0.4085  0.0682
  164SAPE  H12X18420   0.977   3.876   4.094  0.3589  0.4433  1.5291
  164SAPE  H12Y18421   0.924   4.042   4.126 -0.3258  1.1720 -0.8554
  164SAPE  C31318422   1.140   4.016   4.133 -0.2090 -0.0908 -0.7236
  164SAPE  H13X18423   1.187   4.108   4.092  0.7924 -0.4088 -0.3059
  164SAPE  H13Y18424   1.208   3.937   4.098  1.1413  0.7033  0.0126
  164SAPE  C31418425   1.136   4.028   4.287 -0.3254 -0.3044  0.4008
  164SAPE  H14X18426   1.244   4.039   4.313 -0.4985 -0.0384  1.0207
  164SAPE  H14Y18427   1.110   3.926   4.324 -1.0987 -0.1537  0.2844
  164SAPE  C31518428   1.052   4.146   4.349 -0.1697  0.3563 -1.1457
  164SAPE  H15X18429   1.043   4.130   4.458 -0.7944  1.1554 -1.0699
  164SAPE  H15Y18430   0.950   4.135   4.306 -0.3325  0.2922 -0.7490
  164SAPE  C31618431   1.120   4.283   4.322  0.3825 -0.0420  0.1382
  164SAPE  H16X18432   1.133   4.305   4.214 -1.2908  0.9055  0.0831
  164SAPE  H16Y18433   1.212   4.281   4.384 -0.3750 -0.7050  1.3052
  164SAPE  C31718434   1.029   4.397   4.364 -0.3578 -0.0797  0.4605
  164SAPE  H17X18435   1.012   4.390   4.473  0.6991  1.1253  0.7220
  164SAPE  H17Y18436   0.935   4.389   4.305  0.0761  0.4632 -0.3170
  164SAPE  C31818437   1.100   4.529   4.331 -0.1263  1.0414  0.4495
  164SAPE  H18X18438   1.199   4.541   4.379 -0.4335  1.2226  1.0459
  164SAPE  H18Y18439   1.042   4.608   4.384  1.9341  2.8010  0.2160
  164SAPE  H18Z18440   1.122   4.549   4.224  0.9620 -1.0797  0.2263
  165SAPE     N18441   0.759   6.671   2.658  0.0851  0.3701  0.2991
  165SAPE   HN118442   0.785   6.715   2.567  0.0324  0.4711  0.3326
  165SAPE   HN218443   0.763   6.746   2.730  0.3282 -0.1224  0.8076
  165SAPE   HN318444   0.838   6.607   2.677  1.1528  1.2152 -1.0618
  165SAPE   C1218445   0.630   6.590   2.640 -0.6319  0.0653 -0.0951
  165SAPE  H12A18446   0.559   6.666   2.602 -0.8815 -0.2916 -0.3459
  165SAPE  H12B18447   0.596   6.552   2.739  2.3342 -1.5919  0.4204
  165SAPE   C1118448   0.643   6.469   2.546  0.0761 -0.0289  0.2276
  165SAPE  H11A18449   0.692   6.499   2.450 -0.9468  1.4097  0.1331
  165SAPE  H11B18450   0.540   6.428   2.535 -0.2038 -0.1452  2.8469
  165SAPE     P18451   0.806   6.264   2.524 -0.1499 -0.0140  0.0130
  165SAPE   O1318452   0.717   6.182   2.435 -0.6816  0.6584  0.1503
  165SAPE   O1418453   0.916   6.331   2.447 -0.1476 -0.3353  0.1971
  165SAPE   O1218454   0.722   6.370   2.613  0.0371  0.7275 -0.0711
  165SAPE   O1118455   0.871   6.178   2.634 -0.0242 -0.1990  0.2584
  165SAPE    C118456   0.812   6.152   2.758  0.1210 -0.2135 -0.0702
  165SAPE    HA18457   0.885   6.091   2.816 -1.1539  0.1365  2.0026
  165SAPE    HB18458   0.795   6.242   2.822  1.0404 -0.3040  0.3208
  165SAPE    C218459   0.687   6.063   2.767 -0.3519 -0.4972  0.1361
  165SAPE    HS18460   0.607   6.121   2.716 -1.4636 -3.3395 -1.5680
  165SAPE   O2118461   0.656   6.046   2.905 -0.3860  0.1438 -0.1290
  165SAPE   C2118462   0.530   6.021   2.931  0.4959 -0.5084  0.0800
  165SAPE   O2218463   0.444   6.029   2.843  0.0373  0.5775  0.1310
  165SAPE   C2218464   0.508   6.005   3.079  0.9885 -0.0903 -0.1871
  165SAPE   H2R18465   0.536   6.097   3.135  0.3627 -1.8220  3.2700
  165SAPE   H2S18466   0.402   5.984   3.102  0.4675  2.5346  0.1358
  165SAPE    C318467   0.702   5.931   2.690 -0.2188 -0.4192  0.0897
  165SAPE    HX18468   0.727   5.960   2.586  1.1311  0.3493  0.5909
  165SAPE    HY18469   0.611   5.869   2.684 -0.1678 -0.5550  0.6917
  165SAPE   O3118470   0.817   5.848   2.736 -0.4922 -0.1029  0.7985
  165SAPE   C3118471   0.793   5.753   2.827  0.0174  0.0920 -0.3633
  165SAPE   O3218472   0.682   5.733   2.877 -0.1687 -0.6382 -0.2266
  165SAPE   C3218473   0.921   5.675   2.866  0.4305  0.0498  0.3310
  165SAPE   H2X18474   1.012   5.711   2.815  0.9240 -2.5533 -0.8143
  165SAPE   H2Y18475   0.907   5.569   2.835  1.2825  0.8586 -3.1187
  165SAPE   C2318476   0.591   5.890   3.139  0.4319 -0.5295 -0.6911
  165SAPE   H3R18477   0.695   5.914   3.110  0.0954 -0.5508 -1.9582
  165SAPE   H3S18478   0.566   5.794   3.091 -0.6348 -0.3467 -0.5385
  165SAPE   C2418479   0.587   5.879   3.286  0.0177 -0.0635  0.9588
  165SAPE   H4R18480   0.638   5.782   3.308  1.4974  0.3470 -0.4569
  165SAPE   H4S18481   0.482   5.865   3.319 -0.4921  3.2198  1.0520
  165SAPE   C2518482   0.655   5.994   3.354  0.1852 -0.9105  0.4692
  165SAPE   H5R18483   0.758   6.019   3.324  0.8992 -1.8674  2.0010
  165SAPE   C2618484   0.595   6.072   3.450 -0.3391  0.1569  0.7179
  165SAPE   H6R18485   0.655   6.159   3.479  0.3046 -0.1497  0.3483
  165SAPE   C2718486   0.453   6.054   3.504 -0.6923  0.4326  0.3359
  165SAPE   H7R18487   0.448   5.960   3.563 -0.6978  0.2136 -0.0089
  165SAPE   H7S18488   0.380   6.036   3.423 -0.2930 -1.5626  0.3738
  165SAPE   C2818489   0.409   6.179   3.576 -0.2701 -0.1250  0.5137
  165SAPE   H8R18490   0.438   6.278   3.536  2.6366 -1.1125 -0.0929
  165SAPE   C2918491   0.321   6.179   3.674 -0.4648 -0.6210 -0.4687
  165SAPE   H9R18492   0.306   6.271   3.732 -2.0028 -2.2327  1.8674
  165SAPE  C21018493   0.257   6.063   3.752  0.4983 -0.5650 -0.0000
  165SAPE  H10R18494   0.327   6.024   3.828  1.9274  1.5670 -0.1434
  165SAPE  H10S18495   0.226   5.980   3.685 -2.2831  1.0569 -0.8957
  165SAPE  C21118496   0.122   6.104   3.804 -0.0595 -0.4481 -0.3561
  165SAPE  H11R18497   0.060   6.186   3.764 -0.1479  0.4300  1.4583
  165SAPE  C21218498   0.074   6.039   3.907  0.1716  0.2146  1.1059
  165SAPE  H12R18499  -0.020   6.078   3.949 -0.7461  0.4774 -1.0635
  165SAPE  C21318500   0.137   5.921   3.973  0.1157  0.2214  0.1877
  165SAPE  H13R18501   0.224   5.955   4.033  0.7274  0.3712 -0.7606
  165SAPE  H13S18502   0.187   5.846   3.909  1.4547  1.2012  0.0514
  165SAPE  C21418503   0.035   5.850   4.062  0.2531  0.5045  0.1836
  165SAPE  H14R18504   0.009   5.746   4.035  0.8986  0.8241 -1.8814
  165SAPE  C21518505  -0.015   5.896   4.180 -0.2170 -0.4578  0.1450
  165SAPE  H15R18506  -0.085   5.835   4.239  2.5584 -1.9399  2.1292
  165SAPE  C21618507   0.017   6.021   4.260 -0.1519 -0.1916  0.5378
  165SAPE  H16R18508  -0.085   6.064   4.268  0.0755  0.6413 -0.7434
  165SAPE  H16S18509   0.070   6.095   4.198 -1.3837 -0.3030 -0.7002
  165SAPE  C21718510   0.090   5.996   4.390  0.0740  0.2795 -0.4185
  165SAPE  H17R18511   0.040   5.917   4.450  0.1191  1.6805  1.5777
  165SAPE  H17S18512   0.102   6.091   4.447  0.6726  0.0223 -0.1072
  165SAPE  C21818513   0.234   5.962   4.360 -0.2027  0.0755 -0.2474
  165SAPE  H18R18514   0.283   6.031   4.288  0.9513  0.7889  1.1540
  165SAPE  H18S18515   0.247   5.860   4.320  0.6219 -0.7801  2.0429
  165SAPE  C21918516   0.310   5.978   4.500 -0.1168  0.2740 -0.1203
  165SAPE  H19R18517   0.252   5.931   4.583  0.7544  1.8596  1.4613
  165SAPE  H19S18518   0.319   6.083   4.535  0.8571 -0.0342  0.6248
  165SAPE  C22018519   0.447   5.901   4.495 -0.2840 -0.1244  0.2960
  165SAPE  H20R18520   0.424   5.793   4.482 -0.6431 -0.2741  2.0023
  165SAPE  H20S18521   0.496   5.903   4.594  0.2722 -0.1199  0.0218
  165SAPE  H20T18522   0.516   5.952   4.425  1.1554  0.1575  1.8726
  165SAPE   C3318523   0.955   5.685   3.014  0.4184  0.1587 -0.6791
  165SAPE   H3X18524   0.955   5.792   3.043  3.5218 -0.0178  0.2483
  165SAPE   H3Y18525   1.059   5.659   3.042 -0.0212  1.6934  3.0185
  165SAPE   C3418526   0.875   5.594   3.111  0.5741 -0.0206  0.2194
  165SAPE   H4X18527   0.887   5.484   3.096  2.3037  0.1026  0.4952
  165SAPE   H4Y18528   0.768   5.618   3.094  0.4961  0.4422  1.3357
  165SAPE   C3518529   0.906   5.629   3.259 -0.1695 -0.0789 -0.4180
  165SAPE   H5X18530   0.885   5.734   3.288 -1.6204 -0.9480  1.9335
  165SAPE   H5Y18531   1.015   5.610   3.270 -0.0802 -1.8382 -3.3262
  165SAPE   C3618532   0.844   5.526   3.353  0.5188  0.4791 -0.0780
  165SAPE   H6X18533   0.887   5.424   3.352  1.5873  0.8670  1.7866
  165SAPE   H6Y18534   0.734   5.510   3.339  0.3804  0.5545  0.8425
  165SAPE   C3718535   0.857   5.572   3.498 -0.3650 -0.6431  0.0087
  165SAPE   H7X18536   0.966   5.583   3.518 -0.3284 -0.8001 -0.1003
  165SAPE   H7Y18537   0.835   5.476   3.550  3.0623 -2.2710 -1.1775
  165SAPE   C3818538   0.767   5.688   3.546  0.1522  0.3650  0.0502
  165SAPE   H8X18539   0.660   5.672   3.522 -0.0723  0.9641  0.6339
  165SAPE   H8Y18540   0.799   5.782   3.495 -1.6307 -0.1785 -2.2499
  165SAPE   C3918541   0.777   5.699   3.694  0.5119 -0.1591 -0.7214
  165SAPE   H9X18542   0.878   5.715   3.737 -0.6288  1.0891  1.6538
  165SAPE   H9Y18543   0.743   5.603   3.738  2.8997  1.2452  5.0756
  165SAPE  C31018544   0.678   5.808   3.754  0.4014 -0.6509 -0.0277
  165SAPE  H10X18545   0.571   5.786   3.730 -0.4781  2.6238  0.4675
  165SAPE  H10Y18546   0.702   5.885   3.678  0.4256  0.5579  1.1731
  165SAPE  C31118547   0.690   5.853   3.901 -0.1757  0.1903  0.4530
  165SAPE  H11X18548   0.796   5.876   3.923  0.2945 -1.3051 -0.0848
  165SAPE  H11Y18549   0.645   5.775   3.966 -3.2628 -0.9878 -2.7751
  165SAPE  C31218550   0.625   5.989   3.922 -0.2765  0.2315 -0.9135
  165SAPE  H12X18551   0.524   6.004   3.879 -0.7851  2.0690  0.7386
  165SAPE  H12Y18552   0.688   6.067   3.873  1.3468 -1.4772 -1.6723
  165SAPE  C31318553   0.622   6.017   4.073 -0.4535  0.6377  0.0559
  165SAPE  H13X18554   0.719   5.975   4.107 -0.8975 -2.8435 -2.4328
  165SAPE  H13Y18555   0.540   5.952   4.111  0.0783  1.4210  2.7565
  165SAPE  C31418556   0.584   6.155   4.124 -0.1330  0.0856 -0.4268
  165SAPE  H14X18557   0.657   6.232   4.093  1.8276 -0.5105  2.2868
  165SAPE  H14Y18558   0.572   6.148   4.235  1.5345  2.7474  0.0237
  165SAPE  C31518559   0.445   6.201   4.076 -0.1474  0.2784  0.0090
  165SAPE  H15X18560   0.383   6.111   4.095 -0.7852  0.7053 -0.0047
  165SAPE  H15Y18561   0.456   6.225   3.968 -1.0358  0.3295 -0.0792
  165SAPE  C31618562   0.375   6.311   4.158  0.1586 -0.1979  0.0139
  165SAPE  H16X18563   0.338   6.278   4.257 -0.3724  1.7857  0.5325
  165SAPE  H16Y18564   0.276   6.334   4.113  1.0575  3.1125 -0.5108
  165SAPE  C31718565   0.460   6.439   4.173  0.0487  0.9175  1.2129
  165SAPE  H17X18566   0.494   6.476   4.074  1.3556 -0.4279  1.1263
  165SAPE  H17Y18567   0.560   6.419   4.217  1.2082 -1.8901 -2.2893
  165SAPE  C31818568   0.394   6.552   4.252 -0.2808  0.6461 -0.5997
  165SAPE  H18X18569   0.424   6.650   4.209 -0.1199  0.3977 -1.0671
  165SAPE  H18Y18570   0.413   6.547   4.361  2.5417 -2.2316 -1.0627
  165SAPE  H18Z18571   0.285   6.537   4.257 -0.0900 -0.3917  1.1432
  166SAPE     N18572   1.575   0.461   2.009 -0.0059 -0.5349 -0.2358
  166SAPE   HN118573   1.640   0.381   1.996  0.3317 -0.1947 -0.6736
  166SAPE   HN218574   1.533   0.493   1.919 -0.7407  0.9933  0.6057
  166SAPE   HN318575   1.631   0.536   2.055 -1.1430 -1.0745  2.2073
  166SAPE   C1218576   1.478   0.418   2.110  0.2747  0.2264 -0.0395
  166SAPE  H12A18577   1.427   0.328   2.069  1.6832 -0.1444 -1.0334
  166SAPE  H12B18578   1.395   0.489   2.131  0.7710  0.5109  1.0337
  166SAPE   C1118579   1.521   0.375   2.249 -0.1707  0.1715  0.0505
  166SAPE  H11A18580   1.533   0.474   2.300 -3.3438 -0.5643  2.5770
  166SAPE  H11B18581   1.622   0.329   2.243  0.5211  1.7857 -2.5020
  166SAPE     P18582   1.328   0.337   2.419  0.0197  0.5419 -0.2117
  166SAPE   O1318583   1.282   0.468   2.374  0.8476  0.4061 -0.0422
  166SAPE   O1418584   1.226   0.230   2.443 -0.9667 -0.1852 -0.2533
  166SAPE   O1218585   1.427   0.284   2.301 -0.3317  0.0508  0.0516
  166SAPE   O1118586   1.430   0.349   2.544  0.2283  0.1214  0.8610
  166SAPE    C118587   1.567   0.333   2.538  0.2887  0.5780  0.0235
  166SAPE    HA18588   1.594   0.245   2.476  2.4164  0.0130  1.6370
  166SAPE    HB18589   1.612   0.417   2.480  0.5613  1.0691  0.9303
  166SAPE    C218590   1.635   0.314   2.674 -0.3966 -0.6530 -0.1732
  166SAPE    HS18591   1.740   0.281   2.656 -0.7445 -1.9747  0.0686
  166SAPE   O2118592   1.570   0.219   2.760 -0.0617  0.5539  0.3556
  166SAPE   C2118593   1.580   0.096   2.722  0.2952 -0.2294  0.2112
  166SAPE   O2218594   1.639   0.046   2.627  0.0156 -0.1220 -0.1469
  166SAPE   C2218595   1.504   0.015   2.840 -0.3393  0.9136 -0.6537
  166SAPE   H2R18596   1.397   0.045   2.847  0.0080  2.1063 -0.1289
  166SAPE   H2S18597   1.517  -0.093   2.816  0.6902  0.9588 -0.3304
  166SAPE    C318598   1.632   0.454   2.747 -0.1444  0.2105  0.0775
  166SAPE    HX18599   1.529   0.495   2.750  0.0718  0.7158  0.8379
  166SAPE    HY18600   1.704   0.522   2.697  0.3504 -1.1887 -1.1832
  166SAPE   O3118601   1.692   0.439   2.886 -0.2880 -0.2737  0.3911
  166SAPE   C3118602   1.609   0.443   2.979  0.6472 -0.5588 -0.8472
  166SAPE   O3218603   1.493   0.457   2.976  0.1529 -0.2625 -0.6206
  166SAPE   C3218604   1.693   0.411   3.104 -0.3106  0.1641 -0.2028
  166SAPE   H2X18605   1.755   0.499   3.131 -1.2654  0.6206  0.5690
  166SAPE   H2Y18606   1.774   0.341   3.072  0.2791 -0.2368  2.0180
  166SAPE   C2318607   1.583   0.044   2.978  0.0179  0.6892  0.0969
  166SAPE   H3R18608   1.529   0.131   3.021 -0.7859  0.4006 -0.3110
  166SAPE   H3S18609   1.690   0.068   2.963  0.7163 -1.1750  1.6455
  166SAPE   C2418610   1.567  -0.071   3.079 -0.5794 -0.3374 -1.0004
  166SAPE   H4R18611   1.639  -0.154   3.058 -1.3674 -1.2308 -0.2603
  166SAPE   H4S18612   1.469  -0.122   3.073 -0.2958 -1.0184 -0.1603
  166SAPE   C2518613   1.590  -0.020   3.218 -0.0003  0.5311  0.2856
  166SAPE   H5R18614   1.681   0.042   3.225  2.0204 -2.1308 -0.5053
  166SAPE   C2618615   1.512  -0.039   3.320 -0.2546  0.7327  0.7874
  166SAPE   H6R18616   1.543   0.002   3.417 -0.1799 -0.8815  1.4751
  166SAPE   C2718617   1.380  -0.115   3.320 -0.1700 -0.4186 -0.2976
  166SAPE   H7R18618   1.401  -0.223   3.336  0.4401 -0.5413 -1.7661
  166SAPE   H7S18619   1.327  -0.106   3.223  0.1774 -0.4524 -0.4949
  166SAPE   C2818620   1.297  -0.059   3.433  0.1022 -0.0628 -0.3605
  166SAPE   H8R18621   1.240   0.030   3.402 -1.1195 -0.2614  1.1600
  166SAPE   C2918622   1.291  -0.106   3.553  0.0516 -0.7407 -0.2367
  166SAPE   H9R18623   1.221  -0.061   3.625 -0.8752 -4.9800  1.8565
  166SAPE  C21018624   1.351  -0.231   3.605 -0.3165 -0.6875  0.4298
  166SAPE  H10R18625   1.374  -0.310   3.531  1.6576 -0.7742  1.0884
  166SAPE  H10S18626   1.277  -0.272   3.677  0.6083 -1.1134  1.1635
  166SAPE  C21118627   1.477  -0.201   3.687  0.2828  0.0777 -0.1809
  166SAPE  H11R18628   1.565  -0.174   3.625  0.8659  1.4297  1.1681
  166SAPE  C21218629   1.490  -0.184   3.822  0.2337  0.3764 -0.5286
  166SAPE  H12R18630   1.590  -0.176   3.869 -0.5427  0.3823  1.2150
  166SAPE  C21318631   1.383  -0.222   3.924  0.4722 -0.5500  0.1367
  166SAPE  H13R18632   1.427  -0.269   4.014  2.6488  1.2171  0.0933
  166SAPE  H13S18633   1.317  -0.290   3.867  1.3771 -1.1185 -0.2522
  166SAPE  C21418634   1.289  -0.105   3.946 -0.0062 -0.5802 -0.3750
  166SAPE  H14R18635   1.290  -0.030   3.866  2.2909 -0.2353 -0.0895
  166SAPE  C21518636   1.217  -0.074   4.061  0.3392 -0.3126  0.0783
  166SAPE  H15R18637   1.165   0.022   4.053  1.2586  0.0798 -1.7073
  166SAPE  C21618638   1.210  -0.155   4.188  0.4966  0.1256 -0.1468
  166SAPE  H16R18639   1.299  -0.220   4.201  1.4604  1.3088 -0.7042
  166SAPE  H16S18640   1.113  -0.208   4.202  0.1863  0.7602  0.1328
  166SAPE  C21718641   1.216  -0.046   4.302 -0.5636  0.6290  0.2579
  166SAPE  H17R18642   1.121   0.011   4.310 -0.6469  0.3240  1.5927
  166SAPE  H17S18643   1.301   0.023   4.279  0.9551 -1.5689 -1.1231
  166SAPE  C21818644   1.231  -0.108   4.440  0.6909  0.2389  0.2823
  166SAPE  H18R18645   1.155  -0.184   4.467 -1.7274  2.7607  1.0203
  166SAPE  H18S18646   1.217  -0.025   4.512  0.1499  0.1517  0.2833
  166SAPE  C21918647   1.373  -0.170   4.465 -0.0032 -0.2566  0.4095
  166SAPE  H19R18648   1.452  -0.104   4.424 -0.3180 -0.0943  0.0514
  166SAPE  H19S18649   1.378  -0.261   4.401 -2.3276  0.4453 -0.8752
  166SAPE  C22018650   1.401  -0.216   4.606 -0.0448 -0.0712 -0.2892
  166SAPE  H20R18651   1.332  -0.301   4.631  0.4018 -1.0700 -2.2650
  166SAPE  H20S18652   1.379  -0.135   4.678 -1.8612 -1.4078  0.7518
  166SAPE  H20T18653   1.504  -0.250   4.630  1.0749  3.6960  0.9651
  166SAPE   C3318654   1.610   0.373   3.224  0.4085  0.2243 -0.0049
  166SAPE   H3X18655   1.600   0.262   3.224  1.2801  0.0774 -2.6589
  166SAPE   H3Y18656   1.511   0.419   3.202  0.3377 -0.4948 -1.2774
  166SAPE   C3418657   1.673   0.419   3.358  0.4416  0.5059 -0.8477
  166SAPE   H4X18658   1.658   0.527   3.380 -0.9462  0.5382 -1.8332
  166SAPE   H4Y18659   1.780   0.389   3.357  0.6108  1.0930 -2.2155
  166SAPE   C3518660   1.613   0.334   3.479 -0.3829  0.5068 -0.0047
  166SAPE   H5X18661   1.645   0.228   3.470 -0.5392  0.2873  1.6225
  166SAPE   H5Y18662   1.503   0.323   3.472 -0.3516 -0.1677  0.5056
  166SAPE   C3618663   1.657   0.372   3.624  0.3382 -0.1520 -0.1882
  166SAPE   H6X18664   1.610   0.470   3.645 -0.7535 -0.3900 -1.4132
  166SAPE   H6Y18665   1.768   0.383   3.623  0.3189  0.9458 -3.2909
  166SAPE   C3718666   1.607   0.270   3.735 -0.6205  0.5813  0.4159
  166SAPE   H7X18667   1.655   0.179   3.693 -1.1399  0.3284  0.3646
  166SAPE   H7Y18668   1.500   0.248   3.720 -0.3289 -0.0949 -0.7940
  166SAPE   C3818669   1.651   0.289   3.883  0.2172 -0.2238 -0.2725
  166SAPE   H8X18670   1.609   0.387   3.915 -0.0145 -1.0961  2.3126
  166SAPE   H8Y18671   1.761   0.295   3.893  0.2860 -1.7309  0.1674
  166SAPE   C3918672   1.593   0.187   3.977  0.4344 -0.0213 -0.1958
  166SAPE   H9X18673   1.554   0.111   3.906  0.8255  0.8937 -1.4252
  166SAPE   H9Y18674   1.505   0.237   4.023 -1.5035 -1.3666 -2.2203
  166SAPE  C31018675   1.693   0.127   4.079 -0.8537 -0.1746  0.1897
  166SAPE  H10X18676   1.731   0.209   4.144  0.3786  1.0716 -1.9991
  166SAPE  H10Y18677   1.774   0.083   4.017  0.0990  0.6267  0.8238
  166SAPE  C31118678   1.638   0.013   4.158 -0.3709 -0.0748 -0.0319
  166SAPE  H11X18679   1.579  -0.054   4.092 -0.8017 -0.9622  1.2132
  166SAPE  H11Y18680   1.555   0.046   4.224 -0.0976  1.0126 -0.2222
  166SAPE  C31218681   1.744  -0.060   4.239 -0.1600  0.1812 -0.2790
  166SAPE  H12X18682   1.698  -0.106   4.330 -0.7105  0.1989 -0.5469
  166SAPE  H12Y18683   1.817   0.016   4.274  0.8784 -0.3961 -1.1422
  166SAPE  C31318684   1.824  -0.167   4.168  0.4790  0.3735 -0.2119
  166SAPE  H13X18685   1.905  -0.202   4.235  0.8057  0.8629 -0.3526
  166SAPE  H13Y18686   1.883  -0.124   4.085  1.9471  0.2513  0.7311
  166SAPE  C31418687   1.745  -0.275   4.100 -0.1606 -0.5856  0.1067
  166SAPE  H14X18688   1.823  -0.349   4.071 -2.1565 -2.7276 -0.0503
  166SAPE  H14Y18689   1.702  -0.237   4.005 -0.8098 -0.1158  0.5831
  166SAPE  C31518690   1.648  -0.347   4.194  0.0135 -0.7999  0.1812
  166SAPE  H15X18691   1.568  -0.275   4.223 -0.6556 -0.9019 -1.3150
  166SAPE  H15Y18692   1.699  -0.363   4.291  0.8348 -0.6610 -0.2223
  166SAPE  C31618693   1.590  -0.484   4.140  0.2589 -0.3038 -0.2002
  166SAPE  H16X18694   1.668  -0.563   4.142 -0.4056 -0.9865 -0.6122
  166SAPE  H16Y18695   1.549  -0.482   4.037  1.0418 -1.6081 -0.5592
  166SAPE  C31718696   1.469  -0.531   4.221  0.9078 -0.1725 -0.7716
  166SAPE  H17X18697   1.442  -0.635   4.192  2.4865 -0.7664 -0.2532
  166SAPE  H17Y18698   1.384  -0.466   4.192 -2.3343 -4.1695 -1.1602
  166SAPE  C31818699   1.494  -0.534   4.375  0.8001  0.2976  0.2673
  166SAPE  H18X18700   1.396  -0.551   4.426 -0.3272  3.7219 -0.4615
  166SAPE  H18Y18701   1.545  -0.444   4.414  0.4266 -0.1479  1.8713
  166SAPE  H18Z18702   1.552  -0.621   4.411 -1.5878 -0.8459  1.6708
  167SAPE     N18703   6.447   3.240   2.531  0.0661  0.1755 -0.1655
  167SAPE   HN118704   6.377   3.317   2.524  0.4047  0.5250  0.1867
  167SAPE   HN218705   6.422   3.195   2.621  0.2058  0.2070 -0.1092
  167SAPE   HN318706   6.545   3.271   2.549  0.1998 -1.0700  1.4240
  167SAPE   C1218707   6.458   3.140   2.422  0.4380 -0.3174 -0.6153
  167SAPE  H12A18708   6.423   3.188   2.328 -1.1623  0.0058  0.1134
  167SAPE  H12B18709   6.382   3.062   2.446 -0.4587  1.1009  1.4336
  167SAPE   C1118710   6.596   3.084   2.414 -0.0494  0.6244  0.2917
  167SAPE  H11A18711   6.668   3.158   2.373  0.6969 -0.2777 -0.0534
  167SAPE  H11B18712   6.605   3.001   2.341 -3.5232  0.7868 -0.4480
  167SAPE     P18713   6.678   2.894   2.586 -0.3296  0.4124  0.2741
  167SAPE   O1318714   6.569   2.805   2.550 -0.1237 -0.0029 -0.2808
  167SAPE   O1418715   6.815   2.845   2.550 -0.3966  0.3999 -0.0686
  167SAPE   O1218716   6.650   3.043   2.542  0.4958 -0.5417  0.3735
  167SAPE   O1118717   6.683   2.901   2.744  0.2507  0.2504  0.5901
  167SAPE    C118718   6.720   3.021   2.812  0.3086  0.1521 -0.3570
  167SAPE    HA18719   6.827   3.049   2.802  0.4038  0.2266  0.7549
  167SAPE    HB18720   6.658   3.107   2.780  0.1919 -0.1424 -0.9403
  167SAPE    C218721   6.701   3.002   2.971 -0.5590 -0.3551  0.7563
  167SAPE    HS18722   6.778   2.924   2.990  0.3663  0.3756  0.0746
  167SAPE   O2118723   6.568   2.955   3.009  0.1424  0.6170  0.4678
  167SAPE   C2118724   6.555   2.834   3.057 -0.1632 -0.2779 -0.0489
  167SAPE   O2218725   6.647   2.757   3.080 -0.2921  0.0483  0.4341
  167SAPE   C2218726   6.406   2.806   3.090  0.1002 -0.2574 -0.3555
  167SAPE   H2R18727   6.400   2.838   3.196  2.3638 -0.2455 -0.1847
  167SAPE   H2S18728   6.338   2.862   3.023 -0.4277 -1.6212 -1.0156
  167SAPE    C318729   6.739   3.127   3.056  0.1539 -0.5177 -0.1997
  167SAPE    HX18730   6.654   3.198   3.055  1.4130  1.0525  0.2917
  167SAPE    HY18731   6.830   3.177   3.016 -0.0095  1.2477  1.4531
  167SAPE   O3118732   6.780   3.083   3.192 -0.2985 -0.3518  0.2187
  167SAPE   C3118733   6.683   3.072   3.281  0.4808 -0.7519  0.5801
  167SAPE   O3218734   6.563   3.094   3.265 -0.0588 -0.4977 -0.3833
  167SAPE   C3218735   6.744   3.026   3.413  0.1563  0.4346 -0.5781
  167SAPE   H2X18736   6.852   3.049   3.420  0.2607 -0.2061  0.0872
  167SAPE   H2Y18737   6.730   2.916   3.427 -0.8476  0.8764  2.8589
  167SAPE   C2318738   6.376   2.653   3.100  0.1544 -0.2921 -0.2011
  167SAPE   H3R18739   6.432   2.594   3.176 -2.8773 -2.0347  0.9006
  167SAPE   H3S18740   6.399   2.609   3.000  1.0423 -0.9020  0.2592
  167SAPE   C2418741   6.233   2.639   3.137 -0.2921 -0.0776  0.3016
  167SAPE   H4R18742   6.178   2.694   3.058  2.2150  1.8861 -0.1761
  167SAPE   H4S18743   6.215   2.693   3.233 -2.2748  1.5101 -0.8768
  167SAPE   C2518744   6.171   2.506   3.146 -0.2730  0.4949  0.3602
  167SAPE   H5R18745   6.192   2.442   3.059 -1.0091  1.4677 -0.5646
  167SAPE   C2618746   6.101   2.458   3.253  0.1605  0.2674  0.0889
  167SAPE   H6R18747   6.064   2.354   3.257 -0.0498  0.3627  0.6427
  167SAPE   C2718748   6.060   2.529   3.380  0.0721  0.6746  0.3574
  167SAPE   H7R18749   5.949   2.527   3.382  0.0238  1.4816 -0.4378
  167SAPE   H7S18750   6.088   2.637   3.378 -0.4706  0.8490  1.4889
  167SAPE   C2818751   6.124   2.462   3.502 -0.2945 -0.1843  0.3064
  167SAPE   H8R18752   6.091   2.357   3.512  1.1427 -0.5937  1.1525
  167SAPE   C2918753   6.213   2.523   3.584 -0.0258  0.6786 -0.9245
  167SAPE   H9R18754   6.225   2.467   3.679 -1.0969 -0.2847 -1.3379
  167SAPE  C21018755   6.257   2.667   3.580  0.0530 -0.1399 -0.2029
  167SAPE  H10R18756   6.174   2.735   3.609  1.4500  1.2439  0.6925
  167SAPE  H10S18757   6.281   2.688   3.473 -0.0936 -1.9811 -0.6382
  167SAPE  C21118758   6.371   2.688   3.678  0.0912  0.0250 -0.7173
  167SAPE  H11R18759   6.474   2.671   3.644  1.7295  4.5402  1.0914
  167SAPE  C21218760   6.360   2.751   3.800  0.8335  0.1482  0.3337
  167SAPE  H12R18761   6.448   2.751   3.865  1.6130 -2.1258 -0.6335
  167SAPE  C21318762   6.240   2.810   3.877 -0.4780 -1.0369  0.6730
  167SAPE  H13R18763   6.149   2.787   3.817 -0.0421  0.2221 -0.5347
  167SAPE  H13S18764   6.242   2.920   3.895  1.1605 -1.3301  2.5794
  167SAPE  C21418765   6.236   2.731   4.001  0.5269 -0.4499 -0.0662
  167SAPE  H14R18766   6.313   2.653   4.013 -1.0313 -2.2780 -1.3287
  167SAPE  C21518767   6.162   2.755   4.115  0.2681  0.1190 -1.0240
  167SAPE  H15R18768   6.178   2.693   4.205  1.4440  4.5314  2.1275
  167SAPE  C21618769   6.061   2.869   4.136 -0.1378  0.5357 -0.0442
  167SAPE  H16R18770   5.962   2.822   4.154 -0.2004  0.8650  0.5018
  167SAPE  H16S18771   6.047   2.932   4.045  1.2357  1.9633  0.6760
  167SAPE  C21718772   6.088   2.949   4.259  0.2029  0.6222 -0.5235
  167SAPE  H17R18773   6.187   2.998   4.250  0.4336  0.9441  2.5773
  167SAPE  H17S18774   6.101   2.883   4.347  2.7339  0.7802 -0.7088
  167SAPE  C21818775   5.982   3.062   4.270 -0.1395  0.2553 -0.4204
  167SAPE  H18R18776   5.882   3.014   4.267  0.9694 -2.1906 -0.9800
  167SAPE  H18S18777   6.009   3.128   4.185  0.4270  0.8292  0.1888
  167SAPE  C21918778   6.007   3.160   4.393  0.3360 -0.1363 -1.0575
  167SAPE  H19R18779   6.108   3.203   4.373  0.4972 -0.3025 -0.6162
  167SAPE  H19S18780   6.006   3.096   4.484 -1.8189  0.1748 -0.8137
  167SAPE  C22018781   5.903   3.273   4.407  0.1895  0.1817  0.1240
  167SAPE  H20R18782   5.946   3.337   4.488 -0.4111  0.3943  0.2765
  167SAPE  H20S18783   5.804   3.235   4.441  1.2080 -1.3080  1.5793
  167SAPE  H20T18784   5.902   3.334   4.315  0.6396  0.7212  0.4698
  167SAPE   C3318785   6.660   3.079   3.542 -0.0298 -0.4387  0.5826
  167SAPE   H3X18786   6.565   3.022   3.531  0.8186 -1.6735 -0.6129
  167SAPE   H3Y18787   6.644   3.187   3.523 -1.6813 -0.7635 -0.1276
  167SAPE   C3418788   6.724   3.053   3.676 -0.5233  0.2865 -0.2070
  167SAPE   H4X18789   6.823   3.103   3.687 -0.6412  0.4228  0.2774
  167SAPE   H4Y18790   6.743   2.945   3.692 -3.4302 -0.0914  1.5051
  167SAPE   C3518791   6.629   3.087   3.791 -0.4647  0.2286  0.0240
  167SAPE   H5X18792   6.527   3.044   3.778  0.0330 -0.8362 -0.4771
  167SAPE   H5Y18793   6.613   3.197   3.784  1.4050  0.5642  0.5672
  167SAPE   C3618794   6.686   3.080   3.929 -0.1582  0.7338  1.0493
  167SAPE   H6X18795   6.644   3.158   3.997  0.5587  1.1962  0.9741
  167SAPE   H6Y18796   6.796   3.100   3.927 -0.1016  1.2677  3.9229
  167SAPE   C3718797   6.655   2.942   3.990  0.2326  0.2421 -0.1455
  167SAPE   H7X18798   6.710   2.866   3.930 -0.6178  0.4776 -1.2697
  167SAPE   H7Y18799   6.551   2.904   3.978 -0.0785  0.5071  1.4502
  167SAPE   C3818800   6.701   2.935   4.134  0.1418 -0.1028 -0.5224
  167SAPE   H8X18801   6.646   3.003   4.202 -1.1821 -1.8223  0.1870
  167SAPE   H8Y18802   6.811   2.939   4.148  0.2798  0.6307 -1.7678
  167SAPE   C3918803   6.654   2.799   4.198 -0.0995 -0.1795  0.6021
  167SAPE   H9X18804   6.682   2.718   4.128 -2.7393 -0.2059 -0.5260
  167SAPE   H9Y18805   6.545   2.781   4.186  0.1027 -0.9092 -0.2022
  167SAPE  C31018806   6.687   2.776   4.350  0.7448 -0.6827  0.6577
  167SAPE  H10X18807   6.795   2.802   4.365  0.8209  0.7331 -1.7312
  167SAPE  H10Y18808   6.683   2.666   4.364  0.7472 -1.0278 -1.6133
  167SAPE  C31118809   6.597   2.866   4.448 -0.0953  0.0040  0.0568
  167SAPE  H11X18810   6.600   2.972   4.413  1.6735  0.1425  0.5640
  167SAPE  H11Y18811   6.644   2.861   4.548  0.6012 -1.7486 -0.3337
  167SAPE  C31218812   6.459   2.814   4.436  0.1653  0.2971 -0.2209
  167SAPE  H12X18813   6.459   2.705   4.455  0.4078  0.5433  1.3642
  167SAPE  H12Y18814   6.419   2.829   4.334  0.6737  0.3918 -0.4066
  167SAPE  C31318815   6.361   2.890   4.522 -0.7350 -1.0114 -0.3841
  167SAPE  H13X18816   6.281   2.814   4.538 -0.5525 -1.0917  0.1610
  167SAPE  H13Y18817   6.313   2.978   4.473  0.5364  1.3786  2.3451
  167SAPE  C31418818   6.410   2.928   4.667  0.8510 -0.3591 -0.4328
  167SAPE  H14X18819   6.497   2.996   4.662  1.4807 -1.0626  0.7076
  167SAPE  H14Y18820   6.439   2.828   4.707  2.1926 -0.2658 -1.1317
  167SAPE  C31518821   6.304   3.006   4.742 -0.2669  0.3495 -0.3311
  167SAPE  H15X18822   6.290   3.102   4.687  0.6367 -0.2660 -1.6863
  167SAPE  H15Y18823   6.324   3.043   4.845 -3.0903  1.4504 -0.0745
  167SAPE  C31618824   6.169   2.935   4.740  0.0536 -0.1363  0.1790
  167SAPE  H16X18825   6.194   2.833   4.776 -0.8628  0.1142  1.5895
  167SAPE  H16Y18826   6.124   2.916   4.640  0.5423 -0.9274  0.0999
  167SAPE  C31718827   6.071   2.993   4.846 -0.0711  0.1654 -0.6300
  167SAPE  H17X18828   6.115   2.991   4.948 -1.6495 -0.5707  0.0600
  167SAPE  H17Y18829   5.985   2.924   4.849  1.2119 -1.4656  1.7207
  167SAPE  C31818830   6.016   3.129   4.808  0.4925  0.5634  0.5993
  167SAPE  H18X18831   6.096   3.206   4.798  0.5564  0.2125 -2.8128
  167SAPE  H18Y18832   5.941   3.167   4.880 -2.6257 -1.5212 -1.3363
  167SAPE  H18Z18833   5.959   3.127   4.713  1.9124 -1.2969 -0.2649
  168SAPE     N18834   3.517   6.093   1.950  0.2147 -0.7954  0.3066
  168SAPE   HN118835   3.539   6.091   2.051 -2.3347 -2.0159  0.9205
  168SAPE   HN218836   3.468   6.184   1.936  0.1080 -1.0294 -1.0067
  168SAPE   HN318837   3.448   6.015   1.944 -1.0326  0.3403 -0.8944
  168SAPE   C1218838   3.643   6.083   1.868  0.0611 -0.4068 -0.6323
  168SAPE  H12A18839   3.703   6.176   1.872  0.3030 -0.5920  0.2234
  168SAPE  H12B18840   3.605   6.087   1.763 -1.2998  2.8385 -0.1433
  168SAPE   C1118841   3.722   5.959   1.903  0.2803  0.5312 -0.1973
  168SAPE  H11A18842   3.817   5.960   1.845 -0.1800  2.3974 -0.9767
  168SAPE  H11B18843   3.663   5.873   1.864  0.7036  0.1102  0.0731
  168SAPE     P18844   3.877   5.975   2.106 -0.0759 -0.3659 -0.2862
  168SAPE   O1318845   3.956   5.847   2.123 -0.1040 -0.0796  0.0202
  168SAPE   O1418846   3.930   6.088   2.020 -0.2419  0.5284  0.6681
  168SAPE   O1218847   3.741   5.939   2.042  0.6126  0.4252 -0.6624
  168SAPE   O1118848   3.839   6.048   2.246 -0.1295 -0.2783  0.3638
  168SAPE    C118849   3.747   5.984   2.336 -0.7093 -0.1664  0.7234
  168SAPE    HA18850   3.646   5.987   2.290  0.3820  0.4807 -1.8267
  168SAPE    HB18851   3.776   5.880   2.362 -0.4593 -0.5976 -1.1194
  168SAPE    C218852   3.732   6.056   2.482  0.1020  0.5175  0.1108
  168SAPE    HS18853   3.682   6.149   2.449  0.9074  0.4282 -1.4983
  168SAPE   O2118854   3.858   6.071   2.542 -0.2732  0.2433 -0.7262
  168SAPE   C2118855   3.869   6.172   2.626 -0.4439  0.1014 -0.0935
  168SAPE   O2218856   3.778   6.256   2.649 -0.3703  0.1823  0.1692
  168SAPE   C2218857   3.997   6.153   2.711  0.5439 -0.6023 -0.2617
  168SAPE   H2R18858   3.999   6.060   2.772  0.9229  0.0824  0.7828
  168SAPE   H2S18859   4.074   6.137   2.633  0.9420 -0.5861  0.1235
  168SAPE    C318860   3.645   5.970   2.577  0.7377 -0.1558  0.9304
  168SAPE    HX18861   3.694   5.870   2.572  2.1109  0.5536 -1.5027
  168SAPE    HY18862   3.549   5.967   2.521  1.4343 -0.4096 -0.2790
  168SAPE   O3118863   3.640   6.015   2.710 -0.5453  0.3378 -0.7161
  168SAPE   C3118864   3.609   5.933   2.812 -0.0050 -0.0623 -0.0620
  168SAPE   O3218865   3.600   5.812   2.802  0.5243  0.2378 -0.0556
  168SAPE   C3218866   3.598   6.004   2.947  0.2423  0.1645  0.0317
  168SAPE   H2X18867   3.541   5.936   3.014 -3.5860  1.3057 -1.7369
  168SAPE   H2Y18868   3.533   6.094   2.935  1.2844  1.1680  1.4939
  168SAPE   C2318869   4.013   6.280   2.793 -0.6073  0.8919 -0.5183
  168SAPE   H3R18870   3.922   6.279   2.856  0.0298  2.4826  0.5000
  168SAPE   H3S18871   4.013   6.370   2.727 -0.7026  1.0810 -0.2616
  168SAPE   C2418872   4.135   6.256   2.885 -0.0758  0.0412 -0.0410
  168SAPE   H4R18873   4.230   6.238   2.830 -0.7926  0.3704 -1.4268
  168SAPE   H4S18874   4.129   6.174   2.959  0.4334  0.3704  0.3736
  168SAPE   C2518875   4.165   6.386   2.953 -0.0087 -0.3614 -0.1627
  168SAPE   H5R18876   4.180   6.466   2.879 -0.9899  0.3737  0.3868
  168SAPE   C2618877   4.168   6.407   3.088 -0.2426 -0.4411 -0.4900
  168SAPE   H6R18878   4.186   6.504   3.137 -0.5434 -0.5563 -0.1431
  168SAPE   C2718879   4.144   6.295   3.190  0.1559 -0.5582  0.5557
  168SAPE   H7R18880   4.217   6.311   3.273 -0.5525 -3.9210  2.0056
  168SAPE   H7S18881   4.183   6.200   3.147  0.9127  0.7626 -1.8407
  168SAPE   C2818882   4.004   6.289   3.236  0.5310 -0.6359  0.4203
  168SAPE   H8R18883   3.931   6.295   3.154 -0.1508 -0.5877  1.0203
  168SAPE   C2918884   3.954   6.282   3.363  0.1422 -0.4084 -0.2451
  168SAPE   H9R18885   3.846   6.273   3.381  0.0717 -1.3603 -1.0332
  168SAPE  C21018886   4.037   6.275   3.486 -0.2489  0.0202 -0.2333
  168SAPE  H10R18887   4.113   6.197   3.466  0.3599  0.8457 -1.2578
  168SAPE  H10S18888   3.972   6.237   3.567  1.7166  0.4418  1.6238
  168SAPE  C21118889   4.105   6.402   3.531  0.3245 -0.5180  0.0777
  168SAPE  H11R18890   4.129   6.471   3.449  0.3930 -0.4971  0.1148
  168SAPE  C21218891   4.136   6.431   3.661 -0.0989 -0.0998 -0.1387
  168SAPE  H12R18892   4.186   6.525   3.686  1.0834 -0.9566  0.8889
  168SAPE  C21318893   4.111   6.344   3.786 -0.9070 -0.8883  0.6075
  168SAPE  H13R18894   4.189   6.377   3.857  0.3079  2.4678 -2.0146
  168SAPE  H13S18895   4.132   6.236   3.773  1.1535 -0.2928 -2.0862
  168SAPE  C21418896   3.972   6.378   3.827 -0.5593  0.0203 -0.0278
  168SAPE  H14R18897   3.897   6.353   3.750  1.3152 -1.0763 -1.5812
  168SAPE  C21518898   3.937   6.421   3.950  0.3844 -0.3052 -0.3672
  168SAPE  H15R18899   3.832   6.447   3.968  0.3269 -0.1999 -0.8588
  168SAPE  C21618900   4.040   6.473   4.047 -0.1513 -0.1860  0.0669
  168SAPE  H16R18901   4.140   6.513   4.016 -0.4864  1.0341  0.4974
  168SAPE  H16S18902   4.065   6.384   4.108  0.2633 -0.7828 -0.9479
  168SAPE  C21718903   3.995   6.579   4.142 -0.1711  0.3076  0.2734
  168SAPE  H17R18904   3.893   6.566   4.183  1.0001 -1.4729  2.9570
  168SAPE  H17S18905   3.989   6.674   4.085  0.4252  0.3819  0.3287
  168SAPE  C21818906   4.084   6.607   4.262  0.5401  0.2474 -0.1069
  168SAPE  H18R18907   4.086   6.712   4.298  1.1329 -0.7328  2.9552
  168SAPE  H18S18908   4.190   6.583   4.242  0.5283  1.8236 -2.4790
  168SAPE  C21918909   4.044   6.509   4.374 -0.0134  0.0859  0.3876
  168SAPE  H19R18910   4.056   6.405   4.335 -0.6583 -0.0686  0.6024
  168SAPE  H19S18911   3.938   6.527   4.402 -0.1422 -0.1454  0.0582
  168SAPE  C22018912   4.136   6.516   4.498 -0.2539  0.6443  0.4114
  168SAPE  H20R18913   4.237   6.514   4.450 -0.7591  0.6747 -0.6894
  168SAPE  H20S18914   4.123   6.433   4.570  0.1739 -0.3157 -0.5841
  168SAPE  H20T18915   4.138   6.609   4.559  1.1664  0.3935  0.7901
  168SAPE   C3318916   3.746   6.044   2.995  0.3975  0.0257  0.6343
  168SAPE   H3X18917   3.739   6.109   3.084  1.2953  0.2555  0.5518
  168SAPE   H3Y18918   3.799   6.095   2.911 -1.5188  1.4029  0.2066
  168SAPE   C3418919   3.837   5.922   3.024  0.1735  0.9418 -0.3540
  168SAPE   H4X18920   3.942   5.953   3.040  0.4360  1.0162 -2.0905
  168SAPE   H4Y18921   3.837   5.850   2.939  0.8955  1.4417 -0.7826
  168SAPE   C3518922   3.790   5.830   3.141  0.5847  0.2707  0.2703
  168SAPE   H5X18923   3.833   5.727   3.136 -2.7368 -1.3202  1.2906
  168SAPE   H5Y18924   3.680   5.825   3.129  0.3573  0.0675  2.1068
  168SAPE   C3618925   3.831   5.894   3.283  0.1378 -0.2748  0.0004
  168SAPE   H6X18926   3.790   5.994   3.308 -0.2459 -0.5710  0.6062
  168SAPE   H6Y18927   3.942   5.896   3.275  0.2782 -3.6232 -0.6482
  168SAPE   C3718928   3.797   5.802   3.398  0.7565  0.1805 -0.5352
  168SAPE   H7X18929   3.832   5.697   3.390 -1.0702 -0.5097  0.0571
  168SAPE   H7Y18930   3.687   5.786   3.389  0.8696 -1.5888  0.6919
  168SAPE   C3818931   3.830   5.861   3.541  0.6077 -0.1152  0.6624
  168SAPE   H8X18932   3.771   5.803   3.615  0.4739 -0.0386  0.6177
  168SAPE   H8Y18933   3.792   5.965   3.542 -0.9604 -0.5749 -1.5066
  168SAPE   C3918934   3.973   5.852   3.582 -0.0032 -0.3489 -0.4053
  168SAPE   H9X18935   4.037   5.894   3.502  0.4036  0.3757  0.2859
  168SAPE   H9Y18936   3.995   5.746   3.604  1.4337  0.0594  0.2063
  168SAPE  C31018937   3.995   5.932   3.709  0.0440 -0.4909  0.3395
  168SAPE  H10X18938   3.957   6.036   3.712 -0.4854 -0.6908  1.9711
  168SAPE  H10Y18939   4.106   5.932   3.717  0.0074 -1.2917  0.9709
  168SAPE  C31118940   3.945   5.866   3.841 -0.1048  0.1841  0.1309
  168SAPE  H11X18941   4.013   5.783   3.869 -1.8641 -1.1302  0.7002
  168SAPE  H11Y18942   3.842   5.829   3.824 -0.2973 -0.7262  2.7987
  168SAPE  C31218943   3.937   5.964   3.958 -0.3479 -0.1636  0.1775
  168SAPE  H12X18944   3.862   6.042   3.935 -0.8703 -0.4026  1.0264
  168SAPE  H12Y18945   4.030   6.020   3.981 -0.3727 -1.0689  2.8182
  168SAPE  C31318946   3.911   5.891   4.087 -0.0671  0.1623 -0.1056
  168SAPE  H13X18947   3.969   5.799   4.106  0.9263  0.8056  0.0714
  168SAPE  H13Y18948   3.802   5.870   4.093  0.2170 -1.7127 -1.0719
  168SAPE  C31418949   3.951   5.995   4.203  0.4276  0.1032 -0.2819
  168SAPE  H14X18950   4.060   6.015   4.209  0.2407  1.2015 -0.3454
  168SAPE  H14Y18951   3.924   5.943   4.297  1.3060 -0.4802 -0.3438
  168SAPE  C31518952   3.901   6.141   4.188 -0.0178  0.4562  0.4055
  168SAPE  H15X18953   3.959   6.198   4.113  1.7195  1.1968  2.2288
  168SAPE  H15Y18954   3.932   6.186   4.285 -2.2310  1.5492  0.6685
  168SAPE  C31618955   3.750   6.164   4.193  0.3613 -0.3223 -0.1153
  168SAPE  H16X18956   3.708   6.077   4.249  1.5019 -0.2098  0.9579
  168SAPE  H16Y18957   3.696   6.148   4.098 -2.2332  0.6306  1.1201
  168SAPE  C31718958   3.710   6.297   4.254  0.1498 -0.0223 -0.7559
  168SAPE  H17X18959   3.613   6.325   4.206  0.6313 -2.1029 -3.1831
  168SAPE  H17Y18960   3.786   6.375   4.233  1.0004 -0.8655 -0.8734
  168SAPE  C31818961   3.680   6.293   4.404 -0.5920  0.1024  0.3249
  168SAPE  H18X18962   3.621   6.203   4.433  0.5038 -0.4202  0.9999
  168SAPE  H18Y18963   3.609   6.376   4.424 -1.4792 -0.0162 -2.0632
  168SAPE  H18Z18964   3.768   6.299   4.472  0.1703  1.7539 -0.7311
  169SAPE     N18965   2.689   3.337   2.016 -0.3018 -0.2592  0.3164
  169SAPE   HN118966   2.725   3.240   2.026 -2.9376 -1.4853 -0.8906
  169SAPE   HN218967   2.758   3.403   1.977  0.1265  0.1840  1.7743
  169SAPE   HN318968   2.666   3.366   2.113  0.5310 -1.4122  0.8872
  169SAPE   C1218969   2.575   3.348   1.916 -0.2124  0.5282  0.4344
  169SAPE  H12A18970   2.622   3.298   1.828  1.9397  0.7196  1.4241
  169SAPE  H12B18971   2.560   3.454   1.886 -1.0797  0.3049  0.0322
  169SAPE   C1118972   2.456   3.258   1.955  0.3150 -0.5357 -0.5288
  169SAPE  H11A18973   2.378   3.270   1.877 -1.5796 -2.5968  0.9325
  169SAPE  H11B18974   2.415   3.299   2.049 -0.0988 -1.0104 -0.4964
  169SAPE     P18975   2.371   3.020   2.006  0.1392 -0.0181 -0.0036
  169SAPE   O1318976   2.234   3.080   1.994  0.2762 -0.2094  0.0829
  169SAPE   O1418977   2.384   2.891   1.931 -0.0979 -0.6623  0.5522
  169SAPE   O1218978   2.490   3.122   1.967  0.2980 -0.3634  0.5094
  169SAPE   O1118979   2.398   2.975   2.152 -0.3014  0.5935  0.3023
  169SAPE    C118980   2.408   3.066   2.260 -0.0566 -0.2736  0.3970
  169SAPE    HA18981   2.505   3.120   2.250 -1.8548  3.2452  0.3645
  169SAPE    HB18982   2.330   3.145   2.260  0.1576 -0.0502 -0.5046
  169SAPE    C218983   2.394   2.982   2.398 -0.6266  0.0780 -0.6221
  169SAPE    HS18984   2.386   3.058   2.479 -0.3609  0.6411 -1.1121
  169SAPE   O2118985   2.509   2.898   2.404  0.7076 -0.6236  0.2208
  169SAPE   C2118986   2.614   2.969   2.455  0.2730 -0.3034  0.1602
  169SAPE   O2218987   2.612   3.087   2.488 -0.1749 -0.2382 -0.3076
  169SAPE   C2218988   2.732   2.873   2.473 -0.0707 -0.8415  0.4651
  169SAPE   H2R18989   2.697   2.768   2.475 -2.3230 -0.2082 -1.6893
  169SAPE   H2S18990   2.814   2.887   2.399  0.5443  0.3961  1.3492
  169SAPE    C318991   2.262   2.903   2.394  0.0923 -0.0712 -0.0861
  169SAPE    HX18992   2.237   2.846   2.302 -0.7311 -2.0867  1.3152
  169SAPE    HY18993   2.187   2.982   2.371  2.3761  1.2490 -3.9090
  169SAPE   O3118994   2.238   2.821   2.513 -0.2145 -0.4283  0.3620
  169SAPE   C3118995   2.293   2.702   2.498  0.7215  0.3076 -0.3477
  169SAPE   O3218996   2.344   2.658   2.399 -0.3365  0.5551 -0.1073
  169SAPE   C3218997   2.289   2.614   2.632  0.5594 -0.2705 -0.0622
  169SAPE   H2X18998   2.377   2.547   2.626  1.6235  0.8854  1.6572
  169SAPE   H2Y18999   2.194   2.557   2.645  0.1116  0.9331  2.6176
  169SAPE   C2319000   2.807   2.913   2.601 -0.1584  0.0197 -0.2912
  169SAPE   H3R19001   2.826   3.022   2.605  1.5481 -0.2710  0.4396
  169SAPE   H3S19002   2.907   2.865   2.595 -1.0096 -2.1992  1.7036
  169SAPE   C2419003   2.742   2.842   2.720  0.4121  0.5863 -0.1630
  169SAPE   H4R19004   2.819   2.806   2.793  0.9092 -3.6115 -2.4505
  169SAPE   H4S19005   2.700   2.746   2.684  0.8110  0.5781 -0.6152
  169SAPE   C2519006   2.635   2.916   2.805  0.3303  0.0008  0.9353
  169SAPE   H5R19007   2.535   2.931   2.763  0.9104 -1.4056 -1.1040
  169SAPE   C2619008   2.660   2.955   2.930  0.0738 -0.5789 -0.3040
  169SAPE   H6R19009   2.582   3.006   2.988  0.5548 -0.3900  0.1871
  169SAPE   C2719010   2.791   2.952   3.004  0.1983 -0.6139  0.0160
  169SAPE   H7R19011   2.868   3.016   2.957  1.3404 -2.3300 -0.5589
  169SAPE   H7S19012   2.818   2.845   2.996 -1.2407 -1.0278  0.3619
  169SAPE   C2819013   2.767   2.976   3.152  0.4038 -0.0286 -0.1522
  169SAPE   H8R19014   2.677   2.938   3.204  1.3908 -0.1471  1.5347
  169SAPE   C2919015   2.853   3.041   3.235 -0.1153  0.7285 -0.5387
  169SAPE   H9R19016   2.832   3.047   3.343 -1.3019  0.0666 -0.7142
  169SAPE  C21019017   2.981   3.112   3.192 -0.0945  0.1679 -0.3114
  169SAPE  H10R19018   2.965   3.152   3.090 -2.2794 -1.2010 -0.5768
  169SAPE  H10S19019   3.059   3.033   3.187  2.3315  2.4298 -0.1431
  169SAPE  C21119020   3.022   3.228   3.277 -0.5486 -0.0431  0.9105
  169SAPE  H11R19021   3.044   3.318   3.217  3.0304 -0.3755  1.5532
  169SAPE  C21219022   3.051   3.227   3.406 -0.3762  0.0264 -0.6611
  169SAPE  H12R19023   3.103   3.314   3.448  0.8938 -1.3623  0.7717
  169SAPE  C21319024   3.039   3.120   3.511  0.1788  0.6413 -0.1944
  169SAPE  H13R19025   3.142   3.113   3.551  1.9268 -0.0369 -4.2979
  169SAPE  H13S19026   3.016   3.022   3.463 -1.5870  1.4028 -1.0044
  169SAPE  C21419027   2.942   3.141   3.617 -0.4432  0.0955  0.5533
  169SAPE  H14R19028   2.844   3.094   3.603 -0.2435 -0.0484 -0.3781
  169SAPE  C21519029   2.969   3.192   3.738 -0.6205  0.5054  0.2278
  169SAPE  H15R19030   2.887   3.197   3.811 -2.1636  1.6427 -1.5195
  169SAPE  C21619031   3.104   3.250   3.779 -0.3879  0.3937 -0.4102
  169SAPE  H16R19032   3.186   3.228   3.708 -0.7326 -1.8396 -0.1899
  169SAPE  H16S19033   3.129   3.208   3.879 -1.7888 -1.1096 -0.6522
  169SAPE  C21719034   3.101   3.406   3.787  0.5844  0.4784  0.3515
  169SAPE  H17R19035   3.071   3.434   3.683  2.1224 -1.3747 -0.6353
  169SAPE  H17S19036   3.208   3.432   3.792  0.9210 -0.6335 -0.6468
  169SAPE  C21819037   3.022   3.464   3.903 -0.4303  0.2290  0.1015
  169SAPE  H18R19038   3.075   3.402   3.978  1.1788  0.5156 -0.7300
  169SAPE  H18S19039   2.914   3.439   3.903 -0.7553  1.3608  2.4098
  169SAPE  C21919040   3.032   3.613   3.936  0.2896  0.2767 -0.3542
  169SAPE  H19R19041   2.940   3.664   3.899  0.4813  1.1603  0.3496
  169SAPE  H19S19042   3.117   3.666   3.888  0.9324  0.6771  1.1791
  169SAPE  C22019043   3.055   3.645   4.083  0.6505 -0.2137  0.0400
  169SAPE  H20R19044   3.159   3.617   4.109  0.7802  1.6017  1.6899
  169SAPE  H20S19045   2.984   3.594   4.152  1.4023  0.8046  1.6179
  169SAPE  H20T19046   3.043   3.755   4.095  0.2714 -0.2722  0.2185
  169SAPE   C3319047   2.290   2.705   2.756 -0.0702 -0.0440 -0.6560
  169SAPE   H3X19048   2.192   2.757   2.760 -0.2125 -0.2030 -1.6898
  169SAPE   H3Y19049   2.379   2.771   2.749  1.8217 -1.8633  3.1361
  169SAPE   C3419050   2.314   2.638   2.888  0.1749  0.0635  0.3489
  169SAPE   H4X19051   2.395   2.561   2.889 -1.5962 -1.9296 -0.9690
  169SAPE   H4Y19052   2.227   2.571   2.907  0.5284 -0.2476  0.8867
  169SAPE   C3519053   2.329   2.733   3.008  0.0892 -0.9407 -0.3234
  169SAPE   H5X19054   2.261   2.820   3.014  2.1315  0.7766 -0.9349
  169SAPE   H5Y19055   2.436   2.765   3.009 -0.7760  2.3297 -1.5734
  169SAPE   C3619056   2.306   2.658   3.139  0.2022 -0.0475 -0.5481
  169SAPE   H6X19057   2.381   2.578   3.150  0.8434  0.4599 -1.1325
  169SAPE   H6Y19058   2.202   2.618   3.139 -0.1456  0.6909  1.8647
  169SAPE   C3719059   2.308   2.763   3.254  0.1189 -0.2192  0.2004
  169SAPE   H7X19060   2.255   2.855   3.222  1.2492  0.2079 -0.5030
  169SAPE   H7Y19061   2.413   2.793   3.276 -0.1626 -0.0252  1.3678
  169SAPE   C3819062   2.245   2.704   3.379 -0.3719  0.1152  0.3934
  169SAPE   H8X19063   2.308   2.618   3.413  0.1285  0.1839 -0.3530
  169SAPE   H8Y19064   2.143   2.666   3.356 -0.2139  0.4345 -0.8975
  169SAPE   C3919065   2.249   2.812   3.484 -0.7234  0.1306 -0.5300
  169SAPE   H9X19066   2.193   2.903   3.456  1.2373  0.4989 -3.7648
  169SAPE   H9Y19067   2.355   2.842   3.490 -0.5829 -0.5871  1.0651
  169SAPE  C31019068   2.204   2.763   3.621  0.2017 -0.4179  0.0508
  169SAPE  H10X19069   2.261   2.672   3.649 -0.1889 -0.6738  0.0264
  169SAPE  H10Y19070   2.097   2.737   3.602 -0.2132  2.5325 -2.3943
  169SAPE  C31119071   2.243   2.843   3.739 -0.3807 -0.3789  0.3775
  169SAPE  H11X19072   2.207   2.947   3.730  0.1130 -0.1102  1.3948
  169SAPE  H11Y19073   2.354   2.851   3.743  0.1862 -3.8861 -2.6052
  169SAPE  C31219074   2.184   2.787   3.872 -0.1211  0.1583  0.5466
  169SAPE  H12X19075   2.234   2.697   3.914 -3.2344 -1.5686  0.8903
  169SAPE  H12Y19076   2.084   2.742   3.854  0.2582 -0.5297  0.1185
  169SAPE  C31319077   2.164   2.892   3.983 -0.0461  0.9108  0.3786
  169SAPE  H13X19078   2.099   2.847   4.060  1.8853 -1.2596  0.8662
  169SAPE  H13Y19079   2.120   2.983   3.936  0.4545  0.8630 -0.1998
  169SAPE  C31419080   2.293   2.954   4.039  0.9343 -0.6376  0.0377
  169SAPE  H14X19081   2.359   3.002   3.964  0.7558 -0.8681 -0.2689
  169SAPE  H14Y19082   2.341   2.867   4.089 -1.0313 -1.9211 -0.1725
  169SAPE  C31519083   2.259   3.054   4.155  0.9666 -0.3333 -0.3322
  169SAPE  H15X19084   2.351   3.092   4.206  1.1303 -1.3292  0.1472
  169SAPE  H15Y19085   2.218   2.994   4.239  1.7975  2.2704  2.1164
  169SAPE  C31619086   2.165   3.166   4.103 -0.1038 -0.5024  0.2886
  169SAPE  H16X19087   2.066   3.119   4.089 -0.2886 -0.1406  0.3609
  169SAPE  H16Y19088   2.201   3.210   4.007  1.9866 -0.2549  1.1248
  169SAPE  C31719089   2.128   3.279   4.198 -0.5977  0.3474  0.0687
  169SAPE  H17X19090   2.220   3.338   4.215 -0.2924  0.6381 -2.2724
  169SAPE  H17Y19091   2.100   3.231   4.294 -2.3021 -0.1848 -0.6540
  169SAPE  C31819092   2.012   3.358   4.150 -0.1921 -0.1849  0.6061
  169SAPE  H18X19093   2.045   3.408   4.056  2.3837 -2.2502  0.2777
  169SAPE  H18Y19094   1.985   3.439   4.221 -0.4442  0.3003 -0.0288
  169SAPE  H18Z19095   1.927   3.289   4.133  0.8131 -1.3911  0.3581
  170SAPE     N19096   0.819   5.164   2.283 -0.1778  0.7551  0.0207
  170SAPE   HN119097   0.796   5.102   2.203 -1.2014 -1.1063  1.6464
  170SAPE   HN219098   0.741   5.232   2.292  0.1086  1.2044 -0.8495
  170SAPE   HN319099   0.908   5.213   2.263  0.5390  0.0090  1.2226
  170SAPE   C1219100   0.850   5.095   2.408 -0.0910  0.1613  0.0079
  170SAPE  H12A19101   0.783   5.009   2.429 -0.8414  1.0193  1.2170
  170SAPE  H12B19102   0.845   5.168   2.491 -3.0510 -0.6857  0.6819
  170SAPE   C1119103   0.996   5.042   2.399 -0.2035 -0.0258  0.1256
  170SAPE  H11A19104   1.024   4.998   2.497  1.9213  0.6034 -0.1412
  170SAPE  H11B19105   1.058   5.135   2.391  1.3777 -0.8706  1.8163
  170SAPE     P19106   1.153   4.897   2.260  0.2866  0.2689 -0.2212
  170SAPE   O1319107   1.159   4.876   2.115 -0.1066 -0.3030  0.1315
  170SAPE   O1419108   1.259   4.979   2.323 -0.0380 -0.1125  0.6652
  170SAPE   O1219109   1.019   4.953   2.294 -0.3121  0.1863  0.2167
  170SAPE   O1119110   1.158   4.756   2.346  0.1234  0.3869 -0.7172
  170SAPE    C119111   1.054   4.660   2.323  0.1266 -0.0472  0.1291
  170SAPE    HA19112   1.004   4.671   2.224 -0.5742 -3.5131 -0.0303
  170SAPE    HB19113   1.105   4.562   2.334 -2.8829 -1.8922 -1.1627
  170SAPE    C219114   0.938   4.661   2.430  0.7696  0.0011 -0.2800
  170SAPE    HS19115   0.897   4.764   2.422  2.2915  0.7756  1.2528
  170SAPE   O2119116   0.997   4.634   2.555  0.6272  0.1147  0.2169
  170SAPE   C2119117   0.947   4.705   2.660 -0.0700 -0.4917  0.1916
  170SAPE   O2219118   0.857   4.785   2.661 -0.0622  0.1904  0.2838
  170SAPE   C2219119   1.055   4.676   2.777  0.0477  0.0834  0.2545
  170SAPE   H2R19120   1.055   4.566   2.788 -3.7266 -0.0427  0.3984
  170SAPE   H2S19121   1.150   4.719   2.739 -0.3093  0.2269 -0.4947
  170SAPE    C319122   0.823   4.555   2.401  0.1797 -1.7170  0.1201
  170SAPE    HX19123   0.884   4.466   2.373  2.1397 -0.6156  0.6715
  170SAPE    HY19124   0.772   4.595   2.312  0.4736  1.1510  1.1416
  170SAPE   O3119125   0.738   4.531   2.514  0.3070  0.0201 -0.2168
  170SAPE   C3119126   0.707   4.411   2.554  0.3829 -0.6494  0.7770
  170SAPE   O3219127   0.751   4.312   2.504 -0.4462  0.5429 -0.3327
  170SAPE   C3219128   0.602   4.416   2.665  0.1431 -0.0883  0.2947
  170SAPE   H2X19129   0.515   4.479   2.638  0.4286  0.3490  0.3677
  170SAPE   H2Y19130   0.647   4.479   2.746  1.5164  0.1922 -0.6535
  170SAPE   C2319131   1.017   4.733   2.916 -0.0678  0.2546  0.8529
  170SAPE   H3R19132   0.921   4.697   2.958  0.2324  0.7793  2.0540
  170SAPE   H3S19133   1.004   4.843   2.917 -1.6252  0.1230 -0.4854
  170SAPE   C2419134   1.133   4.694   3.019  0.3144 -0.6681 -0.3981
  170SAPE   H4R19135   1.146   4.585   3.004 -0.0972 -0.7303 -0.3157
  170SAPE   H4S19136   1.092   4.699   3.122  0.8562 -0.4116 -0.1940
  170SAPE   C2519137   1.260   4.773   3.002  0.1316 -0.2508 -0.0931
  170SAPE   H5R19138   1.304   4.770   2.902 -0.1294 -1.4082 -0.1948
  170SAPE   C2619139   1.303   4.868   3.092  0.1881  1.2188 -0.2444
  170SAPE   H6R19140   1.391   4.929   3.067  0.9439 -0.5557 -2.2050
  170SAPE   C2719141   1.243   4.899   3.227 -0.3908 -0.2419  0.6826
  170SAPE   H7R19142   1.133   4.904   3.212 -0.0274  1.7083 -1.9362
  170SAPE   H7S19143   1.277   5.001   3.257 -0.2393 -0.4410  1.1975
  170SAPE   C2819144   1.278   4.812   3.338 -0.3699  0.5426  0.5608
  170SAPE   H8R19145   1.355   4.736   3.321 -0.4837  0.1086  1.8859
  170SAPE   C2919146   1.236   4.841   3.467  0.0891 -0.0045  0.6359
  170SAPE   H9R19147   1.260   4.779   3.554 -1.8579  0.3331  1.4795
  170SAPE  C21019148   1.130   4.942   3.500  0.4276  0.6071  0.0107
  170SAPE  H10R19149   1.067   4.888   3.574  0.8472 -0.7207 -0.5794
  170SAPE  H10S19150   1.066   4.957   3.411 -0.7846 -0.9773  0.5833
  170SAPE  C21119151   1.176   5.078   3.539 -0.3480  0.1797  0.5071
  170SAPE  H11R19152   1.284   5.095   3.528 -0.0639 -0.3340  2.1552
  170SAPE  C21219153   1.112   5.165   3.618  0.7352 -0.7544 -0.2053
  170SAPE  H12R19154   1.155   5.265   3.629 -0.3438 -0.0332 -2.0799
  170SAPE  C21319155   0.963   5.166   3.657  0.3507 -0.0189  0.0105
  170SAPE  H13R19156   0.912   5.079   3.609  1.2780  0.8255 -2.7180
  170SAPE  H13S19157   0.912   5.257   3.618  1.8483  0.1403 -1.7175
  170SAPE  C21419158   0.957   5.156   3.807  0.5892 -0.3423  0.4312
  170SAPE  H14R19159   1.007   5.069   3.852 -0.9150 -0.1790  2.5787
  170SAPE  C21519160   0.912   5.239   3.900  0.7693  0.6496 -0.1732
  170SAPE  H15R19161   0.929   5.216   4.006  0.3837  0.9724 -0.0377
  170SAPE  C21619162   0.853   5.373   3.880 -0.0888 -0.3481  0.6491
  170SAPE  H16R19163   0.771   5.405   3.948 -0.2105  2.3936 -0.6210
  170SAPE  H16S19164   0.804   5.377   3.780  0.0751  1.3443  0.6076
  170SAPE  C21719165   0.963   5.477   3.896  0.7203 -0.1822  0.3368
  170SAPE  H17R19166   0.918   5.579   3.893  2.2239  0.4895 -1.4032
  170SAPE  H17S19167   1.020   5.477   3.801  0.0194 -1.6330 -0.1109
  170SAPE  C21819168   1.055   5.473   4.014 -0.7127 -0.1007  0.4770
  170SAPE  H18R19169   1.131   5.552   4.000 -0.5065 -0.5397 -1.1665
  170SAPE  H18S19170   1.113   5.379   3.999  0.4510  0.6668  0.0128
  170SAPE  C21919171   0.991   5.476   4.151 -0.2283 -0.3590  0.0474
  170SAPE  H19R19172   1.061   5.437   4.228 -0.6306 -1.5843 -0.1829
  170SAPE  H19S19173   0.902   5.408   4.146 -2.4558  2.4518 -1.4728
  170SAPE  C22019174   0.928   5.606   4.194 -0.7743  0.3577 -0.5657
  170SAPE  H20R19175   1.003   5.688   4.200 -3.0688  2.4954  1.6358
  170SAPE  H20S19176   0.905   5.593   4.302 -0.1371  1.0453 -0.3372
  170SAPE  H20T19177   0.837   5.637   4.139  0.2703  3.1778 -0.8555
  170SAPE   C3319178   0.553   4.276   2.694 -0.1534 -0.5985  0.3223
  170SAPE   H3X19179   0.631   4.216   2.746  1.4744  1.6162  0.6027
  170SAPE   H3Y19180   0.532   4.228   2.596 -0.0365  0.3063 -0.1564
  170SAPE   C3419181   0.423   4.279   2.776 -0.2581 -0.2744  0.4493
  170SAPE   H4X19182   0.364   4.189   2.750 -2.3232  1.0650  0.2112
  170SAPE   H4Y19183   0.364   4.369   2.747  1.6964  0.6406 -0.8998
  170SAPE   C3519184   0.439   4.268   2.924  0.2170  0.5699  0.4927
  170SAPE   H5X19185   0.465   4.162   2.946 -1.0330  0.2616  0.5638
  170SAPE   H5Y19186   0.337   4.281   2.965 -0.2278 -1.7288  0.2513
  170SAPE   C3619187   0.520   4.373   2.995  0.5615  0.2320 -0.0689
  170SAPE   H6X19188   0.498   4.472   2.949 -0.0371  0.6010  0.9858
  170SAPE   H6Y19189   0.627   4.347   2.983  0.0361 -2.3649  0.3493
  170SAPE   C3719190   0.487   4.380   3.145  0.4474  0.2009  1.0836
  170SAPE   H7X19191   0.378   4.392   3.160  0.1001 -0.0961 -0.9511
  170SAPE   H7Y19192   0.539   4.468   3.188  0.0456  0.5812  0.7932
  170SAPE   C3819193   0.518   4.259   3.225 -1.1388  0.6900 -0.2969
  170SAPE   H8X19194   0.628   4.247   3.216 -0.9487  1.0315  1.2731
  170SAPE   H8Y19195   0.480   4.163   3.183  1.0337  0.4635 -1.9286
  170SAPE   C3919196   0.478   4.252   3.374  0.2465 -0.2921 -0.3011
  170SAPE   H9X19197   0.471   4.146   3.408 -0.6861  0.4470  2.0134
  170SAPE   H9Y19198   0.374   4.290   3.370  0.0386 -0.8665 -0.4959
  170SAPE  C31019199   0.562   4.335   3.468 -0.5176 -0.4743  0.6864
  170SAPE  H10X19200   0.568   4.444   3.447  0.0738 -0.2900  1.7699
  170SAPE  H10Y19201   0.662   4.289   3.480 -0.4875 -1.2218 -1.8856
  170SAPE  C31119202   0.492   4.339   3.610 -0.2696 -0.5688 -0.3180
  170SAPE  H11X19203   0.464   4.235   3.638 -2.7093  0.4954  1.5088
  170SAPE  H11Y19204   0.409   4.412   3.598  0.9746  1.1296  1.0091
  170SAPE  C31219205   0.577   4.390   3.724 -0.5502 -0.1209 -0.2755
  170SAPE  H12X19206   0.593   4.497   3.703  1.0319 -0.3928 -0.5458
  170SAPE  H12Y19207   0.675   4.339   3.736  0.9497  2.7647  0.3661
  170SAPE  C31319208   0.493   4.388   3.850 -0.0330  0.0872  0.4691
  170SAPE  H13X19209   0.445   4.288   3.855  2.2793 -1.0789  0.5176
  170SAPE  H13Y19210   0.416   4.465   3.824  0.5595  0.1183 -1.3118
  170SAPE  C31419211   0.559   4.427   3.976 -0.2208  0.1270  0.0086
  170SAPE  H14X19212   0.606   4.527   3.975 -0.6256  0.3116 -0.4708
  170SAPE  H14Y19213   0.637   4.348   3.987 -0.0226  0.3293  0.0730
  170SAPE  C31519214   0.471   4.429   4.103 -0.4623  0.4518 -0.1469
  170SAPE  H15X19215   0.419   4.331   4.109  0.3554  0.0583  0.7373
  170SAPE  H15Y19216   0.397   4.511   4.088  0.3852  1.0208 -1.4425
  170SAPE  C31619217   0.552   4.461   4.232  0.4323  0.0567  0.2353
  170SAPE  H16X19218   0.627   4.540   4.211 -0.0195 -0.2407 -3.1705
  170SAPE  H16Y19219   0.612   4.373   4.263  0.2826 -0.1688 -0.1056
  170SAPE  C31719220   0.454   4.507   4.343  0.7245  0.0386 -0.3901
  170SAPE  H17X19221   0.371   4.433   4.350 -0.2197  1.1510  0.8490
  170SAPE  H17Y19222   0.402   4.603   4.322  0.5617  0.1612  0.5005
  170SAPE  C31819223   0.521   4.500   4.479  0.0140 -0.5421  0.1712
  170SAPE  H18X19224   0.438   4.513   4.552  0.6310  2.0972  0.5301
  170SAPE  H18Y19225   0.590   4.586   4.497 -0.6302 -0.0153  0.1832
  170SAPE  H18Z19226   0.556   4.400   4.509  0.2079 -0.4096  0.3903
  171SAPE     N19227   1.737   3.284   2.093 -0.2801  0.3418 -0.0933
  171SAPE   HN119228   1.693   3.374   2.069 -2.3510 -0.4766  0.4631
  171SAPE   HN219229   1.834   3.278   2.053  0.3629 -1.1741  1.5479
  171SAPE   HN319230   1.684   3.209   2.043 -0.5591  0.0759  0.5855
  171SAPE   C1219231   1.730   3.251   2.241  0.3689 -0.0424 -0.1531
  171SAPE  H12A19232   1.784   3.317   2.312 -1.2553 -1.6793  2.8617
  171SAPE  H12B19233   1.786   3.156   2.253  2.2106  1.2432  2.4033
  171SAPE   C1119234   1.584   3.232   2.285 -0.5405 -0.7252 -0.0660
  171SAPE  H11A19235   1.602   3.191   2.387  2.4770  0.5640  0.0414
  171SAPE  H11B19236   1.544   3.150   2.222 -1.8997 -0.4074  0.3564
  171SAPE     P19237   1.487   3.457   2.374 -0.2525  0.1975  0.3065
  171SAPE   O1319238   1.530   3.582   2.306  0.0171  0.5866 -0.1683
  171SAPE   O1419239   1.347   3.456   2.426  0.3443  0.7299 -0.1249
  171SAPE   O1219240   1.496   3.346   2.264 -0.1360 -0.0790  0.6625
  171SAPE   O1119241   1.597   3.421   2.486  0.0060  0.0563  0.6132
  171SAPE    C119242   1.634   3.534   2.570  0.5664  0.7641 -0.5687
  171SAPE    HA19243   1.702   3.597   2.508  1.7624 -2.9956 -3.4734
  171SAPE    HB19244   1.543   3.587   2.605 -0.1110 -0.5155 -0.3247
  171SAPE    C219245   1.706   3.486   2.704  0.1666 -0.3603 -0.6568
  171SAPE    HS19246   1.706   3.570   2.777 -0.1471  1.1930 -2.3730
  171SAPE   O2119247   1.840   3.454   2.681  0.3905 -0.1506 -0.1315
  171SAPE   C2119248   1.922   3.558   2.663  0.0296 -0.7954 -0.4845
  171SAPE   O2219249   1.896   3.677   2.682  0.3603 -0.1518  0.0860
  171SAPE   C2219250   2.058   3.501   2.639  0.3460 -0.1839 -0.3103
  171SAPE   H2R19251   2.095   3.475   2.741 -0.3393  0.8252  0.2110
  171SAPE   H2S19252   2.041   3.406   2.584 -1.3854  0.2371 -0.5640
  171SAPE    C319253   1.625   3.367   2.775  0.2845  0.2501  0.6204
  171SAPE    HX19254   1.634   3.274   2.715  0.6401 -0.2035  1.3715
  171SAPE    HY19255   1.521   3.408   2.773  1.3104  3.0387  0.5803
  171SAPE   O3119256   1.662   3.357   2.916 -0.4590 -0.1264 -0.0847
  171SAPE   C3119257   1.751   3.272   2.947  0.4773  0.3551 -0.0183
  171SAPE   O3219258   1.819   3.204   2.871  0.2063  0.2915  0.3088
  171SAPE   C3219259   1.767   3.276   3.095  0.0708  0.5294  0.1000
  171SAPE   H2X19260   1.669   3.288   3.145 -0.0359 -1.1134  0.3410
  171SAPE   H2Y19261   1.821   3.370   3.121  1.1507  0.3377 -1.3247
  171SAPE   C2319262   2.171   3.587   2.575 -0.4484 -0.6563  0.0003
  171SAPE   H3R19263   2.197   3.665   2.650  1.6743 -1.4980  0.2205
  171SAPE   H3S19264   2.145   3.627   2.475  0.3312  1.1636  0.4879
  171SAPE   C2419265   2.297   3.510   2.548  0.1575 -0.0821  0.0471
  171SAPE   H4R19266   2.276   3.441   2.464 -1.1906 -0.0557  0.3401
  171SAPE   H4S19267   2.311   3.439   2.632  1.0035 -1.1548 -0.9768
  171SAPE   C2519268   2.424   3.581   2.504 -0.1573  0.6197 -0.8266
  171SAPE   H5R19269   2.419   3.632   2.406  1.3840  1.5645 -0.4510
  171SAPE   C2619270   2.540   3.581   2.571 -0.2412 -0.2546 -0.4375
  171SAPE   H6R19271   2.630   3.628   2.530  0.1610 -1.6693 -1.2430
  171SAPE   C2719272   2.571   3.513   2.706  0.4153  0.5337 -0.2602
  171SAPE   H7R19273   2.479   3.480   2.759  1.8384 -2.5021  0.5476
  171SAPE   H7S19274   2.628   3.582   2.772  0.2279  0.2559  0.2047
  171SAPE   C2819275   2.647   3.388   2.697  0.0328  0.0082  0.6514
  171SAPE   H8R19276   2.674   3.351   2.597  0.3946 -1.2475  1.1854
  171SAPE   C2919277   2.706   3.330   2.804  0.0805 -0.0298 -0.2479
  171SAPE   H9R19278   2.767   3.240   2.787  1.8152  0.9354  0.6009
  171SAPE  C21019279   2.680   3.363   2.948 -0.5489 -0.4875  0.4926
  171SAPE  H10R19280   2.660   3.270   3.004 -1.5358 -0.4161  0.2874
  171SAPE  H10S19281   2.592   3.431   2.957  0.1779  0.5569 -0.1524
  171SAPE  C21119282   2.781   3.460   3.011 -0.5026  0.0413 -0.1205
  171SAPE  H11R19283   2.874   3.482   2.956 -0.4667  0.2868  0.0383
  171SAPE  C21219284   2.778   3.518   3.135 -0.1982  0.3596  0.4142
  171SAPE  H12R19285   2.855   3.592   3.159 -1.7048  1.9394  0.5555
  171SAPE  C21319286   2.669   3.495   3.236  0.4499 -1.3421 -0.1125
  171SAPE  H13R19287   2.574   3.456   3.194 -0.7350  1.1728  0.1284
  171SAPE  H13S19288   2.635   3.598   3.260 -2.2274 -1.7197 -1.8481
  171SAPE  C21419289   2.717   3.420   3.356  0.6426 -0.2004 -0.2262
  171SAPE  H14R19290   2.708   3.310   3.359 -2.0372 -0.0708  3.4484
  171SAPE  C21519291   2.767   3.478   3.468 -0.1815  0.8602  0.0191
  171SAPE  H15R19292   2.791   3.415   3.556 -3.5061  0.1937  0.5569
  171SAPE  C21619293   2.783   3.620   3.488  0.1080 -0.8144 -0.4778
  171SAPE  H16R19294   2.829   3.671   3.401  0.6381  1.6259  1.1213
  171SAPE  H16S19295   2.851   3.646   3.572 -0.6641  1.3578 -0.4710
  171SAPE  C21719296   2.649   3.694   3.517 -0.3084  0.5447 -0.1808
  171SAPE  H17R19297   2.571   3.671   3.441  1.3648  1.6785 -2.3648
  171SAPE  H17S19298   2.668   3.804   3.523 -0.9417  0.6215  0.4382
  171SAPE  C21819299   2.589   3.671   3.659 -0.1873  0.3669  0.2118
  171SAPE  H18R19300   2.669   3.658   3.736  0.6452 -1.6369 -0.9278
  171SAPE  H18S19301   2.529   3.578   3.654 -1.9807  1.5199 -0.3686
  171SAPE  C21919302   2.491   3.785   3.690  0.8118  0.3199 -0.2862
  171SAPE  H19R19303   2.426   3.793   3.600 -0.3150  1.4503  0.5839
  171SAPE  H19S19304   2.548   3.877   3.715  0.5570  0.4370 -0.1281
  171SAPE  C22019305   2.402   3.758   3.814 -0.2697  0.2134  0.1515
  171SAPE  H20R19306   2.460   3.753   3.909  1.9724  2.4410 -0.9781
  171SAPE  H20S19307   2.330   3.673   3.810 -1.0330  0.8885 -1.4389
  171SAPE  H20T19308   2.335   3.846   3.829 -2.2122 -1.2962  0.7872
  171SAPE   C3319309   1.842   3.153   3.158 -0.6215 -0.2768  0.1416
  171SAPE   H3X19310   1.949   3.146   3.127 -0.6059 -1.6188  0.4186
  171SAPE   H3Y19311   1.795   3.057   3.128 -1.2934 -0.5120  1.8250
  171SAPE   C3419312   1.825   3.152   3.313  0.6119 -0.1133 -0.0790
  171SAPE   H4X19313   1.717   3.128   3.330  0.2868  0.1991 -1.6290
  171SAPE   H4Y19314   1.849   3.251   3.356  4.1132 -0.7960 -0.1816
  171SAPE   C3519315   1.911   3.042   3.377  0.0352 -0.9072 -0.5143
  171SAPE   H5X19316   1.959   3.080   3.470 -1.9753  1.2156 -0.2614
  171SAPE   H5Y19317   1.992   3.024   3.303 -0.4699  0.1203 -1.3499
  171SAPE   C3619318   1.850   2.902   3.396  0.5161 -0.8937 -0.2751
  171SAPE   H6X19319   1.930   2.825   3.403 -0.3352 -1.8014 -0.1782
  171SAPE   H6Y19320   1.810   2.876   3.295  0.0454  3.6560 -1.4527
  171SAPE   C3719321   1.765   2.877   3.519 -0.5187  0.4675  0.1268
  171SAPE   H7X19322   1.729   2.772   3.523 -0.3728  0.4332  0.5442
  171SAPE   H7Y19323   1.673   2.934   3.493  0.0996  0.2866 -2.8571
  171SAPE   C3819324   1.827   2.903   3.662 -0.3853  0.3458  0.7911
  171SAPE   H8X19325   1.894   2.991   3.656  2.2011 -1.5833 -1.5891
  171SAPE   H8Y19326   1.898   2.820   3.682 -0.0404  0.1167 -1.1397
  171SAPE   C3919327   1.729   2.899   3.774 -0.0624 -0.8083  0.4374
  171SAPE   H9X19328   1.634   2.851   3.740 -0.9411  1.6515 -0.7919
  171SAPE   H9Y19329   1.701   3.005   3.793  2.4006 -0.1862  0.9853
  171SAPE  C31019330   1.791   2.838   3.899 -0.1197  0.3060 -0.2923
  171SAPE  H10X19331   1.882   2.900   3.915 -0.4914  0.4479  1.4207
  171SAPE  H10Y19332   1.824   2.732   3.884 -0.7406  0.1176 -0.3534
  171SAPE  C31119333   1.702   2.837   4.026 -0.5451 -0.2600 -0.8462
  171SAPE  H11X19334   1.603   2.802   3.990 -0.1575 -0.6515 -1.5719
  171SAPE  H11Y19335   1.690   2.945   4.050 -0.8233 -0.1668 -1.3921
  171SAPE  C31219336   1.753   2.771   4.156  0.4977 -0.5225  0.9072
  171SAPE  H12X19337   1.846   2.822   4.190  1.2293 -0.3757 -1.1484
  171SAPE  H12Y19338   1.780   2.664   4.146  0.4211 -0.4950  0.3629
  171SAPE  C31319339   1.651   2.781   4.269  0.1622  0.4312 -0.2691
  171SAPE  H13X19340   1.583   2.694   4.254 -0.2689  0.4812  1.1664
  171SAPE  H13Y19341   1.591   2.875   4.267 -1.7076 -0.6630  0.8067
  171SAPE  C31419342   1.704   2.765   4.414 -0.2847 -0.3951  0.2125
  171SAPE  H14X19343   1.764   2.674   4.432  1.9974  1.1816  1.0587
  171SAPE  H14Y19344   1.608   2.745   4.466 -1.3396  1.5033 -0.8831
  171SAPE  C31519345   1.777   2.892   4.470 -0.4932  0.1989  0.9936
  171SAPE  H15X19346   1.734   2.908   4.571  0.9865 -0.8380  1.8268
  171SAPE  H15Y19347   1.743   2.980   4.411 -0.3177 -1.3798 -1.5963
  171SAPE  C31619348   1.932   2.898   4.493 -0.6537  0.2052 -0.4294
  171SAPE  H16X19349   1.979   2.861   4.399 -2.1188  0.6938 -1.3986
  171SAPE  H16Y19350   1.959   2.834   4.579  1.3466  1.6155  0.0378
  171SAPE  C31719351   1.958   3.049   4.538  0.0637 -0.1097 -0.6564
  171SAPE  H17X19352   1.899   3.077   4.628  0.4359  0.1694 -0.4991
  171SAPE  H17Y19353   1.924   3.115   4.455  2.3393  0.5666 -1.1223
  171SAPE  C31819354   2.105   3.066   4.563  0.3366 -0.1760 -0.4356
  171SAPE  H18X19355   2.123   3.176   4.568  0.1690 -0.1898  1.2469
  171SAPE  H18Y19356   2.165   3.005   4.492 -1.5811 -1.0668 -1.3757
  171SAPE  H18Z19357   2.132   3.019   4.660  2.2304  1.5542 -0.0466
  172SAPE     N19358   1.469   5.477   2.315 -0.3757 -0.3003 -0.1180
  172SAPE   HN119359   1.392   5.435   2.258  0.2837 -3.8644  1.3654
  172SAPE   HN219360   1.435   5.565   2.358  1.8473  1.1594 -1.1802
  172SAPE   HN319361   1.540   5.506   2.245 -0.7404 -0.3047 -0.4938
  172SAPE   C1219362   1.531   5.385   2.420 -0.3485 -0.0651  1.3137
  172SAPE  H12A19363   1.603   5.323   2.364  0.2305  1.5026  0.2394
  172SAPE  H12B19364   1.453   5.322   2.467  0.5896 -1.3747  1.1494
  172SAPE   C1119365   1.615   5.452   2.523 -0.9913  0.0545 -0.2079
  172SAPE  H11A19366   1.638   5.379   2.603  0.2357  0.3556 -0.2669
  172SAPE  H11B19367   1.556   5.521   2.586 -1.0286 -1.5349  1.5639
  172SAPE     P19368   1.760   5.656   2.443 -0.0480 -0.2022 -0.2759
  172SAPE   O1319369   1.851   5.692   2.330  0.2538 -0.0218 -0.2346
  172SAPE   O1419370   1.631   5.734   2.451 -0.2252 -0.2339  0.0428
  172SAPE   O1219371   1.736   5.502   2.452 -0.9384  0.4166 -0.1351
  172SAPE   O1119372   1.841   5.686   2.576 -0.9504 -0.2336  0.2429
  172SAPE    C119373   1.973   5.628   2.608  0.0852 -0.2069  0.3076
  172SAPE    HA19374   2.036   5.619   2.517 -1.2333  1.0938 -0.8025
  172SAPE    HB19375   2.028   5.698   2.675  2.0717  0.6502 -2.0681
  172SAPE    C219376   1.961   5.488   2.673 -0.4923  0.1629 -0.8776
  172SAPE    HS19377   1.853   5.471   2.693 -0.5880 -0.4677 -1.8856
  172SAPE   O2119378   2.054   5.487   2.787 -0.8482 -0.1563  0.1162
  172SAPE   C2119379   2.011   5.414   2.884 -0.3927  0.2580 -0.2387
  172SAPE   O2219380   1.902   5.367   2.905 -0.4440  0.3493  0.2612
  172SAPE   C2219381   2.123   5.410   2.985 -0.4540  0.2781  0.2202
  172SAPE   H2R19382   2.215   5.405   2.924 -2.6005  1.0351 -3.3245
  172SAPE   H2S19383   2.119   5.507   3.040 -0.2014  0.8037 -0.6773
  172SAPE    C319384   1.996   5.372   2.574  0.3252  0.2083  0.1252
  172SAPE    HX19385   2.106   5.359   2.568  0.3907  0.4971  0.6089
  172SAPE    HY19386   1.964   5.398   2.471  0.5621 -0.7006 -0.1881
  172SAPE   O3119387   1.916   5.252   2.608  0.6919  0.7635  0.4022
  172SAPE   C3119388   1.985   5.169   2.692 -0.4612 -0.4723 -0.0773
  172SAPE   O3219389   2.106   5.165   2.699 -0.1313  0.4973 -0.0774
  172SAPE   C3219390   1.881   5.080   2.775 -0.3666 -0.6912  0.3092
  172SAPE   H2X19391   1.801   5.139   2.824  0.0232  1.1516 -1.1718
  172SAPE   H2Y19392   1.936   5.047   2.866 -0.9427 -2.1348  0.1657
  172SAPE   C2319393   2.113   5.283   3.077 -0.6636  0.4122  0.6019
  172SAPE   H3R19394   2.111   5.196   3.009  0.9718 -0.0239  1.0660
  172SAPE   H3S19395   2.038   5.285   3.158  1.7482  2.0669  2.9879
  172SAPE   C2419396   2.247   5.255   3.157  0.1195 -0.6079  0.5353
  172SAPE   H4R19397   2.272   5.353   3.202  0.0951 -0.2102 -0.2978
  172SAPE   H4S19398   2.321   5.239   3.074 -0.1604 -1.6262  0.4603
  172SAPE   C2519399   2.273   5.144   3.248  0.4638  0.8224 -0.4152
  172SAPE   H5R19400   2.302   5.048   3.203  2.5377  1.9253 -1.5880
  172SAPE   C2619401   2.246   5.152   3.385 -0.2660  0.7487  0.1254
  172SAPE   H6R19402   2.258   5.057   3.440 -0.0917 -0.7967 -2.4143
  172SAPE   C2719403   2.195   5.274   3.470  0.1743 -0.2378  0.4662
  172SAPE   H7R19404   2.227   5.363   3.412  2.5703 -1.8961 -0.9503
  172SAPE   H7S19405   2.260   5.261   3.559  3.1479  2.2904 -1.1338
  172SAPE   C2819406   2.053   5.273   3.497 -0.4516 -0.2421  1.0145
  172SAPE   H8R19407   1.995   5.290   3.406  0.7510 -0.9102  0.1011
  172SAPE   C2919408   1.994   5.279   3.616 -0.2934  0.3612  0.3485
  172SAPE   H9R19409   1.884   5.276   3.619 -0.2588 -0.5306  2.6034
  172SAPE  C21019410   2.054   5.282   3.753 -0.1857  0.0212  0.3283
  172SAPE  H10R19411   2.010   5.357   3.822 -1.1440 -1.2897  1.2020
  172SAPE  H10S19412   2.149   5.335   3.732 -1.8628  3.6928  1.1061
  172SAPE  C21119413   2.088   5.151   3.818 -0.0773 -0.4663 -0.7697
  172SAPE  H11R19414   2.151   5.084   3.757 -0.5042 -0.6676 -0.9936
  172SAPE  C21219415   2.060   5.123   3.946 -0.2004 -0.8256 -0.3160
  172SAPE  H12R19416   2.081   5.022   3.981 -1.2928 -1.9320 -2.6113
  172SAPE  C21319417   1.983   5.213   4.038 -0.1304  0.0793 -0.6709
  172SAPE  H13R19418   1.927   5.152   4.111 -0.4798  3.1875  1.8757
  172SAPE  H13S19419   1.906   5.265   3.976 -1.5031 -0.2753  0.6919
  172SAPE  C21419420   2.080   5.308   4.104 -0.5776  0.1205 -0.5098
  172SAPE  H14R19421   2.174   5.320   4.049 -0.1310 -0.0799  0.1879
  172SAPE  C21519422   2.073   5.367   4.224 -0.2101  0.1175  0.2132
  172SAPE  H15R19423   2.163   5.422   4.256 -1.5356  2.7130 -0.3091
  172SAPE  C21619424   1.962   5.362   4.330  0.0229  0.3138 -0.2744
  172SAPE  H16R19425   1.989   5.318   4.429  0.1430  1.1931  0.0879
  172SAPE  H16S19426   1.871   5.321   4.281  0.0273  0.8950 -0.7824
  172SAPE  C21719427   1.928   5.501   4.372 -0.3810 -0.2264 -0.3345
  172SAPE  H17R19428   1.918   5.557   4.277  0.9462  1.0076  0.2061
  172SAPE  H17S19429   2.011   5.548   4.430  0.4378  0.2113 -1.8165
  172SAPE  C21819430   1.807   5.523   4.460  0.6860  0.6223 -0.3546
  172SAPE  H18R19431   1.719   5.507   4.394 -1.4286 -1.7680  2.7544
  172SAPE  H18S19432   1.796   5.624   4.505  1.1604  0.8089 -0.6437
  172SAPE  C21919433   1.772   5.429   4.580 -0.9501 -0.0388  0.0361
  172SAPE  H19R19434   1.784   5.325   4.542 -0.7161  0.9049 -2.6412
  172SAPE  H19S19435   1.664   5.429   4.603 -1.1723  0.1603 -0.9869
  172SAPE  C22019436   1.850   5.464   4.707  0.4611  0.4218  0.4417
  172SAPE  H20R19437   1.837   5.567   4.745 -1.3712  0.4679 -0.2342
  172SAPE  H20S19438   1.957   5.458   4.677  0.6076  0.5432  0.9301
  172SAPE  H20T19439   1.828   5.387   4.784 -0.9363  1.0575  0.7118
  172SAPE   C3319440   1.825   4.960   2.697  0.4757  0.6999 -0.3840
  172SAPE   H3X19441   1.917   4.905   2.666 -1.4813 -3.1997  0.1009
  172SAPE   H3Y19442   1.775   4.993   2.604  0.0249 -1.1755 -0.8431
  172SAPE   C3419443   1.731   4.873   2.776 -0.2387  0.3086 -0.4182
  172SAPE   H4X19444   1.631   4.921   2.784 -0.3396  0.1573 -0.7289
  172SAPE   H4Y19445   1.769   4.856   2.879  0.8623 -0.1426 -0.8786
  172SAPE   C3519446   1.701   4.741   2.706 -0.3423 -0.1266  0.1040
  172SAPE   H5X19447   1.777   4.718   2.628 -1.2126 -1.2895 -0.4398
  172SAPE   H5Y19448   1.607   4.744   2.645 -0.9944  1.0488  1.1338
  172SAPE   C3619449   1.689   4.623   2.804  0.7480 -0.1624 -0.1487
  172SAPE   H6X19450   1.785   4.605   2.857  1.8421  0.3133 -1.8789
  172SAPE   H6Y19451   1.667   4.534   2.742 -1.6418 -0.1417  0.5563
  172SAPE   C3719452   1.570   4.649   2.897  0.7570  0.0308 -0.1469
  172SAPE   H7X19453   1.474   4.664   2.844 -0.1688 -0.1548  1.4132
  172SAPE   H7Y19454   1.580   4.745   2.952  0.3631 -1.3684  2.5287
  172SAPE   C3819455   1.557   4.533   2.997  0.4475 -0.7068 -0.1672
  172SAPE   H8X19456   1.640   4.464   2.970  1.6626 -0.2072  2.0686
  172SAPE   H8Y19457   1.458   4.487   2.976  0.1164 -1.0431  1.9256
  172SAPE   C3919458   1.567   4.594   3.140  0.2428 -0.0014  0.3115
  172SAPE   H9X19459   1.502   4.682   3.158  0.2388 -0.4243  2.7258
  172SAPE   H9Y19460   1.669   4.636   3.154  1.8206 -3.0574 -1.0051
  172SAPE  C31019461   1.559   4.494   3.256 -0.0169  1.3884 -0.5199
  172SAPE  H10X19462   1.610   4.399   3.230 -0.5089  1.1095 -0.4769
  172SAPE  H10Y19463   1.455   4.456   3.267  1.0908 -1.5504  1.0198
  172SAPE  C31119464   1.606   4.555   3.390 -0.5891  0.8016  0.7410
  172SAPE  H11X19465   1.526   4.615   3.439 -0.6499 -0.0304  1.7187
  172SAPE  H11Y19466   1.692   4.623   3.373 -0.1043 -0.3534 -1.7677
  172SAPE  C31219467   1.643   4.444   3.486  0.1145 -0.6743 -0.4820
  172SAPE  H12X19468   1.724   4.387   3.435  2.0127  0.1290  1.4723
  172SAPE  H12Y19469   1.556   4.377   3.500  0.7346 -1.3416  0.2576
  172SAPE  C31319470   1.682   4.495   3.630 -0.0093 -0.3358  0.2488
  172SAPE  H13X19471   1.594   4.536   3.684  0.5267  2.7129 -0.9821
  172SAPE  H13Y19472   1.759   4.572   3.607  0.4624 -1.0931 -0.8379
  172SAPE  C31419473   1.737   4.386   3.717 -0.9399  0.1141  0.0243
  172SAPE  H14X19474   1.751   4.289   3.664 -0.4313  0.4583 -0.4738
  172SAPE  H14Y19475   1.667   4.366   3.801  0.2935 -0.2151  1.0255
  172SAPE  C31519476   1.870   4.418   3.789 -0.4118  0.5395  0.7086
  172SAPE  H15X19477   1.852   4.504   3.856 -0.5051  2.9078 -2.1394
  172SAPE  H15Y19478   1.945   4.447   3.713 -1.6239  0.7274 -0.4642
  172SAPE  C31619479   1.917   4.294   3.868 -0.2020 -0.9449 -0.0322
  172SAPE  H16X19480   1.944   4.214   3.796  2.6423 -1.0351  1.0277
  172SAPE  H16Y19481   1.830   4.255   3.925 -0.4967 -0.7623 -0.3557
  172SAPE  C31719482   2.031   4.325   3.977  0.7404  0.0280 -0.2039
  172SAPE  H17X19483   1.991   4.381   4.065  1.3384 -0.2195  0.2329
  172SAPE  H17Y19484   2.114   4.387   3.936  0.1118  1.0020 -0.0380
  172SAPE  C31819485   2.090   4.194   4.024 -0.1253 -1.2963 -0.1611
  172SAPE  H18X19486   2.131   4.138   3.937  1.7762  1.4418 -1.2036
  172SAPE  H18Y19487   2.013   4.133   4.076  0.2821 -0.8466  1.0105
  172SAPE  H18Z19488   2.178   4.210   4.091 -0.1189  2.4307 -0.8451
  173SLPC     N19489   3.369   5.388   6.569 -0.6345  0.4368 -0.0560
  173SLPC   C1319490   3.388   5.509   6.661 -0.3656 -0.0946  0.0064
  173SLPC  H13A19491   3.332   5.513   6.753  0.3598 -0.2719  0.4635
  173SLPC  H13B19492   3.483   5.502   6.713 -0.3218 -2.1216 -0.2596
  173SLPC  H13C19493   3.373   5.599   6.604  0.2936  0.8639  1.2896
  173SLPC   C1419494   3.381   5.260   6.647  0.1805 -0.3851 -0.2586
  173SLPC  H14A19495   3.300   5.254   6.718 -0.5402  0.3892 -0.9992
  173SLPC  H14B19496   3.386   5.173   6.584  2.4174 -0.2741 -0.3330
  173SLPC  H14C19497   3.475   5.260   6.702 -0.3735 -1.6597  0.7199
  173SLPC   C1519498   3.475   5.405   6.459  0.4361 -0.2858 -0.6773
  173SLPC  H15A19499   3.488   5.323   6.390  2.0129 -0.5796 -0.0672
  173SLPC  H15B19500   3.464   5.501   6.410  2.1271  1.2720  1.7957
  173SLPC  H15C19501   3.570   5.407   6.509 -0.1742  3.2541  0.6324
  173SLPC   C1219502   3.232   5.387   6.508  0.2785 -0.3705 -0.1256
  173SLPC  H12A19503   3.154   5.393   6.582 -0.7813 -1.2415 -1.1068
  173SLPC  H12B19504   3.221   5.296   6.450 -1.1756 -0.8167  0.7857
  173SLPC   C1119505   3.195   5.508   6.413 -0.1897  0.1908 -0.9024
  173SLPC  H11A19506   3.110   5.467   6.353  0.5068 -1.8605 -0.5670
  173SLPC  H11B19507   3.278   5.528   6.342 -1.6015  4.4654 -1.6429
  173SLPC     P19508   3.032   5.653   6.551  0.0407 -0.0725  0.2382
  173SLPC   O1319509   2.987   5.536   6.623  0.0997  0.0418 -0.1200
  173SLPC   O1419510   3.021   5.784   6.622  0.4142 -0.3757 -0.0712
  173SLPC   O1219511   3.173   5.625   6.496  0.1438  0.7899  0.3915
  173SLPC   O1119512   2.945   5.656   6.420 -0.3357  0.2480 -0.0377
  173SLPC    C119513   2.978   5.729   6.304 -0.1021 -0.7837 -0.2270
  173SLPC    HA19514   3.038   5.819   6.328  0.5914 -1.1766 -0.4676
  173SLPC    HB19515   3.046   5.663   6.245 -0.1486 -3.0368  2.0655
  173SLPC    C219516   2.857   5.789   6.219 -1.0242  0.1154 -0.2661
  173SLPC    HS19517   2.819   5.868   6.288  0.7197  0.1918  0.6551
  173SLPC   O2119518   2.761   5.683   6.210 -0.3940  0.3111 -1.0592
  173SLPC   C2119519   2.634   5.726   6.173 -0.2992  0.4763 -0.2618
  173SLPC   O2219520   2.605   5.841   6.164  0.5137  0.8432  0.2299
  173SLPC   C2219521   2.545   5.615   6.127  0.6367  0.4801 -0.7237
  173SLPC   H2R19522   2.598   5.545   6.058 -0.3375  0.2610 -1.2659
  173SLPC   H2S19523   2.530   5.556   6.219  2.8727  0.7789 -0.1129
  173SLPC    C319524   2.894   5.847   6.078 -0.0459  0.0515 -0.5664
  173SLPC    HX19525   2.930   5.952   6.082  1.3346 -0.4651  1.6982
  173SLPC    HY19526   2.804   5.846   6.012 -0.8336 -1.0041  0.4912
  173SLPC   O3119527   2.995   5.760   6.025 -0.4542  0.8213  0.1677
  173SLPC   C3119528   2.953   5.649   5.963  0.3705 -0.1816 -0.2778
  173SLPC   O3219529   2.836   5.611   5.962 -0.8613  0.1204  0.2815
  173SLPC   C3219530   3.069   5.574   5.895 -1.0428 -0.7350  0.3355
  173SLPC   H2X19531   3.133   5.527   5.973 -3.6829 -0.6331  2.7379
  173SLPC   H2Y19532   3.118   5.648   5.827 -0.2221 -1.3957  0.1940
  173SLPC   C2319533   2.410   5.663   6.068 -0.1389  0.2189  0.1943
  173SLPC   H3R19534   2.352   5.721   6.142 -0.8227  0.1590 -0.2869
  173SLPC   H3S19535   2.353   5.569   6.056  0.0736  0.0494  0.5109
  173SLPC   C2419536   2.421   5.738   5.929  0.2101 -0.7436 -0.1404
  173SLPC   H4R19537   2.444   5.845   5.948 -1.5417 -0.2345 -0.6217
  173SLPC   H4S19538   2.321   5.741   5.879  0.5043  0.4314 -0.6956
  173SLPC   C2519539   2.523   5.681   5.820 -0.0315  0.2906 -0.5745
  173SLPC   H5R19540   2.466   5.588   5.796  1.1079 -0.9940  1.3485
  173SLPC   H5S19541   2.617   5.647   5.867 -1.1802 -1.4838  0.5865
  173SLPC   C2619542   2.532   5.753   5.692 -0.4772 -0.4709  0.4908
  173SLPC   H6R19543   2.540   5.862   5.710 -1.4558 -0.1680 -0.7154
  173SLPC   H6S19544   2.439   5.729   5.636  0.3095 -0.3999 -0.8953
  173SLPC   C2719545   2.641   5.698   5.604  0.0007  0.0788  0.8610
  173SLPC   H7R19546   2.626   5.588   5.597 -2.3229  0.4924 -2.7267
  173SLPC   H7S19547   2.740   5.725   5.648 -0.0873  3.0786 -0.5791
  173SLPC   C2819548   2.627   5.744   5.465  0.4069 -0.0323  0.3992
  173SLPC   H8R19549   2.531   5.704   5.424  0.6948 -1.4037  0.9978
  173SLPC   H8S19550   2.700   5.693   5.398  1.8557  0.6636  1.3971
  173SLPC   C2919551   2.631   5.894   5.446 -0.0620  0.7499 -1.2574
  173SLPC   H9R19552   2.543   5.939   5.495 -0.7514  0.3679 -2.0949
  173SLPC  C21019553   2.709   5.967   5.369  0.2903  0.5472  0.6314
  173SLPC  H10R19554   2.699   6.077   5.376 -0.8984  0.6426 -1.6259
  173SLPC  C21119555   2.825   5.920   5.286  0.2321 -0.2909 -0.0152
  173SLPC  H11R19556   2.783   5.842   5.220  1.1941 -0.3845 -0.5295
  173SLPC  H11S19557   2.906   5.879   5.350 -0.7560 -0.4244  1.1813
  173SLPC  C21219558   2.888   6.028   5.200  0.5702  0.4584  0.3559
  173SLPC  H12R19559   2.876   6.133   5.228 -0.2410  0.7748 -1.0445
  173SLPC  C21319560   2.971   6.009   5.102  0.4017 -0.6585  0.4596
  173SLPC  H13R19561   3.011   6.092   5.042  0.8472  0.7954  2.6538
  173SLPC  C21419562   3.029   5.879   5.049 -0.5425  0.3651 -0.9257
  173SLPC  H14R19563   3.089   5.901   4.957  0.4985 -0.1607 -0.3958
  173SLPC  H14S19564   2.948   5.807   5.030 -0.3313 -0.9602  2.6039
  173SLPC  C21519565   3.127   5.807   5.144  0.0341  0.7738  0.4045
  173SLPC  H15R19566   3.154   5.706   5.107  1.5555  1.6738 -1.0545
  173SLPC  H15S19567   3.072   5.786   5.238  1.7803 -0.7488  1.1241
  173SLPC  C21619568   3.255   5.885   5.187 -0.7830  0.0194  1.1531
  173SLPC  H16R19569   3.319   5.807   5.233  0.0708 -0.1877 -0.3043
  173SLPC  H16S19570   3.222   5.962   5.260 -1.1150  0.1724  0.8485
  173SLPC  C21719571   3.328   5.951   5.070 -0.0139 -0.6795  0.1924
  173SLPC  H17R19572   3.278   6.043   5.033  2.0447  0.3843 -0.0647
  173SLPC  H17S19573   3.335   5.889   4.978 -2.1204 -1.7013  0.6389
  173SLPC  C21819574   3.466   5.993   5.110  0.8378 -0.6577  0.0316
  173SLPC  H18R19575   3.468   6.033   5.213  1.8312 -1.0762  0.1784
  173SLPC  H18S19576   3.486   6.083   5.048 -0.4450 -0.1362  0.3406
  173SLPC  H18T19577   3.555   5.928   5.097  2.2005  1.0587  0.3659
  173SLPC   C3319578   3.024   5.455   5.801  0.4423 -0.0653 -0.6556
  173SLPC   H3X19579   2.950   5.391   5.854 -1.2661  3.3766  1.4303
  173SLPC   H3Y19580   3.114   5.391   5.784 -0.1721 -0.9117 -0.7869
  173SLPC   C3419581   2.974   5.495   5.665 -0.1430  0.5940  0.1721
  173SLPC   H4X19582   3.045   5.563   5.613 -0.1662 -0.6429 -1.5625
  173SLPC   H4Y19583   2.879   5.550   5.686 -0.9442 -0.0712 -1.5309
  173SLPC   C3519584   2.948   5.371   5.578 -0.0432 -0.5656 -0.4366
  173SLPC   H5X19585   2.886   5.290   5.623  1.5331 -2.9942 -2.3576
  173SLPC   H5Y19586   3.045   5.316   5.573  1.1750  1.3656  0.6519
  173SLPC   C3619587   2.911   5.406   5.437 -0.0137  1.0011 -0.7881
  173SLPC   H6X19588   2.969   5.495   5.404  0.4491  1.2404  0.6105
  173SLPC   H6Y19589   2.807   5.445   5.437  0.0083  1.1622 -2.4709
  173SLPC   C3719590   2.927   5.303   5.339 -0.3428  0.3035 -0.2939
  173SLPC   H7X19591   2.868   5.212   5.361 -0.0452  0.2149  0.1419
  173SLPC   H7Y19592   3.030   5.262   5.346 -0.4542 -0.0128 -0.4416
  173SLPC   C3819593   2.898   5.349   5.196  0.3764  0.0758 -0.1898
  173SLPC   H8X19594   2.829   5.436   5.191 -1.5111 -1.3764 -0.6030
  173SLPC   H8Y19595   2.842   5.275   5.135  1.6205 -0.4128 -0.7719
  173SLPC   C3919596   3.020   5.369   5.108 -0.5197 -0.6037  0.4559
  173SLPC   H9X19597   3.088   5.281   5.118  0.4734 -0.0637 -1.1569
  173SLPC   H9Y19598   3.083   5.454   5.143 -1.9198  0.3099  0.8147
  173SLPC  C31019599   2.982   5.387   4.956 -0.4812  0.2727 -0.1922
  173SLPC  H10X19600   2.923   5.480   4.937 -0.5069 -0.0317 -1.6454
  173SLPC  H10Y19601   2.916   5.300   4.937  1.6015 -1.2341 -0.8340
  173SLPC  C31119602   3.106   5.408   4.864  0.1331 -0.5328  0.0291
  173SLPC  H11X19603   3.156   5.309   4.868  0.0674 -0.5431  3.5336
  173SLPC  H11Y19604   3.162   5.492   4.910 -1.5080  0.2670  0.6762
  173SLPC  C31219605   3.077   5.453   4.722  0.7752 -0.5578  0.5583
  173SLPC  H12X19606   3.026   5.552   4.719 -0.5579 -1.2474 -0.3264
  173SLPC  H12Y19607   3.006   5.387   4.667 -1.2856  1.8956  0.0862
  173SLPC  C31319608   3.197   5.457   4.634 -0.2786 -0.4606  0.4812
  173SLPC  H13X19609   3.152   5.441   4.534 -1.2212 -1.3740  1.0373
  173SLPC  H13Y19610   3.262   5.369   4.651  2.0785  0.7661 -1.4337
  173SLPC  C31419611   3.290   5.591   4.647 -0.0693  0.0750 -0.3883
  173SLPC  H14X19612   3.362   5.601   4.563  0.8666 -0.0336  0.3840
  173SLPC  H14Y19613   3.359   5.578   4.733 -0.9091 -1.7285  0.0741
  173SLPC  C31519614   3.226   5.738   4.639  0.3073  0.0161 -0.1388
  173SLPC  H15X19615   3.138   5.732   4.706 -0.8667  1.2515 -1.5138
  173SLPC  H15Y19616   3.178   5.760   4.541  0.0433  1.7109  0.3312
  173SLPC  C31619617   3.330   5.849   4.668  0.6686 -0.3797  0.0369
  173SLPC  H16X19618   3.424   5.821   4.617  0.0966  0.6371 -1.6576
  173SLPC  H16Y19619   3.337   5.866   4.777 -5.0218  3.2215  0.2399
  173SLPC  C31719620   3.292   5.988   4.600  0.1829  0.6243 -0.0585
  173SLPC  H17X19621   3.200   6.024   4.649  0.7457  4.5547 -1.5285
  173SLPC  H17Y19622   3.266   5.963   4.495  0.2347 -2.1261  0.5129
  173SLPC  C31819623   3.410   6.095   4.580 -0.1013 -0.2220 -0.5260
  173SLPC  H18X19624   3.383   6.166   4.498 -1.5362 -0.2074 -0.0613
  173SLPC  H18Y19625   3.506   6.049   4.548 -0.1698 -0.8481  0.1414
  173SLPC  H18Z19626   3.423   6.164   4.666 -0.5144 -1.6580  0.7289
  174SLPC     N19627   5.580   6.285   7.268 -0.6517 -0.5571 -0.2011
  174SLPC   C1319628   5.521   6.160   7.303  0.2238  0.2483  0.0805
  174SLPC  H13A19629   5.413   6.159   7.294  0.3608 -0.5454 -1.8824
  174SLPC  H13B19630   5.549   6.075   7.244 -2.4407 -0.1484 -0.7489
  174SLPC  H13C19631   5.547   6.144   7.407  2.6683  0.9329 -0.3760
  174SLPC   C1419632   5.725   6.286   7.296 -0.1966 -0.1391 -0.4108
  174SLPC  H14A19633   5.756   6.203   7.357 -0.4393 -1.2370 -1.7436
  174SLPC  H14B19634   5.782   6.278   7.204  1.1343  1.8067  0.1839
  174SLPC  H14C19635   5.752   6.376   7.350 -0.0434  0.3419 -1.2701
  174SLPC   C1519636   5.528   6.397   7.356 -0.5820 -0.2184 -0.1924
  174SLPC  H15A19637   5.567   6.494   7.329 -0.2891 -0.0348  0.8489
  174SLPC  H15B19638   5.423   6.416   7.342 -0.9347 -2.0662 -0.2260
  174SLPC  H15C19639   5.539   6.381   7.462 -0.4265  1.8578  0.1473
  174SLPC   C1219640   5.561   6.324   7.120  0.2458  0.1148 -0.5338
  174SLPC  H12A19641   5.578   6.430   7.123 -2.0216  0.5230  1.4752
  174SLPC  H12B19642   5.456   6.309   7.097  0.2121 -0.4582 -0.0483
  174SLPC   C1119643   5.638   6.249   7.009  0.7480  0.3163 -0.8468
  174SLPC  H11A19644   5.614   6.281   6.905  2.8509  0.2123 -1.4081
  174SLPC  H11B19645   5.605   6.143   7.016 -2.0446  1.0304 -1.9433
  174SLPC     P19646   5.842   6.403   6.969 -0.1452  0.1406  0.3183
  174SLPC   O1319647   5.743   6.506   6.931  0.2683 -0.8736  0.2490
  174SLPC   O1419648   5.939   6.450   7.069 -0.5217 -0.6709  0.4331
  174SLPC   O1219649   5.777   6.269   7.023  0.4438 -0.5109 -0.4219
  174SLPC   O1119650   5.921   6.362   6.839 -1.2393 -1.2608 -0.2967
  174SLPC    C119651   5.857   6.330   6.720 -0.1956  0.1215  0.5066
  174SLPC    HA19652   5.863   6.221   6.699  2.4312  0.4173 -0.6872
  174SLPC    HB19653   5.750   6.360   6.714 -0.2803 -0.0909  0.9293
  174SLPC    C219654   5.928   6.401   6.599 -1.0329 -0.0058  0.4458
  174SLPC    HS19655   5.888   6.503   6.580  0.8978  0.8481  0.8028
  174SLPC   O2119656   5.910   6.309   6.489 -0.0939  0.3428 -0.8296
  174SLPC   C2119657   5.832   6.351   6.390 -0.6054 -0.5116  0.1653
  174SLPC   O2219658   5.781   6.461   6.383 -0.1486 -0.2137  0.0818
  174SLPC   C2219659   5.837   6.241   6.283 -0.4960  0.2906  0.0530
  174SLPC   H2R19660   5.946   6.226   6.273 -0.2718  1.0728  1.0650
  174SLPC   H2S19661   5.788   6.146   6.314  0.8458 -0.3924  0.1358
  174SLPC    C319662   6.078   6.425   6.628  0.0864 -0.4691  0.3184
  174SLPC    HX19663   6.123   6.332   6.669  0.9289  0.8703  2.6058
  174SLPC    HY19664   6.102   6.512   6.693 -1.4355  2.0826 -2.3184
  174SLPC   O3119665   6.129   6.468   6.497 -0.6197 -0.5084 -0.2954
  174SLPC   C3119666   6.197   6.383   6.417 -0.2797 -0.1890  0.2978
  174SLPC   O3219667   6.231   6.268   6.449 -0.2105 -0.4701  0.5201
  174SLPC   C3219668   6.229   6.454   6.289 -0.0417 -0.3123 -0.8115
  174SLPC   H2X19669   6.276   6.552   6.312  0.5778 -0.3792 -1.7317
  174SLPC   H2Y19670   6.131   6.470   6.239 -1.6694 -0.3372  2.1606
  174SLPC   C2319671   5.776   6.270   6.138 -0.4782  0.1412  0.1037
  174SLPC   H3R19672   5.669   6.293   6.153  0.4197  4.1131  1.5612
  174SLPC   H3S19673   5.778   6.181   6.072 -3.1947  0.0212  0.0811
  174SLPC   C2419674   5.839   6.386   6.070  0.1865  0.5364 -0.3176
  174SLPC   H4R19675   5.949   6.372   6.071 -0.0735 -1.9968  1.5737
  174SLPC   H4S19676   5.832   6.481   6.127  2.7546 -0.2754  1.5217
  174SLPC   C2519677   5.789   6.422   5.934  0.1106  0.3068 -0.2834
  174SLPC   H5R19678   5.784   6.333   5.868 -0.3117 -0.0790  0.2590
  174SLPC   H5S19679   5.859   6.491   5.882 -1.3828  1.6567 -0.5894
  174SLPC   C2619680   5.662   6.502   5.918  0.2538 -0.6226 -1.1157
  174SLPC   H6R19681   5.651   6.589   5.987  1.4663  1.6021 -3.5393
  174SLPC   H6S19682   5.574   6.444   5.953  2.0966 -2.7684  0.2039
  174SLPC   C2719683   5.635   6.562   5.773  0.2870  1.0449  0.1136
  174SLPC   H7R19684   5.683   6.662   5.763  0.6963  0.9471  1.0267
  174SLPC   H7S19685   5.526   6.576   5.786 -0.3912 -2.4450 -0.7879
  174SLPC   C2819686   5.659   6.462   5.661  1.2680  0.8625 -0.6804
  174SLPC   H8R19687   5.761   6.417   5.662  1.8524  2.1578  0.2004
  174SLPC   H8S19688   5.657   6.519   5.566 -0.9007  0.0172 -1.2045
  174SLPC   C2919689   5.552   6.347   5.665 -0.5865  0.0761  0.1620
  174SLPC   H9R19690   5.516   6.318   5.765  2.0325 -1.5037  0.7306
  174SLPC  C21019691   5.500   6.282   5.560  0.5959  0.0088 -0.0437
  174SLPC  H10R19692   5.420   6.209   5.577  0.7130 -0.1326 -0.0948
  174SLPC  C21119693   5.530   6.305   5.409  0.0329 -0.3333 -0.3185
  174SLPC  H11R19694   5.538   6.412   5.377 -1.9971 -0.8442 -2.8546
  174SLPC  H11S19695   5.455   6.277   5.333 -2.6770  1.6274  1.4607
  174SLPC  C21219696   5.661   6.231   5.377  0.5230  0.2162 -0.0047
  174SLPC  H12R19697   5.700   6.175   5.463 -0.1090  0.7229  0.6284
  174SLPC  C21319698   5.722   6.236   5.257  0.1245 -0.3482 -0.0192
  174SLPC  H13R19699   5.821   6.189   5.247 -0.6081 -1.7581 -1.1830
  174SLPC  C21419700   5.673   6.316   5.138 -0.4078  0.0653  0.3302
  174SLPC  H14R19701   5.748   6.394   5.111 -0.9199  0.5497  0.3072
  174SLPC  H14S19702   5.579   6.371   5.156 -1.0935 -0.3601 -1.6130
  174SLPC  C21519703   5.652   6.218   5.016  0.0726  0.4498 -0.7712
  174SLPC  H15R19704   5.598   6.263   4.929 -1.2901 -0.6290 -0.5196
  174SLPC  H15S19705   5.587   6.136   5.053 -0.4582  2.4075  3.0649
  174SLPC  C21619706   5.782   6.153   4.969  0.3311  0.8445  0.8557
  174SLPC  H16R19707   5.800   6.061   5.028  0.7283  1.6308  2.0091
  174SLPC  H16S19708   5.866   6.226   4.974  3.9476 -2.5613 -2.6468
  174SLPC  C21719709   5.763   6.111   4.813  0.2171 -0.3460 -0.1333
  174SLPC  H17R19710   5.759   6.207   4.758  1.8532 -0.0775  0.1477
  174SLPC  H17S19711   5.661   6.070   4.801 -1.1137  3.3080 -2.9420
  174SLPC  C21819712   5.869   6.012   4.752 -0.2021 -0.3131 -1.0276
  174SLPC  H18R19713   5.831   5.975   4.654 -3.2934  1.6668 -0.7165
  174SLPC  H18S19714   5.870   5.923   4.818  2.6910 -0.2643 -0.8858
  174SLPC  H18T19715   5.967   6.063   4.748 -0.2609  0.0175  0.8884
  174SLPC   C3319716   6.336   6.383   6.203 -0.2388 -0.1985  0.5255
  174SLPC   H3X19717   6.304   6.277   6.197 -0.4130 -0.0644 -3.4115
  174SLPC   H3Y19718   6.438   6.376   6.247  0.2292 -3.8621 -0.7741
  174SLPC   C3419719   6.365   6.447   6.067  0.4618  0.2811 -0.1218
  174SLPC   H4X19720   6.272   6.437   6.007  0.7116 -2.6506 -0.1887
  174SLPC   H4Y19721   6.438   6.395   6.002 -0.3137 -1.5468  0.4020
  174SLPC   C3519722   6.397   6.599   6.067  0.3712  0.9299 -0.1226
  174SLPC   H5X19723   6.478   6.602   6.143  1.7469 -0.7940 -1.4256
  174SLPC   H5Y19724   6.319   6.669   6.103  0.5388 -0.1470  2.4920
  174SLPC   C3619725   6.457   6.641   5.929 -0.4468 -1.1117  0.0026
  174SLPC   H6X19726   6.542   6.577   5.895  0.4691  0.3300 -0.4842
  174SLPC   H6Y19727   6.503   6.741   5.944 -1.1240 -0.6705 -0.7893
  174SLPC   C3719728   6.348   6.650   5.818 -0.3147  0.0176 -0.6628
  174SLPC   H7X19729   6.272   6.722   5.858  0.8273 -0.0143  1.7926
  174SLPC   H7Y19730   6.296   6.554   5.802  0.0566 -0.1314 -0.9641
  174SLPC   C3819731   6.405   6.715   5.691  0.4728  0.3666 -1.0815
  174SLPC   H8X19732   6.432   6.822   5.703 -1.3981  0.8916 -1.1547
  174SLPC   H8Y19733   6.314   6.724   5.626  1.4132  0.5243 -2.4224
  174SLPC   C3919734   6.503   6.618   5.621 -0.1486 -0.2929  0.0895
  174SLPC   H9X19735   6.460   6.517   5.601 -1.0003  0.0129  0.3377
  174SLPC   H9Y19736   6.595   6.615   5.684  0.9510 -0.2472 -1.4757
  174SLPC  C31019737   6.540   6.671   5.485 -0.5377 -0.1922 -0.0404
  174SLPC  H10X19738   6.631   6.618   5.449  0.5099  1.5122 -0.0324
  174SLPC  H10Y19739   6.570   6.778   5.486  1.0559 -0.6013 -0.4562
  174SLPC  C31119740   6.425   6.659   5.380  0.2237  0.1802 -0.4361
  174SLPC  H11X19741   6.345   6.725   5.420  1.3659  0.3501  1.6678
  174SLPC  H11Y19742   6.382   6.556   5.379  0.3414  0.1328 -1.1281
  174SLPC  C31219743   6.448   6.700   5.233 -0.1181  0.5858  0.6026
  174SLPC  H12X19744   6.485   6.804   5.224  1.7715 -0.1918 -1.6506
  174SLPC  H12Y19745   6.353   6.689   5.176 -0.3567  0.8069  0.9516
  174SLPC  C31319746   6.567   6.617   5.177  0.0298  0.1544  0.1939
  174SLPC  H13X19747   6.543   6.515   5.213  0.2050  0.2051  0.4634
  174SLPC  H13Y19748   6.661   6.655   5.223 -0.2102  0.2273  0.6390
  174SLPC  C31419749   6.574   6.619   5.015 -0.0419 -0.1750 -0.9805
  174SLPC  H14X19750   6.477   6.589   4.971 -0.2559  0.6120 -1.0702
  174SLPC  H14Y19751   6.644   6.537   4.992 -0.4703 -1.4319  1.7451
  174SLPC  C31519752   6.625   6.754   4.963  0.4725  0.5599  0.6803
  174SLPC  H15X19753   6.564   6.840   4.997 -0.5018 -0.2424  0.9935
  174SLPC  H15Y19754   6.607   6.740   4.854  0.2199 -0.6577  0.8647
  174SLPC  C31619755   6.779   6.777   4.993  0.0207  0.2153 -0.4546
  174SLPC  H16X19756   6.814   6.673   5.014  1.2734  0.2003 -2.4066
  174SLPC  H16Y19757   6.793   6.832   5.089 -0.7670 -1.8991  0.9651
  174SLPC  C31719758   6.863   6.841   4.878  0.0672  0.1611 -0.1661
  174SLPC  H17X19759   6.846   6.770   4.794  1.0426 -1.0301  0.6000
  174SLPC  H17Y19760   6.972   6.830   4.901 -0.1123 -0.4138  0.4233
  174SLPC  C31819761   6.831   6.985   4.850  0.0519 -0.4416 -1.2420
  174SLPC  H18X19762   6.896   7.023   4.769  3.3886 -1.0444  0.9509
  174SLPC  H18Y19763   6.856   7.050   4.937  1.4499 -2.1106 -0.3471
  174SLPC  H18Z19764   6.723   6.993   4.827 -0.6881 -0.3923  1.7831
  175SLPC     N19765   1.363   1.253   7.035 -0.1004  0.2147  0.4987
  175SLPC   C1319766   1.478   1.168   7.103 -0.7748  0.2543  0.5520
  175SLPC  H13A19767   1.498   1.203   7.203  3.0035 -0.0222  0.0174
  175SLPC  H13B19768   1.450   1.066   7.081 -1.0824  0.0799  1.6986
  175SLPC  H13C19769   1.568   1.185   7.046 -0.7613 -0.1950  0.4360
  175SLPC   C1419770   1.404   1.398   7.053  0.5029  0.5001  0.2399
  175SLPC  H14A19771   1.437   1.409   7.155 -1.4646  0.3682  0.9251
  175SLPC  H14B19772   1.484   1.424   6.985  0.6703  1.8499  0.9298
  175SLPC  H14C19773   1.322   1.463   7.027  0.8650  1.1573  0.7194
  175SLPC   C1519774   1.237   1.227   7.111 -0.1029  0.8515 -0.1973
  175SLPC  H15A19775   1.152   1.275   7.063 -0.5501  1.5160  1.2052
  175SLPC  H15B19776   1.228   1.120   7.123  1.3237  0.9466  2.4740
  175SLPC  H15C19777   1.247   1.247   7.216 -0.5025  0.6080 -0.1135
  175SLPC   C1219778   1.340   1.209   6.891 -0.2688  0.3968  0.1658
  175SLPC  H12A19779   1.278   1.285   6.846  0.5811  1.4011  0.6500
  175SLPC  H12B19780   1.285   1.117   6.881 -1.5946  0.8393  2.6020
  175SLPC   C1119781   1.455   1.207   6.790  0.3672 -0.6924 -0.0681
  175SLPC  H11A19782   1.411   1.177   6.692 -0.2231  5.3794 -2.0988
  175SLPC  H11B19783   1.543   1.142   6.806  2.4468  2.0142  0.1895
  175SLPC     P19784   1.454   1.469   6.713  0.0854  0.0881  0.3462
  175SLPC   O1319785   1.309   1.481   6.743  0.3350  0.0199  0.0101
  175SLPC   O1419786   1.540   1.577   6.762 -0.3521  0.3160  0.1107
  175SLPC   O1219787   1.510   1.336   6.772 -0.5756  0.0826 -0.0915
  175SLPC   O1119788   1.485   1.445   6.555  0.4123  0.3924 -0.7097
  175SLPC    C119789   1.381   1.375   6.483 -0.1319 -0.0062  0.6384
  175SLPC    HA19790   1.372   1.267   6.505  1.8594 -0.6222 -1.2241
  175SLPC    HB19791   1.282   1.421   6.507  0.1227  0.3635  0.9813
  175SLPC    C219792   1.387   1.350   6.328 -0.1092  0.2877  0.3139
  175SLPC    HS19793   1.482   1.292   6.319 -0.3019 -0.0972  0.7348
  175SLPC   O2119794   1.394   1.481   6.261  0.1375 -0.5963 -0.0023
  175SLPC   C2119795   1.488   1.490   6.164  0.1618 -0.5950  0.5093
  175SLPC   O2219796   1.574   1.408   6.146  0.4662 -0.1852  0.0571
  175SLPC   C2219797   1.477   1.628   6.085 -0.3619 -0.1203 -0.1798
  175SLPC   H2R19798   1.422   1.700   6.148  0.9651 -0.4134  1.3924
  175SLPC   H2S19799   1.582   1.665   6.078  0.2344 -1.5666  0.6666
  175SLPC    C319800   1.274   1.264   6.275 -0.4073  0.4916 -0.3970
  175SLPC    HX19801   1.187   1.332   6.284 -0.0571  0.9880 -0.7363
  175SLPC    HY19802   1.264   1.172   6.336  0.5651  0.8130  0.2527
  175SLPC   O3119803   1.268   1.234   6.138 -0.2904 -0.1878 -0.3889
  175SLPC   C3119804   1.357   1.139   6.101  0.2320  0.2405 -0.1739
  175SLPC   O3219805   1.449   1.092   6.173  0.7306 -0.8011  0.3019
  175SLPC   C3219806   1.322   1.102   5.958  0.3296 -0.4361  0.0348
  175SLPC   H2X19807   1.240   1.167   5.920  0.6511  0.6779  1.1927
  175SLPC   H2Y19808   1.284   0.998   5.951  1.1630 -0.6993 -0.9827
  175SLPC   C2319809   1.430   1.627   5.940 -0.5689  0.1389  1.1548
  175SLPC   H3R19810   1.414   1.729   5.899  1.4257  0.4338  1.0347
  175SLPC   H3S19811   1.331   1.577   5.940 -0.6228  0.1117 -1.4008
  175SLPC   C2419812   1.527   1.560   5.844  0.2296 -0.8899  0.8311
  175SLPC   H4R19813   1.572   1.477   5.903  2.7199 -0.0492  0.2044
  175SLPC   H4S19814   1.609   1.625   5.806 -1.4635 -0.3018 -2.1922
  175SLPC   C2519815   1.468   1.503   5.712 -0.2689  0.2212 -0.3934
  175SLPC   H5R19816   1.358   1.498   5.728 -0.0750 -2.2693  0.7551
  175SLPC   H5S19817   1.503   1.397   5.708  1.8393  0.7363  2.0065
  175SLPC   C2619818   1.518   1.578   5.584  0.5441  0.1021 -0.6985
  175SLPC   H6R19819   1.622   1.558   5.551  1.6194  2.3692  1.0547
  175SLPC   H6S19820   1.528   1.688   5.600  0.4188  0.2093 -1.3041
  175SLPC   C2719821   1.433   1.558   5.456  0.8963 -0.6328 -0.0379
  175SLPC   H7R19822   1.329   1.589   5.478  1.2711  1.2238 -0.7448
  175SLPC   H7S19823   1.427   1.449   5.433 -0.3222 -0.3427 -1.2357
  175SLPC   C2819824   1.486   1.639   5.324  0.3412 -0.2477  0.0346
  175SLPC   H8R19825   1.584   1.592   5.301  0.1626 -0.1306 -0.9958
  175SLPC   H8S19826   1.490   1.746   5.351 -2.0406 -0.0143 -0.3403
  175SLPC   C2919827   1.397   1.630   5.203 -0.2784 -0.0380 -0.3322
  175SLPC   H9R19828   1.308   1.694   5.199 -0.4078 -0.2034 -0.1317
  175SLPC  C21019829   1.421   1.547   5.101  0.3254  0.0631 -0.3990
  175SLPC  H10R19830   1.361   1.548   5.009  2.5476  3.1142 -1.9556
  175SLPC  C21119831   1.538   1.441   5.091  0.3913  0.0060  0.1321
  175SLPC  H11R19832   1.609   1.444   5.177 -0.4581  0.9773  0.8350
  175SLPC  H11S19833   1.592   1.463   4.997  0.0866  1.3268  0.2363
  175SLPC  C21219834   1.470   1.310   5.084 -0.4342  0.3880  0.2474
  175SLPC  H12R19835   1.422   1.277   5.177  2.5270  1.2481  2.2614
  175SLPC  C21319836   1.440   1.245   4.970  0.1179  0.0381 -0.0538
  175SLPC  H13R19837   1.400   1.144   4.982  0.2854 -0.1228 -0.7914
  175SLPC  C21419838   1.486   1.275   4.832  0.5599 -0.1544  0.5673
  175SLPC  H14R19839   1.591   1.242   4.820  1.5219  1.3474  3.7290
  175SLPC  H14S19840   1.489   1.384   4.806 -1.7385 -0.7090 -2.6178
  175SLPC  C21519841   1.384   1.220   4.732  0.2501 -0.1383 -0.4119
  175SLPC  H15R19842   1.282   1.250   4.765  1.6104  0.3270  4.0943
  175SLPC  H15S19843   1.382   1.109   4.742  0.7776 -0.0362  1.0755
  175SLPC  C21619844   1.416   1.262   4.591 -0.8374  0.2808  0.5648
  175SLPC  H16R19845   1.428   1.371   4.578  0.9190  0.0915  0.3511
  175SLPC  H16S19846   1.332   1.226   4.528 -0.5940 -1.7746  1.3290
  175SLPC  C21719847   1.537   1.190   4.530  0.3691  0.1464 -1.2728
  175SLPC  H17R19848   1.519   1.083   4.554 -0.2087  0.8396  1.8098
  175SLPC  H17S19849   1.636   1.207   4.579 -0.2663 -0.7867  0.4312
  175SLPC  C21819850   1.548   1.226   4.380  0.0660  0.0113 -0.3970
  175SLPC  H18R19851   1.610   1.316   4.366  0.3581  0.1443  1.4798
  175SLPC  H18S19852   1.444   1.245   4.344  0.1031 -0.0144 -0.5181
  175SLPC  H18T19853   1.598   1.141   4.329  1.2350 -0.6735  1.7876
  175SLPC   C3319854   1.444   1.106   5.869  0.0778 -0.3837  0.3474
  175SLPC   H3X19855   1.523   1.038   5.909 -0.1235 -0.8474 -0.0314
  175SLPC   H3Y19856   1.491   1.206   5.875 -2.2943  0.7354  1.2749
  175SLPC   C3419857   1.419   1.075   5.718  0.6883 -0.3052  0.4632
  175SLPC   H4X19858   1.359   1.153   5.666  0.4601 -1.3171 -0.8574
  175SLPC   H4Y19859   1.360   0.981   5.721 -0.3818  0.3492  0.3145
  175SLPC   C3519860   1.540   1.057   5.629 -0.7833  1.0614  0.7507
  175SLPC   H5X19861   1.606   0.980   5.673 -0.2105  1.1205  0.0116
  175SLPC   H5Y19862   1.605   1.148   5.626 -0.6469  0.9579 -1.4716
  175SLPC   C3619863   1.503   0.999   5.493  0.8733  0.4596 -0.3013
  175SLPC   H6X19864   1.407   1.047   5.466  0.0994  1.2108  3.2676
  175SLPC   H6Y19865   1.474   0.893   5.511  1.0939  0.8208  2.7597
  175SLPC   C3719866   1.613   1.011   5.394  0.2937 -0.8943 -0.1455
  175SLPC   H7X19867   1.711   0.973   5.429  1.0754  0.3032 -0.9441
  175SLPC   H7Y19868   1.621   1.119   5.369 -0.8298 -0.7118  0.2016
  175SLPC   C3819869   1.575   0.932   5.266  0.0171 -0.0629 -0.7992
  175SLPC   H8X19870   1.474   0.956   5.228 -0.2864 -1.4870 -0.9421
  175SLPC   H8Y19871   1.565   0.826   5.298 -0.3012  0.4183  0.8080
  175SLPC   C3919872   1.689   0.954   5.161  0.6287 -0.6862 -0.2456
  175SLPC   H9X19873   1.791   0.955   5.206  0.9722  1.7013 -0.9582
  175SLPC   H9Y19874   1.657   1.054   5.124 -0.7238 -0.5055  1.2875
  175SLPC  C31019875   1.685   0.851   5.048  0.3595 -0.8062 -0.2730
  175SLPC  H10X19876   1.579   0.827   5.023 -1.0701  2.4502  1.9778
  175SLPC  H10Y19877   1.743   0.763   5.084  0.0082 -0.1877  1.9625
  175SLPC  C31119878   1.749   0.896   4.911 -0.5838 -0.5520  0.4389
  175SLPC  H11X19879   1.859   0.911   4.923 -0.3579 -1.2238 -0.7027
  175SLPC  H11Y19880   1.704   0.995   4.886 -1.8002 -0.9386  1.0272
  175SLPC  C31219881   1.729   0.806   4.788 -0.8508 -0.1385 -0.3214
  175SLPC  H12X19882   1.621   0.818   4.764 -0.1032  2.3993 -2.8954
  175SLPC  H12Y19883   1.758   0.703   4.819 -0.1331  0.1284 -0.0879
  175SLPC  C31319884   1.813   0.837   4.663  0.7626 -0.3312 -0.4175
  175SLPC  H13X19885   1.921   0.812   4.675  0.5804 -1.5456 -1.0964
  175SLPC  H13Y19886   1.827   0.946   4.644  3.3830 -0.5353 -0.1000
  175SLPC  C31419887   1.767   0.755   4.544  0.0282  0.8297  0.0989
  175SLPC  H14X19888   1.670   0.790   4.502  0.8743  0.5384 -2.2838
  175SLPC  H14Y19889   1.763   0.652   4.584 -0.2016  0.9228  0.3178
  175SLPC  C31519890   1.865   0.752   4.425 -0.1460  0.2574  0.6140
  175SLPC  H15X19891   1.968   0.721   4.452  0.1074  0.6559  0.1096
  175SLPC  H15Y19892   1.878   0.854   4.383 -0.7411 -0.3526 -1.1620
  175SLPC  C31619893   1.806   0.656   4.320  0.5550  0.0483  0.2729
  175SLPC  H16X19894   1.698   0.682   4.307 -0.2883 -2.3554  1.7649
  175SLPC  H16Y19895   1.802   0.556   4.367  1.5276 -0.0087  0.2485
  175SLPC  C31719896   1.882   0.656   4.187  0.3196 -0.7229  0.0026
  175SLPC  H17X19897   1.993   0.654   4.198  0.2855  0.3283  0.6985
  175SLPC  H17Y19898   1.859   0.755   4.142  1.3757 -0.2344  0.5039
  175SLPC  C31819899   1.848   0.557   4.075  0.3436  0.6876  0.0946
  175SLPC  H18X19900   1.743   0.552   4.040 -0.4399  0.9881  2.2436
  175SLPC  H18Y19901   1.866   0.454   4.111 -3.4178 -0.0190  0.4156
  175SLPC  H18Z19902   1.917   0.570   3.989 -0.1682 -0.7001 -0.5682
  176SLPC     N19903   2.748   6.564   6.932 -0.1470 -0.1385  0.2080
  176SLPC   C1319904   2.612   6.567   7.004  0.5172  0.1449 -0.0011
  176SLPC  H13A19905   2.616   6.518   7.100  0.9783  0.1025 -0.0379
  176SLPC  H13B19906   2.585   6.672   7.004 -0.4172 -0.0554 -2.1610
  176SLPC  H13C19907   2.538   6.519   6.942  2.0976 -1.9859 -0.3310
  176SLPC   C1419908   2.809   6.425   6.946 -0.6677  0.3440 -0.7790
  176SLPC  H14A19909   2.750   6.351   6.895  1.1124 -0.9060 -1.1160
  176SLPC  H14B19910   2.913   6.422   6.914  0.6419  0.2084  2.9760
  176SLPC  H14C19911   2.805   6.390   7.048 -2.1581 -0.1077 -0.9802
  176SLPC   C1519912   2.845   6.649   6.997 -0.3577  0.1893 -0.4237
  176SLPC  H15A19913   2.832   6.752   6.968 -2.6713 -0.0457 -0.3786
  176SLPC  H15B19914   2.841   6.635   7.104  1.0449  0.2061 -0.3526
  176SLPC  H15C19915   2.941   6.613   6.961 -0.5694 -1.4249  0.5015
  176SLPC   C1219916   2.732   6.593   6.783  0.2055 -0.0479 -0.0658
  176SLPC  H12A19917   2.828   6.607   6.737 -0.4896  3.1781 -0.7714
  176SLPC  H12B19918   2.673   6.682   6.768  0.7320  0.4078  0.4967
  176SLPC   C1119919   2.644   6.494   6.695  0.2429 -0.1817 -0.1606
  176SLPC  H11A19920   2.653   6.389   6.731 -2.2756 -0.6561 -0.7001
  176SLPC  H11B19921   2.677   6.499   6.589  0.0938  1.6516 -0.1515
  176SLPC     P19922   2.439   6.645   6.645 -0.2939  0.2463 -0.0462
  176SLPC   O1319923   2.299   6.633   6.690  0.1936 -0.0391 -0.4988
  176SLPC   O1419924   2.520   6.769   6.676  1.0069 -0.7049  0.2823
  176SLPC   O1219925   2.501   6.522   6.715 -0.2969  0.6932 -0.3760
  176SLPC   O1119926   2.455   6.601   6.490 -0.2181 -0.6748 -0.6413
  176SLPC    C119927   2.404   6.470   6.464  0.4051  0.3146  0.3841
  176SLPC    HA19928   2.458   6.385   6.512 -1.4795 -0.6633  0.8709
  176SLPC    HB19929   2.299   6.471   6.499  0.2170  2.2022 -0.1214
  176SLPC    C219930   2.413   6.450   6.309 -0.3834 -0.3466  0.3780
  176SLPC    HS19931   2.378   6.348   6.283  3.1811 -2.3502  2.5779
  176SLPC   O2119932   2.549   6.470   6.272  0.0846 -0.1288  0.2967
  176SLPC   C2119933   2.634   6.376   6.300 -0.7043 -0.4917  0.0037
  176SLPC   O2219934   2.607   6.266   6.351  0.0865 -0.4024  0.1744
  176SLPC   C2219935   2.775   6.428   6.250  0.1689 -0.1282 -0.0513
  176SLPC   H2R19936   2.767   6.443   6.140  0.8188  2.0129  0.1702
  176SLPC   H2S19937   2.812   6.518   6.303  2.5890 -0.2582 -1.3887
  176SLPC    C319938   2.325   6.558   6.238  0.0574  0.0407 -0.2575
  176SLPC    HX19939   2.352   6.656   6.282 -1.0637  0.9720 -1.5467
  176SLPC    HY19940   2.217   6.539   6.254 -0.7973  2.2574 -2.6473
  176SLPC   O3119941   2.342   6.554   6.088 -0.2176 -0.3849 -0.5616
  176SLPC   C3119942   2.432   6.647   6.051  0.7190 -0.1477  0.2527
  176SLPC   O3219943   2.490   6.727   6.116  0.1057 -0.5007 -0.1664
  176SLPC   C3219944   2.455   6.623   5.894 -0.3327  0.3953  0.0474
  176SLPC   H2X19945   2.363   6.653   5.840  1.0657  1.9679 -1.5769
  176SLPC   H2Y19946   2.486   6.517   5.882  0.7276  0.5129  1.4364
  176SLPC   C2319947   2.888   6.320   6.268 -1.0743 -0.4599 -0.1330
  176SLPC   H3R19948   2.866   6.221   6.222  1.0057 -0.5002 -1.1417
  176SLPC   H3S19949   2.899   6.300   6.377  0.0166 -1.8896 -0.4789
  176SLPC   C2419950   3.018   6.381   6.211  0.9573 -0.2249  1.1100
  176SLPC   H4R19951   3.051   6.458   6.284 -2.1978  1.1666  1.2147
  176SLPC   H4S19952   2.994   6.432   6.116  0.0790  0.0565  1.4743
  176SLPC   C2519953   3.120   6.271   6.189 -0.1179  0.1659  0.9325
  176SLPC   H5R19954   3.072   6.186   6.136  1.3659 -0.7050  0.9184
  176SLPC   H5S19955   3.134   6.246   6.296  1.4737  0.9735  0.9485
  176SLPC   C2619956   3.259   6.309   6.134  0.3298  0.3457 -0.0024
  176SLPC   H6R19957   3.322   6.225   6.169 -3.3769 -1.9240  1.7569
  176SLPC   H6S19958   3.302   6.402   6.178  2.5103 -0.3473 -0.5413
  176SLPC   C2719959   3.246   6.316   5.982  0.1299  0.4811  0.3394
  176SLPC   H7R19960   3.338   6.351   5.931  0.1254  0.0988  0.0651
  176SLPC   H7S19961   3.175   6.399   5.960 -0.5906 -0.7304 -2.2970
  176SLPC   C2819962   3.196   6.200   5.904  0.8780  0.4318  0.0595
  176SLPC   H8R19963   3.086   6.209   5.903  0.8609  0.3848  1.0325
  176SLPC   H8S19964   3.230   6.101   5.941  0.5262  0.0500 -0.6101
  176SLPC   C2919965   3.241   6.214   5.760  0.2563  0.2447  0.0285
  176SLPC   H9R19966   3.262   6.316   5.725  0.6921  0.8125  1.8277
  176SLPC  C21019967   3.270   6.109   5.677  0.1680  0.2660 -0.9570
  176SLPC  H10R19968   3.321   6.122   5.580  2.0178  0.0573 -0.0653
  176SLPC  C21119969   3.256   5.961   5.712  0.3837 -0.4064 -0.7351
  176SLPC  H11R19970   3.230   5.948   5.820  0.1059  0.9938 -0.6112
  176SLPC  H11S19971   3.351   5.913   5.682  1.0270 -0.8908  1.8342
  176SLPC  C21219972   3.147   5.895   5.628 -0.1800  0.1516 -0.5270
  176SLPC  H12R19973   3.196   5.853   5.539  1.3506 -2.7855  1.5175
  176SLPC  C21319974   3.016   5.888   5.647  0.3352 -0.9407  0.1211
  176SLPC  H13R19975   2.960   5.846   5.562 -1.1549  0.2272  0.4734
  176SLPC  C21419976   2.940   5.940   5.765 -0.3230  0.1479  0.4443
  176SLPC  H14R19977   3.001   5.978   5.850 -0.3735  0.9670  0.1228
  176SLPC  H14S19978   2.874   5.860   5.805 -0.6450 -0.5240 -1.3753
  176SLPC  C21519979   2.832   6.034   5.723 -0.9232 -0.2758 -0.0463
  176SLPC  H15R19980   2.780   5.974   5.646 -1.1185 -0.2830  0.0878
  176SLPC  H15S19981   2.875   6.132   5.692  1.1280 -0.8888  0.7140
  176SLPC  C21619982   2.718   6.065   5.826  0.5660  0.6280 -0.6766
  176SLPC  H16R19983   2.700   5.971   5.882  0.2383  0.7599 -0.5497
  176SLPC  H16S19984   2.626   6.093   5.770 -0.0773 -0.4120 -0.1677
  176SLPC  C21719985   2.757   6.181   5.929  0.9354  0.2219 -0.0713
  176SLPC  H17R19986   2.862   6.158   5.954 -0.2542 -2.4257  3.1063
  176SLPC  H17S19987   2.691   6.179   6.018 -1.7185 -0.1386 -1.9066
  176SLPC  C21819988   2.737   6.314   5.862  0.1939  0.1017 -0.0821
  176SLPC  H18R19989   2.632   6.328   5.828 -0.6449 -1.0929  1.8757
  176SLPC  H18S19990   2.802   6.329   5.772 -0.9607  0.4993 -0.8771
  176SLPC  H18T19991   2.763   6.388   5.940  0.9757 -1.7428  1.4805
  176SLPC   C3319992   2.570   6.704   5.822 -0.9547 -0.3905 -0.2741
  176SLPC   H3X19993   2.655   6.673   5.886 -1.8904 -4.2433 -0.6698
  176SLPC   H3Y19994   2.538   6.809   5.836 -1.0479 -0.1386 -2.1253
  176SLPC   C3419995   2.591   6.673   5.679 -0.5889 -0.3641  0.9052
  176SLPC   H4X19996   2.619   6.566   5.680  0.5422 -0.0858  2.3861
  176SLPC   H4Y19997   2.676   6.729   5.633 -2.4806  1.2963 -0.7691
  176SLPC   C3519998   2.470   6.690   5.588  0.5227  0.5409 -0.8733
  176SLPC   H5X19999   2.453   6.799   5.581 -0.5598  0.3637 -1.2428
  176SLPC   H5Y20000   2.381   6.635   5.626  0.6385  2.6948  2.9979
  176SLPC   C3620001   2.495   6.646   5.444  0.4574  0.3401  0.2618
  176SLPC   H6X20002   2.397   6.615   5.403  1.7054 -2.1828 -1.0590
  176SLPC   H6Y20003   2.566   6.561   5.444 -1.3529 -1.2850 -1.9901
  176SLPC   C3720004   2.547   6.756   5.351  0.4610 -0.3281  0.7250
  176SLPC   H7X20005   2.649   6.786   5.382  0.7171  1.1792 -1.3824
  176SLPC   H7Y20006   2.479   6.843   5.359 -0.7120 -1.2036  0.5946
  176SLPC   C3820007   2.544   6.711   5.204  0.2496 -0.0350  0.0371
  176SLPC   H8X20008   2.566   6.802   5.144 -1.9565  0.2695 -0.3822
  176SLPC   H8Y20009   2.441   6.683   5.174 -0.0896 -1.6882  2.4497
  176SLPC   C3920010   2.656   6.611   5.176 -0.0269  0.4761  0.2338
  176SLPC   H9X20011   2.638   6.510   5.217  1.7296 -0.2887 -0.7571
  176SLPC   H9Y20012   2.754   6.651   5.209  0.9254 -1.7735  0.2608
  176SLPC  C31020013   2.678   6.575   5.024  0.1144  0.1323 -0.1119
  176SLPC  H10X20014   2.718   6.659   4.964 -2.6677  2.3777  0.9325
  176SLPC  H10Y20015   2.574   6.560   4.989  0.0586 -2.4629  0.9196
  176SLPC  C31120016   2.763   6.453   5.007  0.3246 -0.7881 -0.4285
  176SLPC  H11X20017   2.713   6.377   5.071  1.5144 -1.7241 -0.5927
  176SLPC  H11Y20018   2.869   6.476   5.031  0.4938 -1.4636 -0.5221
  176SLPC  C31220019   2.774   6.403   4.858  0.0661 -0.3392  0.4787
  176SLPC  H12X20020   2.832   6.478   4.801  1.3417 -0.9284  0.9733
  176SLPC  H12Y20021   2.670   6.400   4.820 -0.1671  1.8798  0.8140
  176SLPC  C31320022   2.839   6.268   4.842  0.4735  0.4564  0.0787
  176SLPC  H13X20023   2.784   6.193   4.903 -1.0074  0.6779 -0.9468
  176SLPC  H13Y20024   2.945   6.272   4.876  0.6258 -1.8946  0.1004
  176SLPC  C31420025   2.844   6.204   4.694 -0.7850  0.0327  0.0587
  176SLPC  H14X20026   2.922   6.266   4.645 -1.0793  1.9239  1.8148
  176SLPC  H14Y20027   2.743   6.215   4.648 -0.4981  0.2650 -0.5310
  176SLPC  C31520028   2.879   6.053   4.697 -0.0927 -0.6089 -0.6842
  176SLPC  H15X20029   2.966   6.049   4.766 -0.0615  1.7782 -0.5164
  176SLPC  H15Y20030   2.911   6.011   4.599 -1.0482  1.0420 -1.7397
  176SLPC  C31620031   2.771   5.961   4.747  0.3545  0.0135  0.1749
  176SLPC  H16X20032   2.683   5.953   4.679  1.6891 -0.2419 -1.6005
  176SLPC  H16Y20033   2.736   6.001   4.844 -1.5835  3.0854 -1.5937
  176SLPC  C31720034   2.820   5.818   4.763  0.3227 -0.6959 -0.2251
  176SLPC  H17X20035   2.919   5.829   4.813  0.5487  1.1286 -0.9998
  176SLPC  H17Y20036   2.839   5.769   4.665 -1.5683  1.4338 -1.7292
  176SLPC  C31820037   2.721   5.734   4.847  0.1833 -0.7829  0.1238
  176SLPC  H18X20038   2.618   5.756   4.813  0.0774  1.2163  1.6026
  176SLPC  H18Y20039   2.731   5.766   4.953 -0.3673  2.5530 -0.7142
  176SLPC  H18Z20040   2.739   5.626   4.828  0.9066 -0.7344  0.5052
  177SLPC     N20041   1.829   1.223   6.558 -0.2133  0.2895  0.0450
  177SLPC   C1320042   1.892   1.341   6.621  0.0104 -0.0757 -0.3642
  177SLPC  H13A20043   1.999   1.337   6.613  0.1180  1.6862 -0.2640
  177SLPC  H13B20044   1.860   1.434   6.575 -1.0562 -0.3945 -0.2854
  177SLPC  H13C20045   1.864   1.349   6.725 -0.2831 -2.1582 -0.2522
  177SLPC   C1420046   1.686   1.252   6.531 -0.0414  0.4822 -0.7202
  177SLPC  H14A20047   1.623   1.250   6.619 -0.7496  0.2242 -1.2197
  177SLPC  H14B20048   1.671   1.348   6.484  1.6396  0.8121 -0.6253
  177SLPC  H14C20049   1.643   1.163   6.486 -1.6504  0.2736  1.0701
  177SLPC   C1520050   1.851   1.109   6.644 -0.0565  0.3474  0.5143
  177SLPC  H15A20051   1.829   1.114   6.750 -0.5808  0.0610  0.4194
  177SLPC  H15B20052   1.826   1.013   6.601 -0.4810  1.1658 -1.1244
  177SLPC  H15C20053   1.959   1.106   6.639 -0.0354  2.2079 -1.5789
  177SLPC   C1220054   1.899   1.207   6.422 -0.3968 -0.0949 -0.1964
  177SLPC  H12A20055   1.858   1.276   6.350 -1.9647 -0.6432  0.1465
  177SLPC  H12B20056   1.878   1.107   6.386  1.1472 -0.2524 -0.7214
  177SLPC   C1120057   2.050   1.223   6.427 -0.5876 -0.0975 -0.7286
  177SLPC  H11A20058   2.073   1.327   6.460  0.9453  0.2183 -2.6189
  177SLPC  H11B20059   2.097   1.216   6.326 -0.2865 -0.4913 -0.5610
  177SLPC     P20060   2.182   0.999   6.459  0.1574 -0.7492 -0.0257
  177SLPC   O1320061   2.306   1.050   6.394 -0.0857  0.0804  0.9905
  177SLPC   O1420062   2.211   0.890   6.557  0.0435  0.5878  0.3323
  177SLPC   O1220063   2.101   1.121   6.517  0.4503 -0.3244  0.0868
  177SLPC   O1120064   2.086   0.941   6.346  0.1898 -0.1076 -0.2908
  177SLPC    C120065   2.136   0.864   6.232  0.0439 -0.1804  0.5192
  177SLPC    HA20066   2.198   0.936   6.173 -1.2828 -0.2609 -1.0461
  177SLPC    HB20067   2.188   0.772   6.266 -3.0955 -2.8387 -1.2787
  177SLPC    C220068   2.029   0.805   6.134  0.8992  0.4085 -0.6203
  177SLPC    HS20069   1.986   0.718   6.188  1.5828 -0.3800 -1.3258
  177SLPC   O2120070   2.078   0.767   6.000 -0.6778 -0.7070  0.0117
  177SLPC   C2120071   2.158   0.663   5.996 -0.4075  0.0221 -0.1556
  177SLPC   O2220072   2.183   0.585   6.082 -0.2075 -0.3342  0.2292
  177SLPC   C2220073   2.199   0.649   5.849  0.4809 -0.5400 -0.0562
  177SLPC   H2R20074   2.112   0.683   5.789 -0.0270  0.0182  0.9804
  177SLPC   H2S20075   2.277   0.726   5.830  0.6869 -0.9258 -0.8456
  177SLPC    C320076   1.903   0.900   6.112  0.0432  0.4742  0.9330
  177SLPC    HX20077   1.939   0.994   6.063 -2.6869  1.0340 -0.1711
  177SLPC    HY20078   1.875   0.925   6.216  0.0343  1.2336  0.7561
  177SLPC   O3120079   1.802   0.836   6.025 -0.1642  0.2652 -0.0525
  177SLPC   C3120080   1.695   0.790   6.084  0.2194  0.1416  0.0932
  177SLPC   O3220081   1.670   0.783   6.202 -0.1280 -0.2503 -0.2931
  177SLPC   C3220082   1.604   0.754   5.970  0.0539  0.3473  0.1296
  177SLPC   H2X20083   1.651   0.670   5.914  1.4968  0.7560  0.6656
  177SLPC   H2Y20084   1.596   0.836   5.896 -0.3644 -0.7146 -1.0456
  177SLPC   C2320085   2.247   0.507   5.813  0.0300 -0.0885  0.2615
  177SLPC   H3R20086   2.168   0.432   5.835  2.6853 -2.7945  1.3456
  177SLPC   H3S20087   2.337   0.503   5.879  2.1859  1.8948 -2.2929
  177SLPC   C2420088   2.288   0.489   5.667 -0.5627 -0.9808 -0.1542
  177SLPC   H4R20089   2.342   0.394   5.647  2.6311  0.2131  1.9288
  177SLPC   H4S20090   2.346   0.578   5.634  0.0447 -1.3631 -0.1335
  177SLPC   C2520091   2.166   0.510   5.570  0.3421  0.3295 -0.1230
  177SLPC   H5R20092   2.130   0.615   5.584 -0.3882  0.3498 -1.8429
  177SLPC   H5S20093   2.087   0.437   5.597  1.9664 -0.6683  2.1881
  177SLPC   C2620094   2.219   0.495   5.428 -1.2135  0.6706  0.0393
  177SLPC   H6R20095   2.273   0.399   5.413 -2.4892 -0.1597  0.5231
  177SLPC   H6S20096   2.286   0.577   5.395 -0.4569  0.5516  1.2116
  177SLPC   C2720097   2.090   0.502   5.341  0.0698  0.3198  0.4208
  177SLPC   H7R20098   2.053   0.606   5.335  0.3620  0.4235  0.4024
  177SLPC   H7S20099   2.003   0.442   5.375 -1.0292  1.2292 -0.6759
  177SLPC   C2820100   2.120   0.456   5.196  0.7629  0.0057 -0.2740
  177SLPC   H8R20101   2.019   0.447   5.150 -0.5776  3.3470  1.6810
  177SLPC   H8S20102   2.167   0.357   5.209  0.5950 -0.0733 -0.2576
  177SLPC   C2920103   2.211   0.540   5.113  0.3063 -0.2042  0.2424
  177SLPC   H9R20104   2.313   0.551   5.154  0.9434  1.1514 -1.5571
  177SLPC  C21020105   2.182   0.590   4.992  0.2790 -0.2708 -0.0639
  177SLPC  H10R20106   2.261   0.656   4.951  1.8330 -1.9620  0.0796
  177SLPC  C21120107   2.037   0.591   4.943 -0.1417 -0.0579  0.7161
  177SLPC  H11R20108   2.026   0.679   4.875  3.8792 -0.0678 -0.1699
  177SLPC  H11S20109   1.962   0.619   5.020  0.2939  1.1912  0.7192
  177SLPC  C21220110   2.004   0.468   4.862 -0.0268 -0.1054  0.0853
  177SLPC  H12R20111   1.925   0.401   4.898  0.0235 -0.5046 -0.5169
  177SLPC  C21320112   2.062   0.436   4.743  0.4255  0.2162  1.2936
  177SLPC  H13R20113   2.031   0.341   4.698 -1.2871  1.4892 -0.4300
  177SLPC  C21420114   2.177   0.513   4.669  0.1551  0.4323 -0.4357
  177SLPC  H14R20115   2.169   0.617   4.707 -0.9097 -0.4020  1.8081
  177SLPC  H14S20116   2.173   0.521   4.559  3.0926  1.7848 -0.5384
  177SLPC  C21520117   2.307   0.445   4.698  0.0654 -0.2313 -0.5536
  177SLPC  H15R20118   2.316   0.346   4.647  1.1415 -1.1721  1.3331
  177SLPC  H15S20119   2.325   0.417   4.804 -2.3462 -2.8171 -0.7324
  177SLPC  C21620120   2.425   0.538   4.667 -0.3617 -0.2353  0.7278
  177SLPC  H16R20121   2.416   0.631   4.727 -0.9305  0.8655 -0.9622
  177SLPC  H16S20122   2.406   0.568   4.561 -0.3816 -0.7792  0.5760
  177SLPC  C21720123   2.565   0.476   4.671  0.1148  0.1961  0.0296
  177SLPC  H17R20124   2.556   0.385   4.607  0.9468 -0.1404  0.3815
  177SLPC  H17S20125   2.602   0.442   4.770  1.3218  1.2198 -0.0435
  177SLPC  C21820126   2.671   0.568   4.609 -0.1452 -0.4716 -0.5077
  177SLPC  H18R20127   2.771   0.520   4.609  0.5660  0.9611  0.4183
  177SLPC  H18S20128   2.678   0.663   4.666 -2.2711 -0.7524  0.3188
  177SLPC  H18T20129   2.658   0.589   4.500  0.2246 -1.1640 -0.6917
  177SLPC   C3320130   1.467   0.719   6.031  0.2248  0.1669 -0.2411
  177SLPC   H3X20131   1.436   0.810   6.085  1.0062  0.7978 -0.8275
  177SLPC   H3Y20132   1.475   0.630   6.098  0.5527  0.8335  0.6167
  177SLPC   C3420133   1.367   0.690   5.914  0.1411 -0.5755 -0.2914
  177SLPC   H4X20134   1.397   0.758   5.831  0.9610 -1.1479 -0.4763
  177SLPC   H4Y20135   1.265   0.714   5.953  0.7082  0.0147  0.8912
  177SLPC   C3520136   1.364   0.542   5.865 -0.4103 -0.2114 -0.0956
  177SLPC   H5X20137   1.327   0.474   5.944  0.1044  0.2192  0.5250
  177SLPC   H5Y20138   1.461   0.507   5.824 -0.8049 -0.6660 -0.6475
  177SLPC   C3620139   1.275   0.533   5.743  0.2367  0.6953  0.0544
  177SLPC   H6X20140   1.179   0.582   5.767  0.5902  1.2014  0.4555
  177SLPC   H6Y20141   1.257   0.425   5.725  3.5782  0.1044 -0.4036
  177SLPC   C3720142   1.340   0.598   5.622 -0.9388 -0.2135 -0.3207
  177SLPC   H7X20143   1.444   0.565   5.604 -0.6743  0.2390  0.3599
  177SLPC   H7Y20144   1.344   0.707   5.643 -1.2381 -0.3741  0.5900
  177SLPC   C3820145   1.263   0.560   5.494  0.6937  0.4255  0.1411
  177SLPC   H8X20146   1.155   0.576   5.515  0.7093  0.5193  0.1501
  177SLPC   H8Y20147   1.284   0.456   5.462  0.7844  0.9522 -1.5992
  177SLPC   C3920148   1.306   0.650   5.372 -0.0385 -0.2246 -0.3601
  177SLPC   H9X20149   1.402   0.604   5.340  0.0507 -2.0241  2.1147
  177SLPC   H9Y20150   1.327   0.753   5.409  1.0039 -0.0931 -1.2520
  177SLPC  C31020151   1.204   0.650   5.254 -0.5481 -0.2512 -0.0194
  177SLPC  H10X20152   1.108   0.693   5.289  0.6655  2.1443  0.6077
  177SLPC  H10Y20153   1.189   0.542   5.233  1.4027 -0.8155  1.1615
  177SLPC  C31120154   1.244   0.722   5.129 -0.1246 -0.0387 -0.1652
  177SLPC  H11X20155   1.284   0.823   5.153 -0.1830 -0.4446  1.7741
  177SLPC  H11Y20156   1.148   0.741   5.076 -0.2435 -0.8537 -0.2494
  177SLPC  C31220157   1.328   0.639   5.024  0.3112 -0.5710  0.3347
  177SLPC  H12X20158   1.309   0.533   5.051 -1.1374 -1.2377 -2.8120
  177SLPC  H12Y20159   1.435   0.665   5.037  0.4521 -0.5819 -0.6821
  177SLPC  C31320160   1.277   0.651   4.873 -0.2124  0.8546  0.0332
  177SLPC  H13X20161   1.288   0.760   4.852  0.8415  0.8238  0.4109
  177SLPC  H13Y20162   1.168   0.628   4.873 -0.4054  1.5711 -1.5968
  177SLPC  C31420163   1.367   0.555   4.789 -0.1336 -0.1361 -0.1936
  177SLPC  H14X20164   1.355   0.447   4.813 -0.1192 -0.6681 -2.3337
  177SLPC  H14Y20165   1.467   0.596   4.815 -0.7603  0.0700  2.0256
  177SLPC  C31520166   1.338   0.555   4.631  0.1244 -0.8604 -0.4003
  177SLPC  H15X20167   1.353   0.661   4.604 -2.2464  0.1762  1.9243
  177SLPC  H15Y20168   1.231   0.527   4.619 -0.2656  1.1014 -1.8509
  177SLPC  C31620169   1.434   0.458   4.551 -0.3567  0.1244  0.4299
  177SLPC  H16X20170   1.434   0.363   4.609  1.5736  1.2461  2.4091
  177SLPC  H16Y20171   1.533   0.509   4.558 -0.3429 -0.0740  1.9744
  177SLPC  C31720172   1.392   0.444   4.404  0.0564 -0.1773 -0.3188
  177SLPC  H17X20173   1.393   0.546   4.362  2.7308 -0.1139 -0.3195
  177SLPC  H17Y20174   1.289   0.403   4.405  0.0281 -0.1198 -0.7344
  177SLPC  C31820175   1.480   0.357   4.319 -0.0877  0.2270  0.0944
  177SLPC  H18X20176   1.486   0.256   4.365 -0.2570 -0.0050 -0.3870
  177SLPC  H18Y20177   1.580   0.406   4.316 -0.8315  1.8266  0.1736
  177SLPC  H18Z20178   1.446   0.350   4.214 -0.6960  0.3729  0.2796
  178SLPC     N20179   6.075   6.048   6.878  0.0833 -0.0119  0.5173
  178SLPC   C1320180   6.138   6.156   6.966  0.1776  0.5229  0.0632
  178SLPC  H13A20181   6.242   6.170   6.941  0.4781 -0.0887  0.9492
  178SLPC  H13B20182   6.083   6.247   6.948  0.2809  0.0060 -4.0244
  178SLPC  H13C20183   6.133   6.134   7.071  1.4531  1.9803  0.4515
  178SLPC   C1420184   5.933   6.018   6.919  0.9417 -0.2122 -0.0046
  178SLPC  H14A20185   5.883   6.105   6.957 -0.3793 -0.6655 -0.6533
  178SLPC  H14B20186   5.883   5.971   6.835 -2.7630  0.5085  1.6130
  178SLPC  H14C20187   5.941   5.945   6.998  2.1213 -0.3873 -0.2628
  178SLPC   C1520188   6.165   5.928   6.902 -0.2357  1.2136  0.1326
  178SLPC  H15A20189   6.123   5.853   6.836  3.2415 -0.1379 -0.7422
  178SLPC  H15B20190   6.271   5.942   6.890  0.2319 -2.8965 -2.5842
  178SLPC  H15C20191   6.159   5.889   7.003  3.0679 -0.8743 -0.3220
  178SLPC   C1220192   6.091   6.088   6.731  0.4783  0.5741  0.8492
  178SLPC  H12A20193   6.196   6.095   6.706  0.3915  1.8396  0.7566
  178SLPC  H12B20194   6.038   6.182   6.724  2.2820  1.6259  0.8372
  178SLPC   C1120195   6.025   6.000   6.624  0.4735 -0.0484 -0.0780
  178SLPC  H11A20196   6.047   6.043   6.524 -3.8152  1.4270 -0.5957
  178SLPC  H11B20197   5.914   6.004   6.629  0.5503  1.8172  0.9690
  178SLPC     P20198   6.224   5.832   6.575  0.2750  0.2584 -0.0593
  178SLPC   O1320199   6.302   5.958   6.573  0.4028 -0.0578 -0.6993
  178SLPC   O1420200   6.279   5.721   6.654 -0.0932 -0.2722  0.0934
  178SLPC   O1220201   6.085   5.870   6.629  0.0636 -0.1658  0.0389
  178SLPC   O1120202   6.201   5.795   6.424 -0.1852 -0.0720 -0.1657
  178SLPC    C120203   6.092   5.725   6.371  0.1755 -0.6865  0.1192
  178SLPC    HA20204   6.115   5.616   6.366  0.8732 -0.5928  1.1585
  178SLPC    HB20205   6.005   5.740   6.438  1.0755 -0.7970  1.3415
  178SLPC    C220206   6.052   5.770   6.226  0.0621 -0.0324 -0.3196
  178SLPC    HS20207   5.960   5.718   6.195  0.6475 -1.6603  0.5481
  178SLPC   O2120208   6.157   5.737   6.137 -0.3885  0.0892 -0.4497
  178SLPC   C2120209   6.150   5.612   6.092  0.1901  0.3613  0.1639
  178SLPC   O2220210   6.088   5.527   6.144 -0.1068  0.0197 -0.3854
  178SLPC   C2220211   6.223   5.592   5.964  0.5582 -0.3997  0.5262
  178SLPC   H2R20212   6.181   5.660   5.887 -1.6822 -1.3842  0.8002
  178SLPC   H2S20213   6.333   5.603   5.975  1.5313 -3.4157 -3.5520
  178SLPC    C320214   6.026   5.922   6.225  0.0112  0.6402 -0.5342
  178SLPC    HX20215   6.113   5.970   6.274 -0.2722  1.9960 -1.2969
  178SLPC    HY20216   5.935   5.935   6.287 -0.3708  1.1289 -1.1776
  178SLPC   O3120217   5.999   5.971   6.090  0.6634 -0.4669 -0.5408
  178SLPC   C3120218   6.107   6.030   6.033 -0.3528 -0.2370  0.0586
  178SLPC   O3220219   6.213   6.054   6.081 -0.2516 -0.3141  0.5960
  178SLPC   C3220220   6.071   6.060   5.893 -0.1371  0.4330  0.5977
  178SLPC   H2X20221   5.960   6.051   5.894 -0.2194  0.6112  3.4190
  178SLPC   H2Y20222   6.112   5.985   5.823  0.1602  0.3141  0.8964
  178SLPC   C2320223   6.210   5.448   5.918  0.7389  0.4330  0.0364
  178SLPC   H3R20224   6.103   5.419   5.922  0.6765  0.7812  1.3166
  178SLPC   H3S20225   6.270   5.378   5.981  1.8591  1.5298  0.2204
  178SLPC   C2420226   6.253   5.436   5.772 -0.3019 -0.4968  0.8140
  178SLPC   H4R20227   6.364   5.435   5.769 -0.2191 -4.4518  0.1127
  178SLPC   H4S20228   6.209   5.519   5.712 -2.1620 -0.8467  1.6249
  178SLPC   C2520229   6.196   5.308   5.711  0.8548  0.4072  1.3950
  178SLPC   H5R20230   6.088   5.302   5.684  0.8469 -0.3590  1.5684
  178SLPC   H5S20231   6.223   5.230   5.786 -1.0374 -0.8410  0.8531
  178SLPC   C2620232   6.277   5.265   5.583 -0.1203 -0.2463 -0.4685
  178SLPC   H6R20233   6.381   5.254   5.621 -0.2451  0.4905  0.1029
  178SLPC   H6S20234   6.265   5.338   5.500 -1.1282  0.2935  0.1350
  178SLPC   C2720235   6.236   5.124   5.523 -0.3498 -0.2751  1.2326
  178SLPC   H7R20236   6.132   5.139   5.487  0.2247  2.0428  0.3497
  178SLPC   H7S20237   6.232   5.049   5.605  0.5207 -1.5515  0.1679
  178SLPC   C2820238   6.324   5.086   5.403  0.2779  0.1331 -0.0655
  178SLPC   H8R20239   6.424   5.075   5.451  0.2564  0.2346  0.0050
  178SLPC   H8S20240   6.332   5.179   5.343  0.7770  1.9064  2.5728
  178SLPC   C2920241   6.292   4.961   5.324  0.1371 -0.0297  0.1622
  178SLPC   H9R20242   6.289   4.862   5.372 -6.0881 -0.8039 -1.0620
  178SLPC  C21020243   6.212   4.956   5.213 -0.8659 -0.6882  0.9946
  178SLPC  H10R20244   6.209   4.856   5.168 -1.0586 -0.8324  1.3269
  178SLPC  C21120245   6.148   5.074   5.140 -0.1537 -0.6306 -0.0121
  178SLPC  H11R20246   6.210   5.166   5.138 -1.7964  0.5437  0.6613
  178SLPC  H11S20247   6.054   5.100   5.193  0.3261 -1.0971  1.1092
  178SLPC  C21220248   6.116   5.047   4.993  0.6236  0.0966  0.4185
  178SLPC  H12R20249   6.199   5.046   4.921  2.4696  2.5061  2.3401
  178SLPC  C21320250   6.002   5.000   4.942  0.6068  1.0620 -0.7411
  178SLPC  H13R20251   5.994   4.988   4.833 -0.4052 -0.2246 -0.5546
  178SLPC  C21420252   5.873   4.971   5.018 -0.0465  0.2211 -0.2740
  178SLPC  H14R20253   5.879   5.014   5.120  1.3040 -0.8665  0.1327
  178SLPC  H14S20254   5.869   4.860   5.025 -1.0909  0.2292 -0.6040
  178SLPC  C21520255   5.734   4.999   4.953  0.1710  0.3366  0.0611
  178SLPC  H15R20256   5.659   4.956   5.022  1.2089  0.3260  1.2365
  178SLPC  H15S20257   5.732   4.952   4.853  2.0898  0.4622 -0.0793
  178SLPC  C21620258   5.714   5.152   4.928  0.4787 -0.3987  0.8737
  178SLPC  H16R20259   5.783   5.192   4.851 -1.4416 -0.8193 -1.1687
  178SLPC  H16S20260   5.728   5.206   5.024  1.1015  1.1936 -0.0771
  178SLPC  C21720261   5.571   5.173   4.878 -0.7721 -0.2891 -0.4182
  178SLPC  H17R20262   5.560   5.282   4.861 -2.0135 -0.3603 -0.1579
  178SLPC  H17S20263   5.507   5.156   4.968 -1.0201  0.6505 -0.4121
  178SLPC  C21820264   5.519   5.097   4.751 -0.9125  0.5147  0.0469
  178SLPC  H18R20265   5.519   4.987   4.767 -1.1794  0.4461 -0.4235
  178SLPC  H18S20266   5.583   5.119   4.663  0.1254 -0.2139  0.5952
  178SLPC  H18T20267   5.422   5.133   4.712 -0.4065  1.5437 -0.3072
  178SLPC   C3320268   6.106   6.204   5.853  0.3014 -0.4510 -0.3194
  178SLPC   H3X20269   6.216   6.217   5.865  0.5206 -0.5561 -1.9878
  178SLPC   H3Y20270   6.065   6.278   5.925  0.2952  0.4899 -1.2660
  178SLPC   C3420271   6.051   6.233   5.708 -0.7528  0.4703  0.6764
  178SLPC   H4X20272   5.941   6.215   5.716 -0.5715 -0.6231  0.8348
  178SLPC   H4Y20273   6.084   6.148   5.644 -0.9729  1.7020 -1.1769
  178SLPC   C3520274   6.082   6.362   5.640  0.1378  0.4408  0.4387
  178SLPC   H5X20275   6.192   6.368   5.626  0.2299 -1.9793 -0.2357
  178SLPC   H5Y20276   6.037   6.444   5.701  0.3222  1.2328 -0.4585
  178SLPC   C3620277   6.017   6.377   5.498  0.2441 -0.1301 -0.6472
  178SLPC   H6X20278   5.906   6.380   5.494  0.2376  1.4621  0.0745
  178SLPC   H6Y20279   6.044   6.283   5.445 -1.6138 -1.6548  0.9732
  178SLPC   C3720280   6.064   6.506   5.423 -0.6973  0.2383 -0.9019
  178SLPC   H7X20281   6.173   6.515   5.444 -1.0697  0.3979  1.2088
  178SLPC   H7Y20282   6.008   6.579   5.485  0.1864  1.2574 -1.2579
  178SLPC   C3820283   6.007   6.508   5.279 -0.4607 -1.4605  0.1353
  178SLPC   H8X20284   5.958   6.604   5.249  0.8175 -0.2328  1.7812
  178SLPC   H8Y20285   5.929   6.430   5.266 -1.7658 -0.2554  0.3568
  178SLPC   C3920286   6.126   6.490   5.184  0.2758 -0.4843  0.1484
  178SLPC   H9X20287   6.200   6.419   5.228  1.5258  1.3781  1.1719
  178SLPC   H9Y20288   6.188   6.582   5.181  0.4367 -0.6095 -1.6778
  178SLPC  C31020289   6.079   6.462   5.045 -0.3025  0.3808 -0.0806
  178SLPC  H10X20290   6.001   6.536   5.019 -0.1333  0.9293  0.9053
  178SLPC  H10Y20291   6.033   6.361   5.043 -0.3472  0.3918  0.2551
  178SLPC  C31120292   6.182   6.448   4.928 -0.5551 -0.2020 -0.2953
  178SLPC  H11X20293   6.271   6.390   4.959 -0.9240 -1.8612 -2.1030
  178SLPC  H11Y20294   6.207   6.551   4.896  1.8929 -0.6379  0.0712
  178SLPC  C31220295   6.116   6.395   4.798 -0.0259  0.3082  0.4715
  178SLPC  H12X20296   6.021   6.451   4.784  0.2805  0.6505 -0.3142
  178SLPC  H12Y20297   6.081   6.291   4.811 -2.8542  1.0693 -0.2591
  178SLPC  C31320298   6.208   6.404   4.677 -0.6378 -0.0476 -0.3076
  178SLPC  H13X20299   6.295   6.335   4.689 -0.6572  0.1630  1.1684
  178SLPC  H13Y20300   6.259   6.503   4.673 -0.8050  0.2025  2.1819
  178SLPC  C31420301   6.132   6.374   4.556  0.2619 -0.5351 -0.4186
  178SLPC  H14X20302   6.032   6.420   4.558 -1.4339 -3.8475  2.5229
  178SLPC  H14Y20303   6.117   6.264   4.554 -0.6763 -0.4229  0.2351
  178SLPC  C31520304   6.204   6.424   4.427 -0.5412  0.0863  0.3416
  178SLPC  H15X20305   6.215   6.535   4.425  3.8744 -0.1556 -1.2420
  178SLPC  H15Y20306   6.150   6.386   4.338  0.2671 -2.2905  0.8042
  178SLPC  C31620307   6.352   6.375   4.412  0.0806 -0.1199  0.1935
  178SLPC  H16X20308   6.360   6.266   4.433  0.8431 -0.5755 -2.2035
  178SLPC  H16Y20309   6.399   6.437   4.491  0.2948  0.0274 -0.0496
  178SLPC  C31720310   6.431   6.414   4.284 -0.9998  0.5100  0.7386
  178SLPC  H17X20311   6.418   6.524   4.275 -0.6508  0.5294  0.4859
  178SLPC  H17Y20312   6.365   6.376   4.203 -1.0713 -0.6713  1.3247
  178SLPC  C31820313   6.568   6.358   4.266 -0.3575  0.0106 -0.0581
  178SLPC  H18X20314   6.559   6.248   4.279 -1.3517 -0.4272 -3.3897
  178SLPC  H18Y20315   6.633   6.406   4.342 -2.8807 -0.9185  2.8920
  178SLPC  H18Z20316   6.604   6.378   4.163 -1.0868  1.4007 -0.0683
  179SLPC     N20317   4.023   0.027   1.604  0.1631  0.3099 -0.2774
  179SLPC   C1320318   4.090  -0.104   1.615 -0.0736 -0.0087 -0.2404
  179SLPC  H13A20319   4.127  -0.130   1.517  1.0229 -0.4623  0.2678
  179SLPC  H13B20320   4.173  -0.105   1.684  0.7387  1.2869 -1.1519
  179SLPC  H13C20321   4.022  -0.179   1.653 -0.1372  0.3997  0.4544
  179SLPC   C1420322   3.926   0.011   1.494 -0.2004  0.1813  0.1205
  179SLPC  H14A20323   3.880   0.102   1.460 -2.3587 -1.0096 -0.3241
  179SLPC  H14B20324   3.971  -0.029   1.404  0.3196  1.6864 -0.3241
  179SLPC  H14C20325   3.843  -0.055   1.515 -0.8934  0.8512 -0.4390
  179SLPC   C1520326   4.117   0.132   1.558 -0.1401  0.1055 -0.3938
  179SLPC  H15A20327   4.178   0.163   1.641 -0.2404  0.4602 -0.4516
  179SLPC  H15B20328   4.176   0.099   1.473  0.3273  1.8144 -0.7705
  179SLPC  H15C20329   4.068   0.220   1.519 -0.2320 -0.5749 -1.9063
  179SLPC   C1220330   3.949   0.060   1.738  0.0190 -0.0361 -0.2111
  179SLPC  H12A20331   3.882  -0.020   1.765 -2.4580  1.8483 -0.4297
  179SLPC  H12B20332   3.890   0.151   1.732  0.4658  0.1871 -4.4965
  179SLPC   C1120333   4.043   0.078   1.860  0.0673 -0.2486 -0.0460
  179SLPC  H11A20334   4.127   0.006   1.854 -1.0599 -1.6393  0.3621
  179SLPC  H11B20335   3.991   0.053   1.956 -0.5094 -2.4592 -0.8853
  179SLPC     P20336   4.004   0.327   1.937  0.1328 -0.2010  0.1717
  179SLPC   O1320337   4.085   0.446   1.975  0.0424  0.1109  0.2751
  179SLPC   O1420338   3.882   0.356   1.857 -0.3423  0.0720 -0.0020
  179SLPC   O1220339   4.090   0.217   1.870  0.3353  0.3031 -0.3228
  179SLPC   O1120340   3.963   0.258   2.071  0.0106  0.4233  0.3942
  179SLPC    C120341   3.903   0.340   2.171 -0.5468  0.3753 -0.3492
  179SLPC    HA20342   3.843   0.425   2.133 -0.5672  0.8384  0.6962
  179SLPC    HB20343   3.837   0.280   2.237  1.9232  0.3730  2.3191
  179SLPC    C220344   4.005   0.395   2.272 -0.7447 -0.4843  0.1605
  179SLPC    HS20345   4.059   0.476   2.219 -0.4305 -0.0297  1.1446
  179SLPC   O2120346   4.097   0.280   2.299  0.5454 -0.0328 -0.7239
  179SLPC   C2120347   4.222   0.318   2.307 -0.8098 -0.3507 -0.1178
  179SLPC   O2220348   4.271   0.430   2.293  0.2455  0.5152  0.4337
  179SLPC   C2220349   4.307   0.201   2.341 -0.1062  0.0431  0.3710
  179SLPC   H2R20350   4.260   0.101   2.347  0.9547 -0.4480  0.9055
  179SLPC   H2S20351   4.379   0.186   2.257 -0.6438 -3.6478  0.3996
  179SLPC    C320352   3.943   0.451   2.405 -0.0321 -0.1283  0.3452
  179SLPC    HX20353   3.900   0.372   2.471  0.2110 -0.4520  0.1181
  179SLPC    HY20354   3.857   0.518   2.381  0.9212  0.2608 -2.2224
  179SLPC   O3120355   4.049   0.512   2.477  0.1460  0.2660  0.1624
  179SLPC   C3120356   4.053   0.648   2.463  0.5166 -0.4298 -0.0682
  179SLPC   O3220357   3.967   0.714   2.411  0.2811 -0.0855  0.0159
  179SLPC   C3220358   4.188   0.694   2.525  0.2662 -0.5634 -0.2383
  179SLPC   H2X20359   4.257   0.719   2.441  1.2581 -0.4313  0.5908
  179SLPC   H2Y20360   4.233   0.605   2.575 -1.1376 -1.4160 -0.4211
  179SLPC   C2320361   4.378   0.215   2.469  0.1680 -0.9793 -0.1508
  179SLPC   H3R20362   4.442   0.306   2.474 -1.4459  0.1532  1.3857
  179SLPC   H3S20363   4.435   0.121   2.485  1.3366 -0.1934  0.4143
  179SLPC   C2420364   4.289   0.227   2.596 -0.0570 -0.0881  0.8409
  179SLPC   H4R20365   4.229   0.138   2.622 -3.4556  2.2528  1.7446
  179SLPC   H4S20366   4.210   0.297   2.562 -1.2620 -2.4165 -1.4491
  179SLPC   C2520367   4.367   0.289   2.710 -0.4186 -0.0080  1.3669
  179SLPC   H5R20368   4.400   0.387   2.671  0.3477 -0.2762  1.3360
  179SLPC   H5S20369   4.452   0.219   2.722  0.0582  0.4009  0.5014
  179SLPC   C2620370   4.287   0.299   2.839 -0.1579  0.7933 -0.5925
  179SLPC   H6R20371   4.289   0.201   2.892  0.1559  0.7834 -0.6235
  179SLPC   H6S20372   4.180   0.324   2.822 -0.1938  1.1633  0.1104
  179SLPC   C2720373   4.353   0.400   2.934  0.4252  0.2157  0.3692
  179SLPC   H7R20374   4.414   0.474   2.879  0.7169 -1.6794 -2.0350
  179SLPC   H7S20375   4.428   0.349   2.998  1.1204 -0.2824 -0.8278
  179SLPC   C2820376   4.250   0.464   3.035 -0.3308 -0.1056 -0.1960
  179SLPC   H8R20377   4.210   0.380   3.095  0.3670  0.6711  1.4214
  179SLPC   H8S20378   4.168   0.499   2.969 -0.7791 -3.2277 -1.4887
  179SLPC   C2920379   4.302   0.578   3.122  0.3225 -0.2800  0.8904
  179SLPC   H9R20380   4.284   0.678   3.078 -2.3614 -1.4691 -0.9863
  179SLPC  C21020381   4.356   0.561   3.238  0.1803  0.0582  0.2180
  179SLPC  H10R20382   4.378   0.650   3.299 -1.9227 -0.5807  2.0893
  179SLPC  C21120383   4.373   0.429   3.304  0.5936  0.1406 -0.3338
  179SLPC  H11R20384   4.384   0.350   3.227  1.6985  0.4540 -0.5105
  179SLPC  H11S20385   4.279   0.404   3.358 -0.6588 -1.2731 -2.9923
  179SLPC  C21220386   4.474   0.417   3.417 -0.1613 -0.0351 -1.0331
  179SLPC  H12R20387   4.560   0.351   3.398 -0.8171 -1.4286  0.5911
  179SLPC  C21320388   4.471   0.472   3.541  0.1945 -0.3689 -0.3105
  179SLPC  H13R20389   4.555   0.451   3.609  1.1192 -0.9175 -1.5833
  179SLPC  C21420390   4.360   0.562   3.590  0.0697  0.6297 -0.5865
  179SLPC  H14R20391   4.284   0.590   3.514  0.5099 -0.2963 -1.3885
  179SLPC  H14S20392   4.409   0.655   3.626  0.8558 -0.3164  0.8921
  179SLPC  C21520393   4.271   0.505   3.699 -0.6861 -0.4647 -0.5896
  179SLPC  H15R20394   4.198   0.426   3.669 -1.3317  0.4338 -1.4514
  179SLPC  H15S20395   4.219   0.599   3.725  0.9047  0.2391  0.1719
  179SLPC  C21620396   4.336   0.468   3.833  0.8371 -0.4285  0.4115
  179SLPC  H16R20397   4.407   0.550   3.859  1.7658 -1.4075  1.0215
  179SLPC  H16S20398   4.398   0.376   3.828  1.3695 -0.0413 -0.3097
  179SLPC  C21720399   4.233   0.446   3.947 -0.0822  0.5670  0.1604
  179SLPC  H17R20400   4.154   0.374   3.913 -0.6069  1.5028 -0.6615
  179SLPC  H17S20401   4.178   0.542   3.954 -3.4114 -1.0381 -1.3728
  179SLPC  C21820402   4.306   0.410   4.077  0.2865  0.2088 -0.1880
  179SLPC  H18R20403   4.364   0.318   4.055 -1.3014 -1.4025  1.9140
  179SLPC  H18S20404   4.235   0.398   4.162 -0.8312 -1.4815 -1.2913
  179SLPC  H18T20405   4.379   0.489   4.104  1.3185 -0.4650 -0.9163
  179SLPC   C3320406   4.177   0.818   2.616  0.2452  0.2099 -0.1880
  179SLPC   H3X20407   4.098   0.891   2.589  1.0498  0.4892 -1.9422
  179SLPC   H3Y20408   4.271   0.877   2.612 -1.8366  3.9069  0.6965
  179SLPC   C3420409   4.159   0.776   2.765  0.1721 -0.5384  0.4602
  179SLPC   H4X20410   4.246   0.718   2.802 -0.0935  0.0420  2.0835
  179SLPC   H4Y20411   4.071   0.709   2.776  0.1986 -0.4060  1.6689
  179SLPC   C3520412   4.145   0.900   2.855 -0.9659 -0.5917  0.1800
  179SLPC   H5X20413   4.126   0.847   2.951 -1.0196 -2.1650 -0.6674
  179SLPC   H5Y20414   4.243   0.951   2.864 -1.6277  0.4986  1.7331
  179SLPC   C3620415   4.043   1.007   2.819  0.1135 -0.5680  0.1845
  179SLPC   H6X20416   3.943   0.960   2.818  0.8789 -2.4242  2.1699
  179SLPC   H6Y20417   4.073   1.043   2.718  0.9477 -0.4260  0.4776
  179SLPC   C3720418   4.048   1.127   2.911 -0.1187 -0.1491 -0.1967
  179SLPC   H7X20419   3.974   1.199   2.870 -0.3890 -0.9839 -1.2119
  179SLPC   H7Y20420   4.152   1.167   2.912 -0.3221  0.3847  0.5690
  179SLPC   C3820421   4.026   1.108   3.060  0.8186  0.5897  0.2451
  179SLPC   H8X20422   4.103   1.036   3.095  1.3249  1.6736  1.4862
  179SLPC   H8Y20423   3.924   1.070   3.080  1.6582 -1.5942  0.6158
  179SLPC   C3920424   4.048   1.233   3.146  0.1549 -0.4916 -0.0210
  179SLPC   H9X20425   3.955   1.292   3.130  0.5857  0.1494 -0.1796
  179SLPC   H9Y20426   4.132   1.295   3.110 -0.0054  0.9752  2.0128
  179SLPC  C31020427   4.058   1.202   3.297  0.5120  0.0204 -0.1676
  179SLPC  H10X20428   4.128   1.119   3.320 -0.6201 -0.9088  0.0182
  179SLPC  H10Y20429   3.955   1.165   3.320  0.8887 -2.3187 -1.8852
  179SLPC  C31120430   4.099   1.326   3.392  0.3752  0.5717 -0.2079
  179SLPC  H11X20431   4.030   1.411   3.376 -1.0426  0.0854  2.6612
  179SLPC  H11Y20432   4.201   1.357   3.362  0.2804 -0.5079 -1.7924
  179SLPC  C31220433   4.070   1.295   3.540  0.0861 -0.6845  0.3352
  179SLPC  H12X20434   4.141   1.216   3.572 -2.0424 -1.9233  2.3291
  179SLPC  H12Y20435   3.961   1.276   3.556 -0.1792  1.1381  0.9364
  179SLPC  C31320436   4.103   1.415   3.639  0.3854  0.3459 -0.8136
  179SLPC  H13X20437   4.200   1.466   3.620  0.7008 -0.1194 -0.4847
  179SLPC  H13Y20438   4.114   1.375   3.742  2.2620  0.7269 -0.8238
  179SLPC  C31420439   3.986   1.514   3.632 -0.6809  0.2751 -0.4023
  179SLPC  H14X20440   3.896   1.465   3.677  0.3442 -0.7825  0.5641
  179SLPC  H14Y20441   3.958   1.546   3.530  1.0087 -2.6868 -1.9155
  179SLPC  C31520442   4.024   1.651   3.698 -0.3723  0.3734  0.1149
  179SLPC  H15X20443   4.105   1.688   3.632 -1.3779  0.9465 -0.8284
  179SLPC  H15Y20444   4.060   1.622   3.800 -1.1096 -1.7151 -0.1750
  179SLPC  C31620445   3.908   1.745   3.693  0.5139  0.4116 -0.8542
  179SLPC  H16X20446   3.816   1.700   3.737  0.6069  2.1518  1.2671
  179SLPC  H16Y20447   3.884   1.764   3.586  0.8656  4.6794 -0.3523
  179SLPC  C31720448   3.948   1.886   3.748 -0.0042  0.0224  0.8539
  179SLPC  H17X20449   3.879   1.967   3.716  0.3468  0.8975  2.2201
  179SLPC  H17Y20450   4.051   1.903   3.708 -0.8035 -0.7562 -1.7630
  179SLPC  C31820451   3.969   1.895   3.898 -0.0528 -0.4782 -0.6588
  179SLPC  H18X20452   4.021   1.802   3.931  1.5102  0.6277  0.1570
  179SLPC  H18Y20453   3.876   1.898   3.959  1.3775  0.2506  1.6242
  179SLPC  H18Z20454   4.032   1.981   3.930  0.8933 -2.2423  2.6888
  180SLPC     N20455   2.576   1.413   2.065  0.3371  0.1275  0.4282
  180SLPC   C1320456   2.435   1.440   2.096 -0.3879 -0.0753  0.0856
  180SLPC  H13A20457   2.382   1.370   2.033  2.1705 -2.3629  0.2846
  180SLPC  H13B20458   2.419   1.410   2.198 -0.8609  1.1875  0.3956
  180SLPC  H13C20459   2.413   1.544   2.078 -0.2467 -0.0613 -0.0090
  180SLPC   C1420460   2.606   1.269   2.081  0.7014 -0.3471 -0.6002
  180SLPC  H14A20461   2.588   1.238   2.183 -1.0756  2.6067  0.1095
  180SLPC  H14B20462   2.548   1.210   2.012  0.7759 -2.8709  1.3510
  180SLPC  H14C20463   2.712   1.249   2.069  0.9354  0.7625 -0.4893
  180SLPC   C1520464   2.654   1.495   2.170 -0.2599  1.2556  0.0209
  180SLPC  H15A20465   2.760   1.475   2.163 -0.2196  1.1136  0.9757
  180SLPC  H15B20466   2.629   1.600   2.164 -3.2498  0.6454 -0.0524
  180SLPC  H15C20467   2.621   1.467   2.269 -0.6463  2.6297  0.3097
  180SLPC   C1220468   2.607   1.456   1.920  1.2157 -0.8412 -0.1254
  180SLPC  H12A20469   2.576   1.386   1.844 -1.5280 -0.1316  0.2391
  180SLPC  H12B20470   2.715   1.458   1.909  1.0275 -0.1671 -2.1725
  180SLPC   C1120471   2.555   1.598   1.879  0.5086 -0.2436  0.2756
  180SLPC  H11A20472   2.449   1.612   1.907  0.6015  0.2929  0.3644
  180SLPC  H11B20473   2.567   1.610   1.769 -1.8214 -0.1624 -0.0189
  180SLPC     P20474   2.580   1.823   2.014  0.0651 -0.0875  0.1026
  180SLPC   O1320475   2.668   1.940   1.988 -0.1034  0.2987  0.3901
  180SLPC   O1420476   2.438   1.838   1.976  0.1754  0.5720 -0.4171
  180SLPC   O1220477   2.642   1.693   1.942 -0.0972  0.5552 -0.4285
  180SLPC   O1120478   2.590   1.774   2.160  0.4987 -0.0326 -0.0024
  180SLPC    C120479   2.651   1.859   2.261 -0.2831 -0.1185  0.5930
  180SLPC    HA20480   2.760   1.848   2.240 -0.1719  0.2549  0.9494
  180SLPC    HB20481   2.629   1.968   2.258 -0.4467 -0.1426  0.8596
  180SLPC    C220482   2.620   1.803   2.399  0.0770 -0.1682 -0.5884
  180SLPC    HS20483   2.647   1.695   2.395  2.5351  0.4244 -1.8377
  180SLPC   O2120484   2.481   1.827   2.436  0.7515  0.1669 -0.0305
  180SLPC   C2120485   2.399   1.716   2.435 -0.6963  0.4557  0.0945
  180SLPC   O2220486   2.430   1.608   2.392 -0.4181 -0.5913 -0.2977
  180SLPC   C2220487   2.275   1.732   2.527  0.4332 -0.2405  0.2739
  180SLPC   H2R20488   2.295   1.812   2.601 -0.7299 -1.0184  1.4692
  180SLPC   H2S20489   2.195   1.771   2.460  0.4969  2.3597  1.5747
  180SLPC    C320490   2.715   1.878   2.499 -0.2291 -0.2713  0.3616
  180SLPC    HX20491   2.710   1.989   2.488 -1.2301 -0.4642 -1.5083
  180SLPC    HY20492   2.822   1.854   2.482 -0.3698 -1.3869  0.9483
  180SLPC   O3120493   2.701   1.849   2.635 -0.4637 -0.2945  0.5073
  180SLPC   C3120494   2.619   1.920   2.707 -0.4895  0.4255  0.0964
  180SLPC   O3220495   2.547   2.014   2.675  0.0463  0.2548 -0.2489
  180SLPC   C3220496   2.613   1.855   2.841 -0.5195  0.4805 -0.5641
  180SLPC   H2X20497   2.714   1.852   2.886 -0.7867  1.1096  0.0951
  180SLPC   H2Y20498   2.574   1.752   2.825 -0.4166  0.2757  0.4405
  180SLPC   C2320499   2.230   1.609   2.611  0.4836 -0.3574 -0.2551
  180SLPC   H3R20500   2.220   1.518   2.548 -1.6383  0.4173 -1.1312
  180SLPC   H3S20501   2.129   1.627   2.652 -0.2746  0.8649 -2.4729
  180SLPC   C2420502   2.324   1.587   2.729  0.1738  0.2485 -0.2121
  180SLPC   H4R20503   2.327   1.682   2.787  1.9662  0.2822 -0.3166
  180SLPC   H4S20504   2.426   1.568   2.690 -0.1498  0.9417 -1.4371
  180SLPC   C2520505   2.283   1.467   2.821  0.0694 -0.4197 -0.2942
  180SLPC   H5R20506   2.343   1.380   2.786  0.6190  0.1123 -0.7073
  180SLPC   H5S20507   2.175   1.445   2.811 -0.4153 -0.1325  3.2189
  180SLPC   C2620508   2.282   1.513   2.964  0.5514  0.5365 -0.3741
  180SLPC   H6R20509   2.219   1.435   3.013  0.7717 -0.4742 -1.6656
  180SLPC   H6S20510   2.241   1.616   2.969 -0.8962 -0.0264 -0.1877
  180SLPC   C2720511   2.421   1.526   3.041  0.7540  0.1856  1.1655
  180SLPC   H7R20512   2.491   1.601   2.998  2.7328 -1.6460  1.0249
  180SLPC   H7S20513   2.482   1.434   3.026 -1.3984 -1.3040  1.0585
  180SLPC   C2820514   2.403   1.544   3.191 -0.5583  0.3602 -0.1662
  180SLPC   H8R20515   2.338   1.464   3.232  0.1246  0.0958  0.4284
  180SLPC   H8S20516   2.345   1.637   3.210 -0.5486 -0.0720  2.3630
  180SLPC   C2920517   2.538   1.548   3.260 -1.2657 -0.2039 -0.3384
  180SLPC   H9R20518   2.624   1.584   3.202  0.3116 -2.8523  0.2214
  180SLPC  C21020519   2.563   1.538   3.394  0.4307  0.2087  0.6268
  180SLPC  H10R20520   2.663   1.552   3.436 -0.3557  1.2829  2.2331
  180SLPC  C21120521   2.455   1.518   3.503  0.2316  0.8088 -0.2375
  180SLPC  H11R20522   2.470   1.433   3.573 -3.1448 -0.3749 -0.7691
  180SLPC  H11S20523   2.355   1.502   3.458  1.1522 -1.5206 -1.6237
  180SLPC  C21220524   2.448   1.654   3.566  0.1778 -0.2027 -0.0151
  180SLPC  H12R20525   2.450   1.742   3.500 -1.0903  0.3867  0.7186
  180SLPC  C21320526   2.454   1.688   3.695  0.9505 -0.4615 -0.5675
  180SLPC  H13R20527   2.453   1.794   3.725 -1.2217 -0.1764 -1.4142
  180SLPC  C21420528   2.456   1.584   3.811 -0.1556  0.5066 -0.4299
  180SLPC  H14R20529   2.522   1.622   3.892  0.6288  2.7398 -2.0068
  180SLPC  H14S20530   2.509   1.495   3.773  1.3001  1.6762 -1.2536
  180SLPC  C21520531   2.318   1.562   3.867  0.9108  0.4235 -0.0930
  180SLPC  H15R20532   2.237   1.546   3.793  1.3626  0.1003 -0.5258
  180SLPC  H15S20533   2.292   1.658   3.916 -0.2880  0.1385 -0.1449
  180SLPC  C21620534   2.304   1.451   3.974  0.2601 -0.1309 -0.0343
  180SLPC  H16R20535   2.378   1.486   4.049  0.6479 -0.4380 -0.2680
  180SLPC  H16S20536   2.337   1.349   3.942 -0.3671 -0.4998  0.4886
  180SLPC  C21720537   2.155   1.443   4.032  0.1696  0.4154 -0.9133
  180SLPC  H17R20538   2.096   1.373   3.968  0.4013 -0.9679  0.3254
  180SLPC  H17S20539   2.099   1.538   4.027 -1.0671  0.0884  3.2339
  180SLPC  C21820540   2.147   1.389   4.166  0.2061  0.2979 -0.1822
  180SLPC  H18R20541   2.184   1.465   4.238  1.9559  1.1746 -1.9255
  180SLPC  H18S20542   2.213   1.299   4.162 -1.0891 -0.6296 -1.7033
  180SLPC  H18T20543   2.050   1.348   4.199  1.2683 -5.7017 -3.1281
  180SLPC   C3320544   2.515   1.930   2.936 -0.0077  0.2043 -0.1161
  180SLPC   H3X20545   2.411   1.892   2.926 -0.9516  3.0140 -1.9825
  180SLPC   H3Y20546   2.510   2.039   2.918  1.7258  0.0977 -1.5247
  180SLPC   C3420547   2.562   1.912   3.079 -0.6535  0.3655 -0.9525
  180SLPC   H4X20548   2.668   1.947   3.081 -0.8962  1.0771  0.7932
  180SLPC   H4Y20549   2.559   1.803   3.097  2.5041  0.3038 -0.2542
  180SLPC   C3520550   2.478   1.976   3.187 -0.4499 -0.2025 -0.3330
  180SLPC   H5X20551   2.373   1.939   3.190 -0.8771  0.9773 -0.3809
  180SLPC   H5Y20552   2.472   2.083   3.159  1.1820  0.2062  0.7579
  180SLPC   C3620553   2.554   1.975   3.316 -0.0769 -0.6052  0.0579
  180SLPC   H6X20554   2.660   2.002   3.293 -0.4464 -0.0343 -1.0582
  180SLPC   H6Y20555   2.556   1.869   3.348  1.8837 -0.8499 -0.7387
  180SLPC   C3720556   2.486   2.059   3.426  0.1155 -0.7849 -0.8971
  180SLPC   H7X20557   2.385   2.014   3.438 -0.9884  1.8979  1.0021
  180SLPC   H7Y20558   2.479   2.161   3.381 -2.1055 -0.7003 -0.5114
  180SLPC   C3820559   2.566   2.056   3.555  0.4022 -0.9728  0.1958
  180SLPC   H8X20560   2.648   2.131   3.545  1.0395 -1.4564  1.6286
  180SLPC   H8Y20561   2.624   1.962   3.569  0.3928 -0.8591  1.0589
  180SLPC   C3920562   2.477   2.101   3.671 -0.2435 -0.7169 -0.7035
  180SLPC   H9X20563   2.384   2.042   3.689 -0.9115  1.1129  2.6078
  180SLPC   H9Y20564   2.440   2.204   3.652 -1.7603 -0.8188  1.4098
  180SLPC  C31020565   2.572   2.101   3.784 -0.4480  0.2125  0.2171
  180SLPC  H10X20566   2.654   2.173   3.766  0.1219 -0.8616 -1.6980
  180SLPC  H10Y20567   2.623   2.003   3.798  0.4507  0.8568  1.7150
  180SLPC  C31120568   2.511   2.153   3.916  0.2171 -0.2455  0.2264
  180SLPC  H11X20569   2.455   2.243   3.884  0.7076  0.3338  0.9591
  180SLPC  H11Y20570   2.577   2.173   4.004 -2.4953  0.8131  2.1392
  180SLPC  C31220571   2.418   2.048   3.976 -0.2910  0.2829  0.2393
  180SLPC  H12X20572   2.336   2.022   3.905 -0.8812 -2.1166  1.7157
  180SLPC  H12Y20573   2.368   2.104   4.058 -1.9652  0.9454 -1.1704
  180SLPC  C31320574   2.470   1.913   4.026  0.1188 -0.6439  0.3996
  180SLPC  H13X20575   2.514   1.851   3.946 -1.4731  1.0387 -1.9138
  180SLPC  H13Y20576   2.383   1.860   4.072 -0.2822  1.1735  1.8470
  180SLPC  C31420577   2.571   1.936   4.138 -0.0542 -0.0497  0.3728
  180SLPC  H14X20578   2.544   2.040   4.165 -1.2734  0.0589 -1.1189
  180SLPC  H14Y20579   2.672   1.929   4.092 -1.2800  0.6294 -2.6527
  180SLPC  C31520580   2.558   1.842   4.260 -0.1885 -0.2754 -0.5121
  180SLPC  H15X20581   2.451   1.832   4.288 -0.1200  0.9436  0.2246
  180SLPC  H15Y20582   2.616   1.886   4.343 -0.9991 -1.0538  0.4856
  180SLPC  C31620583   2.618   1.701   4.246  0.7565  0.1595  0.5758
  180SLPC  H16X20584   2.710   1.710   4.185 -0.5744 -0.1971 -1.6077
  180SLPC  H16Y20585   2.554   1.638   4.181  2.8029 -0.6134 -0.7941
  180SLPC  C31720586   2.664   1.634   4.379 -0.2811 -0.5366 -0.3891
  180SLPC  H17X20587   2.574   1.583   4.417 -2.9079  2.6304 -1.8666
  180SLPC  H17Y20588   2.689   1.708   4.458  0.7022 -0.2669 -0.9264
  180SLPC  C31820589   2.790   1.552   4.361  0.2014 -0.1062  0.4402
  180SLPC  H18X20590   2.792   1.495   4.266 -0.3072  0.4168  0.1019
  180SLPC  H18Y20591   2.788   1.488   4.451  0.6706 -1.9768 -0.8308
  180SLPC  H18Z20592   2.881   1.617   4.362  0.0415  0.1702 -0.7029
  181SLPC     N20593   1.509   1.014   2.189  0.1221 -0.1180  0.1758
  181SLPC   C1320594   1.479   0.906   2.082  0.6578 -0.3024 -0.5967
  181SLPC  H13A20595   1.565   0.841   2.081  2.4146  1.8890 -0.1116
  181SLPC  H13B20596   1.394   0.847   2.113  0.1350 -0.2926 -1.9532
  181SLPC  H13C20597   1.457   0.942   1.983 -1.5137 -2.6008 -1.0602
  181SLPC   C1420598   1.626   1.091   2.144 -0.1495  0.3316 -0.1747
  181SLPC  H14A20599   1.657   1.155   2.226 -1.5950  1.2960 -0.3477
  181SLPC  H14B20600   1.711   1.024   2.146 -0.6538 -0.3066  1.1480
  181SLPC  H14C20601   1.610   1.146   2.053  1.4888  0.1925 -0.5837
  181SLPC   C1520602   1.552   0.961   2.317 -0.6798 -0.1034 -0.0457
  181SLPC  H15A20603   1.612   1.030   2.374  1.8433 -1.0537 -1.4092
  181SLPC  H15B20604   1.475   0.920   2.381  0.5643 -0.5548  1.2143
  181SLPC  H15C20605   1.620   0.880   2.294 -0.2362  0.5623 -1.1289
  181SLPC   C1220606   1.392   1.104   2.214  0.5979  0.2606 -0.2540
  181SLPC  H12A20607   1.305   1.041   2.220  1.2586 -0.5746  1.0846
  181SLPC  H12B20608   1.392   1.163   2.124 -2.4093 -0.0780 -0.5679
  181SLPC   C1120609   1.396   1.190   2.338 -0.3573 -0.2925  0.4286
  181SLPC  H11A20610   1.371   1.114   2.415 -3.0086 -2.7053 -2.5029
  181SLPC  H11B20611   1.320   1.270   2.330  3.4410  3.6705  0.0972
  181SLPC     P20612   1.532   1.413   2.370 -0.0291 -0.4027 -0.3295
  181SLPC   O1320613   1.519   1.463   2.226  0.5183  0.1896 -0.1539
  181SLPC   O1420614   1.432   1.460   2.461  0.0440  0.1633 -0.1670
  181SLPC   O1220615   1.521   1.252   2.375 -0.0488  0.3862  0.8330
  181SLPC   O1120616   1.679   1.442   2.410  0.6813  0.0724 -0.0563
  181SLPC    C120617   1.784   1.344   2.431 -0.3963  1.0678  0.2213
  181SLPC    HA20618   1.743   1.245   2.401  0.7936 -0.0738  2.1429
  181SLPC    HB20619   1.867   1.376   2.365 -0.6658  0.6994 -0.3050
  181SLPC    C220620   1.820   1.340   2.573  0.7621 -0.2336 -0.3606
  181SLPC    HS20621   1.897   1.263   2.597 -0.8042 -1.4871  0.8666
  181SLPC   O2120622   1.701   1.329   2.658  0.0345  0.5611  0.0770
  181SLPC   C2120623   1.656   1.205   2.659  0.0057  0.4084 -1.0978
  181SLPC   O2220624   1.707   1.113   2.596 -0.1962  0.2993 -0.5259
  181SLPC   C2220625   1.551   1.198   2.771  0.0147  0.3139  0.2421
  181SLPC   H2R20626   1.604   1.221   2.866 -1.7712 -2.1140  1.9522
  181SLPC   H2S20627   1.477   1.280   2.763  1.7115  2.1245  1.9672
  181SLPC    C320628   1.874   1.482   2.613 -0.3088 -0.3882 -0.2158
  181SLPC    HX20629   1.793   1.556   2.599 -0.3620 -0.1739  1.1571
  181SLPC    HY20630   1.958   1.496   2.541  0.1727 -1.0484  0.2081
  181SLPC   O3120631   1.932   1.482   2.746  0.4185 -0.1620 -0.0784
  181SLPC   C3120632   1.849   1.493   2.849 -0.2107  0.3221 -0.1232
  181SLPC   O3220633   1.729   1.514   2.840 -0.5310 -0.3698  0.4907
  181SLPC   C3220634   1.911   1.466   2.984  0.1499  1.0905 -0.0215
  181SLPC   H2X20635   1.945   1.565   3.021  2.5413  0.3565 -0.1188
  181SLPC   H2Y20636   1.999   1.402   2.965  1.8419  2.8766  1.3503
  181SLPC   C2320637   1.481   1.059   2.775  0.1554 -0.7501  0.4916
  181SLPC   H3R20638   1.488   1.012   2.675  0.2270  1.0143 -0.3761
  181SLPC   H3S20639   1.376   1.076   2.806  0.6865  0.9191  1.5125
  181SLPC   C2420640   1.550   0.967   2.881 -0.1482  0.0048  0.1938
  181SLPC   H4R20641   1.479   0.885   2.900  1.4369 -1.4778 -0.0422
  181SLPC   H4S20642   1.557   1.024   2.977 -1.4843  1.4199 -0.5082
  181SLPC   C2520643   1.680   0.898   2.845  0.1420  0.1382 -0.6474
  181SLPC   H5R20644   1.754   0.975   2.815  1.3640 -0.8699 -0.2589
  181SLPC   H5S20645   1.669   0.838   2.752  0.6496  0.0695 -0.6620
  181SLPC   C2620646   1.754   0.821   2.956  0.5748  0.0646 -0.1324
  181SLPC   H6R20647   1.838   0.771   2.903 -1.2319  0.3846 -3.6272
  181SLPC   H6S20648   1.698   0.738   3.003  2.4418 -0.6286  0.9668
  181SLPC   C2720649   1.818   0.914   3.060 -0.3024 -0.6302  0.0615
  181SLPC   H7R20650   1.744   0.987   3.099  0.5744  0.4881 -0.3230
  181SLPC   H7S20651   1.893   0.979   3.010  0.0420 -0.0453  1.3117
  181SLPC   C2820652   1.865   0.825   3.182  0.1434  0.1129  0.2656
  181SLPC   H8R20653   1.939   0.747   3.154  1.4820  1.0342  1.1006
  181SLPC   H8S20654   1.786   0.764   3.231  1.3768  0.7909  3.2811
  181SLPC   C2920655   1.929   0.909   3.287 -0.1372 -0.9894  0.2203
  181SLPC   H9R20656   2.025   0.940   3.243  0.1238  0.7501  1.8776
  181SLPC  C21020657   1.904   0.934   3.414 -0.2048 -0.2770 -0.6906
  181SLPC  H10R20658   1.968   1.003   3.471 -1.6197  0.2403  0.3056
  181SLPC  C21120659   1.774   0.884   3.489 -0.3533 -0.7483  0.8630
  181SLPC  H11R20660   1.698   0.865   3.410  0.5992  1.5293 -0.7534
  181SLPC  H11S20661   1.723   0.968   3.541 -0.7660 -0.9419  0.7749
  181SLPC  C21220662   1.789   0.765   3.587  0.3561 -0.0530  0.5039
  181SLPC  H12R20663   1.787   0.670   3.532  1.8464  0.0344  0.2665
  181SLPC  C21320664   1.780   0.769   3.723  0.0949 -0.4333  0.1769
  181SLPC  H13R20665   1.798   0.673   3.774  1.5760  0.4574  1.4158
  181SLPC  C21420666   1.778   0.890   3.813  0.1236 -0.4019 -0.3770
  181SLPC  H14R20667   1.714   0.882   3.903  1.1314  1.7079  0.6134
  181SLPC  H14S20668   1.741   0.979   3.757  1.3586  0.4035  0.0319
  181SLPC  C21520669   1.926   0.908   3.864  0.2590 -0.3268 -0.0255
  181SLPC  H15R20670   1.993   0.908   3.776  0.5242 -0.1487  0.1760
  181SLPC  H15S20671   1.939   0.820   3.930  0.4820  0.4753  1.0307
  181SLPC  C21620672   1.943   1.022   3.958  0.2300 -0.3058 -0.1628
  181SLPC  H16R20673   1.854   1.023   4.025 -0.4634  2.5669 -1.0193
  181SLPC  H16S20674   1.953   1.115   3.898 -0.7619  2.0501  3.0250
  181SLPC  C21720675   2.074   1.012   4.050 -0.3961 -0.1061  0.9428
  181SLPC  H17R20676   2.074   0.915   4.105 -2.0509 -0.4041  0.4971
  181SLPC  H17S20677   2.070   1.089   4.130  0.6669 -0.2040  1.1025
  181SLPC  C21820678   2.206   1.044   3.970  0.3551  0.3656  0.5708
  181SLPC  H18R20679   2.187   1.145   3.928 -0.1506 -0.4289 -1.2223
  181SLPC  H18S20680   2.218   0.978   3.881 -1.5468 -2.7317  2.4145
  181SLPC  H18T20681   2.296   1.044   4.035  0.0574  0.4463  0.9806
  181SLPC   C3320682   1.840   1.390   3.091  0.1569 -1.2086  0.2708
  181SLPC   H3X20683   1.771   1.308   3.061 -0.8805 -0.2581 -0.0168
  181SLPC   H3Y20684   1.778   1.461   3.149 -0.1702 -2.0388  0.9688
  181SLPC   C3420685   1.926   1.336   3.206  0.0500  0.4182 -0.4052
  181SLPC   H4X20686   2.005   1.282   3.150 -2.2676 -0.5928 -2.9001
  181SLPC   H4Y20687   1.872   1.264   3.271  0.3813  0.2895 -0.2682
  181SLPC   C3520688   1.984   1.440   3.295 -0.0523 -0.5633 -0.2838
  181SLPC   H5X20689   1.907   1.506   3.341  0.3384  0.6994 -1.4010
  181SLPC   H5Y20690   2.036   1.508   3.224  1.3803  0.8201  1.9482
  181SLPC   C3620691   2.089   1.391   3.403 -0.3463 -0.1022 -0.0728
  181SLPC   H6X20692   2.155   1.474   3.436 -0.1942 -0.2433 -0.0190
  181SLPC   H6Y20693   2.166   1.324   3.359 -1.3359 -0.0686 -1.9393
  181SLPC   C3720694   2.023   1.343   3.538 -0.0553  0.1426 -0.3685
  181SLPC   H7X20695   2.099   1.296   3.604 -0.6848 -0.3130  0.0430
  181SLPC   H7Y20696   1.950   1.263   3.515  0.9294 -0.8519 -0.1251
  181SLPC   C3820697   1.944   1.445   3.609 -0.3643  0.0728 -0.5015
  181SLPC   H8X20698   1.855   1.480   3.553 -1.7739  1.4288  2.3747
  181SLPC   H8Y20699   2.001   1.536   3.638  0.4292 -0.8496  0.9464
  181SLPC   C3920700   1.882   1.394   3.741 -1.1636 -0.0345 -0.3946
  181SLPC   H9X20701   1.971   1.373   3.804 -1.7597 -2.2004 -0.2116
  181SLPC   H9Y20702   1.823   1.302   3.722 -1.3227 -0.0936  0.3602
  181SLPC  C31020703   1.804   1.511   3.816 -0.2664  0.6394  0.0367
  181SLPC  H10X20704   1.714   1.557   3.771 -0.9320  0.8188  1.4951
  181SLPC  H10Y20705   1.883   1.589   3.826  1.3030 -0.9199  0.2673
  181SLPC  C31120706   1.747   1.467   3.948  0.8011  0.4932  0.0670
  181SLPC  H11X20707   1.831   1.444   4.018 -0.8056  0.7215  2.1692
  181SLPC  H11Y20708   1.682   1.378   3.936 -2.9185  2.8441  0.9847
  181SLPC  C31220709   1.665   1.578   4.011  0.8260 -0.0312  0.1566
  181SLPC  H12X20710   1.567   1.591   3.961  0.3151 -0.7173  0.9456
  181SLPC  H12Y20711   1.721   1.674   4.009  0.4236  0.2073 -1.6704
  181SLPC  C31320712   1.636   1.543   4.156 -0.3811 -0.0043 -1.0992
  181SLPC  H13X20713   1.736   1.524   4.202 -0.2426  1.8049 -0.5363
  181SLPC  H13Y20714   1.565   1.459   4.171 -1.4778  0.8727 -1.2812
  181SLPC  C31420715   1.572   1.661   4.232 -0.4424  0.4442  0.3033
  181SLPC  H14X20716   1.496   1.706   4.164  1.0979  0.4747 -1.5049
  181SLPC  H14Y20717   1.650   1.738   4.248  2.2546 -1.8274 -0.9198
  181SLPC  C31520718   1.508   1.633   4.369  0.0356 -0.3737  0.5075
  181SLPC  H15X20719   1.590   1.603   4.437 -1.5071 -1.0592  2.1480
  181SLPC  H15Y20720   1.437   1.551   4.344 -1.4680  0.4905  1.7510
  181SLPC  C31620721   1.425   1.752   4.434 -0.0166 -0.6211 -0.0120
  181SLPC  H16X20722   1.327   1.764   4.383 -0.8356 -0.1072  1.5909
  181SLPC  H16Y20723   1.485   1.844   4.422 -0.1027 -0.5159  0.3296
  181SLPC  C31720724   1.415   1.743   4.586  0.4782 -0.2973  0.1817
  181SLPC  H17X20725   1.508   1.745   4.647 -1.7987  1.0086  3.9597
  181SLPC  H17Y20726   1.361   1.648   4.605  0.2554 -0.7675 -2.4320
  181SLPC  C31820727   1.332   1.853   4.653 -0.9157  0.4037  0.0341
  181SLPC  H18X20728   1.316   1.825   4.759 -0.1288 -0.2859 -0.0239
  181SLPC  H18Y20729   1.233   1.871   4.605 -0.1835  1.3434 -1.1795
  181SLPC  H18Z20730   1.399   1.942   4.649  2.1285 -1.7945 -1.4011
  182SLPC     N20731   5.440   0.286   1.810  0.2623  0.4459  0.2627
  182SLPC   C1320732   5.510   0.412   1.845  0.2418  0.3908  1.2831
  182SLPC  H13A20733   5.445   0.481   1.896  1.5538  1.0630  2.0897
  182SLPC  H13B20734   5.589   0.389   1.914  1.6198  0.7281 -0.1103
  182SLPC  H13C20735   5.555   0.464   1.762 -2.1615  0.7762  0.1338
  182SLPC   C1420736   5.538   0.197   1.739  0.6864  0.1925 -1.0777
  182SLPC  H14A20737   5.493   0.105   1.704  2.8769 -1.4711  0.2402
  182SLPC  H14B20738   5.590   0.250   1.661  1.9777  1.7307  0.7344
  182SLPC  H14C20739   5.606   0.178   1.820 -2.3097 -4.2814  0.7769
  182SLPC   C1520740   5.336   0.332   1.713 -0.0256  0.2846 -0.2144
  182SLPC  H15A20741   5.255   0.264   1.692  1.0934 -0.3401 -2.9392
  182SLPC  H15B20742   5.293   0.418   1.762  0.3240 -0.0709  0.7431
  182SLPC  H15C20743   5.379   0.348   1.615 -0.2187 -0.6190 -0.4572
  182SLPC   C1220744   5.382   0.213   1.938  0.0556  0.0615 -0.5545
  182SLPC  H12A20745   5.331   0.121   1.912 -2.2217  0.8373  0.8682
  182SLPC  H12B20746   5.310   0.284   1.976  0.3715  0.2640 -0.3351
  182SLPC   C1120747   5.471   0.190   2.060 -0.9640  0.6146  0.1178
  182SLPC  H11A20748   5.414   0.130   2.134 -0.2852 -1.1718 -0.7490
  182SLPC  H11B20749   5.504   0.283   2.110 -1.0821 -0.2942  1.9494
  182SLPC     P20750   5.590  -0.045   2.042  0.1981 -0.4106 -0.0145
  182SLPC   O1320751   5.469  -0.110   1.988 -0.1640 -1.0563  0.5349
  182SLPC   O1420752   5.716  -0.105   1.998  0.2092  0.3359  0.2213
  182SLPC   O1220753   5.587   0.113   2.018  0.2643 -0.7589  0.0931
  182SLPC   O1120754   5.592  -0.040   2.206  0.2088  0.9462  0.5443
  182SLPC    C120755   5.702   0.033   2.262 -0.2673  0.3073 -0.6611
  182SLPC    HA20756   5.797  -0.024   2.262  0.5702  1.3273  3.5362
  182SLPC    HB20757   5.728   0.130   2.213  2.4350 -0.9470 -1.9061
  182SLPC    C220758   5.684   0.077   2.407  0.4205  0.1179 -0.3480
  182SLPC    HS20759   5.748   0.164   2.433 -0.3863  0.6514 -0.1256
  182SLPC   O2120760   5.700  -0.032   2.497 -0.2171 -0.3751 -0.0698
  182SLPC   C2120761   5.829  -0.057   2.517 -0.3792 -0.2761 -1.2388
  182SLPC   O2220762   5.923  -0.006   2.460  0.4326 -0.1691  0.3888
  182SLPC   C2220763   5.837  -0.164   2.629  0.7766  0.4300 -0.1970
  182SLPC   H2R20764   5.747  -0.150   2.692  0.1073 -0.2006 -0.9799
  182SLPC   H2S20765   5.836  -0.267   2.586  3.5362  0.0598  0.4605
  182SLPC    C320766   5.541   0.139   2.417  0.1175  0.3749  0.2429
  182SLPC    HX20767   5.464   0.062   2.396  1.7776 -1.2116 -0.3918
  182SLPC    HY20768   5.534   0.215   2.336 -1.0096  1.8743  1.7022
  182SLPC   O3120769   5.504   0.200   2.538  0.5180 -0.0539  0.0340
  182SLPC   C3120770   5.560   0.314   2.578 -0.7805 -0.7926 -0.0827
  182SLPC   O3220771   5.623   0.395   2.508  0.1829  0.0304 -0.5961
  182SLPC   C3220772   5.505   0.353   2.723 -0.2370  0.7327 -0.3105
  182SLPC   H2X20773   5.440   0.266   2.745  0.9281 -0.4481 -1.3790
  182SLPC   H2Y20774   5.454   0.452   2.718  0.9151  1.4016  0.5957
  182SLPC   C2320775   5.977  -0.166   2.695  0.0333 -0.5197 -0.0119
  182SLPC   H3R20776   6.051  -0.218   2.631 -0.9660 -1.7192 -0.2352
  182SLPC   H3S20777   5.972  -0.238   2.780 -2.2666 -0.9037 -0.3871
  182SLPC   C2420778   6.016  -0.037   2.761 -0.2342  0.4757 -0.6689
  182SLPC   H4R20779   6.019   0.043   2.684 -0.6099  0.5114 -0.6472
  182SLPC   H4S20780   6.115  -0.057   2.806 -1.4984 -0.8066  1.7437
  182SLPC   C2520781   5.932   0.015   2.880  0.1664 -0.0822  0.1563
  182SLPC   H5R20782   5.823   0.001   2.866 -0.4404 -0.2602  4.0011
  182SLPC   H5S20783   5.958   0.120   2.908  1.0423 -0.3794  0.5194
  182SLPC   C2620784   5.971  -0.075   3.007  0.6410 -0.1004 -0.0789
  182SLPC   H6R20785   6.080  -0.068   3.025  0.6498 -2.2241  1.0365
  182SLPC   H6S20786   5.957  -0.185   3.004 -2.5225  0.1303  1.5974
  182SLPC   C2720787   5.900  -0.015   3.124  0.1502 -0.0215  1.3417
  182SLPC   H7R20788   5.790  -0.013   3.113  0.1687  1.9604  1.1510
  182SLPC   H7S20789   5.917   0.095   3.125 -1.5669  0.2671  1.0746
  182SLPC   C2820790   5.948  -0.062   3.267 -0.0342  0.2001  0.3111
  182SLPC   H8R20791   6.018   0.012   3.310 -0.2529  0.5127  0.1315
  182SLPC   H8S20792   6.009  -0.154   3.255 -0.4705 -0.0891  0.2833
  182SLPC   C2920793   5.842  -0.096   3.371  0.1179  0.5928 -0.2398
  182SLPC   H9R20794   5.768  -0.174   3.347 -0.2786  1.1689 -0.9003
  182SLPC  C21020795   5.826  -0.037   3.490 -0.3158  0.1555 -0.2983
  182SLPC  H10R20796   5.745  -0.070   3.556  0.8747  1.7436  2.1120
  182SLPC  C21120797   5.914   0.067   3.551 -0.5374 -0.5646 -0.0796
  182SLPC  H11R20798   5.849   0.140   3.603 -0.6259 -1.2063  0.7360
  182SLPC  H11S20799   5.963   0.125   3.469 -2.2024  0.0490 -0.6735
  182SLPC  C21220800   6.027   0.012   3.640  0.6305  0.9850 -0.3650
  182SLPC  H12R20801   6.102  -0.047   3.586  0.0301 -1.2410  1.0789
  182SLPC  C21320802   6.048   0.030   3.779 -0.0816  0.1091  0.0129
  182SLPC  H13R20803   6.131  -0.034   3.814 -0.0362 -0.3672 -0.9507
  182SLPC  C21420804   5.977   0.127   3.873 -0.6034  0.5867  0.0319
  182SLPC  H14R20805   5.873   0.089   3.887  0.4160 -2.4151  0.1093
  182SLPC  H14S20806   5.980   0.225   3.820 -0.0690 -0.2096 -1.4525
  182SLPC  C21520807   6.043   0.145   4.017 -0.2952 -0.1527 -0.3855
  182SLPC  H15R20808   5.999   0.237   4.061 -2.9493 -0.6769 -1.7380
  182SLPC  H15S20809   6.153   0.160   4.006 -0.3297  1.2506  0.8402
  182SLPC  C21620810   6.022   0.022   4.110  0.1553  0.0369  0.0452
  182SLPC  H16R20811   5.912   0.008   4.116 -0.1254 -0.3322 -3.4238
  182SLPC  H16S20812   6.048   0.051   4.214  1.3272 -1.0309  0.0735
  182SLPC  C21720813   6.084  -0.115   4.089 -0.0481 -0.8476  0.5644
  182SLPC  H17R20814   6.042  -0.150   3.992 -0.9644 -1.2965  1.1078
  182SLPC  H17S20815   6.056  -0.196   4.160  2.2453 -0.5666  1.8734
  182SLPC  C21820816   6.237  -0.126   4.067 -0.9508 -0.2286 -0.0141
  182SLPC  H18R20817   6.273  -0.221   4.022  2.5507 -0.2615  2.4509
  182SLPC  H18S20818   6.289  -0.132   4.166 -0.7361 -2.0959 -0.1982
  182SLPC  H18T20819   6.277  -0.044   4.004  1.6813 -0.2136  1.4984
  182SLPC   C3320820   5.629   0.373   2.823  0.3669  0.2157  0.6380
  182SLPC   H3X20821   5.677   0.465   2.785 -0.1905 -0.7228 -2.5948
  182SLPC   H3Y20822   5.705   0.292   2.809 -0.1812 -0.4703  1.4974
  182SLPC   C3420823   5.584   0.388   2.967  0.2519 -0.3033  1.0003
  182SLPC   H4X20824   5.523   0.298   2.990 -0.6169 -0.9869 -3.1207
  182SLPC   H4Y20825   5.513   0.474   2.973  0.1082 -0.4226  1.0140
  182SLPC   C3520826   5.689   0.398   3.082 -0.1696  0.1988 -0.1312
  182SLPC   H5X20827   5.742   0.493   3.063 -1.6034  1.0442 -0.0168
  182SLPC   H5Y20828   5.758   0.312   3.065 -0.5047 -0.1480  0.2600
  182SLPC   C3620829   5.630   0.401   3.224 -0.7703  0.2120 -0.1826
  182SLPC   H6X20830   5.539   0.337   3.222 -0.3091 -0.5323  1.0583
  182SLPC   H6Y20831   5.587   0.501   3.245 -0.7738  0.5105 -1.5495
  182SLPC   C3720832   5.731   0.339   3.325  0.3958  0.1661 -0.0293
  182SLPC   H7X20833   5.830   0.377   3.291  0.4261  0.8811  0.8229
  182SLPC   H7Y20834   5.734   0.228   3.319  0.1813  0.1536  0.0989
  182SLPC   C3820835   5.687   0.372   3.463  0.6498 -0.5496 -0.8223
  182SLPC   H8X20836   5.639   0.471   3.477  1.5590 -0.1263 -0.6415
  182SLPC   H8Y20837   5.772   0.356   3.533  0.2510  0.4398 -0.0855
  182SLPC   C3920838   5.578   0.270   3.506 -0.0139  0.3932 -1.2219
  182SLPC   H9X20839   5.623   0.168   3.509 -0.1532  0.3121  2.4565
  182SLPC   H9Y20840   5.498   0.256   3.430  0.8627 -0.2022 -2.0610
  182SLPC  C31020841   5.507   0.315   3.637 -0.0547 -0.0141  0.1458
  182SLPC  H10X20842   5.426   0.387   3.612  1.4797  1.9064  0.4149
  182SLPC  H10Y20843   5.580   0.371   3.699 -0.0498  2.3059 -1.7865
  182SLPC  C31120844   5.458   0.195   3.720  0.3453 -0.3604  0.0486
  182SLPC  H11X20845   5.388   0.134   3.659 -0.1596 -0.5454  0.8041
  182SLPC  H11Y20846   5.400   0.233   3.806 -1.3604 -0.1953 -1.1319
  182SLPC  C31220847   5.560   0.092   3.764  0.4663  0.0097  0.4454
  182SLPC  H12X20848   5.635   0.137   3.834 -1.0043  4.9701 -0.7279
  182SLPC  H12Y20849   5.599   0.052   3.668 -0.5556  0.9385 -0.3833
  182SLPC  C31320850   5.485  -0.019   3.836 -0.1693  1.1994 -0.9914
  182SLPC  H13X20851   5.552  -0.104   3.858 -0.6329  1.6219  2.5902
  182SLPC  H13Y20852   5.394  -0.051   3.780  0.0423 -1.3028 -0.0478
  182SLPC  C31420853   5.438   0.017   3.975  0.2290  0.5422  0.5896
  182SLPC  H14X20854   5.380   0.111   3.964  0.8680  0.8224 -0.6058
  182SLPC  H14Y20855   5.527   0.053   4.031  0.1507  1.6929  0.0207
  182SLPC  C31520856   5.359  -0.101   4.037  0.4754  0.6908  0.0466
  182SLPC  H15X20857   5.434  -0.174   4.073  0.6008  0.3788 -0.8278
  182SLPC  H15Y20858   5.296  -0.151   3.961  0.0386  1.2384  0.0409
  182SLPC  C31620859   5.271  -0.062   4.150  0.5274 -0.4154  0.1910
  182SLPC  H16X20860   5.202   0.012   4.104 -0.4932 -1.8764 -0.7212
  182SLPC  H16Y20861   5.330  -0.012   4.229 -0.1797  0.0680  0.4173
  182SLPC  C31720862   5.186  -0.183   4.201  0.2550 -0.0459  0.6629
  182SLPC  H17X20863   5.253  -0.261   4.244  0.8390  1.3476  2.4383
  182SLPC  H17Y20864   5.139  -0.227   4.111 -0.7482  0.1788  1.0654
  182SLPC  C31820865   5.081  -0.151   4.309 -0.8910  0.4339  0.1352
  182SLPC  H18X20866   5.093  -0.056   4.365  1.0861  1.8192 -2.4317
  182SLPC  H18Y20867   5.079  -0.236   4.380  2.8435 -2.0254 -2.3200
  182SLPC  H18Z20868   4.978  -0.146   4.270  0.0614  0.8806 -2.4910
  183SLPC     N20869   1.131   3.152   1.846  0.3032 -0.7910  0.1190
  183SLPC   C1320870   1.230   3.214   1.752  0.3980 -0.1276  0.6744
  183SLPC  H13A20871   1.273   3.307   1.786  0.6994  0.6327 -1.5936
  183SLPC  H13B20872   1.304   3.139   1.726  0.7607  0.6589 -0.6511
  183SLPC  H13C20873   1.186   3.225   1.654 -0.9054 -1.0526  1.1327
  183SLPC   C1420874   1.070   3.030   1.793 -0.3413  0.5635 -0.6437
  183SLPC  H14A20875   1.007   2.992   1.872  1.7131  1.5737  1.5782
  183SLPC  H14B20876   1.005   3.046   1.708 -1.1123  1.0290  0.0270
  183SLPC  H14C20877   1.146   2.958   1.766  1.9754  1.3028  3.2252
  183SLPC   C1520878   1.012   3.247   1.865 -0.4144  0.2160  0.1641
  183SLPC  H15A20879   0.940   3.211   1.937 -2.2271  1.3613 -0.9976
  183SLPC  H15B20880   1.033   3.341   1.913 -1.3485  0.0753  0.8790
  183SLPC  H15C20881   0.956   3.266   1.775  0.4345  1.7395 -0.0784
  183SLPC   C1220882   1.198   3.129   1.980 -0.0038 -0.3830  0.0783
  183SLPC  H12A20883   1.259   3.216   1.999  0.0878 -0.7622  1.6673
  183SLPC  H12B20884   1.266   3.046   1.971 -0.2642 -0.3783 -2.9052
  183SLPC   C1120885   1.117   3.099   2.113  0.0179 -0.1799 -0.1481
  183SLPC  H11A20886   1.057   3.191   2.130  0.3934  0.2378 -1.0146
  183SLPC  H11B20887   1.184   3.089   2.201 -2.1821 -0.5426  1.5773
  183SLPC     P20888   1.061   2.849   2.130  0.4888 -0.0266  0.0502
  183SLPC   O1320889   0.934   2.776   2.095 -0.8527 -0.3507  0.7231
  183SLPC   O1420890   1.182   2.799   2.052 -0.3637  0.0592 -0.0452
  183SLPC   O1220891   1.028   2.998   2.097 -0.3075 -0.4041  0.1557
  183SLPC   O1120892   1.087   2.838   2.290  0.3354  0.2816 -0.2358
  183SLPC    C120893   0.991   2.887   2.385  0.0567  0.0507 -0.1754
  183SLPC    HA20894   0.962   2.990   2.353 -2.6221 -1.2241 -2.2840
  183SLPC    HB20895   0.895   2.832   2.373  0.1014  0.2035 -1.3223
  183SLPC    C220896   1.044   2.881   2.527  0.4813 -0.1446 -0.3974
  183SLPC    HS20897   0.978   2.946   2.588  1.0403  0.2126 -0.1533
  183SLPC   O2120898   1.183   2.913   2.536  0.3973  0.2250  0.4511
  183SLPC   C2120899   1.208   3.044   2.539 -0.8468  0.0336 -0.1316
  183SLPC   O2220900   1.130   3.134   2.530  0.0959 -0.5233  0.0250
  183SLPC   C2220901   1.364   3.058   2.560 -0.6514  0.5518 -0.1818
  183SLPC   H2R20902   1.406   3.003   2.473 -0.4029 -0.2347  0.4163
  183SLPC   H2S20903   1.391   3.165   2.548  1.1300  0.0732 -0.7823
  183SLPC    C320904   1.037   2.733   2.592 -0.2340 -0.1601 -0.3023
  183SLPC    HX20905   1.097   2.672   2.521  0.0119  0.7628 -0.9012
  183SLPC    HY20906   0.930   2.706   2.577  0.0876 -1.1604 -0.9513
  183SLPC   O3120907   1.074   2.718   2.734  0.4535  0.0908  0.1718
  183SLPC   C3120908   1.195   2.678   2.762 -0.3431  0.3794  0.9735
  183SLPC   O3220909   1.280   2.648   2.676  0.0416  0.5122  0.1347
  183SLPC   C3220910   1.219   2.679   2.919 -0.0558 -0.6094  0.4596
  183SLPC   H2X20911   1.142   2.614   2.966  0.9353 -1.8200  0.4591
  183SLPC   H2Y20912   1.200   2.780   2.961 -1.3140 -1.1538  1.2651
  183SLPC   C2320913   1.416   3.013   2.703 -0.4162 -0.3179 -0.4495
  183SLPC   H3R20914   1.527   3.013   2.697 -0.4447  1.4782 -1.8836
  183SLPC   H3S20915   1.387   2.909   2.730  2.3619 -0.6692  1.6410
  183SLPC   C2420916   1.365   3.122   2.801 -0.8759  0.4458 -1.0263
  183SLPC   H4R20917   1.255   3.127   2.806 -0.9256 -0.6705  3.3518
  183SLPC   H4S20918   1.404   3.224   2.781  0.1299  0.2828 -0.0076
  183SLPC   C2520919   1.405   3.083   2.951 -0.1262  0.0398 -0.5476
  183SLPC   H5R20920   1.514   3.063   2.944  0.2397  2.0096 -1.1066
  183SLPC   H5S20921   1.343   2.992   2.966  0.5017 -0.6002 -1.6608
  183SLPC   C2620922   1.384   3.175   3.074  0.5936 -0.6879  0.0352
  183SLPC   H6R20923   1.285   3.224   3.071  0.8968 -0.0354  0.3793
  183SLPC   H6S20924   1.460   3.255   3.055  0.3829 -0.4443  0.2057
  183SLPC   C2720925   1.413   3.098   3.207  0.7751  0.1877  0.5410
  183SLPC   H7R20926   1.522   3.077   3.211  0.6939  0.0052  2.8078
  183SLPC   H7S20927   1.347   3.009   3.203  0.6614  0.3181 -1.4809
  183SLPC   C2820928   1.367   3.167   3.334 -0.5228 -0.2207 -0.1217
  183SLPC   H8R20929   1.267   3.207   3.306 -0.7657 -1.1956 -0.6856
  183SLPC   H8S20930   1.428   3.259   3.348 -1.6849  0.7700 -1.3334
  183SLPC   C2920931   1.363   3.095   3.463  0.1871  0.0119  0.4191
  183SLPC   H9R20932   1.298   3.007   3.451  0.3553 -0.0575 -0.0356
  183SLPC  C21020933   1.444   3.120   3.572  0.0961 -0.7660 -0.2072
  183SLPC  H10R20934   1.438   3.053   3.659 -1.3822  0.6028  0.8027
  183SLPC  C21120935   1.536   3.236   3.578 -0.4965 -0.1648  0.2784
  183SLPC  H11R20936   1.594   3.244   3.483  0.0963 -2.0310  0.4437
  183SLPC  H11S20937   1.613   3.216   3.655  0.2866  1.0091 -0.1670
  183SLPC  C21220938   1.487   3.376   3.609  0.1536 -0.4461  0.4482
  183SLPC  H12R20939   1.401   3.387   3.677  0.6357  2.9176  0.6883
  183SLPC  C21320940   1.542   3.492   3.568  0.4313  0.0113 -0.0442
  183SLPC  H13R20941   1.481   3.580   3.597 -0.3362 -0.9972  1.5740
  183SLPC  C21420942   1.658   3.510   3.477  0.1285  0.3375  0.5066
  183SLPC  H14R20943   1.699   3.414   3.440  2.2594  2.5413 -3.4911
  183SLPC  H14S20944   1.749   3.556   3.520  1.2844 -0.5936 -0.8433
  183SLPC  C21520945   1.614   3.585   3.350 -0.1660 -0.2058  0.3120
  183SLPC  H15R20946   1.558   3.679   3.368  2.5048  1.6709 -0.4538
  183SLPC  H15S20947   1.541   3.519   3.298 -1.3647  2.4107 -1.5425
  183SLPC  C21620948   1.730   3.634   3.258 -0.0544 -0.5677 -0.2927
  183SLPC  H16R20949   1.798   3.553   3.222  2.1174  1.2818 -0.5495
  183SLPC  H16S20950   1.793   3.684   3.334 -2.0620  1.8503 -0.0891
  183SLPC  C21720951   1.691   3.730   3.153 -0.1450  0.4075  0.2561
  183SLPC  H17R20952   1.662   3.824   3.204  1.5439  1.2238 -0.2008
  183SLPC  H17S20953   1.607   3.685   3.096  0.5583 -0.4742 -0.1002
  183SLPC  C21820954   1.796   3.757   3.041 -0.3834  0.1562 -0.0825
  183SLPC  H18R20955   1.890   3.804   3.077 -0.5077 -0.3568  0.9283
  183SLPC  H18S20956   1.753   3.825   2.964  1.2230 -1.2767 -2.3898
  183SLPC  H18T20957   1.821   3.667   2.980  0.5994  0.6721 -0.4720
  183SLPC   C3320958   1.355   2.610   2.950 -0.7958 -0.0592 -0.5953
  183SLPC   H3X20959   1.443   2.651   2.896 -0.3536 -0.7023 -0.3780
  183SLPC   H3Y20960   1.352   2.504   2.917  0.6649 -0.7750  1.3923
  183SLPC   C3420961   1.381   2.593   3.103  0.2533 -0.5528 -0.3033
  183SLPC   H4X20962   1.470   2.527   3.112  1.9939  1.7521  0.4360
  183SLPC   H4Y20963   1.288   2.541   3.134 -1.0556 -1.4536 -4.9595
  183SLPC   C3520964   1.402   2.727   3.184 -0.4695  0.1138 -0.6610
  183SLPC   H5X20965   1.314   2.793   3.181 -0.2216  0.4071 -2.8610
  183SLPC   H5Y20966   1.496   2.776   3.152 -0.2180  1.1541  1.4771
  183SLPC   C3620967   1.426   2.706   3.336 -0.3833 -0.1362 -0.5732
  183SLPC   H6X20968   1.473   2.801   3.366  0.0803  0.5988 -3.3246
  183SLPC   H6Y20969   1.504   2.627   3.342  2.3413  2.5204  1.5598
  183SLPC   C3720970   1.293   2.662   3.405 -0.0908  0.0906  0.4685
  183SLPC   H7X20971   1.245   2.574   3.358  1.5719 -0.6495  0.0912
  183SLPC   H7Y20972   1.228   2.752   3.397 -0.3283 -0.1549 -0.3771
  183SLPC   C3820973   1.296   2.629   3.554 -0.8888 -0.2290 -0.1957
  183SLPC   H8X20974   1.367   2.546   3.572 -0.8655 -1.0109 -3.3867
  183SLPC   H8Y20975   1.190   2.605   3.577 -0.3409 -0.1262  2.9253
  183SLPC   C3920976   1.335   2.755   3.640 -0.3327 -0.4299 -0.1464
  183SLPC   H9X20977   1.258   2.836   3.636  1.2661  1.2417  1.1338
  183SLPC   H9Y20978   1.437   2.794   3.620 -0.4865 -0.4223 -0.9655
  183SLPC  C31020979   1.335   2.719   3.790  0.1676 -0.2534  0.4005
  183SLPC  H10X20980   1.378   2.805   3.846 -4.0950  2.4463  0.0458
  183SLPC  H10Y20981   1.399   2.633   3.816  1.6014  1.0409  1.3396
  183SLPC  C31120982   1.192   2.696   3.852 -0.1166 -0.3211 -0.7550
  183SLPC  H11X20983   1.155   2.609   3.794 -2.0094  0.7331 -1.2292
  183SLPC  H11Y20984   1.123   2.782   3.840 -2.6633 -1.0476  5.0811
  183SLPC  C31220985   1.193   2.666   3.999 -0.1054  0.0290  0.3639
  183SLPC  H12X20986   1.108   2.715   4.052  0.1826  1.3115 -0.3315
  183SLPC  H12Y20987   1.284   2.714   4.039  0.8516  0.2231 -1.9379
  183SLPC  C31320988   1.206   2.514   4.020  0.2948  0.3739 -0.2615
  183SLPC  H13X20989   1.287   2.468   3.959  1.3719  1.9982 -0.1291
  183SLPC  H13Y20990   1.118   2.464   3.974  0.5456 -0.4996  0.1915
  183SLPC  C31420991   1.208   2.477   4.172  0.0981  1.1181 -0.1157
  183SLPC  H14X20992   1.140   2.541   4.231 -0.4893  1.0903 -0.7440
  183SLPC  H14Y20993   1.307   2.497   4.219 -0.8746  0.3955  2.4120
  183SLPC  C31520994   1.157   2.333   4.201  0.2253  0.0417  0.0674
  183SLPC  H15X20995   1.217   2.266   4.136  1.6060  1.0450  0.2410
  183SLPC  H15Y20996   1.048   2.320   4.189  0.2448  0.6108 -0.7461
  183SLPC  C31620997   1.180   2.290   4.349 -0.8692 -0.3259 -0.2078
  183SLPC  H16X20998   1.148   2.370   4.419  2.5770  0.5649  0.5457
  183SLPC  H16Y20999   1.290   2.300   4.362 -1.0868 -0.5896  2.3192
  183SLPC  C31721000   1.137   2.151   4.390 -0.0173  0.1547  0.9433
  183SLPC  H17X21001   1.027   2.150   4.379  0.0544 -1.1100  0.2338
  183SLPC  H17Y21002   1.161   2.126   4.496 -0.2680 -0.5730  0.8306
  183SLPC  C31821003   1.183   2.030   4.318 -0.7486  0.8071  0.2798
  183SLPC  H18X21004   1.168   2.048   4.209  1.3281  0.7126 -0.0702
  183SLPC  H18Y21005   1.136   1.936   4.352  1.8643 -0.0600  1.7730
  183SLPC  H18Z21006   1.292   2.037   4.337 -1.0614  2.6808  1.6011
  184SLPC     N21007   6.221   3.759   1.951  0.4540  0.0241  0.2259
  184SLPC   C1321008   6.261   3.878   2.029  0.6610 -0.0738 -1.1127
  184SLPC  H13A21009   6.332   3.932   1.968 -0.2561  0.4341 -1.7447
  184SLPC  H13B21010   6.176   3.937   2.058  1.3255  0.0393  0.7575
  184SLPC  H13C21011   6.306   3.838   2.118 -1.2781 -1.0163 -0.5064
  184SLPC   C1421012   6.200   3.810   1.812 -0.0154  0.5508 -0.2114
  184SLPC  H14A21013   6.168   3.730   1.748 -0.2883  0.5635 -0.0969
  184SLPC  H14B21014   6.127   3.890   1.811 -0.1675  0.4087 -0.4506
  184SLPC  H14C21015   6.296   3.845   1.779  0.1450  0.2001 -0.1184
  184SLPC   C1521016   6.087   3.713   1.997 -0.1054  0.9460 -0.4290
  184SLPC  H15A21017   6.096   3.674   2.098  4.3478  0.2905 -0.8763
  184SLPC  H15B21018   6.017   3.795   2.010  0.7652  1.3529  2.5391
  184SLPC  H15C21019   6.046   3.639   1.930  2.7906 -1.9533  0.7564
  184SLPC   C1221020   6.334   3.649   1.949  1.1760  0.5569 -0.1789
  184SLPC  H12A21021   6.428   3.696   1.923  1.5580 -0.3844 -0.5618
  184SLPC  H12B21022   6.317   3.576   1.870 -1.7853  0.8718  0.0569
  184SLPC   C1121023   6.365   3.580   2.083  0.0229 -0.3296  0.4609
  184SLPC  H11A21024   6.447   3.509   2.058  0.3837 -0.4615  1.9230
  184SLPC  H11B21025   6.280   3.517   2.117  0.4097  0.1547  2.4660
  184SLPC     P21026   6.564   3.729   2.183 -0.2908 -0.1881 -0.3417
  184SLPC   O1321027   6.659   3.617   2.186  0.4644 -0.4457 -0.5106
  184SLPC   O1421028   6.571   3.830   2.071 -0.0902  0.1261  0.0588
  184SLPC   O1221029   6.420   3.668   2.189  0.6149 -0.4194  0.2433
  184SLPC   O1121030   6.584   3.812   2.318  0.0806 -0.1934  0.0027
  184SLPC    C121031   6.551   3.757   2.441 -0.0264 -0.5807 -0.7272
  184SLPC    HA21032   6.443   3.762   2.465  0.0663  1.4776 -0.5407
  184SLPC    HB21033   6.570   3.648   2.448 -0.3209 -0.5362  1.8697
  184SLPC    C221034   6.637   3.820   2.553  0.1098  0.0967  0.6656
  184SLPC    HS21035   6.625   3.751   2.638 -1.0576  0.0438  0.4708
  184SLPC   O2121036   6.585   3.950   2.575  0.3236 -0.4726 -0.2783
  184SLPC   C2121037   6.474   3.966   2.639 -0.2121  0.1208 -0.3806
  184SLPC   O2221038   6.403   3.878   2.690  0.0621 -0.4799  0.2536
  184SLPC   C2221039   6.452   4.117   2.659  0.4762 -0.5973 -0.3617
  184SLPC   H2R21040   6.526   4.175   2.601 -0.6042  1.1604 -0.0482
  184SLPC   H2S21041   6.349   4.145   2.628  0.7898 -0.4404 -1.2935
  184SLPC    C321042   6.783   3.830   2.528  0.5785  0.5379  0.4336
  184SLPC    HX21043   6.809   3.912   2.457  2.0418  1.9218  2.4811
  184SLPC    HY21044   6.818   3.732   2.488 -1.5582  0.4446 -1.4814
  184SLPC   O3121045   6.849   3.860   2.653  0.5910  0.5019  0.6616
  184SLPC   C3121046   6.865   3.982   2.689  0.3165 -0.0019  0.3831
  184SLPC   O3221047   6.817   4.079   2.630  0.1278 -0.2907 -0.0448
  184SLPC   C3221048   6.930   3.981   2.828  0.6120 -0.9196  0.9229
  184SLPC   H2X21049   6.962   4.087   2.838  1.0107 -1.0384  0.9575
  184SLPC   H2Y21050   7.024   3.923   2.816  0.1202 -1.8510  1.5139
  184SLPC   C2321051   6.481   4.168   2.802 -0.3201 -0.1892 -0.1731
  184SLPC   H3R21052   6.488   4.279   2.797 -0.0041 -0.2348 -0.8989
  184SLPC   H3S21053   6.580   4.128   2.833 -1.6289 -2.5313  1.3150
  184SLPC   C2421054   6.375   4.118   2.902 -0.6890  0.0773  0.6902
  184SLPC   H4R21055   6.345   4.012   2.891 -1.9108  0.6177 -2.2049
  184SLPC   H4S21056   6.291   4.179   2.864 -0.5579 -1.9206 -3.3971
  184SLPC   C2521057   6.424   4.150   3.046  0.2802  0.2991 -0.5073
  184SLPC   H5R21058   6.351   4.214   3.100  0.5009  0.1924 -0.0734
  184SLPC   H5S21059   6.518   4.208   3.034  0.7559 -0.7359 -2.1860
  184SLPC   C2621060   6.462   4.018   3.112 -0.6100  0.0861 -0.2122
  184SLPC   H6R21061   6.530   3.968   3.040 -0.0322 -1.1647  1.1515
  184SLPC   H6S21062   6.381   3.943   3.120 -2.1000  1.7127  0.8069
  184SLPC   C2721063   6.543   4.048   3.243  0.3012  0.4468 -0.6143
  184SLPC   H7R21064   6.489   4.120   3.308 -0.5987  2.5224 -3.4979
  184SLPC   H7S21065   6.642   4.090   3.217  0.9176  0.2202  1.2121
  184SLPC   C2821066   6.566   3.918   3.326  0.2220  0.0374  0.3370
  184SLPC   H8R21067   6.615   3.945   3.422  0.9017 -0.0477  0.0245
  184SLPC   H8S21068   6.642   3.859   3.270 -0.8214 -2.8202  1.7196
  184SLPC   C2921069   6.442   3.831   3.363  0.1795 -0.1085 -0.8099
  184SLPC   H9R21070   6.400   3.781   3.275  1.1866 -0.0472 -1.3412
  184SLPC  C21021071   6.380   3.823   3.481 -0.5856  0.0524  0.1414
  184SLPC  H10R21072   6.294   3.758   3.499  0.1792 -0.8257  0.7064
  184SLPC  C21121073   6.445   3.869   3.610 -0.1596 -1.1990  0.4486
  184SLPC  H11R21074   6.461   3.977   3.590  0.6960 -1.4678 -0.3911
  184SLPC  H11S21075   6.544   3.820   3.621  0.5154 -1.2144 -3.9081
  184SLPC  C21221076   6.348   3.847   3.726  0.3863 -0.0418 -0.4109
  184SLPC  H12R21077   6.314   3.743   3.729 -1.5607  0.4556 -2.3273
  184SLPC  C21321078   6.320   3.927   3.829 -0.2975 -0.3721 -0.0993
  184SLPC  H13R21079   6.246   3.902   3.906 -0.7460  0.8115 -0.1236
  184SLPC  C21421080   6.368   4.074   3.856  0.3022  0.0019 -0.0704
  184SLPC  H14R21081   6.274   4.129   3.836  0.5571  1.1093  1.5378
  184SLPC  H14S21082   6.438   4.100   3.774  0.6721 -0.4731  0.0866
  184SLPC  C21521083   6.415   4.096   3.998 -0.6065  0.2211  0.1696
  184SLPC  H15R21084   6.515   4.048   4.006 -1.0892 -1.0252 -0.8754
  184SLPC  H15S21085   6.356   4.043   4.075  1.9099 -1.7706  0.8696
  184SLPC  C21621086   6.409   4.246   4.046  0.2686  0.0482  0.2583
  184SLPC  H16R21087   6.303   4.278   4.034 -0.1496 -1.6795 -1.2681
  184SLPC  H16S21088   6.464   4.302   3.968 -3.6066 -1.2402 -3.8345
  184SLPC  C21721089   6.451   4.264   4.188  0.7025  0.1907 -0.0178
  184SLPC  H17R21090   6.532   4.190   4.208  2.4845  2.2250  0.7357
  184SLPC  H17S21091   6.369   4.241   4.260  1.9795  1.2454  1.8710
  184SLPC  C21821092   6.476   4.412   4.229  0.1892 -0.2790 -0.3885
  184SLPC  H18R21093   6.561   4.456   4.173 -0.7306  0.7306 -1.0238
  184SLPC  H18S21094   6.505   4.415   4.337 -1.2153 -1.1591  0.0324
  184SLPC  H18T21095   6.389   4.481   4.220 -1.9662 -2.9160 -0.8750
  184SLPC   C3321096   6.843   3.929   2.939  0.9355 -0.1756 -0.6080
  184SLPC   H3X21097   6.826   3.819   2.931  0.9675 -0.0919 -2.0196
  184SLPC   H3Y21098   6.746   3.982   2.929  0.9761  0.1728  0.6472
  184SLPC   C3421099   6.899   3.970   3.079 -0.1985 -0.5001  0.9296
  184SLPC   H4X21100   6.824   3.966   3.161 -1.1036 -1.2123  0.0872
  184SLPC   H4Y21101   6.936   4.075   3.070 -0.5512 -0.4314  0.1382
  184SLPC   C3521102   7.023   3.881   3.123  0.7001 -0.2854 -0.3953
  184SLPC   H5X21103   7.102   3.882   3.045  0.0919  0.8612 -1.0358
  184SLPC   H5Y21104   6.992   3.775   3.123  2.5283 -0.8840  1.6130
  184SLPC   C3621105   7.090   3.915   3.253  0.2928 -0.4422  0.0618
  184SLPC   H6X21106   7.150   4.009   3.253 -0.5588  0.1232  1.1306
  184SLPC   H6Y21107   7.164   3.836   3.277 -0.9091 -1.3405  0.9169
  184SLPC   C3721108   6.987   3.913   3.360 -0.1080 -0.0011 -0.5182
  184SLPC   H7X21109   6.936   3.814   3.358  0.5446 -0.3395 -1.4734
  184SLPC   H7Y21110   6.913   3.994   3.374 -0.6473 -0.8465  2.0047
  184SLPC   C3821111   7.068   3.914   3.497 -0.5932  0.3085  0.2715
  184SLPC   H8X21112   7.122   4.011   3.493  0.1332 -0.1018  0.0084
  184SLPC   H8Y21113   7.129   3.821   3.500 -2.3753 -0.9511 -0.3899
  184SLPC   C3921114   6.985   3.934   3.626  0.0623  0.0271 -0.4920
  184SLPC   H9X21115   6.929   3.839   3.640  0.2186 -0.0521 -0.3892
  184SLPC   H9Y21116   6.905   4.008   3.607  1.3272  1.0227 -2.2568
  184SLPC  C31021117   7.081   3.967   3.745  0.4272 -0.3674  0.7360
  184SLPC  H10X21118   7.146   4.055   3.728  0.9332 -0.5413  1.6892
  184SLPC  H10Y21119   7.159   3.888   3.746 -0.8759 -1.7331  2.2939
  184SLPC  C31121120   7.010   3.977   3.888  0.4248 -0.0382 -0.1951
  184SLPC  H11X21121   6.957   3.880   3.897 -0.3468  0.4977  1.6103
  184SLPC  H11Y21122   6.936   4.059   3.894 -2.8191 -2.8046  0.4909
  184SLPC  C31221123   7.095   4.002   4.011  0.0798  0.7281  0.1401
  184SLPC  H12X21124   7.033   4.005   4.103  0.3345  0.9534  0.3058
  184SLPC  H12Y21125   7.143   4.102   4.008 -0.6743  1.0895 -1.6365
  184SLPC  C31321126   7.204   3.900   4.048 -0.5988 -0.7209 -0.4585
  184SLPC  H13X21127   7.276   3.885   3.964  0.0978  0.1274 -0.0282
  184SLPC  H13Y21128   7.156   3.805   4.079 -1.4974  0.3846  1.7485
  184SLPC  C31421129   7.285   3.949   4.168  0.4179 -0.1234  0.7548
  184SLPC  H14X21130   7.215   3.975   4.251 -0.5030  0.5855 -0.2186
  184SLPC  H14Y21131   7.336   4.044   4.144 -1.0298  0.2077 -1.2210
  184SLPC  C31521132   7.383   3.832   4.207  0.0448 -0.4072  0.3010
  184SLPC  H15X21133   7.434   3.794   4.116  1.4997  0.8687  0.5370
  184SLPC  H15Y21134   7.318   3.747   4.237 -1.4835  0.8796  0.7874
  184SLPC  C31621135   7.494   3.869   4.310  0.1343 -0.3388 -0.1837
  184SLPC  H16X21136   7.549   3.951   4.259 -2.1233  3.6915  3.2374
  184SLPC  H16Y21137   7.566   3.793   4.346  0.3481 -0.3949 -0.7227
  184SLPC  C31721138   7.423   3.937   4.425  1.1250  0.5009 -0.2377
  184SLPC  H17X21139   7.365   4.027   4.397 -0.0476  0.0711  0.7207
  184SLPC  H17Y21140   7.508   3.960   4.493  2.8135 -2.1860 -1.2599
  184SLPC  C31821141   7.314   3.854   4.497  0.3078  0.3431 -0.4362
  184SLPC  H18X21142   7.218   3.876   4.447 -0.2849  0.2896  0.6530
  184SLPC  H18Y21143   7.302   3.894   4.600  0.5724 -3.2290  1.1381
  184SLPC  H18Z21144   7.341   3.749   4.524 -2.4343 -0.4665 -0.5506
  185POPC     N21145   2.064   3.417   6.914 -0.6539  0.6832  0.9874
  185POPC   C1221146   2.170   3.526   6.890 -0.6205 -0.4715  0.3525
  185POPC  H12A21147   2.269   3.497   6.922 -0.2943 -1.0153 -1.1020
  185POPC  H12B21148   2.140   3.615   6.943  1.5903 -0.9106  2.5451
  185POPC   C1321149   1.942   3.447   6.838 -0.5473 -0.7453  0.2082
  185POPC  H13A21150   1.908   3.549   6.844 -0.5535 -0.8090  1.5150
  185POPC  H13B21151   1.949   3.412   6.736  1.1286 -0.0519  0.0538
  185POPC  H13C21152   1.859   3.392   6.878 -1.7758  1.1116  0.3538
  185POPC   C1421153   2.119   3.288   6.877 -0.0480 -0.2032  0.2924
  185POPC  H14A21154   2.212   3.271   6.928 -0.2408  2.1840  1.5762
  185POPC  H14B21155   2.053   3.207   6.902 -0.3254 -0.1546 -0.2735
  185POPC  H14C21156   2.129   3.282   6.770  0.5560  0.6150  0.2920
  185POPC   C1521157   2.027   3.414   7.052 -0.4447  0.1467 -0.5683
  185POPC  H15A21158   1.990   3.511   7.080  2.3822  1.1284  0.1883
  185POPC  H15B21159   2.100   3.380   7.124 -1.4538 -0.7358  0.0584
  185POPC  H15C21160   1.952   3.341   7.076 -1.6301  0.8835 -1.9192
  185POPC   C1121161   2.199   3.567   6.739  0.0537  0.2323  0.3965
  185POPC  H11A21162   2.223   3.474   6.682  1.6072  0.4753  0.6002
  185POPC  H11B21163   2.290   3.631   6.749 -0.9542  2.1786 -1.8628
  185POPC     P21164   2.052   3.779   6.731  0.2419 -0.0839  0.3172
  185POPC   O1321165   2.109   3.814   6.858 -0.0834  0.1428  0.1770
  185POPC   O1421166   1.906   3.781   6.720  0.1461  0.5911  0.1646
  185POPC   O1221167   2.095   3.636   6.673 -0.2001 -0.0398  0.3125
  185POPC   O1121168   2.109   3.886   6.626 -0.4518 -0.3940 -0.1806
  185POPC    C121169   2.164   3.852   6.502  0.4114  0.0896 -0.0685
  185POPC    HA21170   2.107   3.779   6.441  1.4294  0.1569 -1.1360
  185POPC    HB21171   2.267   3.813   6.519  0.1611  0.5084  2.9834
  185POPC    C221172   2.193   3.976   6.419 -0.2894  0.4458 -0.1543
  185POPC    HS21173   2.241   4.055   6.480 -0.0461  0.3602 -0.2333
  185POPC   O2121174   2.071   4.022   6.367  0.5918 -0.0568 -0.3934
  185POPC   C2121175   2.056   4.155   6.350  1.0857  0.7071 -0.2884
  185POPC   O2221176   2.139   4.239   6.375 -0.7775 -0.0462 -0.1531
  185POPC   C2221177   1.923   4.172   6.288  0.3426 -0.7293 -0.6098
  185POPC   H2R21178   1.854   4.173   6.376  0.0499  0.4058 -0.8307
  185POPC   H2S21179   1.903   4.087   6.220  1.0454 -0.7013 -0.8554
  185POPC    C321180   2.282   3.940   6.296  0.2583  0.7256  0.5753
  185POPC    HX21181   2.232   3.851   6.251 -2.0839  0.0929  4.0194
  185POPC    HY21182   2.376   3.894   6.333  1.8892  1.4125 -2.3766
  185POPC   O3121183   2.305   4.032   6.194 -0.0714 -0.2202 -0.0958
  185POPC   C3121184   2.424   4.092   6.207 -0.1355 -0.2773 -0.6558
  185POPC   O3221185   2.490   4.091   6.308  0.1053 -0.5957 -0.2791
  185POPC   C3221186   2.463   4.166   6.075  0.1105  0.7661 -0.2155
  185POPC   H2X21187   2.571   4.153   6.055 -0.4192 -2.2400 -1.5573
  185POPC   H2Y21188   2.436   4.273   6.090  0.0926  0.7100  0.1420
  185POPC   C2321189   1.921   4.302   6.203  0.1029  0.7281 -0.0270
  185POPC   H3R21190   1.979   4.379   6.258 -1.0569  0.8341  1.0746
  185POPC   H3S21191   1.818   4.343   6.195 -0.7751 -1.5142 -1.3826
  185POPC   C2421192   1.962   4.275   6.058 -0.4370 -1.0583  0.0787
  185POPC   H4R21193   1.903   4.202   6.000  2.7149 -1.8406 -2.4143
  185POPC   H4S21194   2.062   4.230   6.042 -0.1848  0.0541 -1.7864
  185POPC   C2521195   1.948   4.407   5.968  0.7700 -0.8116  0.1772
  185POPC   H5R21196   2.009   4.490   6.010  0.3059  0.8812 -2.2561
  185POPC   H5S21197   1.842   4.438   5.972  0.7828 -0.6542 -0.4509
  185POPC   C2621198   1.974   4.378   5.816 -0.2583 -0.1168  0.2957
  185POPC   H6R21199   1.897   4.309   5.776 -0.5936  0.4834 -0.1198
  185POPC   H6S21200   2.069   4.321   5.814  0.5192  1.1633 -1.2285
  185POPC   C2721201   1.986   4.499   5.729 -0.3235 -0.0542  0.1211
  185POPC   H7R21202   2.080   4.557   5.738  1.4968 -2.9914  1.4880
  185POPC   H7S21203   1.899   4.565   5.750 -0.6156 -0.8739  1.6266
  185POPC   C2821204   1.969   4.470   5.577  0.1909  0.1581 -0.3742
  185POPC   H8R21205   1.909   4.550   5.530  0.9116  1.9238  1.5915
  185POPC   H8S21206   1.903   4.381   5.573 -0.0269  0.3632 -2.2581
  185POPC   C2921207   2.099   4.419   5.510 -1.1062 -0.4232  0.2462
  185POPC   H9121208   2.190   4.439   5.569 -1.4144 -2.0797  1.3748
  185POPC  C21021209   2.102   4.353   5.394 -0.6456 -0.3336 -0.1153
  185POPC  H10121210   2.197   4.321   5.348  1.0026 -0.2172  2.9662
  185POPC  C21121211   1.977   4.318   5.321 -0.4202  0.0732 -0.0249
  185POPC  H11R21212   1.892   4.385   5.345  0.1997  0.1637  2.0492
  185POPC  H11S21213   1.944   4.216   5.352  0.3524  0.4943  2.4030
  185POPC  C21221214   2.005   4.331   5.168 -0.1928 -0.2393  0.3951
  185POPC  H12R21215   2.103   4.286   5.141  0.5995  1.5117  0.1887
  185POPC  H12S21216   2.019   4.440   5.152 -1.1728 -0.0467  0.7695
  185POPC  C21321217   1.890   4.277   5.077 -0.4292  0.6680  0.1138
  185POPC  H13R21218   1.809   4.349   5.100 -2.1306 -0.8962 -0.6974
  185POPC  H13S21219   1.879   4.168   5.097  2.1182  0.2596 -0.4086
  185POPC  C21421220   1.925   4.283   4.929  0.0309 -0.0073 -0.2732
  185POPC  H14R21221   2.028   4.248   4.909 -0.3254 -0.9764 -0.4645
  185POPC  H14S21222   1.923   4.393   4.917  1.3980  0.0065 -0.5153
  185POPC  C21521223   1.821   4.205   4.844 -0.2032  0.1015  0.2847
  185POPC  H15R21224   1.723   4.255   4.861 -0.3974  0.2761 -1.2086
  185POPC  H15S21225   1.817   4.099   4.877 -0.0591 -0.5712 -1.7063
  185POPC  C21621226   1.845   4.211   4.696  0.0569 -0.5096  0.0371
  185POPC  H16R21227   1.795   4.126   4.646 -0.1416 -0.8587  0.8243
  185POPC  H16S21228   1.955   4.198   4.680  0.2512 -1.1475  1.7463
  185POPC  C21721229   1.787   4.332   4.626 -0.4086  0.0635 -0.0622
  185POPC  H17R21230   1.831   4.425   4.668 -1.1646  0.1557  0.5640
  185POPC  H17S21231   1.676   4.336   4.631 -0.3979  0.0312  0.2691
  185POPC  C21821232   1.816   4.322   4.476 -0.0024  0.1664  0.0439
  185POPC  H18R21233   1.767   4.232   4.433 -2.3410  0.8977  0.9899
  185POPC  H18S21234   1.926   4.311   4.469  0.0998  0.3803  1.1566
  185POPC  H18T21235   1.784   4.405   4.410 -1.1426  0.8390  1.3850
  185POPC   C3321236   2.384   4.108   5.953  0.3940 -0.9370  0.1524
  185POPC   H3X21237   2.275   4.122   5.962  0.7323  2.3522  0.3174
  185POPC   H3Y21238   2.402   3.999   5.937  0.4306 -1.1037  1.2774
  185POPC   C3421239   2.412   4.184   5.820  0.2847  0.6979 -0.5821
  185POPC   H4X21240   2.523   4.174   5.821  0.3238  0.9699 -1.4876
  185POPC   H4Y21241   2.397   4.294   5.825  2.9954  1.1111  0.6318
  185POPC   C3521242   2.345   4.117   5.700 -0.4361  0.0658  0.3652
  185POPC   H5X21243   2.241   4.156   5.701  0.1348  1.7117  2.1914
  185POPC   H5Y21244   2.343   4.006   5.696 -0.7441  0.0805  0.0143
  185POPC   C3621245   2.399   4.173   5.566  0.2337 -0.1291  0.0716
  185POPC   H6X21246   2.505   4.140   5.561 -0.5077 -2.6754 -0.6096
  185POPC   H6Y21247   2.398   4.284   5.558 -0.6345 -0.0120  1.4536
  185POPC   C3721248   2.341   4.114   5.432  0.4565 -0.1325  0.9851
  185POPC   H7X21249   2.235   4.146   5.428  0.4616 -0.2728 -1.1367
  185POPC   H7Y21250   2.357   4.005   5.445 -0.6553 -0.5580 -0.9984
  185POPC   C3821251   2.411   4.177   5.307 -0.0052 -0.0906  0.4662
  185POPC   H8X21252   2.520   4.156   5.302  0.0267  0.2105 -0.2236
  185POPC   H8Y21253   2.405   4.288   5.309  2.0904  0.1206 -1.1935
  185POPC   C3921254   2.346   4.131   5.183  0.1055  0.4630 -0.2970
  185POPC   H9X21255   2.238   4.153   5.195 -0.6991 -2.6459 -0.9821
  185POPC   H9Y21256   2.360   4.022   5.172  0.5313  0.2989  1.6241
  185POPC  C31021257   2.420   4.200   5.072 -0.5346 -0.2346 -0.1031
  185POPC  H10X21258   2.523   4.160   5.057 -0.5344 -0.6915  1.0195
  185POPC  H10Y21259   2.424   4.310   5.081 -0.5442 -0.1806 -0.7222
  185POPC  C31121260   2.352   4.168   4.934 -0.0318  0.0616  0.4582
  185POPC  H11X21261   2.265   4.237   4.928  0.2095  0.2892 -0.4049
  185POPC  H11Y21262   2.324   4.060   4.930  1.7974 -0.4005 -0.9046
  185POPC  C31221263   2.444   4.195   4.817  0.1202 -0.6742  0.5534
  185POPC  H12X21264   2.532   4.127   4.818  0.3520 -0.4475 -1.3089
  185POPC  H12Y21265   2.479   4.299   4.835  0.1782 -0.7647  0.9851
  185POPC  C31321266   2.387   4.191   4.679 -0.3470  0.2954 -0.4432
  185POPC  H13X21267   2.296   4.256   4.676 -0.5685 -0.0516 -1.7265
  185POPC  H13Y21268   2.364   4.086   4.654  0.4135  0.2580 -1.0251
  185POPC  C31421269   2.479   4.245   4.574 -0.4221  0.0057 -0.2403
  185POPC  H14X21270   2.580   4.200   4.577 -0.0829  0.6742 -1.2901
  185POPC  H14Y21271   2.494   4.354   4.583  3.4654 -0.4769  0.8020
  185POPC  C31521272   2.437   4.210   4.434 -0.0888 -0.3054 -0.0043
  185POPC  H15X21273   2.338   4.255   4.415  0.3217  0.1200 -1.2682
  185POPC  H15Y21274   2.425   4.100   4.428 -0.2299 -0.2484 -1.0574
  185POPC  C31621275   2.523   4.267   4.321 -0.4071  0.0984 -0.2280
  185POPC  H16X21276   2.622   4.217   4.321 -1.8723 -3.1259 -2.3061
  185POPC  H16Y21277   2.534   4.377   4.327 -2.0476  0.3545 -1.1809
  185POPC  H16Z21278   2.463   4.251   4.229 -3.7166  2.8443  1.2450
  186POPC     N21279   5.118   3.339   6.852 -0.4966  0.1639  0.2083
  186POPC   C1221280   5.059   3.469   6.813 -0.1520  0.0857  0.1261
  186POPC  H12A21281   4.955   3.473   6.842 -0.5293  0.5019 -1.1912
  186POPC  H12B21282   5.056   3.476   6.705  0.4225 -1.7408 -0.0468
  186POPC   C1321283   5.123   3.329   7.000 -0.0750  0.4391 -0.2893
  186POPC  H13A21284   5.195   3.400   7.038  1.2427 -0.7780 -0.4174
  186POPC  H13B21285   5.028   3.346   7.049 -0.1821 -0.0111 -0.3356
  186POPC  H13C21286   5.162   3.231   7.025 -0.7949  0.0331 -0.7229
  186POPC   C1421287   5.030   3.228   6.797  0.1200 -0.2681  0.1345
  186POPC  H14A21288   5.018   3.241   6.691  0.6647  1.2382  0.2396
  186POPC  H14B21289   5.052   3.126   6.825 -2.2038 -1.2714 -1.3484
  186POPC  H14C21290   4.931   3.236   6.840 -0.1068 -1.9406  0.0296
  186POPC   C1521291   5.250   3.319   6.795 -0.5067  0.3565 -0.3622
  186POPC  H15A21292   5.298   3.230   6.834 -0.0231  0.9165  0.3554
  186POPC  H15B21293   5.317   3.402   6.818 -0.6621  0.2054  0.7060
  186POPC  H15C21294   5.243   3.306   6.688 -0.1163  1.6024 -0.5624
  186POPC   C1121295   5.130   3.603   6.861 -0.3567  0.2157  0.1136
  186POPC  H11A21296   5.132   3.602   6.972  2.9718 -0.6328  0.1717
  186POPC  H11B21297   5.074   3.690   6.820  0.9296  0.7396 -0.6232
  186POPC     P21298   5.320   3.675   6.690 -0.1732 -0.0059 -0.1156
  186POPC   O1321299   5.421   3.589   6.629  0.0128 -0.4622 -0.1977
  186POPC   O1421300   5.363   3.810   6.732  0.0486  0.3419 -0.0453
  186POPC   O1221301   5.268   3.605   6.820 -0.1265  0.4828 -0.5769
  186POPC   O1121302   5.185   3.702   6.600 -0.2251 -0.2451  0.3513
  186POPC    C121303   5.147   3.632   6.489  0.9653 -0.0440 -0.3424
  186POPC    HA21304   5.038   3.608   6.490  0.7371  0.9569  0.6250
  186POPC    HB21305   5.188   3.529   6.495  0.1284 -0.4227 -0.9222
  186POPC    C221306   5.186   3.689   6.349  0.3094  0.3947  0.0416
  186POPC    HS21307   5.297   3.693   6.345  0.4779 -2.5701 -0.5614
  186POPC   O2121308   5.120   3.815   6.326 -0.6303 -0.3029  0.2083
  186POPC   C2121309   5.187   3.921   6.374  0.3371  0.2422 -0.3759
  186POPC   O2221310   5.297   3.920   6.431  0.0437  0.4059 -0.0280
  186POPC   C2221311   5.113   4.046   6.322  0.3664 -0.4770  0.0902
  186POPC   H2R21312   5.129   4.127   6.397  0.6180  0.5696 -1.0614
  186POPC   H2S21313   5.004   4.027   6.325  0.2349  0.0178 -1.0907
  186POPC    C321314   5.138   3.587   6.238 -0.5331 -0.2000 -0.8618
  186POPC    HX21315   5.031   3.562   6.254 -0.3829  0.2462  1.1104
  186POPC    HY21316   5.186   3.488   6.249 -2.8856 -1.3184  0.1631
  186POPC   O3121317   5.166   3.622   6.098  0.8845  0.3315  0.2113
  186POPC   C3121318   5.293   3.613   6.058  0.4333 -0.4254 -0.1100
  186POPC   O3221319   5.385   3.567   6.119 -0.4316  1.2718 -0.0178
  186POPC   C3221320   5.302   3.689   5.924  0.2581  0.0551  0.1712
  186POPC   H2X21321   5.273   3.796   5.940 -0.2998 -0.3280  1.9285
  186POPC   H2Y21322   5.223   3.644   5.861 -1.9280  2.6493  0.8730
  186POPC   C2321323   5.173   4.091   6.190  0.4315  0.0701  0.1933
  186POPC   H3R21324   5.110   4.170   6.146 -0.2583  0.0693  1.1395
  186POPC   H3S21325   5.174   4.005   6.120 -0.2206  1.2542 -1.3204
  186POPC   C2421326   5.313   4.151   6.202 -0.2865 -0.3943  0.0492
  186POPC   H4R21327   5.384   4.067   6.215  1.7963  1.3219  0.4820
  186POPC   H4S21328   5.329   4.226   6.282  1.1703 -0.9419  0.3076
  186POPC   C2521329   5.357   4.218   6.073  0.7631 -0.2567 -0.9351
  186POPC   H5R21330   5.460   4.253   6.095  0.8996 -0.6759 -0.9058
  186POPC   H5S21331   5.285   4.301   6.058 -0.1748 -1.0776 -1.0939
  186POPC   C2621332   5.360   4.129   5.950  0.2901 -0.2083 -0.2815
  186POPC   H6R21333   5.260   4.122   5.901 -0.8461  0.2320  1.8853
  186POPC   H6S21334   5.395   4.025   5.970  1.5526 -0.0408 -1.4022
  186POPC   C2721335   5.460   4.176   5.844 -0.1821 -0.6647 -0.3366
  186POPC   H7R21336   5.430   4.279   5.812 -0.2087 -0.8478 -0.9101
  186POPC   H7S21337   5.449   4.106   5.758  1.7557 -1.9902  0.4241
  186POPC   C2821338   5.609   4.179   5.864 -0.0593 -0.3505 -0.2456
  186POPC   H8R21339   5.640   4.257   5.937  2.6796 -1.4557 -0.1122
  186POPC   H8S21340   5.641   4.234   5.773 -3.2628  0.4361 -0.9928
  186POPC   C2921341   5.682   4.050   5.889  0.1751  0.2016  0.3707
  186POPC   H9121342   5.632   4.007   5.976  1.8735  0.1983  1.4006
  186POPC  C21021343   5.800   3.998   5.835  0.2615 -0.3753 -0.4198
  186POPC  H10121344   5.839   3.900   5.868  1.5624 -0.1561 -1.2209
  186POPC  C21121345   5.890   4.072   5.735  0.3468 -0.6296 -0.6667
  186POPC  H11R21346   5.997   4.070   5.764  0.3958 -1.3520 -0.8605
  186POPC  H11S21347   5.861   4.179   5.731  0.7852 -0.4651  0.2867
  186POPC  C21221348   5.859   4.008   5.598 -0.4736  0.4803 -0.1617
  186POPC  H12R21349   5.874   3.899   5.610  0.2832  0.6235  0.2287
  186POPC  H12S21350   5.926   4.038   5.516  0.0286  0.9146  0.4037
  186POPC  C21321351   5.708   4.038   5.555  0.0840  0.2488 -0.3378
  186POPC  H13R21352   5.691   4.148   5.543 -1.3268  0.2284  1.2025
  186POPC  H13S21353   5.630   4.001   5.625 -0.3664  1.3696 -0.2145
  186POPC  C21421354   5.662   3.968   5.417 -0.5596  0.8618  0.2834
  186POPC  H14R21355   5.551   3.978   5.421 -0.4299  2.6115  0.6918
  186POPC  H14S21356   5.681   3.859   5.423 -0.2263  0.9012 -0.0403
  186POPC  C21521357   5.728   4.035   5.300 -0.1743  0.0033 -0.5243
  186POPC  H15R21358   5.836   4.013   5.313 -0.5993 -1.1850  1.2675
  186POPC  H15S21359   5.700   4.143   5.306  0.4052  0.1732 -0.8293
  186POPC  C21621360   5.691   3.977   5.158 -0.2892 -0.6035 -0.5234
  186POPC  H16R21361   5.683   3.866   5.165 -0.3201 -0.4963  2.9861
  186POPC  H16S21362   5.777   4.005   5.095  0.2620 -0.1239  0.4128
  186POPC  C21721363   5.568   4.022   5.097  0.3303 -0.4207  0.3411
  186POPC  H17R21364   5.489   4.006   5.174 -0.5957  0.4221 -0.3979
  186POPC  H17S21365   5.537   3.959   5.011  1.0114  0.7041 -0.7467
  186POPC  C21821366   5.553   4.169   5.057 -0.6631  0.8757 -0.5564
  186POPC  H18R21367   5.445   4.176   5.033 -0.9609 -0.0654  0.3934
  186POPC  H18S21368   5.619   4.201   4.974 -1.7082  0.3291 -1.6409
  186POPC  H18T21369   5.575   4.235   5.143 -0.8977  1.1344 -0.6950
  186POPC   C3321370   5.442   3.670   5.853  0.8730 -0.0831  0.2761
  186POPC   H3X21371   5.453   3.566   5.814  3.1114  0.1241  0.2645
  186POPC   H3Y21372   5.523   3.694   5.925 -1.0829  0.2759  2.4707
  186POPC   C3421373   5.465   3.750   5.731 -0.1481 -0.3509 -0.0579
  186POPC   H4X21374   5.575   3.762   5.719 -0.4713  2.5372 -0.8882
  186POPC   H4Y21375   5.434   3.856   5.742 -0.9628 -0.5406 -0.4683
  186POPC   C3521376   5.390   3.703   5.605 -0.1029  0.0850 -0.1919
  186POPC   H5X21377   5.396   3.787   5.532  1.1176 -0.1203 -0.3501
  186POPC   H5Y21378   5.283   3.692   5.632  0.4109 -1.5683  1.4017
  186POPC   C3621379   5.431   3.570   5.542 -0.4411 -0.0572  0.0179
  186POPC   H6X21380   5.394   3.493   5.613 -1.3685  1.1891  0.9476
  186POPC   H6Y21381   5.542   3.561   5.538 -0.2235  2.1570 -0.3947
  186POPC   C3721382   5.373   3.562   5.398 -0.2292 -0.5763  0.0510
  186POPC   H7X21383   5.266   3.593   5.397  0.1918  0.9980 -0.2816
  186POPC   H7Y21384   5.380   3.457   5.362  0.7569 -0.5569  0.1538
  186POPC   C3821385   5.454   3.649   5.295 -0.0070 -0.4645 -0.4039
  186POPC   H8X21386   5.558   3.652   5.333 -0.6463 -1.9544  1.6344
  186POPC   H8Y21387   5.422   3.755   5.303  0.8035 -0.1165 -1.4687
  186POPC   C3921388   5.460   3.594   5.156  0.8324  0.1522 -0.2059
  186POPC   H9X21389   5.482   3.485   5.157  1.9345  0.3662  0.7421
  186POPC   H9Y21390   5.546   3.641   5.103 -0.5280  1.2388 -1.5305
  186POPC  C31021391   5.332   3.627   5.079  0.1381  0.1232 -0.6919
  186POPC  H10X21392   5.338   3.732   5.046 -4.2383  0.7661 -0.1201
  186POPC  H10Y21393   5.247   3.622   5.151  0.4293  1.4279 -0.2437
  186POPC  C31121394   5.301   3.544   4.953 -0.2947 -0.1516  0.7663
  186POPC  H11X21395   5.279   3.440   4.988  1.4892 -0.8543 -0.0566
  186POPC  H11Y21396   5.388   3.530   4.885 -0.1174 -1.7786  1.2702
  186POPC  C31221397   5.190   3.595   4.860  0.4201  0.1916  0.3615
  186POPC  H12X21398   5.223   3.682   4.799  0.5867 -1.4045 -1.9436
  186POPC  H12Y21399   5.097   3.618   4.917 -0.5581  0.0374 -1.1171
  186POPC  C31321400   5.165   3.497   4.745 -0.4993 -0.2882 -1.0175
  186POPC  H13X21401   5.143   3.396   4.785 -0.5840  0.1877  0.1572
  186POPC  H13Y21402   5.264   3.487   4.695 -0.9637  2.0410 -2.6072
  186POPC  C31421403   5.060   3.556   4.648  0.2920  0.4492  0.3796
  186POPC  H14X21404   5.089   3.659   4.618  2.5953  0.2778  1.7310
  186POPC  H14Y21405   4.962   3.556   4.700 -0.4266 -0.2492 -0.9180
  186POPC  C31521406   5.054   3.478   4.511  0.1504  0.3033 -0.1548
  186POPC  H15X21407   5.045   3.370   4.535 -3.1163  1.1228  3.3664
  186POPC  H15Y21408   5.152   3.492   4.461  0.1718  2.7020  0.4206
  186POPC  C31621409   4.939   3.515   4.417 -0.1086  0.6411 -0.5695
  186POPC  H16X21410   4.842   3.518   4.470  0.4333 -2.0717  0.7481
  186POPC  H16Y21411   4.936   3.451   4.326  1.7855 -1.0485  0.4792
  186POPC  H16Z21412   4.960   3.622   4.395  1.2922 -0.1123 -3.5195
  187POPC     N21413   0.756   5.582   2.025  0.2886  0.0005  0.2053
  187POPC   C1221414   0.751   5.635   2.162 -0.3741 -0.1883  0.2009
  187POPC  H12A21415   0.650   5.638   2.198  0.2340 -1.8350  2.2563
  187POPC  H12B21416   0.786   5.737   2.163 -2.0747  0.4925 -1.7460
  187POPC   C1321417   0.892   5.618   1.974 -0.0498 -0.8543  1.3767
  187POPC  H13A21418   0.883   5.721   1.943 -0.6872 -1.3749 -0.2925
  187POPC  H13B21419   0.962   5.621   2.056 -0.2344 -0.2883  1.5110
  187POPC  H13C21420   0.930   5.563   1.888 -0.2484  0.5155  0.3734
  187POPC   C1421421   0.750   5.440   2.032 -0.4078  0.2745  0.2206
  187POPC  H14A21422   0.849   5.403   2.056 -0.4547  0.6705  1.0652
  187POPC  H14B21423   0.675   5.413   2.105 -1.5606  1.2363 -0.5873
  187POPC  H14C21424   0.725   5.405   1.933  1.5214  0.7131 -0.4574
  187POPC   C1521425   0.649   5.639   1.927  0.2017  0.1882  0.1689
  187POPC  H15A21426   0.655   5.745   1.912 -0.4722  0.2540  0.3362
  187POPC  H15B21427   0.553   5.606   1.966  0.8672 -0.2362  1.5372
  187POPC  H15C21428   0.655   5.595   1.829 -0.9501  1.1884 -0.3717
  187POPC   C1121429   0.843   5.565   2.273  0.4588  0.0041 -0.6216
  187POPC  H11A21430   0.790   5.474   2.307 -2.4607  1.2688 -1.4412
  187POPC  H11B21431   0.833   5.629   2.363  2.1501 -2.6280  1.5849
  187POPC     P21432   1.067   5.421   2.259 -0.0983  0.1867  0.4431
  187POPC   O1321433   1.211   5.444   2.242  0.4556 -0.2802  0.0957
  187POPC   O1421434   1.013   5.317   2.166  0.2829 -0.3313  0.3205
  187POPC   O1221435   0.986   5.552   2.244  0.1957 -0.3870  0.1479
  187POPC   O1121436   1.033   5.372   2.408 -0.1959  0.1088 -0.2011
  187POPC    C121437   1.080   5.453   2.518 -0.2942 -0.8518 -0.1988
  187POPC    HA21438   0.997   5.512   2.562  0.8373  1.3616 -0.8534
  187POPC    HB21439   1.155   5.529   2.488 -2.2276  0.5457 -1.7629
  187POPC    C221440   1.133   5.367   2.638 -0.3979 -0.5479  0.3111
  187POPC    HS21441   1.216   5.302   2.605  0.5757  0.6899  0.2372
  187POPC   O2121442   1.019   5.301   2.700  0.0664  0.2816  0.3268
  187POPC   C2121443   1.062   5.186   2.762 -0.2653  1.2141  0.8014
  187POPC   O2221444   1.157   5.125   2.719 -0.7153 -0.1976 -0.1189
  187POPC   C2221445   0.989   5.164   2.893  1.1440 -0.0964  0.4626
  187POPC   H2R21446   1.014   5.254   2.953 -1.0509  2.2438 -1.8948
  187POPC   H2S21447   1.034   5.074   2.941  1.3336 -0.1197  0.2445
  187POPC    C321448   1.205   5.453   2.746  0.3621  0.1172 -0.7465
  187POPC    HX21449   1.134   5.523   2.795  2.0045  0.9487  0.5355
  187POPC    HY21450   1.281   5.516   2.695 -0.8578  1.4895 -0.9512
  187POPC   O3121451   1.266   5.375   2.848 -0.2266  0.2473 -0.3655
  187POPC   C3121452   1.376   5.321   2.815  0.0276 -0.1889  0.0427
  187POPC   O3221453   1.427   5.326   2.704 -0.1253 -0.0136 -0.2522
  187POPC   C3221454   1.434   5.241   2.938  0.1227 -0.4670 -0.5628
  187POPC   H2X21455   1.434   5.144   2.883 -0.4383  0.8431 -3.0296
  187POPC   H2Y21456   1.369   5.255   3.027  0.8091  0.6860 -0.2270
  187POPC   C2321457   0.830   5.147   2.885 -0.1006 -0.5939 -0.2923
  187POPC   H3R21458   0.802   5.056   2.828 -1.5075 -1.7755  2.1439
  187POPC   H3S21459   0.797   5.240   2.832  2.8376  1.4884  1.2831
  187POPC   C2421460   0.766   5.143   3.028  0.0556 -0.4586 -0.6392
  187POPC   H4R21461   0.659   5.164   3.008  0.2491  0.8326 -0.4102
  187POPC   H4S21462   0.801   5.232   3.085  0.1488  0.3487 -1.9039
  187POPC   C2521463   0.793   5.012   3.093 -0.7129  0.2565  0.4347
  187POPC   H5R21464   0.900   4.982   3.084 -0.1809  1.7677  1.3508
  187POPC   H5S21465   0.757   4.929   3.028  1.4492 -1.3551  1.1765
  187POPC   C2621466   0.752   4.995   3.238  0.0879  0.3301  0.2095
  187POPC   H6R21467   0.642   5.006   3.252 -0.3024 -1.5184 -1.0908
  187POPC   H6S21468   0.797   5.071   3.305 -1.6936  0.4468  1.3499
  187POPC   C2721469   0.803   4.859   3.303  0.4012  0.7132  0.4857
  187POPC   H7R21470   0.909   4.856   3.335  0.2975 -1.7693  0.7747
  187POPC   H7S21471   0.806   4.783   3.222 -0.5721  0.3271  0.7942
  187POPC   C2821472   0.709   4.807   3.419 -0.2786  0.2333 -0.3375
  187POPC   H8R21473   0.613   4.774   3.374  0.2704 -0.2870 -1.1542
  187POPC   H8S21474   0.687   4.895   3.484 -2.7690 -0.6403  0.1049
  187POPC   C2921475   0.771   4.688   3.487  0.1116 -0.1633 -1.2265
  187POPC   H9121476   0.756   4.594   3.432 -0.0640 -1.2932  0.6582
  187POPC  C21021477   0.818   4.686   3.616 -0.1443  0.7391 -0.4578
  187POPC  H10121478   0.859   4.587   3.645  1.2082  1.7428  1.2941
  187POPC  C21121479   0.825   4.788   3.718  0.5958  0.1816  0.2157
  187POPC  H11R21480   0.794   4.889   3.682  1.1082  0.4277  0.4467
  187POPC  H11S21481   0.930   4.814   3.743  0.7755  3.7001 -3.1508
  187POPC  C21221482   0.754   4.749   3.849 -0.2952 -0.3174  0.2853
  187POPC  H12R21483   0.810   4.663   3.892 -0.3923 -1.3596 -1.5741
  187POPC  H12S21484   0.649   4.716   3.831 -1.4362  3.6048 -1.2711
  187POPC  C21321485   0.743   4.860   3.965  0.3094  0.1418  0.5488
  187POPC  H13R21486   0.718   4.955   3.913 -0.0557  0.0520  0.5541
  187POPC  H13S21487   0.841   4.888   4.008  0.5318  0.6212 -0.2425
  187POPC  C21421488   0.643   4.826   4.068  0.6627  0.5440  1.1555
  187POPC  H14R21489   0.680   4.733   4.117  2.1182  0.6035  0.2370
  187POPC  H14S21490   0.548   4.793   4.021  1.3049 -0.7502  0.7093
  187POPC  C21521491   0.634   4.940   4.175  0.2754 -0.0706 -0.6133
  187POPC  H15R21492   0.555   4.924   4.252  1.4877 -1.0647  0.4590
  187POPC  H15S21493   0.608   5.037   4.127  1.1054  0.0254 -0.8826
  187POPC  C21621494   0.765   4.946   4.259  0.2837 -0.1890  0.0935
  187POPC  H16R21495   0.825   4.860   4.223  1.5868 -0.0176  1.7665
  187POPC  H16S21496   0.731   4.916   4.360 -2.0143 -1.5238 -0.9832
  187POPC  C21721497   0.842   5.074   4.260 -0.7679  0.3451  0.5167
  187POPC  H17R21498   0.775   5.158   4.288  0.9272  2.4645 -1.4741
  187POPC  H17S21499   0.879   5.096   4.158  2.2599  0.4162  1.5541
  187POPC  C21821500   0.961   5.070   4.350 -0.5534  0.9360 -0.2029
  187POPC  H18R21501   0.927   5.052   4.454  3.2014  0.0478  1.0232
  187POPC  H18S21502   1.016   5.166   4.344 -1.8313  1.7178  0.3004
  187POPC  H18T21503   1.025   4.981   4.330 -1.3488  0.1298  0.7517
  187POPC   C3321504   1.580   5.285   2.972 -0.4402 -0.3732  0.3971
  187POPC   H3X21505   1.587   5.388   3.012  1.0803  0.2528 -1.2919
  187POPC   H3Y21506   1.644   5.281   2.881  0.6817 -0.6198  1.1749
  187POPC   C3421507   1.635   5.187   3.079  0.0473  0.0839  0.4425
  187POPC   H4X21508   1.741   5.218   3.077  0.3156 -0.7810  0.6458
  187POPC   H4Y21509   1.631   5.089   3.027  2.0976 -0.4943  1.2642
  187POPC   C3521510   1.565   5.181   3.221 -0.3432 -0.8603 -0.3637
  187POPC   H5X21511   1.457   5.158   3.208 -0.1815 -1.6229 -0.4085
  187POPC   H5Y21512   1.585   5.277   3.273 -1.3127  0.2328 -1.9166
  187POPC   C3621513   1.619   5.063   3.309  0.3773  0.3908  0.0201
  187POPC   H6X21514   1.725   5.047   3.279 -0.4039 -3.3349 -1.3471
  187POPC   H6Y21515   1.568   4.968   3.283 -0.5835  0.7217  0.6472
  187POPC   C3721516   1.610   5.077   3.457 -0.6729  0.3280  0.8949
  187POPC   H7X21517   1.503   5.094   3.481 -0.4280  0.4532  1.9943
  187POPC   H7Y21518   1.675   5.164   3.479 -1.6528  0.8840  1.6513
  187POPC   C3821519   1.656   4.947   3.534  1.1419  0.7637 -0.1651
  187POPC   H8X21520   1.756   4.912   3.502 -0.0102 -1.2798 -1.7378
  187POPC   H8Y21521   1.578   4.869   3.521  2.5037 -0.6335 -0.1564
  187POPC   C3921522   1.667   4.965   3.686  0.1499 -0.2950 -0.6476
  187POPC   H9X21523   1.568   4.996   3.726 -0.9865 -1.7637 -2.1746
  187POPC   H9Y21524   1.741   5.047   3.701  2.6397 -2.4626 -0.4320
  187POPC  C31021525   1.728   4.848   3.756  0.2611  0.4273 -0.2468
  187POPC  H10X21526   1.825   4.821   3.709 -0.6796 -0.5165 -1.7267
  187POPC  H10Y21527   1.665   4.758   3.742  0.5386 -0.1802  2.0445
  187POPC  C31121528   1.768   4.883   3.897  1.3101 -0.0467  0.2037
  187POPC  H11X21529   1.691   4.948   3.945 -0.6073 -1.5202 -0.7701
  187POPC  H11Y21530   1.862   4.944   3.899 -0.1405  2.3272  2.0017
  187POPC  C31221531   1.784   4.754   3.982 -0.6257  0.0673  0.6739
  187POPC  H12X21532   1.866   4.690   3.945 -0.7889  0.5430 -0.5442
  187POPC  H12Y21533   1.697   4.686   3.968 -2.4336  2.1233  1.3229
  187POPC  C31321534   1.802   4.782   4.131 -0.2723  0.1348 -0.5053
  187POPC  H13X21535   1.708   4.830   4.163  0.6767  0.7350  1.5209
  187POPC  H13Y21536   1.884   4.856   4.140 -1.0329  1.0254 -0.8447
  187POPC  C31421537   1.815   4.655   4.218  0.4896  0.0671 -0.3476
  187POPC  H14X21538   1.918   4.617   4.200  1.0954  1.3113  0.3767
  187POPC  H14Y21539   1.744   4.576   4.183  1.2276 -0.7313 -0.0759
  187POPC  C31521540   1.798   4.689   4.369 -0.1340 -0.7096  0.2834
  187POPC  H15X21541   1.854   4.777   4.407 -0.5024 -0.3624  0.0289
  187POPC  H15Y21542   1.824   4.605   4.437 -0.8899  0.2664  1.8570
  187POPC  C31621543   1.655   4.717   4.411  0.0405  0.8595 -0.4430
  187POPC  H16X21544   1.583   4.642   4.370 -0.0104  0.5534  0.1849
  187POPC  H16Y21545   1.613   4.811   4.371  1.1624  2.0071  0.9903
  187POPC  H16Z21546   1.634   4.715   4.521 -1.3863 -1.2224 -0.7002
  188POPC     N21547   6.597   4.226   2.270 -0.3613  0.0694 -0.2258
  188POPC   C1221548   6.495   4.304   2.348  0.0549 -0.3419 -0.4382
  188POPC  H12A21549   6.436   4.227   2.394  2.5384 -2.6725 -0.8934
  188POPC  H12B21550   6.443   4.369   2.279 -0.0945  0.2066  0.1864
  188POPC   C1321551   6.666   4.124   2.353  0.7917 -0.0732  0.2369
  188POPC  H13A21552   6.605   4.041   2.385  1.3141 -0.7471 -0.4758
  188POPC  H13B21553   6.752   4.090   2.298  1.4062 -0.7346  1.5618
  188POPC  H13C21554   6.709   4.163   2.445  2.9479 -0.3905 -0.5691
  188POPC   C1421555   6.534   4.161   2.148  0.0081  0.3503  0.1529
  188POPC  H14A21556   6.603   4.123   2.074  0.4900  1.7511 -0.1349
  188POPC  H14B21557   6.493   4.070   2.189 -0.7333  0.3590 -0.5530
  188POPC  H14C21558   6.463   4.224   2.098 -0.9791 -2.7650 -2.7817
  188POPC   C1521559   6.696   4.327   2.208  0.2366  0.5357 -0.2127
  188POPC  H15A21560   6.744   4.391   2.281  0.5662  0.0764 -0.0161
  188POPC  H15B21561   6.649   4.392   2.136  1.9136  1.5395 -0.4638
  188POPC  H15C21562   6.781   4.274   2.167  1.8584  2.6013  0.2965
  188POPC   C1121563   6.552   4.400   2.456  0.0575  0.2241 -0.8681
  188POPC  H11A21564   6.621   4.340   2.519 -0.3776 -2.4043 -2.7502
  188POPC  H11B21565   6.459   4.426   2.511  0.7134  1.6287 -0.3732
  188POPC     P21566   6.536   4.632   2.357  0.3336 -0.1878  0.1442
  188POPC   O1321567   6.466   4.573   2.236 -0.3481  0.6481 -0.5251
  188POPC   O1421568   6.610   4.759   2.336  0.2060 -0.1657 -0.2071
  188POPC   O1221569   6.620   4.514   2.418  0.1241 -0.2329  0.0109
  188POPC   O1121570   6.426   4.656   2.467 -0.1343  0.5518  0.0578
  188POPC    C121571   6.440   4.749   2.573  0.4308  0.2330 -0.2217
  188POPC    HA21572   6.352   4.814   2.590  0.0912 -0.5061  0.9958
  188POPC    HB21573   6.531   4.813   2.576  1.4741 -1.2048  0.3020
  188POPC    C221574   6.472   4.672   2.706 -0.6692 -0.3180 -1.2876
  188POPC    HS21575   6.503   4.741   2.788  1.8178 -1.0547 -1.5159
  188POPC   O2121576   6.586   4.587   2.698 -0.3243 -0.0194  0.1901
  188POPC   C2121577   6.704   4.651   2.703  0.1092  0.3421 -0.7063
  188POPC   O2221578   6.718   4.775   2.721  0.0021 -0.1096 -0.1575
  188POPC   C2221579   6.816   4.547   2.697 -0.0958  0.5876  0.5625
  188POPC   H2R21580   6.905   4.607   2.726 -0.3284  1.6848 -0.8760
  188POPC   H2S21581   6.823   4.508   2.593 -1.1898  0.3619  0.5614
  188POPC    C321582   6.349   4.583   2.747  0.0071 -0.1992 -0.2579
  188POPC    HX21583   6.311   4.512   2.670 -0.2450 -1.8930  1.3613
  188POPC    HY21584   6.268   4.658   2.735  0.6643  0.4160 -0.9558
  188POPC   O3121585   6.354   4.512   2.872  0.1418  0.1343 -0.0951
  188POPC   C3121586   6.338   4.594   2.980  0.1230 -0.7937  0.1555
  188POPC   O3221587   6.304   4.710   2.978 -0.2240  0.4700  0.4271
  188POPC   C3221588   6.402   4.526   3.100 -0.6706 -0.1764 -1.0857
  188POPC   H2X21589   6.505   4.569   3.104  0.3560 -2.4849 -1.3614
  188POPC   H2Y21590   6.419   4.419   3.076 -0.1521 -0.2048 -0.6075
  188POPC   C2321591   6.800   4.427   2.788  0.5030  0.1169  0.2541
  188POPC   H3R21592   6.873   4.350   2.755  0.2914  0.1472 -0.3022
  188POPC   H3S21593   6.697   4.387   2.776 -0.1549  1.2169  1.8782
  188POPC   C2421594   6.809   4.476   2.929  0.2162  0.0292  0.2356
  188POPC   H4R21595   6.732   4.552   2.954  0.8539  0.2891  1.5041
  188POPC   H4S21596   6.905   4.524   2.955  0.4281  0.5523 -1.4586
  188POPC   C2521597   6.789   4.358   3.032 -1.0575 -0.2344  0.5574
  188POPC   H5R21598   6.885   4.303   3.030  0.3387  2.0457  0.5564
  188POPC   H5S21599   6.702   4.298   2.999 -1.2564 -0.9189  2.2169
  188POPC   C2621600   6.771   4.403   3.184 -0.0745  1.0169  0.5756
  188POPC   H6R21601   6.735   4.311   3.234  0.5579  0.7725  0.5862
  188POPC   H6S21602   6.687   4.475   3.195 -0.2704  0.6347  1.6829
  188POPC   C2721603   6.901   4.452   3.258 -0.3317  0.4749  0.4859
  188POPC   H7R21604   6.937   4.552   3.228  0.9036 -0.3984 -1.1008
  188POPC   H7S21605   6.980   4.374   3.250 -2.5373 -1.9222  0.8031
  188POPC   C2821606   6.873   4.469   3.414  0.2558 -0.0329  0.8353
  188POPC   H8R21607   6.789   4.539   3.431 -1.4657 -2.0727  1.0842
  188POPC   H8S21608   6.965   4.520   3.451  0.3759  2.3141 -2.2581
  188POPC   C2921609   6.854   4.336   3.480  0.0657 -0.0682  0.2381
  188POPC   H9121610   6.802   4.262   3.417 -0.6754 -0.4195  1.2314
  188POPC  C21021611   6.883   4.315   3.615 -0.0322  0.3088  0.8446
  188POPC  H10121612   6.871   4.219   3.668 -1.3794  0.6795  1.2597
  188POPC  C21121613   6.922   4.414   3.715  0.3244 -0.2692 -0.4272
  188POPC  H11R21614   6.942   4.514   3.672  1.5668 -0.9342 -1.4767
  188POPC  H11S21615   7.012   4.378   3.769  0.0626  2.8347  2.3556
  188POPC  C21221616   6.806   4.438   3.815  0.3261  1.0445  0.1908
  188POPC  H12R21617   6.716   4.455   3.753 -0.6583 -2.5346  0.3785
  188POPC  H12S21618   6.818   4.529   3.877  1.1788  0.3922  1.0282
  188POPC  C21321619   6.787   4.311   3.910  0.0988 -0.2814 -1.0492
  188POPC  H13R21620   6.789   4.206   3.872 -1.7959 -0.9387  0.4803
  188POPC  H13S21621   6.684   4.330   3.948  1.1747  2.3112  0.8317
  188POPC  C21421622   6.887   4.330   4.030 -0.2817  0.0778 -0.0988
  188POPC  H14R21623   6.892   4.441   4.039 -0.9361  0.1562 -0.6151
  188POPC  H14S21624   6.980   4.284   3.992 -0.5327 -0.4897 -0.0390
  188POPC  C21521625   6.844   4.247   4.146  0.7535 -0.0087 -0.2535
  188POPC  H15R21626   6.801   4.151   4.110  1.3817  0.1378 -1.4392
  188POPC  H15S21627   6.752   4.288   4.194  0.8021 -1.2885  1.0328
  188POPC  C21621628   6.951   4.238   4.255 -0.1181 -0.8458  0.2099
  188POPC  H16R21629   6.964   4.348   4.270 -1.6431 -0.7368  0.9303
  188POPC  H16S21630   7.044   4.200   4.207 -0.3682  2.2992 -3.2752
  188POPC  C21721631   6.926   4.160   4.381 -0.2293  0.2734  0.1834
  188POPC  H17R21632   6.908   4.054   4.354 -3.5621  1.3600 -2.6284
  188POPC  H17S21633   6.840   4.200   4.438 -0.4154 -1.0187  0.8312
  188POPC  C21821634   7.059   4.149   4.458 -0.2029 -0.8589 -0.7389
  188POPC  H18R21635   7.053   4.058   4.523 -0.2569 -0.6180 -0.4045
  188POPC  H18S21636   7.087   4.230   4.529  0.7148 -1.4242 -0.4305
  188POPC  H18T21637   7.145   4.129   4.391  0.0093 -0.3118 -0.6311
  188POPC   C3321638   6.334   4.541   3.239  0.0300 -0.1329 -0.4243
  188POPC   H3X21639   6.227   4.513   3.229  0.0058 -0.1432 -0.1579
  188POPC   H3Y21640   6.347   4.648   3.266 -0.0903 -0.4508  0.9611
  188POPC   C3421641   6.399   4.459   3.355 -0.2058 -0.0100 -0.0333
  188POPC   H4X21642   6.510   4.455   3.348  0.0703 -1.4356  3.3171
  188POPC   H4Y21643   6.369   4.355   3.331 -0.4997  0.2470 -0.7967
  188POPC   C3521644   6.354   4.492   3.497 -0.3110 -0.1837 -0.3538
  188POPC   H5X21645   6.411   4.585   3.517  2.2911 -1.1007 -2.7191
  188POPC   H5Y21646   6.402   4.418   3.565 -1.1786 -0.4334 -0.0063
  188POPC   C3621647   6.196   4.493   3.514 -0.2904 -0.3998  0.6345
  188POPC   H6X21648   6.163   4.388   3.502  0.4284 -0.3998 -2.0685
  188POPC   H6Y21649   6.151   4.545   3.426 -1.8657 -1.1244  0.9796
  188POPC   C3721650   6.146   4.563   3.644  0.0342  0.0029 -0.4229
  188POPC   H7X21651   6.036   4.552   3.652  0.2718 -1.1811  2.3356
  188POPC   H7Y21652   6.170   4.672   3.639 -1.3231  0.5140  2.2772
  188POPC   C3821653   6.211   4.509   3.773  0.0241  0.3564  0.1494
  188POPC   H8X21654   6.321   4.521   3.783 -0.1074  1.2721  0.5403
  188POPC   H8Y21655   6.196   4.398   3.770  2.8489 -0.0706 -0.7654
  188POPC   C3921656   6.129   4.557   3.900 -0.5727  0.1028 -0.3800
  188POPC   H9X21657   6.114   4.663   3.870  1.1844  0.1342 -1.2693
  188POPC   H9Y21658   6.189   4.558   3.994  0.9077 -0.4700 -1.2865
  188POPC  C31021659   5.997   4.483   3.916 -0.3110 -0.2316 -0.3916
  188POPC  H10X21660   6.013   4.374   3.931  0.8030  0.0594  0.7075
  188POPC  H10Y21661   5.937   4.487   3.822  0.7628 -1.6803 -1.1789
  188POPC  C31121662   5.896   4.546   4.021 -0.3403 -0.4513  0.3231
  188POPC  H11X21663   5.802   4.488   4.032  0.1071 -1.0877  0.8624
  188POPC  H11Y21664   5.869   4.651   3.995  1.6936  1.3973  4.7639
  188POPC  C31221665   5.947   4.559   4.161 -0.0199  0.0356 -0.1640
  188POPC  H12X21666   6.033   4.629   4.156 -0.7037  0.8107 -2.9009
  188POPC  H12Y21667   5.989   4.465   4.203  1.4477  1.1176  0.8690
  188POPC  C31321668   5.853   4.620   4.255 -0.0353 -0.2935 -0.0055
  188POPC  H13X21669   5.787   4.549   4.309 -1.5049  0.1023 -1.2320
  188POPC  H13Y21670   5.789   4.695   4.203 -2.7865 -0.5947  2.6467
  188POPC  C31421671   5.924   4.695   4.363 -0.0317 -0.3879  0.3129
  188POPC  H14X21672   5.985   4.779   4.322 -2.4594  0.8522 -0.9871
  188POPC  H14Y21673   5.999   4.626   4.408  0.4312  0.6572  1.1810
  188POPC  C31521674   5.831   4.752   4.470  0.1853 -0.0244 -0.8260
  188POPC  H15X21675   5.731   4.758   4.423 -0.6910 -0.4133  0.8950
  188POPC  H15Y21676   5.870   4.856   4.478  0.3129 -0.1096 -0.3188
  188POPC  C31621677   5.824   4.672   4.597 -0.0269  0.1789 -0.2638
  188POPC  H16X21678   5.748   4.712   4.667  0.6321 -0.8766  1.1088
  188POPC  H16Y21679   5.922   4.667   4.650 -0.0934 -1.7226 -0.2572
  188POPC  H16Z21680   5.805   4.567   4.567  0.9905  0.1332 -0.7936
  189SAPI   C1221681   3.843   4.169   6.832  0.4910  0.2919 -0.4040
  189SAPI    H221682   3.741   4.168   6.788  0.4217 -2.8927 -0.4026
  189SAPI    O221683   3.936   4.208   6.739 -0.1153 -0.4683  0.0352
  189SAPI   HO221684   3.948   4.146   6.667 -1.4690  1.2439 -1.7903
  189SAPI   C1321685   3.856   4.244   6.965  0.1795 -0.2466 -0.4967
  189SAPI    H321686   3.781   4.201   7.035  1.6765 -1.4640  0.4283
  189SAPI    O321687   3.809   4.380   6.949  0.0600  0.7892  0.0251
  189SAPI   HO321688   3.755   4.411   7.022 -1.8577 -0.4438 -0.7999
  189SAPI   C1421689   3.995   4.227   7.031  0.3037 -0.2286 -0.1685
  189SAPI    H421690   4.059   4.268   6.949 -0.5478 -0.3520 -0.9070
  189SAPI    O421691   4.009   4.299   7.155 -0.0068 -0.3428  0.0413
  189SAPI   HO421692   4.082   4.361   7.149 -0.7168  0.3895 -1.9496
  189SAPI   C1521693   4.045   4.083   7.045  1.2493  0.0805  0.2607
  189SAPI    H521694   3.985   4.044   7.130 -2.6284  0.8501 -1.8762
  189SAPI    O521695   4.179   4.075   7.081  0.4814 -0.1354 -0.5525
  189SAPI   HO521696   4.185   4.022   7.161  1.0934 -0.5989 -0.8957
  189SAPI   C1621697   4.002   3.988   6.928 -0.2501  0.2045  0.4096
  189SAPI    H621698   4.078   4.001   6.848  0.6118 -0.0283  1.1790
  189SAPI    O621699   4.005   3.852   6.968 -0.0537 -0.1844  0.1765
  189SAPI   HO621700   4.002   3.795   6.891 -2.2662 -1.3934  1.0623
  189SAPI   C1121701   3.871   4.022   6.853  0.5106  0.5330  0.6194
  189SAPI    H121702   3.792   3.999   6.928 -0.1031  1.0186  0.1339
  189SAPI     P21703   3.716   3.874   6.698  0.0409 -0.0507  0.1609
  189SAPI   O1321704   3.610   3.940   6.780  0.0343  0.5362 -0.0051
  189SAPI   O1421705   3.726   3.725   6.711  0.1714  0.4852 -0.3967
  189SAPI   O1221706   3.865   3.944   6.728  0.0741  0.5753  0.2178
  189SAPI   O1121707   3.697   3.920   6.545  0.6350  0.0269  0.4001
  189SAPI    C121708   3.595   3.869   6.456  0.0689  0.8503  0.5040
  189SAPI    HA21709   3.520   3.812   6.515 -0.0280  1.5016  1.0365
  189SAPI    HB21710   3.545   3.957   6.408 -1.2413 -1.7614 -3.4484
  189SAPI    C221711   3.661   3.785   6.342 -0.3206  0.2345  1.4302
  189SAPI    HS21712   3.731   3.705   6.375  1.8158  1.7895  0.8726
  189SAPI   O2121713   3.715   3.885   6.247 -0.4360 -0.6713  0.8261
  189SAPI   C2121714   3.840   3.916   6.258 -0.0340 -0.7524 -0.3050
  189SAPI   O2221715   3.917   3.854   6.330  0.2494 -0.0988  0.5138
  189SAPI   C2221716   3.867   4.043   6.168  0.0690  0.1287 -0.2285
  189SAPI   H2R21717   3.786   4.080   6.102  0.1523  1.1247  0.2059
  189SAPI   H2S21718   3.885   4.125   6.241 -0.0946 -2.2619  2.6671
  189SAPI    C321719   3.554   3.698   6.272 -0.4424 -0.0091 -0.2008
  189SAPI    HX21720   3.460   3.756   6.284 -0.7661 -0.6472  0.4257
  189SAPI    HY21721   3.548   3.605   6.333 -0.0661 -0.1258 -0.3381
  189SAPI   O3121722   3.576   3.689   6.135  0.0427  0.6311 -0.0254
  189SAPI   C3121723   3.539   3.572   6.087  0.5515  0.3319  0.0462
  189SAPI   O3221724   3.487   3.477   6.140  0.2624 -0.6777 -0.3598
  189SAPI   C3221725   3.574   3.563   5.935 -0.1843 -0.3683 -0.1234
  189SAPI   H2X21726   3.683   3.578   5.926 -0.1804  0.5671  1.2179
  189SAPI   H2Y21727   3.504   3.637   5.890  0.0717 -0.8989 -1.4397
  189SAPI   C2321728   3.997   4.009   6.088  0.5193  0.6680  0.3405
  189SAPI   H3R21729   4.082   3.996   6.158  3.6094  2.9960 -2.6384
  189SAPI   H3S21730   4.015   4.096   6.021 -0.0605 -0.6165 -1.5539
  189SAPI   C2421731   3.977   3.878   6.000 -0.0532 -0.0162 -0.9944
  189SAPI   H4R21732   3.965   3.786   6.061 -3.3964  0.4584 -0.7969
  189SAPI   H4S21733   4.074   3.859   5.949  0.2228  2.4846 -1.5070
  189SAPI   C2521734   3.857   3.875   5.911 -0.3447  0.4705  0.2579
  189SAPI   H5R21735   3.755   3.880   5.952 -0.7764  2.1703 -0.8780
  189SAPI   C2621736   3.863   3.872   5.774 -0.8422  0.1593 -0.2613
  189SAPI   H6R21737   3.771   3.879   5.713 -1.8536  1.1049  1.3279
  189SAPI   C2721738   3.991   3.867   5.692 -0.2571  0.2530 -0.1522
  189SAPI   H7R21739   4.074   3.905   5.755  0.2605 -1.0070 -0.0400
  189SAPI   H7S21740   3.987   3.940   5.608  0.3410  0.8696  0.3493
  189SAPI   C2821741   4.032   3.730   5.635 -0.1703  0.4636 -0.0154
  189SAPI   H8R21742   4.021   3.645   5.704  0.2758  0.8145  0.4937
  189SAPI   C2921743   4.108   3.704   5.531 -0.4433  0.8361 -0.1619
  189SAPI   H9R21744   4.130   3.602   5.496  0.6884  1.0630 -0.1533
  189SAPI  C21021745   4.150   3.810   5.437 -0.2431 -0.4968 -0.7705
  189SAPI  H10R21746   4.249   3.772   5.404  0.4463 -1.2797  1.9639
  189SAPI  H10S21747   4.172   3.907   5.485  0.0260 -1.2487  0.6944
  189SAPI  C21121748   4.059   3.832   5.325  0.4870  0.5800 -0.2803
  189SAPI  H11R21749   3.953   3.825   5.353  0.5598 -0.3145 -0.1960
  189SAPI  C21221750   4.085   3.815   5.200 -0.1185  0.1410  0.3989
  189SAPI  H12R21751   4.007   3.835   5.124 -0.2153 -1.0974  0.1580
  189SAPI  C21321752   4.219   3.805   5.137 -0.0406 -0.0995 -0.0092
  189SAPI  H13R21753   4.225   3.705   5.088  0.1321 -0.5260  0.8693
  189SAPI  H13S21754   4.292   3.792   5.220 -1.8136 -2.1763  1.3441
  189SAPI  C21421755   4.278   3.913   5.047  0.4566  0.1134 -1.1013
  189SAPI  H14R21756   4.323   4.002   5.095 -0.3547 -0.3083  0.4728
  189SAPI  C21521757   4.283   3.904   4.918  0.8030 -0.1378 -0.7772
  189SAPI  H15R21758   4.318   3.994   4.865 -2.6222  1.0481 -1.2758
  189SAPI  C21621759   4.240   3.793   4.830  0.2778  0.0319  0.0085
  189SAPI  H16R21760   4.162   3.835   4.764  2.0700  2.0858 -0.9301
  189SAPI  H16S21761   4.188   3.710   4.883  0.4298 -0.1528 -0.1279
  189SAPI  C21721762   4.348   3.742   4.743 -0.6212 -0.6973  0.2136
  189SAPI  H17R21763   4.331   3.637   4.709 -0.2022 -0.2949 -1.3276
  189SAPI  H17S21764   4.446   3.752   4.793 -0.6035  1.6638 -0.1751
  189SAPI  C21821765   4.365   3.817   4.612 -0.3633  0.3389 -0.2721
  189SAPI  H18R21766   4.401   3.919   4.638 -0.8493  0.9230 -1.7872
  189SAPI  H18S21767   4.269   3.815   4.555 -1.9903 -1.8567  2.2910
  189SAPI  C21921768   4.476   3.751   4.520 -0.2189  0.2922  0.5109
  189SAPI  H19R21769   4.559   3.720   4.587 -0.1564 -3.6609 -1.1271
  189SAPI  H19S21770   4.506   3.832   4.450  1.6711 -0.2015  0.6891
  189SAPI  C22021771   4.425   3.635   4.443  0.5528  0.8546 -0.5549
  189SAPI  H20R21772   4.496   3.599   4.366 -1.7777 -1.6310 -1.6956
  189SAPI  H20S21773   4.336   3.658   4.382  0.5770 -2.9984 -2.3466
  189SAPI  H20T21774   4.393   3.552   4.510 -1.6917  1.8734 -0.2963
  189SAPI   C3321775   3.543   3.429   5.859 -0.3345  0.1659  0.1409
  189SAPI   H3X21776   3.452   3.374   5.890  0.5314 -1.1661  0.4247
  189SAPI   H3Y21777   3.630   3.360   5.869  3.0580  4.0611  0.3074
  189SAPI   C3421778   3.543   3.462   5.708  0.0257 -0.1165  0.0237
  189SAPI   H4X21779   3.474   3.547   5.685  0.0594 -0.2333 -0.5307
  189SAPI   H4Y21780   3.500   3.369   5.665  1.4979 -0.8136 -0.0113
  189SAPI   C3521781   3.683   3.472   5.640 -0.4369  0.0760  0.1731
  189SAPI   H5X21782   3.748   3.387   5.667  1.8193  1.2073 -1.3569
  189SAPI   H5Y21783   3.731   3.565   5.678 -2.8448  1.4890  0.0373
  189SAPI   C3621784   3.682   3.471   5.483 -0.0891  0.6492  0.9840
  189SAPI   H6X21785   3.616   3.551   5.443 -1.7392 -2.3016 -2.8033
  189SAPI   H6Y21786   3.636   3.377   5.444  3.3497 -1.9383  2.6567
  189SAPI   C3721787   3.820   3.481   5.407 -0.9901 -0.1611  0.3260
  189SAPI   H7X21788   3.894   3.399   5.416  0.4807  0.9606 -1.0194
  189SAPI   H7Y21789   3.879   3.566   5.447 -0.0938 -0.5778 -0.0877
  189SAPI   C3821790   3.782   3.492   5.263 -0.6463  0.4012 -0.0643
  189SAPI   H8X21791   3.735   3.590   5.241 -1.9230  0.1293  1.2617
  189SAPI   H8Y21792   3.711   3.412   5.235 -1.5993 -0.4952  4.2116
  189SAPI   C3921793   3.897   3.473   5.161 -0.1328  0.3518  0.7531
  189SAPI   H9X21794   3.935   3.369   5.164  0.0308  0.1518 -2.9414
  189SAPI   H9Y21795   3.984   3.538   5.187  1.2214 -0.9717 -0.2620
  189SAPI  C31021796   3.842   3.500   5.016 -0.7424 -0.1473  0.0817
  189SAPI  H10X21797   3.807   3.603   4.994 -2.4775 -0.9079 -1.0011
  189SAPI  H10Y21798   3.758   3.430   4.994  0.1026 -1.0447 -0.3519
  189SAPI  C31121799   3.955   3.455   4.917 -0.5505  0.0838 -0.9956
  189SAPI  H11X21800   4.003   3.360   4.947 -0.3543  0.3905 -0.3300
  189SAPI  H11Y21801   4.039   3.528   4.927 -0.2434 -0.1445 -1.7729
  189SAPI  C31221802   3.913   3.441   4.771 -0.1691 -0.2614 -0.0879
  189SAPI  H12X21803   3.802   3.441   4.780 -0.1849 -0.6092 -0.2648
  189SAPI  H12Y21804   3.953   3.343   4.737  2.2902  0.6152  0.0998
  189SAPI  C31321805   3.956   3.550   4.673 -0.2115  0.7136  0.1299
  189SAPI  H13X21806   4.065   3.558   4.689  0.1460 -2.3738 -0.0497
  189SAPI  H13Y21807   3.907   3.648   4.693  0.0735  0.9009 -0.0875
  189SAPI  C31421808   3.939   3.506   4.527  0.4997 -0.3993 -0.2325
  189SAPI  H14X21809   3.829   3.504   4.514  0.4642 -1.9262  0.1506
  189SAPI  H14Y21810   3.977   3.403   4.511 -0.4771 -0.8639  0.3648
  189SAPI  C31521811   4.017   3.610   4.437  0.0825  0.5282 -0.1757
  189SAPI  H15X21812   4.016   3.563   4.336  2.0030  1.2177 -0.5606
  189SAPI  H15Y21813   4.123   3.604   4.470  0.1162  0.9069 -0.2155
  189SAPI  C31621814   3.992   3.759   4.440  0.2365  0.1897 -0.0522
  189SAPI  H16X21815   4.029   3.806   4.534  0.9478  0.6986 -0.5714
  189SAPI  H16Y21816   3.882   3.768   4.429  0.4223  1.4059 -1.1615
  189SAPI  C31721817   4.062   3.823   4.325  0.2251  0.6340 -0.6031
  189SAPI  H17X21818   4.041   3.776   4.227 -0.6957  0.2518 -0.2283
  189SAPI  H17Y21819   4.169   3.808   4.351  0.0881 -1.0977 -0.9251
  189SAPI  C31821820   4.038   3.975   4.315  0.1916 -0.2350 -0.4977
  189SAPI  H18X21821   3.929   3.996   4.325  0.5556  2.1967 -0.9861
  189SAPI  H18Y21822   4.075   4.015   4.218  1.4589  0.4187  0.2344
  189SAPI  H18Z21823   4.096   4.034   4.389  1.1077  1.8748 -2.7285
  190SAPI   C1221824   4.170   1.103   6.881  0.7634 -0.3046  0.9287
  190SAPI    H221825   4.085   1.044   6.921 -0.6309  1.3953  0.6134
  190SAPI    O221826   4.116   1.185   6.773  0.3432  0.0805 -0.0450
  190SAPI   HO221827   4.038   1.139   6.741 -0.0162  1.3637 -1.0670
  190SAPI   C1321828   4.223   1.187   6.992  0.3181  0.4506  0.1720
  190SAPI    H321829   4.270   1.129   7.074  0.8688  0.4981 -0.1048
  190SAPI    O321830   4.120   1.265   7.055 -0.4020  0.3652  0.3632
  190SAPI   HO321831   4.149   1.310   7.135  1.1565  0.5347 -0.2593
  190SAPI   C1421832   4.341   1.276   6.943  0.0464  0.4843 -0.3268
  190SAPI    H421833   4.296   1.352   6.875  1.9589  1.9686 -0.0301
  190SAPI    O421834   4.401   1.358   7.044  0.5189  0.1514 -0.2302
  190SAPI   HO421835   4.474   1.412   7.012  1.9156 -1.7650 -0.4824
  190SAPI   C1521836   4.436   1.200   6.860 -0.1112 -0.0344 -0.1336
  190SAPI    H521837   4.526   1.183   6.922  0.1303  1.1243 -0.1492
  190SAPI    O521838   4.481   1.285   6.748  0.1214 -0.0350  0.0519
  190SAPI   HO521839   4.401   1.293   6.695 -1.3221 -1.0798  1.9754
  190SAPI   C1621840   4.399   1.063   6.802  0.5599  0.6546  0.6876
  190SAPI    H621841   4.381   1.080   6.694 -0.2050 -2.4508  0.2405
  190SAPI    O621842   4.511   0.975   6.804  0.1392  0.6542  0.5446
  190SAPI   HO621843   4.502   0.923   6.723 -2.1847 -2.2361  2.4469
  190SAPI   C1121844   4.272   0.997   6.845  0.1865  0.3985  0.5456
  190SAPI    H121845   4.294   0.941   6.938 -1.0530  0.7616  1.0712
  190SAPI     P21846   4.256   0.748   6.739  0.0057 -0.0748 -0.2452
  190SAPI   O1321847   4.180   0.688   6.624  0.3118  0.0505  0.1286
  190SAPI   O1421848   4.227   0.688   6.871  0.0805 -0.1142  0.1099
  190SAPI   O1221849   4.220   0.913   6.738 -0.1988 -0.5686  0.5206
  190SAPI   O1121850   4.404   0.744   6.702  0.0522  0.7308  0.0507
  190SAPI    C121851   4.498   0.635   6.685 -1.0227  0.4677  0.6989
  190SAPI    HA21852   4.572   0.624   6.767 -0.7881 -2.2846  0.2119
  190SAPI    HB21853   4.440   0.541   6.671 -0.4962 -0.0233  1.7193
  190SAPI    C221854   4.594   0.659   6.557 -0.3499 -0.5299  0.6441
  190SAPI    HS21855   4.678   0.586   6.552 -0.9461 -1.1410 -1.2795
  190SAPI   O2121856   4.649   0.798   6.568  0.5567  0.7614 -0.4030
  190SAPI   C2121857   4.775   0.812   6.576 -0.1152 -0.9642 -0.2543
  190SAPI   O2221858   4.863   0.727   6.552  0.4849 -0.1791  0.5766
  190SAPI   C2221859   4.813   0.951   6.604  0.0854  0.4681 -0.2440
  190SAPI   H2R21860   4.745   1.001   6.677  0.1930 -1.6367  1.3933
  190SAPI   H2S21861   4.914   0.951   6.649  0.5346 -1.0663 -1.1861
  190SAPI    C321862   4.520   0.658   6.420 -0.8799 -0.2553  1.2642
  190SAPI    HX21863   4.429   0.717   6.442 -1.5956 -0.0903 -1.7086
  190SAPI    HY21864   4.487   0.553   6.406 -2.6592  0.4931 -0.7732
  190SAPI   O3121865   4.592   0.715   6.302  0.4644 -0.6506  0.0063
  190SAPI   C3121866   4.689   0.632   6.257 -0.5666  0.3000  0.4225
  190SAPI   O3221867   4.703   0.518   6.295  0.0148  0.0902 -0.1709
  190SAPI   C3221868   4.767   0.702   6.150 -0.0990  0.1415  0.4883
  190SAPI   H2X21869   4.792   0.805   6.184 -2.5402  0.4679  1.4285
  190SAPI   H2Y21870   4.693   0.705   6.067  0.0346 -1.6197  0.2665
  190SAPI   C2321871   4.831   1.030   6.467 -0.0916 -0.4828 -0.2116
  190SAPI   H3R21872   4.899   0.978   6.397 -1.6868 -1.0932 -1.3821
  190SAPI   H3S21873   4.873   1.129   6.493 -2.3691  1.1934 -2.3978
  190SAPI   C2421874   4.701   1.064   6.392  0.1844 -0.6306  0.8130
  190SAPI   H4R21875   4.612   1.037   6.452 -0.2378  0.6648  0.8055
  190SAPI   H4S21876   4.696   1.010   6.295 -0.8584 -1.2857  1.2181
  190SAPI   C2521877   4.697   1.211   6.350  0.4852  0.0113  0.2178
  190SAPI   H5R21878   4.656   1.281   6.424  1.1848  1.6860 -0.9154
  190SAPI   C2621879   4.746   1.261   6.237 -0.0140 -0.3014  0.3135
  190SAPI   H6R21880   4.713   1.362   6.208  2.5762  0.0452 -1.8025
  190SAPI   C2721881   4.821   1.187   6.122 -0.4738 -0.4038  0.1021
  190SAPI   H7R21882   4.761   1.161   6.032 -1.9140 -2.1757  1.5085
  190SAPI   H7S21883   4.876   1.098   6.160 -0.6765 -0.2010  0.8792
  190SAPI   C2821884   4.950   1.270   6.081 -0.7136 -0.5878 -0.6122
  190SAPI   H8R21885   4.976   1.364   6.132  0.2571  0.3951 -2.7889
  190SAPI   C2921886   5.037   1.240   5.984 -0.4754 -0.4585  0.1410
  190SAPI   H9R21887   5.134   1.292   5.980 -1.1079  0.7316 -0.0995
  190SAPI  C21021888   5.035   1.111   5.907  0.0678  0.0155 -0.0719
  190SAPI  H10R21889   4.952   1.113   5.834  1.9198 -0.2248 -2.3243
  190SAPI  H10S21890   5.006   1.028   5.976  2.7302  0.9880  2.4347
  190SAPI  C21121891   5.178   1.075   5.840  0.0943  0.4026  0.4136
  190SAPI  H11R21892   5.226   0.988   5.889 -2.6876 -1.7012 -0.3762
  190SAPI  C21221893   5.234   1.131   5.731 -0.5960 -0.0921  1.0693
  190SAPI  H12R21894   5.334   1.097   5.700 -1.2570  0.8511 -2.5410
  190SAPI  C21321895   5.182   1.248   5.647 -0.1003  0.0334 -0.0702
  190SAPI  H13R21896   5.268   1.286   5.588  0.6210 -0.2556  0.7661
  190SAPI  H13S21897   5.144   1.331   5.710  0.3906 -1.2596  2.0314
  190SAPI  C21421898   5.074   1.198   5.553 -0.0235  0.3897 -0.6854
  190SAPI  H14R21899   4.980   1.179   5.605  0.0775  3.6706  0.9534
  190SAPI  C21521900   5.085   1.164   5.422  0.6231  0.3356 -0.5515
  190SAPI  H15R21901   4.992   1.147   5.366 -1.1009  1.9703  1.6255
  190SAPI  C21621902   5.209   1.168   5.335  0.3507 -0.1855 -0.9100
  190SAPI  H16R21903   5.249   1.065   5.323 -0.6397 -0.3920 -2.9960
  190SAPI  H16S21904   5.289   1.233   5.378 -2.8074  1.7617  2.5488
  190SAPI  C21721905   5.174   1.203   5.183 -0.2339  0.5919  0.1811
  190SAPI  H17R21906   5.272   1.231   5.139  0.9144  0.5672  2.5470
  190SAPI  H17S21907   5.090   1.276   5.176 -1.3260 -0.6382  0.1190
  190SAPI  C21821908   5.147   1.073   5.106  0.5059 -0.4127  0.8856
  190SAPI  H18R21909   5.042   1.049   5.132  0.6385 -2.5818 -0.3511
  190SAPI  H18S21910   5.204   0.980   5.130  1.0287 -0.8650 -1.7554
  190SAPI  C21921911   5.151   1.087   4.955 -0.0359  0.3863  0.1257
  190SAPI  H19R21912   5.260   1.104   4.944 -0.1095  1.5032  0.9318
  190SAPI  H19S21913   5.098   1.180   4.926 -1.4280  0.0711  1.4932
  190SAPI  C22021914   5.104   0.981   4.871 -0.2392  0.0503  0.5731
  190SAPI  H20R21915   5.154   0.888   4.905 -2.0320 -0.6882  1.3386
  190SAPI  H20S21916   5.131   0.985   4.763  1.2330 -0.9065  0.8871
  190SAPI  H20T21917   4.993   0.966   4.872 -0.2323 -0.0044  0.5643
  190SAPI   C3321918   4.894   0.628   6.111  0.7228  0.3000 -0.6061
  190SAPI   H3X21919   4.879   0.523   6.080  0.5026 -0.1509  0.9876
  190SAPI   H3Y21920   4.962   0.624   6.198 -1.2955  2.6550  1.2414
  190SAPI   C3421921   4.973   0.709   6.010 -0.4966 -0.8434 -0.0748
  190SAPI   H4X21922   5.078   0.678   6.024 -0.8752 -1.5368  1.4964
  190SAPI   H4Y21923   4.970   0.816   6.041 -2.0656 -0.3361 -1.7571
  190SAPI   C3521924   4.933   0.677   5.865  0.0724  0.3528  0.2457
  190SAPI   H5X21925   4.825   0.701   5.856  0.3127  1.0520 -0.9507
  190SAPI   H5Y21926   4.955   0.573   5.831 -0.6198  0.1253  0.4728
  190SAPI   C3621927   5.004   0.772   5.762  0.1692  0.2503 -0.4385
  190SAPI   H6X21928   5.114   0.786   5.769  0.8303 -2.6233 -3.2065
  190SAPI   H6Y21929   4.969   0.877   5.777  1.8617  1.0020 -1.5067
  190SAPI   C3721930   4.972   0.734   5.617  0.2613 -0.3868  0.0252
  190SAPI   H7X21931   4.861   0.726   5.617  0.2938 -0.8270 -0.0382
  190SAPI   H7Y21932   5.021   0.636   5.603 -1.9312 -1.5946  0.4085
  190SAPI   C3821933   5.011   0.841   5.513 -0.4264 -0.4115 -0.0077
  190SAPI   H8X21934   5.120   0.853   5.532 -0.6531 -0.1812  1.2707
  190SAPI   H8Y21935   4.955   0.932   5.544 -1.5820 -1.0039 -0.2815
  190SAPI   C3921936   4.963   0.798   5.376 -0.6066  0.6668  0.0181
  190SAPI   H9X21937   5.012   0.862   5.299 -0.7803  0.4658 -0.2613
  190SAPI   H9Y21938   4.854   0.811   5.365 -1.2123 -2.3155  1.4558
  190SAPI  C31021939   5.001   0.653   5.338 -0.3209 -0.8568  0.4661
  190SAPI  H10X21940   4.935   0.594   5.406  1.4313 -1.9399  1.3035
  190SAPI  H10Y21941   5.108   0.635   5.360 -0.6293 -0.5049  2.5094
  190SAPI  C31121942   4.958   0.608   5.200  0.0638  0.8045 -0.0968
  190SAPI  H11X21943   4.993   0.503   5.191 -1.1240  0.4578 -0.9611
  190SAPI  H11Y21944   5.015   0.669   5.127 -1.5841  0.3159 -1.8504
  190SAPI  C31221945   4.807   0.630   5.178  0.2024  0.6397 -0.0662
  190SAPI  H12X21946   4.803   0.737   5.150 -1.1903  0.8776  0.9808
  190SAPI  H12Y21947   4.753   0.609   5.272 -0.3876  0.6047 -0.4103
  190SAPI  C31321948   4.744   0.544   5.058 -0.2197  0.0414 -0.3346
  190SAPI  H13X21949   4.636   0.571   5.051  0.2475  2.4100  0.5356
  190SAPI  H13Y21950   4.743   0.436   5.084 -2.7140  0.2543  0.7544
  190SAPI  C31421951   4.805   0.565   4.916  0.4729  0.2136 -0.1643
  190SAPI  H14X21952   4.743   0.506   4.845 -1.2833  0.8447  0.7734
  190SAPI  H14Y21953   4.906   0.520   4.915  0.2702 -0.3299  1.2045
  190SAPI  C31521954   4.809   0.704   4.868  0.3646 -0.3757 -0.7852
  190SAPI  H15X21955   4.888   0.757   4.926  1.6166 -3.1869  0.2976
  190SAPI  H15Y21956   4.717   0.762   4.887  0.1090 -1.7422  2.9798
  190SAPI  C31621957   4.851   0.724   4.720 -0.2469 -0.0874 -0.7289
  190SAPI  H16X21958   4.862   0.831   4.692  1.7578 -0.0993 -0.1217
  190SAPI  H16Y21959   4.783   0.680   4.644  0.7429 -0.1528 -1.5993
  190SAPI  C31721960   4.997   0.668   4.696  0.2355  0.1343 -0.0585
  190SAPI  H17X21961   5.003   0.559   4.714 -0.2864 -0.2736 -2.1408
  190SAPI  H17Y21962   5.065   0.726   4.762  1.2946  0.6321 -1.5308
  190SAPI  C31821963   5.056   0.705   4.560 -0.4378 -0.5878 -0.1947
  190SAPI  H18X21964   4.988   0.666   4.481 -1.6294 -1.5814  1.2815
  190SAPI  H18Y21965   5.145   0.640   4.551 -1.1302 -1.5835 -0.0626
  190SAPI  H18Z21966   5.082   0.812   4.543 -0.5591 -0.5620 -0.2225
  191SAPI   C1221967   5.353   3.545   1.782  0.1133  0.5398  0.3786
  191SAPI    H221968   5.430   3.578   1.709  1.4993 -0.4882  1.3117
  191SAPI    O221969   5.237   3.560   1.703 -0.2284 -0.3402  0.9680
  191SAPI   HO221970   5.262   3.545   1.611  0.9522  0.6489  1.1008
  191SAPI   C1321971   5.377   3.409   1.828 -0.3148 -0.5808  0.1761
  191SAPI    H321972   5.469   3.414   1.889 -1.1605  0.5863  1.4147
  191SAPI    O321973   5.406   3.320   1.718 -0.2084  0.0597  0.4104
  191SAPI   HO321974   5.327   3.289   1.673 -0.6681 -0.2871  1.4241
  191SAPI   C1421975   5.269   3.359   1.918 -0.2933 -0.4226  0.3869
  191SAPI    H421976   5.182   3.328   1.856  0.8303 -3.0008 -0.0447
  191SAPI    O421977   5.303   3.237   1.982  0.1889 -0.0549 -0.0625
  191SAPI   HO421978   5.228   3.178   1.966  0.3468 -0.6831  1.3868
  191SAPI   C1521979   5.209   3.461   2.022  1.0296  0.1972 -0.3345
  191SAPI    H521980   5.253   3.424   2.117 -0.7491  0.2752  0.5434
  191SAPI    O521981   5.068   3.435   2.045 -0.0809 -0.0121 -0.4049
  191SAPI   HO521982   5.068   3.408   2.137  0.9358 -0.2846 -0.4707
  191SAPI   C1621983   5.237   3.609   2.008 -0.2799 -0.1766 -0.1170
  191SAPI    H621984   5.145   3.651   1.959 -0.9013  2.5285  3.0227
  191SAPI    O621985   5.267   3.680   2.125  0.5252 -0.0163  0.2710
  191SAPI   HO621986   5.329   3.750   2.105 -0.2731  1.1063  1.5880
  191SAPI   C1121987   5.348   3.643   1.900 -0.3096  0.7129 -0.0001
  191SAPI    H121988   5.443   3.620   1.953 -0.1139  0.5043 -0.4341
  191SAPI     P21989   5.451   3.867   1.788  0.4005  0.4751  0.1728
  191SAPI   O1321990   5.382   3.937   1.682  0.1316  0.0972 -0.2085
  191SAPI   O1421991   5.572   3.795   1.747 -0.6320  0.5879 -0.1379
  191SAPI   O1221992   5.342   3.778   1.874  0.1067 -0.1769 -0.2901
  191SAPI   O1121993   5.498   3.975   1.882  0.1589 -0.7715 -0.4339
  191SAPI    C121994   5.404   4.047   1.971 -1.1315  0.1259 -0.1478
  191SAPI    HA21995   5.404   4.149   1.928  2.6233  0.2017 -0.2943
  191SAPI    HB21996   5.305   3.998   1.985 -1.1652  0.5253  1.1485
  191SAPI    C221997   5.454   4.053   2.126 -0.0735  0.1816 -0.0385
  191SAPI    HS21998   5.553   4.102   2.118  0.5234 -0.5691  2.0701
  191SAPI   O2121999   5.457   3.922   2.183 -0.2476 -0.0328 -0.5068
  191SAPI   C2122000   5.542   3.912   2.279  0.2763 -0.3107 -0.0191
  191SAPI   O2222001   5.629   3.992   2.306 -1.3092 -0.1322  0.2306
  191SAPI   C2222002   5.530   3.773   2.345  0.4420 -0.0926 -0.0795
  191SAPI   H2R22003   5.479   3.800   2.440 -1.0208  1.9713 -1.3693
  191SAPI   H2S22004   5.460   3.706   2.291 -0.0797 -0.1404  0.6487
  191SAPI    C322005   5.360   4.144   2.212  0.2729 -0.3350 -0.3797
  191SAPI    HX22006   5.254   4.110   2.201  1.4258 -4.1454 -1.4048
  191SAPI    HY22007   5.373   4.244   2.166 -0.4631 -1.0990 -2.3756
  191SAPI   O3122008   5.392   4.144   2.353 -0.5105  0.5629 -0.0231
  191SAPI   C3122009   5.474   4.244   2.400 -0.2315  0.0607  0.8725
  191SAPI   O3222010   5.532   4.320   2.324  0.4198  0.0221  0.3234
  191SAPI   C3222011   5.480   4.245   2.553  0.1485 -0.1319  0.2051
  191SAPI   H2X22012   5.554   4.165   2.579 -0.8283 -0.5479  1.8369
  191SAPI   H2Y22013   5.379   4.220   2.590  0.1564  0.7380  0.8302
  191SAPI   C2322014   5.666   3.705   2.360 -0.7532  0.2224 -0.2227
  191SAPI   H3R22015   5.727   3.707   2.266  1.1910  0.0850  0.9774
  191SAPI   H3S22016   5.644   3.600   2.386  0.7508 -0.4998 -1.6870
  191SAPI   C2422017   5.754   3.765   2.471 -1.0857 -0.1459  0.2090
  191SAPI   H4R22018   5.705   3.766   2.571 -0.9053 -1.6234  0.3401
  191SAPI   H4S22019   5.785   3.866   2.437  0.5697 -1.1074 -1.3152
  191SAPI   C2522020   5.886   3.700   2.481 -0.2868  0.2106  0.1733
  191SAPI   H5R22021   5.967   3.749   2.426  0.0239  1.5119  1.7161
  191SAPI   C2622022   5.909   3.588   2.550 -0.3441  0.3808  0.0932
  191SAPI   H6R22023   6.014   3.561   2.567 -0.4749  0.6702  1.4245
  191SAPI   C2722024   5.809   3.500   2.624  0.0403 -0.2591 -0.7058
  191SAPI   H7R22025   5.717   3.556   2.653  1.1145 -0.2702  3.3747
  191SAPI   H7S22026   5.858   3.489   2.723 -0.3074 -2.5193 -0.7414
  191SAPI   C2822027   5.773   3.359   2.564  1.0879 -0.1733 -0.1212
  191SAPI   H8R22028   5.774   3.332   2.457  0.2106 -1.4391  0.1546
  191SAPI   C2922029   5.752   3.251   2.646 -0.2703 -0.1461  0.0783
  191SAPI   H9R22030   5.737   3.152   2.602 -0.6289 -1.3049  2.6547
  191SAPI  C21022031   5.755   3.249   2.796  0.5525 -0.2066 -0.3212
  191SAPI  H10R22032   5.646   3.237   2.818 -0.4740  2.5420 -3.1412
  191SAPI  H10S22033   5.785   3.346   2.841  1.1948 -0.8439  0.6458
  191SAPI  C21122034   5.845   3.155   2.859  0.8241 -0.0908 -0.0916
  191SAPI  H11R22035   5.950   3.177   2.838  1.2153 -3.0760 -1.7801
  191SAPI  C21222036   5.818   3.054   2.942  0.1667  0.2692  0.3143
  191SAPI  H12R22037   5.905   2.997   2.977  0.3709  0.6361  0.4105
  191SAPI  C21322038   5.684   3.018   2.979  0.2428  0.1411  0.1280
  191SAPI  H13R22039   5.623   3.006   2.887  0.6921  0.7912 -0.2652
  191SAPI  H13S22040   5.636   3.102   3.034 -0.5569 -0.2580  0.0597
  191SAPI  C21422041   5.691   2.893   3.062 -0.0112  0.4045 -0.5070
  191SAPI  H14R22042   5.648   2.812   3.001  1.5450 -1.1733  0.4338
  191SAPI  C21522043   5.718   2.872   3.191  0.0971 -0.0322  0.0348
  191SAPI  H15R22044   5.706   2.771   3.232 -1.2275 -0.7487 -1.9405
  191SAPI  C21622045   5.745   2.973   3.299  0.8836  0.2438  0.1997
  191SAPI  H16R22046   5.656   2.983   3.365  1.5157  2.2679  0.8099
  191SAPI  H16S22047   5.745   3.077   3.259 -2.5560  1.6651  3.3006
  191SAPI  C21722048   5.871   2.951   3.381  0.3064  0.5079 -0.0760
  191SAPI  H17R22049   5.963   2.931   3.321  0.0852  1.3566 -0.7169
  191SAPI  H17S22050   5.854   2.858   3.439 -0.1680  0.9206  0.4574
  191SAPI  C21822051   5.890   3.074   3.475 -0.1851 -0.3055 -0.2246
  191SAPI  H18R22052   5.800   3.089   3.540 -0.1135 -0.8746  0.0082
  191SAPI  H18S22053   5.895   3.171   3.422 -0.7488  0.4697  1.0731
  191SAPI  C21922054   6.018   3.060   3.560 -0.0836  0.4137  0.5170
  191SAPI  H19R22055   6.116   3.073   3.511  0.3099 -1.4384  0.7224
  191SAPI  H19S22056   6.021   2.955   3.598  0.7220 -0.7269 -2.4460
  191SAPI  C22022057   6.023   3.155   3.676 -0.1072  0.2583  0.4884
  191SAPI  H20R22058   5.943   3.121   3.746  1.2357 -2.4340  0.8390
  191SAPI  H20S22059   6.007   3.258   3.636 -1.4970 -0.6047 -1.2750
  191SAPI  H20T22060   6.128   3.144   3.711 -0.1421 -0.6560  0.3337
  191SAPI   C3322061   5.513   4.388   2.609  0.4405  0.1003 -0.0194
  191SAPI   H3X22062   5.447   4.469   2.574  1.7896  1.8766  1.3565
  191SAPI   H3Y22063   5.613   4.417   2.570  0.9551 -1.4157  0.0860
  191SAPI   C3422064   5.511   4.385   2.767  0.5007  0.1671 -0.4363
  191SAPI   H4X22065   5.408   4.376   2.806  0.4726  2.3023  0.1286
  191SAPI   H4Y22066   5.549   4.482   2.806 -0.4889  0.5843 -0.5018
  191SAPI   C3522067   5.597   4.283   2.838 -0.1402 -0.1412 -0.0745
  191SAPI   H5X22068   5.707   4.290   2.823  0.0718 -0.9676  0.9499
  191SAPI   H5Y22069   5.550   4.186   2.809 -1.8493  0.3436  0.9169
  191SAPI   C3622070   5.570   4.276   3.000 -0.8035  0.6752  0.5001
  191SAPI   H6X22071   5.642   4.198   3.034 -1.8343 -0.4673  0.1367
  191SAPI   H6Y22072   5.464   4.248   3.022 -1.4601  2.9336  0.4469
  191SAPI   C3722073   5.600   4.411   3.073  0.6750 -0.1213  0.1301
  191SAPI   H7X22074   5.525   4.487   3.043 -0.1783 -0.5613  1.0924
  191SAPI   H7Y22075   5.699   4.446   3.035  0.3664 -0.6625 -1.2256
  191SAPI   C3822076   5.596   4.397   3.224 -0.4922 -0.0912 -0.2316
  191SAPI   H8X22077   5.645   4.303   3.257  0.1426 -0.6818 -2.6554
  191SAPI   H8Y22078   5.493   4.386   3.264 -0.8831  1.1656 -0.8384
  191SAPI   C3922079   5.665   4.517   3.299  0.4006 -0.0177 -0.0660
  191SAPI   H9X22080   5.641   4.612   3.245 -0.4679  0.2967  0.8391
  191SAPI   H9Y22081   5.772   4.493   3.279  0.7780 -0.6641  2.4398
  191SAPI  C31022082   5.650   4.532   3.449  0.0304  0.1100 -0.1478
  191SAPI  H10X22083   5.715   4.460   3.503  0.8544  1.2780  0.4893
  191SAPI  H10Y22084   5.542   4.530   3.477 -0.4185  1.7545 -1.5957
  191SAPI  C31122085   5.710   4.667   3.514  0.2900 -1.0418  0.1524
  191SAPI  H11X22086   5.649   4.759   3.501  0.5817 -1.1198 -1.9755
  191SAPI  H11Y22087   5.803   4.678   3.454 -0.0396  1.1592 -0.0340
  191SAPI  C31222088   5.750   4.650   3.664 -0.3066  0.1098  0.0619
  191SAPI  H12X22089   5.800   4.732   3.721  1.5369 -2.5570  2.5945
  191SAPI  H12Y22090   5.820   4.564   3.666 -0.9570 -0.4161  0.7832
  191SAPI  C31322091   5.631   4.602   3.740  0.1107  0.0979 -0.4242
  191SAPI  H13X22092   5.664   4.576   3.843  1.4997  2.6753 -0.1213
  191SAPI  H13Y22093   5.605   4.510   3.684  1.4559  0.8648 -2.4435
  191SAPI  C31422094   5.500   4.695   3.738 -0.6206  0.2741 -0.2017
  191SAPI  H14X22095   5.421   4.655   3.805 -0.7235  0.9019  0.0628
  191SAPI  H14Y22096   5.463   4.698   3.634  0.7459  1.7466 -0.6806
  191SAPI  C31522097   5.534   4.842   3.769 -0.6863 -0.3747 -0.3290
  191SAPI  H15X22098   5.460   4.915   3.727  1.5341  1.9216 -0.4782
  191SAPI  H15Y22099   5.627   4.867   3.714 -0.6761  0.9715  0.2592
  191SAPI  C31622100   5.558   4.872   3.921 -0.1700 -0.2925 -0.5001
  191SAPI  H16X22101   5.577   4.980   3.940  1.1419 -0.9591  2.6267
  191SAPI  H16Y22102   5.655   4.830   3.955 -0.4354  0.1685  0.9217
  191SAPI  C31722103   5.440   4.845   4.010 -0.3395  0.4452  0.3225
  191SAPI  H17X22104   5.406   4.742   3.986  2.7943 -0.5128 -0.4541
  191SAPI  H17Y22105   5.352   4.912   3.999 -0.1638  0.9980  1.9705
  191SAPI  C31822106   5.471   4.852   4.162 -0.2998 -0.4926  0.3472
  191SAPI  H18X22107   5.378   4.834   4.220 -0.3179  0.9130  0.7936
  191SAPI  H18Y22108   5.492   4.958   4.187 -3.0579 -0.2624  2.0821
  191SAPI  H18Z22109   5.558   4.788   4.187  0.8734  0.2345 -1.5919
  192SAPI   C1222110   1.186   1.755   2.154  0.1944 -0.1254 -0.1504
  192SAPI    H222111   1.282   1.797   2.191  0.3075 -0.2971 -0.2498
  192SAPI    O222112   1.177   1.784   2.015  0.5697  0.0031  0.8893
  192SAPI   HO222113   1.248   1.844   1.990  1.6921 -0.8649  1.8643
  192SAPI   C1322114   1.211   1.606   2.173  0.2440  0.0069  0.3041
  192SAPI    H322115   1.252   1.585   2.274 -0.1273  1.1888  0.7110
  192SAPI    O322116   1.312   1.560   2.081  0.0194  0.2230 -0.2909
  192SAPI   HO322117   1.382   1.540   2.143  0.4922  1.9189 -0.2304
  192SAPI   C1422118   1.076   1.523   2.165  0.3854  0.1617  0.3328
  192SAPI    H422119   1.061   1.517   2.055 -0.3141 -0.2501  0.4396
  192SAPI    O422120   1.098   1.393   2.221 -0.8987  0.2626  0.5755
  192SAPI   HO422121   1.138   1.333   2.158 -1.4735  1.7882 -1.3476
  192SAPI   C1522122   0.943   1.589   2.207 -0.2422  1.1887  0.4872
  192SAPI    H522123   0.935   1.568   2.316  3.0300  0.6755  0.7298
  192SAPI    O522124   0.835   1.536   2.128  0.0327  0.5409  0.0052
  192SAPI   HO522125   0.775   1.482   2.180 -1.3188  2.0314  0.0678
  192SAPI   C1622126   0.943   1.738   2.200 -0.4183 -0.3966 -0.1539
  192SAPI    H622127   0.929   1.765   2.093  0.6645  1.8027  0.2113
  192SAPI    O622128   0.837   1.799   2.273  0.1550  0.0524  0.1256
  192SAPI   HO622129   0.851   1.891   2.294 -1.9858  0.6087 -0.6551
  192SAPI   C1122130   1.074   1.811   2.235 -0.3861  0.6297  0.3647
  192SAPI    H122131   1.094   1.781   2.340  0.1172 -0.3966 -0.0102
  192SAPI     P22132   1.165   2.050   2.304  0.1406  0.3367  0.4911
  192SAPI   O1322133   1.122   2.187   2.282  0.0746  0.3094  0.0418
  192SAPI   O1422134   1.301   2.025   2.261 -0.5498  0.4520  0.4060
  192SAPI   O1222135   1.060   1.953   2.228 -0.0638  0.5374  0.9995
  192SAPI   O1122136   1.151   2.004   2.452  0.6924 -0.0544 -0.3466
  192SAPI    C122137   1.046   2.063   2.532  0.0022  0.2556  0.2395
  192SAPI    HA22138   1.068   2.172   2.535  0.3909  0.1659  0.7636
  192SAPI    HB22139   0.950   2.032   2.487 -0.5314 -0.1684  1.6020
  192SAPI    C222140   1.038   1.998   2.672  0.1799  0.2325 -0.6716
  192SAPI    HS22141   0.971   2.054   2.741 -1.2101  0.1059 -1.8606
  192SAPI   O2122142   1.168   1.988   2.727  0.2107 -0.1201  0.0995
  192SAPI   C2122143   1.207   2.087   2.799 -0.8146  0.2645 -0.2258
  192SAPI   O2222144   1.149   2.188   2.825 -0.0063  0.3222  0.9649
  192SAPI   C2222145   1.337   2.035   2.866  1.2096  0.1239 -0.2994
  192SAPI   H2R22146   1.391   1.970   2.794  3.3026 -0.4366  1.6968
  192SAPI   H2S22147   1.399   2.126   2.878 -1.9363  2.1163  2.9612
  192SAPI    C322148   0.966   1.857   2.668  0.5813 -0.1124  0.1148
  192SAPI    HX22149   1.019   1.789   2.598  0.3345 -0.2750  0.0868
  192SAPI    HY22150   0.867   1.866   2.620  1.4809 -0.6656 -1.9380
  192SAPI   O3122151   0.962   1.784   2.792  0.2797 -1.0627 -0.5786
  192SAPI   C3122152   0.846   1.816   2.859 -0.0122 -0.0003 -0.0612
  192SAPI   O3222153   0.767   1.899   2.828  0.3700 -0.2367  0.0068
  192SAPI   C3222154   0.828   1.713   2.971  0.1256  0.6415 -0.5187
  192SAPI   H2X22155   0.829   1.613   2.923 -0.2359  0.0651  0.6546
  192SAPI   H2Y22156   0.731   1.726   3.022  0.2462 -0.7641  0.1270
  192SAPI   C2322157   1.314   1.961   3.005  0.4224  0.7666 -0.3195
  192SAPI   H3R22158   1.410   1.908   3.022  1.3020  2.3356 -0.2674
  192SAPI   H3S22159   1.246   1.874   2.991 -0.8649  1.6272  0.3022
  192SAPI   C2422160   1.268   2.063   3.104  0.4684  0.4587 -0.1694
  192SAPI   H4R22161   1.234   2.002   3.191  1.5550  1.9079  1.3380
  192SAPI   H4S22162   1.181   2.124   3.072 -0.7934 -0.9974  0.3263
  192SAPI   C2522163   1.379   2.154   3.140  0.3184  0.1049 -0.4587
  192SAPI   H5R22164   1.421   2.203   3.051  1.4801  1.2889  0.6850
  192SAPI   C2622165   1.418   2.200   3.268 -0.7837  0.6585  0.6224
  192SAPI   H6R22166   1.495   2.278   3.284 -0.8273  0.6795  0.7288
  192SAPI   C2722167   1.360   2.156   3.401  0.3383  0.6620 -0.2519
  192SAPI   H7R22168   1.452   2.127   3.456  0.9725  1.4884 -0.8478
  192SAPI   H7S22169   1.303   2.062   3.388  1.1614  0.1122  0.0078
  192SAPI   C2822170   1.290   2.259   3.477 -0.1069 -0.3724  0.5265
  192SAPI   H8R22171   1.252   2.347   3.423  0.2728 -0.3611  0.2720
  192SAPI   C2922172   1.260   2.240   3.606  0.5976 -0.4122  0.1041
  192SAPI   H9R22173   1.200   2.319   3.654  0.3641  0.5679 -1.7289
  192SAPI  C21022174   1.300   2.126   3.689 -0.1387 -0.0483 -0.8596
  192SAPI  H10R22175   1.372   2.061   3.635  1.7073  0.7518  0.5435
  192SAPI  H10S22176   1.209   2.073   3.727 -0.2407  1.2777  0.8485
  192SAPI  C21122177   1.361   2.165   3.820  0.0854 -0.1295  0.1232
  192SAPI  H11R22178   1.351   2.268   3.858  0.5237 -0.0479  0.0163
  192SAPI  C21222179   1.425   2.079   3.907  0.2569  0.0434  0.1842
  192SAPI  H12R22180   1.469   2.123   3.998 -0.8404  1.4160  0.0877
  192SAPI  C21322181   1.460   1.935   3.878 -0.0741  0.4257  0.7839
  192SAPI  H13R22182   1.543   1.902   3.943  1.0988  1.7989  0.0314
  192SAPI  H13S22183   1.499   1.920   3.775  0.4499  1.4418  0.8221
  192SAPI  C21422184   1.343   1.846   3.904 -0.5185 -0.3614  0.2877
  192SAPI  H14R22185   1.271   1.870   3.984 -5.3374 -0.0451 -3.6580
  192SAPI  C21522186   1.315   1.731   3.839 -0.2681 -0.6832  0.4518
  192SAPI  H15R22187   1.222   1.687   3.877 -0.0864 -0.9266  0.6265
  192SAPI  C21622188   1.401   1.652   3.733 -0.5981  0.5267  0.4708
  192SAPI  H16R22189   1.397   1.542   3.751 -1.8676  0.4078 -0.3946
  192SAPI  H16S22190   1.507   1.682   3.749 -0.7139  0.7447  0.8462
  192SAPI  C21722191   1.349   1.673   3.594  0.1705  0.1380  0.5174
  192SAPI  H17R22192   1.352   1.780   3.565  1.3490  0.6393  2.3755
  192SAPI  H17S22193   1.250   1.624   3.580  0.1535  0.5400 -0.9552
  192SAPI  C21822194   1.438   1.600   3.495  0.3335 -0.5256 -0.1926
  192SAPI  H18R22195   1.421   1.494   3.524 -0.5803 -1.2914 -3.1643
  192SAPI  H18S22196   1.545   1.630   3.501 -0.0339  0.6866  0.7705
  192SAPI  C21922197   1.400   1.614   3.344  0.1165  0.0598 -0.2781
  192SAPI  H19R22198   1.427   1.718   3.317  3.0191 -0.3924  0.6084
  192SAPI  H19S22199   1.290   1.598   3.333  0.2476 -0.6052 -0.7215
  192SAPI  C22022200   1.466   1.528   3.243  0.0107  0.0846 -0.6067
  192SAPI  H20R22201   1.425   1.563   3.146 -1.4756  3.9495  1.1985
  192SAPI  H20S22202   1.452   1.419   3.259 -0.1841  0.4795  2.4212
  192SAPI  H20T22203   1.574   1.547   3.224  0.4176 -0.3763  1.0800
  192SAPI   C3322204   0.932   1.709   3.080  0.0270 -0.2419 -0.4056
  192SAPI   H3X22205   1.025   1.686   3.024  0.1984  1.4481 -0.8518
  192SAPI   H3Y22206   0.923   1.623   3.151  1.1950  0.8235  1.1119
  192SAPI   C3422207   0.929   1.837   3.160  0.5052  0.5602 -0.0690
  192SAPI   H4X22208   0.837   1.895   3.142 -0.7183 -0.9346  0.9961
  192SAPI   H4Y22209   1.002   1.909   3.119 -0.0433  1.4381  0.4626
  192SAPI   C3522210   0.973   1.828   3.314  0.1297 -0.2362  0.7402
  192SAPI   H5X22211   1.071   1.776   3.313  1.6208  2.2788 -2.0284
  192SAPI   H5Y22212   0.896   1.767   3.366  0.0040 -0.1512  0.6546
  192SAPI   C3622213   0.997   1.961   3.380 -0.0681  0.0927  0.4744
  192SAPI   H6X22214   0.902   2.017   3.387 -0.0360  0.4017 -1.3092
  192SAPI   H6Y22215   1.073   2.022   3.327 -0.8349  0.1760 -0.5433
  192SAPI   C3722216   1.040   1.934   3.524 -0.3250  0.8103  0.0319
  192SAPI   H7X22217   1.061   2.032   3.571 -0.6729  0.9534 -0.1065
  192SAPI   H7Y22218   1.134   1.879   3.544 -1.1715  0.2961  2.9382
  192SAPI   C3822219   0.926   1.883   3.623 -0.9228 -0.1527  0.3527
  192SAPI   H8X22220   0.913   1.774   3.611  1.9832 -0.3842 -1.5887
  192SAPI   H8Y22221   0.830   1.937   3.607 -0.8693 -0.3512 -0.7044
  192SAPI   C3922222   0.954   1.920   3.765  0.1617  0.1965 -0.0494
  192SAPI   H9X22223   1.061   1.905   3.793  0.1938  2.6334  1.4731
  192SAPI   H9Y22224   0.897   1.854   3.833  1.3825 -1.1624 -0.2954
  192SAPI  C31022225   0.926   2.062   3.814  0.5110  0.1450  0.3855
  192SAPI  H10X22226   0.818   2.090   3.815  0.6540  0.8635 -1.2757
  192SAPI  H10Y22227   0.965   2.142   3.748 -3.4099  2.4948  0.5250
  192SAPI  C31122228   0.982   2.084   3.957  0.7996  0.7995 -0.3450
  192SAPI  H11X22229   0.987   2.194   3.971  0.0082  1.0384 -1.7166
  192SAPI  H11Y22230   1.086   2.043   3.960  0.0294 -1.4053 -1.3635
  192SAPI  C31222231   0.904   2.012   4.078  0.3671 -0.4633 -0.0477
  192SAPI  H12X22232   0.983   1.985   4.151  1.1414 -1.5947 -1.2812
  192SAPI  H12Y22233   0.867   1.916   4.036  1.8090 -0.9670 -0.2061
  192SAPI  C31322234   0.791   2.101   4.140 -0.0872  0.1185  0.2524
  192SAPI  H13X22235   0.717   2.137   4.065 -1.4450 -1.5888  0.7037
  192SAPI  H13Y22236   0.832   2.198   4.175 -0.0693  0.6169 -1.0786
  192SAPI  C31422237   0.724   2.019   4.253  0.1526  0.3178 -0.1149
  192SAPI  H14X22238   0.799   1.960   4.311  1.8150  1.7699 -0.6807
  192SAPI  H14Y22239   0.651   1.948   4.210  0.2748 -0.4971  0.9609
  192SAPI  C31522240   0.661   2.113   4.363 -0.4719  0.2111 -0.2818
  192SAPI  H15X22241   0.579   2.161   4.306 -0.6471 -0.1990 -0.3848
  192SAPI  H15Y22242   0.728   2.192   4.402 -0.7434  0.6899 -0.7629
  192SAPI  C31622243   0.604   2.035   4.482 -0.0677  0.4372 -0.4311
  192SAPI  H16X22244   0.681   1.998   4.552 -0.4669  2.5139  1.2069
  192SAPI  H16Y22245   0.550   1.944   4.448 -0.1316 -0.0831  1.0093
  192SAPI  C31722246   0.515   2.129   4.558  0.0020 -0.3925 -1.3892
  192SAPI  H17X22247   0.431   2.154   4.489 -2.5857 -1.2235  1.2123
  192SAPI  H17Y22248   0.570   2.223   4.579 -0.0393 -0.4415 -1.0642
  192SAPI  C31822249   0.463   2.083   4.699 -0.0950 -0.2614 -0.0736
  192SAPI  H18X22250   0.409   1.986   4.687 -0.6313  0.2300 -1.9476
  192SAPI  H18Y22251   0.392   2.163   4.728 -1.9066 -1.3143 -1.3162
  192SAPI  H18Z22252   0.541   2.062   4.775 -0.0293 -0.2163 -0.1285
  193SOD    SOD22253   1.456   4.577   6.934 -0.0347 -0.2323  0.1353
  194SOD    SOD22254   3.985   2.726   7.359 -0.0762  0.1421  0.1939
  195SOD    SOD22255   4.888   1.421   8.043 -0.2030 -0.4006 -0.5134
  196SOD    SOD22256   3.360   0.649   6.778 -0.8673  0.4421  0.1368
  197SOD    SOD22257   4.464   6.570   6.818 -0.0189  0.0894  0.6016
  198SOD    SOD22258   1.322   2.857   7.453  0.0396  0.2512  0.5904
  199SOD    SOD22259   4.927   0.437   1.794 -0.3389  0.3868 -0.6255
  200SOD    SOD22260   2.926   0.801   1.746  0.4896 -0.0205  0.4313
  201SOD    SOD22261   0.787   3.316   8.525 -0.2623  0.9121 -0.5320
  202SOD    SOD22262   6.156   1.416   6.914  0.1498  0.3767 -0.1494
  203SOD    SOD22263   5.307   5.733   0.800 -0.1222  0.6270  0.5825
  204SOD    SOD22264   6.619   3.025   6.891  0.1665  0.1277  0.2606
  205SOD    SOD22265   0.556   1.614   1.824  0.0165  0.0086  0.0678
  206SOD    SOD22266   0.748   6.097   1.771  0.3105  0.0776 -0.6273
  207SOD    SOD22267   5.514   0.072   8.006 -0.1940  0.0406  0.3313
  208SOD    SOD22268   4.545   1.215   7.742  0.1243 -0.3841 -0.2962
  209SOD    SOD22269   3.939   5.162   1.038 -0.8308  0.7192  0.3714
  210SOD    SOD22270   3.889   1.320   1.991 -0.1319  0.0519  0.2688
  211SOD    SOD22271   3.915   5.850   7.906  0.4288 -0.2703  0.0121
  212SOD    SOD22272   1.457   1.005   1.660  0.0401  0.3085 -0.0979
  213SOD    SOD22273   1.225   5.458   7.395 -0.0058 -0.3441 -0.0256
  214SOD    SOD22274   5.930   2.773   1.983 -0.5313  0.4049 -0.0344
  215SOD    SOD22275   0.144   2.788   0.199 -0.2919 -0.5307  0.2494
  216SOD    SOD22276   4.424   3.967   2.237  0.0482 -0.0664  0.2492
  217SOD    SOD22277   4.978   2.072   6.538 -0.3382  0.5288  0.4417
  218SOD    SOD22278   3.770   3.251   8.422  0.0643 -0.0048  0.4721
  219SOD    SOD22279   1.655   0.545   0.693  0.5052 -0.8502 -0.2466
  220SOD    SOD22280   5.901   4.259   1.551 -0.3089 -0.5538 -0.3111
  221SOD    SOD22281   2.789   3.087   8.806 -0.0969 -0.5443 -0.1789
  222SOD    SOD22282   3.149   5.121   0.953  0.0318  0.4004  0.3980
  223SOD    SOD22283   0.343   2.025   2.531  0.2923 -0.6378  0.1237
  224SOD    SOD22284   2.151   1.261   8.196  0.3046 -0.1023 -0.3781
  225SOD    SOD22285   0.842   6.645   0.470 -0.2888  0.5918  0.5637
  226SOD    SOD22286   2.865   1.394   7.697 -0.2753  0.2716  0.1551
  227SOD    SOD22287   6.432   6.147   6.534  0.3554  0.1781  0.2934
  228SOD    SOD22288   3.633   4.055   7.382 -0.1839 -0.3348 -0.0962
  229SOD    SOD22289   2.450   2.530   2.192  0.0796  0.3410 -0.4582
  230SOD    SOD22290   5.588   4.524   2.244  0.0497  0.2580 -0.1758
  231SOD    SOD22291   2.375   2.159   0.294 -0.0725  0.4521  0.1187
  232SOD    SOD22292   5.340   3.142   7.618  0.1706  0.1735  0.4220
  233SOD    SOD22293   6.549   3.739   7.680 -0.3711  0.0804 -0.1099
  234CLA    CLA22294   6.431   2.141   0.127 -0.0309  0.0396  0.1043
  235CLA    CLA22295   3.689   5.268   1.446  0.6631 -0.0186 -0.2363
  236CLA    CLA22296   3.028   2.383   8.304 -0.0569 -0.0363  0.2835
  237CLA    CLA22297   0.340   0.538   0.956  0.1458 -0.0003  0.0944
  238CLA    CLA22298   0.523   5.567   0.835 -0.2184  0.2461 -0.1527
  239CLA    CLA22299   1.113   4.422   7.739  0.2886 -0.2313 -0.1648
  240CLA    CLA22300   5.032   1.038   7.566  0.2599  0.1732 -0.7939
  241CLA    CLA22301   2.595   1.866   0.070 -0.2475 -0.0780 -0.0482
  242CLA    CLA22302   6.600   6.383   8.277  0.0822  0.3554  0.1796
  243CLA    CLA22303   6.499   2.306   7.750  0.3013  0.0896  0.0588
  244CLA    CLA22304   2.045   3.110   0.013 -0.0876 -0.1732  0.0684
  245CLA    CLA22305   4.269   5.113   0.730 -0.0826  0.2266  0.1022
  246CLA    CLA22306   4.774   4.034   8.697  0.1854  0.0036 -0.0461
  247CLA    CLA22307   3.599   0.545   1.142 -0.1044  0.0124  0.1052
  248CLA    CLA22308   1.150   5.683   0.035 -0.0821 -0.2586  0.1296
  249CLA    CLA22309   5.750   5.461   7.768  0.1275  0.0783  0.5120
  250CLA    CLA22310   3.349   3.137   8.776 -0.1414  0.1821  0.0886
  251TIP3   OH222311   3.939   0.501   0.600  0.1615 -0.0121 -0.1631
  251TIP3    H122312   3.880   0.567   0.636 -0.7144  0.2450 -1.9986
  251TIP3    H222313   4.027   0.537   0.615 -0.1480  0.1150  1.5702
  252TIP3   OH222314   4.128   3.037   1.910  0.1097  0.0012  0.4919
  252TIP3    H122315   4.075   2.984   1.969  0.6569  1.5047  2.4381
  252TIP3    H222316   4.190   3.082   1.967 -0.4906  2.9233 -0.9611
  253TIP3   OH222317   0.542   2.450   7.212  0.6466  0.0641  0.1785
  253TIP3    H122318   0.587   2.370   7.184  1.1203 -0.0457  1.2111
  253TIP3    H222319   0.463   2.419   7.255  0.2032  0.2092 -0.5218
  254TIP3   OH222320   5.307   5.810   7.539  0.3657 -0.1213 -0.6549
  254TIP3    H122321   5.346   5.861   7.610  0.3823 -1.0386  0.0067
  254TIP3    H222322   5.333   5.857   7.459 -0.5834  1.5603 -0.0300
  255TIP3   OH222323   4.581   0.548   8.793 -0.4234 -0.3341  0.2493
  255TIP3    H122324   4.547   0.554   8.883 -0.6180  0.7112  0.1138
  255TIP3    H222325   4.503   0.538   8.739 -0.4246  0.5619  0.0708
  256TIP3   OH222326   2.253   4.011   1.949 -0.6411  0.2691 -0.4413
  256TIP3    H122327   2.231   4.053   1.865 -0.2222  0.8492 -0.2713
  256TIP3    H222328   2.349   4.015   1.953 -0.7072  1.7624  0.8063
  257TIP3   OH222329   5.198   2.293   7.361  0.3823  0.1139  0.1450
  257TIP3    H122330   5.181   2.299   7.267  0.7333  1.2688  0.1437
  257TIP3    H222331   5.112   2.276   7.400  0.1519  0.1702 -0.3302
  258TIP3   OH222332   4.860   0.378   6.493  0.4494  0.1279 -0.1179
  258TIP3    H122333   4.788   0.384   6.430 -1.0857  2.4402  1.7075
  258TIP3    H222334   4.928   0.435   6.457  0.3552 -0.0623 -0.6029
  259TIP3   OH222335   2.625   3.605   0.964  0.5050 -0.0700  0.3336
  259TIP3    H122336   2.697   3.554   1.001  0.5383 -0.7919 -0.6815
  259TIP3    H222337   2.569   3.626   1.039  2.5909  1.9689  1.4697
  260TIP3   OH222338   6.113   3.002   7.029 -0.4774  0.6051  0.5777
  260TIP3    H122339   6.181   3.012   7.095 -0.7591 -0.2157  1.0037
  260TIP3    H222340   6.141   3.059   6.957  1.6045 -1.0753 -0.0234
  261TIP3   OH222341   2.021   3.582   2.213  0.4253 -0.0287  0.4311
  261TIP3    H122342   2.054   3.507   2.264  0.9675 -0.1908 -0.1436
  261TIP3    H222343   2.008   3.651   2.278  1.4329 -0.1193  0.7509
  262TIP3   OH222344   0.213   2.434   8.447  0.0605 -0.1189 -0.2867
  262TIP3    H122345   0.155   2.358   8.440  0.7250 -0.5702 -1.0833
  262TIP3    H222346   0.155   2.510   8.438 -0.7164 -0.4988  1.2758
  263TIP3   OH222347   0.211   1.666   7.031 -0.1951 -0.0273  0.1456
  263TIP3    H122348   0.170   1.644   6.947  1.0256 -0.6530 -0.3182
  263TIP3    H222349   0.290   1.714   7.006 -0.3218  0.6449  0.9930
  264TIP3   OH222350   3.287   3.565   6.472  0.3931 -0.7235 -0.0738
  264TIP3    H122351   3.287   3.646   6.421  0.7818 -1.4400 -1.2328
  264TIP3    H222352   3.195   3.540   6.477  0.4158 -1.0566 -1.0991
  265TIP3   OH222353   2.014   5.678   0.293 -0.0486  0.0223  0.2083
  265TIP3    H122354   2.005   5.644   0.382  2.5244 -0.8042  0.2126
  265TIP3    H222355   2.055   5.607   0.244  0.5637  1.2383 -1.1165
  266TIP3   OH222356   2.733   0.912   1.744  0.2597  0.4757 -0.4079
  266TIP3    H122357   2.708   1.005   1.748 -0.8442  0.1750  0.0824
  266TIP3    H222358   2.669   0.868   1.800  0.4820 -0.6507 -1.0158
  267TIP3   OH222359   1.704   2.857   7.120 -0.6674  0.1547 -0.2949
  267TIP3    H122360   1.697   2.915   7.044 -0.6072  0.5129 -0.0290
  267TIP3    H222361   1.670   2.773   7.089  1.5703 -0.4085 -1.4606
  268TIP3   OH222362   0.295   4.243   6.538  0.3766 -0.4688  0.1407
  268TIP3    H122363   0.352   4.223   6.464  1.4659 -1.4953  1.2276
  268TIP3    H222364   0.262   4.158   6.567  1.3256 -0.2994  1.8778
  269TIP3   OH222365   4.851   6.371   0.420  0.0892  0.3611 -0.0128
  269TIP3    H122366   4.785   6.332   0.362  0.4961  0.9989 -0.9188
  269TIP3    H222367   4.899   6.295   0.454 -0.4878 -0.0531 -0.1000
  270TIP3   OH222368   1.244   1.389   8.750  0.4187 -0.7886  0.7078
  270TIP3    H122369   1.205   1.356   8.668  0.9813 -0.9648  0.5039
  270TIP3    H222370   1.225   1.482   8.750 -0.8900 -1.0424  1.1131
  271TIP3   OH222371   1.670   0.278   8.038 -0.2652 -0.0787 -0.5732
  271TIP3    H122372   1.597   0.327   8.000  0.0734 -0.0933 -1.2552
  271TIP3    H222373   1.694   0.214   7.971  0.4447 -0.0041 -0.4016
  272TIP3   OH222374   3.011   2.084   0.057  0.1342  0.3207  0.0392
  272TIP3    H122375   3.071   2.075   0.131 -1.7066 -0.8479  1.4838
  272TIP3    H222376   2.940   2.140   0.090  1.1077  3.0613 -2.1518
  273TIP3   OH222377   3.801   2.794   1.003  0.0282  0.0420  0.2524
  273TIP3    H122378   3.880   2.740   1.004 -0.4684 -0.6888 -0.1077
  273TIP3    H222379   3.764   2.784   1.091 -0.8843 -1.4280 -0.2772
  274TIP3   OH222380   0.152   2.713   0.410  0.5472  0.2029 -0.2512
  274TIP3    H122381   0.175   2.620   0.412  0.5630  0.1920 -0.8069
  274TIP3    H222382   0.154   2.740   0.502  2.8458  0.2316 -0.2472
  275TIP3   OH222383   1.208   5.373   0.992  0.0402 -0.4831  0.0441
  275TIP3    H122384   1.134   5.410   0.944  0.7003 -0.6553 -1.1409
  275TIP3    H222385   1.284   5.423   0.962  0.4009 -0.1243  1.4412
  276TIP3   OH222386   3.233   6.107   7.793  0.0763 -0.1599 -0.4554
  276TIP3    H122387   3.286   6.140   7.722  1.4515  0.5417  0.8440
  276TIP3    H222388   3.159   6.168   7.799 -0.5100 -0.7022 -1.7694
  277TIP3   OH222389   5.080   0.193   1.324 -0.2776  0.2971 -0.0413
  277TIP3    H122390   5.145   0.129   1.352  1.3075  0.7836 -2.3385
  277TIP3    H222391   5.130   0.259   1.275 -2.1820  2.0224  0.1862
  278TIP3   OH222392   3.369   4.712   7.332 -0.1198 -0.5267  0.0831
  278TIP3    H122393   3.305   4.652   7.292 -3.2882  1.3878  1.8927
  278TIP3    H222394   3.362   4.792   7.280  0.4205 -0.1143  0.6335
  279TIP3   OH222395   0.891   3.352   8.748 -0.3490 -0.0044  0.0226
  279TIP3    H122396   0.974   3.366   8.701 -1.3732 -1.5815 -2.5130
  279TIP3    H222397   0.916   3.343   8.840  2.0739  1.2485 -0.4373
  280TIP3   OH222398   0.269   2.400   0.267 -0.1439 -0.4892 -0.5349
  280TIP3    H122399   0.266   2.398   0.363  1.2735 -1.6725 -0.4847
  280TIP3    H222400   0.360   2.380   0.245 -0.0061  1.5435 -2.1158
  281TIP3   OH222401   6.392   2.019   1.129 -0.0913  0.4202  0.8445
  281TIP3    H122402   6.450   2.093   1.111 -0.2586  0.3972  0.1740
  281TIP3    H222403   6.341   2.046   1.205  0.7903  0.4421  1.4423
  282TIP3   OH222404   3.089   4.698   6.603  0.6140  0.2025 -0.5409
  282TIP3    H122405   3.175   4.665   6.578  0.4460 -0.5140 -0.2207
  282TIP3    H222406   3.049   4.624   6.650  0.3301  0.9550  0.4397
  283TIP3   OH222407   2.875   5.132   7.633  0.2817 -0.3152 -0.2624
  283TIP3    H122408   2.860   5.086   7.550 -1.1023  0.1003 -0.2763
  283TIP3    H222409   2.887   5.063   7.697 -0.3089 -0.6798 -0.5376
  284TIP3   OH222410   2.991   1.010   1.369 -0.4376  0.3822  0.0095
  284TIP3    H122411   3.008   0.949   1.297 -0.5155  0.6362 -0.2260
  284TIP3    H222412   3.042   1.087   1.347  0.5852 -0.0230  0.8966
  285TIP3   OH222413   5.194   5.523   7.544  0.3866 -0.3900 -0.3455
  285TIP3    H122414   5.230   5.593   7.598  2.7146 -1.8199  0.0392
  285TIP3    H222415   5.223   5.544   7.455 -0.4901  0.0901 -0.5309
  286TIP3   OH222416   0.527   0.549   1.226 -0.2858 -0.1160  0.5930
  286TIP3    H122417   0.582   0.472   1.209  2.1300  1.2688  1.6126
  286TIP3    H222418   0.457   0.543   1.162  0.6844 -2.3507 -0.3650
  287TIP3   OH222419   6.512   3.138   1.186  0.2625 -0.2303  0.5323
  287TIP3    H122420   6.493   3.083   1.111  0.0337 -0.6846  0.9144
  287TIP3    H222421   6.541   3.077   1.254 -2.4550 -0.2701  1.8248
  288TIP3   OH222422   6.258   6.233   2.159  0.0369 -0.5986 -0.1709
  288TIP3    H122423   6.299   6.267   2.239 -1.1562 -0.5543  0.4391
  288TIP3    H222424   6.175   6.196   2.188  0.5331 -2.5822 -1.0631
  289TIP3   OH222425   6.382   6.281   2.419 -0.0373  0.5692  0.4870
  289TIP3    H122426   6.397   6.198   2.464  0.6535 -0.3365 -1.3374
  289TIP3    H222427   6.466   6.327   2.426 -0.0441  0.5895  0.4327
  290TIP3   OH222428   5.446   4.802   1.703 -1.0031 -0.4478 -0.0006
  290TIP3    H122429   5.461   4.793   1.608 -0.6192 -1.2569  0.1319
  290TIP3    H222430   5.534   4.799   1.741 -1.1994 -0.7774  0.4335
  291TIP3   OH222431   5.532   6.324   8.834  0.1322 -0.3150 -0.1722
  291TIP3    H122432   5.437   6.322   8.830  0.1190 -0.2959  0.1137
  291TIP3    H222433   5.560   6.240   8.798  0.0356  0.0084 -1.0317
  292TIP3   OH222434   1.885   0.548   6.945  0.3517  0.4399  0.7347
  292TIP3    H122435   1.800   0.554   6.988  0.6451  0.6974  1.2985
  292TIP3    H222436   1.912   0.457   6.959  1.5176  1.0663  3.2671
  293TIP3   OH222437   5.031   4.314   0.017 -0.0316 -0.2758 -0.1460
  293TIP3    H122438   4.952   4.363   0.038  0.0805 -0.6361  1.2366
  293TIP3    H222439   5.072   4.362  -0.055 -0.6118  0.8891  0.2835
  294TIP3   OH222440   5.525   4.501   1.831 -0.2563  0.3164 -0.3961
  294TIP3    H122441   5.548   4.558   1.758  2.5584 -1.5708 -1.1337
  294TIP3    H222442   5.550   4.551   1.909  0.8981  0.6443 -0.9585
  295TIP3   OH222443   6.380   4.620   8.652 -0.3598 -0.4628 -0.5144
  295TIP3    H122444   6.402   4.551   8.715  1.9287 -1.4371 -2.2264
  295TIP3    H222445   6.308   4.584   8.601 -1.3109 -0.2192  0.6017
  296TIP3   OH222446   0.534   5.591   7.705  0.0873 -0.2587 -0.5335
  296TIP3    H122447   0.522   5.514   7.649 -0.5637  0.7207 -1.7899
  296TIP3    H222448   0.506   5.562   7.792 -0.6050 -1.3125 -1.0904
  297TIP3   OH222449   2.848   6.182   1.863  0.5027  0.7024 -0.1393
  297TIP3    H122450   2.804   6.098   1.874  0.3099  0.6005 -1.5209
  297TIP3    H222451   2.849   6.220   1.951 -0.2364 -0.3228  0.3377
  298TIP3   OH222452   1.508   1.468   1.504  0.2099  0.1642 -0.1226
  298TIP3    H122453   1.418   1.449   1.481  0.3808  0.3689 -0.9690
  298TIP3    H222454   1.529   1.548   1.457  0.4914  0.7338  0.9390
  299TIP3   OH222455   3.937   6.109   7.941 -0.3082 -0.4238 -0.0454
  299TIP3    H122456   3.980   6.148   8.017  0.1548 -1.4806  0.2584
  299TIP3    H222457   3.857   6.160   7.930 -0.3113 -0.1605  1.0745
  300TIP3   OH222458   6.341   6.235   7.179  0.1069 -0.0146  0.4802
  300TIP3    H122459   6.336   6.273   7.267 -2.2629  0.3386  0.2531
  300TIP3    H222460   6.347   6.311   7.121 -0.1287 -0.1752  0.2441
  301TIP3   OH222461   6.709   2.782   7.334 -0.2052 -0.1584 -0.8970
  301TIP3    H122462   6.761   2.710   7.369 -0.1930  1.0413  1.8272
  301TIP3    H222463   6.757   2.861   7.362 -2.9121  0.9683  0.9811
  302TIP3   OH222464   2.918   3.407   0.735 -0.1705  0.1927  0.2365
  302TIP3    H122465   2.825   3.424   0.754 -0.9728 -1.9000 -1.4437
  302TIP3    H222466   2.938   3.465   0.661 -0.0303  0.8612  0.7892
  303TIP3   OH222467   5.302   0.092   8.120 -0.5721 -0.6461  0.3515
  303TIP3    H122468   5.328   0.152   8.190  0.3477  0.9969 -1.3364
  303TIP3    H222469   5.230   0.042   8.158 -0.7670  0.8797  2.1420
  304TIP3   OH222470   4.029   6.187   6.459  0.0312  0.2990 -0.2131
  304TIP3    H122471   3.944   6.158   6.427 -0.7078 -0.7186  2.4344
  304TIP3    H222472   4.090   6.119   6.430  0.1352  1.2654 -2.5274
  305TIP3   OH222473   5.985   6.358   2.218 -0.4028  0.5403 -0.3393
  305TIP3    H122474   5.901   6.347   2.264 -0.1483 -0.1979 -0.0375
  305TIP3    H222475   6.041   6.402   2.282 -0.1393 -0.2226 -0.0319
  306TIP3   OH222476   6.575   5.653   1.275 -0.1183  0.1619  0.8367
  306TIP3    H122477   6.607   5.677   1.362 -0.5811  0.8720  0.8239
  306TIP3    H222478   6.620   5.712   1.215  0.2619 -0.3817  0.5822
  307TIP3   OH222479   1.667   0.423   7.550 -0.1463 -0.4923 -0.1275
  307TIP3    H122480   1.627   0.414   7.637  0.5490 -0.4991  0.2011
  307TIP3    H222481   1.593   0.428   7.490 -0.6679  0.7379  0.5791
  308TIP3   OH222482   0.162   3.428   0.957 -0.4970 -0.8798 -0.0727
  308TIP3    H122483   0.126   3.443   1.044 -0.3641 -2.8044  0.3560
  308TIP3    H222484   0.221   3.353   0.967 -2.3349 -2.7960 -2.2243
  309TIP3   OH222485   4.460   6.250   1.633  0.5622 -0.5510 -0.4309
  309TIP3    H122486   4.450   6.155   1.643  1.7368 -0.5636  0.9931
  309TIP3    H222487   4.370   6.283   1.637  0.2493 -1.4353  1.5515
  310TIP3   OH222488   1.152   4.457   1.309 -0.2603 -0.2597  0.2171
  310TIP3    H122489   1.224   4.489   1.256 -1.1326  1.6829  0.1460
  310TIP3    H222490   1.190   4.445   1.396 -0.1047  2.0913  0.5338
  311TIP3   OH222491   3.615   0.961   7.193  0.0380  0.3129  0.0045
  311TIP3    H122492   3.666   0.884   7.168  2.7459  1.0992  2.5270
  311TIP3    H222493   3.536   0.924   7.235 -0.8312 -0.9449 -2.5491
  312TIP3   OH222494   2.767   1.093   8.243  0.1958 -0.0338  0.8127
  312TIP3    H122495   2.833   1.114   8.176  1.0031 -0.3993  1.4794
  312TIP3    H222496   2.808   1.027   8.297 -0.9731 -0.7328  0.8808
  313TIP3   OH222497   1.344   0.440   7.651  0.0538  0.4598 -0.1640
  313TIP3    H122498   1.297   0.518   7.682  0.9677 -0.0729  2.9523
  313TIP3    H222499   1.383   0.403   7.730  2.3065 -1.4152 -2.0048
  314TIP3   OH222500   6.503   1.725   8.302 -0.4028 -0.6445  0.3250
  314TIP3    H122501   6.545   1.648   8.338 -1.0900 -0.3815  1.7670
  314TIP3    H222502   6.428   1.741   8.359 -1.5713 -0.1916 -1.2388
  315TIP3   OH222503   2.355   2.685   7.272  0.3106 -0.4901 -0.6944
  315TIP3    H122504   2.281   2.706   7.215  0.3173 -0.1167 -0.5682
  315TIP3    H222505   2.388   2.602   7.239 -1.0974 -1.4504  0.1609
  316TIP3   OH222506   1.704   2.576   8.633 -0.2567  0.0756  0.2063
  316TIP3    H122507   1.793   2.553   8.608  0.1335  1.8608 -0.2258
  316TIP3    H222508   1.696   2.548   8.724  1.2151  1.0717  0.6730
  317TIP3   OH222509   4.422   0.940   8.781 -0.1530  0.1393  0.1975
  317TIP3    H122510   4.399   0.926   8.873 -2.1062 -1.4899 -0.4726
  317TIP3    H222511   4.383   0.866   8.735  0.4594  1.1117 -2.0143
  318TIP3   OH222512   2.833   4.121   8.432  0.0545 -0.3257 -0.1789
  318TIP3    H122513   2.837   4.148   8.524  1.6111  0.0823 -0.3347
  318TIP3    H222514   2.741   4.126   8.410 -0.5147 -1.4875  1.6726
  319TIP3   OH222515   6.483   0.874   7.784  0.6994  0.5330  0.0051
  319TIP3    H122516   6.422   0.864   7.857 -0.2171 -0.3683 -0.8581
  319TIP3    H222517   6.458   0.957   7.743 -0.9666 -0.4976 -1.2106
  320TIP3   OH222518   5.897   0.461   1.089 -0.0434  0.1273  0.9337
  320TIP3    H122519   5.955   0.489   1.159 -0.1554 -2.0720  2.0036
  320TIP3    H222520   5.933   0.377   1.060 -0.9309  0.2211 -0.5302
  321TIP3   OH222521   4.220   1.893   1.238 -0.1331 -0.0719  0.2551
  321TIP3    H122522   4.125   1.894   1.223 -0.2559 -2.4471  0.5539
  321TIP3    H222523   4.255   1.952   1.171 -1.6935 -0.3911 -0.9096
  322TIP3   OH222524   0.101   4.960   2.667  0.4160 -0.9909 -0.1479
  322TIP3    H122525   0.094   4.962   2.571 -0.9142  0.2602 -0.0566
  322TIP3    H222526   0.030   4.903   2.695 -0.2719 -0.0258  0.1416
  323TIP3   OH222527   3.452   0.729   8.225  0.1434 -0.0468  0.4597
  323TIP3    H122528   3.445   0.798   8.159  0.7804 -0.1018  0.3244
  323TIP3    H222529   3.380   0.669   8.206  0.2653 -0.0081 -0.1231
  324TIP3   OH222530   5.468   4.383   0.583  0.2000  0.1290  0.2696
  324TIP3    H122531   5.467   4.423   0.670  0.4721 -0.5009  0.5707
  324TIP3    H222532   5.488   4.455   0.524 -0.8801  0.7512  0.6187
  325TIP3   OH222533   2.391   1.247   6.541  0.1131  0.1131 -0.1175
  325TIP3    H122534   2.368   1.182   6.475  0.0124  1.6385 -1.6760
  325TIP3    H222535   2.378   1.203   6.624 -2.0464 -1.1814 -1.0552
  326TIP3   OH222536   3.573   6.534   2.016  0.6057 -0.6619  0.1381
  326TIP3    H122537   3.600   6.470   2.082  0.3394 -1.4004 -0.4492
  326TIP3    H222538   3.493   6.497   1.978  0.2599  0.1961  0.0199
  327TIP3   OH222539   3.792   0.923   1.506  0.3417  0.3188  0.3304
  327TIP3    H122540   3.839   0.856   1.557  0.2321  0.6394  0.8515
  327TIP3    H222541   3.758   0.875   1.430  1.0934 -0.0200  0.1951
  328TIP3   OH222542   6.468   2.440   8.055 -0.4021  0.4286 -0.1113
  328TIP3    H122543   6.543   2.499   8.057 -0.4561  0.6103 -1.6859
  328TIP3    H222544   6.478   2.392   7.972 -1.2809 -0.5367  0.3203
  329TIP3   OH222545   5.338   1.220   7.972  0.0931 -0.0311 -0.3456
  329TIP3    H122546   5.298   1.159   7.910  1.4470 -1.5510  0.2332
  329TIP3    H222547   5.376   1.289   7.917 -2.9764  1.3724 -0.9369
  330TIP3   OH222548   0.378   6.130   0.991 -0.0341  0.2978  0.0960
  330TIP3    H122549   0.359   6.053   0.938 -1.5739 -1.2182  2.6360
  330TIP3    H222550   0.331   6.201   0.948 -0.0739 -0.5242 -1.2897
  331TIP3   OH222551   0.625   2.143   8.771  0.5188  0.5031  0.2374
  331TIP3    H122552   0.568   2.219   8.771  0.8922  0.7928  0.9703
  331TIP3    H222553   0.565   2.068   8.773  0.1552  0.7686 -0.3411
  332TIP3   OH222554   1.780   1.350   7.983  0.7124  0.1999  0.1384
  332TIP3    H122555   1.797   1.439   7.954  0.7444  0.8804  2.1058
  332TIP3    H222556   1.785   1.297   7.903  1.3747  1.8515 -0.9607
  333TIP3   OH222557   2.196   1.285   1.079  0.0792 -0.4422 -0.4625
  333TIP3    H122558   2.141   1.240   1.014 -1.1985  0.2449  0.1089
  333TIP3    H222559   2.261   1.219   1.104 -0.0395 -1.0504 -1.6833
  334TIP3   OH222560   4.185   2.235   8.003 -0.5573  0.6000 -0.2781
  334TIP3    H122561   4.117   2.260   8.065  0.3434 -2.8110  2.3940
  334TIP3    H222562   4.146   2.164   7.951 -0.5563  1.9330 -2.2175
  335TIP3   OH222563   5.209   2.713   0.106  0.0466 -0.0447 -0.4597
  335TIP3    H122564   5.217   2.800   0.068 -0.4538 -0.5062 -1.6693
  335TIP3    H222565   5.202   2.654   0.031  1.6638 -1.2755  0.2874
  336TIP3   OH222566   6.778   3.014   7.051  1.0470  0.7824 -0.2089
  336TIP3    H122567   6.870   3.024   7.026  1.3532  1.6022  1.1030
  336TIP3    H222568   6.779   3.022   7.147 -0.3067  0.0709 -0.1154
  337TIP3   OH222569   5.715   4.473   0.457  0.4623  0.1923  0.3708
  337TIP3    H122570   5.809   4.456   0.453  0.4665 -0.7293  2.7688
  337TIP3    H222571   5.677   4.402   0.405  1.0621  0.6897 -0.7927
  338TIP3   OH222572   1.162   4.681   7.896  0.3499 -0.1439  0.0406
  338TIP3    H122573   1.164   4.645   7.985 -0.6348 -1.3098 -0.3910
  338TIP3    H222574   1.132   4.609   7.842 -0.5616  1.0051 -1.0352
  339TIP3   OH222575   0.818   0.355   6.897  0.0761  0.0744  0.0652
  339TIP3    H122576   0.787   0.290   6.961  1.3369 -0.7014 -0.0688
  339TIP3    H222577   0.857   0.302   6.827 -0.0868  0.9551 -0.7100
  340TIP3   OH222578   4.435   6.512   2.000  0.0721 -0.0944 -0.5980
  340TIP3    H122579   4.347   6.503   2.035  0.3219 -0.7737 -0.1370
  340TIP3    H222580   4.477   6.576   2.058  0.2943 -0.7618 -0.0155
  341TIP3   OH222581   5.075   3.616   7.861 -0.4944 -1.3487  0.4839
  341TIP3    H122582   5.113   3.693   7.819 -0.3692  0.1874  3.2068
  341TIP3    H222583   5.051   3.558   7.788  0.9248  0.5195 -1.5813
  342TIP3   OH222584   4.167   6.472   0.262 -0.4349 -0.0897 -0.0732
  342TIP3    H122585   4.263   6.466   0.263 -0.4041  0.3151 -0.1665
  342TIP3    H222586   4.150   6.561   0.232 -0.8396 -0.0652  0.2290
  343TIP3   OH222587   6.787   1.664   1.104  0.7782 -0.0191 -0.6991
  343TIP3    H122588   6.754   1.603   1.038 -1.2450  0.4447 -0.2108
  343TIP3    H222589   6.786   1.749   1.061 -1.3145  0.4152  0.0803
  344TIP3   OH222590   0.406   6.350   1.815 -0.1464  0.1008 -0.5564
  344TIP3    H122591   0.349   6.391   1.750 -0.4760 -0.5839 -0.6967
  344TIP3    H222592   0.390   6.257   1.807  1.1800 -0.1331 -0.7801
  345TIP3   OH222593   0.536   0.635   7.956  0.6476  0.2777 -0.4388
  345TIP3    H122594   0.552   0.592   7.872 -0.8509  0.2691 -0.7526
  345TIP3    H222595   0.572   0.576   8.021  0.1936 -0.6091 -0.9738
  346TIP3   OH222596   4.252   4.633   0.583 -0.4203 -0.7252 -0.0725
  346TIP3    H122597   4.278   4.709   0.635 -0.9207 -0.2996 -0.4449
  346TIP3    H222598   4.284   4.558   0.634  0.5555 -0.2558  0.0299
  347TIP3   OH222599   5.997   4.498   7.810  0.2152 -0.5422 -0.3018
  347TIP3    H122600   5.957   4.488   7.723  1.6768 -1.1537 -0.9383
  347TIP3    H222601   6.044   4.581   7.805 -0.8656  0.1438  0.4236
  348TIP3   OH222602   2.051   2.473   7.489 -0.3022  0.5676  0.2213
  348TIP3    H122603   2.063   2.381   7.468  0.3829 -0.1582  3.2962
  348TIP3    H222604   1.990   2.473   7.563  0.7768  2.4416  1.1849
  349TIP3   OH222605   3.343   1.689   6.755  0.6501  0.4849  0.8349
  349TIP3    H122606   3.419   1.685   6.813  1.1007 -0.1172  0.2154
  349TIP3    H222607   3.295   1.767   6.784  1.8748  1.2807  0.7771
  350TIP3   OH222608   6.109   6.468   0.543  0.5774 -0.3275 -0.6382
  350TIP3    H122609   6.081   6.423   0.622 -0.5722 -1.1172 -1.4739
  350TIP3    H222610   6.185   6.419   0.513 -0.6763 -1.7867 -1.5516
  351TIP3   OH222611   0.306   6.474   8.583 -0.0839  0.0885 -0.2745
  351TIP3    H122612   0.223   6.433   8.608 -0.9885  1.5259 -0.7981
  351TIP3    H222613   0.372   6.409   8.605 -1.3444 -1.1029  0.1517
  352TIP3   OH222614   2.006   6.393   2.224 -0.4947  0.0710 -0.1867
  352TIP3    H122615   1.976   6.481   2.248 -1.1937 -0.4562  0.9150
  352TIP3    H222616   1.947   6.334   2.270 -0.5005 -0.9972 -1.5152
  353TIP3   OH222617   0.708   1.579   8.804  0.0992 -0.1142 -0.1377
  353TIP3    H122618   0.640   1.539   8.749  0.2628  0.3184 -0.6600
  353TIP3    H222619   0.775   1.607   8.743  0.0064  0.9340  0.2138
  354TIP3   OH222620   2.626   5.330   8.520 -0.1310 -0.2822  0.2785
  354TIP3    H122621   2.647   5.394   8.451  0.9124  0.9686  1.6898
  354TIP3    H222622   2.588   5.256   8.473  0.6097  0.4923 -1.6519
  355TIP3   OH222623   4.811   2.144   6.987  0.2742  0.2508  0.1669
  355TIP3    H122624   4.827   2.060   7.030 -2.5446 -0.1871  0.5499
  355TIP3    H222625   4.749   2.124   6.917  0.9523  1.7633 -0.9239
  356TIP3   OH222626   2.369   6.498   0.568  0.3067 -0.4983  0.0456
  356TIP3    H122627   2.437   6.516   0.633 -0.1835  1.6683  0.0392
  356TIP3    H222628   2.410   6.521   0.485 -0.6814  1.8921  0.1360
  357TIP3   OH222629   5.471   5.221   1.260  0.3297 -0.1719 -0.1905
  357TIP3    H122630   5.541   5.195   1.319  0.9465 -0.8628 -1.1916
  357TIP3    H222631   5.483   5.316   1.247  0.6270 -0.1564  0.2124
  358TIP3   OH222632   2.485   4.413   0.477 -0.2207 -0.5732  0.3141
  358TIP3    H122633   2.502   4.471   0.551  0.4974 -1.8219  1.1781
  358TIP3    H222634   2.409   4.362   0.503 -1.3916  0.5328 -0.8062
  359TIP3   OH222635   2.878   6.001   0.157  0.3949 -0.3144 -0.1336
  359TIP3    H122636   2.864   6.065   0.227  0.6007 -1.5493  1.0832
  359TIP3    H222637   2.892   6.054   0.079  0.3486  1.1204  0.7869
  360TIP3   OH222638   2.318   4.394   6.259  0.0811 -0.3036  0.0840
  360TIP3    H122639   2.361   4.433   6.336 -0.6783 -0.4173  0.5805
  360TIP3    H222640   2.243   4.346   6.296  0.9256 -2.1596 -0.5033
  361TIP3   OH222641   3.827   0.365   0.813 -0.5563 -0.3246  0.1851
  361TIP3    H122642   3.815   0.444   0.865 -1.9610 -0.5494  0.2451
  361TIP3    H222643   3.877   0.393   0.737 -3.0506  1.2131 -1.0187
  362TIP3   OH222644   1.817   4.102   1.000  0.1337  0.4120  0.0035
  362TIP3    H122645   1.780   4.017   1.024 -0.3476  0.3934 -0.7847
  362TIP3    H222646   1.746   4.164   1.015  0.5398  0.7075  0.7468
  363TIP3   OH222647   2.208   1.479   6.595  0.6330  0.0934  0.2144
  363TIP3    H122648   2.214   1.523   6.510 -1.1422  1.3949  0.6921
  363TIP3    H222649   2.240   1.390   6.579  1.0280  0.5237 -1.6221
  364TIP3   OH222650   1.579   2.105   1.253 -0.8618  0.0363 -0.0857
  364TIP3    H122651   1.601   2.116   1.346 -0.9835 -0.5824  0.0213
  364TIP3    H222652   1.494   2.149   1.244  0.1658  2.0706 -0.4137
  365TIP3   OH222653   4.709   2.812   1.454  0.5615  0.1623  0.0532
  365TIP3    H122654   4.790   2.776   1.419  0.8962  0.3328  0.6339
  365TIP3    H222655   4.736   2.859   1.532 -0.2444 -0.7855  0.9379
  366TIP3   OH222656   2.657   6.721   6.366  0.2244  0.1811  0.6008
  366TIP3    H122657   2.588   6.657   6.385  0.6291 -0.7312 -0.8743
  366TIP3    H222658   2.628   6.765   6.287 -0.2340  2.1703  1.8034
  367TIP3   OH222659   0.437   5.204   6.946  0.7778 -0.3885  0.0593
  367TIP3    H122660   0.418   5.141   6.877 -0.9864  2.9498 -2.8957
  367TIP3    H222661   0.358   5.207   6.999 -0.9048  2.0146 -2.3313
  368TIP3   OH222662   6.365   5.908   1.097 -0.2403 -0.0964  0.1256
  368TIP3    H122663   6.369   6.002   1.118  0.6402  0.0453 -0.5833
  368TIP3    H222664   6.331   5.867   1.176  2.3804  0.4724  1.6870
  369TIP3   OH222665   1.832   2.349   0.400  0.4046 -0.4715 -0.3431
  369TIP3    H122666   1.865   2.351   0.311  0.6578  1.4272 -0.2567
  369TIP3    H222667   1.908   2.367   0.455  0.3996 -2.3337  0.3454
  370TIP3   OH222668   0.642   3.879   8.852  0.1225 -0.2142  0.1181
  370TIP3    H122669   0.624   3.971   8.870 -2.4120 -0.9263  1.6335
  370TIP3    H222670   0.687   3.848   8.930 -0.2533 -0.5703  0.1944
  371TIP3   OH222671   4.547   4.495   6.663 -0.0495 -0.5447  0.8648
  371TIP3    H122672   4.591   4.500   6.578  0.1957  1.1443  1.0530
  371TIP3    H222673   4.454   4.504   6.643 -0.0140 -0.4257  0.7568
  372TIP3   OH222674   5.044   2.587   6.125 -0.0080  0.5300  0.2447
  372TIP3    H122675   5.136   2.573   6.102  0.1083  0.9371  0.4498
  372TIP3    H222676   4.997   2.577   6.043 -0.0091 -1.5571  0.4493
  373TIP3   OH222677   3.626   4.346   8.443  0.0085 -0.4744  0.3797
  373TIP3    H122678   3.680   4.377   8.516  1.2654  0.5800 -0.9200
  373TIP3    H222679   3.684   4.352   8.367 -1.0169 -2.2536 -0.6080
  374TIP3   OH222680   1.432   4.920   0.177 -0.4322 -0.5342  0.0830
  374TIP3    H122681   1.358   4.981   0.173  2.6396  3.6625 -0.2856
  374TIP3    H222682   1.457   4.919   0.270 -0.5384 -1.4154  0.1083
  375TIP3   OH222683   3.355   4.903   0.176 -0.1441  0.3597 -0.1237
  375TIP3    H122684   3.287   4.872   0.236 -0.2707  1.8114  0.5208
  375TIP3    H222685   3.318   4.891   0.089 -0.2428 -1.1086  0.0991
  376TIP3   OH222686   6.126   1.659   0.570  0.6016 -0.0005  0.0624
  376TIP3    H122687   6.055   1.670   0.633 -1.2407 -1.9846 -1.4638
  376TIP3    H222688   6.202   1.635   0.622 -0.2910  0.5391  1.6597
  377TIP3   OH222689   1.450   0.690   6.360 -0.1556  0.0534 -0.3432
  377TIP3    H122690   1.519   0.688   6.293  0.5343 -0.6459  0.3606
  377TIP3    H222691   1.413   0.602   6.360  0.3140 -0.1627  0.6403
  378TIP3   OH222692   0.240   1.912   8.315 -0.4215 -0.0376  0.4368
  378TIP3    H122693   0.153   1.907   8.276 -1.1667  0.6100  1.9709
  378TIP3    H222694   0.280   1.989   8.274  0.8183 -2.1906 -2.8360
  379TIP3   OH222695   3.525   4.090   8.216  0.3266 -0.5301  0.0382
  379TIP3    H122696   3.540   4.044   8.299  2.6815 -0.3533 -0.2304
  379TIP3    H222697   3.438   4.060   8.188 -0.1907 -1.1978  2.1499
  380TIP3   OH222698   6.301   2.175   1.916 -0.1656  0.3019 -0.1804
  380TIP3    H122699   6.272   2.182   2.007 -0.2315 -0.4071 -0.1447
  380TIP3    H222700   6.271   2.257   1.876 -0.2433  0.5687  0.3996
  381TIP3   OH222701   0.456   1.956   2.048  0.0234 -0.0913 -0.1157
  381TIP3    H122702   0.394   1.887   2.072 -1.3110  0.4064 -1.8422
  381TIP3    H222703   0.493   1.986   2.131 -1.4881 -0.9596  0.9215
  382TIP3   OH222704   3.708   3.691   8.633 -0.1963 -0.0920  0.1056
  382TIP3    H122705   3.658   3.676   8.553  1.1701 -1.0039 -0.6209
  382TIP3    H222706   3.677   3.625   8.694 -1.6324  0.9510  0.5560
  383TIP3   OH222707   3.346   1.565   8.231 -0.4591  0.9639 -0.1740
  383TIP3    H122708   3.349   1.633   8.299 -1.4641  1.5483 -0.6972
  383TIP3    H222709   3.292   1.602   8.162 -0.5788 -0.1668 -0.7109
  384TIP3   OH222710   1.569   4.225   7.896  0.3149  0.0017 -0.4595
  384TIP3    H122711   1.602   4.282   7.826  0.6194 -1.7362 -1.7981
  384TIP3    H222712   1.635   4.233   7.966 -0.3727  2.3363  0.0102
  385TIP3   OH222713   3.569   2.073   1.613 -0.2614  0.3850  0.0526
  385TIP3    H122714   3.534   2.110   1.694  0.1826  0.7269  0.0938
  385TIP3    H222715   3.664   2.085   1.621 -0.3415  2.3364 -1.4445
  386TIP3   OH222716   2.236   4.891   0.151 -0.2169  0.2937  0.9063
  386TIP3    H122717   2.265   4.899   0.242  1.0427  0.5292  0.4997
  386TIP3    H222718   2.275   4.809   0.121  2.4847  1.9438 -0.4837
  387TIP3   OH222719   6.774   3.259   0.671  0.1656 -0.0704  0.0578
  387TIP3    H122720   6.705   3.257   0.604 -0.2983  0.2818  0.5209
  387TIP3    H222721   6.768   3.346   0.709  3.0686  1.2786 -2.1401
  388TIP3   OH222722   4.013   2.003   0.275 -0.1051  0.4065 -0.1081
  388TIP3    H122723   3.948   1.977   0.209  0.8115 -0.5213 -0.6636
  388TIP3    H222724   4.019   2.099   0.266 -0.8022  0.4163 -0.5955
  389TIP3   OH222725   3.381   0.062   7.878  1.3907  0.1666 -0.1997
  389TIP3    H122726   3.313  -0.002   7.896 -0.0342  1.9060  1.0353
  389TIP3    H222727   3.451   0.012   7.836  0.2433 -2.0856  0.4090
  390TIP3   OH222728   3.622   5.368   1.718 -0.1275 -0.5916  0.3753
  390TIP3    H122729   3.551   5.307   1.737 -2.9274  1.7606 -1.5511
  390TIP3    H222730   3.657   5.339   1.634 -0.9446 -0.0483 -0.1694
  391TIP3   OH222731   2.134   0.187   1.604  0.4955 -0.4224  0.3744
  391TIP3    H122732   2.212   0.182   1.661  0.8707 -3.6670 -0.2483
  391TIP3    H222733   2.169   0.210   1.518  0.4383  0.4622  0.5794
  392TIP3   OH222734   5.573   2.408   7.461  0.3197  0.0851  0.1932
  392TIP3    H122735   5.657   2.379   7.498  0.1015  0.6594  1.1723
  392TIP3    H222736   5.519   2.329   7.460  0.4718 -0.0285  0.7030
  393TIP3   OH222737   4.771   2.889   7.210  0.0757 -0.4010  0.5568
  393TIP3    H122738   4.836   2.819   7.205  2.0229  1.2706  1.1974
  393TIP3    H222739   4.785   2.929   7.295  1.4122  2.8944 -1.0573
  394TIP3   OH222740   3.565   2.972   0.355 -0.6588 -0.7169  0.1803
  394TIP3    H122741   3.559   3.059   0.395 -0.9438 -0.1974 -0.9750
  394TIP3    H222742   3.649   2.937   0.385  0.5532  0.8983 -1.2177
  395TIP3   OH222743   0.659   3.676   2.057  0.0070 -0.1841 -0.1865
  395TIP3    H122744   0.733   3.732   2.079 -0.6956  0.7136 -0.0369
  395TIP3    H222745   0.586   3.713   2.108 -0.4592 -1.2690 -0.0466
  396TIP3   OH222746   0.798   5.438   7.130  0.0765  0.1245 -0.1330
  396TIP3    H122747   0.721   5.444   7.187 -0.8054  0.4690 -1.3227
  396TIP3    H222748   0.856   5.376   7.175 -0.4008  0.6941  1.3286
  397TIP3   OH222749   0.073   5.590   8.215  0.4614  0.1875  0.1600
  397TIP3    H122750   0.091   5.665   8.271 -0.9353  0.7382 -0.0868
  397TIP3    H222751   0.085   5.622   8.126 -1.5147  0.5694 -0.0141
  398TIP3   OH222752   0.124   4.090   2.133 -0.0332 -0.1767 -0.4153
  398TIP3    H122753   0.169   4.019   2.180 -3.0343 -0.8544  1.6934
  398TIP3    H222754   0.063   4.044   2.074 -2.5996  0.4649  1.5530
  399TIP3   OH222755   5.234   6.264   7.914  0.1216  0.4601 -0.0135
  399TIP3    H122756   5.234   6.182   7.962  0.8184  0.2259 -0.4079
  399TIP3    H222757   5.307   6.314   7.950  0.2688  0.5323 -0.4111
  400TIP3   OH222758   4.894   2.868   8.788 -0.0909 -0.2511 -0.3904
  400TIP3    H122759   4.928   2.797   8.734 -1.3992 -1.4864  0.3539
  400TIP3    H222760   4.849   2.926   8.727  3.1636  1.4286 -1.4082
  401TIP3   OH222761   3.218   3.526   8.100 -0.3909 -0.0418  0.1816
  401TIP3    H122762   3.169   3.470   8.040  0.1438  0.9604 -1.2229
  401TIP3    H222763   3.164   3.529   8.179 -2.4850  0.8210 -1.2125
  402TIP3   OH222764   3.980   4.088   8.084 -0.1577 -0.3346  0.0435
  402TIP3    H122765   4.038   4.110   8.011 -0.0637 -0.8687 -0.0468
  402TIP3    H222766   3.894   4.118   8.056 -0.1534 -0.6984 -0.3610
  403TIP3   OH222767   2.327   3.350   1.261 -0.4773  0.2379  0.4951
  403TIP3    H122768   2.375   3.269   1.243  0.3324  0.6499  0.7231
  403TIP3    H222769   2.260   3.325   1.325 -2.4251 -0.9456 -1.8410
  404TIP3   OH222770   5.231   2.974   6.864 -0.1249  0.0197 -0.0209
  404TIP3    H122771   5.258   2.963   6.773  0.7331  2.0394 -0.0687
  404TIP3    H222772   5.257   3.064   6.886  0.0989 -0.5558  2.3445
  405TIP3   OH222773   5.288   1.389   6.957  0.3463 -0.4366 -0.7021
  405TIP3    H122774   5.226   1.321   6.984 -1.0891  0.2211 -2.1380
  405TIP3    H222775   5.268   1.464   7.014  0.2627 -0.4454 -0.7191
  406TIP3   OH222776   4.491   5.937   7.227  0.2467 -0.2482  0.0499
  406TIP3    H122777   4.456   5.979   7.305  2.4198 -0.3713  1.1490
  406TIP3    H222778   4.528   6.008   7.175  1.3173 -0.4488  0.5133
  407TIP3   OH222779   1.305   0.775   0.653 -0.1570 -0.3168  0.3647
  407TIP3    H122780   1.243   0.842   0.624 -2.0123 -1.8395  0.6084
  407TIP3    H222781   1.321   0.722   0.574  2.5453  1.2309 -0.2456
  408TIP3   OH222782   0.400   6.474   7.953 -0.2769 -0.1417 -0.7760
  408TIP3    H122783   0.333   6.508   8.013 -0.5353  0.9203 -1.6210
  408TIP3    H222784   0.396   6.534   7.878 -0.4611 -1.8492 -2.1786
  409TIP3   OH222785   1.585   5.075   8.152 -0.4592  0.0260 -0.2266
  409TIP3    H122786   1.540   5.029   8.222  1.2217 -0.0806  0.8193
  409TIP3    H222787   1.599   5.009   8.085 -0.0572 -0.4290  0.3051
  410TIP3   OH222788   6.375   5.401   7.434 -0.1032 -0.0199 -0.1931
  410TIP3    H122789   6.367   5.307   7.421 -0.4054  0.0735 -0.7213
  410TIP3    H222790   6.469   5.416   7.444 -0.2365 -0.7145  2.7640
  411TIP3   OH222791   2.001   6.613   8.341 -0.1372 -0.0658 -0.0092
  411TIP3    H122792   1.930   6.657   8.388 -1.2022 -0.8631 -0.8136
  411TIP3    H222793   2.072   6.678   8.339 -0.7644  0.6873  0.9665
  412TIP3   OH222794   2.057   5.417   0.153 -0.2831  0.0879 -0.0588
  412TIP3    H122795   2.048   5.391   0.061  1.5319 -1.4335  0.1235
  412TIP3    H222796   2.013   5.347   0.202  1.7241 -1.0166  0.3017
  413TIP3   OH222797   1.963   5.876   0.623  0.0357  0.1261  0.1530
  413TIP3    H122798   1.922   5.791   0.637 -0.9190  0.2516 -1.6162
  413TIP3    H222799   1.943   5.898   0.532  1.2571  1.7182  0.2156
  414TIP3   OH222800   4.163   5.707   1.205 -0.2630  0.1902  0.0048
  414TIP3    H122801   4.199   5.769   1.142 -1.3226 -1.1286 -2.0146
  414TIP3    H222802   4.235   5.689   1.264  0.7025  1.7069 -0.6483
  415TIP3   OH222803   4.509   0.709   7.111  0.0021  0.6294 -0.6072
  415TIP3    H122804   4.439   0.773   7.127  0.7966  1.4295 -0.2365
  415TIP3    H222805   4.570   0.754   7.053  0.4788  0.1331 -0.5033
  416TIP3   OH222806   3.343   4.083   0.902  0.2333  0.3749 -0.2226
  416TIP3    H122807   3.302   4.116   0.822 -1.2982  0.2572  0.4923
  416TIP3    H222808   3.271   4.071   0.963  1.3181 -0.0419  1.0162
  417TIP3   OH222809   6.656   0.709   8.720 -0.1759 -0.5281 -0.0628
  417TIP3    H122810   6.674   0.667   8.804  1.6483 -0.5906 -0.4356
  417TIP3    H222811   6.601   0.784   8.742 -0.2639 -0.9147  1.1134
  418TIP3   OH222812   1.058   5.199   1.132 -0.3059 -0.4250  0.0482
  418TIP3    H122813   1.124   5.254   1.088 -0.4386 -0.5648 -0.3362
  418TIP3    H222814   0.986   5.194   1.069 -0.4417 -0.7502  0.2260
  419TIP3   OH222815   2.304   4.814   8.006  0.1600  0.4529  0.3505
  419TIP3    H122816   2.337   4.806   7.917 -1.6402 -0.9085 -0.2470
  419TIP3    H222817   2.221   4.766   8.006 -1.2745  2.7093  2.0408
  420TIP3   OH222818   2.213   4.894   6.652 -0.4111 -0.6148 -0.0223
  420TIP3    H122819   2.123   4.900   6.682 -0.6124  1.3752 -0.8241
  420TIP3    H222820   2.208   4.846   6.569 -0.8020 -0.1512 -0.2707
  421TIP3   OH222821   0.698   1.305   8.606 -0.2814  0.4524 -0.2405
  421TIP3    H122822   0.673   1.350   8.687  0.6239 -1.1789  1.0160
  421TIP3    H222823   0.632   1.332   8.542 -3.7639 -1.5686  2.1454
  422TIP3   OH222824   0.352   3.875   0.684  0.2776 -0.5165 -0.3356
  422TIP3    H122825   0.359   3.781   0.673  2.0741 -0.7065  1.6359
  422TIP3    H222826   0.285   3.887   0.752  0.8223 -0.4843  0.2113
  423TIP3   OH222827   5.221   3.849   7.735  0.0676  0.3311  0.3625
  423TIP3    H122828   5.280   3.833   7.662  0.6292  0.3268  0.8085
  423TIP3    H222829   5.188   3.938   7.720 -0.3847  0.0581 -0.2759
  424TIP3   OH222830   2.006   5.748   6.967  0.2876  0.1643  0.1365
  424TIP3    H122831   1.940   5.809   6.999 -0.1255 -0.1181 -0.1627
  424TIP3    H222832   2.063   5.801   6.912  1.2413  0.7435  1.6348
  425TIP3   OH222833   1.877   6.661   1.238 -0.4807 -0.0806  0.6794
  425TIP3    H122834   1.784   6.646   1.248 -0.6123  0.9007  1.1009
  425TIP3    H222835   1.904   6.700   1.321  0.3566 -0.5690  0.6516
  426TIP3   OH222836   0.463   5.768   2.283 -0.2456 -0.3194  0.1204
  426TIP3    H122837   0.448   5.675   2.267 -0.3174 -0.0818 -1.3846
  426TIP3    H222838   0.379   5.809   2.265  0.4292  0.3026 -1.9238
  427TIP3   OH222839   4.512   1.605   0.214 -0.2011 -0.9232 -0.5618
  427TIP3    H122840   4.587   1.566   0.259  1.1040  0.8717 -1.0697
  427TIP3    H222841   4.452   1.629   0.285  1.0776  0.3342  0.1458
  428TIP3   OH222842   4.586   4.700   7.979  0.9341  0.3143  0.0457
  428TIP3    H122843   4.577   4.681   8.072  0.6015  0.9860  0.1578
  428TIP3    H222844   4.673   4.669   7.955  0.1481 -2.0297  0.0425
  429TIP3   OH222845   2.228   3.797   2.137  0.6308  0.3073  0.2676
  429TIP3    H122846   2.227   3.877   2.084 -0.2869  0.4151  0.4332
  429TIP3    H222847   2.163   3.812   2.205  1.4989  0.0000  1.1949
  430TIP3   OH222848   2.097   3.246   1.802  0.2188  0.0350  0.0178
  430TIP3    H122849   2.148   3.190   1.860 -0.4313 -1.1262 -0.4972
  430TIP3    H222850   2.140   3.237   1.716  1.2777  1.8666  0.2968
  431TIP3   OH222851   6.763   1.324   8.532 -0.8372 -0.7991 -0.4851
  431TIP3    H122852   6.848   1.311   8.491 -1.5786 -1.2041 -1.9440
  431TIP3    H222853   6.766   1.270   8.611  0.9180  0.6501  0.5186
  432TIP3   OH222854   4.858   0.547   7.131  0.4513  0.3341  0.3180
  432TIP3    H122855   4.850   0.589   7.217 -1.5285  1.2979 -0.2715
  432TIP3    H222856   4.905   0.611   7.078 -0.1429  0.6424  0.1532
  433TIP3   OH222857   6.096   1.848   2.234  0.1852  0.8182  0.4678
  433TIP3    H122858   6.029   1.903   2.194  1.0034  0.5763 -1.3465
  433TIP3    H222859   6.066   1.758   2.221  0.2356  0.7465  0.8279
  434TIP3   OH222860   1.790   0.886   1.035 -0.7442  0.3744 -0.1618
  434TIP3    H122861   1.840   0.838   1.101  0.1771  0.2434 -0.9427
  434TIP3    H222862   1.699   0.865   1.055 -0.4081 -0.9652  0.0773
  435TIP3   OH222863   2.735   1.110   2.358  0.0271  0.5442 -0.1987
  435TIP3    H122864   2.781   1.122   2.275 -0.3497 -1.4286 -0.7484
  435TIP3    H222865   2.698   1.022   2.353 -0.9305  0.7767  1.6311
  436TIP3   OH222866   1.308   6.690   6.993 -0.0441  0.2525  0.6038
  436TIP3    H122867   1.393   6.655   7.016 -0.2842 -0.3882  0.5259
  436TIP3    H222868   1.316   6.716   6.901  0.3627  1.1294  0.8729
  437TIP3   OH222869   1.597   3.067   8.601 -0.1123  0.2109  0.3647
  437TIP3    H122870   1.534   3.132   8.634  0.5062 -0.3563  2.8171
  437TIP3    H222871   1.683   3.108   8.615  0.1828 -0.0461 -0.6282
  438TIP3   OH222872   3.937   4.908   0.313  0.0611  0.2589 -0.1084
  438TIP3    H122873   3.959   4.815   0.315  1.4918  0.5317 -1.3059
  438TIP3    H222874   3.955   4.939   0.402  0.5311 -0.3963  0.0287
  439TIP3   OH222875   1.663   5.803   8.342  0.1022  0.3522 -0.6122
  439TIP3    H122876   1.681   5.890   8.306  0.5670  0.2996 -0.5051
  439TIP3    H222877   1.721   5.796   8.418 -0.5147  0.2672 -0.1340
  440TIP3   OH222878   1.189   0.210   8.204  0.6489 -0.9652 -0.4478
  440TIP3    H122879   1.122   0.275   8.179  2.5376  1.7111  1.0181
  440TIP3    H222880   1.148   0.125   8.185 -3.1509  0.4972  0.3241
  441TIP3   OH222881   3.209   0.930   6.642 -0.0094  0.6565 -0.4780
  441TIP3    H122882   3.167   0.868   6.701 -0.6973  1.7783  0.2357
  441TIP3    H222883   3.294   0.890   6.622  0.5473  0.5792  1.8318
  442TIP3   OH222884   6.224   3.804   8.814  0.0153  0.2453 -0.1442
  442TIP3    H122885   6.303   3.856   8.796 -0.9377  1.8834  0.2091
  442TIP3    H222886   6.197   3.833   8.902  0.4445 -2.1879  0.8580
  443TIP3   OH222887   5.495   5.678   0.676  0.0265  0.1208  0.1869
  443TIP3    H122888   5.534   5.614   0.617  0.8193  0.3190  0.4910
  443TIP3    H222889   5.568   5.732   0.706 -0.3866  0.1209  1.2289
  444TIP3   OH222890   3.081   4.491   1.296  0.1471  0.0252  0.1708
  444TIP3    H122891   3.140   4.458   1.364 -1.4193 -2.4953  0.4120
  444TIP3    H222892   3.061   4.415   1.242 -2.6622  0.8010 -0.0463
  445TIP3   OH222893   1.822   5.259   6.796 -0.8297 -0.4177 -0.4134
  445TIP3    H122894   1.776   5.331   6.753  0.2126  1.3694  1.3138
  445TIP3    H222895   1.913   5.272   6.773 -0.4793 -0.4538  0.8765
  446TIP3   OH222896   1.389   2.532   0.856  0.0691  0.1653 -0.0683
  446TIP3    H122897   1.346   2.465   0.803  1.0020 -1.8431  1.5908
  446TIP3    H222898   1.345   2.528   0.941 -0.1431  2.0000 -0.0478
  447TIP3   OH222899   4.300   6.509   7.244  0.1110 -0.0490  0.7319
  447TIP3    H122900   4.251   6.585   7.276  0.6691  0.0982  1.2659
  447TIP3    H222901   4.260   6.434   7.288  0.5332  0.0996  1.3904
  448TIP3   OH222902   5.781   1.068   1.627  0.1995  0.1379  0.6790
  448TIP3    H122903   5.842   1.011   1.673  0.9627  0.3783 -0.0048
  448TIP3    H222904   5.803   1.156   1.658  0.5769  0.2785  0.0269
  449TIP3   OH222905   1.871   3.260   7.953  0.9632  0.0059  0.0240
  449TIP3    H122906   1.862   3.235   8.045  0.6198  0.2672  0.0639
  449TIP3    H222907   1.810   3.202   7.906  1.0261 -0.0247 -0.0196
  450TIP3   OH222908   2.139   1.006   7.950  0.0614  0.4220  0.0790
  450TIP3    H122909   2.053   0.964   7.948 -0.0946  0.6663  1.1519
  450TIP3    H222910   2.202   0.933   7.951 -0.1430  0.2408 -0.2457
  451TIP3   OH222911   1.713   0.776   7.625 -0.1619 -0.3444 -0.0410
  451TIP3    H122912   1.692   0.684   7.614 -0.0734 -0.3531 -0.1403
  451TIP3    H222913   1.658   0.805   7.697 -2.0287  0.1210 -1.5666
  452TIP3   OH222914   0.869   6.608   8.289 -0.3961  0.3795 -0.3089
  452TIP3    H122915   0.810   6.582   8.217 -1.6863  0.7188  0.5923
  452TIP3    H222916   0.902   6.525   8.323 -0.0804  0.1975 -1.0356
  453TIP3   OH222917   3.774   0.698   8.014 -0.1769 -0.3379 -0.2803
  453TIP3    H122918   3.802   0.695   7.922 -0.7430  1.6256 -0.5744
  453TIP3    H222919   3.723   0.618   8.027 -1.0437 -0.1138 -2.0207
  454TIP3   OH222920   1.348   3.952   8.216 -0.4492  0.8776  0.1747
  454TIP3    H122921   1.286   3.884   8.241 -2.5780  2.4304 -0.5567
  454TIP3    H222922   1.347   3.952   8.120 -0.8250  2.1582  0.1548
  455TIP3   OH222923   1.598   4.562   1.023  0.1859  0.1799  0.4156
  455TIP3    H122924   1.628   4.578   1.113  0.6140  0.2039  0.2706
  455TIP3    H222925   1.656   4.615   0.969 -0.3280  0.4826  0.1479
  456TIP3   OH222926   3.730   0.263   1.206 -0.3331 -0.3698  0.0358
  456TIP3    H122927   3.813   0.264   1.160  0.3362  0.3571  1.2081
  456TIP3    H222928   3.686   0.344   1.179  1.0150  1.2172  2.2512
  457TIP3   OH222929   5.633   6.787   8.628 -0.3363  0.3103  0.1347
  457TIP3    H122930   5.599   6.866   8.670 -0.0230 -0.0932  1.1823
  457TIP3    H222931   5.580   6.716   8.664  1.8598 -0.4128  2.2621
  458TIP3   OH222932   1.892   5.072   8.316 -0.0093  0.4407 -0.1168
  458TIP3    H122933   1.916   4.998   8.260  0.4760 -0.3038  1.0491
  458TIP3    H222934   1.823   5.038   8.373  0.1067  0.9410  0.3270
  459TIP3   OH222935   4.698   6.376   2.020  0.3025  0.2970 -0.2031
  459TIP3    H122936   4.626   6.438   2.011 -1.9071 -2.1410 -0.3506
  459TIP3    H222937   4.699   6.354   2.114 -0.2742 -0.9071 -0.4636
  460TIP3   OH222938   4.401   2.896   8.782  0.2548  0.1096 -0.4767
  460TIP3    H122939   4.447   2.976   8.806 -1.4446  1.5242 -1.7377
  460TIP3    H222940   4.313   2.925   8.757 -0.5105 -2.1908 -0.6783
  461TIP3   OH222941   1.558   1.951   6.512 -0.3712 -0.0925 -0.3875
  461TIP3    H122942   1.588   1.880   6.455 -2.7746 -1.0947 -0.5073
  461TIP3    H222943   1.632   2.012   6.514  0.6603 -1.1347 -2.6962
  462TIP3   OH222944   5.804   5.385   2.464 -0.7553  0.5119 -0.9804
  462TIP3    H122945   5.834   5.307   2.512  1.4889  0.8465 -1.7057
  462TIP3    H222946   5.858   5.456   2.499 -0.7933  1.2091 -2.2862
  463TIP3   OH222947   5.020   0.418   0.306  0.2378  0.0524 -0.4681
  463TIP3    H122948   4.950   0.449   0.364 -0.9894 -0.3561 -1.7019
  463TIP3    H222949   5.061   0.499   0.274  1.3345  0.2916  1.3769
  464TIP3   OH222950   4.628   5.999   1.301  0.2344  0.1784 -0.7148
  464TIP3    H122951   4.546   6.000   1.351  0.1215  0.6878 -0.9047
  464TIP3    H222952   4.651   5.906   1.295 -0.3741  0.0261 -0.7363
  465TIP3   OH222953   4.388   5.486   7.987  0.6734 -0.6678 -0.8188
  465TIP3    H122954   4.374   5.403   7.941 -0.0392 -0.3494 -1.1845
  465TIP3    H222955   4.341   5.551   7.934 -1.3363 -0.4883  1.0445
  466TIP3   OH222956   0.590   3.798   0.846 -0.0622  0.1894 -0.5586
  466TIP3    H122957   0.595   3.870   0.910  0.5714  0.4538 -0.8911
  466TIP3    H222958   0.516   3.822   0.789 -1.2089 -0.5023  0.5996
  467TIP3   OH222959   3.524   2.764   8.575  0.2731 -0.2534  0.8215
  467TIP3    H122960   3.495   2.810   8.496  1.6693  0.9080  0.9370
  467TIP3    H222961   3.614   2.795   8.588  0.4044 -1.1936  2.3078
  468TIP3   OH222962   4.082   4.640   1.851  0.8606  0.2968  0.1000
  468TIP3    H122963   4.059   4.732   1.834  1.0403  0.0530 -1.7354
  468TIP3    H222964   4.074   4.598   1.765  0.3177 -1.5245  0.9954
  469TIP3   OH222965   6.680   3.105   8.080 -0.5501 -0.8524 -0.5214
  469TIP3    H122966   6.704   3.094   7.988  0.4470  0.7004 -0.4749
  469TIP3    H222967   6.731   3.038   8.126 -1.2451 -1.8030 -1.1032
  470TIP3   OH222968   0.710   6.640   7.683 -0.2474 -0.4502  0.1874
  470TIP3    H122969   0.642   6.573   7.676  0.3135 -1.1882  1.4147
  470TIP3    H222970   0.663   6.720   7.707 -1.0335 -0.1207 -2.1778
  471TIP3   OH222971   5.144   5.430   1.104 -0.0514  0.5341 -0.0033
  471TIP3    H122972   5.201   5.365   1.064 -0.6113  0.8505 -1.3786
  471TIP3    H222973   5.099   5.382   1.174  0.0767 -0.3821 -0.5265
  472TIP3   OH222974   1.858   0.157   0.598 -0.2231 -0.3898  0.5895
  472TIP3    H122975   1.928   0.116   0.647  1.1432  1.4104  0.2556
  472TIP3    H222976   1.864   0.250   0.620  0.7683  0.6368 -3.2253
  473TIP3   OH222977   0.826   3.424   7.611  0.2404  0.9452  0.3023
  473TIP3    H122978   0.787   3.338   7.624  0.4275  0.8276  0.0931
  473TIP3    H222979   0.918   3.406   7.593  0.1959  1.1591 -0.1617
  474TIP3   OH222980   0.002   5.374   1.043  0.2800  0.6089  0.4177
  474TIP3    H122981  -0.051   5.424   1.105 -0.6563  0.8469 -0.5493
  474TIP3    H222982   0.020   5.436   0.972 -0.1837 -0.1775 -0.3990
  475TIP3   OH222983   5.770   0.781   7.557 -0.0129 -0.5458 -0.2628
  475TIP3    H122984   5.793   0.871   7.532  1.8123 -1.3608 -1.7446
  475TIP3    H222985   5.844   0.728   7.529 -0.5434 -2.4156  1.5863
  476TIP3   OH222986   4.684   2.730   1.127  0.3556 -0.2088  0.0146
  476TIP3    H122987   4.770   2.705   1.095  0.4633  0.3317 -0.1270
  476TIP3    H222988   4.656   2.656   1.181  1.6004  0.2746  1.4008
  477TIP3   OH222989   3.334   0.375   2.426 -0.0854  0.8283  0.0398
  477TIP3    H122990   3.284   0.457   2.425 -0.2666  0.7190 -0.4783
  477TIP3    H222991   3.305   0.329   2.347  0.7598  0.7202 -0.2262
  478TIP3   OH222992   0.591   5.671   1.618  0.5460 -0.2636  0.8661
  478TIP3    H122993   0.594   5.595   1.560  0.0724 -0.1387  0.6749
  478TIP3    H222994   0.525   5.728   1.579 -1.3411 -1.1144  2.6650
  479TIP3   OH222995   3.553   6.548   8.590 -0.0792 -0.3838  0.5848
  479TIP3    H122996   3.517   6.470   8.548 -0.9124 -1.0337  2.3924
  479TIP3    H222997   3.513   6.549   8.677  1.5242  0.8973  1.3696
  480TIP3   OH222998   5.544   5.436   0.969 -0.2055  0.4567 -0.3088
  480TIP3    H122999   5.578   5.520   0.937  1.2189  0.3752  0.8534
  480TIP3    H223000   5.491   5.460   1.045  1.4051  0.2530  0.9344
  481TIP3   OH223001   1.792   5.188   0.140  0.4717 -0.3087  0.3117
  481TIP3    H123002   1.761   5.197   0.050  0.9148 -0.4366  0.1433
  481TIP3    H223003   1.753   5.262   0.187 -1.6472 -1.5084  0.5625
  482TIP3   OH223004   1.919   3.707   7.198 -0.2214  0.5222 -0.3134
  482TIP3    H123005   1.962   3.789   7.177  1.5492 -1.0241 -3.5486
  482TIP3    H223006   1.841   3.705   7.142  1.4220 -1.1825 -2.7471
  483TIP3   OH223007   4.812   2.537   0.736  0.3407 -0.7611 -0.3066
  483TIP3    H123008   4.867   2.600   0.689  0.3723  0.3720  1.2011
  483TIP3    H223009   4.837   2.452   0.698  2.3085 -0.1745 -0.4596
  484TIP3   OH223010   1.018   1.734   0.562 -0.4426 -0.2967 -0.0708
  484TIP3    H123011   1.019   1.639   0.552 -1.6003 -0.3805  0.4650
  484TIP3    H223012   0.941   1.752   0.615 -0.8744  1.0452 -1.1043
  485TIP3   OH223013   2.531   4.753   7.408 -0.1155  0.2242 -0.4401
  485TIP3    H123014   2.557   4.749   7.316 -1.0082  0.9380 -0.7457
  485TIP3    H223015   2.439   4.725   7.408  0.3837 -1.5531  0.4996
  486TIP3   OH223016   0.047   4.739   0.788 -0.3084  0.3289 -0.0355
  486TIP3    H123017  -0.014   4.792   0.839 -2.4621 -0.0956 -2.0138
  486TIP3    H223018   0.124   4.795   0.776 -0.8728  1.4349  1.2945
  487TIP3   OH223019   1.936   3.389   0.628  0.8436  0.3116 -0.2820
  487TIP3    H123020   1.971   3.373   0.715  1.3986  0.5145 -0.4589
  487TIP3    H223021   2.014   3.406   0.574  0.5799 -0.6286 -0.9930
  488TIP3   OH223022   0.250   1.297   8.533 -0.1767 -0.3679 -0.2544
  488TIP3    H123023   0.336   1.288   8.575 -0.0135  1.1980 -0.2173
  488TIP3    H223024   0.256   1.243   8.454  1.6171  1.4056 -1.4024
  489TIP3   OH223025   3.520   4.144   6.921  0.1877 -0.1325 -0.6142
  489TIP3    H123026   3.546   4.061   6.882  2.7774  1.4026 -2.5220
  489TIP3    H223027   3.492   4.198   6.847 -1.7416  0.6780  0.6091
  490TIP3   OH223028   0.534   0.157   7.414 -0.1725  0.2863  0.5401
  490TIP3    H123029   0.512   0.208   7.492 -0.5835  1.0249 -0.0352
  490TIP3    H223030   0.596   0.212   7.366 -1.8957  1.0642 -0.9255
  491TIP3   OH223031   4.529   5.676   2.132  0.5147  0.8864 -0.6658
  491TIP3    H123032   4.607   5.620   2.127 -0.2859 -0.3266  0.1263
  491TIP3    H223033   4.533   5.728   2.051  2.4719  1.3307 -0.3473
  492TIP3   OH223034   0.456   5.230   7.262  0.6077  0.3122  0.2473
  492TIP3    H123035   0.453   5.151   7.209 -1.2632 -0.7183  1.7529
  492TIP3    H223036   0.548   5.253   7.266  1.2065 -1.7936 -0.2267
  493TIP3   OH223037   5.408   4.537   8.289 -0.0067 -0.0744  0.2883
  493TIP3    H123038   5.432   4.618   8.243  0.2773 -0.9017 -1.1052
  493TIP3    H223039   5.443   4.547   8.377  2.4791  0.2119 -0.6632
  494TIP3   OH223040   6.598   6.654   0.904 -0.7427  0.0567 -0.9474
  494TIP3    H123041   6.648   6.722   0.859 -1.4452  1.2966  0.0764
  494TIP3    H223042   6.545   6.614   0.835 -2.8237  2.8104 -1.1333
  495TIP3   OH223043   2.506   3.731   8.195 -0.2692  0.6674 -0.2152
  495TIP3    H123044   2.500   3.825   8.177  0.4895  0.8162  0.2366
  495TIP3    H223045   2.422   3.708   8.235  0.3145  1.6333  1.6852
  496TIP3   OH223046   4.999   0.924   7.159  0.1282 -0.4403 -0.3822
  496TIP3    H123047   4.983   0.876   7.077  1.9796 -1.9281  0.0516
  496TIP3    H223048   5.006   1.016   7.132 -2.5286 -0.4357 -1.3851
  497TIP3   OH223049   1.282   6.351   8.783  0.3933 -0.3301 -0.5128
  497TIP3    H123050   1.217   6.280   8.792 -0.8541  0.9223  0.7587
  497TIP3    H223051   1.346   6.334   8.852 -0.2482  0.1112  0.2038
  498TIP3   OH223052   2.720   2.275   7.198 -0.5349  0.0801 -0.2278
  498TIP3    H123053   2.716   2.288   7.292 -0.1727  1.7297 -0.4094
  498TIP3    H223054   2.660   2.202   7.181 -0.9584  0.0676  1.2176
  499TIP3   OH223055   5.651   2.990   0.609  0.3715 -0.0819 -0.2223
  499TIP3    H123056   5.729   2.944   0.577  0.2237  0.5461 -1.5170
  499TIP3    H223057   5.612   2.929   0.673  0.6469 -1.4009 -1.2761
  500TIP3   OH223058   5.314   1.451   0.097 -0.4683  0.2885 -0.0446
  500TIP3    H123059   5.326   1.356   0.095  0.8625  0.4362 -0.2600
  500TIP3    H223060   5.344   1.480   0.011  1.4991  1.1217  0.8630
  501TIP3   OH223061   4.075   1.317   2.137 -0.3382  0.3271 -0.1172
  501TIP3    H123062   4.073   1.395   2.193  1.1040  1.3877 -1.4300
  501TIP3    H223063   4.169   1.295   2.131 -0.7344 -1.8266  0.5803
  502TIP3   OH223064   0.051   0.748   7.167  0.0064 -0.0595  0.0787
  502TIP3    H123065   0.028   0.656   7.155  0.1099  0.0436 -1.0181
  502TIP3    H223066  -0.033   0.791   7.183 -0.1312 -0.2280 -0.1828
  503TIP3   OH223067   2.071   6.340   6.347 -0.3103 -0.1255 -0.1509
  503TIP3    H123068   2.087   6.347   6.441 -0.2015  0.5889 -0.2182
  503TIP3    H223069   2.140   6.281   6.316 -0.6592 -0.7743  0.2926
  504TIP3   OH223070   3.115   2.508   8.577 -0.0110 -0.1477  0.0819
  504TIP3    H123071   3.095   2.459   8.497  0.3602 -1.4427  0.7497
  504TIP3    H223072   3.103   2.445   8.647  2.1140  0.2259  0.8601
  505TIP3   OH223073   2.038   2.832   6.733 -0.1174 -0.2773  0.0114
  505TIP3    H123074   2.019   2.768   6.801 -0.1737 -0.0124  0.2450
  505TIP3    H223075   2.132   2.847   6.740 -0.6660  2.9742  2.9367
  506TIP3   OH223076   0.666   6.788   0.398 -0.4799 -0.2152  0.2740
  506TIP3    H123077   0.602   6.798   0.328  0.3529 -0.0448 -0.4751
  506TIP3    H223078   0.660   6.869   0.448 -1.0683 -0.3341  0.4063
  507TIP3   OH223079   1.419   4.413   0.259  0.2957 -0.3358  0.4102
  507TIP3    H123080   1.421   4.321   0.286  1.4226 -0.1755  0.9174
  507TIP3    H223081   1.380   4.459   0.333  0.9874 -0.2359  0.7192
  508TIP3   OH223082   0.664   0.214   1.506  0.6986  0.8223  0.0642
  508TIP3    H123083   0.750   0.254   1.495  0.8149  0.7097  0.5213
  508TIP3    H223084   0.675   0.153   1.579  0.1737  0.9663  0.2713
  509TIP3   OH223085   4.639   6.643   8.746  0.0567 -0.3201  0.3752
  509TIP3    H123086   4.730   6.670   8.763  0.2243  0.3879 -1.4692
  509TIP3    H223087   4.602   6.632   8.834  2.6045 -3.1975  1.2900
  510TIP3   OH223088   6.083   3.892   6.914 -0.5214  0.3118 -0.0298
  510TIP3    H123089   6.023   3.831   6.959 -0.4755  0.9398  0.9049
  510TIP3    H223090   6.159   3.838   6.892 -0.7256 -0.1134  0.2831
  511TIP3   OH223091   6.092   5.443   0.332 -0.1550 -0.8678 -0.4994
  511TIP3    H123092   6.142   5.365   0.311  1.1698  0.3665 -2.2421
  511TIP3    H223093   6.142   5.486   0.402 -0.8739 -1.5409  0.4462
  512TIP3   OH223094   3.688   0.257   8.537 -0.3268  0.3771 -0.0720
  512TIP3    H123095   3.656   0.172   8.566 -0.7423  0.6084  0.1586
  512TIP3    H223096   3.679   0.313   8.614  0.9215  0.3795  0.0942
  513TIP3   OH223097   1.130   5.069   8.358 -0.2123  0.2201 -0.2879
  513TIP3    H123098   1.211   5.079   8.307  1.7748 -3.1031  1.8445
  513TIP3    H223099   1.064   5.043   8.294  1.5698 -1.4149 -1.5967
  514TIP3   OH223100   2.603   4.487   1.627  0.0330  0.6365  0.2998
  514TIP3    H123101   2.696   4.507   1.624  0.6042 -1.8818 -1.3053
  514TIP3    H223102   2.587   4.457   1.716  0.8404  0.7108  0.4759
  515TIP3   OH223103   1.687   4.469   6.913  0.6385  0.4794  0.0587
  515TIP3    H123104   1.695   4.407   6.840  0.8465  0.2446  0.2787
  515TIP3    H223105   1.743   4.543   6.887  0.0275  0.7805 -0.4140
  516TIP3   OH223106   1.120   6.278   2.737 -0.1411  0.3617 -0.2590
  516TIP3    H123107   1.035   6.263   2.696 -1.3921  3.6021  0.8373
  516TIP3    H223108   1.153   6.358   2.695  0.8482  0.9615  1.5624
  517TIP3   OH223109   4.383   4.968   8.320  0.4457  0.3993  0.2020
  517TIP3    H123110   4.412   5.020   8.246 -2.8670 -0.7597 -2.1817
  517TIP3    H223111   4.308   5.016   8.356 -0.9584 -1.2444 -0.3347
  518TIP3   OH223112   6.362   3.333   8.230  0.1250 -0.1531  0.0280
  518TIP3    H123113   6.340   3.398   8.164  1.7166  1.2668  0.8375
  518TIP3    H223114   6.376   3.383   8.310  1.8784 -1.3891  0.5578
  519TIP3   OH223115   4.288   0.839   8.520 -0.1998  0.3419  0.2427
  519TIP3    H123116   4.338   0.763   8.548 -0.6266 -0.8519 -2.0205
  519TIP3    H223117   4.199   0.806   8.510 -0.6141  1.4216  0.2622
  520TIP3   OH223118   4.552   1.946   7.872 -0.2742  0.6979 -0.6705
  520TIP3    H123119   4.612   1.998   7.818 -0.5993  0.2902 -1.4493
  520TIP3    H223120   4.514   2.008   7.933 -0.0788  1.2261 -1.0792
  521TIP3   OH223121   1.292   5.746   7.100  0.9013  0.2313 -0.0061
  521TIP3    H123122   1.327   5.784   7.181 -0.3593  2.3480 -0.3715
  521TIP3    H223123   1.210   5.704   7.128  1.2391 -0.3939  0.0542
  522TIP3   OH223124   2.186   1.799   1.412 -0.2260  0.7649 -0.4136
  522TIP3    H123125   2.125   1.785   1.340  0.6363 -2.2876 -0.6810
  522TIP3    H223126   2.139   1.770   1.490  0.0778  0.6042 -0.2861
  523TIP3   OH223127   5.606   3.227   0.435  0.6184  0.3231  0.0417
  523TIP3    H123128   5.683   3.284   0.426  0.9208 -0.2388 -1.2940
  523TIP3    H223129   5.637   3.154   0.489  1.4262 -0.4929 -1.4431
  524TIP3   OH223130   4.742   1.391   1.226  0.5287  0.4682  0.3313
  524TIP3    H123131   4.679   1.360   1.291 -0.3610  0.0222 -0.7032
  524TIP3    H223132   4.828   1.370   1.262  0.0813  0.8004  1.6370
  525TIP3   OH223133   5.821   4.037   7.429 -0.2429 -0.1526 -0.1203
  525TIP3    H123134   5.873   4.116   7.416  1.5471 -1.2727 -0.0840
  525TIP3    H223135   5.731   4.064   7.410  0.5170  1.4982 -1.6813
  526TIP3   OH223136   1.747   0.122   8.674  0.0557 -0.4128 -0.7402
  526TIP3    H123137   1.705   0.047   8.717  1.2886 -1.6011 -1.5262
  526TIP3    H223138   1.677   0.187   8.665 -0.6667 -0.8223  1.3850
  527TIP3   OH223139   2.689   5.667   1.799 -0.5551 -0.0026  0.4568
  527TIP3    H123140   2.655   5.633   1.717 -1.9062  1.1243  0.5080
  527TIP3    H223141   2.777   5.631   1.806  0.3712  1.4087 -2.4540
  528TIP3   OH223142   3.605   0.732   0.020 -0.5676 -0.2277 -0.1890
  528TIP3    H123143   3.689   0.686   0.020 -0.9797 -0.9849 -0.0884
  528TIP3    H223144   3.574   0.725   0.110 -0.7743 -0.0064 -0.2426
  529TIP3   OH223145   6.593   3.362   2.228 -0.3366 -0.4859 -0.2157
  529TIP3    H123146   6.631   3.380   2.314 -1.3221  1.5855 -0.1391
  529TIP3    H223147   6.588   3.447   2.186 -1.1618 -1.2637 -1.7878
  530TIP3   OH223148   3.728   3.982   1.254  0.0245 -0.2367  0.0695
  530TIP3    H123149   3.714   3.899   1.208 -0.9380 -0.4826  0.7827
  530TIP3    H223150   3.718   3.960   1.347  0.6136  0.5188  0.3209
  531TIP3   OH223151   2.155   4.076   8.187 -0.0002  0.4977 -0.5315
  531TIP3    H123152   2.221   4.071   8.117  0.1967  1.1701 -0.4021
  531TIP3    H223153   2.199   4.041   8.264  1.7574  4.7358  0.6551
  532TIP3   OH223154   3.841   2.004   8.751  0.1340 -0.1431 -0.0295
  532TIP3    H123155   3.929   1.986   8.783 -0.3755  0.6188  2.0013
  532TIP3    H223156   3.793   1.923   8.768  0.2750 -0.3208 -0.4773
  533TIP3   OH223157   0.374   4.538   8.175 -0.3493  0.1098  0.2059
  533TIP3    H123158   0.284   4.538   8.209 -0.1033 -1.4283  0.9160
  533TIP3    H223159   0.399   4.630   8.174 -2.2769  0.6773 -0.9510
  534TIP3   OH223160   5.532   6.059   8.732  0.2018 -0.6836 -0.2519
  534TIP3    H123161   5.622   6.027   8.726 -0.3174 -2.1852 -0.3406
  534TIP3    H223162   5.477   5.982   8.719 -1.1100 -0.2201  2.0081
  535TIP3   OH223163   1.766   3.221   7.052  0.2503  0.4307  0.1964
  535TIP3    H123164   1.740   3.147   6.996  0.6225 -0.7078  1.4736
  535TIP3    H223165   1.793   3.180   7.134  0.6937  1.9920  0.8568
  536TIP3   OH223166   4.798   1.811   7.462 -0.1494 -0.3610 -0.1950
  536TIP3    H123167   4.732   1.806   7.393  0.9722 -1.6834 -1.2277
  536TIP3    H223168   4.756   1.773   7.539 -2.5076  3.8180  0.9024
  537TIP3   OH223169   1.433   0.377   7.943  1.2012  0.4387  0.1399
  537TIP3    H123170   1.375   0.303   7.929  0.0070  1.5366 -1.0922
  537TIP3    H223171   1.390   0.430   8.010  2.1084 -0.0178  1.1101
  538TIP3   OH223172   2.294   0.424   1.918 -0.6967 -0.0756  0.0442
  538TIP3    H123173   2.321   0.338   1.887 -0.2911 -0.1282  0.5240
  538TIP3    H223174   2.369   0.481   1.900 -0.8102  0.0894  0.0865
  539TIP3   OH223175   2.659   1.266   7.711 -0.5122 -0.3886  0.1248
  539TIP3    H123176   2.568   1.238   7.704 -0.8527  0.5995  0.4716
  539TIP3    H223177   2.701   1.197   7.764 -0.8120 -1.3488 -0.8470
  540TIP3   OH223178   0.893   2.907   1.574 -0.5263 -0.1472  0.1568
  540TIP3    H123179   0.911   2.831   1.630  0.4458 -1.0518 -1.3187
  540TIP3    H223180   0.875   2.870   1.488 -1.9847  1.2144 -0.1719
  541TIP3   OH223181   3.364   0.183   0.533  0.3811  0.0967  0.2178
  541TIP3    H123182   3.418   0.224   0.601  0.7382 -0.0360  0.0151
  541TIP3    H223183   3.274   0.197   0.563  0.5369 -0.0458  0.7689
  542TIP3   OH223184   0.681   3.032   0.804 -0.6357  0.2784 -0.7172
  542TIP3    H123185   0.675   3.055   0.711 -0.4543 -0.3375 -0.8808
  542TIP3    H223186   0.713   3.112   0.846  0.4365  0.1964 -1.3491
  543TIP3   OH223187   4.659   3.009   6.219  0.8640 -0.1025 -0.4781
  543TIP3    H123188   4.666   2.943   6.150  0.1385  0.1219 -0.7710
  543TIP3    H223189   4.602   2.968   6.285  1.5454 -0.3139  0.0009
  544TIP3   OH223190   4.262   3.971   8.050  0.3543 -0.1387 -0.3561
  544TIP3    H123191   4.261   4.061   8.016  2.2272 -0.1001 -0.4302
  544TIP3    H223192   4.179   3.962   8.096 -0.2984  1.3038 -1.1693
  545TIP3   OH223193   5.242   6.284   8.260  0.4450  0.1069 -0.1981
  545TIP3    H123194   5.248   6.357   8.322  2.1971  0.1043 -0.3095
  545TIP3    H223195   5.221   6.208   8.314  0.9144  0.2957  0.2602
  546TIP3   OH223196   6.485   3.287   8.671  0.7675  0.2075  0.4911
  546TIP3    H123197   6.525   3.318   8.589  0.9969 -0.6233  0.2848
  546TIP3    H223198   6.491   3.192   8.666  0.4044  0.1397  1.2925
  547TIP3   OH223199   2.471   6.004   6.322  0.2583 -0.1879 -0.1731
  547TIP3    H123200   2.529   6.080   6.327  1.1516 -0.9482  2.0420
  547TIP3    H223201   2.516   5.945   6.262  1.6784 -0.6338  1.2692
  548TIP3   OH223202   6.018   0.972   0.621 -0.2683  0.6872  0.0343
  548TIP3    H123203   6.092   1.033   0.622  1.3888 -1.1933  1.4109
  548TIP3    H223204   5.944   1.024   0.589  0.8413  3.6205  1.8355
  549TIP3   OH223205   1.478   5.948   0.102 -0.1136 -0.6112 -0.3231
  549TIP3    H123206   1.532   6.010   0.152  1.0834 -1.9739  0.1205
  549TIP3    H223207   1.395   5.994   0.091  1.0977  1.5506 -1.0223
  550TIP3   OH223208   3.945   1.876   1.253  0.0551 -0.3659  0.1893
  550TIP3    H123209   3.916   1.966   1.241 -1.2321 -0.7473  0.2680
  550TIP3    H223210   3.877   1.836   1.308  0.7227 -1.3183  0.3465
  551TIP3   OH223211   6.408   1.852   1.566 -0.5521  0.2407  0.2079
  551TIP3    H123212   6.355   1.777   1.540  0.1894  0.6349 -2.7857
  551TIP3    H223213   6.343   1.920   1.589 -1.3928  0.2546 -1.9928
  552TIP3   OH223214   0.641   1.465   7.708 -0.2818  0.0201 -0.5961
  552TIP3    H123215   0.579   1.522   7.662 -0.5218 -0.5873 -1.0472
  552TIP3    H223216   0.648   1.388   7.651 -2.0641 -1.6404  1.2680
  553TIP3   OH223217   2.617   2.699   2.222  0.6609 -0.0699  0.5029
  553TIP3    H123218   2.680   2.754   2.175 -1.2028  1.4772 -0.3089
  553TIP3    H223219   2.574   2.758   2.284 -1.4330 -0.5257 -0.4189
  554TIP3   OH223220   6.759   3.686   7.983  0.0633  0.5012 -0.4384
  554TIP3    H123221   6.787   3.708   7.894  1.0069  2.0709  0.2103
  554TIP3    H223222   6.818   3.614   8.009  1.3860  1.5987 -0.2733
  555TIP3   OH223223   5.617   6.696   7.206  0.1182 -0.5332 -0.0698
  555TIP3    H123224   5.528   6.730   7.199 -0.1321 -1.4315 -1.5198
  555TIP3    H223225   5.670   6.756   7.154 -0.0833 -1.4547 -1.3789
  556TIP3   OH223226   1.024   5.619   7.400 -0.5627  0.4062  0.3123
  556TIP3    H123227   1.050   5.711   7.405 -2.0885  0.8474  0.5391
  556TIP3    H223228   0.976   5.604   7.481  1.5109 -1.2362  1.3420
  557TIP3   OH223229   0.413   3.400   7.633 -0.3106  0.5149  0.0263
  557TIP3    H123230   0.390   3.432   7.545  0.3854  0.4804 -0.1733
  557TIP3    H223231   0.452   3.314   7.618 -0.3298  0.4413  0.3872
  558TIP3   OH223232   2.880   0.583   6.615  0.4480  1.3834  0.0165
  558TIP3    H123233   2.803   0.639   6.612 -1.2146 -0.8026 -1.3310
  558TIP3    H223234   2.939   0.620   6.549 -0.4159  1.7993 -0.5386
  559TIP3   OH223235   0.131   1.585   1.446 -0.2367 -0.1166  0.2934
  559TIP3    H123236   0.224   1.571   1.429 -0.4590 -0.2361 -0.8869
  559TIP3    H223237   0.123   1.680   1.456 -0.1994  0.0596 -1.0921
  560TIP3   OH223238   0.576   2.175   7.719  0.2341 -0.1957  0.1870
  560TIP3    H123239   0.538   2.196   7.633 -2.2827  0.6828  1.4249
  560TIP3    H223240   0.563   2.081   7.728  2.1739 -0.6494 -1.0812
  561TIP3   OH223241   0.621   4.478   0.466  0.1911 -0.4324 -0.5945
  561TIP3    H123242   0.657   4.497   0.380 -0.0279 -0.0543 -0.6058
  561TIP3    H223243   0.660   4.544   0.524  1.7366 -1.7665 -0.0380
  562TIP3   OH223244   6.694   2.202   8.789 -0.4592 -0.1300  0.1104
  562TIP3    H123245   6.756   2.223   8.859 -0.1236  1.0617 -0.5122
  562TIP3    H223246   6.611   2.186   8.834  0.2895 -1.8910  0.9712
  563TIP3   OH223247   1.509   0.684   2.481  0.5678 -0.4458  0.4200
  563TIP3    H123248   1.455   0.606   2.493 -0.1708 -0.6907 -3.1690
  563TIP3    H223249   1.447   0.757   2.484  0.9198 -0.1752  1.5658
  564TIP3   OH223250   1.138   5.423   0.267  0.0152 -0.2651  0.1919
  564TIP3    H123251   1.149   5.486   0.195 -1.9511  0.3264  0.3663
  564TIP3    H223252   1.155   5.338   0.227 -0.9898  0.0620 -0.9882
  565TIP3   OH223253   0.945   6.309   0.311  0.6237  0.1599 -0.2372
  565TIP3    H123254   1.010   6.242   0.329  0.3479 -0.4217 -1.3497
  565TIP3    H223255   0.948   6.321   0.216  1.4658  2.5376  0.0243
  566TIP3   OH223256   0.360   0.758   8.253 -0.3117  0.6985  0.3023
  566TIP3    H123257   0.363   0.684   8.193  0.0038  0.9644 -0.0154
  566TIP3    H223258   0.429   0.740   8.317  0.2756  1.0790 -0.2109
  567TIP3   OH223259   2.894   4.486   0.895  0.0114  0.2338 -0.2336
  567TIP3    H123260   2.888   4.411   0.836 -1.5095  0.4956 -0.4685
  567TIP3    H223261   2.830   4.468   0.964  1.5383  0.0783  1.2116
  568TIP3   OH223262   3.141   1.069   6.974 -0.2002 -0.1108  0.8016
  568TIP3    H123263   3.134   1.095   7.066 -0.1512 -0.6142  0.9489
  568TIP3    H223264   3.051   1.067   6.943 -0.2231 -0.0319  0.8615
  569TIP3   OH223265   0.358   1.729   2.883 -0.1858 -0.2841  0.2553
  569TIP3    H123266   0.410   1.719   2.803  0.3171  0.3697  0.4879
  569TIP3    H223267   0.284   1.670   2.871 -1.7552  1.9315 -2.0148
  570TIP3   OH223268   3.641   5.801   0.971 -0.5102  0.0040 -0.3281
  570TIP3    H123269   3.686   5.778   0.890 -0.0884  0.7104 -0.3021
  570TIP3    H223270   3.699   5.771   1.041 -1.2226 -1.2931 -0.2633
  571TIP3   OH223271   4.309   2.106   0.546  0.5716  0.6488 -1.1023
  571TIP3    H123272   4.339   2.122   0.636  2.0566 -0.9855 -1.2534
  571TIP3    H223273   4.222   2.067   0.557  1.1894 -0.5895 -0.2716
  572TIP3   OH223274   0.681   1.198   7.563  0.2772  0.3256 -0.2338
  572TIP3    H123275   0.706   1.131   7.500  1.2153  0.4936 -0.0447
  572TIP3    H223276   0.613   1.157   7.617  0.3762 -0.2398 -0.5390
  573TIP3   OH223277   5.509   5.686   1.617 -0.6789  0.0877  0.0135
  573TIP3    H123278   5.451   5.739   1.671  0.2990  0.8113  0.3912
  573TIP3    H223279   5.543   5.619   1.676 -0.4043  0.2462  0.0360
  574TIP3   OH223280   1.006   1.433   1.561 -0.4822  0.1816  0.1962
  574TIP3    H123281   1.077   1.476   1.514  0.7277 -0.4710  1.3735
  574TIP3    H223282   0.937   1.500   1.567 -0.1415  0.7001 -1.2749
  575TIP3   OH223283   4.288   1.437   1.757 -0.6938  0.1163  0.1898
  575TIP3    H123284   4.344   1.424   1.833 -1.2942 -1.7452  0.3746
  575TIP3    H223285   4.347   1.432   1.682 -0.4769 -1.0667  0.4186
  576TIP3   OH223286   3.061   3.609   0.577  0.2672  0.4178 -0.1986
  576TIP3    H123287   3.131   3.570   0.628  1.3017  0.7931 -1.3027
  576TIP3    H223288   3.103   3.643   0.498 -1.0359  1.2618 -0.5783
  577TIP3   OH223289   1.665   0.220   1.780  0.5936  0.0469 -0.4348
  577TIP3    H123290   1.737   0.279   1.760  0.0480  0.6746 -0.5880
  577TIP3    H223291   1.706   0.142   1.817  1.2510  0.8950  0.6452
  578TIP3   OH223292   2.434   6.584   7.861 -0.3533  0.2853 -0.5400
  578TIP3    H123293   2.421   6.672   7.895 -1.1203 -0.3141  0.7920
  578TIP3    H223294   2.351   6.562   7.818 -0.7893 -0.4036  0.6168
  579TIP3   OH223295   4.670   5.963   1.013  0.3330 -0.0625 -0.0182
  579TIP3    H123296   4.708   6.040   0.970 -0.4878  1.1395  1.3130
  579TIP3    H223297   4.644   5.995   1.100  1.4305 -2.2561  1.1835
  580TIP3   OH223298   0.540   4.219   0.476  0.1780 -0.0180 -0.1085
  580TIP3    H123299   0.553   4.314   0.470 -0.7574  0.3310  2.4021
  580TIP3    H223300   0.448   4.209   0.499  0.0131 -1.6266 -1.2723
  581TIP3   OH223301   2.715   6.664   1.375 -0.6116  0.6226 -0.3193
  581TIP3    H123302   2.788   6.638   1.431  0.5115  0.0082 -1.9710
  581TIP3    H223303   2.664   6.583   1.363 -0.0613  0.3989 -1.2609
  582TIP3   OH223304   2.515   5.796   8.326 -0.0232  0.2702  0.1397
  582TIP3    H123305   2.605   5.767   8.341  0.0350  0.9069  1.1050
  582TIP3    H223306   2.471   5.784   8.410 -1.1545 -1.0440 -0.5936
  583TIP3   OH223307   2.151   5.590   7.173 -0.5338 -1.0380  0.3828
  583TIP3    H123308   2.109   5.650   7.112  1.3080 -0.7129 -0.6613
  583TIP3    H223309   2.220   5.642   7.214 -2.0506 -1.0987  3.2226
  584TIP3   OH223310   4.726   0.514   7.679  0.2692 -0.0342  0.5198
  584TIP3    H123311   4.802   0.459   7.660  0.4959  0.7761 -1.1074
  584TIP3    H223312   4.762   0.601   7.697 -0.1738 -0.0526  1.5555
  585TIP3   OH223313   4.438   3.594   7.314  0.4796  0.0905  0.3985
  585TIP3    H123314   4.451   3.502   7.340 -0.2466 -0.3798 -0.8385
  585TIP3    H223315   4.525   3.634   7.326  0.7170 -0.6435  1.3080
  586TIP3   OH223316   4.950   3.860   0.173  0.0663  0.4433 -0.2974
  586TIP3    H123317   4.990   3.887   0.090 -0.8427 -0.0485 -0.9153
  586TIP3    H223318   4.864   3.903   0.173 -0.3192 -0.3081 -0.0562
  587TIP3   OH223319   1.053   0.171   0.203 -0.3950  0.1486  0.0666
  587TIP3    H123320   0.970   0.218   0.208 -1.0049 -0.9755  1.1622
  587TIP3    H223321   1.064   0.152   0.110 -1.1767  0.6296 -0.1355
  588TIP3   OH223322   3.726   1.919   0.286 -0.5424 -0.3098  0.2774
  588TIP3    H123323   3.756   1.871   0.362  0.1448  0.1219  0.2858
  588TIP3    H223324   3.702   1.851   0.223  1.5127 -0.7096 -0.1478
  589TIP3   OH223325   6.522   2.266   1.097  0.6797 -0.3840  0.9895
  589TIP3    H123326   6.493   2.338   1.041 -0.3982 -1.2398  0.4216
  589TIP3    H223327   6.603   2.236   1.057  0.6809 -0.0488  0.7371
  590TIP3   OH223328   0.283   0.270   6.897  0.2227  0.4048 -0.4512
  590TIP3    H123329   0.211   0.240   6.842  0.9724  2.8946 -3.0999
  590TIP3    H223330   0.328   0.335   6.843  4.3094 -0.7639  1.1488
  591TIP3   OH223331   3.606   5.903   0.535  0.1452 -0.2522  0.5244
  591TIP3    H123332   3.541   5.874   0.599  1.1591 -0.8902  1.2970
  591TIP3    H223333   3.689   5.896   0.581  0.9471 -1.0200 -0.9741
  592TIP3   OH223334   5.997   5.308   8.200 -0.0251  0.5010 -0.0398
  592TIP3    H123335   5.993   5.315   8.105  1.7173 -0.7489 -0.2402
  592TIP3    H223336   6.002   5.214   8.217 -1.8710  0.5971  1.4012
  593TIP3   OH223337   5.787   2.543   0.368 -0.1623 -0.4815 -0.1061
  593TIP3    H123338   5.838   2.480   0.317  0.1084 -0.0426 -0.3803
  593TIP3    H223339   5.712   2.492   0.400  0.7554 -1.2927  0.8303
  594TIP3   OH223340   2.034   3.027   6.517  0.3945 -0.4270 -1.2989
  594TIP3    H123341   1.954   3.030   6.466 -0.5744  1.6843  0.1699
  594TIP3    H223342   2.014   2.968   6.590 -0.5049  1.3222 -0.0425
  595TIP3   OH223343   4.525   3.615   0.117  0.5991  0.0020  0.6829
  595TIP3    H123344   4.521   3.690   0.058  0.5490 -0.1485  0.4916
  595TIP3    H223345   4.534   3.539   0.058  0.1487 -0.1863  0.8484
  596TIP3   OH223346   1.909   0.694   1.573 -1.0029 -1.1091 -0.4781
  596TIP3    H123347   1.983   0.670   1.628 -0.6235 -0.3791 -0.6665
  596TIP3    H223348   1.917   0.638   1.495 -0.6803 -1.0672 -0.4755
  597TIP3   OH223349   0.257   0.878   1.720  0.0209 -0.3873  0.1987
  597TIP3    H123350   0.207   0.880   1.801  1.5906 -0.7517  1.2151
  597TIP3    H223351   0.322   0.947   1.730 -0.5464  0.4076 -1.3060
  598TIP3   OH223352   3.053   5.167   1.166 -0.3384 -0.5035  0.8886
  598TIP3    H123353   3.094   5.246   1.202 -2.0919  0.3015  1.2583
  598TIP3    H223354   3.019   5.121   1.243 -2.3890  0.2199  0.4883
  599TIP3   OH223355   6.775   4.565   0.434 -0.1090 -0.1230 -0.0830
  599TIP3    H123356   6.728   4.584   0.515 -1.0227 -1.4794 -0.2575
  599TIP3    H223357   6.796   4.472   0.440 -1.6082 -0.6675 -2.0771
  600TIP3   OH223358   6.007   5.693   7.067 -0.1810  0.1531 -0.3066
  600TIP3    H123359   6.011   5.605   7.104 -1.5979  0.3721  0.3906
  600TIP3    H223360   5.943   5.739   7.120  0.5327  1.6223 -0.6756
  601TIP3   OH223361   2.344   3.885   6.970 -0.2282 -0.1252  0.4733
  601TIP3    H123362   2.413   3.820   6.983  0.6973  0.5986 -0.6616
  601TIP3    H223363   2.274   3.835   6.927  0.8503 -0.2211 -1.2838
  602TIP3   OH223364   5.619   5.469   7.199  0.5198 -0.3250 -0.0480
  602TIP3    H123365   5.634   5.474   7.294  0.4200 -0.8840  0.0028
  602TIP3    H223366   5.559   5.541   7.180  0.0271 -0.6033  0.4261
  603TIP3   OH223367   6.220   0.453   8.663 -0.0512 -0.5385  0.1409
  603TIP3    H123368   6.197   0.487   8.577 -0.4105 -0.2605  0.3419
  603TIP3    H223369   6.314   0.434   8.657 -0.1221 -0.7386 -0.3777
  604TIP3   OH223370   5.566   2.773   0.167  0.1013 -0.3163  0.4157
  604TIP3    H123371   5.652   2.784   0.207  0.8120 -0.4677 -1.0154
  604TIP3    H223372   5.583   2.733   0.082 -1.1760  1.4169 -0.7490
  605TIP3   OH223373   4.490   0.990   7.717  0.5836 -0.3001  0.5652
  605TIP3    H123374   4.554   0.943   7.770 -0.5314 -1.4229  0.9643
  605TIP3    H223375   4.414   0.931   7.713 -1.0721  1.6336  1.4729
  606TIP3   OH223376   3.270   3.217   1.682  0.0462 -0.3397 -0.5536
  606TIP3    H123377   3.209   3.246   1.614  0.4745  0.6284 -0.5485
  606TIP3    H223378   3.353   3.205   1.635  0.6397  1.4591 -0.0313
  607TIP3   OH223379   3.581   0.626   6.879 -0.0557  0.5216  0.2486
  607TIP3    H123380   3.599   0.675   6.960 -0.0227 -0.5975  0.9403
  607TIP3    H223381   3.667   0.596   6.851 -0.3696 -2.0686  1.7650
  608TIP3   OH223382   4.782   4.877   8.632  0.0650 -0.0688  0.0517
  608TIP3    H123383   4.772   4.865   8.538  0.0517 -0.4498  0.1008
  608TIP3    H223384   4.790   4.789   8.667  0.0656  0.0703  0.4096
  609TIP3   OH223385   6.358   5.687   0.280 -0.5005  0.2076  0.4994
  609TIP3    H123386   6.304   5.712   0.205  0.8627  0.6661 -0.3667
  609TIP3    H223387   6.354   5.762   0.338 -0.9817  0.1374  0.5660
  610TIP3   OH223388   5.523   6.593   6.384  0.0032  0.4785 -0.3807
  610TIP3    H123389   5.611   6.561   6.404 -0.3395 -0.7976 -0.8257
  610TIP3    H223390   5.524   6.685   6.412  0.6155 -0.2321  2.2705
  611TIP3   OH223391   6.498   4.469   1.999  0.0924  0.2739  0.6518
  611TIP3    H123392   6.553   4.531   1.952  0.3687 -0.5112 -0.0655
  611TIP3    H223393   6.484   4.510   2.085  2.6329  0.0331  1.2546
  612TIP3   OH223394   6.335   1.561   0.758 -0.1520 -0.2284 -0.3245
  612TIP3    H123395   6.347   1.646   0.802 -0.1892  0.1662 -1.0601
  612TIP3    H223396   6.294   1.506   0.824  0.7553  0.0330  0.4815
  613TIP3   OH223397   3.476   4.405   1.982  0.1419 -0.0100 -0.2135
  613TIP3    H123398   3.529   4.432   2.057 -0.4271  0.7264 -0.0627
  613TIP3    H223399   3.388   4.395   2.017 -0.0899  0.1477 -0.7416
  614TIP3   OH223400   4.488   4.712   6.447  0.3412  0.2363 -0.2160
  614TIP3    H123401   4.489   4.643   6.380  0.8541  1.0607 -1.0826
  614TIP3    H223402   4.407   4.696   6.496 -2.3137  1.8978 -3.5526
  615TIP3   OH223403   5.434   2.485   0.087  0.0308  0.0851 -0.2544
  615TIP3    H123404   5.361   2.462   0.030  1.9815 -0.1683 -2.8329
  615TIP3    H223405   5.410   2.571   0.122 -1.9104 -0.4185 -0.2216
  616TIP3   OH223406   4.341   6.474   0.642 -0.0811  0.3312  0.1674
  616TIP3    H123407   4.316   6.421   0.566 -0.1015 -1.1561  1.1676
  616TIP3    H223408   4.306   6.426   0.717  0.4100  1.4822  1.1716
  617TIP3   OH223409   4.573   2.236   2.332  0.1799  0.1037  0.2749
  617TIP3    H123410   4.544   2.249   2.422 -0.1614 -4.4950  1.0406
  617TIP3    H223411   4.496   2.259   2.279 -0.3248  0.7991  1.2760
  618TIP3   OH223412   6.615   0.888   7.189  0.5492  0.7578 -0.0732
  618TIP3    H123413   6.555   0.907   7.118 -0.3581 -2.7308 -0.4528
  618TIP3    H223414   6.579   0.935   7.264 -0.6283  1.5186 -1.0810
  619TIP3   OH223415   3.819   1.836   7.730 -0.4163 -0.6054  0.4570
  619TIP3    H123416   3.827   1.890   7.651  0.0751  0.2991  1.1164
  619TIP3    H223417   3.898   1.783   7.731 -0.6526 -0.9692  0.0865
  620TIP3   OH223418   6.442   6.561   1.130 -0.2155 -0.5826  0.3826
  620TIP3    H123419   6.443   6.609   1.048  0.0546 -0.0398  0.6931
  620TIP3    H223420   6.447   6.469   1.105 -3.4464 -0.6740 -0.3345
  621TIP3   OH223421   6.525   3.301   0.543 -0.5119 -0.0726 -1.0545
  621TIP3    H123422   6.508   3.352   0.621 -2.1558 -0.9116 -0.8150
  621TIP3    H223423   6.459   3.232   0.544  1.7755 -2.4291 -1.1944
  622TIP3   OH223424   4.182   6.294   6.641 -0.0658 -0.1963  0.2857
  622TIP3    H123425   4.119   6.243   6.591 -0.6357 -0.7767  1.5777
  622TIP3    H223426   4.265   6.281   6.594 -0.5108 -1.0162 -0.2983
  623TIP3   OH223427   4.715   4.461   7.522  0.3918 -0.1853  0.3619
  623TIP3    H123428   4.723   4.443   7.428 -0.3673 -2.7721  0.7028
  623TIP3    H223429   4.802   4.442   7.557  0.7530  1.0532  0.1768
  624TIP3   OH223430   0.823   3.848   0.199  0.0945 -0.5194 -0.4019
  624TIP3    H123431   0.861   3.923   0.153 -1.0086 -0.5094 -1.3103
  624TIP3    H223432   0.888   3.827   0.267  1.6472 -0.3891 -1.7807
  625TIP3   OH223433   5.893   4.910   6.245 -0.2157  0.2234  0.4296
  625TIP3    H123434   5.866   4.852   6.315 -1.3389 -0.1126 -0.2602
  625TIP3    H223435   5.989   4.901   6.242 -0.3874 -2.4099 -0.3074
  626TIP3   OH223436   4.293   3.173   0.861  0.5458 -0.6955  0.6116
  626TIP3    H123437   4.344   3.168   0.942 -0.3977 -0.3534  1.2453
  626TIP3    H223438   4.202   3.180   0.891  0.3327  1.7156 -0.4082
  627TIP3   OH223439   1.390   1.010   1.309 -0.2333  0.1751 -0.7272
  627TIP3    H123440   1.344   1.093   1.304  1.2283  0.9485 -2.1311
  627TIP3    H223441   1.460   1.025   1.372  0.5431  0.2995 -1.5998
  628TIP3   OH223442   6.575   2.576   8.773 -0.1739  0.1259 -0.9599
  628TIP3    H123443   6.573   2.546   8.864 -1.9035  0.2200 -0.9374
  628TIP3    H223444   6.484   2.574   8.745 -0.0135  2.6695 -1.8533
  629TIP3   OH223445   3.814   6.452   8.183 -0.3162 -0.3862  0.6441
  629TIP3    H123446   3.778   6.475   8.268 -0.2325 -0.6020  0.7387
  629TIP3    H223447   3.745   6.474   8.120 -0.1205  0.4328  0.6955
  630TIP3   OH223448   4.994   0.715   6.962 -0.1040  0.1824 -0.0727
  630TIP3    H123449   5.044   0.722   6.881 -0.4087  2.1069 -0.1544
  630TIP3    H223450   4.904   0.734   6.936 -0.1857  0.9270  0.7198
  631TIP3   OH223451   1.684   6.196   2.023 -0.4043 -0.1120 -0.2700
  631TIP3    H123452   1.766   6.156   2.054 -0.3079  0.4939  0.2852
  631TIP3    H223453   1.695   6.289   2.041 -0.8843  0.0839 -0.9720
  632TIP3   OH223454   1.076   6.588   1.046 -0.2226  0.2825  0.3391
  632TIP3    H123455   1.072   6.682   1.063  0.4580  0.3812 -0.0307
  632TIP3    H223456   1.164   6.573   1.014 -0.1663 -0.5636  0.8525
  633TIP3   OH223457   4.686   1.297   8.413 -0.3720 -0.0470 -0.4284
  633TIP3    H123458   4.598   1.331   8.430  0.2545  1.4755 -0.0456
  633TIP3    H223459   4.745   1.361   8.453  0.9361 -0.6283 -1.3328
  634TIP3   OH223460   6.498   1.644   8.048  0.4805  0.4895 -0.7239
  634TIP3    H123461   6.420   1.589   8.049  0.7416  0.1137 -0.6257
  634TIP3    H223462   6.499   1.686   8.134  0.8808 -0.2232 -0.3696
  635TIP3   OH223463   0.344   3.953   0.180  0.0276 -0.3051 -0.3652
  635TIP3    H123464   0.346   4.040   0.141 -0.6120 -0.2350 -0.2461
  635TIP3    H223465   0.427   3.946   0.227 -0.9174  1.2092  1.6999
  636TIP3   OH223466   1.931   3.080   6.788  0.1468 -0.1329  0.0110
  636TIP3    H123467   1.879   3.072   6.868 -1.1621 -0.6862 -0.8462
  636TIP3    H223468   1.926   2.994   6.747 -0.1811  0.4460 -1.2227
  637TIP3   OH223469   5.321   6.102   7.552 -0.5913 -0.0175  0.0838
  637TIP3    H123470   5.407   6.060   7.552 -0.7535 -0.3759 -0.7156
  637TIP3    H223471   5.328   6.172   7.617 -0.4728 -1.5762  1.8507
  638TIP3   OH223472   2.424   0.931   0.537 -0.1432  0.6074  0.6835
  638TIP3    H123473   2.402   0.857   0.479  2.0202 -0.3174  0.9427
  638TIP3    H223474   2.468   0.994   0.479  2.2369 -0.4208  1.2614
  639TIP3   OH223475   4.358   5.672   1.387  0.0616  0.1151  0.2655
  639TIP3    H123476   4.313   5.644   1.467  1.1850  0.9413  1.2325
  639TIP3    H223477   4.443   5.703   1.418 -0.4051  2.8542 -0.9265
  640TIP3   OH223478   0.321   1.924   0.879  0.0326 -0.5687 -0.1631
  640TIP3    H123479   0.296   1.832   0.865  0.2546 -0.5256 -0.9053
  640TIP3    H223480   0.392   1.920   0.943 -1.0880 -0.7770  1.1034
  641TIP3   OH223481   0.156   2.028   1.987 -0.0512  0.0347  0.5169
  641TIP3    H123482   0.157   1.935   2.012 -0.3142 -0.2747 -0.5527
  641TIP3    H223483   0.122   2.028   1.897  2.4900  0.9144 -0.5316
  642TIP3   OH223484   3.654   5.948   8.466 -0.2766  0.3644 -0.1481
  642TIP3    H123485   3.719   5.881   8.446  0.0135  0.3984  0.6382
  642TIP3    H223486   3.676   5.977   8.554 -0.6493  1.2025 -0.3191
  643TIP3   OH223487   0.475   6.506   0.380 -0.2225 -0.0200  0.3293
  643TIP3    H123488   0.418   6.470   0.312  1.8933  1.2678 -2.2963
  643TIP3    H223489   0.458   6.600   0.378  2.1258  0.4585 -0.8108
  644TIP3   OH223490   5.059   5.953   0.315  0.5317 -0.2196  0.6071
  644TIP3    H123491   5.029   6.026   0.369  1.8235 -0.1121  1.2297
  644TIP3    H223492   5.147   5.978   0.287  0.1174 -0.5488 -1.0766
  645TIP3   OH223493   4.585   0.306   8.037  0.0765 -0.2472 -0.1386
  645TIP3    H123494   4.597   0.212   8.024  1.2403  0.0041 -1.0453
  645TIP3    H223495   4.659   0.332   8.092 -1.1128 -0.1043  1.4786
  646TIP3   OH223496   6.685   1.384   7.435  0.0300  0.6517  0.0320
  646TIP3    H123497   6.754   1.332   7.477  0.4937  0.1561 -1.2628
  646TIP3    H223498   6.733   1.450   7.385 -0.3644 -0.0306 -1.3170
  647TIP3   OH223499   1.819   4.162   8.502 -0.3419 -0.2017 -0.2036
  647TIP3    H123500   1.852   4.144   8.414 -0.0270  0.1628 -0.1628
  647TIP3    H223501   1.819   4.258   8.508  1.4332 -0.2234  0.8602
  648TIP3   OH223502   2.491   4.635   0.335  0.4847 -0.0400 -0.2209
  648TIP3    H123503   2.487   4.548   0.373  0.6406 -0.2183 -0.6108
  648TIP3    H223504   2.456   4.693   0.403 -0.3836 -0.5007 -0.2530
  649TIP3   OH223505   1.860   1.021   7.602 -0.0305 -0.7754  0.2076
  649TIP3    H123506   1.952   1.019   7.577 -0.6370 -0.5550 -2.3260
  649TIP3    H223507   1.837   0.929   7.617  0.2949 -0.9768 -0.4932
  650TIP3   OH223508   4.413   0.574   0.160  0.1106 -0.4962  0.0728
  650TIP3    H123509   4.451   0.547   0.243 -1.7342 -0.0573  1.1207
  650TIP3    H223510   4.392   0.667   0.172 -2.1573 -0.9413 -0.0314
  651TIP3   OH223511   0.890   2.099   7.493 -1.0290 -0.0023 -0.9668
  651TIP3    H123512   0.957   2.071   7.431 -0.5256 -0.6176 -0.1678
  651TIP3    H223513   0.879   2.193   7.476  0.5702  0.2709 -0.6383
  652TIP3   OH223514   2.054   3.684   8.435 -0.8082 -0.1258  0.4669
  652TIP3    H123515   2.005   3.709   8.357 -0.9709 -0.1427  0.5644
  652TIP3    H223516   2.019   3.739   8.505 -1.3573 -0.8214  0.7396
  653TIP3   OH223517   0.297   5.096   7.765  0.2379 -0.1793 -0.1787
  653TIP3    H123518   0.330   5.113   7.677 -0.2904 -1.4139 -0.6426
  653TIP3    H223519   0.268   5.004   7.762 -1.3760  0.2619  0.7630
  654TIP3   OH223520   5.737   3.559   0.018 -0.4758 -0.3732  0.6349
  654TIP3    H123521   5.682   3.486   0.045  0.1928 -1.7307 -1.4206
  654TIP3    H223522   5.827   3.526   0.024 -0.0414  0.8055  1.0842
  655TIP3   OH223523   5.902   1.518   7.884 -0.1298  0.0934  0.5415
  655TIP3    H123524   5.871   1.604   7.854  0.6402  0.8851  1.9209
  655TIP3    H223525   5.959   1.538   7.958  0.1166 -1.6209  0.8439
  656TIP3   OH223526   2.907   1.318   1.153  0.3780 -0.0799  0.7867
  656TIP3    H123527   2.951   1.403   1.145  0.0852 -0.1085 -2.5192
  656TIP3    H223528   2.967   1.264   1.204  1.0880  1.7644  1.9722
  657TIP3   OH223529   2.980   0.405   1.626  0.0235 -0.3216  0.0589
  657TIP3    H123530   2.920   0.341   1.666  0.2764 -0.1672  0.7067
  657TIP3    H223531   3.053   0.410   1.688  0.7076 -0.5092 -0.7193
  658TIP3   OH223532   1.278   6.790   8.556  0.0997  0.3276  0.3824
  658TIP3    H123533   1.331   6.832   8.488  0.2583 -1.6201 -0.7706
  658TIP3    H223534   1.192   6.780   8.517  0.2082 -0.8715  0.4157
  659TIP3   OH223535   5.551   2.719   1.172  0.9530  0.5107 -0.7071
  659TIP3    H123536   5.478   2.736   1.232  0.3909 -1.7396 -0.6748
  659TIP3    H223537   5.510   2.680   1.095  2.1832 -2.1849 -0.1086
  660TIP3   OH223538   3.642   4.510   7.175  0.0813 -0.6494 -0.2704
  660TIP3    H123539   3.559   4.493   7.129 -0.7063  1.5925  0.2305
  660TIP3    H223540   3.620   4.499   7.267 -0.0297  1.1536 -0.0465
  661TIP3   OH223541   1.901   1.714   1.955  0.1507 -0.9775  0.4139
  661TIP3    H123542   1.996   1.703   1.960  0.1601 -0.8486  0.5280
  661TIP3    H223543   1.882   1.788   2.012  0.1049 -0.2357 -0.5542
  662TIP3   OH223544   1.506   0.279   8.656  0.6232  0.6612  0.3582
  662TIP3    H123545   1.500   0.374   8.659  0.2032  0.6188  0.8503
  662TIP3    H223546   1.454   0.254   8.579  2.2327  0.9432 -0.8804
  663TIP3   OH223547   5.787   4.986   0.797  0.1542 -0.1250 -0.4299
  663TIP3    H123548   5.700   4.951   0.776 -0.5670  0.5094  1.3257
  663TIP3    H223549   5.786   5.074   0.760 -0.2083  0.1172  0.1411
  664TIP3   OH223550   4.305   5.258   7.452 -0.8455  0.3695  0.6954
  664TIP3    H123551   4.214   5.231   7.465 -0.7857 -0.0944  0.1781
  664TIP3    H223552   4.299   5.336   7.396 -0.9170  0.2660  0.5598
  665TIP3   OH223553   6.077   2.894   8.810 -0.1116  0.6982 -0.0634
  665TIP3    H123554   6.006   2.918   8.869 -0.7787  1.0498 -0.9962
  665TIP3    H223555   6.037   2.889   8.724  0.7838 -0.1229 -0.4582
  666TIP3   OH223556   1.407   0.287   0.948 -0.1895 -0.3258  0.3771
  666TIP3    H123557   1.352   0.236   0.888 -1.7637  0.7764  0.8120
  666TIP3    H223558   1.493   0.291   0.904 -1.3490  0.7189 -2.0108
  667TIP3   OH223559   3.108   5.693   6.967  0.1545 -0.7199  0.0200
  667TIP3    H123560   3.169   5.732   6.904 -0.0097 -0.0279  0.2768
  667TIP3    H223561   3.093   5.604   6.935  1.7513 -1.1191  0.2570
  668TIP3   OH223562   2.866   0.244   7.589 -0.7896  0.4426 -0.2094
  668TIP3    H123563   2.910   0.193   7.657  1.0707  1.1361 -0.8244
  668TIP3    H223564   2.792   0.285   7.634  0.4313  0.9628  1.4463
  669TIP3   OH223565   2.832   5.568   7.061 -0.1015 -0.7135 -0.6603
  669TIP3    H123566   2.784   5.508   7.118 -1.2490 -0.3525 -1.2092
  669TIP3    H223567   2.807   5.541   6.972 -1.5656  1.2531 -0.9190
  670TIP3   OH223568   2.138   0.206   6.827  0.1610  0.5635  0.4487
  670TIP3    H123569   2.218   0.227   6.779  0.6600 -1.9812  0.0206
  670TIP3    H223570   2.165   0.139   6.890 -1.5807 -0.0734  0.5545
  671TIP3   OH223571   3.954   1.120   0.638 -0.2240  0.6789  0.2901
  671TIP3    H123572   4.023   1.066   0.677 -0.6890  1.1061  1.7558
  671TIP3    H223573   3.887   1.057   0.611  0.4235  0.3197 -0.5266
  672TIP3   OH223574   0.434   2.394   8.133  0.2111  0.2396 -0.2343
  672TIP3    H123575   0.410   2.383   8.041  1.0661  0.5493 -0.5075
  672TIP3    H223576   0.405   2.483   8.155  1.4620  0.7816 -0.6936
  673TIP3   OH223577   2.415   5.834   1.705  0.2908  0.0794 -0.2022
  673TIP3    H123578   2.472   5.809   1.633  0.4370 -1.4935  0.4173
  673TIP3    H223579   2.372   5.752   1.732 -1.1017  0.9460  0.3401
  674TIP3   OH223580   4.298   2.539   0.727 -0.7177  0.6507 -0.4295
  674TIP3    H123581   4.295   2.567   0.818  0.3142  1.1289 -0.5320
  674TIP3    H223582   4.369   2.590   0.688  0.0712 -0.8552 -1.0479
  675TIP3   OH223583   2.440   2.682   8.521  0.6433 -0.4347  0.3771
  675TIP3    H123584   2.401   2.680   8.609 -0.8535 -1.2833 -0.2614
  675TIP3    H223585   2.534   2.680   8.536  0.4577  0.9012  1.9910
  676TIP3   OH223586   2.118   3.510   0.200 -0.0954  0.0979  0.2798
  676TIP3    H123587   2.099   3.487   0.291  0.7117  0.6402  0.5903
  676TIP3    H223588   2.211   3.490   0.189 -0.2871 -0.3708 -0.5585
  677TIP3   OH223589   0.748   3.754   1.736  0.4232  0.0818 -0.2858
  677TIP3    H123590   0.681   3.758   1.805 -0.4054  0.1489 -1.0814
  677TIP3    H223591   0.733   3.833   1.684  1.5264  0.4177 -0.1229
  678TIP3   OH223592   1.961   6.405   1.134  0.4471  0.2883  0.0189
  678TIP3    H123593   1.882   6.355   1.157  0.1423  0.5969 -0.3370
  678TIP3    H223594   1.939   6.496   1.157  1.1527  0.2112  1.0669
  679TIP3   OH223595   6.328   2.459   0.095 -0.0802  0.3613 -0.0813
  679TIP3    H123596   6.314   2.472   0.189  2.5389 -0.6254  0.5154
  679TIP3    H223597   6.331   2.363   0.085  3.6797  0.3719 -0.3693
  680TIP3   OH223598   2.843   5.686   7.577 -0.0601  0.2476  0.3963
  680TIP3    H123599   2.931   5.717   7.555 -0.0981 -0.4872 -0.8584
  680TIP3    H223600   2.851   5.590   7.580 -1.0558  0.1010 -0.8639
  681TIP3   OH223601   1.360   4.162   1.626 -0.2870 -0.1593  0.3936
  681TIP3    H123602   1.455   4.168   1.619 -0.1312 -1.1672  1.2773
  681TIP3    H223603   1.338   4.079   1.583 -0.8761  0.4554 -0.5342
  682TIP3   OH223604   1.683   1.427   7.233  0.2336  0.5463  0.5073
  682TIP3    H123605   1.649   1.512   7.260 -0.1645  0.5604 -0.0170
  682TIP3    H223606   1.663   1.422   7.140 -0.2865 -0.3670  0.6541
  683TIP3   OH223607   0.503   1.508   1.618 -0.1233 -0.3249 -0.1402
  683TIP3    H123608   0.456   1.425   1.623  2.4336 -1.9261 -0.7180
  683TIP3    H223609   0.487   1.539   1.529 -0.5588 -0.5024 -0.1289
  684TIP3   OH223610   1.209   4.876   1.693  0.4583  0.1145 -0.2463
  684TIP3    H123611   1.143   4.813   1.722 -0.3684 -0.2557 -2.6716
  684TIP3    H223612   1.220   4.935   1.767 -2.9322  0.4529  0.1441
  685TIP3   OH223613   4.199   5.762   0.614 -0.8858  0.3494  0.0599
  685TIP3    H123614   4.248   5.812   0.679  1.0505 -0.8412 -0.3931
  685TIP3    H223615   4.185   5.824   0.542  1.9252  0.2092 -0.7195
  686TIP3   OH223616   0.907   3.025   8.085  0.0849  0.4296  0.0901
  686TIP3    H123617   0.853   2.951   8.058  0.3185  0.7141 -1.2169
  686TIP3    H223618   0.899   3.089   8.014  1.0814  1.0247  0.4817
  687TIP3   OH223619   4.669   5.305   8.749 -0.0062 -0.1677  0.1817
  687TIP3    H123620   4.608   5.372   8.780 -0.2060 -0.6459  0.8492
  687TIP3    H223621   4.751   5.353   8.732 -0.5398  0.4679 -0.6885
  688TIP3   OH223622   4.054   6.511   7.866 -0.1184  0.5889 -0.1767
  688TIP3    H123623   3.961   6.490   7.872 -0.1648  0.1607 -2.0577
  688TIP3    H223624   4.097   6.441   7.916 -0.6489 -0.7620 -1.5496
  689TIP3   OH223625   0.633   5.446   8.404  0.2897 -0.0240  0.1954
  689TIP3    H123626   0.556   5.394   8.383  0.2445  0.9636 -2.3206
  689TIP3    H223627   0.699   5.380   8.429 -0.3033 -1.1699 -1.1298
  690TIP3   OH223628   4.425   0.095   0.604  0.1844 -0.1837  0.0298
  690TIP3    H123629   4.382   0.075   0.521  1.7400  2.5962 -1.6200
  690TIP3    H223630   4.355   0.129   0.660 -0.8325 -1.8125 -0.1809
  691TIP3   OH223631   1.715   3.445   1.727  0.6470  0.5086 -0.2561
  691TIP3    H123632   1.735   3.367   1.779  1.6375  1.0808  0.2650
  691TIP3    H223633   1.621   3.442   1.714  0.5850 -0.4292  0.3148
  692TIP3   OH223634   2.190   2.652   7.038 -0.3695 -0.0081 -0.5423
  692TIP3    H123635   2.268   2.665   6.984  0.2603 -1.3353  0.0187
  692TIP3    H223636   2.132   2.599   6.983  0.0681 -0.9358 -0.1322
  693TIP3   OH223637   4.058   1.743   0.376 -0.3875  0.1560 -0.1161
  693TIP3    H123638   4.052   1.833   0.343  0.9171  1.9792  3.9524
  693TIP3    H223639   4.130   1.704   0.325 -0.8602  1.4030 -1.8637
  694TIP3   OH223640   6.068   3.583   0.746  0.2850  0.2021 -0.0523
  694TIP3    H123641   6.133   3.627   0.800  0.8333  0.2931 -0.7701
  694TIP3    H223642   5.992   3.572   0.803  1.5636 -1.5898  1.3795
  695TIP3   OH223643   4.884   2.427   7.639 -0.0438 -1.1402 -0.0119
  695TIP3    H123644   4.902   2.452   7.549  1.1167  2.7052  1.1027
  695TIP3    H223645   4.969   2.431   7.683 -0.6140 -2.7119  1.3391
  696TIP3   OH223646   5.310   4.788   8.553  0.2612  0.0294  0.0539
  696TIP3    H123647   5.223   4.816   8.581 -0.1354 -0.0820 -1.0345
  696TIP3    H223648   5.308   4.795   8.457  0.1819 -3.4817 -0.3311
  697TIP3   OH223649   0.669   4.146   7.523 -0.2544  0.2302  0.7799
  697TIP3    H123650   0.690   4.061   7.484  1.0912  0.7154  0.3752
  697TIP3    H223651   0.631   4.125   7.608 -1.8797 -0.8204 -0.1612
  698TIP3   OH223652   0.234   5.212   8.788 -0.2162 -0.1753 -0.1767
  698TIP3    H123653   0.274   5.140   8.837  0.5108 -0.5312 -1.2522
  698TIP3    H223654   0.148   5.179   8.761 -0.5415 -0.0461  0.6582
  699TIP3   OH223655   0.821   0.735   7.437  0.3781 -0.4674  0.6030
  699TIP3    H123656   0.884   0.683   7.487 -0.3742 -1.7372  0.2581
  699TIP3    H223657   0.792   0.677   7.366 -0.8808  0.2266  0.5209
  700TIP3   OH223658   3.727   1.382   7.836  0.3107 -0.2553 -0.3795
  700TIP3    H123659   3.639   1.375   7.872  0.7360 -0.8068  0.5896
  700TIP3    H223660   3.723   1.336   7.753 -0.2194 -0.6040 -0.1656
  701TIP3   OH223661   2.553   2.619   1.504 -0.2561  0.4286 -0.3082
  701TIP3    H123662   2.599   2.643   1.424  2.1352  0.9352  1.0918
  701TIP3    H223663   2.481   2.681   1.511  0.5633  1.5204 -1.1742
  702TIP3   OH223664   1.932   4.102   7.938  0.6572 -0.2319  0.2800
  702TIP3    H123665   2.008   4.049   7.963 -0.5370 -0.6482  3.5485
  702TIP3    H223666   1.866   4.037   7.912  0.7112  0.0139 -0.5144
  703TIP3   OH223667   1.693   3.725   8.693 -0.5621  0.0346  0.0629
  703TIP3    H123668   1.773   3.759   8.653 -1.7000 -0.6887 -3.1728
  703TIP3    H223669   1.712   3.632   8.707 -0.7711 -0.1009 -0.5440
  704TIP3   OH223670   4.577   0.447   7.108 -0.4162 -0.2525  0.8706
  704TIP3    H123671   4.671   0.455   7.095 -0.5800 -0.5058 -0.6289
  704TIP3    H223672   4.546   0.538   7.116 -0.0003 -0.1864  1.8662
  705TIP3   OH223673   6.331   2.601   8.371 -0.0153  0.1316  0.2020
  705TIP3    H123674   6.316   2.573   8.461 -0.5704 -0.9714 -0.2138
  705TIP3    H223675   6.424   2.583   8.355 -0.1649 -0.6962  0.2201
  706TIP3   OH223676   3.501   4.719   0.358 -0.2573 -0.0064  0.4833
  706TIP3    H123677   3.438   4.763   0.416 -1.2150 -1.8063  0.8929
  706TIP3    H223678   3.523   4.785   0.292 -1.5485  1.1020  1.1076
  707TIP3   OH223679   0.539   4.288   2.126  0.0610  0.2096  0.0017
  707TIP3    H123680   0.513   4.197   2.143  1.9942 -0.4387 -0.2259
  707TIP3    H223681   0.594   4.282   2.048  0.9124  1.4592  0.4946
  708TIP3   OH223682   3.801   6.374   7.816  1.1161  0.0267 -0.0413
  708TIP3    H123683   3.772   6.368   7.725  1.4504  0.1953 -0.1609
  708TIP3    H223684   3.729   6.335   7.867  0.0383  1.6764 -0.2101
  709TIP3   OH223685   5.134   6.416   1.700  0.6303 -0.1314 -0.4835
  709TIP3    H123686   5.057   6.433   1.753  1.1661 -0.0902  0.2967
  709TIP3    H223687   5.171   6.335   1.736  1.7410  0.6133  0.0926
  710TIP3   OH223688   5.312   6.381   6.928  0.8992 -0.4987  0.5141
  710TIP3    H123689   5.314   6.290   6.899  0.4248 -0.9386  1.8191
  710TIP3    H223690   5.222   6.410   6.911  0.7256 -0.6405  1.1613
  711TIP3   OH223691   5.032   6.159   6.855 -0.3643 -0.1820 -0.1310
  711TIP3    H123692   4.972   6.093   6.888 -0.3815  1.1307  2.7807
  711TIP3    H223693   5.119   6.121   6.869 -0.3822  0.2535  1.2374
  712TIP3   OH223694   1.582   4.672   6.567 -0.1276 -0.4021 -0.2410
  712TIP3    H123695   1.648   4.728   6.526  1.2281 -1.2162  0.7912
  712TIP3    H223696   1.499   4.713   6.543  0.6459 -0.1160 -2.7089
  713TIP3   OH223697   2.948   3.414   7.388 -0.7280 -0.2843 -0.5136
  713TIP3    H123698   2.861   3.387   7.419 -1.1779  1.6376  0.0254
  713TIP3    H223699   3.002   3.415   7.466  0.1973 -2.7053 -1.0268
  714TIP3   OH223700   2.017   0.163   8.254 -0.0816  0.0192 -0.0565
  714TIP3    H123701   1.930   0.176   8.292  0.4081  1.3524  0.6691
  714TIP3    H223702   2.071   0.230   8.296  0.8629  0.4556 -1.8993
  715TIP3   OH223703   0.977   3.708   8.617 -0.2074  0.4550 -0.1365
  715TIP3    H123704   0.973   3.803   8.619 -0.3222  0.4651  1.9492
  715TIP3    H223705   1.070   3.687   8.620 -0.1983  0.5538  0.9904
  716TIP3   OH223706   3.431   0.715   0.223 -0.5060 -0.1639 -0.7366
  716TIP3    H123707   3.380   0.636   0.202 -1.3647  0.0826  0.3294
  716TIP3    H223708   3.376   0.787   0.194 -0.7256  0.1013  0.3048
  717TIP3   OH223709   2.240   5.266   7.766 -0.5892  0.6663  0.6202
  717TIP3    H123710   2.182   5.191   7.781  2.1853 -1.6198  0.8426
  717TIP3    H223711   2.202   5.336   7.819 -3.2626 -0.5688  0.5056
  718TIP3   OH223712   6.681   1.850   0.467 -0.4278  0.0669  0.2974
  718TIP3    H123713   6.760   1.891   0.432 -0.3776 -0.0915  0.2266
  718TIP3    H223714   6.688   1.862   0.562 -0.6019  0.5666  0.2507
  719TIP3   OH223715   1.357   3.440   7.614  0.1783  0.7077 -0.5108
  719TIP3    H123716   1.435   3.483   7.578 -0.4498  1.3392 -1.1473
  719TIP3    H223717   1.392   3.376   7.675  1.1581  2.2933  0.6787
  720TIP3   OH223718   4.676   4.617   8.249  0.3812 -0.3561 -0.3676
  720TIP3    H123719   4.640   4.531   8.271  0.6354 -0.9094 -1.9739
  720TIP3    H223720   4.768   4.612   8.275 -0.1785  0.4332  2.0659
  721TIP3   OH223721   2.001   0.515   8.000 -0.4751  0.2719  0.1554
  721TIP3    H123722   1.984   0.529   7.907  0.1162 -0.4538 -0.0686
  721TIP3    H223723   1.915   0.495   8.038 -0.3977 -1.9346 -0.6984
  722TIP3   OH223724   6.386   0.589   0.735 -0.1713 -0.0109  0.4831
  722TIP3    H123725   6.390   0.679   0.703 -1.7786  0.0901  0.4502
  722TIP3    H223726   6.297   0.581   0.769  0.1363 -1.4250  0.9925
  723TIP3   OH223727   5.242   0.008   7.436  0.0213 -0.7185  0.2606
  723TIP3    H123728   5.303  -0.014   7.507  1.4143  0.8000 -0.4047
  723TIP3    H223729   5.280  -0.032   7.358 -0.9576 -1.5076  0.1765
  724TIP3   OH223730   5.690   2.867   7.022 -0.5873  0.0443  0.0402
  724TIP3    H123731   5.723   2.938   6.967 -0.5936 -0.6091 -0.8330
  724TIP3    H223732   5.721   2.888   7.110 -1.6337  1.7768  0.0393
  725TIP3   OH223733   2.902   0.943   8.424 -0.2975  0.0223 -0.3945
  725TIP3    H123734   2.842   0.914   8.492 -0.0636  1.9301  0.6654
  725TIP3    H223735   2.987   0.952   8.468  0.0945  0.2822 -1.1799
  726TIP3   OH223736   3.008   4.070   1.711 -0.4270  0.6242 -0.0884
  726TIP3    H123737   3.045   4.080   1.623  0.5315  1.0332  0.3496
  726TIP3    H223738   3.062   4.127   1.766 -0.3706 -0.3963  0.9417
  727TIP3   OH223739   2.221   6.694   6.942 -0.3579  0.3044  0.5321
  727TIP3    H123740   2.209   6.613   6.991  2.0686  0.6723  1.8867
  727TIP3    H223741   2.239   6.665   6.853 -3.4931 -0.4222  0.0095
  728TIP3   OH223742   4.065   4.299   7.689 -0.4610  0.5227  0.6110
  728TIP3    H123743   4.078   4.291   7.595  1.0957  1.2772  0.7276
  728TIP3    H223744   4.024   4.385   7.701  1.2105  1.3327  0.7362
  729TIP3   OH223745   4.649   5.726   6.966  0.2416  0.0822  0.0093
  729TIP3    H123746   4.704   5.768   6.899  1.2007  0.0623  0.7631
  729TIP3    H223747   4.597   5.798   7.003  0.7059  0.3370  0.1786
  730TIP3   OH223748   4.829   6.171   1.382  0.3342 -0.2747 -0.0911
  730TIP3    H123749   4.772   6.127   1.318 -0.7398  0.7161  0.1519
  730TIP3    H223750   4.898   6.107   1.400 -1.1877 -1.8937  0.2599
  731TIP3   OH223751   5.601   1.614   7.185  0.3491 -0.3250  0.3921
  731TIP3    H123752   5.587   1.554   7.258 -3.0418  0.0639  0.2351
  731TIP3    H223753   5.610   1.700   7.227  0.8295 -0.3894  0.4281
  732TIP3   OH223754   2.345   6.747   2.003  1.3192  0.0298  0.2056
  732TIP3    H123755   2.363   6.703   1.920 -0.3660  1.3756 -0.9620
  732TIP3    H223756   2.274   6.696   2.042  2.7100 -1.1310  1.3194
  733TIP3   OH223757   3.732   0.934   8.657  0.5358 -0.5518  0.2924
  733TIP3    H123758   3.688   1.002   8.708  0.6201  0.2920 -0.7349
  733TIP3    H223759   3.681   0.928   8.577  1.0459 -1.0970  0.0023
  734TIP3   OH223760   5.407   3.107   2.189 -0.1289  0.4417 -0.2120
  734TIP3    H123761   5.478   3.169   2.204  1.0469 -0.6101 -1.1061
  734TIP3    H223762   5.357   3.144   2.116 -0.4881  1.1745  0.4016
  735TIP3   OH223763   4.006   1.556   0.045 -0.3554  0.3075 -0.6905
  735TIP3    H123764   4.038   1.493  -0.020  0.7907 -0.4869  0.6023
  735TIP3    H223765   4.081   1.613   0.062 -0.2989 -0.1257  0.6545
  736TIP3   OH223766   2.385   3.690   0.608 -0.0066  0.1003  0.4020
  736TIP3    H123767   2.331   3.740   0.668 -0.3448  1.2063 -0.7829
  736TIP3    H223768   2.443   3.755   0.567  1.1731 -0.8269  0.5289
  737TIP3   OH223769   2.696   2.058   0.777  0.1715 -0.0800  0.2273
  737TIP3    H123770   2.601   2.064   0.776  0.2531  1.6616  0.0386
  737TIP3    H223771   2.715   1.977   0.824 -1.4246 -2.1734 -2.4593
  738TIP3   OH223772   0.760   2.558   8.133  0.5230 -0.7885 -0.3381
  738TIP3    H123773   0.826   2.544   8.065  0.3097 -0.4142 -0.6292
  738TIP3    H223774   0.721   2.472   8.146 -0.1943 -0.6559 -1.4952
  739TIP3   OH223775   1.350   6.312   1.249  0.5456  0.2459 -0.0232
  739TIP3    H123776   1.342   6.228   1.203  0.9127  0.1045  0.1654
  739TIP3    H223777   1.410   6.362   1.194  0.7059  0.2064  0.1140
  740TIP3   OH223778   2.645   0.912   1.421  0.6792  0.1013  0.0596
  740TIP3    H123779   2.583   0.955   1.362 -0.5599 -0.2603  1.0528
  740TIP3    H223780   2.704   0.982   1.448 -1.8537  1.5678  2.3863
  741TIP3   OH223781   1.406   5.433   8.597  0.0847  0.5803 -0.4058
  741TIP3    H123782   1.311   5.444   8.600  0.0866  1.8259 -2.6401
  741TIP3    H223783   1.441   5.522   8.605  1.1016  0.1221  0.5294
  742TIP3   OH223784   4.693   4.052   1.604 -0.3254  0.2694 -0.3158
  742TIP3    H123785   4.709   4.073   1.696  2.9048  0.9728 -0.9225
  742TIP3    H223786   4.639   3.973   1.606  0.3574 -0.1987  2.2011
  743TIP3   OH223787   2.303   3.518   2.175  0.2287  0.2959 -0.3553
  743TIP3    H123788   2.246   3.594   2.163  0.6041  0.3970 -1.5733
  743TIP3    H223789   2.243   3.449   2.206 -0.3987  0.6466 -0.7603
  744TIP3   OH223790   2.346   6.337   2.108 -0.1621  0.4931  0.6529
  744TIP3    H123791   2.263   6.292   2.092 -1.1737  2.0851  1.2020
  744TIP3    H223792   2.404   6.270   2.144 -0.4663 -1.1949 -1.7481
  745TIP3   OH223793   4.638   1.738   7.671  0.4257 -0.0105 -0.4928
  745TIP3    H123794   4.593   1.807   7.720  1.3313  2.0128 -2.3911
  745TIP3    H223795   4.570   1.672   7.655 -1.2537  1.7816 -1.1106
  746TIP3   OH223796   4.916   1.364   8.591 -0.0574  0.3896 -0.5814
  746TIP3    H123797   4.916   1.459   8.584  0.7676  0.4198 -0.2767
  746TIP3    H223798   4.848   1.345   8.656 -0.7016  0.7169 -1.1463
  747TIP3   OH223799   1.186   5.370   0.589 -0.3840 -0.1827  0.2684
  747TIP3    H123800   1.153   5.360   0.678 -1.4093  0.6531 -0.0006
  747TIP3    H223801   1.116   5.336   0.533  0.1154 -0.4072 -0.2263
  748TIP3   OH223802   0.377   4.956   6.799 -0.0809 -0.4035  0.0063
  748TIP3    H123803   0.396   4.863   6.789  1.2981 -0.2284  0.7720
  748TIP3    H223804   0.282   4.960   6.815 -0.4613 -1.5121 -1.6608
  749TIP3   OH223805   2.082   5.498   6.275  0.7912  0.1364  0.0689
  749TIP3    H123806   2.109   5.423   6.327  0.2663  0.3311  0.6388
  749TIP3    H223807   1.987   5.488   6.267  0.8113  0.3614 -0.4467
  750TIP3   OH223808   2.187   3.228   7.715  0.0118 -0.1081  0.4001
  750TIP3    H123809   2.137   3.155   7.679  0.0965  0.4653 -0.9635
  750TIP3    H223810   2.131   3.304   7.702  0.6828  0.3452  0.0647
  751TIP3   OH223811   3.762   1.766   0.504  0.0885 -0.4584 -0.0087
  751TIP3    H123812   3.735   1.844   0.552  1.7960  1.9310 -2.6195
  751TIP3    H223813   3.823   1.721   0.563  1.1490  1.6572  0.5902
  752TIP3   OH223814   6.101   1.868   1.354  0.0180 -0.2980 -0.0711
  752TIP3    H123815   6.044   1.797   1.323  0.0328  0.5710 -2.1891
  752TIP3    H223816   6.189   1.832   1.349  0.0418 -0.0962 -1.3276
  753TIP3   OH223817   5.028   1.647   7.660 -0.5284  0.7181 -1.1575
  753TIP3    H123818   4.964   1.581   7.634 -1.7885  1.5261 -0.2136
  753TIP3    H223819   4.992   1.686   7.739  0.8385  1.6391 -0.9452
  754TIP3   OH223820   4.323   2.326   2.001 -0.4895 -0.8080  0.5399
  754TIP3    H123821   4.314   2.334   1.906 -3.7759  0.2540  0.8152
  754TIP3    H223822   4.416   2.310   2.014  0.2189 -0.3353 -2.7985
  755TIP3   OH223823   0.412   5.713   2.588 -0.3072  0.0792  0.0835
  755TIP3    H123824   0.369   5.787   2.544 -1.3263 -0.6623 -0.2164
  755TIP3    H223825   0.433   5.653   2.517  1.0128  0.3074  0.2653
  756TIP3   OH223826   5.185   5.543   0.829  0.5620 -0.8668 -0.3564
  756TIP3    H123827   5.113   5.524   0.889 -1.9509  1.4874 -2.3616
  756TIP3    H223828   5.192   5.465   0.775 -0.6647 -1.0920 -0.2329
  757TIP3   OH223829   5.825   6.210   0.083  0.0541  0.3641 -0.4979
  757TIP3    H123830   5.823   6.114   0.087 -3.6666  0.2597 -1.1681
  757TIP3    H223831   5.909   6.231   0.042  0.3485 -2.6962 -1.6989
  758TIP3   OH223832   6.781   3.771   8.252 -0.4236 -0.2180  0.6153
  758TIP3    H123833   6.752   3.689   8.292  2.6667 -1.1627  1.2418
  758TIP3    H223834   6.768   3.758   8.158 -0.5636 -1.2075  0.7567
  759TIP3   OH223835   6.434   1.277   7.990 -0.2857  0.3859 -0.4602
  759TIP3    H123836   6.435   1.342   7.920  2.7923  0.6157 -0.3598
  759TIP3    H223837   6.349   1.234   7.982 -0.8966  1.8470 -2.9465
  760TIP3   OH223838   4.388   1.834   8.429  0.9133 -0.0111  0.2746
  760TIP3    H123839   4.444   1.759   8.409  0.0050 -1.4714  2.7393
  760TIP3    H223840   4.304   1.813   8.390  1.4489  1.2656 -1.7189
  761TIP3   OH223841   3.495   1.959   0.439 -0.5399 -0.4615 -0.4915
  761TIP3    H123842   3.446   2.013   0.377  0.9448  1.1152 -0.3640
  761TIP3    H223843   3.576   1.937   0.392  0.4216  0.4137  0.7019
  762TIP3   OH223844   4.200   3.202   7.725  0.1108  0.0711  0.6218
  762TIP3    H123845   4.280   3.151   7.729 -0.5481 -0.9482  1.1009
  762TIP3    H223846   4.230   3.293   7.729  1.2548 -0.2766  0.4240
  763TIP3   OH223847   0.350   5.822   1.723 -0.1015 -0.4524  0.2693
  763TIP3    H123848   0.290   5.783   1.660  1.2244 -1.7380 -0.2778
  763TIP3    H223849   0.360   5.756   1.791 -0.6340  0.4635  1.2612
  764TIP3   OH223850   2.839   5.450   8.821  0.5999 -0.6103  0.0955
  764TIP3    H123851   2.877   5.380   8.873 -1.3891  1.3384  4.6649
  764TIP3    H223852   2.884   5.529   8.849 -1.2833  0.6888 -0.3390
  765TIP3   OH223853   6.120   6.639   1.816  0.5191 -0.1714 -0.4065
  765TIP3    H123854   6.075   6.705   1.868 -0.0787 -0.0845 -1.0282
  765TIP3    H223855   6.204   6.627   1.861 -0.2171 -0.5595  0.9436
  766TIP3   OH223856   6.188   5.788   7.628  0.0423  0.1711  0.8994
  766TIP3    H123857   6.107   5.763   7.672 -0.8260  0.3641 -0.5417
  766TIP3    H223858   6.220   5.707   7.588  0.2369  0.2269  0.9396
  767TIP3   OH223859   0.081   0.115   0.991 -0.0934 -0.1913 -0.3908
  767TIP3    H123860   0.039   0.076   1.068  0.7862  0.0568  0.2311
  767TIP3    H223861   0.145   0.176   1.027  0.3178 -0.0514 -1.3310
  768TIP3   OH223862   4.354   6.636   8.827 -0.0657 -0.3119  0.3607
  768TIP3    H123863   4.377   6.669   8.740  1.0126  0.6420  0.9856
  768TIP3    H223864   4.265   6.670   8.843  0.2840  0.7026  0.2014
  769TIP3   OH223865   4.672   4.837   0.282 -0.1732  0.0150  0.0438
  769TIP3    H123866   4.759   4.806   0.259 -0.2320 -0.1042 -0.0142
  769TIP3    H223867   4.632   4.763   0.328  0.2335  0.5090  1.2456
  770TIP3   OH223868   0.164   5.541   1.385 -0.1727 -0.4572 -0.5361
  770TIP3    H123869   0.255   5.569   1.375  0.1714 -1.5977 -0.7976
  770TIP3    H223870   0.156   5.466   1.326 -0.4908 -2.0780  1.4196
  771TIP3   OH223871   5.447   0.435   0.790 -0.1685  0.1839 -0.2566
  771TIP3    H123872   5.518   0.473   0.841 -0.7942 -0.1150  0.8525
  771TIP3    H223873   5.447   0.486   0.709  1.5803 -0.0913 -0.4816
  772TIP3   OH223874   5.741   4.330   7.692  0.3244 -0.1530  0.3920
  772TIP3    H123875   5.669   4.271   7.713 -0.9967  1.0252 -0.5860
  772TIP3    H223876   5.814   4.273   7.670 -0.0259 -1.3846  2.2304
  773TIP3   OH223877   3.170   2.039   7.134  0.2236 -0.3738  0.4435
  773TIP3    H123878   3.259   2.031   7.099  0.6271 -0.2779  1.4384
  773TIP3    H223879   3.118   2.069   7.059  0.9536 -0.7675 -0.2391
  774TIP3   OH223880   4.962   5.270   2.136  0.5621  0.3263 -0.3194
  774TIP3    H123881   4.975   5.187   2.089 -2.0651 -0.5176  0.2554
  774TIP3    H223882   4.982   5.249   2.227 -0.6062  0.1522 -0.0923
  775TIP3   OH223883   3.382   6.336   1.989 -0.5309 -0.0299 -0.2100
  775TIP3    H123884   3.324   6.318   2.063 -1.4211  1.3516 -0.5216
  775TIP3    H223885   3.323   6.336   1.913 -0.5114  2.9606 -0.3633
  776TIP3   OH223886   0.603   1.154   1.025 -0.1216 -0.0785 -0.3021
  776TIP3    H123887   0.615   1.065   0.993 -3.8415 -0.8486 -0.0074
  776TIP3    H223888   0.563   1.201   0.952  2.1700  1.5418 -0.5974
  777TIP3   OH223889   6.509   6.288   0.861 -0.9160 -0.3219  0.5079
  777TIP3    H123890   6.518   6.324   0.773 -0.8128 -1.7775 -0.0989
  777TIP3    H223891   6.590   6.313   0.906  1.3723 -3.6472 -1.3514
  778TIP3   OH223892   1.027   6.743   8.786  0.3640 -0.0088 -0.1459
  778TIP3    H123893   0.936   6.754   8.761  0.2342  0.0129  0.3204
  778TIP3    H223894   1.048   6.652   8.763 -0.2177 -0.4797  1.0587
  779TIP3   OH223895   5.532   4.449   0.098  0.4431  0.4635  0.2502
  779TIP3    H123896   5.552   4.372   0.151 -0.2858 -0.1723 -0.3915
  779TIP3    H223897   5.574   4.433   0.014  1.1315  1.2253  0.4355
  780TIP3   OH223898   6.032   6.746   0.489 -0.1793 -0.1665  0.3785
  780TIP3    H123899   6.000   6.658   0.509 -0.3191  0.1055  1.3598
  780TIP3    H223900   6.005   6.800   0.563 -2.0879  1.2295 -1.2537
  781TIP3   OH223901   0.596   4.783   1.655  0.0059  0.3960 -0.3407
  781TIP3    H123902   0.654   4.852   1.687  0.4665 -0.3791  0.5517
  781TIP3    H223903   0.636   4.754   1.573  1.8562 -1.2008  1.0131
  782TIP3   OH223904   2.806   6.447   2.645 -0.5350  0.1390  0.4731
  782TIP3    H123905   2.771   6.535   2.629 -2.1501 -0.6066 -0.3174
  782TIP3    H223906   2.732   6.398   2.681  0.6317 -0.6545  1.8889
  783TIP3   OH223907   2.134   3.291   7.380  0.3366  0.1155  0.3199
  783TIP3    H123908   2.166   3.241   7.306 -0.8328 -2.2538  1.3259
  783TIP3    H223909   2.200   3.359   7.393  2.3669 -1.5539 -0.7048
  784TIP3   OH223910   6.419   3.875   7.160 -0.1623 -0.0017 -0.3991
  784TIP3    H123911   6.469   3.796   7.178  0.3477  0.3292 -0.3216
  784TIP3    H223912   6.417   3.922   7.243 -1.0404 -0.2481 -0.2773
  785TIP3   OH223913   5.899   1.268   1.929 -0.4932  0.0649  0.1039
  785TIP3    H123914   5.862   1.299   1.846  1.1741 -0.9783 -1.0815
  785TIP3    H223915   5.890   1.172   1.926 -0.7361  0.0287  1.2988
  786TIP3   OH223916   1.689   2.231   8.831  0.4124 -0.4538  0.8913
  786TIP3    H123917   1.676   2.171   8.905  0.9741  0.5904  1.8586
  786TIP3    H223918   1.707   2.316   8.872 -0.2154  0.3493 -0.4541
  787TIP3   OH223919   4.723   3.788   7.060  0.1410 -0.6666  0.4259
  787TIP3    H123920   4.721   3.733   6.981 -0.5490  0.1503 -0.1494
  787TIP3    H223921   4.815   3.786   7.088  0.7270  0.1372 -1.2301
  788TIP3   OH223922   0.003   2.451   7.127  0.4619  0.2344 -0.2776
  788TIP3    H123923  -0.048   2.450   7.046  0.8821  0.8039 -0.5492
  788TIP3    H223924   0.052   2.533   7.124 -0.7193  1.0616  1.2972
  789TIP3   OH223925   0.338   1.267   7.532 -0.7608  0.2705  0.6184
  789TIP3    H123926   0.277   1.328   7.575  0.8639  1.3896  1.4344
  789TIP3    H223927   0.310   1.265   7.441 -0.2663  3.0876  0.3175
  790TIP3   OH223928   2.987   6.035   6.496 -0.0370 -0.2695  0.2122
  790TIP3    H123929   3.057   6.093   6.527 -0.8799  0.1326  1.4581
  790TIP3    H223930   2.991   5.959   6.554 -0.8591 -0.0720  0.5395
  791TIP3   OH223931   1.141   3.444   2.087 -0.1215  0.2896 -0.9296
  791TIP3    H123932   1.143   3.435   2.183 -1.9780 -1.6315 -0.9925
  791TIP3    H223933   1.053   3.475   2.068 -0.3016 -0.8578 -2.0911
  792TIP3   OH223934   2.198   5.571   8.274 -0.2575  0.3364 -0.7806
  792TIP3    H123935   2.187   5.495   8.217 -4.2538 -2.0323  2.5635
  792TIP3    H223936   2.269   5.546   8.333  0.2771  0.4501 -1.3641
  793TIP3   OH223937   0.039   0.278   6.764  0.2704 -0.0662 -0.2523
  793TIP3    H123938  -0.027   0.255   6.699 -0.6110  1.0755  0.2007
  793TIP3    H223939   0.003   0.249   6.847 -0.3275  1.7434  0.1740
  794TIP3   OH223940   6.175   0.930   0.114 -0.2478  0.1311 -0.1778
  794TIP3    H123941   6.198   0.998   0.050 -0.3088  0.8352  0.5293
  794TIP3    H223942   6.183   0.848   0.066 -1.7277  0.7312 -1.5161
  795TIP3   OH223943   4.635   5.391   8.092 -0.1990 -0.5025 -0.0834
  795TIP3    H123944   4.572   5.422   8.027  1.2147  0.6442 -0.9716
  795TIP3    H223945   4.627   5.452   8.165 -1.0807 -1.1932  0.4115
  796TIP3   OH223946   2.153   3.264   1.450  0.1375  0.2099  0.3167
  796TIP3    H123947   2.100   3.331   1.492 -1.1527 -0.7150  0.2096
  796TIP3    H223948   2.090   3.201   1.416  1.3002 -0.8272  0.0052
  797TIP3   OH223949   0.446   1.737   1.188 -0.2690  0.2005 -0.4100
  797TIP3    H123950   0.512   1.773   1.130 -1.7606  1.2650 -1.5303
  797TIP3    H223951   0.386   1.810   1.204 -2.0790 -1.1277 -0.8178
  798TIP3   OH223952   4.361   6.657   7.024 -0.6250  0.9458  0.0233
  798TIP3    H123953   4.287   6.715   7.041 -1.5516 -0.3175  0.4341
  798TIP3    H223954   4.355   6.590   7.091  0.6713  0.5857 -0.1880
  799TIP3   OH223955   4.591   4.308   0.427 -0.5656 -0.1050  0.3192
  799TIP3    H123956   4.661   4.272   0.482 -1.2467 -1.5700  0.2624
  799TIP3    H223957   4.510   4.280   0.470 -1.1269 -1.2387 -1.3807
  800TIP3   OH223958   3.159   0.958   8.567  0.0264 -0.0898  0.1536
  800TIP3    H123959   3.166   1.038   8.619  0.6463 -0.3159  0.4351
  800TIP3    H223960   3.249   0.926   8.561  0.1979  0.6656 -2.2585
  801TIP3   OH223961   6.316   0.672   2.557  0.1824 -0.0747 -0.6459
  801TIP3    H123962   6.357   0.716   2.482  1.3169 -0.2223 -0.1186
  801TIP3    H223963   6.367   0.593   2.571 -0.1803 -0.1845  0.1333
  802TIP3   OH223964   4.039   2.687   1.599 -0.5427 -0.5252 -0.1950
  802TIP3    H123965   4.100   2.754   1.627  0.3501  0.2154 -3.4363
  802TIP3    H223966   3.957   2.734   1.581 -0.7803 -0.8031  0.1285
  803TIP3   OH223967   6.785   0.058   8.534 -0.5485 -0.3813 -0.8963
  803TIP3    H123968   6.714   0.106   8.492  1.0931  1.8612 -1.3048
  803TIP3    H223969   6.764  -0.034   8.519 -1.9949  0.2579 -3.2954
  804TIP3   OH223970   4.335   0.759   7.686  0.3115  0.5259 -0.0247
  804TIP3    H123971   4.347   0.669   7.655 -1.1184  0.8751 -1.7162
  804TIP3    H223972   4.251   0.787   7.650  0.0291  2.0806  1.6612
  805TIP3   OH223973   4.120   1.776   0.920  0.3909 -0.2114  0.9202
  805TIP3    H123974   4.077   1.860   0.906  0.4040 -0.4298 -0.5925
  805TIP3    H223975   4.204   1.784   0.875 -0.1599 -1.4599 -0.4168
  806TIP3   OH223976   1.665   5.033   0.900  0.1086  0.3025 -0.1072
  806TIP3    H123977   1.608   5.050   0.976  1.4886  0.8642  0.8513
  806TIP3    H223978   1.699   5.119   0.876 -0.8404  0.2218 -1.8326
  807TIP3   OH223979   6.429   6.768   8.105 -0.1967  0.3124 -0.0854
  807TIP3    H123980   6.396   6.683   8.076  0.7441 -0.4136  0.8879
  807TIP3    H223981   6.351   6.819   8.125 -0.8373 -1.4985  2.6140
  808TIP3   OH223982   6.569   6.432   0.272  0.3202 -0.3170 -0.3629
  808TIP3    H123983   6.650   6.407   0.315  0.8306 -3.2502 -2.6663
  808TIP3    H223984   6.598   6.478   0.193 -0.3317  0.2424 -0.2781
  809TIP3   OH223985   4.755   4.052   1.255 -0.0957 -0.3620 -0.2438
  809TIP3    H123986   4.779   4.123   1.196 -0.0743 -0.8869 -0.8840
  809TIP3    H223987   4.708   4.094   1.327  0.6112  0.3863 -0.2114
  810TIP3   OH223988   0.576   4.171   0.099  0.2754  0.0767 -0.0558
  810TIP3    H123989   0.507   4.236   0.111 -0.6870 -0.9166 -0.0652
  810TIP3    H223990   0.650   4.206   0.150 -0.3844  0.9214  0.3557
  811TIP3   OH223991   1.905   0.857   7.892 -0.1810 -0.5340  0.0498
  811TIP3    H123992   1.879   0.773   7.929 -2.0864  0.0336  0.1285
  811TIP3    H223993   1.915   0.840   7.798  0.5377 -1.0644  0.2125
  812TIP3   OH223994   4.976   2.662   8.011 -0.1618  0.1784 -0.1304
  812TIP3    H123995   5.065   2.694   8.023  0.0137 -0.2803 -0.1875
  812TIP3    H223996   4.927   2.694   8.087  0.8390 -2.4257  1.7738
  813TIP3   OH223997   2.940   3.326   6.929  0.4860  0.6901  0.6007
  813TIP3    H123998   3.024   3.365   6.953  1.4824 -1.6907  1.2235
  813TIP3    H223999   2.953   3.298   6.838  1.2000 -1.6036  1.3477
  814TIP3   OH224000   6.384   6.649   7.804 -0.0128 -0.2043  0.4373
  814TIP3    H124001   6.314   6.662   7.868 -0.2287 -1.5327  0.4944
  814TIP3    H224002   6.436   6.577   7.839  0.2841 -0.4788 -0.5294
  815TIP3   OH224003   4.124   4.689   6.896  0.5989  0.4395 -0.1869
  815TIP3    H124004   4.081   4.624   6.841  1.4430  0.7906 -1.3036
  815TIP3    H224005   4.214   4.655   6.907  0.2097 -0.1257  1.8339
  816TIP3   OH224006   5.507   3.858   7.632 -0.3514  0.0293 -0.3459
  816TIP3    H124007   5.562   3.835   7.557  1.1613  3.7879 -0.6166
  816TIP3    H224008   5.551   3.818   7.707  1.8554  1.4543 -0.7899
  817TIP3   OH224009   2.699   5.123   0.163 -0.1709  0.3726 -0.5099
  817TIP3    H124010   2.724   5.083   0.080 -0.0269 -0.0511 -0.2636
  817TIP3    H224011   2.617   5.079   0.186  1.0333 -1.2887  0.7919
  818TIP3   OH224012   5.240   0.743   7.806 -0.0787  0.6870  0.1441
  818TIP3    H124013   5.219   0.670   7.748  1.7787 -0.1830  0.4852
  818TIP3    H224014   5.198   0.720   7.889  2.8974 -1.6709  1.2084
  819TIP3   OH224015   3.832   5.252   7.538  0.1923 -0.3288  0.2991
  819TIP3    H124016   3.878   5.223   7.616  0.9157 -0.1160 -0.0372
  819TIP3    H224017   3.856   5.189   7.470  1.1524  0.5865 -0.2382
  820TIP3   OH224018   2.028   3.838   8.663  0.3683  0.7914  0.2398
  820TIP3    H124019   2.016   3.932   8.674 -0.4207  0.6238  0.9354
  820TIP3    H224020   2.035   3.804   8.753  0.0896  0.1253  0.0190
  821TIP3   OH224021   2.908   5.461   8.527  0.5555 -0.1372 -0.4370
  821TIP3    H124022   2.875   5.491   8.612 -0.0299 -1.3358 -0.2185
  821TIP3    H224023   2.976   5.397   8.549  0.8868  0.0548 -0.8846
  822TIP3   OH224024   4.050   2.154   1.455 -0.0819  0.5755 -0.1450
  822TIP3    H124025   4.073   2.188   1.369 -1.3623 -0.8040 -1.0727
  822TIP3    H224026   4.106   2.078   1.467 -0.2718  0.4580  0.0125
  823TIP3   OH224027   6.765   3.286   6.514 -0.0349  0.3310  0.1906
  823TIP3    H124028   6.826   3.356   6.491  0.2215  0.9222  2.4568
  823TIP3    H224029   6.714   3.321   6.587 -1.7635 -0.8736 -0.3755
  824TIP3   OH224030   6.732   2.201   8.294 -0.0322  0.4788 -0.1042
  824TIP3    H124031   6.721   2.213   8.388 -2.3836  1.3477 -0.4353
  824TIP3    H224032   6.685   2.119   8.274  1.0643 -0.0892 -0.4385
  825TIP3   OH224033   0.873   4.651   6.669  0.2067 -0.4570  0.5418
  825TIP3    H124034   0.873   4.683   6.579 -1.3734 -0.0187  0.6737
  825TIP3    H224035   0.937   4.707   6.714 -2.1970  2.4198  0.6808
  826TIP3   OH224036   2.961   4.615   7.686  0.2550  0.1711  0.2286
  826TIP3    H124037   3.039   4.561   7.700  0.4547  0.3223 -0.2736
  826TIP3    H224038   2.928   4.587   7.601  0.4922  0.9948 -0.1460
  827TIP3   OH224039   5.591   0.054   6.930  0.7351 -0.5675  0.2464
  827TIP3    H124040   5.529   0.092   6.867  0.4466 -1.8647 -0.2856
  827TIP3    H224041   5.653   0.006   6.876  0.5625 -1.5930  0.9325
  828TIP3   OH224042   2.272   5.374   7.515  0.6521 -0.4997 -0.2188
  828TIP3    H124043   2.352   5.426   7.509 -0.6667  1.7955  0.5827
  828TIP3    H224044   2.282   5.324   7.596  1.0200  0.2871  0.2356
  829TIP3   OH224045   4.192   3.748   7.899  0.5570 -0.3480 -0.5096
  829TIP3    H124046   4.256   3.680   7.876  0.6231 -0.7028  0.6398
  829TIP3    H224047   4.244   3.815   7.945  0.6872  1.0287 -2.5161
  830TIP3   OH224048   2.257   3.592   6.169  0.0735  0.0518 -0.0166
  830TIP3    H124049   2.348   3.599   6.196 -0.4218  0.9368  1.5260
  830TIP3    H224050   2.211   3.559   6.246 -1.0328  0.3361 -0.5340
  831TIP3   OH224051   3.869   4.242   1.415  0.0403 -0.7297 -0.2944
  831TIP3    H124052   3.926   4.253   1.491 -0.9574 -0.5954  0.4516
  831TIP3    H224053   3.802   4.180   1.444 -1.5289  0.8675 -0.3633
  832TIP3   OH224054   2.953   6.366   1.349 -0.8975  0.0006  0.6944
  832TIP3    H124055   2.966   6.361   1.254 -0.1001 -1.1722  0.8522
  832TIP3    H224056   2.859   6.380   1.360 -1.4090 -2.3643 -0.2191
  833TIP3   OH224057   2.567   3.107   8.715  0.5027 -0.2623 -0.4138
  833TIP3    H124058   2.508   3.045   8.757 -0.9151  0.5402 -1.1492
  833TIP3    H224059   2.510   3.164   8.663  1.6303  2.2405  0.9131
  834TIP3   OH224060   0.370   2.868   8.660 -0.0871  0.5701 -0.1997
  834TIP3    H124061   0.418   2.893   8.581 -0.8766 -1.1399 -1.2939
  834TIP3    H224062   0.277   2.875   8.635 -0.3560  0.4856  0.7360
  835TIP3   OH224063   3.856   3.783   0.926  0.1331  0.3260 -0.1591
  835TIP3    H124064   3.827   3.757   1.013  0.5737 -1.7729 -0.5870
  835TIP3    H224065   3.776   3.817   0.884 -0.1851  0.9006  0.8908
  836TIP3   OH224066   0.941   2.536   0.377  0.3632  0.4262 -0.1960
  836TIP3    H124067   1.001   2.501   0.312  1.6302 -0.8685  1.5747
  836TIP3    H224068   0.878   2.466   0.393  0.3011  0.5788  0.2488
  837TIP3   OH224069   4.546   3.808   8.463  0.1695  0.3086 -0.3415
  837TIP3    H124070   4.454   3.827   8.480  0.3838  2.1886 -1.0910
  837TIP3    H224071   4.545   3.760   8.380 -0.1383  0.3033 -0.3356
  838TIP3   OH224072   1.010   5.800   8.566 -0.1061 -0.1397  0.3083
  838TIP3    H124073   1.003   5.778   8.659  0.7729  0.6966  0.5811
  838TIP3    H224074   1.046   5.721   8.526 -2.2166 -1.2103  0.3257
  839TIP3   OH224075   1.761   0.554   0.465  0.2642 -0.0314 -0.1932
  839TIP3    H124076   1.699   0.607   0.413 -0.4416 -0.6982 -0.0511
  839TIP3    H224077   1.773   0.474   0.413 -0.8339 -0.9281  0.8720
  840TIP3   OH224078   4.002   3.971   0.492 -0.2330  0.0305 -0.0456
  840TIP3    H124079   4.023   3.976   0.585 -2.9496  1.0823  0.6148
  840TIP3    H224080   4.006   4.062   0.462 -0.8783 -0.1072 -0.5651
  841TIP3   OH224081   1.867   4.744   8.404 -0.1309  0.1218 -0.0265
  841TIP3    H124082   1.822   4.813   8.453  1.4529  1.0568  0.1694
  841TIP3    H224083   1.886   4.784   8.319  1.1025  0.0740  0.2085
  842TIP3   OH224084   0.198   0.190   2.178 -0.1700 -0.1420 -0.2294
  842TIP3    H124085   0.116   0.233   2.158 -0.4136 -0.5532 -0.1426
  842TIP3    H224086   0.172   0.105   2.214  0.2757 -0.0366  0.3688
  843TIP3   OH224087   2.675   0.714   7.679  0.6884  0.1436 -0.2752
  843TIP3    H124088   2.581   0.716   7.694  0.6350 -1.6640 -0.2034
  843TIP3    H224089   2.703   0.805   7.690 -0.5615  0.2592  2.8554
  844TIP3   OH224090   2.364   0.503   0.267 -0.0440 -0.2228  0.4070
  844TIP3    H124091   2.308   0.434   0.231 -1.5341  0.8564  0.5527
  844TIP3    H224092   2.375   0.480   0.359  0.0816 -0.6404  0.2911
  845TIP3   OH224093   5.078   6.522   7.732 -0.1847  0.0748 -0.2813
  845TIP3    H124094   5.162   6.554   7.765  0.2666 -0.6555 -0.6857
  845TIP3    H224095   5.061   6.443   7.785 -0.4009 -0.0223 -0.4959
  846TIP3   OH224096   2.913   3.882   8.697 -0.1896 -0.1725  0.4946
  846TIP3    H124097   2.861   3.815   8.652 -0.5468  0.6010 -0.2554
  846TIP3    H224098   2.993   3.889   8.645  0.1202 -0.4563  0.9279
  847TIP3   OH224099   1.705   0.611   8.542 -0.4894 -0.6944 -0.6181
  847TIP3    H124100   1.791   0.603   8.583 -0.6383 -0.1942 -0.2044
  847TIP3    H224101   1.719   0.669   8.468 -0.6610  0.1853  0.0254
  848TIP3   OH224102   4.565   5.858   8.336  0.1779 -0.5660 -0.1028
  848TIP3    H124103   4.579   5.887   8.246 -0.1120  0.6504  0.2196
  848TIP3    H224104   4.598   5.930   8.390 -2.8581  0.3964  0.7088
  849TIP3   OH224105   4.068   6.110   1.785  0.0076  0.0421 -0.2038
  849TIP3    H124106   4.035   6.085   1.872 -1.4002  2.2586 -0.0374
  849TIP3    H224107   4.121   6.035   1.758 -0.3057 -1.1292  2.1400
  850TIP3   OH224108   2.896   2.644   8.266 -0.5843  0.0772 -0.0156
  850TIP3    H124109   2.852   2.617   8.186 -0.2937 -1.0686  0.1984
  850TIP3    H224110   2.936   2.564   8.300 -1.0312  0.4536  1.4706
  851TIP3   OH224111   1.295   5.039   8.075  0.4386  0.4364  0.5616
  851TIP3    H124112   1.376   5.038   8.127 -0.3408 -0.1397  1.8154
  851TIP3    H224113   1.318   4.996   7.993  1.5236  0.7137  0.7047
  852TIP3   OH224114   4.345   4.687   0.192  0.0422  0.4910 -0.2000
  852TIP3    H124115   4.393   4.736   0.125 -0.8939  1.3560 -0.2625
  852TIP3    H224116   4.325   4.604   0.150  2.3492 -0.3325  0.1817
  853TIP3   OH224117   6.029   2.226   1.165 -0.3384  0.5143  0.2762
  853TIP3    H124118   6.078   2.261   1.091  0.6785 -1.5161 -0.0869
  853TIP3    H224119   6.092   2.221   1.236 -0.7474  0.4477  0.6415
  854TIP3   OH224120   5.227   3.018   1.092  0.3619  0.8479 -0.0246
  854TIP3    H124121   5.228   2.923   1.087  1.0622  0.8767 -0.6165
  854TIP3    H224122   5.299   3.040   1.152  0.9171  1.0393 -0.7507
  855TIP3   OH224123   6.579   2.494   6.924  0.0941  0.4363  0.6084
  855TIP3    H124124   6.551   2.417   6.974 -1.4784  1.2261  1.0098
  855TIP3    H224125   6.510   2.507   6.860  0.4710  1.3561  0.3745
  856TIP3   OH224126   4.673   4.116   6.237 -0.5738  0.0445 -0.6415
  856TIP3    H124127   4.663   4.115   6.333  0.1804 -0.5456 -0.5588
  856TIP3    H224128   4.641   4.030   6.209 -0.3486  0.0366 -0.8721
  857TIP3   OH224129   5.219   5.107   0.168 -0.0491 -0.0846 -0.5926
  857TIP3    H124130   5.153   5.037   0.168 -1.2827  1.0349 -0.4291
  857TIP3    H224131   5.260   5.100   0.254 -1.0358  0.1475 -0.0818
  858TIP3   OH224132   6.063   3.946   6.586  0.1178 -0.4685  0.0435
  858TIP3    H124133   6.159   3.952   6.593  0.0687 -0.0916  0.4211
  858TIP3    H224134   6.043   3.857   6.614  0.2491 -0.1257  1.3115
  859TIP3   OH224135   4.957   2.469   8.201  0.6111 -0.0668  0.1258
  859TIP3    H124136   4.884   2.466   8.139 -0.0585 -1.2522  0.9441
  859TIP3    H224137   5.028   2.512   8.152  0.0805 -0.9204 -1.4523
  860TIP3   OH224138   0.837   2.503   2.103  0.2209 -0.3255 -0.3290
  860TIP3    H124139   0.896   2.578   2.113  0.1408 -0.0070 -1.8624
  860TIP3    H224140   0.788   2.499   2.185  2.1680 -0.4433  0.9039
  861TIP3   OH224141   6.514   3.216   7.543 -0.4048 -0.7111 -0.3022
  861TIP3    H124142   6.546   3.274   7.474 -0.2430 -0.9879 -0.4621
  861TIP3    H224143   6.431   3.255   7.570 -0.6708 -0.8176 -0.9353
  862TIP3   OH224144   5.177   0.898   1.884 -0.1884  0.5938  0.7026
  862TIP3    H124145   5.099   0.908   1.829  0.0666 -0.0045  0.2204
  862TIP3    H224146   5.142   0.884   1.972 -0.7775 -2.3950  0.1244
  863TIP3   OH224147   5.455   3.165   0.226 -0.6457  0.4748 -0.9369
  863TIP3    H124148   5.420   3.083   0.260  0.1059  0.0799 -1.0811
  863TIP3    H224149   5.499   3.205   0.300  0.2870  0.0071 -1.2165
  864TIP3   OH224150   6.599   1.327   8.186  0.1636  0.1737  0.1771
  864TIP3    H124151   6.615   1.238   8.216 -0.1587  0.5665  1.5858
  864TIP3    H224152   6.561   1.316   8.099  0.5015 -1.0402  0.1641
  865TIP3   OH224153   5.278   3.779   7.399  0.3313 -0.2331 -0.5164
  865TIP3    H124154   5.204   3.788   7.458  1.3151  1.3142  0.5511
  865TIP3    H224155   5.242   3.795   7.312 -0.2750  2.6793  0.1683
  866TIP3   OH224156   3.360   2.118   1.852  0.0593 -0.5971 -0.0455
  866TIP3    H124157   3.268   2.100   1.872 -0.0918 -0.0500 -0.2224
  866TIP3    H224158   3.359   2.205   1.812  0.9124  0.4971  2.1247
  867TIP3   OH224159   4.905   4.688   1.957  0.1388 -0.3238  0.1631
  867TIP3    H124160   4.830   4.643   1.918  0.1843 -0.6984  0.5055
  867TIP3    H224161   4.926   4.637   2.035  0.6036 -0.0844  0.1978
  868TIP3   OH224162   2.629   6.615   1.049  0.0392 -0.5426 -0.8158
  868TIP3    H124163   2.573   6.540   1.069  1.4130 -1.3311  0.2134
  868TIP3    H224164   2.607   6.680   1.116  0.1822 -0.7632 -0.5531
  869TIP3   OH224165   2.935   6.620   1.538 -0.4779 -0.5459  0.5872
  869TIP3    H124166   2.979   6.557   1.596 -1.6491  0.0584  2.1946
  869TIP3    H224167   2.915   6.695   1.595 -1.5070  0.1550 -0.6541
  870TIP3   OH224168   6.420   5.101   7.830 -0.0859 -0.2607  0.3078
  870TIP3    H124169   6.395   5.102   7.738  0.2463  1.9957  0.2068
  870TIP3    H224170   6.439   5.192   7.852 -0.0087 -0.7525  2.5815
  871TIP3   OH224171   1.358   1.653   1.082 -0.2627 -0.2005 -0.0231
  871TIP3    H124172   1.323   1.741   1.070  0.1452 -0.2204 -1.4885
  871TIP3    H224173   1.453   1.666   1.086 -0.2198 -0.5468  0.1034
  872TIP3   OH224174   1.756   4.804   1.762  0.2309 -0.2992 -0.4735
  872TIP3    H124175   1.796   4.766   1.841 -1.4574 -0.8932  0.1412
  872TIP3    H224176   1.680   4.749   1.745 -0.9594  1.4083 -0.9418
  873TIP3   OH224177   6.717   1.562   7.910 -0.3487 -0.0752 -0.5081
  873TIP3    H124178   6.689   1.621   7.840 -1.9770 -0.9058 -0.6228
  873TIP3    H224179   6.646   1.567   7.974  1.0424  0.5531  1.0444
  874TIP3   OH224180   6.142   2.744   1.049  0.1507 -0.4387 -0.6158
  874TIP3    H124181   6.068   2.689   1.022 -0.3739 -0.6523  1.1540
  874TIP3    H224182   6.102   2.813   1.102  1.1803 -0.3519  0.0629
  875TIP3   OH224183   1.880   4.064   2.208  0.4417  0.0008  0.0366
  875TIP3    H124184   1.859   4.137   2.267 -0.3501 -0.6024  0.5209
  875TIP3    H224185   1.836   4.087   2.126 -0.4725 -0.2980  0.4325
  876TIP3   OH224186   0.145   1.462   0.027  0.7143  0.8084 -0.1630
  876TIP3    H124187   0.188   1.460   0.113 -0.4863  0.3901  0.4530
  876TIP3    H224188   0.164   1.376  -0.011 -0.6654  0.0864  0.6906
  877TIP3   OH224189   0.049   2.832   1.291 -0.6788 -0.2553  0.0460
  877TIP3    H124190   0.074   2.910   1.242  1.6098  0.3763  2.0415
  877TIP3    H224191   0.109   2.764   1.260 -1.3766 -0.7192 -0.3047
  878TIP3   OH224192   5.704   4.768   1.796  0.0823 -0.0115 -0.2553
  878TIP3    H124193   5.780   4.742   1.745 -0.3928 -0.1061 -0.9327
  878TIP3    H224194   5.738   4.827   1.863  1.0994 -1.7893  0.8926
  879TIP3   OH224195   2.411   3.504   1.679 -0.5099  0.4382  0.2485
  879TIP3    H124196   2.421   3.591   1.642  0.5354  0.2491  0.0614
  879TIP3    H224197   2.361   3.517   1.760 -1.9280  0.9763 -0.6746
  880TIP3   OH224198   2.591   4.365   1.343 -0.1639 -0.1746  0.0969
  880TIP3    H124199   2.519   4.428   1.343 -1.3455 -1.4484 -0.8504
  880TIP3    H224200   2.647   4.392   1.415 -1.4139  1.0672  0.6460
  881TIP3   OH224201   4.779   4.499   0.509 -0.0981 -0.6110  0.2740
  881TIP3    H124202   4.794   4.448   0.429 -0.0433 -1.3072  0.7196
  881TIP3    H224203   4.716   4.566   0.484  1.8520  0.8342 -1.0315
  882TIP3   OH224204   5.347   1.542   8.683 -0.2770 -0.3930  0.1892
  882TIP3    H124205   5.415   1.595   8.642  0.6240 -0.7134  1.2245
  882TIP3    H224206   5.288   1.519   8.611 -1.5416  3.1821 -0.0897
  883TIP3   OH224207   0.532   3.278   1.282  0.1179  0.2136 -0.0899
  883TIP3    H124208   0.527   3.373   1.297 -0.0789  0.4167 -1.3085
  883TIP3    H224209   0.458   3.242   1.330 -0.2442  0.7745 -0.2165
  884TIP3   OH224210   4.431   1.519   1.327 -0.3844 -0.3505 -0.0264
  884TIP3    H124211   4.429   1.427   1.355 -0.2540 -0.1832  0.5614
  884TIP3    H224212   4.495   1.560   1.386  1.6291 -0.4480 -2.0152
  885TIP3   OH224213   6.403   5.644   8.584  0.2485 -0.4394 -0.4400
  885TIP3    H124214   6.428   5.722   8.535  0.8367  0.0360  0.5759
  885TIP3    H224215   6.423   5.571   8.526  1.8087  0.0583 -0.5782
  886TIP3   OH224216   5.004   6.393   8.003  0.5901 -0.1249  0.0481
  886TIP3    H124217   5.076   6.337   7.974  0.2865  0.7240 -2.6381
  886TIP3    H224218   4.929   6.335   8.011  0.8488 -0.5025 -0.2474
  887TIP3   OH224219   0.276   1.285   7.920  0.3933  0.3278  0.2033
  887TIP3    H124220   0.307   1.270   7.831  1.1529 -0.0887  0.5342
  887TIP3    H224221   0.193   1.237   7.925  0.6991 -0.2387 -0.0635
  888TIP3   OH224222   3.806   5.060   0.112 -0.1625  0.3338 -0.1703
  888TIP3    H124223   3.739   5.086   0.175  0.2663 -0.8739  0.8391
  888TIP3    H224224   3.866   5.004   0.162  1.2971  0.9221 -1.1827
  889TIP3   OH224225   0.046   0.866   1.897  0.0320 -0.3268 -0.0944
  889TIP3    H124226   0.039   0.941   1.956  0.8985  0.7281 -1.2910
  889TIP3    H224227  -0.044   0.831   1.892 -0.5286  1.0726 -0.0963
  890TIP3   OH224228   2.704   3.445   1.591 -0.1453 -0.4802 -0.3453
  890TIP3    H124229   2.737   3.490   1.668 -1.1971 -1.4448  0.7241
  890TIP3    H224230   2.630   3.498   1.561  1.1935  0.7198 -1.6616
  891TIP3   OH224231   3.715   0.689   0.723  0.0025  0.1805  0.2353
  891TIP3    H124232   3.784   0.728   0.776 -0.0282 -0.5848  0.8476
  891TIP3    H224233   3.637   0.691   0.778  0.6995 -3.7723  1.7171
  892TIP3   OH224234   0.322   5.823   7.568  0.9237  0.3658  0.0528
  892TIP3    H124235   0.256   5.797   7.503  1.5641 -0.2067 -0.3890
  892TIP3    H224236   0.395   5.854   7.515  0.6066  2.0357  0.5602
  893TIP3   OH224237   2.700   6.077   8.701  0.3188  0.4623 -0.3950
  893TIP3    H124238   2.700   6.094   8.607  1.4628 -1.1591 -0.7334
  893TIP3    H224239   2.702   5.981   8.707  2.5961  0.5587  1.2534
  894TIP3   OH224240   3.137   1.226   7.451  0.3209  0.2000 -0.7226
  894TIP3    H124241   3.170   1.238   7.540 -0.3400 -1.4890 -0.2074
  894TIP3    H224242   3.056   1.277   7.449  0.1522 -0.0338 -0.2207
  895TIP3   OH224243   5.760   5.989   1.080  1.1771  0.2004 -0.5347
  895TIP3    H124244   5.688   6.017   1.023 -0.2160 -1.7391  0.1781
  895TIP3    H224245   5.757   6.049   1.154  3.6735  3.4511 -2.7768
  896TIP3   OH224246   1.605   6.615   7.044 -0.2498  0.1893 -0.1532
  896TIP3    H124247   1.582   6.548   7.108 -0.8826 -0.8657 -1.4370
  896TIP3    H224248   1.657   6.569   6.978  0.7405  1.3379 -0.2135
  897TIP3   OH224249   5.542   0.428   6.440  0.1009  0.6919  0.4727
  897TIP3    H124250   5.509   0.511   6.474 -0.2903  1.9556 -2.7107
  897TIP3    H224251   5.622   0.451   6.393  1.2544 -1.1521  1.3899
  898TIP3   OH224252   5.905   2.602   0.733  0.5128  0.0499  0.0709
  898TIP3    H124253   5.849   2.557   0.669  1.2704 -2.4132  1.0147
  898TIP3    H224254   5.844   2.646   0.791 -0.3914 -0.9732 -0.0572
  899TIP3   OH224255   6.305   0.225   7.277  0.2042  0.0961 -0.3026
  899TIP3    H124256   6.255   0.155   7.319 -0.6044  1.4769  1.1144
  899TIP3    H224257   6.242   0.295   7.261  1.6624  2.0719  1.9104
  900TIP3   OH224258   5.191   4.369   1.961 -0.5089 -0.4025  0.7005
  900TIP3    H124259   5.160   4.283   1.934 -1.7348  0.3505 -0.4336
  900TIP3    H224260   5.115   4.408   2.006 -0.7235  0.8658 -0.6788
  901TIP3   OH224261   5.433   2.653   6.612  0.1859  0.3228 -0.7483
  901TIP3    H124262   5.491   2.654   6.688  0.0847 -4.0794 -0.3654
  901TIP3    H224263   5.351   2.690   6.644  0.4449 -0.5543  1.0539
  902TIP3   OH224264   2.456   5.480   8.306 -0.1379  0.3408 -0.1553
  902TIP3    H124265   2.440   5.417   8.236  0.4893  0.0060 -0.0017
  902TIP3    H224266   2.503   5.552   8.264 -0.4115  0.4808 -0.2257
  903TIP3   OH224267   0.875   3.051   8.795 -0.0386 -0.5407  0.0467
  903TIP3    H124268   0.879   2.956   8.798 -0.0864 -0.5244  0.9293
  903TIP3    H224269   0.784   3.072   8.818 -0.3274 -0.3078 -1.2326
  904TIP3   OH224270   5.695   5.704   6.564  0.0427  0.6111 -0.0117
  904TIP3    H124271   5.754   5.667   6.630  0.8608  0.7418 -0.6636
  904TIP3    H224272   5.608   5.694   6.603  0.5344  1.0881  1.2865
  905TIP3   OH224273   6.712   6.418   0.995  0.0652  0.3774  0.2621
  905TIP3    H124274   6.802   6.434   1.024  0.0439 -0.0745  0.6063
  905TIP3    H224275   6.677   6.504   0.973 -0.0347  0.8070  1.9561
  906TIP3   OH224276   1.997   0.271   1.038 -0.3435  0.0074  0.2846
  906TIP3    H124277   2.029   0.285   0.949  0.5149  1.7273  0.8056
  906TIP3    H224278   2.063   0.313   1.094 -2.5589  2.1039  1.5182
  907TIP3   OH224279   5.299   5.178   8.582  0.2997 -0.6491  0.1187
  907TIP3    H124280   5.211   5.188   8.544  1.3428  0.8162 -2.1223
  907TIP3    H224281   5.343   5.116   8.523  0.9696 -0.8748  0.8508
  908TIP3   OH224282   2.084   0.581   0.460 -0.5408  0.0064 -0.3807
  908TIP3    H124283   2.112   0.606   0.372 -0.5019  0.1908 -0.3157
  908TIP3    H224284   2.016   0.515   0.445  0.5526 -1.1149 -0.5235
  909TIP3   OH224285   0.930   4.837   1.987  0.0632  0.0102  0.3104
  909TIP3    H124286   1.021   4.858   2.011  0.1895  0.1659 -0.2779
  909TIP3    H224287   0.922   4.744   2.004  0.2131  0.0710  0.7403
  910TIP3   OH224288   2.378   6.071   8.827  0.3319 -0.4300 -0.2361
  910TIP3    H124289   2.333   5.986   8.831  1.3169 -0.9503  0.0277
  910TIP3    H224290   2.452   6.062   8.886 -1.0007  1.5356  1.9218
  911TIP3   OH224291   1.534   1.603   7.985  0.0958 -0.3227  0.3056
  911TIP3    H124292   1.545   1.508   7.987 -0.3941 -0.3780  1.2529
  911TIP3    H224293   1.450   1.617   7.941 -0.2375 -0.3914  0.8966
  912TIP3   OH224294   1.226   5.141   0.184 -0.2270 -0.1075  0.0035
  912TIP3    H124295   1.278   5.162   0.106 -0.6888  1.3898  0.0782
  912TIP3    H224296   1.145   5.104   0.149 -0.4325  0.5553 -0.2378
  913TIP3   OH224297   4.642   5.716   1.291 -0.7949  0.1902 -0.4009
  913TIP3    H124298   4.608   5.635   1.251 -0.2846 -1.0665  1.5815
  913TIP3    H224299   4.736   5.702   1.297 -0.7158  0.8970  0.0410
  914TIP3   OH224300   2.180   2.710   7.511 -0.1147  0.3593  0.2301
  914TIP3    H124301   2.134   2.628   7.494  1.2922 -0.8935  2.0792
  914TIP3    H224302   2.262   2.702   7.461  1.7549 -1.1518  3.2199
  915TIP3   OH224303   2.370   3.941   0.426 -1.1653  0.4437 -0.1683
  915TIP3    H124304   2.313   4.016   0.412  0.4527  2.1554  1.6170
  915TIP3    H224305   2.458   3.979   0.427 -0.2765 -1.5234  0.6088
  916TIP3   OH224306   3.662   4.569   0.909 -0.2600 -0.3974 -0.1507
  916TIP3    H124307   3.570   4.576   0.886  0.1053 -1.1559 -2.0021
  916TIP3    H224308   3.708   4.620   0.843  0.6417  0.2989  0.9801
  917TIP3   OH224309   0.319   3.893   7.463  0.9142  0.1045  0.5787
  917TIP3    H124310   0.340   3.828   7.530  1.7499  0.0380  0.2619
  917TIP3    H224311   0.381   3.875   7.392  0.0867  0.2110 -0.1962
  918TIP3   OH224312   5.265   6.408   0.054  0.0026 -0.3121 -0.4786
  918TIP3    H124313   5.183   6.424   0.101  0.1209  1.9468 -0.9299
  918TIP3    H224314   5.333   6.443   0.112  0.4022  0.0215 -1.1340
  919TIP3   OH224315   1.008   1.345   0.887 -0.4435  0.2666 -0.0488
  919TIP3    H124316   0.961   1.306   0.960 -0.9411  1.5865  0.3734
  919TIP3    H224317   1.060   1.416   0.927  1.5055 -0.7921 -0.5771
  920TIP3   OH224318   1.584   5.861   1.420 -0.1150  0.1897  0.4036
  920TIP3    H124319   1.505   5.896   1.461  0.3178  2.2387 -0.3815
  920TIP3    H224320   1.632   5.939   1.392  2.7883 -0.8943  1.9381
  921TIP3   OH224321   5.945   0.811   1.585 -0.9823  0.5667  0.1431
  921TIP3    H124322   5.908   0.738   1.636 -1.3346  1.0489  0.5937
  921TIP3    H224323   5.886   0.821   1.511  0.8378 -1.7166 -1.7732
  922TIP3   OH224324   1.940   6.109   6.946  0.1235 -0.8924 -0.6803
  922TIP3    H124325   1.962   6.202   6.948 -1.1237 -0.5799  0.0600
  922TIP3    H224326   1.855   6.105   6.903 -1.4951 -1.2403  2.2221
  923TIP3   OH224327   6.468   6.132   8.120 -0.5814  0.0058  0.0942
  923TIP3    H124328   6.503   6.197   8.180 -0.6600  0.3489 -0.2327
  923TIP3    H224329   6.541   6.073   8.102 -0.8862 -0.8628  1.5442
  924TIP3   OH224330   5.299   0.135   6.951  0.0941  0.0990 -0.3777
  924TIP3    H124331   5.263   0.177   7.028  0.8778  1.3028 -0.6457
  924TIP3    H224332   5.270   0.044   6.957  0.1046  0.1834  1.2952
  925TIP3   OH224333   4.572   5.560   0.028  0.2733 -0.1985 -0.2756
  925TIP3    H124334   4.615   5.601   0.103  0.2821 -2.4088  1.0177
  925TIP3    H224335   4.489   5.526   0.064 -0.0473 -0.6734 -1.4358
  926TIP3   OH224336   2.502   3.931   2.186  0.0870 -0.0445  0.5208
  926TIP3    H124337   2.430   3.874   2.159 -0.5891  0.1654  1.8139
  926TIP3    H224338   2.540   3.887   2.262 -0.4169  1.1727  1.5164
  927TIP3   OH224339   1.440   4.161   8.359 -0.4881  0.3190 -0.3184
  927TIP3    H124340   1.385   4.101   8.309 -0.1706  0.2443 -0.5818
  927TIP3    H224341   1.526   4.119   8.360 -0.6031  0.0716  0.7154
  928TIP3   OH224342   2.460   2.118   6.810  0.1012 -0.0919 -0.3668
  928TIP3    H124343   2.413   2.145   6.732 -1.0872  0.9729  0.6569
  928TIP3    H224344   2.531   2.181   6.819 -1.4923  1.6885  0.9257
  929TIP3   OH224345   1.379   5.703   8.631 -0.3021 -0.6545  0.0369
  929TIP3    H124346   1.345   5.734   8.547  1.1964  0.4948 -0.1877
  929TIP3    H224347   1.310   5.725   8.694 -1.7196 -2.0872 -0.9363
  930TIP3   OH224348   1.640   0.783   0.620 -0.0702 -0.3088  0.1808
  930TIP3    H124349   1.674   0.872   0.623 -0.3723 -0.2085  0.7241
  930TIP3    H224350   1.556   0.788   0.667 -1.1623 -0.4049 -1.6442
  931TIP3   OH224351   1.545   6.384   7.180  0.0166  0.2865 -0.6510
  931TIP3    H124352   1.518   6.406   7.269  1.7135  0.6676 -0.1969
  931TIP3    H224353   1.475   6.326   7.148 -1.4420  1.4262  0.3144
  932TIP3   OH224354   3.494   2.671   0.706  0.1884  0.4167  0.6321
  932TIP3    H124355   3.498   2.578   0.728 -1.4994  0.3496  0.7801
  932TIP3    H224356   3.553   2.680   0.631 -0.4032 -0.9757 -0.0422
  933TIP3   OH224357   1.443   6.094   8.401 -0.3781  0.3740  0.7639
  933TIP3    H124358   1.483   6.070   8.485 -1.3057  0.4481  1.2434
  933TIP3    H224359   1.487   6.038   8.337 -1.3876 -1.5293  1.6330
  934TIP3   OH224360   6.064   2.395   8.583  0.2096 -0.3640  0.5513
  934TIP3    H124361   6.142   2.338   8.586 -0.1449 -0.8521  0.7000
  934TIP3    H224362   5.999   2.348   8.635  0.9884  1.8684  3.8806
  935TIP3   OH224363   4.292   1.678   1.555 -0.9457 -0.1722 -0.1142
  935TIP3    H124364   4.375   1.634   1.534 -1.4518 -0.8758 -0.7071
  935TIP3    H224365   4.251   1.622   1.622 -1.6037 -0.6514 -0.8918
  936TIP3   OH224366   6.416   6.597   8.556  0.4751 -0.5266  0.5242
  936TIP3    H124367   6.382   6.564   8.473 -0.3553 -1.0102  1.0368
  936TIP3    H224368   6.339   6.635   8.599  1.1662  0.9897  0.4771
  937TIP3   OH224369   1.252   3.471   8.513 -0.0028  0.0264  0.2334
  937TIP3    H124370   1.228   3.469   8.420  0.2092 -0.7514  0.1853
  937TIP3    H224371   1.237   3.562   8.540  0.0685  0.2928 -0.5934
  938TIP3   OH224372   1.437   3.415   1.662 -0.0128 -0.1261  0.0461
  938TIP3    H124373   1.396   3.342   1.616 -1.3898  1.1507 -0.8372
  938TIP3    H224374   1.371   3.443   1.725  0.1463  0.8786 -0.2203
  939TIP3   OH224375   1.485   1.569   2.724  0.5867  0.6614 -0.4195
  939TIP3    H124376   1.473   1.519   2.644  1.2963  0.6268 -0.5163
  939TIP3    H224377   1.568   1.536   2.760 -0.1131  0.1080  0.7489
  940TIP3   OH224378   2.295   2.504   8.200  0.2163  0.1801  0.3108
  940TIP3    H124379   2.307   2.416   8.235  0.2359  0.0158 -0.1060
  940TIP3    H224380   2.383   2.532   8.176  0.0963 -0.0630 -0.4469
  941TIP3   OH224381   1.825   5.079   7.985  0.3031 -0.8515  0.7962
  941TIP3    H124382   1.757   5.094   8.051 -1.0008  0.2503 -0.7134
  941TIP3    H224383   1.784   5.024   7.920  1.5335 -1.8218  0.8068
  942TIP3   OH224384   6.606   0.449   0.630 -0.5930  0.2552 -0.6127
  942TIP3    H124385   6.667   0.399   0.684 -1.1196 -0.4088 -0.6289
  942TIP3    H224386   6.550   0.494   0.694 -1.6836 -1.0980 -0.5753
  943TIP3   OH224387   4.429   3.612   7.860  0.2517  0.1231  0.6909
  943TIP3    H124388   4.464   3.649   7.779  0.3217 -1.3905 -0.0118
  943TIP3    H224389   4.500   3.556   7.893 -0.2479 -0.2786  1.1018
  944TIP3   OH224390   5.748   4.704   0.930  0.4605  0.3441 -0.1868
  944TIP3    H124391   5.732   4.636   0.864 -1.2536  0.4802  0.0385
  944TIP3    H224392   5.843   4.705   0.941  0.6099 -1.2304 -1.0221
  945TIP3   OH224393   4.975   1.336   1.394  0.3864  0.0703  0.7677
  945TIP3    H124394   4.954   1.250   1.431 -0.9543  1.0346  2.3992
  945TIP3    H224395   5.018   1.383   1.465 -2.2214  1.9624  1.2599
  946TIP3   OH224396   3.962   6.709   7.671 -0.0910 -0.4344 -0.4516
  946TIP3    H124397   3.969   6.791   7.721  1.0299 -0.0726 -1.1707
  946TIP3    H224398   3.985   6.641   7.734  2.3188  0.0968 -0.6499
  947TIP3   OH224399   1.903   2.233   8.630  0.4791  0.1605 -0.2146
  947TIP3    H124400   1.971   2.183   8.675  1.1298  0.9229 -0.3257
  947TIP3    H224401   1.833   2.243   8.696  0.1387 -1.2617 -0.3379
  948TIP3   OH224402   1.827   6.109   7.566  0.2979 -0.3901 -0.5040
  948TIP3    H124403   1.800   6.101   7.657 -0.1136  1.7852 -0.3611
  948TIP3    H224404   1.774   6.045   7.519  1.4878 -2.5172  0.8891
  949TIP3   OH224405   1.732   5.267   7.291  0.8367 -0.4268 -0.4347
  949TIP3    H124406   1.722   5.172   7.291  2.6066 -0.6690  1.2722
  949TIP3    H224407   1.740   5.291   7.199  0.1006 -1.8817 -0.8981
  950TIP3   OH224408   5.510   3.354   8.492 -0.3406  0.5237 -0.6694
  950TIP3    H124409   5.482   3.307   8.572  0.6718  2.8064  1.1324
  950TIP3    H224410   5.544   3.437   8.524 -1.2644  2.1871 -3.6486
  951TIP3   OH224411   5.364   2.487   1.084  0.4631 -0.1843  0.7075
  951TIP3    H124412   5.317   2.423   1.139  0.1624 -0.6872 -0.1165
  951TIP3    H224413   5.340   2.464   0.994 -0.6700  1.8750  0.4206
  952TIP3   OH224414   2.601   4.087   0.393  0.3054 -0.6646  0.3040
  952TIP3    H124415   2.690   4.068   0.423  1.6343  3.1680 -0.6574
  952TIP3    H224416   2.611   4.160   0.333 -3.2888 -1.8371 -2.0214
  953TIP3   OH224417   5.283   2.118   1.621  0.2344  0.1797 -0.3736
  953TIP3    H124418   5.192   2.131   1.649 -0.5302 -1.6984 -1.7337
  953TIP3    H224419   5.329   2.196   1.652 -1.6529  0.8013  1.0947
  954TIP3   OH224420   4.139   0.119   0.323 -0.2670 -0.8571 -0.1434
  954TIP3    H124421   4.128   0.038   0.373 -0.4421 -0.4978  0.4153
  954TIP3    H224422   4.139   0.188   0.390  0.6457 -0.4556 -0.5408
  955TIP3   OH224423   2.106   0.403   2.107  0.1320  0.0594  0.0118
  955TIP3    H124424   2.109   0.318   2.151 -0.7511  0.2295  0.4287
  955TIP3    H224425   2.173   0.397   2.039  1.5839 -0.1812  1.4106
  956TIP3   OH224426   5.201   5.999   1.529  0.3250  0.5340  0.5609
  956TIP3    H124427   5.191   6.086   1.491  3.6700  0.4053 -0.9356
  956TIP3    H224428   5.223   5.943   1.454 -0.3863 -1.3505  1.6904
  957TIP3   OH224429   0.920   0.068   2.000 -0.4401  0.2182  0.0147
  957TIP3    H124430   0.934   0.141   1.940 -1.1009 -0.6737 -1.2732
  957TIP3    H224431   0.826   0.064   2.012 -0.3138  0.4374  1.2142
  958TIP3   OH224432   1.176   3.108   0.686  0.3067 -0.7521 -0.4120
  958TIP3    H124433   1.100   3.164   0.704 -0.8941 -2.5090  0.3369
  958TIP3    H224434   1.251   3.165   0.699 -0.8273  0.5031  1.0944
  959TIP3   OH224435   5.381   3.746   7.944  0.1319  0.1339 -0.0354
  959TIP3    H124436   5.408   3.654   7.934 -0.6173 -0.1684  0.5716
  959TIP3    H224437   5.336   3.767   7.863  1.1173  0.2606 -0.5569
  960TIP3   OH224438   6.075   2.578   1.951 -0.0162  0.2159 -0.1528
  960TIP3    H124439   6.080   2.499   1.897  2.0413  0.4357 -0.3679
  960TIP3    H224440   6.160   2.583   1.995 -0.0804  2.3090 -0.1565
  961TIP3   OH224441   1.748   1.175   0.180  0.4256  0.3353 -0.5227
  961TIP3    H124442   1.716   1.200   0.266  0.1120  1.4888 -0.9609
  961TIP3    H224443   1.673   1.189   0.121  1.0279  0.8450 -1.1854
  962TIP3   OH224444   5.505   0.721   7.584  0.3187  0.3748 -0.0165
  962TIP3    H124445   5.490   0.804   7.539  2.7617  0.0621 -1.5914
  962TIP3    H224446   5.598   0.702   7.568 -0.0444 -2.4043  0.7620
  963TIP3   OH224447   0.177   4.235   8.567 -0.0093  0.4128  0.1429
  963TIP3    H124448   0.088   4.208   8.545  0.4084  0.9134 -2.4783
  963TIP3    H224449   0.174   4.330   8.562  0.4517  0.4778  1.0488
  964TIP3   OH224450   6.340   4.994   0.925 -0.2418  0.2523  0.4969
  964TIP3    H124451   6.385   5.010   1.008 -0.8206  1.0639  0.6566
  964TIP3    H224452   6.316   5.081   0.893 -1.8511 -0.1754  0.4928
  965TIP3   OH224453   0.507   4.950   0.853 -0.6912  0.3344  0.6033
  965TIP3    H124454   0.437   5.015   0.854 -0.8373  0.1850  0.1321
  965TIP3    H224455   0.564   4.976   0.926 -0.2235  1.5605 -0.1580
  966TIP3   OH224456   5.403   6.641   7.636 -0.8825  0.1300 -0.1418
  966TIP3    H124457   5.372   6.688   7.714 -0.1059  2.5829 -1.1952
  966TIP3    H224458   5.367   6.553   7.645 -1.9831  0.7295  2.2701
  967TIP3   OH224459   5.197   4.348   6.599  0.2120 -0.4284 -0.1746
  967TIP3    H124460   5.102   4.360   6.596  0.1961 -0.2858 -4.2493
  967TIP3    H224461   5.233   4.435   6.580  1.1402 -0.7675 -0.0419
  968TIP3   OH224462   5.045   3.830   1.164  0.2746  0.0746  0.5251
  968TIP3    H124463   5.014   3.892   1.097 -1.7558 -0.3879  0.9529
  968TIP3    H224464   5.122   3.789   1.125 -0.4876  0.2532 -1.2983
  969TIP3   OH224465   5.317   0.088   8.799 -0.4501  0.5190  0.2981
  969TIP3    H124466   5.308   0.172   8.845 -1.6221 -0.1139  1.2678
  969TIP3    H224467   5.318   0.023   8.868  2.2311 -0.2072 -0.3249
  970TIP3   OH224468   2.628   5.824   6.563 -0.6244 -0.5004  0.4953
  970TIP3    H124469   2.644   5.907   6.518  0.7199 -0.3483  1.2182
  970TIP3    H224470   2.672   5.833   6.647 -1.2741 -1.5989  0.9809
  971TIP3   OH224471   1.839   3.265   6.605  0.4383  0.8005  0.0463
  971TIP3    H124472   1.907   3.215   6.650  0.7900 -0.8646 -2.1531
  971TIP3    H224473   1.757   3.220   6.627  0.5422  0.3700 -0.4036
  972TIP3   OH224474   5.330   4.466   0.831 -0.2985  0.3554 -0.4649
  972TIP3    H124475   5.400   4.405   0.855  1.0138  1.5878 -1.0007
  972TIP3    H224476   5.272   4.467   0.908  0.7182 -0.0615  0.3368
  973TIP3   OH224477   1.950   1.829   1.273 -0.3795  0.0689  0.9727
  973TIP3    H124478   1.956   1.816   1.179 -1.7316  0.7169  0.7715
  973TIP3    H224479   1.857   1.820   1.293  0.0098 -1.1501  2.4283
  974TIP3   OH224480   0.255   1.805   2.613  0.2236  0.6461 -0.0223
  974TIP3    H124481   0.229   1.724   2.569  1.1184  0.5333 -0.3544
  974TIP3    H224482   0.177   1.832   2.661 -1.7470  2.2066 -3.6996
  975TIP3   OH224483   5.933   4.032   6.182  0.0665  0.5053 -0.1065
  975TIP3    H124484   6.028   4.025   6.193  0.1787  2.0609  0.1182
  975TIP3    H224485   5.921   4.069   6.094 -0.2431  1.7741  0.4430
  976TIP3   OH224486   1.616   6.529   0.498 -0.0624  0.7828  0.6234
  976TIP3    H124487   1.709   6.507   0.491 -0.5237 -1.4211  0.5491
  976TIP3    H224488   1.594   6.511   0.589 -0.6337  0.2534  0.3896
  977TIP3   OH224489   0.120   1.176   0.784  0.0041 -0.1919  0.2351
  977TIP3    H124490   0.033   1.185   0.745 -0.0617  0.0815  0.4387
  977TIP3    H224491   0.171   1.128   0.719  0.4499  1.8919 -1.0706
  978TIP3   OH224492   1.505   1.718   0.408 -0.4060 -0.1172 -0.1517
  978TIP3    H124493   1.473   1.808   0.399  0.9908  0.5469  1.0868
  978TIP3    H224494   1.566   1.721   0.482 -0.7634 -2.2239  0.3092
  979TIP3   OH224495   5.821   2.517   1.598 -0.4070 -0.7245 -0.2012
  979TIP3    H124496   5.857   2.434   1.567 -0.9607 -0.4952 -1.5374
  979TIP3    H224497   5.732   2.496   1.625 -0.3739 -0.6556 -0.0366
  980TIP3   OH224498   4.528   5.812   7.546 -0.1924  0.4569 -0.5311
  980TIP3    H124499   4.597   5.828   7.611 -1.1808 -0.5135  0.8133
  980TIP3    H224500   4.576   5.781   7.469  0.8872 -0.9933  0.6425
  981TIP3   OH224501   6.295   1.695   7.797  0.1917  0.5492 -0.3799
  981TIP3    H124502   6.358   1.630   7.767 -0.3139 -0.5740  0.8868
  981TIP3    H224503   6.294   1.686   7.893 -0.1404  2.2038 -0.1864
  982TIP3   OH224504   0.445   6.219   8.452 -0.2783 -0.2620 -0.1958
  982TIP3    H124505   0.486   6.229   8.538  1.8757  0.7624 -1.2807
  982TIP3    H224506   0.361   6.176   8.471  0.3302 -0.4970  2.3477
  983TIP3   OH224507   3.828   1.719   8.377  0.1531 -0.3176 -0.4303
  983TIP3    H124508   3.760   1.779   8.347 -0.9821 -2.0246 -1.4764
  983TIP3    H224509   3.814   1.640   8.325  1.0613 -1.7780  1.4341
  984TIP3   OH224510   3.752   3.591   1.687  0.5401 -0.0165 -0.0153
  984TIP3    H124511   3.688   3.602   1.756  1.7176  1.0240  0.9525
  984TIP3    H224512   3.706   3.541   1.619 -1.1689  0.4399  0.7646
  985TIP3   OH224513   0.614   3.649   8.088 -0.2656 -0.3451 -0.1285
  985TIP3    H124514   0.627   3.676   7.997 -1.0257  0.1888 -0.0920
  985TIP3    H224515   0.519   3.646   8.099 -0.2064  0.6162  0.9190
  986TIP3   OH224516   1.532   6.529   8.393 -0.3859  0.1872 -0.3754
  986TIP3    H124517   1.538   6.492   8.481 -0.5182 -0.8155 -0.7776
  986TIP3    H224518   1.559   6.620   8.404 -3.4962  1.0697  1.3094
  987TIP3   OH224519   6.516   3.030   7.341  0.3640 -0.0648  0.3246
  987TIP3    H124520   6.524   3.090   7.415 -0.1610  0.2905  0.0996
  987TIP3    H224521   6.592   2.972   7.349  1.1329  0.9168  0.2754
  988TIP3   OH224522   0.952   1.611   1.187 -0.2048 -0.3983  0.5991
  988TIP3    H124523   0.877   1.608   1.245 -0.3104 -1.9917  0.4143
  988TIP3    H224524   1.023   1.569   1.236 -0.3016 -1.7775 -0.3984
  989TIP3   OH224525   6.668   2.552   1.279 -0.7563 -0.0249  0.7619
  989TIP3    H124526   6.625   2.501   1.347  0.1710 -0.0611  1.3374
  989TIP3    H224527   6.600   2.611   1.247 -1.5381 -0.8458  0.8585
  990TIP3   OH224528   6.390   2.118   7.978 -0.0742  0.5655 -0.0450
  990TIP3    H124529   6.456   2.054   8.004 -0.5790  0.1446  0.2038
  990TIP3    H224530   6.430   2.164   7.904 -0.1814 -0.8575 -1.0212
  991TIP3   OH224531   3.961   2.625   8.178 -0.4363  0.1196 -0.3467
  991TIP3    H124532   3.960   2.676   8.097 -1.0870 -0.9113 -1.0187
  991TIP3    H224533   3.872   2.634   8.213 -1.0536 -1.7038 -1.2705
  992TIP3   OH224534   2.148   0.527   6.849  0.0490  0.7178  0.2787
  992TIP3    H124535   2.177   0.450   6.897  0.8699  0.4949 -0.5567
  992TIP3    H224536   2.055   0.535   6.871 -0.5645 -1.6621 -1.0969
  993TIP3   OH224537   4.914   2.073   7.703 -0.3139 -0.8526 -0.1187
  993TIP3    H124538   4.933   2.109   7.789 -0.6376 -1.3846  0.1847
  993TIP3    H224539   4.902   1.979   7.719  1.8040 -1.3383 -1.0832
  994TIP3   OH224540   6.683   1.838   1.522 -0.2046  0.0390  0.1918
  994TIP3    H124541   6.659   1.777   1.453  2.3257 -0.0189 -0.7281
  994TIP3    H224542   6.599   1.876   1.551 -1.5723 -1.9379 -0.9657
  995TIP3   OH224543   0.639   3.561   6.869  0.2199  0.2718 -0.3232
  995TIP3    H124544   0.718   3.597   6.829 -0.7070  1.1543 -1.4521
  995TIP3    H224545   0.636   3.470   6.840  0.9531  0.1632 -0.0571
  996TIP3   OH224546   0.414   2.790   7.143  0.3315 -0.1107  0.4041
  996TIP3    H124547   0.461   2.707   7.137  0.0502 -0.3233  1.0378
  996TIP3    H224548   0.402   2.818   7.053 -3.1730 -2.7580 -0.1396
  997TIP3   OH224549   3.660   6.436   7.302  0.2307 -0.4541  1.0354
  997TIP3    H124550   3.735   6.460   7.247 -0.4712  0.2754  0.3588
  997TIP3    H224551   3.619   6.363   7.256 -0.3753  0.1773  0.5464
  998TIP3   OH224552   2.753   6.486   7.397  0.2011  0.4210  0.3475
  998TIP3    H124553   2.671   6.442   7.373  0.3658 -0.2380  0.9603
  998TIP3    H224554   2.741   6.576   7.368 -1.3458  0.7125  1.7091
  999TIP3   OH224555   3.700   1.078   8.321  0.4160 -0.1896  0.1489
  999TIP3    H124556   3.736   0.990   8.308 -0.7413 -0.5590 -0.7012
  999TIP3    H224557   3.606   1.064   8.327  0.2630  0.9492  0.5543
 1000TIP3   OH224558   4.766   5.992   8.673 -0.2087  0.5520 -0.2128
 1000TIP3    H124559   4.819   5.916   8.650  0.3202  0.5571  0.9262
 1000TIP3    H224560   4.829   6.063   8.688 -0.3780  0.2712  2.2748
 1001TIP3   OH224561   5.456   6.598   1.617  0.0764  0.4424  0.1357
 1001TIP3    H124562   5.475   6.506   1.635  0.7559  1.0273  2.8753
 1001TIP3    H224563   5.365   6.598   1.587  0.5438 -1.2401 -1.4401
 1002TIP3   OH224564   1.784   2.764   8.358 -0.0054  0.5407  0.3511
 1002TIP3    H124565   1.791   2.669   8.348  1.1118  0.3561  2.4377
 1002TIP3    H224566   1.839   2.799   8.288  1.5288 -0.4287  1.0292
 1003TIP3   OH224567   3.565   0.174   7.125 -0.2840 -0.0279  0.2088
 1003TIP3    H124568   3.540   0.218   7.044  2.2731 -0.8437 -1.1420
 1003TIP3    H224569   3.513   0.217   7.193 -3.5031 -0.1815 -1.9361
 1004TIP3   OH224570   0.633   0.894   0.375 -0.2829  0.0238 -0.3058
 1004TIP3    H124571   0.573   0.908   0.301 -1.2007 -1.8383  0.0316
 1004TIP3    H224572   0.626   0.975   0.427 -1.4535  0.3987 -1.0053
 1005TIP3   OH224573   6.525   0.168   8.471 -0.2494 -0.0175 -0.2021
 1005TIP3    H124574   6.526   0.235   8.540  0.0206 -1.1588  0.9274
 1005TIP3    H224575   6.442   0.122   8.484 -0.4097  0.0569 -0.9433
 1006TIP3   OH224576   1.250   0.862   7.708  0.1059  0.0454  0.2774
 1006TIP3    H124577   1.183   0.925   7.733 -1.1204 -1.0249 -0.2455
 1006TIP3    H224578   1.271   0.885   7.617 -1.7375 -1.4453 -0.5741
 1007TIP3   OH224579   0.171   0.823   0.900 -0.1323 -0.2832 -0.3406
 1007TIP3    H124580   0.227   0.761   0.946 -0.2074 -2.7738 -3.2998
 1007TIP3    H224581   0.109   0.768   0.852 -0.8792  2.1469 -2.3593
 1008TIP3   OH224582   4.771   4.075   0.149  0.5367 -0.1463  0.1030
 1008TIP3    H124583   4.806   4.053   0.063  0.3401  1.0364 -0.2919
 1008TIP3    H224584   4.694   4.129   0.132 -1.8270 -2.9719  0.9513
 1009TIP3   OH224585   6.611   0.651   7.971 -0.4019  0.2804 -0.5452
 1009TIP3    H124586   6.564   0.734   7.978  1.8218  1.5373  0.5208
 1009TIP3    H224587   6.548   0.585   7.997 -2.3155  1.5655 -1.6485
 1010TIP3   OH224588   6.585   3.401   1.275  0.5625  0.1532  0.5410
 1010TIP3    H124589   6.556   3.407   1.366  0.1244  1.2528  0.3435
 1010TIP3    H224590   6.550   3.317   1.244 -0.2057  0.2730  1.0690
 1011TIP3   OH224591   1.992   5.972   8.766  0.1052  0.3031  0.0151
 1011TIP3    H124592   2.024   6.062   8.771 -0.7580  0.5543  1.4357
 1011TIP3    H224593   2.070   5.919   8.780  0.6830  0.7960 -1.1570
 1012TIP3   OH224594   5.954   4.230   1.764 -0.3287 -0.0401  0.1162
 1012TIP3    H124595   5.886   4.174   1.802  0.0782 -0.2378  0.5699
 1012TIP3    H224596   6.006   4.258   1.840  0.3412 -0.2200 -0.2730
 1013TIP3   OH224597   5.788   1.240   7.631 -0.3080  0.1537  0.5025
 1013TIP3    H124598   5.862   1.299   7.617 -0.1199 -0.0263  0.7173
 1013TIP3    H224599   5.711   1.297   7.637  0.0353  0.4964  2.0109
 1014TIP3   OH224600   3.300   2.632   8.711  0.5050  0.2967  0.4183
 1014TIP3    H124601   3.349   2.672   8.639 -0.6216  1.7880  0.4243
 1014TIP3    H224602   3.243   2.567   8.669  1.3937 -0.3875  0.2449
 1015TIP3   OH224603   4.707   0.203   8.779 -0.1188 -0.0498  0.0822
 1015TIP3    H124604   4.620   0.240   8.793  0.1035 -0.1516  1.9140
 1015TIP3    H224605   4.719   0.141   8.850  0.1468 -2.5725 -2.0189
 1016TIP3   OH224606   5.858   0.405   1.599  0.0592 -0.2875 -0.1965
 1016TIP3    H124607   5.843   0.497   1.617 -2.0745 -0.6276  0.0219
 1016TIP3    H224608   5.940   0.384   1.644  1.3295  1.7855 -1.4175
 1017TIP3   OH224609   1.203   5.018   1.906 -0.3601 -0.0234  0.1719
 1017TIP3    H124610   1.133   5.083   1.911 -0.5855 -0.3276  1.3596
 1017TIP3    H224611   1.197   4.970   1.989  0.5247 -0.8088 -0.1993
 1018TIP3   OH224612   1.991   0.755   0.684  0.9627  0.0053  0.1142
 1018TIP3    H124613   2.079   0.770   0.716  1.0553  0.6909 -0.4096
 1018TIP3    H224614   2.002   0.706   0.603  1.0511  1.9038 -1.1077
 1019TIP3   OH224615   2.203   0.346   7.061  0.0884  0.4101 -0.0797
 1019TIP3    H124616   2.261   0.365   7.135  1.2275  0.5125 -0.9672
 1019TIP3    H224617   2.262   0.315   6.992 -0.8616  1.0013 -1.1877
 1020TIP3   OH224618   0.772   1.895   0.627 -0.0010  0.6343 -0.1915
 1020TIP3    H124619   0.718   1.972   0.646  0.4642  0.6881  0.9787
 1020TIP3    H224620   0.813   1.873   0.711 -2.7271 -2.9273  0.4417
 1021TIP3   OH224621   2.443   5.356   8.070 -0.9011  0.2508  0.1022
 1021TIP3    H124622   2.455   5.357   7.975 -2.0566  2.2185 -0.0594
 1021TIP3    H224623   2.383   5.283   8.085 -0.0665 -0.6077 -0.5604
 1022TIP3   OH224624   5.779   2.943   1.967  0.0649  0.0914 -0.4509
 1022TIP3    H124625   5.697   2.982   1.998 -1.6953 -1.3224 -2.9857
 1022TIP3    H224626   5.777   2.956   1.872  2.9612  0.2568 -0.5758
 1023TIP3   OH224627   6.131   4.220   7.911  0.4458 -0.2248  0.2945
 1023TIP3    H124628   6.053   4.259   7.950 -0.3419 -1.1714 -0.2833
 1023TIP3    H224629   6.168   4.166   7.982  1.0748  0.8943  0.8359
 1024TIP3   OH224630   2.766   3.073   1.756 -0.0921  0.2223 -0.3003
 1024TIP3    H124631   2.719   3.000   1.796 -1.4504  0.5747 -1.1845
 1024TIP3    H224632   2.826   3.103   1.824 -0.0358 -1.2352  0.3299
 1025TIP3   OH224633   3.074   3.174   7.709  0.0805  0.0598 -0.5309
 1025TIP3    H124634   3.040   3.126   7.634 -1.0229  0.2112 -0.1555
 1025TIP3    H224635   3.159   3.208   7.680  0.6326 -1.6065 -0.9952
 1026TIP3   OH224636   1.620   1.938   1.021 -0.2185 -0.7235 -0.4697
 1026TIP3    H124637   1.603   1.941   1.115  0.9462 -1.9714 -0.1837
 1026TIP3    H224638   1.590   2.023   0.988 -0.2786 -0.1098  1.0879
 1027TIP3   OH224639   5.196   3.469   8.830  0.3535 -0.4182 -0.3543
 1027TIP3    H124640   5.220   3.389   8.876  1.2490  0.1080  0.1443
 1027TIP3    H224641   5.207   3.538   8.896 -0.2712  0.1292 -0.8120
 1028TIP3   OH224642   2.278   4.993   7.613 -0.1991 -0.0216  0.4740
 1028TIP3    H124643   2.304   5.051   7.685  1.1969  1.2736 -0.9754
 1028TIP3    H224644   2.312   4.907   7.637  0.0940  0.3591  1.4429
 1029TIP3   OH224645   1.335   0.179   0.466  0.2907  0.1128 -0.1726
 1029TIP3    H124646   1.396   0.108   0.486  1.0927  0.7241 -0.4402
 1029TIP3    H224647   1.342   0.191   0.372 -0.0835  0.3344 -0.1739
 1030TIP3   OH224648   5.060   2.131   8.829  0.0223  0.3977  0.2762
 1030TIP3    H124649   4.997   2.059   8.827  0.7853 -0.3733  2.1101
 1030TIP3    H224650   5.137   2.097   8.782 -0.4885  0.9431 -1.0010
 1031TIP3   OH224651   1.577   6.065   8.644  0.5524  0.0224 -0.3954
 1031TIP3    H124652   1.615   5.978   8.657 -0.0066 -0.1762 -0.0663
 1031TIP3    H224653   1.618   6.120   8.710 -1.7053 -0.8026  1.8355
 1032TIP3   OH224654   3.845   1.664   2.353  0.0287 -0.0552  0.0169
 1032TIP3    H124655   3.928   1.712   2.356 -0.9940  1.7763  0.6663
 1032TIP3    H224656   3.852   1.599   2.423  0.4327  0.9524  0.9400
 1033TIP3   OH224657   2.170   2.557   6.800  0.0421 -0.6639 -0.1375
 1033TIP3    H124658   2.169   2.572   6.705 -0.9088 -0.7655 -0.1567
 1033TIP3    H224659   2.242   2.611   6.832  2.0250 -2.4888 -1.1962
 1034TIP3   OH224660   6.286   3.453   2.495 -0.4015 -0.0060  0.7865
 1034TIP3    H124661   6.261   3.528   2.441  0.8830  0.7248  1.1617
 1034TIP3    H224662   6.277   3.485   2.585  1.5057  0.1895  0.9389
 1035TIP3   OH224663   4.981   0.245   8.744  0.1554 -0.5409  0.2058
 1035TIP3    H124664   5.017   0.157   8.758 -2.6963 -2.0894 -1.3348
 1035TIP3    H224665   4.888   0.236   8.765 -0.0207  2.4955  1.2283
 1036TIP3   OH224666   2.025   0.960   8.509 -0.2345 -0.0227 -0.2825
 1036TIP3    H124667   2.010   1.018   8.434  0.3908  2.3163  1.2922
 1036TIP3    H224668   2.118   0.937   8.503 -0.5199 -1.0670 -0.9989
 1037TIP3   OH224669   0.805   1.570   1.857 -0.7472 -0.3790  0.3035
 1037TIP3    H124670   0.854   1.646   1.825 -2.7669  0.8743  0.0158
 1037TIP3    H224671   0.805   1.581   1.952  0.1186 -0.7874  0.3596
 1038TIP3   OH224672   4.838   0.593   8.292 -0.1867  0.5803  0.2463
 1038TIP3    H124673   4.817   0.548   8.210  0.2038 -1.1553  1.0359
 1038TIP3    H224674   4.761   0.581   8.347  0.3685 -0.2243  0.8873
 1039TIP3   OH224675   6.674   0.446   7.802 -0.3916 -0.4188  0.0173
 1039TIP3    H124676   6.684   0.380   7.870  1.6262 -0.6681 -0.4406
 1039TIP3    H224677   6.679   0.529   7.848 -0.7177 -0.5815  0.3499
 1040TIP3   OH224678   1.127   0.650   8.653 -0.6831  0.5920  0.5349
 1040TIP3    H124679   1.201   0.696   8.692 -1.7799  1.8444  1.1974
 1040TIP3    H224680   1.137   0.560   8.682  1.0809  0.5183 -0.1499
 1041TIP3   OH224681   6.446   5.212   1.464  0.0664 -0.0279  0.0896
 1041TIP3    H124682   6.408   5.293   1.498 -0.9088 -0.3389 -0.2350
 1041TIP3    H224683   6.505   5.242   1.394 -0.1793  0.4184  0.0679
 1042TIP3   OH224684   6.098   1.754   7.541  0.2996 -0.1482  0.4894
 1042TIP3    H124685   6.023   1.811   7.523 -1.3028 -2.0381  0.7970
 1042TIP3    H224686   6.103   1.752   7.637 -0.3105 -1.2939  0.5074
 1043TIP3   OH224687   6.679   4.038   1.146  0.0485  0.0392  0.3283
 1043TIP3    H124688   6.747   4.069   1.207  2.0353  0.5925 -2.0040
 1043TIP3    H224689   6.640   4.118   1.111 -0.8331 -0.2717  0.5751
 1044TIP3   OH224690   3.222   5.731   0.030 -0.3007 -0.0941  0.0123
 1044TIP3    H124691   3.179   5.709   0.113 -1.4807 -1.4891 -0.9100
 1044TIP3    H224692   3.156   5.780  -0.019  0.6928  1.4962  0.2095
 1045TIP3   OH224693   4.428   2.123   1.605 -0.1182  0.5323 -0.5015
 1045TIP3    H124694   4.497   2.154   1.547  1.4474  0.8425  1.4277
 1045TIP3    H224695   4.348   2.128   1.552  0.9199  2.5874 -2.0108
 1046TIP3   OH224696   2.958   1.367   1.879 -0.5243 -0.7028 -0.6874
 1046TIP3    H124697   2.923   1.449   1.845 -3.3913 -1.4664  0.1653
 1046TIP3    H224698   2.969   1.381   1.973 -0.3894 -1.0868 -0.6402
 1047TIP3   OH224699   3.411   2.232   2.508 -0.2140 -0.5108 -0.8069
 1047TIP3    H124700   3.359   2.249   2.587  1.5033  2.0752 -0.0952
 1047TIP3    H224701   3.356   2.266   2.437  0.4053  2.4262 -0.0423
 1048TIP3   OH224702   3.054   5.854   8.711  0.2026  0.3143  0.4534
 1048TIP3    H124703   3.077   5.945   8.726 -0.0379  0.2040  1.5787
 1048TIP3    H224704   3.016   5.853   8.623  2.8124  0.7851 -0.7669
 1049TIP3   OH224705   0.829   0.665   0.337  0.5798  0.0626  0.1581
 1049TIP3    H124706   0.916   0.695   0.363  1.4101 -1.6335 -0.5474
 1049TIP3    H224707   0.781   0.746   0.315  2.4421  0.9298 -0.9101
 1050TIP3   OH224708   3.640   6.457   0.228 -0.4871  0.0677 -0.4800
 1050TIP3    H124709   3.684   6.504   0.157 -2.0801  0.2795 -1.3719
 1050TIP3    H224710   3.669   6.500   0.308  0.6693  0.3868 -1.0504
 1051TIP3   OH224711   3.243   4.895   0.939  0.1233  0.1478 -0.0850
 1051TIP3    H124712   3.327   4.851   0.951  0.3355  0.1750 -1.2916
 1051TIP3    H224713   3.181   4.824   0.922  0.4107  0.2466 -1.7419
 1052TIP3   OH224714   2.593   4.108   1.097  0.0521  0.1068 -0.4538
 1052TIP3    H124715   2.624   4.079   1.182  1.6032  1.9627 -0.3027
 1052TIP3    H224716   2.615   4.037   1.037 -0.9246 -1.1544  0.6408
 1053TIP3   OH224717   6.510   3.142   6.731 -0.1468  0.0976  0.7146
 1053TIP3    H124718   6.541   3.185   6.652  1.4675 -0.4852  1.0032
 1053TIP3    H224719   6.421   3.176   6.743 -1.3535 -1.4287 -2.5574
 1054TIP3   OH224720   3.073   4.934   8.232 -0.0022 -0.1110  0.0563
 1054TIP3    H124721   3.086   5.022   8.268 -2.8750  0.8264 -0.9273
 1054TIP3    H224722   2.984   4.911   8.257 -0.0831 -1.8082 -1.6213
 1055TIP3   OH224723   4.539   5.058   0.594  0.3860 -0.1422 -0.1366
 1055TIP3    H124724   4.576   5.125   0.651 -0.3278  0.3170 -0.2017
 1055TIP3    H224725   4.451   5.043   0.629 -0.1272  0.2702 -1.2089
 1056TIP3   OH224726   0.347   3.590   1.261 -0.1531  0.3925  0.4419
 1056TIP3    H124727   0.264   3.543   1.265  1.3118 -2.3623  0.9940
 1056TIP3    H224728   0.365   3.616   1.351  0.4321 -0.7039  0.6603
 1057TIP3   OH224729   3.023   1.733   8.098 -0.1587 -0.0891  0.0747
 1057TIP3    H124730   3.102   1.727   8.045  0.3758  2.2873  0.4778
 1057TIP3    H224731   2.959   1.777   8.041 -0.1329  0.9111  0.7883
 1058TIP3   OH224732   2.516   3.655   2.100  0.0712  0.3970 -0.5457
 1058TIP3    H124733   2.441   3.597   2.114  0.0511  0.1072 -1.7266
 1058TIP3    H224734   2.505   3.688   2.010 -0.4206  2.9947  0.3913
 1059TIP3   OH224735   4.253   1.665   0.106 -0.3252  0.2142  0.3317
 1059TIP3    H124736   4.290   1.616   0.179 -0.9619 -1.0290 -0.1520
 1059TIP3    H224737   4.292   1.626   0.028 -0.8132  0.4916 -0.0620
 1060TIP3   OH224738   0.675   2.960   2.531 -0.0529 -0.2097 -0.0507
 1060TIP3    H124739   0.696   3.042   2.577 -3.2065  1.2810 -0.9737
 1060TIP3    H224740   0.646   2.901   2.600 -2.1860  1.1007  0.2782
 1061TIP3   OH224741   3.069   5.514   7.164  0.2834  0.2580  0.0313
 1061TIP3    H124742   2.995   5.547   7.112  0.8643 -0.0318 -0.9876
 1061TIP3    H224743   3.143   5.569   7.138  1.1289 -1.4234 -1.2297
 1062TIP3   OH224744   2.620   5.499   0.876  0.7015  0.1674 -0.0075
 1062TIP3    H124745   2.525   5.486   0.872  0.7044 -0.2080  0.9343
 1062TIP3    H224746   2.653   5.418   0.914  1.2498  0.8798  1.0681
 1063TIP3   OH224747   3.099   2.899   6.954 -0.0325 -0.3966  0.4929
 1063TIP3    H124748   3.079   2.923   6.863  0.3244  2.8159  1.1474
 1063TIP3    H224749   3.191   2.924   6.965 -0.3384  0.1337  1.9710
 1064TIP3   OH224750   0.055   2.603   7.479  0.3976  0.3310  0.3703
 1064TIP3    H124751   0.141   2.616   7.440  0.2569  0.7772  0.2112
 1064TIP3    H224752   0.073   2.556   7.561  0.9359  1.6387  1.0400
 1065TIP3   OH224753   6.129   0.056   0.899  0.2847  1.2086  0.0517
 1065TIP3    H124754   6.091   0.054   0.987  1.2821  1.0872  0.4891
 1065TIP3    H224755   6.209   0.005   0.906  0.8166  1.9143 -0.7227
 1066TIP3   OH224756   3.918   6.471   0.618  0.1175 -0.1511 -0.2310
 1066TIP3    H124757   3.863   6.432   0.686 -0.5825  0.2786 -0.5348
 1066TIP3    H224758   3.954   6.397   0.570  0.8012 -0.4645  0.7427
 1067TIP3   OH224759   3.724   3.828   1.563  0.5268  0.3003  0.5317
 1067TIP3    H124760   3.758   3.749   1.606 -0.6972  0.1667  1.3038
 1067TIP3    H224761   3.650   3.797   1.511  0.7964  0.7676 -0.1405
 1068TIP3   OH224762   1.195   5.426   7.641  0.2553 -0.5176 -0.1204
 1068TIP3    H124763   1.227   5.483   7.711  0.9205 -0.2899 -0.6046
 1068TIP3    H224764   1.227   5.339   7.665 -0.0168 -0.5441  0.1590
 1069TIP3   OH224765   3.788   0.325   7.150 -0.4480 -0.4801  0.4027
 1069TIP3    H124766   3.706   0.283   7.123 -0.6885  0.5744 -0.5870
 1069TIP3    H224767   3.838   0.256   7.193 -0.5033 -1.9910 -1.8156
 1070TIP3   OH224768   4.055   2.631   0.591  0.4308 -0.3216  0.0692
 1070TIP3    H124769   4.142   2.599   0.617  1.9481  3.5858  0.4695
 1070TIP3    H224770   4.022   2.676   0.669  0.2385  2.3409 -1.4568
 1071TIP3   OH224771   2.037   0.085   8.605  0.3621  0.6502 -0.1452
 1071TIP3    H124772   2.076   0.042   8.680  0.3355  1.1372  0.1541
 1071TIP3    H224773   1.943   0.086   8.623  0.4955  2.3583  0.6925
 1072TIP3   OH224774   6.165   0.301   2.072  0.1115 -0.0265  0.1969
 1072TIP3    H124775   6.125   0.238   2.132  1.6570 -1.2198  0.0214
 1072TIP3    H224776   6.249   0.322   2.112  0.2454  0.8140 -0.5031
 1073TIP3   OH224777   3.799   2.470   7.042 -0.8211  0.1435  0.2162
 1073TIP3    H124778   3.784   2.436   6.954 -0.5252 -0.1297  0.2700
 1073TIP3    H224779   3.714   2.505   7.070 -0.0610  4.4128 -1.9329
 1074TIP3   OH224780   0.352   5.120   1.407  0.0187  0.2890 -0.1917
 1074TIP3    H124781   0.403   5.099   1.485 -1.4579  0.3202  0.8224
 1074TIP3    H224782   0.267   5.077   1.421 -0.1677 -0.0130 -1.9510
 1075TIP3   OH224783   5.458   4.809   8.814 -0.1923 -0.3938 -0.3689
 1075TIP3    H124784   5.408   4.815   8.732  0.9423  0.9158 -1.0219
 1075TIP3    H224785   5.521   4.882   8.808  0.4435 -0.7742  1.3125
 1076TIP3   OH224786   3.694   2.643   0.503 -0.1284 -0.2995  0.3070
 1076TIP3    H124787   3.662   2.622   0.415  1.3694  1.2980 -0.6865
 1076TIP3    H224788   3.707   2.738   0.502 -0.4835 -0.1830  2.4170
 1077TIP3   OH224789   4.798   1.228   7.729 -0.1606  0.1252  0.5326
 1077TIP3    H124790   4.818   1.214   7.821  0.2944 -2.7988  0.1099
 1077TIP3    H224791   4.871   1.186   7.682 -1.1043  0.2349 -1.1201
 1078TIP3   OH224792   6.581   1.730   1.780  0.4155  0.6286 -0.2180
 1078TIP3    H124793   6.493   1.754   1.810  0.8355  1.5727  0.2917
 1078TIP3    H224794   6.591   1.775   1.696  0.0871 -0.2056 -0.7184
 1079TIP3   OH224795   2.649   0.250   0.881  0.0544  0.1072 -0.7489
 1079TIP3    H124796   2.562   0.258   0.843 -0.4444 -0.3027  0.2862
 1079TIP3    H224797   2.638   0.190   0.955  1.0324  0.7476 -0.0607
 1080TIP3   OH224798   4.347   3.297   1.209 -0.1918  0.1435  0.3884
 1080TIP3    H124799   4.274   3.317   1.150  0.6283  2.2742  0.0289
 1080TIP3    H224800   4.374   3.208   1.184 -2.0317 -0.3279 -0.0957
 1081TIP3   OH224801   4.163   1.077   6.509  0.0455 -0.4596 -0.7233
 1081TIP3    H124802   4.176   1.168   6.535  1.1139 -0.9033  0.4122
 1081TIP3    H224803   4.166   1.028   6.592 -0.7608 -1.5109 -1.2839
 1082TIP3   OH224804   1.565   4.812   7.701 -0.5603  0.1266 -0.2356
 1082TIP3    H124805   1.510   4.850   7.633 -0.1637  0.4897 -0.3582
 1082TIP3    H224806   1.629   4.759   7.653  0.5566  1.4436 -0.2541
 1083TIP3   OH224807   5.263   0.177   6.528  0.8052 -0.0191 -0.3916
 1083TIP3    H124808   5.186   0.131   6.494  0.4655 -0.8129  1.3393
 1083TIP3    H224809   5.336   0.143   6.476  0.2884 -1.0574 -0.4792
 1084TIP3   OH224810   4.923   6.636   0.465 -0.4695  0.8411 -0.0455
 1084TIP3    H124811   4.950   6.632   0.557  0.7983  0.5230 -0.4165
 1084TIP3    H224812   4.908   6.545   0.441 -0.9173  0.9343 -0.1219
 1085TIP3   OH224813   1.985   3.407   8.847 -0.2985  0.0715  0.2706
 1085TIP3    H124814   1.977   3.313   8.864 -0.0580  0.3523  2.2184
 1085TIP3    H224815   2.020   3.443   8.928  0.5727  1.7336 -0.7834
 1086TIP3   OH224816   3.130   4.998   7.298  0.1978 -0.8334  0.3150
 1086TIP3    H124817   3.110   5.003   7.391  0.3589  2.9983  0.2939
 1086TIP3    H224818   3.045   4.986   7.255  0.1864 -3.2063  0.9013
 1087TIP3   OH224819   6.115   3.640   7.147 -0.1484 -0.5228 -0.7347
 1087TIP3    H124820   6.163   3.595   7.216 -0.5342 -0.4990 -0.4481
 1087TIP3    H224821   6.183   3.677   7.090  0.1819  0.0769  0.0339
 1088TIP3   OH224822   3.865   4.074   8.688  0.2382  0.0804 -0.2395
 1088TIP3    H124823   3.857   4.106   8.777  1.3509  0.6195 -0.3234
 1088TIP3    H224824   3.873   4.152   8.634 -1.7580 -0.1740 -0.9890
 1089TIP3   OH224825   5.886   1.859   0.934 -0.2389  0.3832 -0.9483
 1089TIP3    H124826   5.838   1.812   0.866  0.3801 -1.9053  0.1069
 1089TIP3    H224827   5.977   1.832   0.923  0.1288  1.2493 -0.2013
 1090TIP3   OH224828   4.162   1.160   7.396 -0.7569  0.3455  0.0903
 1090TIP3    H124829   4.116   1.080   7.371  2.4766 -1.1725 -1.6303
 1090TIP3    H224830   4.103   1.231   7.372 -1.5372 -1.3621 -3.7958
 1091TIP3   OH224831   6.288   3.752   7.624  0.2105  0.0472 -0.3446
 1091TIP3    H124832   6.254   3.714   7.704 -0.4889  2.5187  0.6391
 1091TIP3    H224833   6.224   3.819   7.600  1.5332  0.9029 -1.6741
 1092TIP3   OH224834   5.448   4.190   6.570  0.4146  0.2281  0.1677
 1092TIP3    H124835   5.362   4.227   6.553  0.1816 -0.2274  0.3204
 1092TIP3    H224836   5.504   4.265   6.588 -0.1057  0.4899  0.7446
 1093TIP3   OH224837   6.435   0.413   6.383  0.4294  0.2308 -0.3014
 1093TIP3    H124838   6.393   0.329   6.364  1.4938 -0.8131  1.6166
 1093TIP3    H224839   6.369   0.462   6.431  0.3336 -0.1589 -0.0269
 1094TIP3   OH224840   2.669   2.346   0.806 -0.1010  0.1451  0.0629
 1094TIP3    H124841   2.702   2.350   0.896  0.1229 -0.6557  0.0264
 1094TIP3    H224842   2.602   2.278   0.808  0.5433 -0.5279 -0.5621
 1095TIP3   OH224843   3.967   1.766   6.431 -0.0616 -0.0716 -0.3138
 1095TIP3    H124844   3.874   1.744   6.428 -0.5228  1.7031 -0.2720
 1095TIP3    H224845   4.008   1.693   6.477 -1.7618  0.0697  1.5451
 1096TIP3   OH224846   3.583   1.466   8.390  0.1386  0.6653  0.1931
 1096TIP3    H124847   3.532   1.390   8.421  0.0856 -0.3119 -2.1186
 1096TIP3    H224848   3.528   1.506   8.323  0.2803  2.6742  1.2027
 1097TIP3   OH224849   2.098   5.048   7.413  0.0839 -0.2338 -0.3165
 1097TIP3    H124850   2.009   5.060   7.447 -0.3158 -0.6655 -1.1824
 1097TIP3    H224851   2.153   5.047   7.492 -0.7816 -0.9318  0.3090
 1098TIP3   OH224852   5.041   1.977   0.459  0.2285 -0.0100 -0.1750
 1098TIP3    H124853   4.952   1.988   0.493  0.5972  1.1116  0.4788
 1098TIP3    H224854   5.049   2.043   0.390  1.1451  1.2621  1.0643
 1099TIP3   OH224855   4.662   4.445   6.409 -0.3375 -0.2467  0.5873
 1099TIP3    H124856   4.713   4.512   6.363 -0.3382 -1.0961 -0.6900
 1099TIP3    H224857   4.608   4.404   6.341 -0.6862 -1.2321  1.4246
 1100TIP3   OH224858   4.878   5.739   2.344  0.3902  0.0485  0.6630
 1100TIP3    H124859   4.826   5.673   2.390 -0.6331  0.0348 -0.4576
 1100TIP3    H224860   4.825   5.763   2.268  3.9574 -3.5354 -3.5060
 1101TIP3   OH224861   6.752   6.267   0.597  0.3641  0.1699  0.2046
 1101TIP3    H124862   6.741   6.188   0.651  1.4728 -0.2813 -0.1928
 1101TIP3    H224863   6.745   6.235   0.507  1.4358  0.4065  0.0264
 1102TIP3   OH224864   4.467   3.912   0.424 -0.2684  0.2152 -0.1213
 1102TIP3    H124865   4.424   3.997   0.412  1.0971  0.9498  0.0583
 1102TIP3    H224866   4.450   3.890   0.516  0.6018  1.0125  0.2473
 1103TIP3   OH224867   5.507   3.840   8.197 -0.3630  0.0435  0.3277
 1103TIP3    H124868   5.493   3.820   8.105 -0.0921 -0.3682  0.3740
 1103TIP3    H224869   5.477   3.762   8.243 -2.7551  1.1212  0.7512
 1104TIP3   OH224870   3.844   2.196   0.600  0.1806  0.1494 -0.4101
 1104TIP3    H124871   3.845   2.286   0.632  0.0318  0.5730 -1.5409
 1104TIP3    H224872   3.930   2.161   0.624  0.1146  0.4780  0.3323
 1105TIP3   OH224873   2.326   3.623   8.407 -0.8737 -0.3377  1.1537
 1105TIP3    H124874   2.355   3.533   8.422 -0.9673 -0.3375  1.3425
 1105TIP3    H224875   2.231   3.617   8.401 -0.7912 -0.4424 -0.2252
 1106TIP3   OH224876   3.735   6.675   1.853 -0.2159 -0.3800 -0.5700
 1106TIP3    H124877   3.680   6.620   1.909 -1.1586 -0.5727 -1.6403
 1106TIP3    H224878   3.693   6.670   1.766  0.4200  0.9835 -0.9839
 1107TIP3   OH224879   5.064   4.034   8.802  0.1359  0.3063  0.3878
 1107TIP3    H124880   5.061   4.129   8.814 -2.6082  0.7388 -2.5937
 1107TIP3    H224881   4.979   4.011   8.766  1.2964 -3.0954 -0.5859
 1108TIP3   OH224882   1.105   2.056   7.320  0.3047  0.0317  0.1439
 1108TIP3    H124883   1.152   1.975   7.301  0.8279  0.5996 -1.1037
 1108TIP3    H224884   1.047   2.067   7.244 -1.6138 -0.4535  1.4616
 1109TIP3   OH224885   6.281   4.582   7.957 -0.1901  0.3430  0.8411
 1109TIP3    H124886   6.238   4.591   8.042  0.7400  3.1103  1.1296
 1109TIP3    H224887   6.260   4.664   7.911  0.7115 -0.3733 -0.9218
 1110TIP3   OH224888   4.337   6.560   1.750 -0.0320 -0.1228 -0.1706
 1110TIP3    H124889   4.402   6.618   1.711 -0.9086  2.1021  1.4579
 1110TIP3    H224890   4.370   6.543   1.838 -1.4496  0.8511  0.6040
 1111TIP3   OH224891   5.560   6.151   8.072  0.0877 -0.3933 -0.3473
 1111TIP3    H124892   5.619   6.087   8.032  0.7652  0.5415 -0.8735
 1111TIP3    H224893   5.475   6.106   8.076  0.9839 -2.1106  1.2772
 1112TIP3   OH224894   5.569   6.657   8.020 -0.3358  0.4218 -0.3541
 1112TIP3    H124895   5.610   6.614   7.945 -1.2873 -0.1774 -0.5427
 1112TIP3    H224896   5.555   6.587   8.083  0.9710  1.0099  0.6520
 1113TIP3   OH224897   3.963   1.345   1.108 -0.4719 -0.0548 -0.3424
 1113TIP3    H124898   3.975   1.439   1.122  0.8338 -0.4871  2.0683
 1113TIP3    H224899   3.897   1.320   1.173  1.7246 -1.2935  1.5878
 1114TIP3   OH224900   3.201   3.598   7.248 -0.0163 -0.5716  0.6709
 1114TIP3    H124901   3.174   3.649   7.324  1.9492 -0.4241  1.3465
 1114TIP3    H224902   3.193   3.658   7.174 -1.5578 -0.5840  0.8109
 1115TIP3   OH224903   3.107   1.698   2.208  0.1258 -0.1052  0.3400
 1115TIP3    H124904   3.077   1.789   2.203 -0.1622  0.0635  3.3339
 1115TIP3    H224905   3.202   1.703   2.196 -0.0077  0.3911 -0.6740
 1116TIP3   OH224906   0.830   0.944   2.305  0.4250  0.6633  0.0487
 1116TIP3    H124907   0.747   0.966   2.348 -1.0430 -2.6873 -0.7381
 1116TIP3    H224908   0.885   0.909   2.375  0.8973  2.0502  0.4069
 1117TIP3   OH224909   2.981   5.714   0.546 -0.5372 -0.9938 -0.6080
 1117TIP3    H124910   3.004   5.807   0.550  0.0549 -1.0499 -2.0565
 1117TIP3    H224911   2.990   5.683   0.636 -0.4815  0.2850 -0.1537
 1118TIP3   OH224912   2.817   6.743   0.920  0.3898  0.2531 -0.0979
 1118TIP3    H124913   2.734   6.716   0.958 -0.0247 -0.4702 -1.4814
 1118TIP3    H224914   2.881   6.727   0.990 -0.5873  0.6898  0.9341
 1119TIP3   OH224915   2.585   5.288   1.463  0.3038 -0.0577 -0.3717
 1119TIP3    H124916   2.543   5.310   1.380 -0.6684  2.3432  0.6636
 1119TIP3    H224917   2.522   5.231   1.507  0.0532  0.0593 -0.5792
 1120TIP3   OH224918   3.028   5.791   7.829 -0.9036 -0.1799 -0.3978
 1120TIP3    H124919   3.049   5.703   7.796 -0.7201 -0.4235  0.3535
 1120TIP3    H224920   3.035   5.847   7.752 -0.3970 -0.7219 -0.7588
 1121TIP3   OH224921   4.325   3.837   6.979 -0.2735  0.4818  0.3314
 1121TIP3    H124922   4.348   3.887   6.900  0.5593 -0.6729 -0.1833
 1121TIP3    H224923   4.229   3.830   6.975 -0.1578 -0.6748 -1.3080
 1122TIP3   OH224924   6.679   4.940   8.811 -0.2404 -0.3382 -0.0796
 1122TIP3    H124925   6.648   4.945   8.902 -2.0319 -1.2415 -0.5727
 1122TIP3    H224926   6.699   5.030   8.787  1.1113 -0.1796  1.4552
 1123TIP3   OH224927   5.468   4.613   1.095  0.3011  0.1682 -0.2534
 1123TIP3    H124928   5.387   4.642   1.137  1.7495  2.3486  1.2395
 1123TIP3    H224929   5.474   4.665   1.015  0.5324  0.5072 -0.0201
 1124TIP3   OH224930   2.933   2.983   7.588  0.1053 -0.2877 -0.0787
 1124TIP3    H124931   2.911   2.909   7.532  1.2327 -2.2296  1.8543
 1124TIP3    H224932   2.918   2.951   7.677  2.2631  1.1979  0.9196
 1125TIP3   OH224933   4.331   4.257   6.933 -0.1840 -0.0633 -0.4617
 1125TIP3    H124934   4.306   4.195   7.001  0.3024 -0.3368 -0.5288
 1125TIP3    H224935   4.272   4.237   6.860  0.1604 -0.6497 -0.5903
 1126TIP3   OH224936   5.119   6.029   8.781 -0.3484 -0.0593  0.7232
 1126TIP3    H124937   5.081   6.116   8.763 -1.8992 -0.7442  0.5361
 1126TIP3    H224938   5.064   5.968   8.732  0.1970 -1.2414  1.5339
 1127TIP3   OH224939   0.805   4.819   8.718  0.2651 -0.1817 -0.2267
 1127TIP3    H124940   0.880   4.790   8.770  0.7132  2.4172  0.7161
 1127TIP3    H224941   0.843   4.872   8.648 -0.6269  0.5944 -0.1441
 1128TIP3   OH224942   6.427   2.454   0.406 -0.1543  0.0835 -0.0216
 1128TIP3    H124943   6.447   2.535   0.453 -1.2199 -0.3693  1.2453
 1128TIP3    H224944   6.509   2.432   0.361  0.4755  1.2619  0.5063
 1129TIP3   OH224945   4.225   5.510   8.621  0.0439 -0.7712 -0.5498
 1129TIP3    H124946   4.251   5.562   8.545  3.5060  0.0396  0.9730
 1129TIP3    H224947   4.276   5.430   8.613  1.2910 -0.2230  1.3691
 1130TIP3   OH224948   0.550   2.309   0.225  0.4476 -0.2634  0.1317
 1130TIP3    H124949   0.572   2.334   0.136  0.0663  0.0378  0.1212
 1130TIP3    H224950   0.618   2.246   0.250  0.3911 -0.5689 -0.4689
 1131TIP3   OH224951   0.926   3.333   7.151  0.8109  0.3482  0.7624
 1131TIP3    H124952   0.859   3.273   7.118  0.4255 -0.3462  2.6779
 1131TIP3    H224953   0.971   3.284   7.220  0.2711  2.3396  2.6321
 1132TIP3   OH224954   5.181   5.629   1.306 -0.1352 -0.2159  0.1152
 1132TIP3    H124955   5.201   5.579   1.227 -0.7996 -1.0471  0.4687
 1132TIP3    H224956   5.178   5.564   1.376 -1.9104  0.1735  0.4366
 1133TIP3   OH224957   6.358   2.817   0.867 -0.3822  0.7204  0.1855
 1133TIP3    H124958   6.295   2.789   0.933 -0.3232 -0.5623 -0.2825
 1133TIP3    H224959   6.321   2.898   0.831 -0.4086  1.4343  1.7686
 1134TIP3   OH224960   5.743   1.131   7.879 -0.3477  0.1711  0.3023
 1134TIP3    H124961   5.783   1.151   7.794  1.7901  0.9087  1.3936
 1134TIP3    H224962   5.688   1.054   7.862  0.3416  0.0530 -1.6682
 1135TIP3   OH224963   6.398   5.043   2.313 -0.2163 -0.2040 -0.0168
 1135TIP3    H124964   6.426   5.104   2.382 -1.4249 -0.2214  0.5006
 1135TIP3    H224965   6.449   4.964   2.329  1.7434  0.7834 -0.9849
 1136TIP3   OH224966   5.548   0.891   1.628  0.2485 -0.0618 -0.6467
 1136TIP3    H124967   5.619   0.938   1.672 -0.1243  1.4876 -1.6238
 1136TIP3    H224968   5.468   0.932   1.662 -0.1681 -1.0229 -0.4126
 1137TIP3   OH224969   5.673   0.546   2.059  0.1732  0.3403  0.5562
 1137TIP3    H124970   5.706   0.582   2.142  4.6160 -1.6542 -0.0633
 1137TIP3    H224971   5.678   0.620   1.998  0.0678  1.0033  1.3258
 1138TIP3   OH224972   3.465   2.396   0.773  0.1209 -0.0844 -0.2295
 1138TIP3    H124973   3.495   2.401   0.864  1.3077 -1.3420 -0.5312
 1138TIP3    H224974   3.516   2.325   0.734  0.1911  0.9287 -2.0947
 1139TIP3   OH224975   5.794   1.654   6.713 -0.3522  0.2047  0.0394
 1139TIP3    H124976   5.796   1.744   6.746  0.0480  0.6993 -1.2904
 1139TIP3    H224977   5.753   1.661   6.627 -0.6048 -0.9437  0.0491
 1140TIP3   OH224978   3.616   5.468   1.210 -0.0650 -0.4174 -0.0303
 1140TIP3    H124979   3.626   5.406   1.138 -0.4057 -0.9271  0.3559
 1140TIP3    H224980   3.637   5.418   1.289  0.7767  0.2597  0.1935
 1141TIP3   OH224981   0.115   1.769   8.833  0.4216  0.3419 -0.2545
 1141TIP3    H124982   0.132   1.688   8.880  1.4085  0.0390 -1.0994
 1141TIP3    H224983   0.051   1.745   8.766  0.9050  0.1774 -0.6714
 1142TIP3   OH224984   3.770   0.794   8.259  0.3197  0.5387  0.0564
 1142TIP3    H124985   3.743   0.709   8.295  1.5750  1.1920  2.7959
 1142TIP3    H224986   3.782   0.777   8.165 -3.5515 -1.2007 -0.3497
 1143TIP3   OH224987   0.240   4.223   0.550 -0.1496 -0.4904 -0.3837
 1143TIP3    H124988   0.172   4.176   0.502  0.3713  0.3453 -2.0416
 1143TIP3    H224989   0.204   4.310   0.564 -0.9098 -1.1315  2.2254
 1144TIP3   OH224990   5.322   5.536   7.837 -0.4216  0.4209  0.4606
 1144TIP3    H124991   5.347   5.536   7.929  0.3491 -0.8157  0.2790
 1144TIP3    H224992   5.268   5.614   7.826 -2.3626 -0.5431  2.4590
 1145TIP3   OH224993   5.026   0.037   7.779 -0.3962  0.0477 -0.3133
 1145TIP3    H124994   4.992  -0.052   7.788  1.1462 -0.5009  0.4283
 1145TIP3    H224995   4.967   0.090   7.833 -1.0643 -0.5865 -0.4039
 1146TIP3   OH224996   2.591   0.739   1.111 -0.3039  0.2912  0.2493
 1146TIP3    H124997   2.683   0.761   1.126 -0.2506  2.1430 -2.1643
 1146TIP3    H224998   2.544   0.782   1.183  0.6694 -0.9388  1.6850
 1147TIP3   OH224999   2.796   3.243   7.131 -0.1898  0.2635  0.3082
 1147TIP3    H125000   2.830   3.155   7.150  0.4544  0.6748  1.1236
 1147TIP3    H225001   2.853   3.276   7.061 -1.0064 -0.3001 -0.6529
 1148TIP3   OH225002   3.945   5.867   7.353 -0.9364 -0.2725 -0.0265
 1148TIP3    H125003   3.891   5.873   7.432 -1.1668  0.9856 -0.2532
 1148TIP3    H225004   3.905   5.798   7.301 -2.1065  0.3708 -0.0174
 1149TIP3   OH225005   1.338   3.948   7.941  0.2636 -0.2067 -0.0887
 1149TIP3    H125006   1.374   4.021   7.891  2.9090 -0.3096  1.4840
 1149TIP3    H225007   1.326   3.878   7.877  2.3326  0.0791 -0.8507
 1150TIP3   OH225008   0.825   1.993   1.639 -0.5670  0.1443 -0.3887
 1150TIP3    H125009   0.806   2.021   1.729 -1.8190 -1.0183 -0.2643
 1150TIP3    H225010   0.912   1.954   1.644 -1.8433 -2.8646  1.0933
 1151TIP3   OH225011   5.517   3.368   1.196  0.4256  0.0183  0.0807
 1151TIP3    H125012   5.553   3.368   1.284 -0.2878  1.8756  0.4071
 1151TIP3    H225013   5.438   3.314   1.203  1.2232 -1.1750  0.1681
 1152TIP3   OH225014   4.849   2.465   1.214 -0.1965  0.2191  0.1121
 1152TIP3    H125015   4.913   2.445   1.146 -0.4692 -0.1119 -0.0519
 1152TIP3    H225016   4.874   2.551   1.247 -0.1221  0.4272 -0.4799
 1153TIP3   OH225017   0.060   2.114   2.233 -0.3610  0.2177 -0.1095
 1153TIP3    H125018   0.124   2.067   2.287 -1.5956  0.6440  1.8350
 1153TIP3    H225019   0.090   2.102   2.143  0.4118 -2.7253  0.4385
 1154TIP3   OH225020   5.733   5.553   6.328  0.8692 -0.0791  0.0920
 1154TIP3    H125021   5.742   5.605   6.408  0.8515 -0.1085  0.1134
 1154TIP3    H225022   5.640   5.534   6.322  0.9375 -0.5016  0.3347
 1155TIP3   OH225023   6.393   2.504   0.985  0.0710 -0.4529  0.0478
 1155TIP3    H125024   6.357   2.592   0.997  1.5260  0.2064 -0.1767
 1155TIP3    H225025   6.392   2.490   0.891  0.7788 -0.2543  0.0068
 1156TIP3   OH225026   5.269   4.759   7.091 -0.0071 -0.0361 -0.7739
 1156TIP3    H125027   5.178   4.734   7.105 -0.4866  1.4754 -0.9614
 1156TIP3    H225028   5.304   4.771   7.180  0.0308 -0.6508 -0.7002
 1157TIP3   OH225029   5.728   2.126   1.577 -0.1595  0.0945  0.1672
 1157TIP3    H125030   5.696   2.157   1.661 -3.0639  0.0439 -0.7856
 1157TIP3    H225031   5.712   2.031   1.579 -1.8625  0.3027 -0.9653
 1158TIP3   OH225032   0.879   3.865   2.197 -0.1655  0.2774 -0.4146
 1158TIP3    H125033   0.858   3.940   2.254 -0.7363  0.2557 -0.5846
 1158TIP3    H225034   0.876   3.901   2.108  2.0605  0.6270 -0.3996
 1159TIP3   OH225035   1.105   1.052   0.924 -0.0592  0.2988 -0.3053
 1159TIP3    H125036   1.050   0.975   0.915  1.0969 -0.8252  1.6469
 1159TIP3    H225037   1.043   1.125   0.927 -1.2548 -0.6504 -0.8016
 1160TIP3   OH225038   1.244   5.764   0.346  0.4748 -0.2401  0.4279
 1160TIP3    H125039   1.176   5.746   0.412  0.5947  1.6288  1.1185
 1160TIP3    H225040   1.206   5.733   0.264 -0.9755  0.1945  0.8967
 1161TIP3   OH225041   1.342   6.002   1.463  0.0850 -0.1636 -0.1350
 1161TIP3    H125042   1.257   6.039   1.486 -0.5338 -1.2346 -0.6026
 1161TIP3    H225043   1.326   5.956   1.380  0.9037 -1.1455  0.2366
 1162TIP3   OH225044   0.691   1.583   8.225 -0.1946 -0.4485  0.4417
 1162TIP3    H125045   0.638   1.656   8.193 -1.2570  0.0929  3.1345
 1162TIP3    H225046   0.705   1.527   8.148 -3.2443  0.2746 -0.7758
 1163TIP3   OH225047   1.142   0.481   1.757  0.4149 -0.2306  0.1307
 1163TIP3    H125048   1.085   0.534   1.702  0.2236 -0.3773  0.1848
 1163TIP3    H225049   1.129   0.516   1.845  1.6448  0.8111 -0.0787
 1164TIP3   OH225050   0.908   4.863   0.625  0.3746 -0.0960 -0.1933
 1164TIP3    H125051   0.998   4.889   0.604  0.2568  0.6644  0.2092
 1164TIP3    H225052   0.898   4.884   0.717 -1.0023  2.2061 -0.7868
 1165TIP3   OH225053   3.185   6.700   8.425  0.3361  0.5642 -0.0735
 1165TIP3    H125054   3.095   6.720   8.399  0.2786  1.5177  0.7971
 1165TIP3    H225055   3.234   6.700   8.343 -0.6885 -1.4917 -0.7642
 1166TIP3   OH225056   3.220   5.147   0.736  0.3023 -0.6419  0.1023
 1166TIP3    H125057   3.167   5.148   0.657  0.6746  0.6718 -0.1560
 1166TIP3    H225058   3.310   5.150   0.705  0.4448  0.2825  0.5595
 1167TIP3   OH225059   1.120   4.236   8.032  0.6374 -0.3091 -0.3498
 1167TIP3    H125060   1.079   4.242   7.946  3.5174 -0.7144 -1.8788
 1167TIP3    H225061   1.197   4.181   8.018  1.3414 -0.1636  2.4437
 1168TIP3   OH225062   0.044   6.391   0.358  0.1191 -0.6275 -0.4730
 1168TIP3    H125063   0.056   6.446   0.435 -1.2468  0.5155 -1.0185
 1168TIP3    H225064   0.111   6.323   0.365 -0.7805 -1.3333  2.3763
 1169TIP3   OH225065   3.319   2.597   1.012 -0.0874  0.1454  0.0931
 1169TIP3    H125066   3.398   2.543   1.017  0.9508  1.5109 -0.8457
 1169TIP3    H225067   3.260   2.558   1.076  0.6936 -1.9420 -0.3818
 1170TIP3   OH225068   5.470   2.588   8.145 -0.2161  0.1951  0.2691
 1170TIP3    H125069   5.475   2.626   8.058  0.8897 -0.2437  0.1265
 1170TIP3    H225070   5.555   2.547   8.159 -0.7265 -0.6164  1.1574
 1171TIP3   OH225071   1.802   3.491   8.236  0.5430 -0.2993 -0.5850
 1171TIP3    H125072   1.847   3.435   8.299 -0.4154 -1.2888 -0.7488
 1171TIP3    H225073   1.711   3.492   8.265  0.8319  2.8636  0.6168
 1172TIP3   OH225074   0.952   0.939   1.321  0.1747  0.1903 -0.8231
 1172TIP3    H125075   0.961   1.033   1.338 -0.5773  0.5819 -2.3479
 1172TIP3    H225076   0.861   0.919   1.344  0.5851 -0.3957  0.3750
 1173TIP3   OH225077   6.378   3.937   8.408  0.4240 -0.2931 -0.3480
 1173TIP3    H125078   6.404   3.907   8.495  1.1096  0.5984 -0.2374
 1173TIP3    H225079   6.285   3.914   8.401  0.5679 -1.0914  0.2973
 1174TIP3   OH225080   6.646   0.133   6.619 -0.4478  0.5040 -0.6487
 1174TIP3    H125081   6.662   0.065   6.553  3.0859  0.6003 -0.0743
 1174TIP3    H225082   6.624   0.085   6.699  2.4696 -0.1325 -0.1263
 1175TIP3   OH225083   6.231   1.077   8.288 -0.5225 -0.4768 -0.0363
 1175TIP3    H125084   6.138   1.084   8.266 -0.7706 -0.7302  0.8907
 1175TIP3    H225085   6.255   1.165   8.318 -1.0096 -0.9050  1.7150
 1176TIP3   OH225086   0.675   3.285   1.005 -0.5862  0.5626  0.6144
 1176TIP3    H125087   0.715   3.365   1.039 -2.0934  1.3533  0.6036
 1176TIP3    H225088   0.590   3.280   1.048 -0.7960 -0.6866  0.1041
 1177TIP3   OH225089   3.902   6.490   6.534  0.3764  0.1133 -0.3041
 1177TIP3    H125090   3.893   6.585   6.526 -0.0436  0.0955 -0.0902
 1177TIP3    H225091   3.980   6.469   6.483  0.1741  0.5083 -0.7820
 1178TIP3   OH225092   5.676   1.623   0.992  0.3010  0.3591 -0.0728
 1178TIP3    H125093   5.720   1.564   1.053  0.4535  1.0106  0.4476
 1178TIP3    H225094   5.682   1.709   1.032 -0.8199  0.5770 -0.3459
 1179TIP3   OH225095   2.175   2.842   0.772  0.0437 -0.3697 -0.1243
 1179TIP3    H125096   2.088   2.874   0.750  0.4016 -0.3736 -1.7039
 1179TIP3    H225097   2.230   2.870   0.698  1.0672 -1.6866  0.1001
 1180TIP3   OH225098   4.937   2.933   7.969 -0.1822  0.0930  0.2853
 1180TIP3    H125099   5.028   2.920   7.994  0.0463 -1.6806 -1.3147
 1180TIP3    H225100   4.887   2.885   8.036  0.0792  0.4086  0.7130
 1181TIP3   OH225101   3.596   0.004   0.898 -0.0441 -0.7340 -0.5305
 1181TIP3    H125102   3.624   0.006   0.807 -1.6921  0.3253 -1.0610
 1181TIP3    H225103   3.554  -0.081   0.908  1.9250 -1.7244 -0.1286
 1182TIP3   OH225104   5.872   4.034   1.419 -0.1222  0.4294 -0.5507
 1182TIP3    H125105   5.814   4.074   1.354 -0.3688  0.1981 -0.4707
 1182TIP3    H225106   5.817   3.972   1.466 -0.0067  0.7640  0.0412
 1183TIP3   OH225107   6.593   3.053   0.734 -0.3108  0.8920 -0.3923
 1183TIP3    H125108   6.566   3.045   0.642  1.5476  0.7916 -0.9712
 1183TIP3    H225109   6.670   3.109   0.731 -1.5121  2.7541  1.3943
 1184TIP3   OH225110   1.753   6.506   6.838  0.1764 -0.2522 -0.1703
 1184TIP3    H125111   1.698   6.430   6.820  0.6918 -0.6572 -0.0305
 1184TIP3    H225112   1.832   6.471   6.879  0.9935  0.2165 -1.2775
 1185TIP3   OH225113   5.380   4.059   1.017 -0.4999 -0.7242 -0.3207
 1185TIP3    H125114   5.397   3.994   0.950  1.1018  0.5343 -1.2040
 1185TIP3    H225115   5.323   4.124   0.975 -1.8688 -1.3695  0.4683
 1186TIP3   OH225116   1.888   4.323   1.569 -0.1351  0.5175  0.2278
 1186TIP3    H125117   1.893   4.283   1.656 -3.2044  1.3729  0.9027
 1186TIP3    H225118   1.949   4.397   1.574 -0.2915  0.5813  1.6670
 1187TIP3   OH225119   4.823   5.992   7.257  0.2290 -0.4819 -0.3406
 1187TIP3    H125120   4.759   6.051   7.296  1.1033 -0.2251  0.7927
 1187TIP3    H225121   4.812   6.002   7.163  0.4306  1.6043 -0.1831
 1188TIP3   OH225122   6.263   2.409   1.483  0.0615 -0.6760 -0.7553
 1188TIP3    H125123   6.343   2.369   1.448 -0.0114 -1.2752 -0.2595
 1188TIP3    H225124   6.234   2.469   1.415  0.6085 -0.8964 -1.1891
 1189TIP3   OH225125   1.743   6.757   8.435  0.3051  0.6020 -0.5320
 1189TIP3    H125126   1.725   6.813   8.359 -1.6663  2.1784  0.9834
 1189TIP3    H225127   1.760   6.819   8.506 -2.4647 -0.5663  1.3345
 1190TIP3   OH225128   4.907   0.864   8.318 -0.0366 -0.2188 -0.0797
 1190TIP3    H125129   4.891   0.772   8.299 -2.0690  0.5333 -2.4518
 1190TIP3    H225130   4.832   0.891   8.372  1.9966 -0.5187  3.2133
 1191TIP3   OH225131   2.499   4.018   8.164 -0.2967 -0.2729  0.4386
 1191TIP3    H125132   2.517   4.024   8.070 -2.7334  0.6564 -0.0342
 1191TIP3    H225133   2.524   4.104   8.198 -2.8613  0.7951 -0.1126
 1192TIP3   OH225134   5.376   5.075   7.721  0.7176 -0.6054  0.0695
 1192TIP3    H125135   5.338   5.162   7.720 -0.6885 -1.1729 -1.6923
 1192TIP3    H225136   5.432   5.072   7.644  0.8182 -1.2374  0.1558
 1193TIP3   OH225137   4.478   6.538   7.469 -0.1390  0.4162  0.7369
 1193TIP3    H125138   4.448   6.518   7.557 -0.9166  0.5975  0.5226
 1193TIP3    H225139   4.398   6.539   7.416  0.4600 -1.0573 -0.2466
 1194TIP3   OH225140   0.223   2.540   6.947 -0.0016  0.3238 -0.1075
 1194TIP3    H125141   0.175   2.532   6.864 -2.8016  3.1141  1.0093
 1194TIP3    H225142   0.309   2.573   6.921  0.5327 -2.2894 -2.0493
 1195TIP3   OH225143   3.019   6.587   6.714  0.5514  0.3522  0.0101
 1195TIP3    H125144   3.086   6.627   6.769  1.0995  1.8161 -1.6199
 1195TIP3    H225145   3.047   6.496   6.704 -0.6044 -0.5448  3.6343
 1196TIP3   OH225146   4.367   2.381   0.106 -0.0295  0.2074 -0.1371
 1196TIP3    H125147   4.339   2.473   0.104 -0.0903  0.2391  1.2661
 1196TIP3    H225148   4.333   2.348   0.189  0.4646 -0.9394 -0.3807
 1197TIP3   OH225149   5.091   3.475   8.560 -0.4263  0.0254  0.6009
 1197TIP3    H125150   4.996   3.461   8.558 -0.3352 -0.8198  1.3282
 1197TIP3    H225151   5.113   3.480   8.653  0.1669  0.8111  0.4240
 1198TIP3   OH225152   4.414   3.055   1.092  0.4916  0.3434  0.6268
 1198TIP3    H125153   4.499   3.056   1.136  1.0495  1.4716 -0.4283
 1198TIP3    H225154   4.429   3.006   1.011 -0.1694 -0.4805  0.9898
 1199TIP3   OH225155   0.550   1.983   7.278 -0.4615 -0.2132  0.3557
 1199TIP3    H125156   0.554   2.034   7.198  0.7409 -1.5196 -0.4730
 1199TIP3    H225157   0.460   1.993   7.309 -0.4309  1.8297 -0.1129
 1200TIP3   OH225158   3.170   1.154   0.827  0.4487  0.0725 -0.4677
 1200TIP3    H125159   3.216   1.110   0.756  2.5277 -0.9536  1.4090
 1200TIP3    H225160   3.179   1.096   0.902 -0.7185  1.6133  0.9532
 1201TIP3   OH225161   3.024   6.440   7.482  0.0753  0.3749 -0.5415
 1201TIP3    H125162   2.930   6.449   7.463 -0.6565  0.8774  2.6616
 1201TIP3    H225163   3.065   6.428   7.396 -3.1852 -2.6786 -1.9557
 1202TIP3   OH225164   0.542   3.141   0.180  0.2202  0.6021  0.7214
 1202TIP3    H125165   0.595   3.191   0.242  2.3756  0.8300 -1.1391
 1202TIP3    H225166   0.513   3.206   0.116  0.1313  0.0245  0.1668
 1203TIP3   OH225167   0.707   0.355   1.186 -0.1779  0.3261 -0.3019
 1203TIP3    H125168   0.672   0.279   1.140 -1.4238 -0.1806  1.3785
 1203TIP3    H225169   0.802   0.346   1.179 -0.2767 -1.7083  0.2927
 1204TIP3   OH225170   1.767   6.239   0.482  0.1140  0.9945  0.5850
 1204TIP3    H125171   1.800   6.326   0.505 -0.9226  1.3000  0.9654
 1204TIP3    H225172   1.821   6.212   0.407 -1.0013  2.9293 -1.0271
 1205TIP3   OH225173   6.613   3.750   1.214  0.0119  0.0718  0.7105
 1205TIP3    H125174   6.534   3.798   1.238  0.3333  0.7716  0.4011
 1205TIP3    H225175   6.616   3.754   1.119  1.0205  1.0739  0.7594
 1206TIP3   OH225176   5.673   3.067   7.316  0.1344 -0.2207 -0.5412
 1206TIP3    H125177   5.751   3.120   7.301  0.2227 -0.2023 -0.0342
 1206TIP3    H225178   5.698   3.006   7.385 -0.7609  0.8313  0.7905
 1207TIP3   OH225179   2.694   4.557   7.979 -0.3687  0.0554 -0.4034
 1207TIP3    H125180   2.768   4.567   8.039  0.1683  1.1750 -1.2252
 1207TIP3    H225181   2.651   4.477   8.009 -0.6288  1.0125  2.0069
 1208TIP3   OH225182   1.668   4.058   7.647 -0.1021 -0.2684  0.1599
 1208TIP3    H125183   1.667   4.056   7.742 -2.2085 -0.5016  0.1832
 1208TIP3    H225184   1.576   4.047   7.622  0.5878 -1.8129 -1.9330
 1209TIP3   OH225185   5.359   2.386   6.445 -0.4606  0.1034  0.1004
 1209TIP3    H125186   5.411   2.335   6.507  0.0341 -0.9652 -1.1519
 1209TIP3    H225187   5.414   2.461   6.424 -0.4243  0.2109  0.5609
 1210TIP3   OH225188   2.823   2.788   6.950 -1.1156  0.0023 -0.3141
 1210TIP3    H125189   2.833   2.875   6.913 -2.5217  1.5304  2.5446
 1210TIP3    H225190   2.911   2.762   6.976 -0.5277  0.0348 -2.1520
 1211TIP3   OH225191   4.634   5.270   7.008  0.2351  0.2039 -0.2970
 1211TIP3    H125192   4.598   5.317   7.084 -0.7129 -0.0156 -0.5974
 1211TIP3    H225193   4.608   5.179   7.022  1.5492 -0.1455 -0.0234
 1212TIP3   OH225194   4.094   3.176   1.669  0.1977  0.2977 -0.5340
 1212TIP3    H125195   4.132   3.263   1.687  1.3027  0.0662 -1.5807
 1212TIP3    H225196   4.126   3.121   1.740  0.2104  0.5622 -0.3341
 1213TIP3   OH225197   3.919   4.053   7.753 -0.0109 -0.1048 -0.0302
 1213TIP3    H125198   3.933   3.967   7.711  0.2283 -0.9493  1.7110
 1213TIP3    H225199   3.941   4.116   7.684  3.2981 -1.4030 -0.3795
 1214TIP3   OH225200   6.538   5.929   6.981  0.2552 -0.0108 -0.1533
 1214TIP3    H125201   6.548   5.932   7.076 -1.0395  0.8139 -0.0170
 1214TIP3    H225202   6.481   5.854   6.966 -2.0835  1.6114  0.0350
 1215TIP3   OH225203   0.477   1.108   1.695 -0.5168  0.6144 -0.5909
 1215TIP3    H125204   0.527   1.149   1.624 -1.2834  1.9104 -0.4241
 1215TIP3    H225205   0.542   1.073   1.755  0.1662 -1.2700 -2.3277
 1216TIP3   OH225206   0.124   5.808   8.357  0.1480 -0.5563 -0.5888
 1216TIP3    H125207   0.069   5.859   8.416 -0.0608  0.3989 -1.5774
 1216TIP3    H225208   0.170   5.874   8.305  2.5491 -1.3086  0.4641
 1217TIP3   OH225209   5.577   3.874   7.147  0.6047 -0.2942 -0.2412
 1217TIP3    H125210   5.532   3.932   7.086 -0.4245 -1.1341 -0.3084
 1217TIP3    H225211   5.590   3.926   7.226 -1.1638 -0.2501  0.0509
 1218TIP3   OH225212   3.751   4.667   8.433  0.3818  0.0831  0.1597
 1218TIP3    H125213   3.716   4.624   8.510  0.6374  0.7940  0.6824
 1218TIP3    H225214   3.674   4.704   8.389  0.4364  1.8243  1.4181
 1219TIP3   OH225215   2.118   1.594   7.146 -0.7510 -0.4249 -0.0239
 1219TIP3    H125216   2.033   1.627   7.116 -1.1541  0.6932  2.1200
 1219TIP3    H225217   2.096   1.526   7.209 -0.2450  1.6181  2.5322
 1220TIP3   OH225218   1.591   1.153   1.801 -0.1315 -0.1687 -0.2594
 1220TIP3    H125219   1.522   1.220   1.804  0.6357  0.6421 -0.3788
 1220TIP3    H225220   1.665   1.193   1.846  0.9399 -0.2042 -1.8925
 1221TIP3   OH225221   1.656   5.682   8.067 -0.2437 -0.4792 -0.3880
 1221TIP3    H125222   1.737   5.635   8.083 -0.4009 -0.6556 -0.1090
 1221TIP3    H225223   1.631   5.719   8.152 -0.3778 -0.3011 -0.5017
 1222TIP3   OH225224   3.495   2.541   7.828 -0.3335 -0.3897  0.1389
 1222TIP3    H125225   3.461   2.612   7.774  0.7803  1.9292  2.2611
 1222TIP3    H225226   3.419   2.488   7.849 -1.1084 -0.1938 -1.9628
 1223TIP3   OH225227   3.321   5.213   7.332  0.1263 -0.3832 -0.2656
 1223TIP3    H125228   3.253   5.151   7.307 -1.7505 -0.2848  3.7725
 1223TIP3    H225229   3.325   5.207   7.427  1.3694  4.1210  0.2086
 1224TIP3   OH225230   5.990   3.218   8.618  0.3048  0.1217 -0.0889
 1224TIP3    H125231   5.923   3.152   8.637 -0.7180  1.6121  1.7904
 1224TIP3    H225232   5.994   3.222   8.523 -1.7987 -0.5009 -0.2392
 1225TIP3   OH225233   6.733   0.368   0.922  0.1762  0.7282  0.4926
 1225TIP3    H125234   6.704   0.376   1.013 -1.0167  0.5606  0.1529
 1225TIP3    H225235   6.770   0.280   0.917 -2.6239 -0.5309  0.1198
 1226TIP3   OH225236   0.535   2.139   1.261  0.0892 -0.5227  0.5991
 1226TIP3    H125237   0.578   2.147   1.347 -0.7116  1.1544  0.8773
 1226TIP3    H225238   0.561   2.218   1.214 -0.0591 -1.0872 -0.4546
 1227TIP3   OH225239   0.741   0.443   6.449 -0.3257  0.2676  0.0809
 1227TIP3    H125240   0.689   0.503   6.502 -0.4770 -0.1689  0.4324
 1227TIP3    H225241   0.830   0.479   6.452 -0.7078  1.3898 -1.0718
 1228TIP3   OH225242   5.832   6.521   0.498  0.4715 -0.0245  0.6596
 1228TIP3    H125243   5.899   6.454   0.485  0.6141 -0.0128  1.3010
 1228TIP3    H225244   5.771   6.509   0.425  1.0471 -0.1857  0.2053
 1229TIP3   OH225245   2.123   2.889   1.064 -0.2165 -0.0736 -0.4275
 1229TIP3    H125246   2.145   2.833   0.990  0.1710  1.4094 -1.4679
 1229TIP3    H225247   2.032   2.868   1.084 -0.1776 -0.8351 -1.0101
 1230TIP3   OH225248   5.184   0.535   1.411  0.0775 -0.2346  0.7966
 1230TIP3    H125249   5.225   0.604   1.464 -0.8865 -0.1916  1.5158
 1230TIP3    H225250   5.256   0.477   1.387  0.6768  0.2422  1.4030
 1231TIP3   OH225251   0.458   1.781   8.184 -0.1357 -0.0372  0.5037
 1231TIP3    H125252   0.372   1.806   8.218 -1.2102 -0.2407 -1.8005
 1231TIP3    H225253   0.441   1.704   8.130  1.3359  0.3625 -0.6225
 1232TIP3   OH225254   2.108   1.172   1.479 -1.1248  0.3078 -0.6377
 1232TIP3    H125255   2.031   1.141   1.526  0.0325 -0.7361  0.6529
 1232TIP3    H225256   2.176   1.108   1.499  0.4020  1.8041 -0.7726
 1233TIP3   OH225257   3.062   0.761   0.459 -0.4902 -0.5105 -0.0455
 1233TIP3    H125258   3.033   0.792   0.545 -1.9582  0.5990 -0.8879
 1233TIP3    H225259   3.147   0.803   0.445 -0.4946 -0.2690  0.6341
 1234TIP3   OH225260   4.301   4.154   0.386  0.2350 -0.1011  0.4364
 1234TIP3    H125261   4.335   4.183   0.301 -1.0129  0.0429 -0.0279
 1234TIP3    H225262   4.209   4.180   0.386 -0.4708 -2.3707  0.7839
 1235TIP3   OH225263   3.153   1.661   0.914 -0.2052 -0.5082 -0.4313
 1235TIP3    H125264   3.154   1.730   0.847 -1.7978 -0.6902 -0.6908
 1235TIP3    H225265   3.237   1.670   0.959 -1.5918  3.8583  1.8322
 1236TIP3   OH225266   0.206   6.487   8.157 -0.4716  0.4282  0.0188
 1236TIP3    H125267   0.241   6.553   8.216  1.6355 -0.7170  0.1394
 1236TIP3    H225268   0.201   6.407   8.210 -2.1233  0.2391 -0.3636
 1237TIP3   OH225269   4.172   5.728   7.287  0.9693 -0.6988 -0.0709
 1237TIP3    H125270   4.120   5.695   7.213  1.7314 -0.7653 -0.5908
 1237TIP3    H225271   4.125   5.806   7.317  0.3491 -0.9921 -0.2582
 1238TIP3   OH225272   2.482   0.797   7.345 -0.5317  0.1524  0.2002
 1238TIP3    H125273   2.480   0.731   7.275  0.3125 -0.3088  0.5983
 1238TIP3    H225274   2.439   0.754   7.419 -0.9662  0.4537  0.1243
 1239TIP3   OH225275   6.644   0.142   0.715 -0.0094 -0.4080 -0.0960
 1239TIP3    H125276   6.602   0.167   0.797 -1.3485  0.2403 -0.9415
 1239TIP3    H225277   6.578   0.160   0.648  0.9614 -1.1525 -1.2963
 1240TIP3   OH225278   1.508   5.603   1.420 -0.1083 -0.0583 -0.7632
 1240TIP3    H125279   1.425   5.588   1.374 -1.4662 -0.9118  1.7953
 1240TIP3    H225280   1.528   5.696   1.404 -3.4278  1.1748  1.3162
 1241TIP3   OH225281   4.972   1.739   0.869  0.0050  0.2073  0.1019
 1241TIP3    H125282   4.909   1.717   0.938 -0.4125  1.1564  0.0369
 1241TIP3    H225283   4.942   1.689   0.793 -0.2959  0.1536  0.2540
 1242TIP3   OH225284   3.282   2.088   7.668 -0.4144 -0.2171  0.7687
 1242TIP3    H125285   3.377   2.095   7.679 -0.2142  0.2670 -1.0328
 1242TIP3    H225286   3.246   2.153   7.729  0.3212 -1.1265  2.2430
 1243TIP3   OH225287   5.482   1.997   0.876  0.5668  0.1117  0.2039
 1243TIP3    H125288   5.501   1.949   0.957 -0.1839  0.2471  0.4770
 1243TIP3    H225289   5.492   1.933   0.807  1.4286  0.0469  0.3821
 1244TIP3   OH225290   4.756   4.655   1.261 -0.3297  0.3276 -0.8359
 1244TIP3    H125291   4.761   4.705   1.342  0.4510 -0.1680 -0.5698
 1244TIP3    H225292   4.663   4.658   1.237 -0.5233  0.7073 -0.0741
 1245TIP3   OH225293   4.636   5.477   1.174 -0.0146  0.7729 -0.1253
 1245TIP3    H125294   4.613   5.385   1.192 -2.4705  1.4142  0.3632
 1245TIP3    H225295   4.683   5.474   1.091  1.9729 -1.1293  0.9433
 1246TIP3   OH225296   2.847   2.269   1.483 -0.3780 -0.8174 -0.0492
 1246TIP3    H125297   2.844   2.196   1.421  0.6714 -1.9746  1.1884
 1246TIP3    H225298   2.864   2.346   1.429  2.1002 -1.9943 -1.1244
 1247TIP3   OH225299   3.767   3.159   8.643  0.1191 -0.0464  0.3453
 1247TIP3    H125300   3.736   3.194   8.726  0.4012  0.5322  0.2093
 1247TIP3    H225301   3.818   3.081   8.667 -0.8550 -0.6081  0.6158
 1248TIP3   OH225302   2.424   0.569   7.509 -0.2387  0.9663 -0.4219
 1248TIP3    H125303   2.477   0.507   7.559 -1.1121 -1.1214 -1.9508
 1248TIP3    H225304   2.350   0.589   7.566 -0.1145  0.3550 -0.0413
 1249TIP3   OH225305   3.558   3.215   0.473  0.6882  0.7170 -0.1888
 1249TIP3    H125306   3.516   3.285   0.423 -1.5623  0.4847  1.2412
 1249TIP3    H225307   3.485   3.167   0.513  2.2326 -1.5403  0.0776
 1250TIP3   OH225308   1.450   3.883   1.305 -0.4770 -0.3066 -0.0115
 1250TIP3    H125309   1.514   3.928   1.250 -0.2271  2.4706  2.3386
 1250TIP3    H225310   1.369   3.884   1.254 -0.1675  1.8549 -0.5520
 1251TIP3   OH225311   6.521   2.094   2.656 -0.5767  0.5545 -0.2028
 1251TIP3    H125312   6.481   2.007   2.651 -0.5166  0.5704 -1.1755
 1251TIP3    H225313   6.447   2.155   2.658 -0.6155  0.4979  0.2011
 1252TIP3   OH225314   2.455   0.276   1.252 -0.1622 -0.0849 -0.3281
 1252TIP3    H125315   2.417   0.225   1.180 -0.2158 -1.0262  0.3458
 1252TIP3    H225316   2.454   0.366   1.221  0.1168 -0.5065 -1.6446
 1253TIP3   OH225317   6.648   6.180   8.534 -0.2694 -0.4789  0.0784
 1253TIP3    H125318   6.633   6.231   8.454  0.1347 -0.2304  0.1603
 1253TIP3    H225319   6.630   6.242   8.604  3.3998  0.5948  0.2329
 1254TIP3   OH225320   2.148   2.199   0.976  0.3501 -0.1631  0.1884
 1254TIP3    H125321   2.071   2.246   0.945  0.4604 -0.0312  0.1162
 1254TIP3    H225322   2.122   2.107   0.973 -0.3728 -0.0327  1.7026
 1255TIP3   OH225323   4.521   2.387   8.733  0.0354  0.2180  0.1133
 1255TIP3    H125324   4.466   2.364   8.808  1.6104  0.9420  1.5598
 1255TIP3    H225325   4.479   2.465   8.695  0.0678  0.7845  1.2192
 1256TIP3   OH225326   2.190   1.368   0.676 -0.3729  0.0908 -0.3936
 1256TIP3    H125327   2.242   1.411   0.744 -1.3518  0.4552  0.1418
 1256TIP3    H225328   2.245   1.372   0.597  0.2002  0.9141  0.0397
 1257TIP3   OH225329   2.447   0.475   0.958 -0.1598  1.3871 -0.4802
 1257TIP3    H125330   2.537   0.453   0.982 -0.4455 -0.2073 -0.7883
 1257TIP3    H225331   2.454   0.561   0.915  1.1787  1.3523 -0.3698
 1258TIP3   OH225332   1.608   4.287   1.016  0.4415  0.0869 -0.3968
 1258TIP3    H125333   1.575   4.267   0.928  0.4674  0.9467 -0.6139
 1258TIP3    H225334   1.627   4.381   1.013 -1.3096  0.5575  1.0820
 1259TIP3   OH225335   1.537   1.895   7.450  0.0338 -0.3602  0.3335
 1259TIP3    H125336   1.566   1.971   7.500  1.8686 -0.2458 -0.7845
 1259TIP3    H225337   1.451   1.873   7.485 -0.2021  1.7626  1.1806
 1260TIP3   OH225338   3.724   0.818   1.261 -0.0670  0.3371  0.1517
 1260TIP3    H125339   3.657   0.876   1.224 -0.5024  0.0180  0.4311
 1260TIP3    H225340   3.699   0.730   1.231  0.3430  0.2381  0.0917
 1261TIP3   OH225341   5.401   3.184   7.041  0.0860  0.3022  0.1751
 1261TIP3    H125342   5.449   3.130   6.978  0.6095 -0.1894  0.9826
 1261TIP3    H225343   5.458   3.260   7.055 -1.0386  1.5541 -1.6252
 1262TIP3   OH225344   0.286   2.397   0.675 -0.4623  0.5378 -0.2844
 1262TIP3    H125345   0.285   2.349   0.759  0.1726  1.3901  0.2289
 1262TIP3    H225346   0.194   2.418   0.658 -0.8190 -1.2388 -0.7618
 1263TIP3   OH225347   2.611   0.640   8.007  0.3031 -0.1833  0.3913
 1263TIP3    H125348   2.589   0.673   7.920 -0.3653  1.3974  1.1245
 1263TIP3    H225349   2.619   0.545   7.995  1.7173  0.1231 -1.6948
 1264TIP3   OH225350   1.294   5.824   1.255  0.3250  0.0247  0.2780
 1264TIP3    H125351   1.241   5.756   1.296 -0.9069 -0.6801 -2.2213
 1264TIP3    H225352   1.360   5.776   1.205 -0.9706  0.5173 -2.0581
 1265TIP3   OH225353   1.298   6.096   0.798  0.0685 -0.8240  0.0477
 1265TIP3    H125354   1.304   6.128   0.708 -0.4389 -1.8078 -0.3475
 1265TIP3    H225355   1.205   6.101   0.819  0.3972  1.2681  1.2394
 1266TIP3   OH225356   4.851   2.302   2.203  0.1200  0.6595 -0.0122
 1266TIP3    H125357   4.944   2.312   2.183 -0.2636  1.1113 -1.7645
 1266TIP3    H225358   4.838   2.208   2.211  0.3685  0.4424 -1.8228
 1267TIP3   OH225359   4.699   4.617   1.798 -0.3103  0.2694  0.4498
 1267TIP3    H125360   4.623   4.589   1.849 -0.7407 -1.0323 -0.8331
 1267TIP3    H225361   4.687   4.711   1.786 -1.9100  0.0383  0.0138
 1268TIP3   OH225362   4.917   3.138   8.305 -0.8177 -0.0071 -0.6563
 1268TIP3    H125363   4.993   3.196   8.306 -1.7200  1.2329 -0.8442
 1268TIP3    H225364   4.948   3.057   8.344  0.8239  0.1550 -1.5172
 1269TIP3   OH225365   6.507   0.159   1.188  0.5422  0.1134 -0.1012
 1269TIP3    H125366   6.466   0.194   1.266  0.4148  1.3056 -0.6776
 1269TIP3    H225367   6.593   0.201   1.186  1.4632 -1.6263  0.5837
 1270TIP3   OH225368   3.526   2.557   6.933  0.3306 -0.1740 -0.0029
 1270TIP3    H125369   3.546   2.486   6.872  0.9307  0.8641 -1.0468
 1270TIP3    H225370   3.464   2.612   6.886  0.4534  0.3987  0.4957
 1271TIP3   OH225371   3.920   1.701   0.730 -0.5557 -0.3366  0.5395
 1271TIP3    H125372   3.990   1.704   0.795  0.0317 -1.0437 -0.0465
 1271TIP3    H225373   3.846   1.659   0.775 -0.7086  0.6537  1.2404
 1272TIP3   OH225374   0.192   4.430   2.324 -0.3947 -0.4943  0.4685
 1272TIP3    H125375   0.178   4.355   2.382 -1.8713 -0.4129  0.2577
 1272TIP3    H225376   0.277   4.414   2.283 -1.1257 -2.5943 -0.3488
 1273TIP3   OH225377   3.954   4.697   1.159  0.1936 -0.7524  0.0533
 1273TIP3    H125378   4.013   4.729   1.227  0.5589 -0.7305 -0.2756
 1273TIP3    H225379   3.867   4.700   1.200 -0.0168  1.9945 -0.3874
 1274TIP3   OH225380   6.168   2.167   7.315  0.4006  0.1468  0.0523
 1274TIP3    H125381   6.202   2.252   7.343 -1.6280  1.0727 -0.1628
 1274TIP3    H225382   6.142   2.123   7.397  5.6194 -2.3732  0.7632
 1275TIP3   OH225383   6.442   5.875   1.638  0.9161 -0.3213 -0.2761
 1275TIP3    H125384   6.401   5.852   1.721  0.8649  0.6874 -0.0038
 1275TIP3    H225385   6.474   5.792   1.603  2.2600 -0.5850  1.4583
 1276TIP3   OH225386   1.677   4.564   8.331 -0.0913  0.4961  0.1148
 1276TIP3    H125387   1.633   4.565   8.416 -0.3471  1.1162 -0.0190
 1276TIP3    H225388   1.749   4.626   8.340  0.5568 -0.2559  0.2217
 1277TIP3   OH225389   4.975   0.409   1.570 -0.2495  0.0273 -0.2530
 1277TIP3    H125390   5.032   0.433   1.497 -1.0454 -0.5807 -1.0991
 1277TIP3    H225391   4.888   0.401   1.531 -0.7969  0.2304  0.8778
 1278TIP3   OH225392   2.376   3.569   1.099 -0.6233  0.4212  0.3052
 1278TIP3    H125393   2.327   3.511   1.158  0.4236 -0.9501 -0.1215
 1278TIP3    H225394   2.395   3.514   1.023  0.6220  1.2564 -0.0042
 1279TIP3   OH225395   1.142   6.764   1.265  0.1634 -0.0152  0.0399
 1279TIP3    H125396   1.150   6.718   1.348  1.1650  0.3633  0.1731
 1279TIP3    H225397   1.230   6.798   1.248 -0.2316  0.6620 -0.7354
 1280TIP3   OH225398   1.109   2.131   7.654 -0.0096 -0.2972 -0.1040
 1280TIP3    H125399   1.048   2.083   7.710  1.5745 -2.9529 -0.5310
 1280TIP3    H225400   1.087   2.103   7.565 -1.2132  2.4080 -0.7831
 1281TIP3   OH225401   3.460   5.997   1.013  0.2330 -0.2043  0.1243
 1281TIP3    H125402   3.477   6.002   1.107 -0.8305  3.0933  0.2807
 1281TIP3    H225403   3.527   5.937   0.980  1.4692 -0.4582  2.8148
 1282TIP3   OH225404   3.488   5.715   1.245 -0.2016 -0.1903  0.3943
 1282TIP3    H125405   3.477   5.730   1.339 -0.5018 -1.8212  0.6486
 1282TIP3    H225406   3.547   5.639   1.239  0.9839  0.7709 -0.7731
 1283TIP3   OH225407   0.052   5.807   1.170  0.4515  0.0864 -0.2251
 1283TIP3    H125408   0.118   5.802   1.101 -0.5603 -2.3040 -1.1690
 1283TIP3    H225409   0.004   5.888   1.152  0.9465  0.0863 -1.6500
 1284TIP3   OH225410   0.793   6.636   1.556 -0.0885 -0.2340  0.1254
 1284TIP3    H125411   0.701   6.650   1.533 -0.0701 -1.2122 -0.5960
 1284TIP3    H225412   0.808   6.692   1.632 -1.2560 -0.0018  0.1942
 1285TIP3   OH225413   2.866   4.843   6.592 -0.1771 -0.1037  0.1522
 1285TIP3    H125414   2.866   4.917   6.530 -1.6909 -0.1410  0.0730
 1285TIP3    H225415   2.956   4.810   6.590  0.4558  1.5384 -0.0500
 1286TIP3   OH225416   0.589   2.593   7.451  0.1147 -0.7208 -0.1464
 1286TIP3    H125417   0.586   2.552   7.365  0.9403 -1.1873  0.0335
 1286TIP3    H225418   0.614   2.521   7.510 -0.5290 -0.4296  0.4959
 1287TIP3   OH225419   4.539   4.237   8.647 -0.1658 -0.1992  0.5555
 1287TIP3    H125420   4.590   4.156   8.647  0.1057 -0.0596 -1.4430
 1287TIP3    H225421   4.454   4.213   8.610 -1.6336 -0.3909  3.6708
 1288TIP3   OH225422   0.563   4.939   7.330  0.6341 -0.2222  0.2315
 1288TIP3    H125423   0.610   4.873   7.379  1.9139  0.9693  0.6618
 1288TIP3    H225424   0.536   4.894   7.249 -0.6863 -1.9278  1.5433
 1289TIP3   OH225425   2.625   3.274   8.140  0.3188 -0.0680 -0.1650
 1289TIP3    H125426   2.572   3.311   8.210  0.1047 -0.6092 -0.0431
 1289TIP3    H225427   2.575   3.198   8.109  0.5756 -0.0368 -0.6698
 1290TIP3   OH225428   5.787   1.220   6.842 -0.2960 -0.0364  0.2364
 1290TIP3    H125429   5.751   1.234   6.930 -1.7702  0.4740 -0.4266
 1290TIP3    H225430   5.727   1.266   6.784  2.3658  2.3829 -0.8219
 1291TIP3   OH225431   5.062   1.145   1.702  0.5015  0.1664 -0.4572
 1291TIP3    H125432   4.986   1.141   1.643  0.2784 -0.2661 -0.1442
 1291TIP3    H225433   5.138   1.140   1.644  0.2963  0.6048 -0.7742
 1292TIP3   OH225434   2.008   4.851   7.788 -0.0931 -0.2066  0.1521
 1292TIP3    H125435   1.990   4.766   7.829  2.1641 -0.0565  1.6186
 1292TIP3    H225436   2.054   4.829   7.706 -1.2907 -0.4081 -0.4891
 1293TIP3   OH225437   2.275   3.192   7.179 -0.5852  0.9137  0.3502
 1293TIP3    H125438   2.274   3.135   7.102  0.1164  3.4720 -1.6539
 1293TIP3    H225439   2.366   3.220   7.187 -0.2729 -0.4920  3.1716
 1294TIP3   OH225440   2.833   2.270   0.586  0.7565 -0.1633  0.1085
 1294TIP3    H125441   2.887   2.196   0.560  1.2142  0.2242 -0.0498
 1294TIP3    H225442   2.794   2.244   0.669 -0.5711 -1.3552 -0.8372
 1295TIP3   OH225443   6.735   3.127   2.070  0.1368  0.0707  0.1310
 1295TIP3    H125444   6.675   3.183   2.119 -0.9890 -0.7507 -0.2805
 1295TIP3    H225445   6.679   3.071   2.016  1.2632 -0.6966 -0.3013
 1296TIP3   OH225446   2.151   5.503   7.920  0.4742  0.1848  0.0527
 1296TIP3    H125447   2.078   5.555   7.955  2.0137  2.1986  0.5029
 1296TIP3    H225448   2.187   5.557   7.850  1.8629 -0.4857  0.2140
 1297TIP3   OH225449   3.785   3.092   0.081 -0.2861  0.0162  0.5717
 1297TIP3    H125450   3.755   3.003   0.062  0.3531 -0.7621  2.8992
 1297TIP3    H225451   3.708   3.135   0.118  0.2159 -0.6528  2.5265
 1298TIP3   OH225452   0.138   2.330   1.353 -0.3492 -0.6489 -0.2089
 1298TIP3    H125453   0.051   2.300   1.381 -0.4594  0.3885  0.6665
 1298TIP3    H225454   0.144   2.305   1.261 -0.7841 -2.4542  0.2213
 1299TIP3   OH225455   4.931   1.577   0.428  0.2248  0.2439  0.0752
 1299TIP3    H125456   4.946   1.490   0.465  2.6092 -0.0305 -1.3545
 1299TIP3    H225457   5.008   1.628   0.454 -0.4703  1.5191 -0.2887
 1300TIP3   OH225458   6.018   2.601   7.800 -0.1360 -0.9440 -0.3789
 1300TIP3    H125459   6.027   2.643   7.714  0.2447 -0.4564 -0.1111
 1300TIP3    H225460   6.106   2.605   7.838 -1.0942  3.5846  2.1638
 1301TIP3   OH225461   5.712   6.708   1.680  0.3256  0.2012  0.2577
 1301TIP3    H125462   5.705   6.693   1.774  0.3700 -1.6083  0.0089
 1301TIP3    H225463   5.622   6.697   1.647  0.3280  0.7182  0.0658
 1302TIP3   OH225464   1.166   6.361   8.063  0.1277  0.4360  0.2869
 1302TIP3    H125465   1.072   6.364   8.046 -0.2039 -2.0165  1.3224
 1302TIP3    H225466   1.178   6.418   8.139 -0.3618  1.3270 -0.2740
 1303TIP3   OH225467   6.212   4.203   6.605 -0.7042 -0.0452 -0.2256
 1303TIP3    H125468   6.205   4.209   6.509  0.6121 -1.7598 -0.4854
 1303TIP3    H225469   6.268   4.127   6.620 -1.0754  0.0413  1.9366
 1304TIP3   OH225470   0.079   6.767   7.749  0.3198 -0.0101  0.3832
 1304TIP3    H125471   0.105   6.749   7.839 -0.1901  1.3058  0.8053
 1304TIP3    H225472   0.003   6.712   7.734  0.3220 -0.1283  0.7977
 1305TIP3   OH225473   5.664   4.690   0.147 -0.0952 -0.3160  0.3192
 1305TIP3    H125474   5.604   4.615   0.151 -2.5329  1.5393  2.7770
 1305TIP3    H225475   5.626   4.746   0.079 -1.9246  1.3020  2.5203
 1306TIP3   OH225476   5.941   2.879   7.183  0.3395  0.1448 -0.1127
 1306TIP3    H125477   5.982   2.939   7.121 -1.0838 -0.1806 -1.4089
 1306TIP3    H225478   5.940   2.928   7.266 -1.1038  2.1094 -1.2114
 1307TIP3   OH225479   3.441   4.267   6.656 -0.1678 -0.3051 -0.2306
 1307TIP3    H125480   3.435   4.337   6.592  1.6528  0.5666  0.4783
 1307TIP3    H225481   3.354   4.263   6.695 -0.6556  0.6940 -1.1576
 1308TIP3   OH225482   4.229   1.083   2.272 -0.1332  0.1211  0.3007
 1308TIP3    H125483   4.290   1.058   2.341  1.8952 -0.0518 -1.4273
 1308TIP3    H225484   4.275   1.152   2.223 -1.0223 -0.4497 -1.4491
 1309TIP3   OH225485   5.402   2.511   6.927  0.3494  0.3618  0.3884
 1309TIP3    H125486   5.456   2.589   6.913  0.3180  0.3193 -0.0003
 1309TIP3    H225487   5.312   2.541   6.910  0.3544  0.2043  0.0802
 1310TIP3   OH225488   4.189   6.301   1.621 -0.3036 -0.2023 -0.1733
 1310TIP3    H125489   4.153   6.371   1.675 -0.4566  0.2060 -0.8017
 1310TIP3    H225490   4.142   6.222   1.650 -0.4793  0.0347  0.1974
 1311TIP3   OH225491   2.071   2.117   6.654  0.2132  0.3280  0.2901
 1311TIP3    H125492   2.028   2.032   6.665 -0.4578  0.3347 -1.7466
 1311TIP3    H225493   2.010   2.180   6.691  0.5015 -0.0259  1.3894
 1312TIP3   OH225494   1.278   5.200   8.781 -0.2199 -0.6953 -0.1131
 1312TIP3    H125495   1.277   5.294   8.762  2.8428 -0.7327 -1.0995
 1312TIP3    H225496   1.203   5.165   8.734 -0.3811  1.0527 -1.2576
 1313TIP3   OH225497   3.512   0.068   0.303  0.2287 -0.2638 -0.2338
 1313TIP3    H125498   3.472  -0.012   0.270  0.5128 -0.3976 -0.2606
 1313TIP3    H225499   3.451   0.100   0.370 -1.0737  0.7877 -1.8427
 1314TIP3   OH225500   3.128   1.628   7.022  0.5099  0.1760  0.1054
 1314TIP3    H125501   3.198   1.694   7.025  0.2784  0.4180  0.1372
 1314TIP3    H225502   3.174   1.545   7.036  0.6984  0.4014  0.9337
 1315TIP3   OH225503   5.777   4.279   7.278 -0.3886 -0.3317  0.0592
 1315TIP3    H125504   5.718   4.322   7.339 -0.1310  1.2290 -0.7355
 1315TIP3    H225505   5.740   4.298   7.191  0.1274 -1.1254 -0.3501
 1316TIP3   OH225506   6.055   5.541   1.335 -0.5028  0.5077  0.2732
 1316TIP3    H125507   6.010   5.549   1.420  1.4820  1.0546  1.3240
 1316TIP3    H225508   6.108   5.463   1.343  2.6046  2.5233  1.0609
 1317TIP3   OH225509   6.584   1.876   8.560  0.8851 -0.2784  0.5442
 1317TIP3    H125510   6.660   1.875   8.502 -0.3619 -0.1013 -1.1694
 1317TIP3    H225511   6.594   1.796   8.613  0.6671 -2.0616 -1.8982
 1318TIP3   OH225512   1.499   2.915   1.350  0.1184  0.1530  0.1714
 1318TIP3    H125513   1.459   2.935   1.266  0.7149  2.9282  0.4508
 1318TIP3    H225514   1.564   2.848   1.330 -0.3607  0.1260 -1.4111
 1319TIP3   OH225515   5.874   5.304   8.648  0.4753 -0.0691  0.2923
 1319TIP3    H125516   5.831   5.335   8.568  1.3167 -0.1021 -0.1847
 1319TIP3    H225517   5.928   5.231   8.619 -0.3622 -1.0638  1.1583
 1320TIP3   OH225518   4.428   4.504   7.542 -0.4877  0.2589  0.1310
 1320TIP3    H125519   4.428   4.480   7.634 -1.8844  0.6878  0.2776
 1320TIP3    H225520   4.519   4.523   7.521 -0.0963 -0.2781  1.3002
 1321TIP3   OH225521   6.212   3.530   1.318  0.7072  0.1990  0.1674
 1321TIP3    H125522   6.246   3.616   1.345 -0.5342  1.4149 -1.9098
 1321TIP3    H225523   6.118   3.542   1.311  0.2076 -2.0120  1.9674
 1322TIP3   OH225524   2.311   6.794   2.416  0.1972 -0.7661 -0.4079
 1322TIP3    H125525   2.405   6.782   2.431 -0.0623 -2.8777 -0.1338
 1322TIP3    H225526   2.292   6.739   2.341 -0.9039 -0.6618 -0.2134
 1323TIP3   OH225527   5.146   4.929   8.800 -0.1059  0.5474 -0.1909
 1323TIP3    H125528   5.119   5.014   8.765  0.2649  0.5632 -0.4492
 1323TIP3    H225529   5.230   4.947   8.842  0.6338  0.0519 -1.4042
 1324TIP3   OH225530   5.965   2.519   1.003  0.7351  0.6053  0.4498
 1324TIP3    H125531   5.951   2.556   0.916 -2.3596 -1.8948 -0.3157
 1324TIP3    H225532   6.019   2.441   0.988  0.6269  0.4535  0.8412
 1325TIP3   OH225533   6.511   6.382   8.666 -0.9265 -0.0503 -0.4502
 1325TIP3    H125534   6.421   6.360   8.689 -0.5483 -1.4803 -0.2724
 1325TIP3    H225535   6.503   6.449   8.598 -2.1536 -1.4141 -1.6915
 1326TIP3   OH225536   2.306   3.819   7.550 -0.1546  0.0568  0.1575
 1326TIP3    H125537   2.236   3.787   7.607  1.3603 -3.3596  0.3698
 1326TIP3    H225538   2.280   3.792   7.462  0.9202 -1.4942  0.2714
 1327TIP3   OH225539   4.073   6.491   6.794  0.0397 -0.4780 -0.0239
 1327TIP3    H125540   4.116   6.417   6.752  0.5070  0.7125 -1.7622
 1327TIP3    H225541   4.105   6.568   6.746 -2.2961  0.6593  0.0841
 1328TIP3   OH225542   4.526   4.622   8.685  0.2524 -0.1630 -0.4350
 1328TIP3    H125543   4.544   4.694   8.745  1.6202  0.3249 -1.3849
 1328TIP3    H225544   4.476   4.662   8.614 -1.2360 -0.7106  0.2494
 1329TIP3   OH225545   1.605   1.658   7.015  0.5178 -0.3433 -0.4115
 1329TIP3    H125546   1.514   1.665   7.044  0.4038 -0.2659 -0.7799
 1329TIP3    H225547   1.599   1.621   6.927  0.7723  0.7153 -0.8951
 1330TIP3   OH225548   3.128   5.319   8.636  0.7462 -0.6896 -0.2646
 1330TIP3    H125549   3.140   5.283   8.724 -2.9134 -0.9296  0.2780
 1330TIP3    H225550   3.186   5.395   8.634  2.8626 -2.1289  1.3537
 1331TIP3   OH225551   6.350   6.025   6.308  0.0360 -0.3208 -0.8612
 1331TIP3    H125552   6.327   5.946   6.357  0.7814  0.1094  0.2424
 1331TIP3    H225553   6.295   6.023   6.230  0.0682 -1.9449 -0.8692
 1332TIP3   OH225554   5.495   2.761   6.857 -0.3561 -0.3551  0.5640
 1332TIP3    H125555   5.563   2.784   6.921  0.8876  0.7912 -1.0679
 1332TIP3    H225556   5.414   2.797   6.894  0.3169  0.2494  1.4937
 1333TIP3   OH225557   3.102   4.301   0.116 -0.0441 -0.3388 -0.4041
 1333TIP3    H125558   3.038   4.372   0.114 -0.9649 -1.1098  0.3623
 1333TIP3    H225559   3.051   4.222   0.095  0.7231 -0.9170 -0.1532
 1334TIP3   OH225560   1.720   1.563   0.252 -0.3218  0.1847 -0.1626
 1334TIP3    H125561   1.733   1.540   0.161 -1.9554 -0.4258 -0.2787
 1334TIP3    H225562   1.629   1.595   0.256 -0.8171 -1.2723  1.4970
 1335TIP3   OH225563   1.407   1.388   0.754 -0.0005  0.6260 -0.6974
 1335TIP3    H125564   1.422   1.393   0.849  1.7969 -1.0125 -0.8364
 1335TIP3    H225565   1.330   1.444   0.739 -0.8830  0.2374  1.8431
 1336TIP3   OH225566   3.555   0.832   7.712  0.5121 -0.2948  0.0157
 1336TIP3    H125567   3.565   0.737   7.723  0.3621 -0.2870  0.2336
 1336TIP3    H225568   3.620   0.855   7.645  1.0970 -0.4331  0.5216
 1337TIP3   OH225569   4.255   5.521   2.231 -0.2574  0.3082  0.2286
 1337TIP3    H125570   4.290   5.591   2.287 -1.0840 -0.6508  2.0092
 1337TIP3    H225571   4.207   5.568   2.162  0.1240  1.5051  0.7463
 1338TIP3   OH225572   1.903   3.598   7.470 -0.1100  0.3697 -0.3451
 1338TIP3    H125573   1.879   3.683   7.507 -1.2182 -0.0559 -0.0636
 1338TIP3    H225574   1.910   3.614   7.375  0.8643  1.0240 -0.1875
 1339TIP3   OH225575   5.383   0.947   8.620 -0.3516  0.3818  0.0444
 1339TIP3    H125576   5.297   0.924   8.584 -2.1373  3.0056  2.1813
 1339TIP3    H225577   5.401   0.879   8.685 -0.7477 -0.2426 -0.4847
 1340TIP3   OH225578   5.680   3.416   7.764 -0.0845 -0.4768  0.7849
 1340TIP3    H125579   5.741   3.391   7.833  0.3017 -1.4130  0.1176
 1340TIP3    H225580   5.708   3.366   7.687  2.2713  3.6634 -1.3816
 1341TIP3   OH225581   3.373   1.674   1.910  0.4017  0.1579 -0.1137
 1341TIP3    H125582   3.389   1.714   1.995  0.1066 -0.0521  0.0440
 1341TIP3    H225583   3.280   1.688   1.894  0.4254  0.0682 -0.3325
 1342TIP3   OH225584   1.300   0.977   7.457 -0.3967  0.2661 -0.1464
 1342TIP3    H125585   1.364   1.035   7.415 -0.6875 -0.6560 -1.9567
 1342TIP3    H225586   1.229   0.969   7.393 -1.1267 -0.7817  0.7557
 1343TIP3   OH225587   2.130   6.001   6.576 -0.5643  1.0490  0.6169
 1343TIP3    H125588   2.055   5.943   6.565 -0.4314  0.7311  1.3433
 1343TIP3    H225589   2.204   5.943   6.589 -0.2861  1.3744  0.5225
 1344TIP3   OH225590   6.452   4.996   0.341 -0.1129 -0.0748  0.1371
 1344TIP3    H125591   6.444   5.074   0.287  1.0893  1.8374  2.5456
 1344TIP3    H225592   6.535   4.956   0.314  0.2940  0.6554  0.2903
 1345TIP3   OH225593   2.181   0.139   1.325 -0.2754 -0.5150  0.4067
 1345TIP3    H125594   2.219   0.053   1.344  0.0753 -0.2756  0.8062
 1345TIP3    H225595   2.255   0.200   1.329 -0.1343 -0.4400 -1.8185
 1346TIP3   OH225596   1.591   4.996   7.276 -0.0843 -0.7849  0.1930
 1346TIP3    H125597   1.528   5.024   7.210  0.0744 -1.0293 -0.0648
 1346TIP3    H225598   1.650   4.937   7.230  1.3917  0.7613 -0.0211
 1347TIP3   OH225599   4.877   2.483   7.319 -0.0147  0.6126  0.0046
 1347TIP3    H125600   4.796   2.449   7.283 -0.4095  1.0605  0.4602
 1347TIP3    H225601   4.944   2.419   7.292 -0.0077  1.6636 -2.7409
 1348TIP3   OH225602   4.320   3.771   1.641  0.2982  0.6165 -0.6385
 1348TIP3    H125603   4.303   3.806   1.729  1.7253 -2.0849  0.8424
 1348TIP3    H225604   4.236   3.777   1.596 -0.9561  0.4740  1.5376
 1349TIP3   OH225605   1.994   2.529   1.867 -0.1446  0.0487  0.1906
 1349TIP3    H125606   2.020   2.581   1.943 -3.1166  0.9696  0.6960
 1349TIP3    H225607   2.019   2.439   1.890  0.5499  0.5452  1.4774
 1350TIP3   OH225608   4.771   2.081   7.266 -0.0172  0.2852  0.8625
 1350TIP3    H125609   4.706   2.014   7.244 -0.4789  0.6699  1.0545
 1350TIP3    H225610   4.769   2.142   7.192 -0.4736  0.7487  1.2530
 1351TIP3   OH225611   6.106   3.220   8.071 -0.2076 -0.0470  0.1917
 1351TIP3    H125612   6.114   3.137   8.117 -1.8703 -0.6808 -0.5632
 1351TIP3    H225613   6.181   3.222   8.011  0.7762 -0.1894  1.3905
 1352TIP3   OH225614   5.216   4.676   7.850 -0.3623 -0.0644  0.1347
 1352TIP3    H125615   5.261   4.749   7.892 -1.0800  0.8210 -0.6046
 1352TIP3    H225616   5.235   4.686   7.757 -2.5388  0.6944 -0.2795
 1353TIP3   OH225617   4.310   4.326   1.543 -0.1371  0.0550  0.3658
 1353TIP3    H125618   4.335   4.304   1.453  0.4944 -0.5906  0.6853
 1353TIP3    H225619   4.393   4.341   1.588 -0.4733  0.9365  0.7137
 1354TIP3   OH225620   4.418   1.725   1.149 -0.4176  0.0975  0.4883
 1354TIP3    H125621   4.435   1.646   1.201  2.5589  0.7427  0.7019
 1354TIP3    H225622   4.337   1.761   1.186  0.4158 -0.6158  3.2909
 1355TIP3   OH225623   3.594   4.857   8.671 -0.4850 -0.1954  0.2593
 1355TIP3    H125624   3.642   4.938   8.686 -1.3981  0.0587  2.0437
 1355TIP3    H225625   3.502   4.884   8.662 -0.7608 -1.0017  0.5655
 1356TIP3   OH225626   1.215   2.711   1.741  0.0842  0.0758  0.5137
 1356TIP3    H125627   1.162   2.699   1.662  1.0036  0.7093 -0.2209
 1356TIP3    H225628   1.173   2.654   1.806 -1.0925  0.0555 -0.2226
 1357TIP3   OH225629   6.354   5.845   8.833  0.2404  0.1858 -0.2917
 1357TIP3    H125630   6.327   5.850   8.741  0.0737 -0.5097 -0.2882
 1357TIP3    H225631   6.304   5.771   8.868  0.5860  0.2134  0.2660
 1358TIP3   OH225632   4.017   2.541   8.800  0.5915  0.6903 -0.5664
 1358TIP3    H125633   4.094   2.581   8.840 -0.7593  2.2373  0.6160
 1358TIP3    H225634   4.013   2.579   8.712  1.8300 -0.3541 -1.1120
 1359TIP3   OH225635   2.986   1.164   7.185 -0.2921  0.1882  0.3756
 1359TIP3    H125636   2.927   1.231   7.150 -0.2705 -0.2200 -0.4530
 1359TIP3    H225637   2.928   1.102   7.229 -0.6495 -0.9036 -1.5414
 1360TIP3   OH225638   0.674   3.900   7.406  0.8379  0.5277 -0.0747
 1360TIP3    H125639   0.666   3.814   7.448  1.8069 -0.2993 -1.4747
 1360TIP3    H225640   0.610   3.898   7.335 -0.7084  1.8630  1.2172
 1361TIP3   OH225641   5.671   4.235   0.638  0.0553  0.0492  0.1615
 1361TIP3    H125642   5.699   4.171   0.572  0.0958  1.0128 -0.7711
 1361TIP3    H225643   5.596   4.279   0.599  1.9123  2.7593 -0.6197
 1362TIP3   OH225644   0.658   6.234   1.280  0.4236  0.1681  0.4149
 1362TIP3    H125645   0.717   6.260   1.350  0.4792  0.3929  0.2848
 1362TIP3    H225646   0.661   6.306   1.217  0.2714  0.0294  0.2451
 1363TIP3   OH225647   4.114   0.444   7.681  0.5025 -0.4079 -0.2762
 1363TIP3    H125648   4.194   0.425   7.730  1.0110 -0.6910 -1.1919
 1363TIP3    H225649   4.140   0.510   7.617 -0.4663  0.9536  0.6639
 1364TIP3   OH225650   6.489   5.126   2.559  0.1875 -0.0094  0.2416
 1364TIP3    H125651   6.570   5.177   2.566 -1.3808  2.5554  1.7433
 1364TIP3    H225652   6.484   5.078   2.641 -0.9778  1.9437  1.4102
 1365TIP3   OH225653   6.347   4.707   7.561  0.2522 -0.6054  0.0672
 1365TIP3    H125654   6.258   4.714   7.596  1.0084 -0.4618  2.0726
 1365TIP3    H225655   6.403   4.732   7.634  1.9535 -0.6216 -1.1865
 1366TIP3   OH225656   1.492   5.693   0.097  0.6041  0.5073  0.0178
 1366TIP3    H125657   1.398   5.676   0.087  0.5087  0.0156  1.4519
 1366TIP3    H225658   1.499   5.788   0.103 -0.2375  0.4796  3.1162
 1367TIP3   OH225659   0.915   0.846   8.847  0.2772 -0.5715 -0.4124
 1367TIP3    H125660   0.915   0.940   8.861 -0.3894 -0.8122  1.4406
 1367TIP3    H225661   0.857   0.832   8.772 -1.2732  0.3324  0.5880
 1368TIP3   OH225662   4.354   1.262   7.635  0.0355 -0.0206  0.1368
 1368TIP3    H125663   4.267   1.287   7.667  0.3723  0.5658  0.6264
 1368TIP3    H225664   4.337   1.203   7.562 -0.8297  1.8374 -1.2500
 1369TIP3   OH225665   2.102   6.161   1.956  0.3488 -0.9034  0.6588
 1369TIP3    H125666   2.156   6.121   1.888  0.2265  0.4419 -0.2689
 1369TIP3    H225667   2.057   6.233   1.912  0.0148 -0.1867  2.0984
 1370TIP3   OH225668   0.142   5.251   7.012  0.1481 -0.0210  0.0044
 1370TIP3    H125669   0.095   5.169   7.026  2.4306 -1.8509 -2.1306
 1370TIP3    H225670   0.108   5.285   6.928 -0.2285  0.8605  0.4914
 1371TIP3   OH225671   2.713   2.184   8.538  0.1853 -0.5952  0.0698
 1371TIP3    H125672   2.753   2.268   8.564 -1.7798  0.6934 -0.8637
 1371TIP3    H225673   2.787   2.132   8.507  1.3746  1.1290 -0.1829
 1372TIP3   OH225674   5.179   1.266   8.583 -0.0491  0.0556  0.5603
 1372TIP3    H125675   5.109   1.303   8.636  0.1555  1.3022 -0.0133
 1372TIP3    H225676   5.134   1.206   8.523 -0.7062  1.1210 -0.0512
 1373TIP3   OH225677   5.005   0.336   8.505  0.0592  0.3882 -0.1470
 1373TIP3    H125678   5.000   0.330   8.600  2.0563 -2.1673 -0.0774
 1373TIP3    H225679   5.065   0.409   8.489  2.8420 -1.5234  0.8155
 1374TIP3   OH225680   4.544   6.246   8.056 -0.0402  0.2649 -0.0472
 1374TIP3    H125681   4.515   6.336   8.041 -0.4225 -0.0649 -1.5160
 1374TIP3    H225682   4.633   6.243   8.021  0.0915  0.1616  0.2993
 1375TIP3   OH225683   2.494   4.150   0.037 -0.0086  0.2161  0.1315
 1375TIP3    H125684   2.468   4.067  -0.003  2.0562 -1.4627  2.0417
 1375TIP3    H225685   2.417   4.177   0.086 -0.8756 -0.2880 -0.8999
 1376TIP3   OH225686   6.115   1.873   0.405  0.2520  0.3444  0.5160
 1376TIP3    H125687   6.093   1.809   0.473 -0.0415  1.3226  1.3647
 1376TIP3    H225688   6.075   1.838   0.325 -0.2967 -0.3050  1.0652
 1377TIP3   OH225689   2.611   6.531   8.074  0.0383 -0.0954  0.3266
 1377TIP3    H125690   2.578   6.603   8.127  1.5640  0.9743 -0.1144
 1377TIP3    H225691   2.581   6.551   7.985  0.4080 -0.0407  0.2148
 1378TIP3   OH225692   1.785   1.998   2.026 -0.4432  0.2494 -0.1579
 1378TIP3    H125693   1.843   2.069   2.053  1.2780 -0.5464 -1.5672
 1378TIP3    H225694   1.721   2.039   1.968 -0.2973  0.8645  0.1094
 1379TIP3   OH225695   6.581   6.122   1.661  0.0907  0.7547 -0.4537
 1379TIP3    H125696   6.641   6.081   1.599  1.2981 -0.9152  1.6645
 1379TIP3    H225697   6.510   6.059   1.670  0.5960  0.3218  0.7838
 1380TIP3   OH225698   0.508   4.169   0.829  0.0091 -0.0199  0.2399
 1380TIP3    H125699   0.472   4.179   0.740  0.8313  2.1455  0.0788
 1380TIP3    H225700   0.589   4.220   0.827 -0.0818  0.2669  2.3106
 1381TIP3   OH225701   3.376   0.687   0.509  0.0580 -0.2581 -0.5015
 1381TIP3    H125702   3.408   0.670   0.420 -1.2122  1.8310 -1.4346
 1381TIP3    H225703   3.419   0.768   0.534  0.7120 -1.0349  1.0157
 1382TIP3   OH225704   3.265   2.809   8.111  0.3570  0.1041 -0.4318
 1382TIP3    H125705   3.291   2.835   8.199 -0.5132  0.3235 -0.2351
 1382TIP3    H225706   3.226   2.887   8.072 -4.0595 -1.1917  0.8365
 1383TIP3   OH225707   5.632   5.092   0.287 -0.2234 -0.4377 -0.5903
 1383TIP3    H125708   5.669   5.072   0.374  0.1553 -2.5738 -1.1797
 1383TIP3    H225709   5.559   5.030   0.278 -1.1708  0.7436 -1.2468
 1384TIP3   OH225710   4.824   5.024   1.261 -0.5764  0.0235 -0.1263
 1384TIP3    H125711   4.903   4.970   1.254 -0.0879  0.8776 -1.9056
 1384TIP3    H225712   4.762   4.984   1.201 -1.0870  0.0171  0.4055
 1385TIP3   OH225713   4.309   2.732   8.197  0.2195  0.2742 -0.4061
 1385TIP3    H125714   4.331   2.640   8.213  0.6483  0.7677  2.3437
 1385TIP3    H225715   4.358   2.755   8.118  1.0379 -1.5181 -0.4744
 1386TIP3   OH225716   5.365   5.872   8.608 -0.0490 -0.0505  0.5037
 1386TIP3    H125717   5.329   5.784   8.597  0.5430 -0.2558  0.1424
 1386TIP3    H225718   5.407   5.891   8.524 -2.9058  1.8786 -0.6484
 1387TIP3   OH225719   2.877   5.714   1.568  0.3496  0.0857  0.7973
 1387TIP3    H125720   2.942   5.676   1.627  0.6233 -1.5593 -0.4983
 1387TIP3    H225721   2.816   5.642   1.550  0.4848  0.4106 -1.1976
 1388TIP3   OH225722   5.198   2.160   6.472  0.1489 -0.2372  0.1957
 1388TIP3    H125723   5.275   2.175   6.527 -0.4560  0.1171  0.9762
 1388TIP3    H225724   5.205   2.226   6.403  0.5489 -0.2115  0.2574
 1389TIP3   OH225725   5.901   1.791   7.853  0.5177 -0.5011  0.0634
 1389TIP3    H125726   5.934   1.861   7.797 -0.7193 -0.2627 -0.3852
 1389TIP3    H225727   5.957   1.795   7.931  2.0338 -0.6270 -0.9835
 1390TIP3   OH225728   0.543   4.197   1.240  0.0187 -0.0205 -0.0018
 1390TIP3    H125729   0.638   4.189   1.250  0.0542  1.4963  1.3019
 1390TIP3    H225730   0.531   4.281   1.195 -0.7222  0.6076  1.3164
 1391TIP3   OH225731   4.633   2.404   7.558  0.3160 -0.2041  0.4288
 1391TIP3    H125732   4.721   2.375   7.583  0.4337 -0.8422 -0.6554
 1391TIP3    H225733   4.618   2.363   7.473 -1.6606 -1.4275  1.2920
 1392TIP3   OH225734   4.218   0.654   2.137 -0.1195 -0.5868 -0.1775
 1392TIP3    H125735   4.274   0.585   2.173  1.2598 -0.3871 -1.8369
 1392TIP3    H225736   4.157   0.608   2.080 -0.5149 -0.6200  0.2647
 1393TIP3   OH225737   2.329   1.604   7.638 -0.3345 -0.2750 -0.1480
 1393TIP3    H125738   2.345   1.511   7.655  0.2201 -0.5668 -2.0277
 1393TIP3    H225739   2.411   1.647   7.661  0.3653 -0.6465 -1.8059
 1394TIP3   OH225740   3.707   2.962   1.449  0.2815 -0.0628 -0.1294
 1394TIP3    H125741   3.704   2.920   1.535 -0.8405  2.1794  1.0093
 1394TIP3    H225742   3.744   3.048   1.466 -0.6337  0.6905 -1.7739
 1395TIP3   OH225743   5.999   0.624   7.271 -0.1776  0.5681 -0.1637
 1395TIP3    H125744   5.925   0.582   7.314  2.3340 -2.0897  2.0125
 1395TIP3    H225745   6.022   0.698   7.327 -0.1816  0.3584  0.1167
 1396TIP3   OH225746   2.605   0.648   0.761  0.2490  0.1513  0.3927
 1396TIP3    H125747   2.684   0.686   0.800  0.7050 -0.5433  0.1829
 1396TIP3    H225748   2.543   0.720   0.756  0.5086  0.4829  1.5184
 1397TIP3   OH225749   6.470   3.786   8.198 -0.2330  0.0710  0.0996
 1397TIP3    H125750   6.495   3.704   8.241  0.3116  0.1134 -0.1336
 1397TIP3    H225751   6.444   3.843   8.270 -2.6022 -0.9480  0.1571
 1398TIP3   OH225752   1.250   6.567   8.254 -0.2405 -0.2256 -0.0074
 1398TIP3    H125753   1.324   6.627   8.241 -1.0218  0.7487 -0.0695
 1398TIP3    H225754   1.290   6.486   8.285  1.0253 -0.2884 -1.6904
 1399TIP3   OH225755   5.504   5.329   0.226 -0.5306 -0.0894 -0.1243
 1399TIP3    H125756   5.557   5.342   0.147  3.0899  1.8166  2.3424
 1399TIP3    H225757   5.544   5.253   0.270  1.3041  2.1768  2.4406
 1400TIP3   OH225758   1.588   0.349   6.553  0.4206 -0.2377  0.2102
 1400TIP3    H125759   1.540   0.377   6.476  1.4915 -0.1468 -0.4405
 1400TIP3    H225760   1.616   0.260   6.533 -0.0820 -0.5582  0.8830
 1401TIP3   OH225761   4.941   2.182   7.456 -0.1405 -0.0448  0.2378
 1401TIP3    H125762   4.920   2.162   7.547  0.6844 -0.2984  0.3849
 1401TIP3    H225763   4.874   2.138   7.405 -1.7081  1.5744  0.7650
 1402TIP3   OH225764   0.743   5.009   2.075 -0.0708  0.1979  0.3793
 1402TIP3    H125765   0.666   4.979   2.028 -0.1350  0.8533  0.0598
 1402TIP3    H225766   0.814   4.955   2.042 -0.3397 -0.2047  0.4589
 1403TIP3   OH225767   3.681   2.045   1.264  0.0701  0.7498  0.5805
 1403TIP3    H125768   3.620   2.013   1.197  1.1124  2.3472 -1.2504
 1403TIP3    H225769   3.645   2.129   1.292  1.1358  1.4939 -0.1874
 1404TIP3   OH225770   6.006   6.712   0.131  0.5530  0.1462  0.7000
 1404TIP3    H125771   6.100   6.693   0.136  0.6392  0.5071  0.4357
 1404TIP3    H225772   5.965   6.635   0.170  0.9588 -0.0054  0.8401
 1405TIP3   OH225773   4.130   4.180   8.740 -0.4674 -0.0767  0.1996
 1405TIP3    H125774   4.207   4.158   8.687 -0.6306 -0.0208 -0.0625
 1405TIP3    H225775   4.075   4.101   8.736 -0.9994  0.3226 -0.6458
 1406TIP3   OH225776   3.021   5.237   7.148  0.1765  0.0288  0.4150
 1406TIP3    H125777   3.080   5.312   7.132  0.1221  0.4627  2.0468
 1406TIP3    H225778   2.964   5.266   7.219 -1.4848 -0.7027 -0.5674
 1407TIP3   OH225779   3.341   3.928   0.511 -0.8890 -0.6281  0.2310
 1407TIP3    H125780   3.347   4.017   0.546 -1.0700 -0.2324 -0.7085
 1407TIP3    H225781   3.370   3.936   0.420  0.3215 -1.7739  0.4906
 1408TIP3   OH225782   5.938   3.546   1.433  0.5156 -0.0863  0.1352
 1408TIP3    H125783   5.885   3.603   1.488 -0.0126 -0.3444 -0.0913
 1408TIP3    H225784   5.905   3.561   1.344 -0.0986 -1.2228  0.1480
 1409TIP3   OH225785   5.848   6.797   8.423  0.0670  0.2830 -0.0308
 1409TIP3    H125786   5.798   6.798   8.505 -0.1143  0.2771 -0.1423
 1409TIP3    H225787   5.809   6.726   8.372  0.1962  0.2714 -0.1148
 1410TIP3   OH225788   4.968   4.483   2.123  0.2371  0.0384 -0.8809
 1410TIP3    H125789   5.000   4.422   2.190  0.8436 -1.4198 -2.4180
 1410TIP3    H225790   4.873   4.480   2.131  0.3062  0.7902  0.6466
 1411TIP3   OH225791   2.998   2.725   1.826 -0.3057  0.9096 -0.0377
 1411TIP3    H125792   3.005   2.763   1.739  1.1877  0.8614  0.0377
 1411TIP3    H225793   2.976   2.799   1.882 -2.1794  0.7846 -0.5557
 1412TIP3   OH225794   1.514   2.799   8.577 -0.4903 -0.0780 -0.0985
 1412TIP3    H125795   1.548   2.884   8.608  0.1749  0.6255 -2.5516
 1412TIP3    H225796   1.592   2.745   8.566 -0.4660  0.3209 -2.2312
 1413TIP3   OH225797   6.064   2.391   7.036 -0.8944 -0.2895  0.0894
 1413TIP3    H125798   6.134   2.446   7.071 -2.0181  1.3225 -0.0765
 1413TIP3    H225799   6.079   2.391   6.941 -0.7953 -0.3937  0.1059
 1414TIP3   OH225800   4.812   3.566   0.680  0.1678  0.3589  0.3253
 1414TIP3    H125801   4.871   3.490   0.687 -1.6821 -1.1745  0.1570
 1414TIP3    H225802   4.835   3.606   0.596  0.6778 -0.4900  0.0409
 1415TIP3   OH225803   0.252   3.263   0.669 -0.3478 -0.2534  0.2001
 1415TIP3    H125804   0.269   3.252   0.575  0.6028 -0.3291  0.3695
 1415TIP3    H225805   0.157   3.276   0.675 -0.4653 -0.5837 -0.7372
 1416TIP3   OH225806   3.872   1.921   7.464  0.4237 -0.0630 -0.0175
 1416TIP3    H125807   3.824   1.959   7.391  1.3140 -1.9941 -1.7191
 1416TIP3    H225808   3.950   1.976   7.474  0.7423 -0.2978 -1.1399
 1417TIP3   OH225809   1.311   4.292   8.569 -0.2485 -0.2056  0.2229
 1417TIP3    H125810   1.266   4.350   8.508 -0.3248 -0.7157 -0.2119
 1417TIP3    H225811   1.360   4.232   8.513 -0.5873 -0.8886  0.6534
 1418TIP3   OH225812   4.084   3.949   0.207  0.3104 -0.7224 -0.7625
 1418TIP3    H125813   4.106   3.935   0.299  2.0917 -0.5231 -1.1242
 1418TIP3    H225814   4.159   3.998   0.172 -0.4866 -0.5211 -2.2474
 1419TIP3   OH225815   1.096   6.748   8.092  0.6838  1.1458  0.3541
 1419TIP3    H125816   1.156   6.725   8.021 -0.7842 -2.1406 -0.0228
 1419TIP3    H225817   1.129   6.699   8.168 -0.4449  0.7168  0.5933
 1420TIP3   OH225818   1.612   1.013   6.362  0.1582  0.1930  0.2819
 1420TIP3    H125819   1.537   1.039   6.309  0.0294  1.7343  1.1626
 1420TIP3    H225820   1.613   0.917   6.358 -2.6149  0.0464  1.2594
 1421TIP3   OH225821   2.945   5.907   7.082 -0.2803  0.3791 -0.0461
 1421TIP3    H125822   3.022   5.860   7.051 -1.2689 -0.8231 -0.7655
 1421TIP3    H225823   2.898   5.843   7.136 -0.0259  1.5651  1.6643
 1422TIP3   OH225824   1.355   4.234   1.287 -0.0271  0.3987  0.0735
 1422TIP3    H125825   1.364   4.325   1.315  0.3731  0.2978  0.2825
 1422TIP3    H225826   1.435   4.192   1.318 -0.1760 -0.0069 -0.0913
 1423TIP3   OH225827   2.099   0.616   1.769  0.1027 -0.2260  0.3518
 1423TIP3    H125828   2.131   0.703   1.793 -0.6971  0.4706 -0.9849
 1423TIP3    H225829   2.137   0.557   1.834  1.7594  0.9321  0.4870
 1424TIP3   OH225830   1.417   0.266   1.695  0.2398  0.3281 -0.4010
 1424TIP3    H125831   1.388   0.177   1.712  1.4655  0.3487  2.3834
 1424TIP3    H225832   1.498   0.275   1.744  0.2992  2.9042 -0.8033
 1425TIP3   OH225833   1.307   6.375   0.674 -0.2332 -0.3860 -0.8022
 1425TIP3    H125834   1.298   6.469   0.657 -0.5831 -0.3613 -0.4917
 1425TIP3    H225835   1.218   6.345   0.687  0.0294 -0.2748  1.6270
 1426TIP3   OH225836   6.321   5.432   1.557  0.2415 -0.3683 -0.2331
 1426TIP3    H125837   6.237   5.430   1.603 -0.3896  1.6414 -1.1722
 1426TIP3    H225838   6.378   5.484   1.614 -0.6205  2.3607 -1.6762
 1427TIP3   OH225839   2.453   2.506   7.576 -0.2886  0.1314  0.3233
 1427TIP3    H125840   2.396   2.566   7.529  0.8117  0.7067 -0.3090
 1427TIP3    H225841   2.471   2.435   7.514 -0.3204 -0.0504  0.5185
 1428TIP3   OH225842   3.261   4.274   2.072 -0.3118  0.5511 -0.3194
 1428TIP3    H125843   3.172   4.264   2.108 -0.3675  0.1835 -0.5494
 1428TIP3    H225844   3.294   4.185   2.066  0.7086  0.7877  1.3226
 1429TIP3   OH225845   4.699   3.870   6.710  0.2031  0.2571  0.7498
 1429TIP3    H125846   4.785   3.909   6.727 -0.7196  1.0124  4.6468
 1429TIP3    H225847   4.719   3.782   6.678  2.3783  1.0189 -0.1590
 1430TIP3   OH225848   0.520   1.969   0.415  0.0923 -0.0487  0.3655
 1430TIP3    H125849   0.454   2.017   0.465 -0.0765 -0.0277  0.1265
 1430TIP3    H225850   0.597   2.025   0.418  0.6779 -0.8588  2.1285
 1431TIP3   OH225851   4.734   5.898   7.711 -0.0226  0.3421  0.8032
 1431TIP3    H125852   4.817   5.922   7.670 -0.5020  0.8738  0.1040
 1431TIP3    H225853   4.688   5.982   7.722 -0.7447 -0.0038  0.5352
 1432TIP3   OH225854   4.281   1.594   2.573 -0.1369 -0.2776 -0.3396
 1432TIP3    H125855   4.220   1.649   2.623  0.3428 -1.3876  1.5735
 1432TIP3    H225856   4.356   1.651   2.555  0.0404 -0.0574  0.9844
 1433TIP3   OH225857   6.609   0.192   2.061  0.1825 -0.2033  0.5831
 1433TIP3    H125858   6.653   0.107   2.057  0.2956 -0.2177  1.6378
 1433TIP3    H225859   6.673   0.249   2.105  0.9899  1.0297 -1.9817
 1434TIP3   OH225860   1.228   3.296   7.203 -0.6545  0.2351  0.8079
 1434TIP3    H125861   1.318   3.329   7.212  0.8513 -2.4584 -2.3416
 1434TIP3    H225862   1.183   3.366   7.156  1.3639 -0.3601 -2.2784
 1435TIP3   OH225863   4.295   0.446   7.995  0.2796 -0.0249  0.0510
 1435TIP3    H125864   4.291   0.542   7.991  0.7969 -0.0358 -1.8689
 1435TIP3    H225865   4.346   0.421   7.918 -1.5341 -1.9453 -0.6313
 1436TIP3   OH225866   0.337   2.774   2.308 -0.6317 -0.2151 -0.3669
 1436TIP3    H125867   0.391   2.731   2.375 -0.2380  0.3359 -0.3257
 1436TIP3    H225868   0.356   2.725   2.228  1.7329  1.3383 -0.8841
 1437TIP3   OH225869   5.448   1.233   8.583 -0.0266 -0.3155  0.1289
 1437TIP3    H125870   5.357   1.262   8.580 -0.1676 -0.8117 -0.7096
 1437TIP3    H225871   5.442   1.139   8.604  0.2637 -0.4632 -0.4491
 1438TIP3   OH225872   6.773   4.934   1.838  0.1475  0.0122  0.0315
 1438TIP3    H125873   6.742   5.024   1.847 -1.2247 -0.0543 -2.8559
 1438TIP3    H225874   6.694   4.881   1.842  0.7159 -0.8774 -0.2469
 1439TIP3   OH225875   5.056   5.209   8.445 -0.0874 -0.1180  0.2763
 1439TIP3    H125876   5.005   5.280   8.484 -1.0343  0.2389 -1.4817
 1439TIP3    H225877   5.002   5.179   8.371  1.1125 -1.4682 -0.0970
 1440TIP3   OH225878   3.316   1.769   0.460  0.5028  0.4797 -0.3182
 1440TIP3    H125879   3.382   1.713   0.501 -0.7630 -0.4845  0.5100
 1440TIP3    H225880   3.365   1.843   0.424  2.1499 -0.8001 -0.8086
 1441TIP3   OH225881   3.809   5.129   1.803  0.3981  0.6015  0.0045
 1441TIP3    H125882   3.771   5.163   1.884 -1.0019 -0.4621 -0.1685
 1441TIP3    H225883   3.841   5.207   1.758 -0.1594  1.3801  0.9004
 1442TIP3   OH225884   1.698   6.785   1.956 -0.0264  0.2043  0.0348
 1442TIP3    H125885   1.624   6.753   1.905  1.0321 -0.7220 -0.9798
 1442TIP3    H225886   1.675   6.766   2.047 -0.9090 -0.3179 -0.2867
 1443TIP3   OH225887   2.249   5.077   8.422 -0.2117  0.5456  0.1850
 1443TIP3    H125888   2.169   5.129   8.435 -0.6450 -0.2806  0.9305
 1443TIP3    H225889   2.218   4.996   8.380 -0.0233 -0.4734  1.9399
 1444TIP3   OH225890   1.714   0.574   1.706 -0.3589 -0.3007 -0.2513
 1444TIP3    H125891   1.795   0.609   1.669  1.1219 -3.1689 -0.0214
 1444TIP3    H225892   1.666   0.539   1.631  1.0347 -3.0134 -0.0120
 1445TIP3   OH225893   1.312   5.062   0.852  0.4662  0.4318  0.2843
 1445TIP3    H125894   1.264   4.984   0.880 -0.5166  0.6802 -0.6284
 1445TIP3    H225895   1.375   5.078   0.922 -0.7618  0.0597  1.5223
 1446TIP3   OH225896   4.792   6.289   6.588 -0.6706  0.7916 -0.0706
 1446TIP3    H125897   4.884   6.269   6.573 -0.0410  0.9485  2.9362
 1446TIP3    H225898   4.788   6.385   6.586 -0.3901  0.8573  1.3677
 1447TIP3   OH225899   3.127   6.677   7.185 -0.8954  0.5249  0.0153
 1447TIP3    H125900   3.164   6.690   7.097  0.0030  0.2308  0.3353
 1447TIP3    H225901   3.103   6.765   7.214 -1.2676  0.6156 -0.5518
 1448TIP3   OH225902   4.852   5.074   1.547 -0.0737  0.3975  0.4270
 1448TIP3    H125903   4.917   5.020   1.593 -2.9897 -1.7343  2.4874
 1448TIP3    H225904   4.850   5.039   1.458 -0.7267 -1.9694  1.2833
 1449TIP3   OH225905   1.899   1.907   6.672  0.1401  0.2346  0.3362
 1449TIP3    H125906   1.966   1.867   6.728  0.8753  0.4936 -0.3464
 1449TIP3    H225907   1.816   1.872   6.705  0.6857 -0.9807  0.4545
 1450TIP3   OH225908   0.590   4.051   8.338 -0.3438  0.3143 -0.3373
 1450TIP3    H125909   0.528   4.110   8.294 -1.9716 -0.7297  0.4545
 1450TIP3    H225910   0.550   4.033   8.423  0.1036 -1.9044 -0.5522
 1451TIP3   OH225911   5.037   4.304   1.572 -0.1340  0.4906  0.3016
 1451TIP3    H125912   4.994   4.341   1.649  0.9678 -0.8165  1.5846
 1451TIP3    H225913   5.105   4.248   1.607  1.7347  1.4179 -1.6527
 1452TIP3   OH225914   3.304   5.652   7.418 -0.5045  0.1917 -0.3837
 1452TIP3    H125915   3.381   5.707   7.428  1.2875 -1.9846 -1.2895
 1452TIP3    H225916   3.314   5.611   7.332 -1.5401 -1.7544  0.3554
 1453TIP3   OH225917   6.342   4.239   8.450 -0.4818  0.1667 -0.0794
 1453TIP3    H125918   6.316   4.152   8.420  1.7271 -0.6733  0.2687
 1453TIP3    H225919   6.263   4.275   8.492 -1.7675 -1.1606 -1.2460
 1454TIP3   OH225920   0.261   2.267   7.012  0.2048 -0.0532  0.4468
 1454TIP3    H125921   0.181   2.247   6.964 -0.6520 -0.6635  2.0476
 1454TIP3    H225922   0.259   2.362   7.025  0.6679  0.1843 -1.0368
 1455TIP3   OH225923   3.559   3.347   8.429 -0.4033 -0.8673 -0.2202
 1455TIP3    H125924   3.520   3.383   8.508 -1.3893 -1.6238 -0.3528
 1455TIP3    H225925   3.527   3.403   8.358 -0.4424 -0.8832 -0.2149
 1456TIP3   OH225926   0.939   5.873   2.239  0.5015  1.0035  0.0160
 1456TIP3    H125927   0.852   5.908   2.255 -0.0415 -0.4808  0.4313
 1456TIP3    H225928   0.970   5.845   2.326  1.1081  0.8757 -0.2362
 1457TIP3   OH225929   1.626   4.742   8.642 -0.0306  0.5132 -0.3496
 1457TIP3    H125930   1.544   4.792   8.630  0.7804  1.5122 -2.0995
 1457TIP3    H225931   1.597   4.654   8.663 -1.6405  0.4725 -2.3788
 1458TIP3   OH225932   3.162   0.770   7.677  0.4398 -0.7937 -0.0595
 1458TIP3    H125933   3.250   0.791   7.709  0.3490 -1.9829  1.0830
 1458TIP3    H225934   3.157   0.675   7.684 -0.8871 -0.7522 -0.2410
 1459TIP3   OH225935   5.192   4.903   6.870  0.3812 -0.3706 -0.6131
 1459TIP3    H125936   5.186   4.830   6.809 -0.1823 -0.9254  0.0931
 1459TIP3    H225937   5.206   4.863   6.956  0.9374  0.3886 -0.3383
 1460TIP3   OH225938   6.434   2.020   7.276  0.4320  0.4724 -0.1757
 1460TIP3    H125939   6.412   2.066   7.357  0.3626  2.0550 -1.0545
 1460TIP3    H225940   6.398   2.074   7.207  0.1681 -1.0408 -1.2786
 1461TIP3   OH225941   6.190   1.152   7.922 -0.3731  0.5011  0.1015
 1461TIP3    H125942   6.149   1.065   7.915 -0.0845  0.4507 -1.1912
 1461TIP3    H225943   6.147   1.204   7.854  0.5365  0.9162 -0.1677
 1462TIP3   OH225944   5.203   5.543   1.759 -0.2868 -0.1844 -0.5285
 1462TIP3    H125945   5.120   5.588   1.743 -0.1043  0.0772 -0.7462
 1462TIP3    H225946   5.266   5.614   1.774 -0.2243 -0.3956  0.2343
 1463TIP3   OH225947   3.437   1.432   2.675 -0.2162 -0.5204 -0.7387
 1463TIP3    H125948   3.499   1.505   2.678  0.4964 -1.1317  0.1514
 1463TIP3    H225949   3.476   1.370   2.614 -1.1802  0.1283 -2.0537
 1464TIP3   OH225950   4.016   5.363   8.784 -0.1105 -0.2628 -0.2552
 1464TIP3    H125951   4.072   5.286   8.793 -1.0127 -0.8085  0.9002
 1464TIP3    H225952   4.040   5.400   8.699  2.2085 -0.2943  0.3200
 1465TIP3   OH225953   4.337   2.377   2.268  0.5843 -0.2994  0.0440
 1465TIP3    H125954   4.345   2.366   2.173 -0.6979 -0.8296 -0.0306
 1465TIP3    H225955   4.259   2.326   2.291  1.5791 -1.1972  1.5868
 1466TIP3   OH225956   2.810   3.848   0.210  0.4654 -0.6228 -0.3254
 1466TIP3    H125957   2.721   3.830   0.239  0.4656 -0.6218 -0.3242
 1466TIP3    H225958   2.854   3.881   0.289  0.2731  0.0586 -0.4929
 1467TIP3   OH225959   3.611   3.283   7.556  0.2426 -0.2336  0.4021
 1467TIP3    H125960   3.611   3.379   7.562  3.6900  0.0082 -1.4758
 1467TIP3    H225961   3.586   3.254   7.644  0.9527  2.3902  1.5635
 1468TIP3   OH225962   1.142   2.844   7.273 -0.1675  0.0017  0.1768
 1468TIP3    H125963   1.058   2.848   7.227  0.6623  2.2137 -1.3132
 1468TIP3    H225964   1.207   2.835   7.203  0.9720  0.4391  1.1426
 1469TIP3   OH225965   0.843   0.051   8.005 -0.7850  0.3468 -0.4581
 1469TIP3    H125966   0.811   0.085   8.089  1.0733 -0.2332  0.5443
 1469TIP3    H225967   0.923   0.003   8.028  0.7787  1.6684 -2.7548
 1470TIP3   OH225968   6.413   0.905   0.750 -0.0779  0.4652  0.1069
 1470TIP3    H125969   6.494   0.892   0.799  0.1475 -1.5214 -0.7141
 1470TIP3    H225970   6.440   0.946   0.668  0.2410 -0.8155 -0.4613
 1471TIP3   OH225971   2.881   4.657   7.214 -0.0933 -0.3569  0.2957
 1471TIP3    H125972   2.953   4.617   7.165 -1.5637 -0.5166 -1.8929
 1471TIP3    H225973   2.872   4.745   7.176 -0.1231  0.2123  1.5689
 1472TIP3   OH225974   1.727   3.551   6.248  0.1935 -0.5159  0.1838
 1472TIP3    H125975   1.797   3.515   6.302  0.8877  0.0710 -0.3005
 1472TIP3    H225976   1.760   3.637   6.221 -0.1369 -0.7851 -1.1416
 1473TIP3   OH225977   0.448   5.260   1.946  0.1347 -0.1100 -0.2940
 1473TIP3    H125978   0.395   5.274   2.024 -0.2544 -0.0717 -0.5606
 1473TIP3    H225979   0.480   5.170   1.954  0.3020 -0.0250  0.0270
 1474TIP3   OH225980   1.401   0.883   7.190  0.0508  0.4121 -0.1882
 1474TIP3    H125981   1.418   0.807   7.246 -0.0042 -0.1198 -0.8859
 1474TIP3    H225982   1.384   0.846   7.103 -2.2900  1.0484 -0.0752
 1475TIP3   OH225983   6.009   1.014   1.290  0.2531  0.2802  0.2144
 1475TIP3    H125984   5.920   1.013   1.325  0.7860  3.2012  2.0600
 1475TIP3    H225985   6.065   1.020   1.367  2.0715 -1.1013 -0.9238
 1476TIP3   OH225986   6.174   0.386   0.549 -0.1534  0.4357 -0.2546
 1476TIP3    H125987   6.086   0.385   0.511 -0.0781 -1.5236 -0.4818
 1476TIP3    H225988   6.212   0.303   0.523  0.4327 -0.4139  2.9219
 1477TIP3   OH225989   0.000   1.420   1.255 -0.1943 -0.3257 -0.7977
 1477TIP3    H125990   0.016   1.459   1.169 -0.3948 -0.0351 -0.7023
 1477TIP3    H225991   0.043   1.479   1.317 -0.1877 -0.4503 -0.6811
 1478TIP3   OH225992   1.400   2.661   0.391 -0.1195 -0.4264 -0.7624
 1478TIP3    H125993   1.485   2.685   0.354 -0.0751 -1.0147 -1.0516
 1478TIP3    H225994   1.339   2.665   0.318 -0.3043 -0.1962 -0.5965
 1479TIP3   OH225995   2.899   0.696   0.894  0.3957 -0.4440  0.8600
 1479TIP3    H125996   2.898   0.791   0.888 -1.8100 -0.4235  0.8295
 1479TIP3    H225997   2.989   0.671   0.870  0.0713  1.3787 -2.9742
 1480TIP3   OH225998   1.199   4.774   8.447  0.4513  0.1540  0.0480
 1480TIP3    H125999   1.152   4.691   8.450  0.0084  0.4328  1.1738
 1480TIP3    H226000   1.196   4.807   8.537  0.8978  1.2366 -0.3148
 1481TIP3   OH226001   2.106   4.510   7.141 -0.3860  0.0002 -0.2128
 1481TIP3    H126002   2.056   4.469   7.212 -0.3598  0.8775  0.3236
 1481TIP3    H226003   2.043   4.568   7.098 -0.1900  0.0733 -0.4013
 1482TIP3   OH226004   5.775   0.214   0.898 -0.2439  0.6109 -0.0678
 1482TIP3    H126005   5.803   0.171   0.817 -1.5566 -0.5935  0.0810
 1482TIP3    H226006   5.817   0.300   0.895 -1.1984  1.0720 -2.6297
 1483TIP3   OH226007   2.863   0.589   1.793 -0.0468 -0.0571 -0.1515
 1483TIP3    H126008   2.891   0.552   1.710  0.1271  0.1495 -0.1842
 1483TIP3    H226009   2.788   0.535   1.819 -0.4649  0.2338 -0.7205
 1484TIP3   OH226010   0.062   4.184   1.304 -0.3491 -0.1495  0.4854
 1484TIP3    H126011   0.011   4.263   1.287 -1.8311 -1.1594  0.0426
 1484TIP3    H226012   0.121   4.208   1.376 -0.0521  1.6369 -0.3286
 1485TIP3   OH226013   5.455   1.669   6.976 -0.4297  0.4350  0.3848
 1485TIP3    H126014   5.504   1.651   7.056  0.5418  1.1831 -0.0327
 1485TIP3    H226015   5.364   1.675   7.005 -0.2620 -0.7377  1.2017
 1486TIP3   OH226016   0.858   4.799   0.337 -0.3006 -0.1249 -0.2154
 1486TIP3    H126017   0.818   4.886   0.338 -1.3978 -0.5910  1.3659
 1486TIP3    H226018   0.916   4.798   0.413 -0.4098 -0.8198 -0.1366
 1487TIP3   OH226019   1.578   3.225   7.315  0.4868 -0.3266 -0.3076
 1487TIP3    H126020   1.632   3.217   7.237  0.4772 -0.0413 -0.3438
 1487TIP3    H226021   1.530   3.307   7.303  0.6399 -0.1779  0.0904
 1488TIP3   OH226022   4.096   6.053   2.367  0.3831  0.0124  0.1170
 1488TIP3    H126023   4.128   6.123   2.310 -0.8906  0.8570  0.4062
 1488TIP3    H226024   4.003   6.046   2.347 -0.0129  0.0738  1.8111
 1489TIP3   OH226025   5.666   6.711   7.637  0.0582  0.6281 -0.3622
 1489TIP3    H126026   5.701   6.794   7.669 -0.7607  1.2428 -0.9975
 1489TIP3    H226027   5.571   6.724   7.638 -0.0525 -0.0375 -1.1565
 1490TIP3   OH226028   5.503   2.214   6.643  0.2615  0.3045  0.7254
 1490TIP3    H126029   5.457   2.170   6.715  2.7671  0.3524  2.4781
 1490TIP3    H226030   5.565   2.149   6.610 -0.1377  0.6302 -0.7589
 1491TIP3   OH226031   5.398   0.358   0.057  0.2824 -0.3900  0.2963
 1491TIP3    H126032   5.303   0.372   0.064  0.0954 -1.6581  0.5292
 1491TIP3    H226033   5.437   0.438   0.092 -0.7030  0.2597 -0.0677
 1492TIP3   OH226034   4.523   5.441   2.447  0.2717 -0.5594 -0.4001
 1492TIP3    H126035   4.468   5.374   2.407 -0.4568  0.0344 -0.3978
 1492TIP3    H226036   4.468   5.518   2.452  0.6330 -0.3669  0.9579
 1493TIP3   OH226037   1.880   2.717   6.925  0.1381  0.0449  0.7252
 1493TIP3    H126038   1.821   2.745   6.994 -1.7167 -1.7448 -0.0489
 1493TIP3    H226039   1.855   2.627   6.906  2.0076 -0.2238 -0.8183
 1494TIP3   OH226040   0.806   6.124   8.717 -0.2263  0.6087  0.3014
 1494TIP3    H126041   0.757   6.043   8.706 -1.0179  1.0149  0.7439
 1494TIP3    H226042   0.765   6.166   8.793  0.7625  0.9910  0.6387
 1495TIP3   OH226043   2.875   2.517   1.369 -0.2372  0.3608 -0.2610
 1495TIP3    H126044   2.947   2.548   1.424  2.9631 -0.1894 -3.7452
 1495TIP3    H226045   2.821   2.595   1.354 -0.5746  0.7645  2.5512
 1496TIP3   OH226046   2.245   0.185   8.506 -0.1951 -0.4482  0.7796
 1496TIP3    H126047   2.231   0.278   8.526 -1.0000 -0.4320  0.1686
 1496TIP3    H226048   2.170   0.141   8.546 -0.5109 -0.6846 -0.0616
 1497TIP3   OH226049   6.707   2.197   0.933 -0.4587  0.4890  0.8934
 1497TIP3    H126050   6.677   2.152   0.854  0.5561 -0.3339  0.9493
 1497TIP3    H226051   6.796   2.164   0.947 -0.8271  0.1627  2.7171
 1498TIP3   OH226052   6.411   0.460   8.062 -0.3919  0.0066  0.2893
 1498TIP3    H126053   6.370   0.487   8.145  0.5394 -0.3270  0.8745
 1498TIP3    H226054   6.429   0.367   8.073  0.3717  0.1112 -0.0085
 1499TIP3   OH226055   1.979   1.765   1.615 -0.3910 -0.3788  0.0895
 1499TIP3    H126056   1.909   1.715   1.573 -1.2776  0.0778  0.9639
 1499TIP3    H226057   1.956   1.764   1.708  1.5566 -1.4330  0.6071
 1500TIP3   OH226058   3.819   1.640   7.325 -0.2385  0.1423 -0.0554
 1500TIP3    H126059   3.906   1.610   7.298  0.3249  1.2198  0.4931
 1500TIP3    H226060   3.834   1.683   7.409 -1.4802 -0.5749  0.5552
 1501TIP3   OH226061   1.822   5.767   1.309 -0.5806 -0.2149 -0.0521
 1501TIP3    H126062   1.752   5.827   1.336 -0.2450  0.1248  0.0721
 1501TIP3    H226063   1.834   5.784   1.216 -3.1547 -2.8157 -1.0262
 1502TIP3   OH226064   0.229   6.079   0.326 -0.0808 -0.2798  0.3082
 1502TIP3    H126065   0.149   6.051   0.371  0.7668 -1.0099  1.4219
 1502TIP3    H226066   0.293   6.091   0.396  0.3635  1.8893 -0.4098
 1503TIP3   OH226067   0.809   4.481   8.848  0.6373  0.4922  1.2531
 1503TIP3    H126068   0.874   4.445   8.788  0.7372  1.9343  0.4743
 1503TIP3    H226069   0.749   4.530   8.793 -1.7435 -1.6006  1.8239
 1504TIP3   OH226070   4.554   2.088   0.936 -0.3973  0.1108  0.8762
 1504TIP3    H126071   4.607   2.047   0.868 -2.4273 -1.4027  0.0930
 1504TIP3    H226072   4.615   2.104   1.008  1.1764 -1.1714 -0.0980
 1505TIP3   OH226073   2.769   2.707   1.653 -0.1870  0.4905  0.8807
 1505TIP3    H126074   2.757   2.722   1.747 -0.7014  0.5037  0.8183
 1505TIP3    H226075   2.680   2.695   1.620  0.0981 -1.4281  0.7111
 1506TIP3   OH226076   6.763   1.088   8.035 -0.1566  0.2687 -0.1788
 1506TIP3    H126077   6.724   1.001   8.043 -0.1928  0.2210 -0.8428
 1506TIP3    H226078   6.844   1.083   8.085  0.3626 -0.4675 -1.0746
 1507TIP3   OH226079   0.791   4.321   1.923  0.4250 -0.3487 -0.4595
 1507TIP3    H126080   0.833   4.360   1.846  0.3520  1.1594  0.2359
 1507TIP3    H226081   0.719   4.269   1.888  0.9567 -0.4368 -1.4558
 1508TIP3   OH226082   6.240   2.288   8.115 -1.0885  0.1910 -0.5031
 1508TIP3    H126083   6.315   2.343   8.139 -0.5247 -0.4105 -0.8291
 1508TIP3    H226084   6.269   2.242   8.036 -1.4719 -0.6990 -0.1456
 1509TIP3   OH226085   5.193   5.157   1.602  0.0756  0.6893  0.0179
 1509TIP3    H126086   5.193   5.149   1.507 -0.6825 -0.9077  0.1191
 1509TIP3    H226087   5.108   5.194   1.623  0.5268  1.7527  0.0585
 1510TIP3   OH226088   0.207   0.379   8.850 -0.0248  0.0760  0.3569
 1510TIP3    H126089   0.291   0.344   8.822  0.0067 -0.0725  0.6356
 1510TIP3    H226090   0.223   0.472   8.866 -0.6138  0.7770 -2.5571
 1511TIP3   OH226091   1.535   0.526   1.518  0.1865 -0.1152  0.7043
 1511TIP3    H126092   1.458   0.471   1.505  0.1710  0.0352  0.1366
 1511TIP3    H226093   1.570   0.539   1.430  0.3355  0.5775  0.8600
 1512TIP3   OH226094   4.075   1.869   8.099 -0.3748  0.0408  0.3544
 1512TIP3    H126095   3.994   1.893   8.144 -0.0133  0.1396  0.9633
 1512TIP3    H226096   4.068   1.912   8.013 -1.2143 -0.4187  0.1764
 1513TIP3   OH226097   6.773   3.767   1.432  0.1100 -0.0523  0.2725
 1513TIP3    H126098   6.855   3.801   1.397  0.7044 -1.0868  0.6207
 1513TIP3    H226099   6.728   3.730   1.356 -0.5661  1.4966 -0.1197
 1514TIP3   OH226100   2.182   3.254   0.697  0.2215 -0.1282 -0.0903
 1514TIP3    H126101   2.245   3.325   0.716  1.0839 -1.0709  0.6712
 1514TIP3    H226102   2.230   3.196   0.638 -0.8764  0.4582 -1.6263
 1515TIP3   OH226103   5.616   0.633   7.971 -0.3838 -0.0994 -0.6740
 1515TIP3    H126104   5.586   0.724   7.969  0.5956  0.2849  0.5055
 1515TIP3    H226105   5.536   0.581   7.982 -0.7455  0.9128  2.9218
 1516TIP3   OH226106   1.875   5.259   0.846  0.0719  0.0047 -0.5027
 1516TIP3    H126107   1.794   5.310   0.841 -0.5661 -0.8609  0.5155
 1516TIP3    H226108   1.864   5.191   0.781 -1.0603 -1.4629  1.1114
 1517TIP3   OH226109   4.524   5.861   0.229 -0.1174 -0.2299 -0.2509
 1517TIP3    H126110   4.442   5.837   0.186 -1.2836  1.8633  0.6513
 1517TIP3    H226111   4.574   5.906   0.161  0.1919 -1.2113 -0.7061
 1518TIP3   OH226112   0.198   3.747   0.054  0.1120  0.3859  0.0148
 1518TIP3    H126113   0.102   3.748   0.054  0.1066  1.7196  0.7531
 1518TIP3    H226114   0.223   3.820   0.110  1.5538 -1.8335  2.4720
 1519TIP3   OH226115   3.942   2.277   1.894  0.3945  0.3939  0.0870
 1519TIP3    H126116   3.875   2.307   1.956  1.0626  0.8511  0.6053
 1519TIP3    H226117   4.024   2.286   1.942  0.7748 -0.7633 -0.3199
 1520TIP3   OH226118   5.632   2.964   8.774  0.2750 -0.0771 -0.5526
 1520TIP3    H126119   5.700   2.969   8.841 -0.3623  0.7909  0.0567
 1520TIP3    H226120   5.616   2.870   8.762  0.3668 -0.2430  0.5543
 1521TIP3   OH226121   5.344   6.363   7.676  0.6486 -0.5231  0.3284
 1521TIP3    H126122   5.304   6.321   7.752  0.9593  0.2098  0.9140
 1521TIP3    H226123   5.436   6.336   7.679  0.5746 -0.8187 -0.0241
 1522TIP3   OH226124   5.573   2.684   8.738  0.2850  0.1161 -0.7956
 1522TIP3    H126125   5.504   2.620   8.756  0.0922  0.4362 -0.3665
 1522TIP3    H226126   5.604   2.662   8.651 -1.3697  0.8817 -1.6205
 1523TIP3   OH226127   2.637   1.807   7.587 -0.0628 -0.5050  0.2469
 1523TIP3    H126128   2.608   1.853   7.508  0.0312 -2.0967 -0.7693
 1523TIP3    H226129   2.572   1.829   7.653 -0.6840  0.1001 -0.5463
 1524TIP3   OH226130   0.036   1.036   1.014  0.0791 -0.1755 -0.2327
 1524TIP3    H126131   0.113   0.980   1.014  1.3428  1.4823 -0.7542
 1524TIP3    H226132   0.053   1.101   0.946 -1.5563  0.5547 -0.0051
 1525TIP3   OH226133   2.614   0.091   7.814  0.1461 -0.0314  0.3148
 1525TIP3    H126134   2.700   0.075   7.852 -0.7638 -3.4520  1.2777
 1525TIP3    H226135   2.569   0.146   7.878 -0.0209 -2.4642  2.4472
 1526TIP3   OH226136   1.680   1.752   8.684 -0.2612  0.4411  0.6208
 1526TIP3    H126137   1.667   1.664   8.649 -0.2450 -0.2654  2.3188
 1526TIP3    H226138   1.651   1.810   8.613 -0.6658 -0.9262 -0.3724
 1527TIP3   OH226139   6.144   1.877   0.845  0.5841  0.7151  0.1446
 1527TIP3    H126140   6.236   1.870   0.820  0.7145  3.0155 -0.2704
 1527TIP3    H226141   6.099   1.901   0.764 -0.4861 -0.8282  0.2425
 1528TIP3   OH226142   6.767   4.352   7.991  0.0275 -0.0083  0.2375
 1528TIP3    H126143   6.689   4.303   8.020  0.3074 -0.3472  0.4258
 1528TIP3    H226144   6.735   4.442   7.979 -0.9282 -0.5622 -1.8666
 1529TIP3   OH226145   4.577   5.012   1.423  0.3113  0.0264  0.3882
 1529TIP3    H126146   4.670   4.989   1.427  0.7937  1.9853  2.1765
 1529TIP3    H226147   4.576   5.103   1.393 -1.2052 -0.5677 -1.5737
 1530TIP3   OH226148   6.149   4.953   2.204  0.2730  0.0457 -0.0588
 1530TIP3    H126149   6.213   5.003   2.255 -0.0601 -1.6447  2.1464
 1530TIP3    H226150   6.067   4.962   2.252  0.2784 -2.8321  0.6570
 1531TIP3   OH226151   6.231   0.427   7.620  0.4244  0.0151 -0.1083
 1531TIP3    H126152   6.324   0.437   7.598  0.8043  0.3947  1.5338
 1531TIP3    H226153   6.219   0.333   7.631  0.5735 -0.0494 -0.4878
 1532TIP3   OH226154   6.109   1.054   7.619 -0.3777  0.5529 -0.2024
 1532TIP3    H126155   6.109   0.993   7.693  4.7298  0.9054  0.4809
 1532TIP3    H226156   6.047   1.122   7.643 -2.5551 -1.8113  1.3400
 1533TIP3   OH226157   0.365   4.629   0.012  0.2201 -0.2330 -0.3147
 1533TIP3    H126158   0.296   4.688  -0.018 -0.4738 -1.5403 -1.3943
 1533TIP3    H226159   0.435   4.639  -0.053  1.7110  2.0769  1.4737
 1534TIP3   OH226160   0.805   4.672   1.157  0.1174 -0.1913 -0.5253
 1534TIP3    H126161   0.722   4.713   1.182 -0.8827 -0.0323 -3.6283
 1534TIP3    H226162   0.780   4.588   1.120  1.7340 -1.6615  1.5015
 1535TIP3   OH226163   3.150   2.260   7.880  0.2783 -0.4059  0.1593
 1535TIP3    H126164   3.109   2.345   7.862  0.1414 -0.4781  0.1308
 1535TIP3    H226165   3.237   2.282   7.914  0.2657 -0.2550  0.0951
 1536TIP3   OH226166   5.367   5.862   7.270  0.2441 -0.1889  0.1402
 1536TIP3    H126167   5.279   5.899   7.265 -0.6240 -2.1409  0.0045
 1536TIP3    H226168   5.401   5.869   7.181 -0.1731 -0.3060 -0.0337
 1537TIP3   OH226169   6.093   1.638   7.293  0.0967 -0.3639  0.2715
 1537TIP3    H126170   6.095   1.691   7.372  0.2614  0.4847 -0.2854
 1537TIP3    H226171   6.185   1.628   7.269  0.0501 -0.6583  0.2194
 1538TIP3   OH226172   6.380   2.769   7.666  0.2373 -0.0760  0.3962
 1538TIP3    H126173   6.465   2.726   7.655  1.4273  2.2475 -0.0143
 1538TIP3    H226174   6.320   2.697   7.688  2.1653 -1.8625  0.1561
 1539TIP3   OH226175   1.289   0.922   6.816  0.7167  0.1158  0.3514
 1539TIP3    H126176   1.364   0.862   6.825  0.4579 -0.3215 -0.2889
 1539TIP3    H226177   1.225   0.889   6.878  0.3150 -0.7019 -0.4710
 1540TIP3   OH226178   6.126   6.615   8.492 -0.6740 -0.6265  0.2592
 1540TIP3    H126179   6.106   6.612   8.399  1.2012  1.2418 -0.2800
 1540TIP3    H226180   6.082   6.694   8.524 -0.3777 -0.6261  0.6794
 1541TIP3   OH226181   4.730   0.231   0.938 -0.5580  0.2035 -0.2854
 1541TIP3    H126182   4.739   0.301   1.002  1.4338  1.2543 -1.6258
 1541TIP3    H226183   4.733   0.151   0.990  0.2758  1.0272  0.9993
 1542TIP3   OH226184   2.795   4.749   0.201 -0.0637  0.3689 -0.3509
 1542TIP3    H126185   2.706   4.775   0.175  0.1617  0.3965 -1.1440
 1542TIP3    H226186   2.832   4.826   0.243  0.1645  0.9383 -1.5549
 1543TIP3   OH226187   4.512   2.882   6.397  1.0083 -0.4098 -0.1418
 1543TIP3    H126188   4.565   2.803   6.408 -0.3809 -1.3718  0.0081
 1543TIP3    H226189   4.534   2.937   6.472  1.5066 -0.9593  0.1193
 1544TIP3   OH226190   4.018   3.483   7.108  0.0156 -0.6547  0.1711
 1544TIP3    H126191   4.083   3.543   7.145 -0.9788  0.2151  0.5842
 1544TIP3    H226192   4.038   3.480   7.015 -1.7355  2.8361 -0.4693
 1545TIP3   OH226193   6.142   0.871   0.901 -0.4075 -0.1104 -0.2423
 1545TIP3    H126194   6.180   0.928   0.834 -0.4949  0.6348  0.3206
 1545TIP3    H226195   6.067   0.921   0.935 -0.5215 -0.5886  0.2221
 1546TIP3   OH226196   3.252   2.527   1.330 -0.0910  0.3613  0.1843
 1546TIP3    H126197   3.206   2.605   1.360 -0.4111  0.4608 -0.5544
 1546TIP3    H226198   3.184   2.474   1.289  0.3927  0.3561 -0.6193
 1547TIP3   OH226199   2.436   5.061   8.637 -0.4457  0.2248 -0.0183
 1547TIP3    H126200   2.352   5.075   8.594  0.2506  0.2888 -1.4058
 1547TIP3    H226201   2.451   4.966   8.630 -1.4331 -0.1777  2.2788
 1548TIP3   OH226202   3.138   0.630   6.474 -0.5613 -0.1217  0.5055
 1548TIP3    H126203   3.170   0.672   6.395 -1.7249 -2.9985 -1.7022
 1548TIP3    H226204   3.217   0.602   6.520  0.1502  2.2442  0.8623
 1549TIP3   OH226205   6.400   4.076   0.177 -0.0601 -0.0454  0.5031
 1549TIP3    H126206   6.482   4.028   0.178  0.1036  0.2275  1.8630
 1549TIP3    H226207   6.411   4.146   0.242 -0.7087  1.1299 -0.5900
 1550TIP3   OH226208   4.680   4.539   2.088  0.0061  0.3149  0.5337
 1550TIP3    H126209   4.585   4.535   2.082 -0.2643  0.6597  3.2227
 1550TIP3    H226210   4.698   4.625   2.127  1.7784  2.0693 -3.6132
 1551TIP3   OH226211   5.790   4.109   0.422 -0.6017 -0.2673 -0.4757
 1551TIP3    H126212   5.842   4.189   0.412  0.4642 -0.7179  1.1248
 1551TIP3    H226213   5.839   4.043   0.373  0.0533 -0.5651  0.5644
 1552TIP3   OH226214   0.422   5.707   1.395  0.1757  0.3494  0.2401
 1552TIP3    H126215   0.438   5.613   1.402 -3.1697 -0.3668  0.0579
 1552TIP3    H226216   0.428   5.726   1.301 -1.5184 -0.2546 -0.0169
 1553TIP3   OH226217   5.650   6.727   0.181 -0.5309  0.1768  0.1822
 1553TIP3    H126218   5.675   6.803   0.128  0.1996 -0.7858 -0.8987
 1553TIP3    H226219   5.649   6.760   0.271 -0.9674  1.6467 -0.3278
 1554TIP3   OH226220   2.745   6.241   1.602  0.1292  0.0615 -0.1326
 1554TIP3    H126221   2.776   6.233   1.692  1.6090  1.4550 -0.4584
 1554TIP3    H226222   2.724   6.152   1.575 -0.0725 -0.4139  1.4831
 1555TIP3   OH226223   1.860   2.665   7.926  0.2328 -0.5132 -1.0284
 1555TIP3    H126224   1.857   2.725   8.000 -0.7158  0.4029 -1.7931
 1555TIP3    H226225   1.833   2.581   7.963  1.3074 -0.4482 -0.0075
 1556TIP3   OH226226   5.184   0.338   0.523 -0.1154  0.0462 -0.2077
 1556TIP3    H126227   5.137   0.374   0.448 -1.1506  0.3975  0.5847
 1556TIP3    H226228   5.160   0.394   0.596 -0.4209 -1.2287  0.7141
 1557TIP3   OH226229   1.383   2.143   0.880 -0.1186 -0.7630 -0.1526
 1557TIP3    H126230   1.310   2.201   0.900 -0.7315 -1.6571  0.2804
 1557TIP3    H226231   1.381   2.132   0.785 -1.6306 -2.1148 -0.0121
 1558TIP3   OH226232   3.461   1.869   7.864  0.6092 -0.7678  0.5370
 1558TIP3    H126233   3.537   1.869   7.924 -1.2202  2.3031  3.1727
 1558TIP3    H226234   3.489   1.924   7.791  0.8889  0.7764  1.7293
 1559TIP3   OH226235   2.506   3.681   7.734  0.2378 -0.1881 -0.1014
 1559TIP3    H126236   2.582   3.690   7.677  0.9913  0.0594  0.9225
 1559TIP3    H226237   2.437   3.733   7.691  0.5232 -0.7065 -1.2154
 1560TIP3   OH226238   2.726   2.865   0.070 -0.1786  0.0984 -0.6074
 1560TIP3    H126239   2.774   2.796   0.115  0.9423  0.4811 -1.1810
 1560TIP3    H226240   2.642   2.825   0.046  0.9329 -1.4884 -2.0634
 1561TIP3   OH226241   4.025   3.514   0.650  0.1531 -0.2007  0.4546
 1561TIP3    H126242   4.118   3.508   0.671  0.6130 -0.8964 -1.5047
 1561TIP3    H226243   4.022   3.575   0.576 -0.8380 -0.8706 -0.0738
 1562TIP3   OH226244   4.353   1.725   0.454 -0.4814  0.0462  0.5364
 1562TIP3    H126245   4.418   1.743   0.522 -0.5580  0.5300  0.4892
 1562TIP3    H226246   4.342   1.809   0.409  0.1986 -0.4648 -0.6281
 1563TIP3   OH226247   3.053   6.762   8.165  0.0240 -0.3467 -0.3034
 1563TIP3    H126248   3.097   6.845   8.185  1.9610 -0.8945 -1.8814
 1563TIP3    H226249   3.100   6.729   8.089 -0.8740 -2.7684  0.1149
 1564TIP3   OH226250   0.762   3.410   0.682 -0.0517 -0.6784 -0.1806
 1564TIP3    H126251   0.745   3.502   0.704 -0.1934 -0.0925 -2.4456
 1564TIP3    H226252   0.681   3.365   0.706 -1.4867  0.4974 -2.4212
 1565TIP3   OH226253   6.452   2.847   8.321  0.1058 -0.0513  0.1713
 1565TIP3    H126254   6.371   2.799   8.335  0.3275 -0.4119  0.2350
 1565TIP3    H226255   6.430   2.913   8.256 -0.1123 -0.4723 -0.1897
 1566TIP3   OH226256   3.045   5.508   1.086 -0.3057  0.2785 -0.4957
 1566TIP3    H126257   2.996   5.465   1.016 -0.6250  0.5941 -0.4679
 1566TIP3    H226258   3.060   5.439   1.151  0.1166 -0.0492 -0.9368
 1567TIP3   OH226259   1.466   4.325   7.486  0.6692 -0.4872 -0.4754
 1567TIP3    H126260   1.542   4.304   7.541  0.3309 -0.9252 -0.1668
 1567TIP3    H226261   1.421   4.241   7.475 -0.3255 -0.0518  0.1839
 1568TIP3   OH226262   0.788   4.216   0.633  0.3638  0.0495  0.1712
 1568TIP3    H126263   0.823   4.305   0.636  2.1608 -0.5125 -1.7597
 1568TIP3    H226264   0.718   4.219   0.568  0.3798  0.0685  0.1551
 1569TIP3   OH226265   0.370   1.790   8.545  0.5283 -0.2901  0.6061
 1569TIP3    H126266   0.357   1.845   8.468  0.5061  0.6795  1.2824
 1569TIP3    H226267   0.288   1.741   8.554  0.5554 -0.4518 -0.0150
 1570TIP3   OH226268   1.296   1.613   7.826 -0.0285 -0.1877 -0.5650
 1570TIP3    H126269   1.250   1.645   7.903  1.1110 -1.1290  0.5422
 1570TIP3    H226270   1.243   1.540   7.795  1.4230 -2.3448  1.6734
 1571TIP3   OH226271   1.639   2.068   1.515 -0.5739  0.2244 -1.0086
 1571TIP3    H126272   1.663   2.092   1.604 -0.1741 -0.6269 -0.8816
 1571TIP3    H226273   1.720   2.079   1.464 -1.1510  2.2152 -1.6129
 1572TIP3   OH226274   2.456   2.840   7.486  0.8369  0.0197  0.6253
 1572TIP3    H126275   2.457   2.838   7.390  0.6983 -0.9921  0.6409
 1572TIP3    H226276   2.444   2.933   7.507 -1.2115  0.0218 -0.3444
 1573TIP3   OH226277   0.977   0.186   1.261 -0.0944  0.1305  0.5734
 1573TIP3    H126278   1.027   0.104   1.256 -1.7988 -1.0238  1.5616
 1573TIP3    H226279   1.042   0.252   1.283  0.9919 -1.3735  2.1786
 1574TIP3   OH226280   2.012   6.709   2.226 -0.1677  0.0417 -0.1568
 1574TIP3    H126281   2.002   6.804   2.235  0.2204 -0.0287  1.1641
 1574TIP3    H226282   1.939   6.672   2.275  0.8210 -0.3396  1.0945
 1575TIP3   OH226283   0.912   5.729   8.203  0.5537 -0.2906  0.5924
 1575TIP3    H126284   0.930   5.746   8.296  0.2808  0.1066  0.5726
 1575TIP3    H226285   0.998   5.710   8.166  1.0388  1.9766  0.4198
 1576TIP3   OH226286   6.027   0.408   1.853 -0.1577 -0.1863  0.1856
 1576TIP3    H126287   5.960   0.341   1.869 -1.6110  1.6770  2.5167
 1576TIP3    H226288   6.096   0.388   1.917  0.4360 -0.7004 -0.5997
 1577TIP3   OH226289   4.238   2.781   6.744  0.4635 -0.1988 -0.1980
 1577TIP3    H126290   4.330   2.775   6.717  0.3908 -0.4101 -0.3952
 1577TIP3    H226291   4.201   2.697   6.720  0.3498 -0.3141  0.3702
 1578TIP3   OH226292   3.295   1.783   8.376 -0.0502 -0.5049 -0.1372
 1578TIP3    H126293   3.294   1.837   8.455  0.9652  0.6333 -0.8778
 1578TIP3    H226294   3.204   1.754   8.366 -0.1972 -0.7261  1.4645
 1579TIP3   OH226295   2.625   0.081   1.981  0.7065  0.1360 -0.7885
 1579TIP3    H126296   2.628  -0.010   2.012  1.6209 -0.3195 -2.0920
 1579TIP3    H226297   2.533   0.095   1.957  0.3638 -0.1049  0.3261
 1580TIP3   OH226298   4.058   4.927   7.540  0.0034  0.1083  0.6644
 1580TIP3    H126299   3.989   4.909   7.604  0.0640 -0.5664  0.5446
 1580TIP3    H226300   4.031   4.879   7.461  1.1133 -1.0281  0.9386
 1581TIP3   OH226301   1.076   1.511   7.639 -0.0855 -0.6500  0.0125
 1581TIP3    H126302   1.012   1.440   7.640 -0.6240 -0.1667  0.1568
 1581TIP3    H226303   1.036   1.580   7.692  0.5123 -0.3083  0.0222
 1582TIP3   OH226304   1.399   2.164   1.574  0.0723  0.2307  0.1387
 1582TIP3    H126305   1.480   2.142   1.528  0.5745  0.9052  0.6855
 1582TIP3    H226306   1.428   2.193   1.661 -0.8771 -1.6949  1.1815
 1583TIP3   OH226307   5.512   1.186   0.645 -0.0913  0.2800 -0.2781
 1583TIP3    H126308   5.484   1.222   0.729  0.5111  1.2805 -0.4821
 1583TIP3    H226309   5.446   1.120   0.623 -0.8249  0.7488  0.4725
 1584TIP3   OH226310   4.588   0.877   7.416  0.0391  0.1231  0.2859
 1584TIP3    H126311   4.673   0.879   7.372 -0.7446  2.9053 -1.3909
 1584TIP3    H226312   4.583   0.962   7.462 -1.0507 -0.8172  2.0352
 1585TIP3   OH226313   4.686   4.366   7.772  0.4412  0.0763 -0.1000
 1585TIP3    H126314   4.687   4.406   7.685 -0.3729  1.7314  0.6016
 1585TIP3    H226315   4.775   4.381   7.806  1.2397 -1.8908 -1.1521
 1586TIP3   OH226316   3.835   2.198   7.551 -0.3524 -0.0823  0.5160
 1586TIP3    H126317   3.921   2.226   7.519  0.4345  0.7602  3.0540
 1586TIP3    H226318   3.774   2.259   7.511  0.3541 -0.0469 -0.5401
 1587TIP3   OH226319   2.371   0.191   0.714  0.4012  0.4803  0.0074
 1587TIP3    H126320   2.409   0.169   0.629  1.0189 -0.2045  0.4501
 1587TIP3    H226321   2.284   0.152   0.713  0.5807  0.0820 -0.1372
 1588TIP3   OH226322   0.016   5.324   6.562  0.3270 -0.4181  0.1565
 1588TIP3    H126323   0.034   5.319   6.656  0.7411  0.9687  0.1719
 1588TIP3    H226324  -0.078   5.308   6.554 -0.0221  1.0742  0.9807
 1589TIP3   OH226325   3.931   1.271   7.295  0.1868  0.0646  0.4523
 1589TIP3    H126326   3.943   1.197   7.235  0.3455  0.0356  0.5181
 1589TIP3    H226327   3.837   1.284   7.299  0.1493 -0.2221  0.5440
 1590TIP3   OH226328   0.642   6.543   8.135  0.6505 -0.2494 -0.2236
 1590TIP3    H126329   0.603   6.506   8.055 -1.2252  0.5671  0.2681
 1590TIP3    H226330   0.629   6.475   8.201  1.3997 -0.5662 -0.3973
 1591TIP3   OH226331   0.574   0.195   6.745  0.0468  0.1212 -0.0491
 1591TIP3    H126332   0.529   0.278   6.730 -3.3099 -1.7407 -1.2246
 1591TIP3    H226333   0.611   0.203   6.833 -2.0215  2.1153  0.7159
 1592TIP3   OH226334   2.083   1.236   1.955  0.6131 -0.0694 -0.1033
 1592TIP3    H126335   2.088   1.209   2.046 -0.1607  0.0919 -0.0073
 1592TIP3    H226336   2.011   1.299   1.952  0.8763  0.2123 -0.7523
 1593TIP3   OH226337   1.029   2.576   1.573 -0.2966  0.1658  0.3069
 1593TIP3    H126338   1.113   2.534   1.593 -0.1030 -0.3707 -1.4879
 1593TIP3    H226339   1.046   2.626   1.493 -1.5977  0.3324  0.1206
 1594TIP3   OH226340   1.866   2.263   0.948 -0.6983 -0.1916  0.2831
 1594TIP3    H126341   1.777   2.298   0.940 -1.2936 -1.5112  0.9166
 1594TIP3    H226342   1.908   2.318   1.014 -1.0095  0.4851 -0.0711
 1595TIP3   OH226343   5.233   0.881   7.323 -0.2624 -0.2100  0.0566
 1595TIP3    H126344   5.201   0.855   7.410 -0.9008 -1.7544 -0.5933
 1595TIP3    H226345   5.155   0.881   7.268  0.2225  0.2168 -0.6435
 1596TIP3   OH226346   5.810   5.016   0.513 -0.6215  0.3393  0.4543
 1596TIP3    H126347   5.896   5.007   0.552 -0.6775  0.8517  0.6967
 1596TIP3    H226348   5.788   4.928   0.482 -0.1787  0.1316  0.7335
 1597TIP3   OH226349   5.771   2.614   1.896  0.2820  0.2213 -0.3334
 1597TIP3    H126350   5.676   2.602   1.898  0.5657 -3.1615  0.2055
 1597TIP3    H226351   5.797   2.586   1.808  0.9311 -1.9948  0.4733
 1598TIP3   OH226352   4.760   5.485   0.416 -0.1151  0.5955  0.6481
 1598TIP3    H126353   4.777   5.500   0.509 -0.3517  0.1219  0.7691
 1598TIP3    H226354   4.848   5.476   0.377 -0.0276 -0.6698  1.0808
 1599TIP3   OH226355   0.923   0.625   7.896 -0.7803  0.3899 -0.4757
 1599TIP3    H126356   0.844   0.573   7.910 -0.9370  0.9201  0.8050
 1599TIP3    H226357   0.924   0.686   7.970  0.8028  0.4195 -0.4929
 1600TIP3   OH226358   6.250   5.716   1.355 -0.3525  0.5211 -0.2644
 1600TIP3    H126359   6.180   5.651   1.357  0.4548 -0.4073 -1.2467
 1600TIP3    H226360   6.331   5.666   1.366  0.1310  1.7830  3.1942
 1601TIP3   OH226361   1.140   5.428   8.688 -0.2978  0.0053  0.7484
 1601TIP3    H126362   1.135   5.495   8.756  0.9116  0.2146  0.6551
 1601TIP3    H226363   1.050   5.398   8.677 -1.3011  3.1358 -0.7358
 1602TIP3   OH226364   1.406   0.866   8.097  0.0286  0.2760  0.2234
 1602TIP3    H126365   1.344   0.930   8.062 -0.0722 -0.0383 -0.1961
 1602TIP3    H226366   1.453   0.912   8.166 -1.7147  0.0914  1.6064
 1603TIP3   OH226367   6.254   2.043   1.674 -0.1289 -0.3947  0.2965
 1603TIP3    H126368   6.267   2.064   1.767  0.1565 -1.2506  0.4618
 1603TIP3    H226369   6.162   2.017   1.668 -0.1595 -0.2954  0.3269
 1604TIP3   OH226370   2.957   0.630   8.622  0.0122 -0.1483  0.0407
 1604TIP3    H126371   2.908   0.571   8.679  0.3523 -0.8115 -0.3259
 1604TIP3    H226372   2.969   0.710   8.673 -0.5388 -0.3691  0.5185
 1605TIP3   OH226373   3.386   4.647   6.825 -0.5239  0.5010 -0.2910
 1605TIP3    H126374   3.383   4.656   6.729  1.2736 -0.1562 -0.4413
 1605TIP3    H226375   3.334   4.721   6.857 -0.8751  0.9309 -1.7622
 1606TIP3   OH226376   1.118   0.833   7.016  0.7212 -0.7732 -0.5405
 1606TIP3    H126377   1.150   0.785   7.093  0.7025  1.1139  0.7200
 1606TIP3    H226378   1.032   0.795   6.998 -0.2238  0.0901  1.7487
 1607TIP3   OH226379   3.365   3.668   1.635 -0.3770  0.3978  0.5955
 1607TIP3    H126380   3.360   3.741   1.696 -0.3115 -0.6897  1.9592
 1607TIP3    H226381   3.283   3.620   1.648 -0.2620  0.0242 -0.0001
 1608TIP3   OH226382   6.262   5.587   7.829  0.2165 -0.4276 -0.0174
 1608TIP3    H126383   6.170   5.605   7.845  0.3534 -0.0271  0.3662
 1608TIP3    H226384   6.297   5.670   7.795  0.2504 -0.8349 -0.9844
 1609TIP3   OH226385   1.366   5.716   2.447 -0.2390  0.5237 -1.0741
 1609TIP3    H126386   1.326   5.751   2.367  1.9999  0.0853 -2.4556
 1609TIP3    H226387   1.446   5.767   2.458 -0.6162  0.7493  1.0876
 1610TIP3   OH226388   4.970   5.301   1.269 -0.3608  0.0257  0.1229
 1610TIP3    H126389   5.033   5.236   1.300 -1.2777 -0.8683  0.1975
 1610TIP3    H226390   4.897   5.248   1.237 -1.1074  1.0370  0.1289
 1611TIP3   OH226391   3.384   5.740   1.492  0.6249 -0.2238  0.4406
 1611TIP3    H126392   3.294   5.771   1.487  0.7369  0.0258 -0.0771
 1611TIP3    H226393   3.423   5.791   1.563  0.8580  0.9666 -0.5172
 1612TIP3   OH226394   1.106   1.400   0.170  0.1145  0.2230  0.0081
 1612TIP3    H126395   1.153   1.468   0.121  0.4851  0.5581  0.8076
 1612TIP3    H226396   1.174   1.336   0.192 -0.5972 -1.6977 -2.7664
 1613TIP3   OH226397   6.488   2.083   6.939  0.1180 -0.1250 -0.5648
 1613TIP3    H126398   6.546   2.083   6.863  0.7099 -1.8373 -0.1436
 1613TIP3    H226399   6.431   2.007   6.925  0.9504 -1.1197  1.2035
 1614TIP3   OH226400   4.171   5.517   0.560  0.0580 -0.6097  0.3077
 1614TIP3    H126401   4.254   5.471   0.549  0.5340  0.5461 -1.3242
 1614TIP3    H226402   4.196   5.609   0.569 -0.9934 -0.3755  1.0274
 1615TIP3   OH226403   2.940   4.300   8.667  0.3064  0.0263 -0.2829
 1615TIP3    H126404   3.027   4.261   8.678  0.4212  0.4060  0.1887
 1615TIP3    H226405   2.880   4.233   8.699  0.3177 -0.7752 -1.8450
 1616TIP3   OH226406   5.166   0.370   7.865 -0.0160 -0.2514 -0.7253
 1616TIP3    H126407   5.146   0.304   7.799 -0.2029 -0.3498 -0.5714
 1616TIP3    H226408   5.082   0.414   7.882 -0.2565 -1.0916  0.3845
 1617TIP3   OH226409   3.894   2.752   7.892 -0.7098  0.6523 -0.2833
 1617TIP3    H126410   3.821   2.800   7.853 -0.3430  0.2270 -1.5136
 1617TIP3    H226411   3.965   2.816   7.895 -0.3926  0.3636 -1.3941
 1618TIP3   OH226412   6.457   0.875   8.752 -0.2981 -0.8245 -0.2299
 1618TIP3    H126413   6.381   0.846   8.803 -0.2496 -0.5379  0.0020
 1618TIP3    H226414   6.420   0.903   8.668 -0.1385 -3.7593 -1.3939
 1619TIP3   OH226415   1.062   3.574   0.058 -0.5427  0.0316  0.3825
 1619TIP3    H126416   1.063   3.625  -0.022  0.1455 -0.2447  0.2069
 1619TIP3    H226417   1.123   3.618   0.117 -0.7836  0.0403  0.6282
 1620TIP3   OH226418   0.355   6.296   7.218  0.4308 -0.1453  0.2512
 1620TIP3    H126419   0.396   6.270   7.301  0.3291  0.0529  0.3655
 1620TIP3    H226420   0.425   6.342   7.171  0.3910  0.0433  0.3739
 1621TIP3   OH226421   2.585   6.761   2.439  0.7625 -0.3969  0.2298
 1621TIP3    H126422   2.601   6.721   2.524  0.2209  3.0383  2.0940
 1621TIP3    H226423   2.664   6.812   2.421 -0.0311  0.7101 -0.1947
 1622TIP3   OH226424   2.712   2.262   7.500  0.1616  0.0501  0.2177
 1622TIP3    H126425   2.622   2.229   7.509 -0.5796  2.1325  1.2874
 1622TIP3    H226426   2.767   2.183   7.500 -1.6036 -1.2479  0.2176
 1623TIP3   OH226427   3.292   4.715   7.626 -0.1108 -0.0281 -0.1571
 1623TIP3    H126428   3.346   4.638   7.610 -0.7562 -0.4481 -0.3664
 1623TIP3    H226429   3.269   4.746   7.538  2.3159  2.0019 -0.1762
 1624TIP3   OH226430   2.678   3.883   1.621 -0.1823 -0.1962 -0.4569
 1624TIP3    H126431   2.700   3.897   1.529  0.4674  1.2711 -0.1023
 1624TIP3    H226432   2.585   3.861   1.620 -0.0701 -0.6656 -1.5038
 1625TIP3   OH226433   4.481   6.552   8.019 -0.2576 -0.2007  0.0566
 1625TIP3    H126434   4.490   6.541   7.924  0.1777  1.1843 -0.0972
 1625TIP3    H226435   4.571   6.548   8.052 -0.2335  0.8826  0.1815
 1626TIP3   OH226436   6.535   5.598   0.837  0.5988 -0.8587 -0.5354
 1626TIP3    H126437   6.630   5.596   0.822  0.6359  0.6824 -0.6071
 1626TIP3    H226438   6.525   5.596   0.932  0.6764 -1.2768 -0.5311
 1627TIP3   OH226439   1.856   3.941   2.563  0.1632 -0.2276  0.1633
 1627TIP3    H126440   1.782   3.917   2.509 -0.2347 -2.2693  1.5170
 1627TIP3    H226441   1.855   3.879   2.636  3.0279 -0.1781  0.3907
 1628TIP3   OH226442   3.165   6.188   8.166  0.4070  0.1652  0.0551
 1628TIP3    H126443   3.228   6.128   8.126  1.1965  0.1028  1.3414
 1628TIP3    H226444   3.111   6.132   8.221 -1.6708  0.0045 -1.9717
 1629TIP3   OH226445   3.287   2.873   0.618 -0.1327  0.4733 -0.5864
 1629TIP3    H126446   3.374   2.857   0.653  0.1393 -0.7525 -1.7718
 1629TIP3    H226447   3.287   2.832   0.532 -1.6153  1.1806 -0.9642
 1630TIP3   OH226448   4.110   0.945   0.778 -0.1691  0.5394 -0.7322
 1630TIP3    H126449   4.201   0.915   0.788 -0.5983 -0.8124 -0.6823
 1630TIP3    H226450   4.101   1.016   0.841  0.9687  0.9684 -1.0254
 1631TIP3   OH226451   0.858   0.169   6.471  0.0033 -0.3304  0.1475
 1631TIP3    H126452   0.841   0.109   6.398 -1.9364  0.6986 -0.2940
 1631TIP3    H226453   0.808   0.247   6.450 -1.2199 -0.2752  2.9246
 1632TIP3   OH226454   1.179   1.066   6.597 -0.5506 -0.0765  0.4957
 1632TIP3    H126455   1.214   1.014   6.526  2.4954  2.9695 -0.5107
 1632TIP3    H226456   1.210   1.023   6.677  0.9607 -0.4128 -0.2478
 1633TIP3   OH226457   1.444   3.455   7.280  0.0185 -0.0619 -0.0222
 1633TIP3    H126458   1.468   3.504   7.201 -0.8046  1.4188  0.6234
 1633TIP3    H226459   1.409   3.520   7.340 -0.7651 -1.3883  1.0239
 1634TIP3   OH226460   3.867   0.480   8.429 -0.1637 -0.4628  0.7241
 1634TIP3    H126461   3.867   0.562   8.478 -0.5137  0.3218 -0.5511
 1634TIP3    H226462   3.802   0.425   8.473 -0.8176  0.3990  0.8407
 1635TIP3   OH226463   3.441   4.132   7.908  0.2000  0.1272 -0.4085
 1635TIP3    H126464   3.467   4.071   7.977 -0.4082  1.4815  1.0784
 1635TIP3    H226465   3.471   4.217   7.939 -2.6392  1.2099 -0.3755
 1636TIP3   OH226466   5.876   6.721   8.040  0.1452  0.0324 -0.0428
 1636TIP3    H126467   5.856   6.646   7.985  0.2194 -0.7828  0.9971
 1636TIP3    H226468   5.843   6.797   7.991  0.0501 -0.6740 -1.0997
 1637TIP3   OH226469   4.316   1.413   0.823  0.0272  0.5001 -0.5129
 1637TIP3    H126470   4.271   1.411   0.907 -0.9781  0.4674 -1.0322
 1637TIP3    H226471   4.258   1.463   0.766  0.3173 -0.1283 -1.3857
 1638TIP3   OH226472   2.602   4.853   6.993  0.3548  0.0108  0.2229
 1638TIP3    H126473   2.585   4.778   7.050 -2.0483 -0.2726 -0.7344
 1638TIP3    H226474   2.517   4.871   6.951  1.5462  1.4633 -1.7427
 1639TIP3   OH226475   4.632   3.954   2.136 -0.3231  0.2416  0.3237
 1639TIP3    H126476   4.704   4.015   2.122 -0.7620  0.5923 -0.4771
 1639TIP3    H226477   4.675   3.869   2.145  0.2330  0.5403  0.5612
 1640TIP3   OH226478   0.842   5.650   0.063 -0.0981 -0.0593 -0.0844
 1640TIP3    H126479   0.800   5.733   0.038 -2.5300 -1.4288 -0.9208
 1640TIP3    H226480   0.934   5.662   0.040 -0.7989  1.5697 -2.4333
 1641TIP3   OH226481   3.369   6.431   7.763 -0.0955 -0.1825 -0.0379
 1641TIP3    H126482   3.375   6.400   7.853 -0.8720 -0.5220 -0.0925
 1641TIP3    H226483   3.299   6.497   7.765  0.0634 -0.0014 -0.3426
 1642TIP3   OH226484   2.244   4.688   6.438  0.3619  0.2254 -0.1516
 1642TIP3    H126485   2.318   4.629   6.445  0.1762 -0.0602 -0.5234
 1642TIP3    H226486   2.281   4.770   6.405  0.8743  0.8504  1.8173
 1643TIP3   OH226487   1.930   6.135   0.267 -0.5811  0.3648 -0.1227
 1643TIP3    H126488   1.869   6.170   0.202  2.2864  2.5722 -1.9055
 1643TIP3    H226489   2.010   6.186   0.253  1.2028 -1.2989  3.0713
 1644TIP3   OH226490   6.597   4.752   6.338  0.4179 -0.2604 -0.2645
 1644TIP3    H126491   6.590   4.795   6.252 -0.5935 -0.0280 -0.0856
 1644TIP3    H226492   6.553   4.812   6.398  2.6600  0.4393  0.7706
 1645TIP3   OH226493   2.752   5.978   1.608  0.0082  0.1150 -0.0242
 1645TIP3    H126494   2.803   5.897   1.605  0.3811  0.3544 -0.1674
 1645TIP3    H226495   2.708   5.975   1.693 -0.2567 -0.4064 -0.1770
 1646TIP3   OH226496   3.338   6.764   7.384  0.1343  0.6256  1.0721
 1646TIP3    H126497   3.264   6.721   7.342 -0.8705  1.9749  1.4039
 1646TIP3    H226498   3.389   6.693   7.422 -0.7694 -0.3520  0.4964
 1647TIP3   OH226499   4.629   5.687   7.290 -0.0516 -0.3501  0.4034
 1647TIP3    H126500   4.721   5.703   7.270  0.0339 -1.8191 -0.5278
 1647TIP3    H226501   4.582   5.759   7.248  0.6842  0.8131  1.4786
 1648TIP3   OH226502   4.336   4.468   8.846 -0.5495  0.1788  0.3969
 1648TIP3    H126503   4.250   4.449   8.809 -0.2800 -1.9193  0.7171
 1648TIP3    H226504   4.384   4.510   8.774 -1.2635 -0.2882 -0.3763
 1649TIP3   OH226505   4.760   3.305   0.474  0.0880 -0.2582 -0.2799
 1649TIP3    H126506   4.827   3.264   0.529  1.2446  0.8436 -0.8055
 1649TIP3    H226507   4.702   3.349   0.536  0.6452 -0.0781  0.1239
 1650TIP3   OH226508   4.706   0.457   0.783  0.2349  0.0976  0.4516
 1650TIP3    H126509   4.684   0.507   0.861  0.0969  0.4460  0.1909
 1650TIP3    H226510   4.709   0.366   0.813  0.7996  0.2876  0.9920
 1651TIP3   OH226511   3.785   5.138   0.569 -0.2707 -0.1847 -0.5738
 1651TIP3    H126512   3.722   5.154   0.499  0.6166  0.5674 -1.2160
 1651TIP3    H226513   3.867   5.176   0.537  0.3613 -0.6055  0.5040
 1652TIP3   OH226514   4.801   4.048   0.892 -0.5878  0.0493 -0.2710
 1652TIP3    H126515   4.894   4.070   0.885 -0.3971 -0.8128 -0.7173
 1652TIP3    H226516   4.777   4.070   0.982  0.7732 -2.2027  0.7545
 1653TIP3   OH226517   6.109   4.393   0.575  0.3623  0.0786 -0.7619
 1653TIP3    H126518   6.051   4.464   0.601 -0.5592 -1.0102  0.2610
 1653TIP3    H226519   6.195   4.417   0.610 -0.0660  0.4213  0.0604
 1654TIP3   OH226520   0.303   6.089   2.221 -0.4334 -0.3798  0.4062
 1654TIP3    H126521   0.214   6.096   2.256 -0.9241 -1.5751 -0.5243
 1654TIP3    H226522   0.298   6.018   2.156  1.0687 -0.0864 -0.0739
 1655TIP3   OH226523   1.848   5.309   7.822 -0.4311  0.0974 -0.1608
 1655TIP3    H126524   1.834   5.300   7.728  0.0317  0.9016 -0.3063
 1655TIP3    H226525   1.814   5.227   7.858  0.2799 -0.6479 -1.1126
 1656TIP3   OH226526   2.867   2.050   0.422  0.4329  0.1514  0.5970
 1656TIP3    H126527   2.849   2.130   0.372  1.6067  1.3173  1.9285
 1656TIP3    H226528   2.959   2.033   0.407  0.3573 -0.5404  0.8915
 1657TIP3   OH226529   5.488   1.914   0.563 -0.9384 -0.3263 -0.6473
 1657TIP3    H126530   5.496   2.005   0.591  0.4749 -0.6311  0.0067
 1657TIP3    H226531   5.401   1.887   0.593 -0.6825  0.2864  0.6943
 1658TIP3   OH226532   4.539   6.433   6.652 -0.3524 -0.4983  0.2214
 1658TIP3    H126533   4.616   6.459   6.601  0.1229 -0.5803  0.8851
 1658TIP3    H226534   4.529   6.340   6.635 -0.6310 -0.3829 -0.2819
 1659TIP3   OH226535   4.422   1.663   7.874  0.2000  0.2492  0.0713
 1659TIP3    H126536   4.403   1.645   7.966  2.9794  1.5493  1.0091
 1659TIP3    H226537   4.460   1.751   7.875  1.6081 -0.2785 -2.1367
 1660TIP3   OH226538   0.842   1.868   0.370  0.2088 -0.4204  0.7269
 1660TIP3    H126539   0.828   1.861   0.464  0.5961 -2.0548  0.6879
 1660TIP3    H226540   0.903   1.797   0.349 -0.5535 -0.6484 -0.8861
 1661TIP3   OH226541   2.448   0.429   8.850  1.1014 -0.1575 -0.2884
 1661TIP3    H126542   2.466   0.416   8.943  2.4734 -0.4618 -0.5840
 1661TIP3    H226543   2.362   0.471   8.849 -0.1270 -2.4231  1.0111
 1662TIP3   OH226544   4.528   4.936   6.245  0.6167 -0.0480 -0.2544
 1662TIP3    H126545   4.531   4.851   6.290  0.1856 -0.7645 -1.5407
 1662TIP3    H226546   4.618   4.954   6.221  0.8284  0.2592  0.7083
 1663TIP3   OH226547   3.382   0.655   1.460 -0.0779 -0.0091  0.0591
 1663TIP3    H126548   3.335   0.575   1.482  0.0270 -0.7014 -2.0697
 1663TIP3    H226549   3.472   0.628   1.448 -0.3244  0.0676 -2.3247
 1664TIP3   OH226550   0.085   0.622   1.108  0.1017  0.3417 -0.1693
 1664TIP3    H126551   0.170   0.588   1.082  0.4108  0.5444  0.5469
 1664TIP3    H226552   0.024   0.586   1.044  0.8639  1.0610 -1.3309
 1665TIP3   OH226553   3.768   2.387   1.486 -0.3514 -0.5357 -0.2806
 1665TIP3    H126554   3.732   2.471   1.458 -1.2668  0.3159  2.9410
 1665TIP3    H226555   3.834   2.410   1.551  2.1829 -2.2890 -2.0551
 1666TIP3   OH226556   4.285   4.414   7.176 -0.0036  0.0854  0.2861
 1666TIP3    H126557   4.305   4.411   7.082 -0.6837 -4.6361  0.0429
 1666TIP3    H226558   4.362   4.376   7.218 -1.0253 -1.0435  1.2116
 1667TIP3   OH226559   3.213   1.525   0.340 -0.0580  0.5155  0.7940
 1667TIP3    H126560   3.244   1.494   0.255 -1.0743 -0.5578  0.7894
 1667TIP3    H226561   3.232   1.619   0.340  0.4336  0.4332 -0.3988
 1668TIP3   OH226562   0.817   0.311   0.198 -0.5852 -0.3759  0.2673
 1668TIP3    H126563   0.776   0.325   0.283 -2.1022 -0.7258 -0.3651
 1668TIP3    H226564   0.786   0.383   0.144  0.5283 -0.0463  0.0468
 1669TIP3   OH226565   4.734   0.327   1.697  0.4308  0.0451  0.9809
 1669TIP3    H126566   4.649   0.328   1.742  0.3172  0.6907  0.7636
 1669TIP3    H226567   4.728   0.253   1.637 -0.9561  1.5393 -0.8353
 1670TIP3   OH226568   1.730   1.386   6.908  0.0872  0.2053 -0.3817
 1670TIP3    H126569   1.798   1.321   6.926 -1.4955 -0.7536  2.9293
 1670TIP3    H226570   1.659   1.337   6.867  1.0070  1.0953 -3.2815
 1671TIP3   OH226571   4.491   1.013   1.447  0.2092  0.4012  0.2946
 1671TIP3    H126572   4.507   0.961   1.526 -1.0549  1.4336  1.2619
 1671TIP3    H226573   4.516   0.954   1.375  2.8956 -0.0207  1.4477
 1672TIP3   OH226574   0.885   4.461   0.745  0.3893  0.0793 -0.3888
 1672TIP3    H126575   0.935   4.470   0.826  2.7875  2.7249 -2.0093
 1672TIP3    H226576   0.800   4.500   0.766  0.8044  0.3453  0.9588
 1673TIP3   OH226577   3.550   4.341   0.790 -0.2665  0.0745 -0.7371
 1673TIP3    H126578   3.629   4.378   0.830  0.0563 -2.4903  1.2413
 1673TIP3    H226579   3.480   4.359   0.851 -0.5421 -0.5409 -0.8581
 1674TIP3   OH226580   2.480   0.313   7.626  0.1046  0.0946  0.5216
 1674TIP3    H126581   2.494   0.218   7.631 -2.6576 -0.3382  2.2516
 1674TIP3    H226582   2.407   0.323   7.565 -0.4089  0.9510  1.2500
 1675TIP3   OH226583   5.854   2.729   8.190 -0.5168 -0.5125 -0.0049
 1675TIP3    H126584   5.932   2.674   8.200  0.3709  0.8456  0.8943
 1675TIP3    H226585   5.885   2.806   8.141 -1.5735 -0.4969 -0.6760
 1676TIP3   OH226586   6.623   3.173   1.510 -0.2433  0.3769 -0.1725
 1676TIP3    H126587   6.528   3.184   1.518 -0.4865 -0.6655 -1.3705
 1676TIP3    H226588   6.659   3.225   1.582 -1.6317  2.2279 -0.7424
 1677TIP3   OH226589   3.418   2.052   7.030 -0.0551 -0.1881  0.3775
 1677TIP3    H126590   3.414   2.064   6.935 -0.6770 -1.1567  0.2612
 1677TIP3    H226591   3.512   2.047   7.050  0.1069  1.0472 -0.0332
 1678TIP3   OH226592   1.762   0.957   0.040 -0.1405  0.1536  0.1178
 1678TIP3    H126593   1.848   0.920   0.058  0.0839  0.1916 -0.8325
 1678TIP3    H226594   1.757   1.036   0.093  0.5473  0.3366 -0.0872
 1679TIP3   OH226595   5.580   4.309   0.916 -0.0112 -0.3569  0.3856
 1679TIP3    H126596   5.603   4.251   0.844 -0.8711  1.0096 -1.0459
 1679TIP3    H226597   5.588   4.254   0.994  2.6690 -1.3934 -0.5199
 1680TIP3   OH226598   1.639   2.642   1.618 -0.0866 -0.0714 -0.3191
 1680TIP3    H126599   1.671   2.716   1.670 -1.5979  0.2065  0.2667
 1680TIP3    H226600   1.644   2.672   1.527  1.1960 -0.0181 -0.2487
 1681TIP3   OH226601   2.864   1.925   8.753  0.5179  0.1315 -0.0802
 1681TIP3    H126602   2.927   1.971   8.807 -0.0628 -0.4635  1.1370
 1681TIP3    H226603   2.784   1.922   8.805 -0.4473  0.5895 -1.4592
 1682TIP3   OH226604   5.907   1.618   8.769  0.4687 -0.0795 -0.2392
 1682TIP3    H126605   5.820   1.614   8.730  1.1474  0.3382 -1.8799
 1682TIP3    H226606   5.933   1.710   8.758  1.3391 -0.3273 -0.2720
 1683TIP3   OH226607   5.424   2.676   7.429  0.2222 -0.3288  0.3728
 1683TIP3    H126608   5.434   2.586   7.401 -1.5890  0.4216 -3.2599
 1683TIP3    H226609   5.510   2.701   7.462  1.1321 -2.9227  0.1533
 1684TIP3   OH226610   2.368   3.460   0.155 -0.3604  0.4703 -0.4382
 1684TIP3    H126611   2.459   3.487   0.152 -0.5576  1.2027 -0.0909
 1684TIP3    H226612   2.367   3.373   0.115  0.5808  0.1871  0.1295
 1685TIP3   OH226613   0.057   3.178   1.341 -0.4421 -0.1198  0.1051
 1685TIP3    H126614  -0.004   3.166   1.414 -1.1814 -0.8566 -0.6077
 1685TIP3    H226615   0.013   3.136   1.266  0.7340 -0.2487 -0.5348
 1686TIP3   OH226616   2.506   1.644   8.617 -0.5258  0.6246  0.0242
 1686TIP3    H126617   2.442   1.707   8.648 -0.0440  0.9874  0.3040
 1686TIP3    H226618   2.590   1.678   8.648 -0.0276  0.9438 -1.5957
 1687TIP3   OH226619   2.911   2.066   6.524 -0.1147 -0.4386  0.4731
 1687TIP3    H126620   2.913   1.974   6.499  0.1980 -0.7111  1.4521
 1687TIP3    H226621   2.851   2.070   6.599  0.8402 -0.0723  1.2429
 1688TIP3   OH226622   6.313   5.021   8.423  0.2961 -0.2396  0.5172
 1688TIP3    H126623   6.307   5.097   8.480 -2.3877 -0.8687  1.1878
 1688TIP3    H226624   6.349   4.951   8.478  3.3874  0.5488 -0.2644
 1689TIP3   OH226625   4.333   6.122   0.139 -0.7984 -0.4919  0.6360
 1689TIP3    H126626   4.361   6.065   0.210 -0.8438 -3.7214 -1.7078
 1689TIP3    H226627   4.248   6.087   0.112 -0.4292  0.0851 -1.4856
 1690TIP3   OH226628   3.992   5.234   1.554  0.1642 -0.1381  0.2598
 1690TIP3    H126629   3.991   5.281   1.638  0.5720  0.6136 -0.1458
 1690TIP3    H226630   3.900   5.231   1.527 -0.2168 -1.9655  1.5742
 1691TIP3   OH226631   6.416   1.776   7.502 -0.1787  0.4689  0.4685
 1691TIP3    H126632   6.328   1.741   7.513 -0.6594  1.7687  0.8284
 1691TIP3    H226633   6.403   1.867   7.477  1.0434  0.2532 -1.1266
 1692TIP3   OH226634   4.147   0.323   8.756 -0.0407  0.1226  0.6054
 1692TIP3    H126635   4.114   0.312   8.666  2.8083 -0.1692 -0.5128
 1692TIP3    H226636   4.206   0.249   8.768  1.6114  1.5759  1.7490
 1693TIP3   OH226637   3.416   4.443   7.032 -0.6060 -0.2410  0.0363
 1693TIP3    H126638   3.408   4.507   6.962  2.2287 -1.4010 -1.4991
 1693TIP3    H226639   3.457   4.366   6.991  1.9770 -0.7025  3.0389
 1694TIP3   OH226640   2.446   5.448   0.572 -0.4917  0.5361  0.1478
 1694TIP3    H126641   2.465   5.369   0.520 -1.7405 -0.3536  0.9785
 1694TIP3    H226642   2.461   5.521   0.512  0.8471 -0.3104 -0.6014
 1695TIP3   OH226643   5.621   3.288   2.193  0.0414  0.1042 -0.1191
 1695TIP3    H126644   5.671   3.364   2.163  2.6406 -1.2665  0.4203
 1695TIP3    H226645   5.686   3.231   2.233 -2.4082 -0.6116  3.2883
 1696TIP3   OH226646   2.012   4.529   8.541  0.0003  0.2957  0.6452
 1696TIP3    H126647   1.959   4.600   8.506 -0.5199 -0.5945 -0.4512
 1696TIP3    H226648   1.956   4.487   8.606  0.4904  1.1658  1.6540
 1697TIP3   OH226649   3.342   3.420   0.145 -0.1279  0.2257  0.1039
 1697TIP3    H126650   3.342   3.414   0.241 -0.4566  1.0810  0.1652
 1697TIP3    H226651   3.271   3.363   0.117 -1.8913  2.1039  0.5439
 1698TIP3   OH226652   1.543   4.646   7.144  0.8005 -0.3713 -0.2911
 1698TIP3    H126653   1.484   4.667   7.217  0.8189  1.8268 -0.8396
 1698TIP3    H226654   1.600   4.577   7.178  0.1025 -0.1657  1.3945
 1699TIP3   OH226655   3.399   5.303   2.221  0.0535  0.2725  0.3300
 1699TIP3    H126656   3.320   5.285   2.272  0.4820  0.1026  0.9588
 1699TIP3    H226657   3.413   5.224   2.169  0.5084 -0.2276  1.1776
 1700TIP3   OH226658   1.310   1.375   7.652  0.2146  0.6847  0.0846
 1700TIP3    H126659   1.368   1.425   7.595 -1.3263  0.1957 -2.0595
 1700TIP3    H226660   1.223   1.414   7.638 -1.0658 -2.3849 -1.7111
 1701TIP3   OH226661   5.061   1.885   7.405 -0.2138 -0.0939 -0.2266
 1701TIP3    H126662   5.082   1.972   7.371 -1.0228 -0.0914 -0.7387
 1701TIP3    H226663   4.969   1.891   7.430 -0.2004 -0.7291 -0.0267
 1702TIP3   OH226664   6.007   5.792   0.354  0.3527 -0.1373  0.5756
 1702TIP3    H126665   5.924   5.840   0.351  0.0238 -0.7636 -0.9234
 1702TIP3    H226666   6.066   5.851   0.401 -0.7812  0.5538  1.1893
 1703TIP3   OH226667   1.356   4.764   1.473  0.2198  0.0841  0.1434
 1703TIP3    H126668   1.268   4.780   1.507 -0.5066 -1.5457 -0.8687
 1703TIP3    H226669   1.402   4.846   1.487 -2.3832  2.1070 -2.1951
 1704TIP3   OH226670   5.951   0.719   2.479 -0.1120  0.3201  0.0882
 1704TIP3    H126671   6.016   0.786   2.500 -0.3269  0.1091  1.5205
 1704TIP3    H226672   5.914   0.694   2.564 -1.3470 -0.2871 -0.6050
 1705TIP3   OH226673   4.314   4.727   7.421 -0.4277  0.1041  0.7537
 1705TIP3    H126674   4.315   4.640   7.460 -1.2605  0.8713  2.6235
 1705TIP3    H226675   4.274   4.783   7.489  1.5519  2.2424  0.2740
 1706TIP3   OH226676   6.147   1.755   1.741 -0.0861 -0.1731  0.5406
 1706TIP3    H126677   6.103   1.678   1.705 -2.3695 -0.4586  3.5141
 1706TIP3    H226678   6.097   1.829   1.707  0.8123 -0.0847 -0.6512
 1707TIP3   OH226679   3.231   2.051   0.936  0.4109 -0.3491 -0.2966
 1707TIP3    H126680   3.238   2.001   0.854 -1.5159  0.5213 -1.0604
 1707TIP3    H226681   3.217   2.142   0.907 -0.7314 -0.0962  0.9890
 1708TIP3   OH226682   1.069   2.363   7.941 -0.5703 -0.4519 -0.1390
 1708TIP3    H126683   1.150   2.326   7.905 -1.6969 -0.3240 -3.0796
 1708TIP3    H226684   1.001   2.334   7.880 -2.2924  1.8879  0.5512
 1709TIP3   OH226685   1.665   4.836   0.068  0.0749  0.0804 -0.5136
 1709TIP3    H126686   1.587   4.881   0.100  0.9949  0.8917  0.7015
 1709TIP3    H226687   1.660   4.844  -0.028 -1.1389  0.4308 -0.4369
 1710TIP3   OH226688   6.681   6.196   7.695  0.0030 -0.6462 -0.7252
 1710TIP3    H126689   6.734   6.157   7.765  0.4503 -0.1625 -0.7795
 1710TIP3    H226690   6.743   6.254   7.649 -0.0609 -1.6011 -2.0576
 1711TIP3   OH226691   3.787   6.584   1.355 -0.1782  0.5623 -0.3415
 1711TIP3    H126692   3.864   6.596   1.299 -0.1115  1.3392 -0.1074
 1711TIP3    H226693   3.727   6.654   1.328 -0.2765  0.7446  0.3283
 1712TIP3   OH226694   1.719   6.344   1.276 -0.7447 -0.1221  0.5164
 1712TIP3    H126695   1.728   6.250   1.292  0.4870  0.1581  1.6650
 1712TIP3    H226696   1.703   6.382   1.362 -1.7405  0.6774 -0.0088
 1713TIP3   OH226697   3.471   3.564   7.603  0.5105  0.0039 -0.5003
 1713TIP3    H126698   3.544   3.619   7.633  0.4826 -1.0498  1.7035
 1713TIP3    H226699   3.401   3.626   7.583  0.0651  0.8859  3.0746
 1714TIP3   OH226700   2.495   5.703   8.689 -0.3233  0.5952  0.2141
 1714TIP3    H126701   2.590   5.705   8.703 -0.5953 -0.4496  2.6458
 1714TIP3    H226702   2.476   5.786   8.645  1.7350  0.6830 -0.6465
 1715TIP3   OH226703   2.572   6.672   8.452  0.3658  0.1304 -1.1648
 1715TIP3    H126704   2.658   6.685   8.492  0.0547  1.6922 -0.9521
 1715TIP3    H226705   2.588   6.678   8.357  0.5412 -0.0096 -1.1458
 1716TIP3   OH226706   3.899   2.880   8.647  0.3273 -0.4333  0.4128
 1716TIP3    H126707   3.831   2.875   8.714 -0.2535 -0.5760 -0.1863
 1716TIP3    H226708   3.903   2.792   8.610  1.5248 -0.7056  1.1030
 1717TIP3   OH226709   4.710   6.107   6.770  0.5881  0.0066  0.3764
 1717TIP3    H126710   4.739   6.153   6.691 -1.7699 -1.6841 -1.6330
 1717TIP3    H226711   4.748   6.020   6.763 -0.5493 -0.5151  0.4969
 1718TIP3   OH226712   1.427   6.719   7.868 -0.0782 -0.5779 -0.6176
 1718TIP3    H126713   1.383   6.651   7.816 -0.0941 -1.4081  0.4359
 1718TIP3    H226714   1.515   6.685   7.882 -0.3246 -0.7716  0.5775
 1719TIP3   OH226715   1.575   2.054   7.676  0.3104  0.0833  0.1731
 1719TIP3    H126716   1.516   2.129   7.669  0.8856  0.6607  1.1812
 1719TIP3    H226717   1.586   2.041   7.770  1.5226 -0.2224  0.0060
 1720TIP3   OH226718   6.619   1.685   1.310  0.4546  0.0997  0.0756
 1720TIP3    H126719   6.578   1.601   1.330 -0.2017  0.5526  0.6695
 1720TIP3    H226720   6.692   1.663   1.253 -0.8520 -0.6729 -1.3457
 1721TIP3   OH226721   0.090   2.204   8.550 -0.0983 -0.5053  0.6476
 1721TIP3    H126722   0.024   2.156   8.601 -1.4277  0.8905  0.2767
 1721TIP3    H226723   0.171   2.154   8.565 -0.8031 -1.1429  2.6962
 1722TIP3   OH226724   4.312   0.700   1.077  0.6074 -0.1625  0.5780
 1722TIP3    H126725   4.351   0.786   1.063  2.2850 -0.7909  1.0277
 1722TIP3    H226726   4.303   0.692   1.172 -0.9899  0.0899  0.4721
 1723TIP3   OH226727   5.768   3.748   0.216 -0.1569 -0.1416 -0.7307
 1723TIP3    H126728   5.741   3.696   0.141  0.0776 -2.2225  0.5447
 1723TIP3    H226729   5.828   3.691   0.265 -0.1162  1.2143  0.8963
 1724TIP3   OH226730   6.654   3.996   0.254  0.0907  0.1121 -0.5074
 1724TIP3    H126731   6.609   3.938   0.314 -0.2306 -0.0016 -0.8580
 1724TIP3    H226732   6.670   3.943   0.176 -2.0070  1.0419 -1.6394
 1725TIP3   OH226733   2.104   1.894   2.165  0.3259 -0.2233  0.2511
 1725TIP3    H126734   2.026   1.882   2.219 -0.6849 -0.3441 -1.1768
 1725TIP3    H226735   2.135   1.982   2.187 -0.1380 -0.2191  0.9210
 1726TIP3   OH226736   1.859   6.673   1.745 -0.2765 -0.0433 -0.4162
 1726TIP3    H126737   1.883   6.582   1.727 -1.6237 -0.3830 -0.6218
 1726TIP3    H226738   1.812   6.669   1.828 -1.6352  0.2279 -1.1500
 1727TIP3   OH226739   4.061   2.503   1.387 -0.2487  0.4426 -0.4057
 1727TIP3    H126740   4.076   2.422   1.435  2.1010  0.8391 -0.3423
 1727TIP3    H226741   4.053   2.570   1.455  0.1379  0.5862 -0.4997
 1728TIP3   OH226742   1.759   3.287   1.443  0.4332 -0.3031  0.4774
 1728TIP3    H126743   1.733   3.297   1.534 -0.8932 -1.0208  0.2106
 1728TIP3    H226744   1.844   3.244   1.447  1.4432  1.6387  1.3848
 1729TIP3   OH226745   2.070   2.365   0.561  0.5914  0.5453  0.5043
 1729TIP3    H126746   2.108   2.284   0.596  1.0890  0.4357 -0.2528
 1729TIP3    H226747   2.057   2.421   0.637  0.3145 -0.2186  1.0304
 1730TIP3   OH226748   6.137   3.144   7.727  0.2299  0.4427  0.3460
 1730TIP3    H126749   6.068   3.177   7.784 -0.8682 -0.7939 -0.2120
 1730TIP3    H226750   6.091   3.104   7.653  1.4946 -0.8291  0.1877
 1731TIP3   OH226751   6.011   0.410   1.352  0.1313  0.1384  0.3113
 1731TIP3    H126752   6.085   0.357   1.323 -0.8043 -0.4566 -1.0557
 1731TIP3    H226753   6.002   0.389   1.445 -0.9639 -3.1222 -0.4004
 1732TIP3   OH226754   4.420   2.588   7.228  0.6404  0.0094 -0.8305
 1732TIP3    H126755   4.439   2.582   7.134  0.4814  2.1783 -1.0646
 1732TIP3    H226756   4.348   2.527   7.242  0.3181  0.0315 -2.2422
 1733TIP3   OH226757   2.138   2.928   8.480 -0.8576  0.2303  0.1320
 1733TIP3    H126758   2.135   2.837   8.451 -1.0556  0.0610  0.6720
 1733TIP3    H226759   2.065   2.936   8.542 -0.4451  0.5894  0.5780
 1734TIP3   OH226760   0.025   4.718   8.601 -0.5599  0.2205  0.4219
 1734TIP3    H126761  -0.020   4.783   8.548  1.6263  0.8200 -0.8350
 1734TIP3    H226762   0.016   4.749   8.691 -1.5261  0.9921  0.0631
 1735TIP3   OH226763   3.015   0.927   7.835  0.2809 -0.7679 -0.1908
 1735TIP3    H126764   3.046   0.862   7.773 -0.9745 -0.7916 -0.8369
 1735TIP3    H226765   2.977   0.877   7.907  0.1250 -0.7569 -0.2635
 1736TIP3   OH226766   2.241   2.349   0.270 -0.3194 -0.2572  0.3509
 1736TIP3    H126767   2.252   2.420   0.208 -0.3783 -0.7269 -0.2060
 1736TIP3    H226768   2.171   2.377   0.328  0.2023  0.4806  0.6397
 1737TIP3   OH226769   1.007   1.856   8.301  0.4691 -0.1339 -0.1086
 1737TIP3    H126770   0.969   1.891   8.381 -1.9987 -0.3407 -1.0930
 1737TIP3    H226771   1.043   1.771   8.326  0.9685  0.3941  1.0283
 1738TIP3   OH226772   0.793   6.328   7.623  0.3140 -0.2295 -0.4238
 1738TIP3    H126773   0.743   6.409   7.612  0.3759 -0.1854 -0.3833
 1738TIP3    H226774   0.727   6.258   7.615  0.1346 -0.1465  0.3227
 1739TIP3   OH226775   0.737   0.419   7.966 -0.0598  0.0985  0.1126
 1739TIP3    H126776   0.682   0.355   8.011  0.5798 -0.7047 -0.2352
 1739TIP3    H226777   0.716   0.408   7.873  0.8927 -0.4290 -0.0534
 1740TIP3   OH226778   5.694   1.473   0.713 -0.5266 -0.3448  0.0980
 1740TIP3    H126779   5.664   1.418   0.786 -0.0985 -2.6473 -1.3523
 1740TIP3    H226780   5.685   1.563   0.745 -3.1900 -1.1333  1.9022
 1741TIP3   OH226781   4.409   3.067   0.632  0.1311  0.2011 -0.7169
 1741TIP3    H126782   4.356   2.990   0.609 -1.0291  1.3703 -2.1701
 1741TIP3    H226783   4.354   3.115   0.694  0.9463 -0.2194  0.3557
 1742TIP3   OH226784   1.661   1.471   8.323  0.1067 -0.0655 -0.0554
 1742TIP3    H126785   1.745   1.518   8.322  0.1298  0.0301 -3.2902
 1742TIP3    H226786   1.682   1.385   8.288 -1.0093 -0.3637  0.0049
 1743TIP3   OH226787   4.854   1.542   6.502  0.5879 -0.2036  0.2900
 1743TIP3    H126788   4.800   1.486   6.558  1.7965 -0.8142  0.8907
 1743TIP3    H226789   4.910   1.481   6.454  2.7600  0.4713  1.8222
 1744TIP3   OH226790   4.115   6.704   8.849  0.2159 -0.7142  0.3689
 1744TIP3    H126791   4.043   6.715   8.910 -0.2302 -1.4058 -0.0173
 1744TIP3    H226792   4.095   6.763   8.777  0.4341 -0.3379  0.6175
 1745TIP3   OH226793   1.732   1.460   0.011 -0.5951 -0.1572  0.0692
 1745TIP3    H126794   1.729   1.476  -0.083 -1.9029 -0.4828  0.0437
 1745TIP3    H226795   1.658   1.403   0.029 -1.2557  1.0802  1.5212
 1746TIP3   OH226796   5.128   0.604   0.604 -0.1690 -0.5616  0.4174
 1746TIP3    H126797   5.159   0.641   0.687  2.0063 -0.4261 -0.4092
 1746TIP3    H226798   5.111   0.680   0.548 -0.5743 -0.6925  0.3541
 1747TIP3   OH226799   2.448   0.735   1.532 -0.1423  0.5197  0.1810
 1747TIP3    H126800   2.442   0.713   1.625 -0.4211  1.0191  0.2862
 1747TIP3    H226801   2.531   0.783   1.525  1.1334 -1.6286 -0.2823
 1748TIP3   OH226802   6.428   0.413   1.689  0.5491  0.3529  0.4595
 1748TIP3    H126803   6.418   0.361   1.769  0.0414  0.5023  0.4992
 1748TIP3    H226804   6.476   0.491   1.717  2.5499 -0.7222  0.1222
 1749TIP3   OH226805   0.591   4.860   2.597  0.4989  0.2562  0.5941
 1749TIP3    H126806   0.579   4.955   2.605  0.0462  0.2163  0.3729
 1749TIP3    H226807   0.683   4.846   2.620  0.8551  0.8714 -0.3802
 1750TIP3   OH226808   0.512   6.475   7.598  0.1226 -0.3594 -0.3652
 1750TIP3    H126809   0.466   6.396   7.624 -0.5103  0.3090  0.6362
 1750TIP3    H226810   0.456   6.547   7.628 -0.0147  0.4888 -2.4962
 1751TIP3   OH226811   3.428   5.661   7.891 -0.7782 -0.2191  0.1367
 1751TIP3    H126812   3.456   5.616   7.812 -1.0135  0.8578 -0.5714
 1751TIP3    H226813   3.334   5.677   7.877 -1.1059 -1.0569  1.1547
 1752TIP3   OH226814   0.360   2.266   7.298  0.5357  0.6231  0.3074
 1752TIP3    H126815   0.328   2.242   7.211 -0.0914  1.4731  0.2856
 1752TIP3    H226816   0.300   2.223   7.359 -0.6605  2.1430  0.2677
 1753TIP3   OH226817   4.041   6.584   1.255  0.1589 -0.5852  0.1128
 1753TIP3    H126818   4.100   6.514   1.284 -0.4231 -1.3019 -0.3798
 1753TIP3    H226819   4.099   6.654   1.225  0.7571 -1.0661  0.1231
 1754TIP3   OH226820   1.638   2.439   0.735 -0.3303 -0.4290  0.0698
 1754TIP3    H126821   1.599   2.509   0.788  2.8969  0.2535  1.7913
 1754TIP3    H226822   1.698   2.484   0.675 -0.4506 -1.5429 -0.9199
 1755TIP3   OH226823   3.236   1.034   0.578  0.4337 -0.3613  0.2307
 1755TIP3    H126824   3.235   1.121   0.539 -0.0371 -1.2589 -1.9276
 1755TIP3    H226825   3.329   1.012   0.586  0.5693 -0.6309 -1.6604
 1756TIP3   OH226826   4.674   1.797   8.065 -0.0755  0.5779 -0.2436
 1756TIP3    H126827   4.602   1.845   8.023  0.1587  1.7653  0.6786
 1756TIP3    H226828   4.691   1.845   8.146  0.4937 -0.7972  0.4848
 1757TIP3   OH226829   5.019   4.624   0.578  0.1248 -0.4023  0.1881
 1757TIP3    H126830   5.065   4.649   0.498  1.1807 -0.6170  0.7118
 1757TIP3    H226831   4.940   4.580   0.547 -0.4111  1.1496 -0.7306
 1758TIP3   OH226832   3.957   4.238   0.835  0.4226  0.2905 -0.3297
 1758TIP3    H126833   3.939   4.317   0.783 -3.1762  0.5972  1.0681
 1758TIP3    H226834   4.032   4.261   0.889  0.1122  2.4017 -0.7023
 1759TIP3   OH226835   1.406   2.892   1.964 -0.2416  0.3652  0.5865
 1759TIP3    H126836   1.324   2.843   1.973  0.0772 -0.5965 -1.2341
 1759TIP3    H226837   1.426   2.921   2.053 -2.8480  1.1686  0.9909
 1760TIP3   OH226838   6.571   4.218   0.950 -0.5241 -0.0007 -0.5266
 1760TIP3    H126839   6.552   4.308   0.979 -1.5826 -0.9911  2.2876
 1760TIP3    H226840   6.654   4.224   0.905 -1.4575  2.6689 -2.1298
 1761TIP3   OH226841   3.087   2.720   6.373 -0.3529  0.1779  0.5306
 1761TIP3    H126842   3.019   2.736   6.307 -1.3266 -1.7369  0.9910
 1761TIP3    H226843   3.039   2.719   6.456  0.6936  1.4604  1.1889
 1762TIP3   OH226844   4.633   1.971   2.323  0.4784 -0.1208 -0.0855
 1762TIP3    H126845   4.713   1.988   2.274  0.1150  1.1064 -0.2806
 1762TIP3    H226846   4.585   2.054   2.321  0.6011  0.1111  2.6265
 1763TIP3   OH226847   1.304   2.233   0.267  0.3972  0.5781 -0.1606
 1763TIP3    H126848   1.233   2.194   0.216  0.5510  1.7681 -1.3357
 1763TIP3    H226849   1.267   2.316   0.299  0.6663  0.3528  0.7726
 1764TIP3   OH226850   2.487   1.170   1.561 -0.2908  0.4595  0.1678
 1764TIP3    H126851   2.563   1.157   1.504 -0.9120  1.2720 -0.8956
 1764TIP3    H226852   2.422   1.210   1.504 -1.9322 -1.2350  0.7583
 1765TIP3   OH226853   2.023   4.116   0.805 -0.9322 -0.3615  0.0343
 1765TIP3    H126854   1.953   4.121   0.870 -0.3141  0.7587  0.6225
 1765TIP3    H226855   2.104   4.120   0.855 -0.4220 -1.5827 -0.6512
 1766TIP3   OH226856   1.678   0.854   1.725  0.8495 -0.1754  0.1835
 1766TIP3    H126857   1.678   0.758   1.724  1.8161 -0.1911  0.7597
 1766TIP3    H226858   1.728   0.878   1.802 -0.3801  0.8183  0.7067
 1767TIP3   OH226859   4.670   2.203   0.197  0.0444 -0.2912  0.0427
 1767TIP3    H126860   4.576   2.217   0.193  0.1084 -0.1026 -1.2340
 1767TIP3    H226861   4.708   2.288   0.177  0.4435 -0.9045 -2.1049
 1768TIP3   OH226862   3.316   0.432   0.452 -0.3106 -0.1865 -0.0034
 1768TIP3    H126863   3.366   0.352   0.468 -0.4042 -0.6530 -1.8345
 1768TIP3    H226864   3.364   0.500   0.499  1.0806 -0.9318 -0.2890
 1769TIP3   OH226865   0.501   2.529   6.954  0.5982  0.6613  0.7387
 1769TIP3    H126866   0.486   2.469   6.881  3.0494  1.2213 -0.3218
 1769TIP3    H226867   0.518   2.473   7.029  0.4045  0.0673  0.3436
 1770TIP3   OH226868   2.832   4.897   8.032  0.7039 -1.0852 -0.0082
 1770TIP3    H126869   2.787   4.980   8.046  1.9140 -0.2951 -0.5498
 1770TIP3    H226870   2.852   4.865   8.120 -0.4078 -1.1854  0.2209
 1771TIP3   OH226871   1.445   5.829   6.878 -0.5432  0.3184  0.3892
 1771TIP3    H126872   1.421   5.920   6.861 -1.5968  0.3835  1.9900
 1771TIP3    H226873   1.397   5.806   6.958 -1.2408 -2.0167 -0.6153
 1772TIP3   OH226874   0.797   4.342   7.377 -0.0557 -0.3677  0.6051
 1772TIP3    H126875   0.782   4.282   7.450  1.4354 -0.3304  0.9661
 1772TIP3    H226876   0.763   4.294   7.301  0.1115 -1.2168  1.0479
 1773TIP3   OH226877   5.358   4.456   7.512 -0.3737  0.1740 -0.4490
 1773TIP3    H126878   5.378   4.423   7.600 -2.6049 -1.9433 -0.6210
 1773TIP3    H226879   5.275   4.502   7.522 -0.2348  0.6356 -1.3196
 1774TIP3   OH226880   4.981   4.097   8.481  0.5279  0.9693 -0.5338
 1774TIP3    H126881   4.930   4.059   8.553  1.6311  0.4800  0.0070
 1774TIP3    H226882   4.934   4.069   8.402  0.0394  0.3989 -0.0600
 1775TIP3   OH226883   6.085   2.567   8.187  0.2242 -0.3286 -0.0140
 1775TIP3    H126884   6.102   2.489   8.136  0.8020  0.3545 -0.9016
 1775TIP3    H226885   6.163   2.578   8.242 -0.1015 -0.6792  0.5340
 1776TIP3   OH226886   6.702   2.821   2.058 -0.2897  0.5579 -0.1178
 1776TIP3    H126887   6.728   2.830   2.150 -1.6940 -1.8006  0.5847
 1776TIP3    H226888   6.752   2.745   2.026 -2.6950 -1.1447 -0.0693
 1777TIP3   OH226889   5.802   2.813   0.325 -0.0847  0.1129  0.0601
 1777TIP3    H126890   5.852   2.848   0.399  2.9747 -0.6428 -1.4962
 1777TIP3    H226891   5.797   2.719   0.341 -2.5190  0.3072  0.9387
 1778TIP3   OH226892   5.493   3.235   7.491  0.2461  0.3379  0.0065
 1778TIP3    H126893   5.543   3.163   7.451 -0.2622 -0.5360  0.8806
 1778TIP3    H226894   5.474   3.294   7.419  0.7874 -0.3490 -0.7196
 1779TIP3   OH226895   1.110   6.402   7.323 -0.0009 -0.7712  0.7235
 1779TIP3    H126896   1.110   6.437   7.234 -3.1527 -1.9942  0.0932
 1779TIP3    H226897   1.090   6.477   7.378 -0.3859 -0.3928  0.0882
 1780TIP3   OH226898   3.356   5.500   1.020  0.1645  0.4140 -0.6547
 1780TIP3    H126899   3.416   5.529   1.088  0.2134 -0.8719 -0.1323
 1780TIP3    H226900   3.276   5.551   1.036  0.4353  0.6854 -0.1284
 1781TIP3   OH226901   4.001   4.415   1.236 -0.0684  0.5969  0.0194
 1781TIP3    H126902   3.978   4.358   1.309 -0.5880  0.9102  0.1063
 1781TIP3    H226903   3.919   4.428   1.189  0.4210 -0.3163 -1.1456
 1782TIP3   OH226904   6.097   4.268   6.022 -0.0069 -0.4095 -0.5809
 1782TIP3    H126905   6.117   4.272   5.929 -0.7564 -0.4923 -0.7558
 1782TIP3    H226906   6.167   4.317   6.065 -0.1378  0.3967 -1.2667
 1783TIP3   OH226907   4.674   0.209   7.346  0.6436  0.4214  0.0673
 1783TIP3    H126908   4.601   0.251   7.301  0.0722 -0.9572 -0.3360
 1783TIP3    H226909   4.635   0.168   7.423  1.3764  1.5089  1.0550
 1784TIP3   OH226910   6.465   4.133   7.015 -0.7646 -0.2465 -0.1561
 1784TIP3    H126911   6.458   4.044   7.050  3.2205 -0.3592  0.7379
 1784TIP3    H226912   6.409   4.185   7.072 -0.7345 -1.7014  1.2714
 1785TIP3   OH226913   2.086   5.097   8.842 -0.7665 -0.6816  0.1137
 1785TIP3    H126914   2.114   5.032   8.908 -0.1343 -1.2175 -0.6574
 1785TIP3    H226915   1.997   5.071   8.819 -0.6781 -1.0194  0.1365
 1786TIP3   OH226916   2.665   1.717   7.304 -0.5718  0.0605  0.3021
 1786TIP3    H126917   2.729   1.688   7.239 -0.7515 -3.1866  1.3642
 1786TIP3    H226918   2.589   1.744   7.253 -0.5299 -1.9156 -0.9430
 1787TIP3   OH226919   3.762   5.555   7.623 -0.2308  0.2968  0.2081
 1787TIP3    H126920   3.782   5.494   7.551 -1.9838 -1.4444  1.0946
 1787TIP3    H226921   3.731   5.634   7.580 -0.0426 -0.2509 -0.9661
 1788TIP3   OH226922   6.595   3.366   0.293 -0.2279  0.0007 -0.3701
 1788TIP3    H126923   6.543   3.288   0.272  0.8527 -1.6358  2.3789
 1788TIP3    H226924   6.573   3.385   0.385  0.4903  2.1992 -0.5909
 1789TIP3   OH226925   0.965   5.931   1.359 -0.3055  0.1731  0.0206
 1789TIP3    H126926   1.022   6.000   1.325 -2.6299  2.1521 -0.0725
 1789TIP3    H226927   0.892   5.926   1.297 -0.3439 -2.2554  0.1591
 1790TIP3   OH226928   4.281   2.415   7.470 -0.3615 -0.2538  0.0272
 1790TIP3    H126929   4.272   2.508   7.492  0.1821 -0.1817 -0.0229
 1790TIP3    H226930   4.329   2.378   7.544  0.8350 -0.1579 -0.6740
 1791TIP3   OH226931   0.117   3.451   8.045 -0.2574  0.3100 -0.4236
 1791TIP3    H126932   0.179   3.472   8.115  0.2678 -3.2286  0.3277
 1791TIP3    H226933   0.172   3.422   7.973 -0.9518 -0.4696 -0.6463
 1792TIP3   OH226934   0.624   1.789   1.680  0.3205  0.4290 -0.1781
 1792TIP3    H126935   0.683   1.862   1.696 -2.6007  2.6527  1.5351
 1792TIP3    H226936   0.537   1.829   1.673 -1.2610 -2.7479 -0.9544
 1793TIP3   OH226937   3.262   5.318   8.245 -0.2531 -0.2140 -0.8634
 1793TIP3    H126938   3.206   5.310   8.168 -0.3401  0.2507 -0.8482
 1793TIP3    H226939   3.340   5.364   8.214  0.2582 -1.1167 -0.9537
 1794TIP3   OH226940   0.249   5.583   2.172  0.1498  0.4099 -0.0713
 1794TIP3    H126941   0.173   5.563   2.228 -0.4467  0.5019 -0.8229
 1794TIP3    H226942   0.322   5.539   2.214  0.0363  1.7838  1.6427
 1795TIP3   OH226943   1.306   1.017   1.832 -0.6738  0.6004  0.2759
 1795TIP3    H126944   1.234   0.953   1.828 -0.0773 -0.0286 -1.5185
 1795TIP3    H226945   1.281   1.077   1.903 -0.7731 -2.1496  2.7576
 1796TIP3   OH226946   3.524   3.519   0.375 -0.1290 -0.4474 -0.2077
 1796TIP3    H126947   3.607   3.555   0.407  0.7696  0.3130 -3.0911
 1796TIP3    H226948   3.459   3.554   0.435  1.3252  1.5314  0.3395
 1797TIP3   OH226949   6.790   5.956   8.592 -0.1564 -0.1841 -0.1072
 1797TIP3    H126950   6.847   5.998   8.656 -0.3563 -1.3674  0.9010
 1797TIP3    H226951   6.728   6.024   8.565 -0.1242  0.3075  1.0358
 1798TIP3   OH226952   0.643   4.235   8.671  0.3753 -0.0715 -0.0762
 1798TIP3    H126953   0.676   4.185   8.746  0.5140  1.5040  0.9816
 1798TIP3    H226954   0.560   4.193   8.648  0.5748 -0.8928  0.6454
 1799TIP3   OH226955   0.894   6.613   1.879  0.7557  0.2551 -0.3871
 1799TIP3    H126956   0.902   6.701   1.914 -0.4338  0.2309  0.0077
 1799TIP3    H226957   0.852   6.563   1.950  1.1978 -0.5754 -0.6912
 1800TIP3   OH226958   0.252   6.430   2.303 -0.2863  0.0414  0.5531
 1800TIP3    H126959   0.166   6.432   2.346  0.1403  2.0086  1.4200
 1800TIP3    H226960   0.298   6.358   2.346 -1.1596 -0.4330  0.7370
 1801TIP3   OH226961   5.281   6.321   2.033  0.2774 -0.1861 -0.4598
 1801TIP3    H126962   5.327   6.364   1.961  1.4171 -0.4901  0.0664
 1801TIP3    H226963   5.317   6.233   2.036 -1.2770 -0.8686 -0.8380
 1802TIP3   OH226964   6.607   3.556   1.798 -0.6887 -0.4833  0.0663
 1802TIP3    H126965   6.550   3.563   1.722  0.1634  1.7524 -0.4540
 1802TIP3    H226966   6.646   3.643   1.807  3.7034 -2.1406 -0.4539
 1803TIP3   OH226967   4.107   2.241   2.283  0.1471  0.2470 -0.7370
 1803TIP3    H126968   4.112   2.185   2.360 -1.4963  1.8516  0.6337
 1803TIP3    H226969   4.019   2.227   2.248  1.3550 -1.5783 -3.3079
 1804TIP3   OH226970   2.083   4.198   7.096  1.2584  0.7187 -0.0728
 1804TIP3    H126971   2.175   4.188   7.071  0.6909  0.6066 -2.2950
 1804TIP3    H226972   2.041   4.237   7.019 -0.7136  0.0444  0.5959
 1805TIP3   OH226973   3.332   5.221   1.043 -0.1723 -0.3031  0.3439
 1805TIP3    H126974   3.355   5.203   1.134 -0.1423  0.7072  0.5568
 1805TIP3    H226975   3.359   5.312   1.029  0.8427 -0.7761 -1.0215
 1806TIP3   OH226976   4.372   0.705   7.959 -0.8736 -0.2174 -0.0662
 1806TIP3    H126977   4.444   0.651   7.925 -0.6621 -0.2203  0.3751
 1806TIP3    H226978   4.328   0.737   7.881 -0.3877 -0.2135 -0.3485
 1807TIP3   OH226979   6.714   4.484   7.457 -0.5102 -0.2390  0.0525
 1807TIP3    H126980   6.652   4.514   7.524  0.0490  4.1035 -1.0337
 1807TIP3    H226981   6.776   4.428   7.505 -1.2282  1.1192  2.7988
 1808TIP3   OH226982   2.096   4.632   7.999  0.2415 -0.2179  0.0512
 1808TIP3    H126983   2.051   4.559   8.043  0.7914 -1.8926 -1.9954
 1808TIP3    H226984   2.160   4.589   7.943  0.5979  1.8738 -1.2257
 1809TIP3   OH226985   5.592   4.400   6.662  0.1086  0.3051 -0.9490
 1809TIP3    H126986   5.683   4.370   6.658 -0.1895 -0.5286 -3.2133
 1809TIP3    H226987   5.597   4.486   6.703  1.4615 -1.1311  2.2715
 1810TIP3   OH226988   0.354   0.646   0.624 -0.6846 -0.5424  0.3972
 1810TIP3    H126989   0.345   0.647   0.719  2.0173  2.6386  0.8077
 1810TIP3    H226990   0.300   0.720   0.594 -0.4938 -0.7079 -0.3783
 1811TIP3   OH226991   1.708   2.728   1.363 -0.6580 -0.1767 -0.1190
 1811TIP3    H126992   1.732   2.663   1.297 -1.6369 -1.8933  1.1255
 1811TIP3    H226993   1.792   2.752   1.403 -0.2338 -0.3869 -0.8478
 1812TIP3   OH226994   6.506   5.316   0.684  0.3872 -0.8001 -0.2148
 1812TIP3    H126995   6.521   5.382   0.752 -1.4860  1.6837 -2.0469
 1812TIP3    H226996   6.593   5.303   0.644  0.4311  2.9694 -1.7554
 1813TIP3   OH226997   4.147   6.017   6.166  0.2633 -0.2175 -0.0544
 1813TIP3    H126998   4.137   5.991   6.258 -0.7971  1.8362  0.4611
 1813TIP3    H226999   4.214   5.957   6.132  1.4089 -0.4137  2.3029
 1814TIP3   OH227000   1.752   4.410   6.626 -0.0906 -0.1471  0.2067
 1814TIP3    H127001   1.723   4.500   6.610 -1.5742 -0.5169  0.6039
 1814TIP3    H227002   1.841   4.407   6.592 -0.2867  1.2572 -0.5318
 1815TIP3   OH227003   5.912   5.832   1.397 -0.0895  0.3241 -0.1091
 1815TIP3    H127004   5.879   5.761   1.343  1.4684 -1.6813  1.4151
 1815TIP3    H227005   5.978   5.875   1.342 -0.7696  0.3743 -0.9042
 1816TIP3   OH227006   0.071   5.606   7.215 -0.0762 -0.9064 -0.1904
 1816TIP3    H127007   0.100   5.686   7.172  0.2759 -1.4123 -0.9234
 1816TIP3    H227008   0.148   5.574   7.262 -0.8551  0.4501  2.1559
 1817TIP3   OH227009   3.426   6.587   0.925  0.3872  0.3430  0.2844
 1817TIP3    H127010   3.389   6.552   0.844 -0.8163  0.2493  0.8562
 1817TIP3    H227011   3.424   6.513   0.986  0.7477  0.5704  0.5791
 1818TIP3   OH227012   3.297   3.313   7.613 -0.0747 -0.7563  0.7183
 1818TIP3    H127013   3.320   3.406   7.621  1.1904 -0.9490 -0.3347
 1818TIP3    H227014   3.376   3.272   7.579 -1.2046 -1.9052 -0.6641
 1819TIP3   OH227015   4.748   5.930   0.704 -0.2195  0.1325  0.0564
 1819TIP3    H127016   4.715   5.918   0.615 -0.0517 -2.0902  0.2444
 1819TIP3    H227017   4.684   5.886   0.759  1.3159 -1.3777  0.7103
 1820TIP3   OH227018   2.292   0.347   7.823 -0.5859  0.2783  0.7777
 1820TIP3    H127019   2.232   0.277   7.796 -0.6989  0.3935  0.7309
 1820TIP3    H227020   2.370   0.333   7.769 -1.6317  1.8316 -1.2688
 1821TIP3   OH227021   5.008   5.472   0.275 -0.0924 -0.5612 -0.7847
 1821TIP3    H127022   5.080   5.428   0.320  0.0117  0.2756 -0.1120
 1821TIP3    H227023   5.050   5.546   0.230 -0.9352  2.4029  2.8275
 1822TIP3   OH227024   1.506   5.019   1.484  0.3203 -1.0122 -0.7301
 1822TIP3    H127025   1.568   5.049   1.417 -0.1930 -0.1686 -0.8358
 1822TIP3    H227026   1.442   5.090   1.491  1.1790 -0.3817  1.7509
 1823TIP3   OH227027   1.655   5.566   6.856  0.6482  0.3419  0.0050
 1823TIP3    H127028   1.610   5.505   6.798 -1.5741  1.2903  0.6204
 1823TIP3    H227029   1.663   5.647   6.805  1.8719  0.1297 -0.1616
 1824TIP3   OH227030   6.622   5.555   7.153  0.8280 -0.7309 -0.2457
 1824TIP3    H127031   6.709   5.580   7.183 -0.3280  3.6675  0.1248
 1824TIP3    H227032   6.622   5.576   7.060  0.3031 -1.3286 -0.3908
 1825TIP3   OH227033   5.683   1.127   0.295 -0.0009  0.2603  0.1455
 1825TIP3    H127034   5.676   1.204   0.239  0.6731  1.0799  1.1510
 1825TIP3    H227035   5.762   1.082   0.265  1.0770  1.3751  1.2046
 1826TIP3   OH227036   1.932   2.279   0.166  0.0739  0.3634  0.2165
 1826TIP3    H127037   1.990   2.224   0.113  1.0811  0.4236  1.2081
 1826TIP3    H227038   1.970   2.367   0.160  0.0334  0.4255  0.7890
 1827TIP3   OH227039   0.190   3.993   8.281 -0.6591 -0.6388 -0.2708
 1827TIP3    H127040   0.095   3.984   8.283 -0.6671 -1.1105 -1.8694
 1827TIP3    H227041   0.206   4.068   8.224 -0.0421 -1.3965 -1.1247
 1828TIP3   OH227042   5.648   1.932   8.364 -0.0554  0.4212  0.2680
 1828TIP3    H127043   5.676   1.888   8.283 -0.2940  0.5440  0.1195
 1828TIP3    H227044   5.568   1.978   8.340 -0.4564 -0.0233  0.7247
 1829TIP3   OH227045   2.826   3.027   6.813  0.2280  0.3732 -0.2961
 1829TIP3    H127046   2.760   3.082   6.772 -0.4328 -1.3432 -1.6392
 1829TIP3    H227047   2.907   3.046   6.766 -0.0402  0.0749 -0.8856
 1830TIP3   OH227048   4.554   4.830   0.033 -0.0883  0.1913 -0.5766
 1830TIP3    H127049   4.537   4.924   0.032 -2.3297  0.1215  4.0128
 1830TIP3    H227050   4.611   4.817   0.108  0.3496 -2.1503 -1.2247
 1831TIP3   OH227051   5.294   5.011   0.421  0.2481 -0.0291 -0.1765
 1831TIP3    H127052   5.342   5.033   0.501 -0.8399  2.2985 -0.0775
 1831TIP3    H227053   5.202   5.025   0.444 -0.1160  0.2221 -1.6792
 1832TIP3   OH227054   3.485   3.067   8.510 -0.1672  0.3118  0.3322
 1832TIP3    H127055   3.505   3.161   8.505 -1.2942  0.5399 -0.2577
 1832TIP3    H227056   3.456   3.053   8.600  0.2904  0.4589  0.5082
 1833TIP3   OH227057   3.601   6.030   8.200  0.0799  0.3821 -0.2377
 1833TIP3    H127058   3.597   6.118   8.238  0.3336  0.5920 -0.6815
 1833TIP3    H227059   3.611   5.971   8.274  0.7989  0.7997  0.0080
 1834TIP3   OH227060   3.789   6.196   0.262 -0.2127  0.0613 -0.2664
 1834TIP3    H127061   3.741   6.118   0.289  0.1500 -0.1442 -0.2108
 1834TIP3    H227062   3.722   6.264   0.256 -0.2871  0.1743  1.3737
 1835TIP3   OH227063   4.046   4.467   6.749 -0.1861  0.1889  0.0839
 1835TIP3    H127064   3.999   4.384   6.754 -0.2706 -0.0680 -3.1208
 1835TIP3    H227065   4.132   4.444   6.713 -0.2767  1.4772 -1.0341
 1836TIP3   OH227066   4.828   0.186   0.670  0.0545 -0.1855  0.3517
 1836TIP3    H127067   4.761   0.188   0.601  0.4786 -1.2003 -0.1048
 1836TIP3    H227068   4.778   0.202   0.751 -1.0610 -2.6587  0.2277
 1837TIP3   OH227069   1.157   1.206   1.982 -1.1288  0.0355 -0.1242
 1837TIP3    H127070   1.110   1.131   2.018 -1.0016  0.0631  0.1039
 1837TIP3    H227071   1.089   1.260   1.942 -1.3064  0.1380  0.3121
 1838TIP3   OH227072   3.932   5.383   1.781 -0.0745  0.4587  0.6223
 1838TIP3    H127073   3.877   5.366   1.858  1.2720  1.3732  1.8254
 1838TIP3    H227074   4.015   5.413   1.817  0.7422  0.4960 -1.1997
 1839TIP3   OH227075   0.718   0.739   1.105  0.3865 -0.4236 -0.2739
 1839TIP3    H127076   0.778   0.723   1.178 -1.5689 -1.4784  1.2239
 1839TIP3    H227077   0.648   0.675   1.118 -0.7309  0.3075 -2.2986
 1840TIP3   OH227078   5.622   5.007   8.774  0.1754  0.4438  0.3589
 1840TIP3    H127079   5.635   5.075   8.840 -1.9410 -0.0815  1.4034
 1840TIP3    H227080   5.710   4.982   8.748  1.0374  2.7053  0.8418
 1841TIP3   OH227081   5.616   5.045   6.387  1.2865 -0.0912  0.1907
 1841TIP3    H127082   5.642   5.037   6.295  0.0680  1.0871 -0.2906
 1841TIP3    H227083   5.520   5.050   6.384  1.1637 -1.1005  1.6247
 1842TIP3   OH227084   3.696   5.640   1.694 -0.3006  0.1095 -0.4536
 1842TIP3    H127085   3.676   5.547   1.684 -2.0572  0.5605 -1.5643
 1842TIP3    H227086   3.788   5.642   1.720  0.0706 -1.8893 -1.4217
 1843TIP3   OH227087   6.471   0.117   0.462  0.2626  0.0123  0.1350
 1843TIP3    H127088   6.434   0.035   0.429 -0.0823  1.1846 -2.6998
 1843TIP3    H227089   6.396   0.163   0.500 -0.1302  0.1331 -0.7584
 1844TIP3   OH227090   1.302   2.530   8.102 -0.4492  0.5429 -0.3209
 1844TIP3    H127091   1.377   2.588   8.110 -0.2535  0.3004 -0.3792
 1844TIP3    H227092   1.246   2.553   8.176  0.7024 -0.7609  1.0424
 1845TIP3   OH227093   3.741   0.036   0.567 -0.1913 -0.1831  0.1668
 1845TIP3    H127094   3.722  -0.055   0.543 -0.7228 -0.5331  1.7829
 1845TIP3    H227095   3.717   0.087   0.489 -1.0392 -1.3198 -0.3382
 1846TIP3   OH227096   0.871   1.790   8.080  0.8487  0.2758  0.0781
 1846TIP3    H127097   0.915   1.821   8.158  0.4670 -0.2605  0.5182
 1846TIP3    H227098   0.824   1.711   8.108 -1.8933  1.7775  0.1218
 1847TIP3   OH227099   0.668   6.357   1.773 -0.5135 -0.8562  0.5847
 1847TIP3    H127100   0.698   6.431   1.825  1.5811 -0.4152 -1.1044
 1847TIP3    H227101   0.573   6.359   1.780 -0.4231  0.8906  2.0232
 1848TIP3   OH227102   6.252   6.750   8.748  0.0475  0.6787  0.0365
 1848TIP3    H127103   6.166   6.720   8.716  1.2190 -1.7048 -1.1634
 1848TIP3    H227104   6.233   6.793   8.831 -2.5723  2.4974 -1.3518
 1849TIP3   OH227105   4.461   4.917   2.020 -0.0689 -0.0376  0.3906
 1849TIP3    H127106   4.434   5.008   2.007 -1.3192 -0.5555 -0.9072
 1849TIP3    H227107   4.544   4.923   2.068 -0.1493  1.7761  0.3645
 1850TIP3   OH227108   4.340   2.055   7.336  0.3607  0.1290 -0.2124
 1850TIP3    H127109   4.346   1.963   7.309 -0.0042 -0.1293  0.5445
 1850TIP3    H227110   4.365   2.104   7.258 -0.8722 -0.5769 -1.0976
 1851TIP3   OH227111   0.347   2.900   0.184 -0.4295  0.7968 -0.0114
 1851TIP3    H127112   0.393   2.971   0.229  0.3113 -1.2093  2.6477
 1851TIP3    H227113   0.417   2.852   0.139 -0.9650  1.7998 -2.0676
 1852TIP3   OH227114   4.354   4.864   6.795  0.8118 -0.0717  0.4258
 1852TIP3    H127115   4.416   4.792   6.811 -0.3534 -1.7341 -1.9285
 1852TIP3    H227116   4.270   4.829   6.823  0.3290  0.6409 -0.1110
 1853TIP3   OH227117   6.656   1.365   0.294 -0.2127  0.1171  0.1521
 1853TIP3    H127118   6.598   1.432   0.330 -0.9879 -0.6502  0.3615
 1853TIP3    H227119   6.719   1.347   0.364  0.5177  1.1998 -0.2017
 1854TIP3   OH227120   6.545   6.778   8.771  0.4644 -0.4265 -0.2450
 1854TIP3    H127121   6.482   6.783   8.843  0.6033  0.0857 -0.1525
 1854TIP3    H227122   6.495   6.804   8.693  1.1357  2.5526  0.2039
 1855TIP3   OH227123   4.615   1.851   0.594 -0.2561 -0.1115  0.0376
 1855TIP3    H127124   4.626   1.932   0.643  0.2132 -1.0601  1.5914
 1855TIP3    H227125   4.578   1.878   0.510 -2.3052  1.4784  1.3648
 1856TIP3   OH227126   5.360   3.536   7.058 -0.6501  0.3821 -0.1999
 1856TIP3    H127127   5.314   3.529   6.974 -0.4035 -0.3520 -0.2799
 1856TIP3    H227128   5.452   3.549   7.033 -0.3791 -1.1308 -0.0625
 1857TIP3   OH227129   0.227   1.941   2.352 -0.0645 -0.0642 -0.2866
 1857TIP3    H127130   0.306   1.924   2.301 -0.3530 -0.1852 -0.6978
 1857TIP3    H227131   0.199   1.855   2.383  1.0795  0.1748  1.5600
 1858TIP3   OH227132   0.349   0.408   8.306  0.3108 -0.2466 -0.2604
 1858TIP3    H127133   0.315   0.319   8.318 -0.4859  0.0421 -0.3542
 1858TIP3    H227134   0.320   0.433   8.218 -0.5084  0.5593  0.2302
 1859TIP3   OH227135   1.964   5.156   1.086 -0.2466 -0.2843 -0.2592
 1859TIP3    H127136   1.900   5.213   1.131 -1.8836 -0.3070 -2.3736
 1859TIP3    H227137   1.966   5.190   0.996 -0.3194 -2.7493 -1.2697
 1860TIP3   OH227138   5.679   4.514   0.749 -0.0315 -0.1430 -0.4437
 1860TIP3    H127139   5.674   4.471   0.664 -0.4037 -0.7692 -0.1089
 1860TIP3    H227140   5.641   4.452   0.811  0.8527  0.0252  0.2953
 1861TIP3   OH227141   2.523   2.109   8.732 -0.0723 -0.0543 -0.3811
 1861TIP3    H127142   2.590   2.119   8.664 -0.4845 -0.1462 -0.7992
 1861TIP3    H227143   2.552   2.034   8.783  0.9708  0.8316  0.3936
 1862TIP3   OH227144   2.780   5.520   7.911  0.4784  0.2451  0.4487
 1862TIP3    H127145   2.695   5.530   7.868  0.3977 -0.1889  0.5033
 1862TIP3    H227146   2.824   5.604   7.897  0.4761  0.0918 -0.5201
 1863TIP3   OH227147   5.206   4.744   0.382 -0.3120 -0.5383 -0.3227
 1863TIP3    H127148   5.266   4.815   0.403 -2.5322  1.4800 -0.4689
 1863TIP3    H227149   5.230   4.718   0.293  0.5354 -0.0115 -0.2591
 1864TIP3   OH227150   4.869   3.447   7.111  0.1093  0.3587  0.0942
 1864TIP3    H127151   4.890   3.511   7.179  0.2709 -0.4090  0.7723
 1864TIP3    H227152   4.807   3.493   7.054 -0.9715  0.6264  1.4221
 1865TIP3   OH227153   1.642   1.665   1.856  0.1260  0.2055  0.0321
 1865TIP3    H127154   1.724   1.706   1.882  1.2708 -1.7206 -0.3560
 1865TIP3    H227155   1.668   1.584   1.813 -1.9668 -0.0304 -0.9106
 1866TIP3   OH227156   4.620   1.216   7.486  0.4534  0.1453 -0.0531
 1866TIP3    H127157   4.553   1.231   7.419  0.0345  2.1068  0.7496
 1866TIP3    H227158   4.703   1.223   7.438  0.1503  1.1538 -0.4452
 1867TIP3   OH227159   2.937   0.862   8.739  0.1963  0.0183  0.2783
 1867TIP3    H127160   2.984   0.944   8.730 -2.2571  1.6234  1.0913
 1867TIP3    H227161   2.923   0.852   8.833 -0.3324 -0.8629  0.1222
 1868TIP3   OH227162   2.401   0.340   7.275  0.0245 -0.4706 -0.3612
 1868TIP3    H127163   2.368   0.335   7.364  0.6353 -1.1073 -0.1591
 1868TIP3    H227164   2.430   0.251   7.255  2.6509  0.2406 -0.1063
 1869TIP3   OH227165   2.653   4.144   1.705 -0.2832  0.0761  0.9245
 1869TIP3    H127166   2.708   4.201   1.651 -1.0913  0.7115  0.7493
 1869TIP3    H227167   2.684   4.055   1.685  0.3346  0.3887  0.4494
 1870TIP3   OH227168   4.679   1.152   0.688 -0.3612 -0.5356  0.3115
 1870TIP3    H127169   4.620   1.121   0.757 -1.6443 -3.4791 -1.8930
 1870TIP3    H227170   4.622   1.203   0.630 -0.2847 -1.5443 -0.6806
 1871TIP3   OH227171   1.547   1.844   0.084 -0.2240  0.2480 -0.6032
 1871TIP3    H127172   1.585   1.818   0.000 -0.3353 -1.2853 -0.2121
 1871TIP3    H227173   1.614   1.898   0.126  0.2508  0.1448 -1.2240
 1872TIP3   OH227174   3.904   3.741   1.271  0.5016  0.8793  0.9207
 1872TIP3    H127175   3.926   3.703   1.356  1.0432  3.0762  1.8389
 1872TIP3    H227176   3.944   3.829   1.273 -0.7703  1.5661 -0.9958
 1873TIP3   OH227177   2.286   0.201   2.186  0.2521 -0.1840 -0.3757
 1873TIP3    H127178   2.275   0.196   2.281 -0.0647  0.6854 -0.3603
 1873TIP3    H227179   2.319   0.115   2.161  1.8864  0.0988  0.7197
 1874TIP3   OH227180   4.903   3.589   0.951  0.0119 -0.0587 -0.7859
 1874TIP3    H127181   4.896   3.614   0.859 -2.8976  0.1879 -0.5896
 1874TIP3    H227182   4.859   3.659   0.999  2.4091  0.3674  0.9806
 1875TIP3   OH227183   0.216   5.746   8.816  0.3969 -0.3210  0.8245
 1875TIP3    H127184   0.121   5.743   8.801  0.1903  1.1264  1.6578
 1875TIP3    H227185   0.225   5.768   8.908  1.5653 -0.8587  0.8546
 1876TIP3   OH227186   5.188   3.813   0.313 -0.1783 -0.0997 -0.2992
 1876TIP3    H127187   5.103   3.819   0.269  0.9463 -0.1205 -2.6620
 1876TIP3    H227188   5.210   3.903   0.334 -1.3515 -0.2096  1.6229
 1877TIP3   OH227189   2.815   2.929   1.515 -0.3769  0.9422 -0.4341
 1877TIP3    H127190   2.830   2.978   1.597 -0.9234  1.2560 -0.5182
 1877TIP3    H227191   2.795   2.840   1.544 -0.3626  1.0025 -0.2338
 1878TIP3   OH227192   2.849   1.597   1.794 -0.5590  0.4735 -0.1926
 1878TIP3    H127193   2.779   1.647   1.837 -1.7067 -0.5463 -0.8134
 1878TIP3    H227194   2.813   1.575   1.708 -0.7218 -2.6531  0.5541
 1879TIP3   OH227195   0.268   1.461   1.780 -0.2265 -0.3867  0.0168
 1879TIP3    H127196   0.278   1.546   1.737 -0.6500  0.0291  0.7207
 1879TIP3    H227197   0.236   1.482   1.868 -0.2654 -1.2712  0.2253
 1880TIP3   OH227198   1.027   1.897   0.034  0.1683  0.3792  0.3416
 1880TIP3    H127199   1.048   1.924  -0.056 -0.0329 -1.7611 -0.4104
 1880TIP3    H227200   1.110   1.870   0.071 -0.1815 -2.0759 -0.4703
 1881TIP3   OH227201   6.545   6.027   7.257  0.5122 -0.8130  0.8135
 1881TIP3    H127202   6.481   6.087   7.220  1.3113  0.8328  1.9602
 1881TIP3    H227203   6.504   5.993   7.336 -0.3147 -2.5938 -0.3213
 1882TIP3   OH227204   6.731   0.801   7.574  0.4446 -0.3082  0.4466
 1882TIP3    H127205   6.688   0.822   7.492  1.0056  1.3593  0.5552
 1882TIP3    H227206   6.659   0.789   7.636  0.0505 -0.6569 -0.0639
 1883TIP3   OH227207   4.706   6.320   7.492  0.1096  0.4399 -0.4353
 1883TIP3    H127208   4.695   6.415   7.498 -0.8152  0.3839 -0.9205
 1883TIP3    H227209   4.801   6.307   7.485  0.3478  1.2242  1.0076
 1884TIP3   OH227210   0.930   1.672   7.826  0.0014 -0.1263  0.1121
 1884TIP3    H127211   0.843   1.663   7.788 -0.3116 -0.7184  0.9419
 1884TIP3    H227212   0.917   1.729   7.901  0.3633 -0.0742  0.1342
 1885TIP3   OH227213   6.650   0.733   1.207  0.2008 -0.4213  0.2672
 1885TIP3    H127214   6.611   0.655   1.168 -0.2883 -0.0227 -0.0671
 1885TIP3    H227215   6.743   0.714   1.213  0.1633 -0.8058 -0.3441
 1886TIP3   OH227216   4.405   0.092   0.238  0.4251 -0.0877  0.0176
 1886TIP3    H127217   4.406   0.003   0.203 -1.1150  1.1898 -3.8499
 1886TIP3    H227218   4.312   0.112   0.250  0.8083  0.1066  3.8971
 1887TIP3   OH227219   4.552   0.510   1.037  0.1610 -0.2986  0.0957
 1887TIP3    H127220   4.618   0.579   1.048 -0.9130  0.5675  1.4919
 1887TIP3    H227221   4.484   0.532   1.101 -1.4444 -1.2030 -1.2224
 1888TIP3   OH227222   0.900   0.157   7.730  0.3205 -0.5045  0.4586
 1888TIP3    H127223   0.868   0.148   7.820 -2.1237  0.9583 -0.1755
 1888TIP3    H227224   0.825   0.187   7.681  1.8099 -0.4980 -1.9660
 1889TIP3   OH227225   1.035   6.652   7.431 -0.2523 -0.7214  0.2620
 1889TIP3    H127226   0.962   6.662   7.369 -0.5445  0.0205  0.7170
 1889TIP3    H227227   0.993   6.644   7.516  0.1937 -0.1833  0.5409
 1890TIP3   OH227228   2.700   2.609   7.103 -0.0945  0.3202  0.0081
 1890TIP3    H127229   2.736   2.680   7.049 -2.0753  2.7250  1.6264
 1890TIP3    H227230   2.630   2.571   7.050 -0.3155  0.9047 -0.1273
 1891TIP3   OH227231   1.343   3.189   8.599  0.0445  0.2325 -0.0038
 1891TIP3    H127232   1.280   3.159   8.664  1.2116  1.2166  1.6657
 1891TIP3    H227233   1.318   3.280   8.582  0.7858  0.5241  0.4183
 1892TIP3   OH227234   0.168   6.377   1.129  0.1120  0.0323 -0.8750
 1892TIP3    H127235   0.206   6.465   1.133  1.2342 -0.4509  2.5056
 1892TIP3    H227236   0.230   6.326   1.077 -0.1253  1.0174 -2.1635
 1893TIP3   OH227237   3.364   5.505   1.826  0.0268 -0.4985  0.2588
 1893TIP3    H127238   3.324   5.430   1.870 -0.1615 -0.1813  0.6272
 1893TIP3    H227239   3.453   5.475   1.805 -0.7946 -1.6863 -1.7792
 1894TIP3   OH227240   5.434   6.241   1.075 -0.7205  0.1497  0.5037
 1894TIP3    H127241   5.400   6.311   1.130 -0.2776 -0.4126  1.5210
 1894TIP3    H227242   5.512   6.279   1.034 -1.2506  0.6840 -0.0263
 1895TIP3   OH227243   1.152   5.688   8.095  0.1525 -0.5225 -0.1437
 1895TIP3    H127244   1.228   5.714   8.043  1.5303 -0.6363  1.7176
 1895TIP3    H227245   1.179   5.606   8.137 -0.0474  0.6022  2.3659
 1896TIP3   OH227246   4.305   3.690   1.004  0.3851 -0.6168  0.9450
 1896TIP3    H127247   4.231   3.748   1.020 -0.5114 -1.3008 -0.4998
 1896TIP3    H227248   4.340   3.719   0.920  2.2439  0.1469  1.9293
 1897TIP3   OH227249   4.990   5.698   1.693 -0.0133  0.1735  0.0408
 1897TIP3    H127250   4.992   5.746   1.775  1.7360 -1.1198  0.7972
 1897TIP3    H227251   4.904   5.720   1.655 -0.1044  2.2430  1.2811
 1898TIP3   OH227252   6.410   3.703   0.792 -0.4914 -0.8636 -0.3866
 1898TIP3    H127253   6.343   3.655   0.840 -0.5550 -0.0069  0.4277
 1898TIP3    H227254   6.485   3.708   0.852 -0.1881 -0.6688 -0.7700
 1899TIP3   OH227255   3.798   0.951   0.098  0.3830  0.4670  0.2866
 1899TIP3    H127256   3.875   0.912   0.055  0.1513 -1.2497  1.3624
 1899TIP3    H227257   3.725   0.928   0.041  0.3363 -0.0636  0.5626
 1900TIP3   OH227258   5.048   2.310   0.657 -0.5718 -0.0708  0.0682
 1900TIP3    H127259   5.134   2.268   0.655 -0.1406  0.7031  1.1074
 1900TIP3    H227260   5.067   2.400   0.686 -1.9100 -0.4526  2.4306
 1901TIP3   OH227261   3.433   6.412   7.067  0.0583  0.2523  0.2546
 1901TIP3    H127262   3.484   6.347   7.019  2.1622  1.2938  0.9519
 1901TIP3    H227263   3.478   6.495   7.050 -1.4600  1.2630  0.8902
 1902TIP3   OH227264   0.220   4.531   1.504 -0.0528 -0.5160  0.0995
 1902TIP3    H127265   0.196   4.620   1.530 -0.7604 -0.0327 -1.9606
 1902TIP3    H227266   0.208   4.531   1.409  0.7869 -2.5702 -0.0418
 1903TIP3   OH227267   3.532   1.559   1.323 -0.1226  0.5644 -0.4229
 1903TIP3    H127268   3.452   1.511   1.346 -0.0342 -1.5344 -3.7111
 1903TIP3    H227269   3.529   1.638   1.377 -2.8306 -0.8426  1.7750
 1904TIP3   OH227270   0.743   4.473   8.557  0.0027  0.4056 -0.0600
 1904TIP3    H127271   0.732   4.386   8.596  1.1716  0.8225  1.3276
 1904TIP3    H227272   0.663   4.520   8.582 -0.5367 -0.1831 -0.6288
 1905TIP3   OH227273   1.930   5.648   8.000 -0.2701 -0.4179 -0.0922
 1905TIP3    H127274   1.959   5.701   8.074 -1.7443  0.4619 -0.0908
 1905TIP3    H227275   1.930   5.709   7.925  1.2032 -1.2952 -0.8448
 1906TIP3   OH227276   5.772   0.503   7.382  0.7522  0.5603 -0.1475
 1906TIP3    H127277   5.762   0.409   7.367  0.6649  0.5556 -0.0619
 1906TIP3    H227278   5.704   0.543   7.329 -1.8545  0.3697  2.7636
 1907TIP3   OH227279   1.061   4.176   6.777  0.5327 -0.6915 -0.2845
 1907TIP3    H127280   0.999   4.195   6.707  0.2187  0.0575  0.1891
 1907TIP3    H227281   1.013   4.121   6.838 -0.5501  1.8323  1.3245
 1908TIP3   OH227282   1.653   0.661   0.196 -0.0950  0.3372 -0.1887
 1908TIP3    H127283   1.572   0.610   0.204 -0.1794  0.3910 -0.6472
 1908TIP3    H227284   1.625   0.746   0.161  0.1497  0.3776 -0.2913
 1909TIP3   OH227285   5.865   3.548   7.063  0.4574  0.1363 -0.1045
 1909TIP3    H127286   5.935   3.578   7.121  0.9872 -2.2057  0.5460
 1909TIP3    H227287   5.886   3.457   7.044 -1.5238 -0.1419 -1.2795
 1910TIP3   OH227288   0.588   6.681   2.324  0.2733 -0.3861 -0.1573
 1910TIP3    H127289   0.534   6.760   2.326 -0.3478 -0.7901 -0.4963
 1910TIP3    H227290   0.678   6.713   2.323  0.0447  0.3032  0.3840
 1911TIP3   OH227291   0.279   0.433   0.282 -0.3621  0.4274  0.3376
 1911TIP3    H127292   0.183   0.435   0.277 -0.3840  0.2521  0.6395
 1911TIP3    H227293   0.297   0.386   0.364 -0.0042 -0.5474 -0.2877
 1912TIP3   OH227294   1.880   0.800   7.180 -0.1237 -0.1006 -0.4057
 1912TIP3    H127295   1.847   0.846   7.257 -0.7702 -0.3088 -0.5502
 1912TIP3    H227296   1.967   0.838   7.164 -0.0165 -0.0039  0.3778
 1913TIP3   OH227297   1.063   2.978   8.511 -0.5198 -0.1262 -0.0429
 1913TIP3    H127298   1.123   2.904   8.497 -1.6938 -0.9278 -1.0207
 1913TIP3    H227299   1.054   2.983   8.606 -0.5033 -1.3157  0.0447
 1914TIP3   OH227300   4.551   2.799   8.302 -0.2446 -0.4473 -0.0404
 1914TIP3    H127301   4.479   2.779   8.243 -1.6135  1.0873  1.0426
 1914TIP3    H227302   4.534   2.888   8.332  2.1969  0.0151  0.1497
 1915TIP3   OH227303   1.549   0.416   8.386 -0.1456 -0.2042 -0.8053
 1915TIP3    H127304   1.616   0.458   8.441  0.0259  0.2133 -1.3190
 1915TIP3    H227305   1.504   0.490   8.344 -0.1408 -0.5191 -1.3708
 1916TIP3   OH227306   5.502   4.703   2.355  0.4898 -0.4428 -0.0418
 1916TIP3    H127307   5.419   4.675   2.395  0.1201  0.0519 -0.4315
 1916TIP3    H227308   5.486   4.795   2.333  1.7646  0.1926  1.4948
 1917TIP3   OH227309   2.271   1.882   0.624 -0.6365  0.3077 -0.2617
 1917TIP3    H127310   2.351   1.849   0.583 -1.0471 -0.3425 -0.5500
 1917TIP3    H227311   2.219   1.804   0.643 -1.7797  0.7849 -1.2916
 1918TIP3   OH227312   0.715   0.106   2.815  0.4424 -0.2708  0.2249
 1918TIP3    H127313   0.745   0.196   2.814 -0.3469  0.0211  0.9090
 1918TIP3    H227314   0.619   0.113   2.806  0.5329 -1.1566 -1.9787
 1919TIP3   OH227315   4.821   0.293   8.188 -0.6761  0.3228  0.2907
 1919TIP3    H127316   4.915   0.293   8.171 -0.7605 -0.9353 -0.2849
 1919TIP3    H227317   4.813   0.317   8.281  0.2097  0.2932  0.3783
 1920TIP3   OH227318   2.326   6.692   7.477 -0.0156 -0.1978  0.2145
 1920TIP3    H127319   2.301   6.713   7.387 -0.9096  0.5448  0.6235
 1920TIP3    H227320   2.399   6.751   7.496 -1.1020  1.0734  0.6171
 1921TIP3   OH227321   3.861   3.036   8.398 -1.1197  0.0971 -0.4675
 1921TIP3    H127322   3.824   2.963   8.347 -1.2285 -0.5928  0.5764
 1921TIP3    H227323   3.883   2.998   8.483  6.0953 -0.8067 -2.0841
 1922TIP3   OH227324   0.245   4.958   7.113 -0.5347 -0.3682  0.1992
 1922TIP3    H127325   0.194   4.990   7.187 -0.4222 -1.2129  0.6417
 1922TIP3    H227326   0.183   4.906   7.062 -1.1609  1.7718 -1.3901
 1923TIP3   OH227327   1.485   5.455   7.029 -0.6524  0.1582 -0.1049
 1923TIP3    H127328   1.529   5.372   7.044 -2.4994 -0.8602 -0.0058
 1923TIP3    H227329   1.550   5.509   6.983  0.0946 -1.8942 -1.6200
 1924TIP3   OH227330   0.498   0.237   0.232 -0.1664  0.2945  0.1444
 1924TIP3    H127331   0.511   0.265   0.141 -0.8815 -1.4154 -0.5219
 1924TIP3    H227332   0.457   0.313   0.274  2.1718  1.9412 -0.3374
 1925TIP3   OH227333   4.668   2.761   6.124 -0.6897  0.0244  0.2571
 1925TIP3    H127334   4.671   2.719   6.210 -0.3004  0.2864  0.3754
 1925TIP3    H227335   4.635   2.694   6.065 -0.0148 -0.4684  0.4285
 1926TIP3   OH227336   4.797   1.196   7.991  0.2403  0.1075  0.3983
 1926TIP3    H127337   4.722   1.145   8.022 -0.6043  0.2957 -1.2773
 1926TIP3    H227338   4.871   1.136   8.000 -0.8585 -1.9041 -2.4179
 1927TIP3   OH227339   4.772   6.291   8.339  0.3030  0.1470  0.0928
 1927TIP3    H127340   4.689   6.246   8.351  0.8512 -1.3401 -1.3310
 1927TIP3    H227341   4.806   6.302   8.428 -0.5752 -0.8971  0.5850
 1928TIP3   OH227342   2.536   5.269   0.361  0.0800 -0.3778  0.0173
 1928TIP3    H127343   2.627   5.240   0.358  0.1959 -0.0468  0.2289
 1928TIP3    H227344   2.504   5.261   0.271  0.4292 -0.1393 -0.1269
 1929TIP3   OH227345   3.075   0.553   7.035  0.5821 -0.4475 -0.7000
 1929TIP3    H127346   3.110   0.540   6.947  0.6567 -1.1136 -0.5796
 1929TIP3    H227347   2.981   0.538   7.025  0.6414 -0.8991 -0.5974
 1930TIP3   OH227348   6.122   4.248   8.585 -0.0561  0.0160  0.9841
 1930TIP3    H127349   6.125   4.313   8.655 -0.3732  1.1097  0.0009
 1930TIP3    H227350   6.065   4.179   8.619 -0.5822  0.7475  1.6152
 1931TIP3   OH227351   1.366   2.409   8.693  0.3982  0.5856  0.3292
 1931TIP3    H127352   1.298   2.354   8.732 -0.6467  0.2619 -1.8155
 1931TIP3    H227353   1.372   2.485   8.751 -1.0389  0.1170  1.1307
 1932TIP3   OH227354   0.397   1.540   1.364 -0.2929  0.0016 -0.2377
 1932TIP3    H127355   0.432   1.471   1.308  0.4826 -0.6623  1.0168
 1932TIP3    H227356   0.401   1.619   1.310 -1.2662 -0.9232 -1.7279
 1933TIP3   OH227357   1.224   1.033   0.672 -0.2349  0.2884  0.1137
 1933TIP3    H127358   1.161   1.014   0.603 -0.0116 -0.6805  0.1588
 1933TIP3    H227359   1.170   1.055   0.748 -0.4844  2.4956 -0.6186
 1934TIP3   OH227360   5.195   5.657   8.508 -0.0124 -0.2458  0.0212
 1934TIP3    H127361   5.101   5.679   8.505  0.2873  1.4638  1.4285
 1934TIP3    H227362   5.214   5.625   8.420 -1.1331  2.9561 -1.5650
 1935TIP3   OH227363   3.583   0.983   0.266  0.2300  0.0185 -0.5938
 1935TIP3    H127364   3.662   0.938   0.237  2.2238  2.1668  1.0651
 1935TIP3    H227365   3.557   0.938   0.346  0.8846  0.3693 -0.1700
 1936TIP3   OH227366   5.177   4.398   1.050  0.0217  0.0373 -0.5513
 1936TIP3    H127367   5.110   4.452   1.092  0.0857 -0.3296  0.0386
 1936TIP3    H227368   5.240   4.380   1.120  0.3375 -0.2604 -0.9094
 1937TIP3   OH227369   1.509   3.462   8.839  0.2944 -0.4619  0.2907
 1937TIP3    H127370   1.547   3.421   8.917 -1.1583 -0.7642  0.8528
 1937TIP3    H227371   1.501   3.555   8.863 -0.7927 -0.6710  0.7725
 1938TIP3   OH227372   0.175   5.314   1.265 -0.1636 -0.8033  0.1257
 1938TIP3    H127373   0.143   5.255   1.197 -2.0037 -1.5798  1.5743
 1938TIP3    H227374   0.207   5.256   1.334  1.3759 -0.0398  0.0875
 1939TIP3   OH227375   4.984   1.346   0.543  0.2767 -0.3642 -0.0219
 1939TIP3    H127376   4.982   1.258   0.504 -0.0013 -0.2107 -0.3509
 1939TIP3    H227377   4.950   1.334   0.632  2.4268 -1.0199  0.7904
 1940TIP3   OH227378   1.314   2.187   0.616 -0.1503  0.2835 -0.0504
 1940TIP3    H127379   1.340   2.253   0.551 -0.5454  2.0128  1.4635
 1940TIP3    H227380   1.294   2.109   0.564 -0.2166  1.5125 -1.9803
 1941TIP3   OH227381   5.705   1.859   1.533  0.3301  0.3728 -0.2201
 1941TIP3    H127382   5.630   1.852   1.474  0.8172  0.3023 -0.8451
 1941TIP3    H227383   5.680   1.808   1.610  0.1628 -0.5710 -0.8757
 1942TIP3   OH227384   3.215   1.429   6.447  0.6520  0.0197  0.7133
 1942TIP3    H127385   3.260   1.382   6.376 -0.8916  1.3064 -1.2083
 1942TIP3    H227386   3.126   1.395   6.446 -0.3397  2.4412 -0.3229
 1943TIP3   OH227387   0.369   2.298   2.063  0.1826 -0.4101 -0.5080
 1943TIP3    H127388   0.367   2.202   2.066 -2.2327 -0.3999  1.3785
 1943TIP3    H227389   0.277   2.324   2.069  0.8777  2.0374  0.9007
 1944TIP3   OH227390   3.224   5.761   1.164 -0.0823 -0.0114  0.1234
 1944TIP3    H127391   3.317   5.750   1.185 -0.1406 -3.0881 -0.7633
 1944TIP3    H227392   3.178   5.733   1.243 -0.1996 -1.7868 -0.5127
 1945TIP3   OH227393   6.542   5.338   6.520  0.3301  0.1547  0.0402
 1945TIP3    H127394   6.509   5.248   6.527  0.6618  0.1497  2.3811
 1945TIP3    H227395   6.463   5.392   6.524  0.2950  0.0265  1.2836
 1946TIP3   OH227396   2.069   6.220   1.638  0.3540  0.5320  0.6701
 1946TIP3    H127397   2.114   6.144   1.673 -1.5819 -0.9018  0.2236
 1946TIP3    H227398   2.051   6.197   1.547  0.4480  1.8843  0.2912
 1947TIP3   OH227399   0.284   4.764   8.373 -0.2537  0.2198  0.2209
 1947TIP3    H127400   0.338   4.773   8.294 -0.6173 -1.5185 -0.2776
 1947TIP3    H227401   0.195   4.752   8.340 -0.5183  0.1968  0.9281
 1948TIP3   OH227402   0.493   1.302   0.004 -0.1193  0.3955  0.0614
 1948TIP3    H127403   0.469   1.377  -0.050 -2.8564 -0.7405 -0.4466
 1948TIP3    H227404   0.412   1.252   0.014  1.2285 -1.6423  1.7685
 1949TIP3   OH227405   5.232   4.153   1.703  0.6485  0.2050  0.6504
 1949TIP3    H127406   5.203   4.133   1.792 -0.0530  1.6507  0.7878
 1949TIP3    H227407   5.282   4.076   1.675 -1.5673 -1.5493  1.2097
 1950TIP3   OH227408   5.672   5.179   1.454  0.4114  0.3485 -0.1354
 1950TIP3    H127409   5.640   5.240   1.521  0.7432 -1.2447  1.5809
 1950TIP3    H227410   5.766   5.171   1.472  0.5977  0.2288 -1.1085
 1951TIP3   OH227411   2.864   2.064   7.553  0.9200 -0.4986  0.4815
 1951TIP3    H127412   2.930   1.995   7.561  2.2109  0.7143  0.7646
 1951TIP3    H227413   2.834   2.079   7.642  0.1873 -1.1071  0.3417
 1952TIP3   OH227414   1.892   5.151   1.496  0.6423  0.5986  0.0754
 1952TIP3    H127415   1.896   5.085   1.565  0.6233 -0.6422 -1.0566
 1952TIP3    H227416   1.935   5.228   1.533  1.9695 -0.5131  0.9497
 1953TIP3   OH227417   2.749   5.456   0.618  0.4552 -0.6347 -0.3450
 1953TIP3    H127418   2.720   5.495   0.700  1.5956 -1.2897  0.3775
 1953TIP3    H227419   2.670   5.415   0.582  0.0305 -0.6557  0.5955
 1954TIP3   OH227420   5.906   6.751   7.108 -0.2538 -0.0031 -0.0100
 1954TIP3    H127421   5.940   6.788   7.026 -0.0839 -0.6679 -0.2416
 1954TIP3    H227422   5.927   6.658   7.104 -2.2276 -0.4957 -0.2320
 1955TIP3   OH227423   2.910   5.200   7.926 -0.3150  0.1886 -0.2569
 1955TIP3    H127424   2.896   5.237   7.839  1.5865  0.6598 -0.4145
 1955TIP3    H227425   2.823   5.174   7.956 -1.2595  1.7586 -1.5089
 1956TIP3   OH227426   1.693   6.010   7.786  0.4489 -0.4472  0.4182
 1956TIP3    H127427   1.606   6.016   7.749  0.2118 -0.4027  0.9651
 1956TIP3    H227428   1.684   6.048   7.874  0.7317 -1.5355  0.9382
 1957TIP3   OH227429   2.169   1.038   2.168  0.5179 -0.2303 -0.0421
 1957TIP3    H127430   2.238   1.019   2.104  0.0192  0.5809 -0.8591
 1957TIP3    H227431   2.215   1.056   2.250  1.3474  0.9642 -0.7314
 1958TIP3   OH227432   4.348   0.833   0.194 -0.0016  0.6924 -0.4473
 1958TIP3    H127433   4.277   0.880   0.239  0.6399  0.3736  0.9421
 1958TIP3    H227434   4.422   0.837   0.255  0.7429 -0.2012 -1.2675
 1959TIP3   OH227435   0.230   1.480   8.328  0.2366  0.0685  0.3186
 1959TIP3    H127436   0.325   1.485   8.334  0.3694 -1.7028  0.1897
 1959TIP3    H227437   0.212   1.390   8.300 -1.5387 -0.2249  2.1435
 1960TIP3   OH227438   6.280   3.355   7.597 -0.0369  0.1770  0.5222
 1960TIP3    H127439   6.210   3.319   7.652 -1.3308  0.4064 -0.8935
 1960TIP3    H227440   6.234   3.414   7.536  1.4308  0.5245 -0.2910
 1961TIP3   OH227441   3.560   5.028   8.335  0.1458 -0.2594 -0.1682
 1961TIP3    H127442   3.576   5.083   8.411 -0.7028  0.7885 -0.7239
 1961TIP3    H227443   3.563   4.938   8.369 -0.7877  0.2041  1.2162
 1962TIP3   OH227444   5.979   5.671   7.747 -0.0504  0.1744  0.3034
 1962TIP3    H127445   5.954   5.739   7.810  0.4635  0.4001  0.2680
 1962TIP3    H227446   5.912   5.604   7.756 -0.2080  0.3965  0.7934
 1963TIP3   OH227447   5.903   3.981   0.210  0.5552 -0.1160 -0.0108
 1963TIP3    H127448   5.865   3.893   0.212  1.3897 -0.4668  0.5299
 1963TIP3    H227449   5.996   3.968   0.224  0.9913  0.7027 -1.7909
 1964TIP3   OH227450   4.686   2.134   8.785  0.6092  0.6697  0.0246
 1964TIP3    H127451   4.625   2.114   8.856  0.9021 -1.4337 -0.2362
 1964TIP3    H227452   4.767   2.159   8.829  0.2676  1.1442  0.3962
 1965TIP3   OH227453   0.618   1.683   2.407 -0.0490  0.0253 -0.0435
 1965TIP3    H127454   0.705   1.716   2.385  0.2000 -0.2325  0.5234
 1965TIP3    H227455   0.604   1.611   2.345  0.3873 -0.3014  0.2277
 1966TIP3   OH227456   0.862   6.536   2.287 -1.0547 -0.2720 -0.2415
 1966TIP3    H127457   0.901   6.471   2.347 -0.9629 -0.8160 -0.8709
 1966TIP3    H227458   0.857   6.616   2.338 -0.6447 -0.6345  0.3833
 1967TIP3   OH227459   5.133   0.890   8.481 -0.3275 -0.5514  0.7231
 1967TIP3    H127460   5.067   0.909   8.415  0.8150  0.5414 -0.1724
 1967TIP3    H227461   5.084   0.857   8.556 -1.8004 -0.4206 -0.1450
 1968TIP3   OH227462   2.566   6.683   0.698  0.1241 -0.4144  0.4149
 1968TIP3    H127463   2.554   6.754   0.636  1.8782 -0.2290  0.2353
 1968TIP3    H227464   2.635   6.714   0.757 -0.5712 -1.1234  1.6323
 1969TIP3   OH227465   1.695   5.144   1.294 -0.1382 -0.0818 -0.3057
 1969TIP3    H127466   1.706   5.203   1.220  0.3103 -1.2478 -1.2190
 1969TIP3    H227467   1.756   5.176   1.360  0.6522  0.0442 -1.0768
 1970TIP3   OH227468   3.744   2.086   7.220  0.5024  0.0026  0.5352
 1970TIP3    H127469   3.831   2.114   7.193 -0.1224  0.2108 -1.3628
 1970TIP3    H227470   3.698   2.167   7.240  1.4854 -0.1606  4.3565
 1971TIP3   OH227471   5.416   6.044   1.980 -0.7869  0.1685  0.0472
 1971TIP3    H127472   5.432   6.007   2.067 -0.3454  0.0943 -0.0632
 1971TIP3    H227473   5.502   6.047   1.939 -0.9491  0.4973 -0.2732
 1972TIP3   OH227474   2.922   5.000   8.714 -0.2591 -0.5570 -0.1733
 1972TIP3    H127475   2.847   5.059   8.701  0.1047  0.0833  0.5555
 1972TIP3    H227476   2.883   4.913   8.713 -1.4672 -0.1765  2.6507
 1973TIP3   OH227477   3.606   4.068   7.154 -0.0107  0.0518  0.0980
 1973TIP3    H127478   3.551   4.112   7.089  0.5469 -0.4362 -0.7367
 1973TIP3    H227479   3.621   3.980   7.117 -1.1840 -0.9098  1.7701
 1974TIP3   OH227480   6.180   1.143   1.079 -0.2254 -0.3655 -0.0428
 1974TIP3    H127481   6.264   1.118   1.119 -0.1954 -0.0988  0.0610
 1974TIP3    H227482   6.114   1.118   1.144 -0.1474  0.4528  0.3539
 1975TIP3   OH227483   1.045   5.823   1.681  0.1316  0.2734  0.0419
 1975TIP3    H127484   1.042   5.903   1.627  2.1437  0.2969 -0.1140
 1975TIP3    H227485   1.111   5.842   1.747 -0.1726 -0.8837  0.6966
 1976TIP3   OH227486   0.365   3.089   8.115 -0.4033  0.0261 -0.0106
 1976TIP3    H127487   0.285   3.048   8.079  0.6165  0.0099 -2.4912
 1976TIP3    H227488   0.416   3.016   8.148 -0.1548 -0.3448 -1.1533
 1977TIP3   OH227489   5.207   1.788   1.231  0.0020  0.4841  0.0729
 1977TIP3    H127490   5.165   1.807   1.315  0.7316  0.8560  0.3622
 1977TIP3    H227491   5.134   1.769   1.172 -0.4285 -2.4644  1.4020
 1978TIP3   OH227492   0.832   0.123   7.418  0.1722 -0.9437  0.6161
 1978TIP3    H127493   0.880   0.095   7.496  1.8702 -0.4525 -0.1978
 1978TIP3    H227494   0.834   0.047   7.360  3.2148  0.0962 -0.8632
 1979TIP3   OH227495   3.997   3.550   1.537 -0.3578  0.2133  0.2094
 1979TIP3    H127496   4.046   3.630   1.556 -0.3692  0.2390  0.1311
 1979TIP3    H227497   3.939   3.539   1.612 -1.0476  0.8164 -0.2145
 1980TIP3   OH227498   4.594   6.750   6.461 -0.1094 -0.1004 -0.0532
 1980TIP3    H127499   4.568   6.777   6.374 -0.0341 -0.4514 -0.1868
 1980TIP3    H227500   4.589   6.830   6.514 -1.8168 -0.2156  0.0259
 1981TIP3   OH227501   6.379   5.691   6.881  0.1266 -0.2223 -0.3908
 1981TIP3    H127502   6.331   5.693   6.798  0.0772 -0.0333 -0.3583
 1981TIP3    H227503   6.459   5.642   6.862 -0.1085 -0.5988 -0.4301
 1982TIP3   OH227504   3.592   2.617   7.175 -0.3664  0.5508  0.5106
 1982TIP3    H127505   3.551   2.599   7.091 -0.6803  0.6760  0.6382
 1982TIP3    H227506   3.522   2.651   7.230 -0.1806  0.3972  0.8478
 1983TIP3   OH227507   3.744   2.811   1.664 -0.7467 -0.0284  0.3503
 1983TIP3    H127508   3.783   2.890   1.702  1.8392 -0.8889 -0.3374
 1983TIP3    H227509   3.736   2.750   1.738 -2.1671  0.5947  0.7567
 1984TIP3   OH227510   6.481   4.116   7.339  0.2020  0.3658  0.1151
 1984TIP3    H127511   6.574   4.136   7.324  0.3007  0.6112  1.0007
 1984TIP3    H227512   6.434   4.181   7.286  0.5309  0.4862 -0.0321
 1985TIP3   OH227513   3.540   3.250   6.339 -0.5635 -0.3658  0.1895
 1985TIP3    H127514   3.466   3.193   6.359 -0.3380 -0.5462  0.5318
 1985TIP3    H227515   3.517   3.291   6.255 -0.7381 -0.9515 -0.0581
 1986TIP3   OH227516   4.615   6.293   7.214  0.1161 -0.4701 -0.2883
 1986TIP3    H127517   4.686   6.347   7.178 -0.9866  1.2331  0.0211
 1986TIP3    H227518   4.615   6.312   7.308 -1.0087 -0.1349 -0.3447
 1987TIP3   OH227519   3.563   5.634   2.572  0.0533 -0.0170  0.4802
 1987TIP3    H127520   3.478   5.665   2.540  0.8298  0.6162 -1.0975
 1987TIP3    H227521   3.574   5.677   2.656 -1.6698 -1.0030  1.2571
 1988TIP3   OH227522   1.621   6.337   8.238 -0.2274  0.1051 -0.1036
 1988TIP3    H127523   1.582   6.406   8.291  0.9119  0.7249 -0.0584
 1988TIP3    H227524   1.651   6.271   8.301 -0.8546 -0.2101 -0.1213
 1989TIP3   OH227525   0.253   1.388   0.972  0.3786  0.5163  0.6404
 1989TIP3    H127526   0.172   1.350   0.938  1.6929 -1.8055 -0.0666
 1989TIP3    H227527   0.322   1.351   0.918  1.8922  3.7039  0.1096
 1990TIP3   OH227528   0.185   0.147   1.689  0.4738  0.0670 -0.3200
 1990TIP3    H127529   0.146   0.195   1.762 -0.7897  0.4715 -1.2201
 1990TIP3    H227530   0.186   0.210   1.617 -0.3359 -0.9516 -1.2577
 1991TIP3   OH227531   1.059   0.381   7.387 -0.3303 -0.3030  0.2509
 1991TIP3    H127532   1.010   0.432   7.322 -1.0186  0.1143  1.0890
 1991TIP3    H227533   1.049   0.290   7.357  0.4387 -0.0282 -0.9340
 1992TIP3   OH227534   5.529   1.537   2.222 -0.0368  0.0395  0.1432
 1992TIP3    H127535   5.514   1.507   2.132  0.9479  0.9188 -0.3439
 1992TIP3    H227536   5.441   1.549   2.258 -0.4702  0.5316 -1.0104
 1993TIP3   OH227537   1.984   6.741   7.643  0.2613 -0.5944  0.4171
 1993TIP3    H127538   1.946   6.655   7.624  1.0929 -1.2768  1.7480
 1993TIP3    H227539   1.921   6.783   7.701 -0.4086 -0.0571 -0.6629
 1994TIP3   OH227540   4.745   5.691   0.227 -0.1379 -0.0534 -0.2313
 1994TIP3    H127541   4.751   5.644   0.310  1.0827  1.8854  0.8219
 1994TIP3    H227542   4.668   5.747   0.236 -0.4890 -0.4262 -0.7721
 1995TIP3   OH227543   1.939   4.338   7.742  0.2571  0.1917  0.1773
 1995TIP3    H127544   1.992   4.310   7.667  0.5496  1.4024 -0.0829
 1995TIP3    H227545   1.972   4.285   7.815  0.2885 -0.6650 -0.4375
 1996TIP3   OH227546   0.347   3.030   1.838  0.1176  0.5075  0.2746
 1996TIP3    H127547   0.431   2.986   1.824 -1.0300 -2.1654  1.0981
 1996TIP3    H227548   0.285   2.978   1.786 -1.1741  1.8912  0.3847
 1997TIP3   OH227549   3.861   6.337   1.974 -0.1134  0.2022 -0.4051
 1997TIP3    H127550   3.891   6.248   1.992 -2.0960 -0.3974  0.1728
 1997TIP3    H227551   3.788   6.350   2.034 -1.0989  1.4952 -1.8255
 1998TIP3   OH227552   0.540   1.700   7.235 -0.1622  0.5483  1.0598
 1998TIP3    H127553   0.506   1.709   7.146  0.8704  0.3593  0.6305
 1998TIP3    H227554   0.535   1.788   7.272 -0.2071  0.7138  0.6623
 1999TIP3   OH227555   6.280   1.887   2.030  0.0962  0.1938  0.2591
 1999TIP3    H127556   6.277   1.976   1.993  0.0311 -0.5811 -1.7202
 1999TIP3    H227557   6.217   1.889   2.101 -2.0517  0.9971 -1.5500
 2000TIP3   OH227558   2.323   4.628   0.123  0.2768 -0.1156 -0.1417
 2000TIP3    H127559   2.376   4.629   0.203 -0.1929  1.1404  0.1861
 2000TIP3    H227560   2.371   4.570   0.063  0.4735 -1.3270  1.1440
 2001TIP3   OH227561   6.445   1.494   2.199  0.2119 -0.2637  0.1340
 2001TIP3    H127562   6.387   1.536   2.263  0.8563 -1.0153  1.2308
 2001TIP3    H227563   6.406   1.517   2.114 -1.7454 -0.8082  0.8222
 2002TIP3   OH227564   5.765   5.753   0.740 -0.2466 -0.2052  0.5591
 2002TIP3    H127565   5.790   5.661   0.741 -0.2920 -0.2730 -1.3404
 2002TIP3    H227566   5.822   5.794   0.804 -1.3825 -1.7941  2.7275
 2003TIP3   OH227567   3.563   1.783   1.742 -0.7591 -0.0083 -0.7113
 2003TIP3    H127568   3.477   1.768   1.781 -0.2931  0.7610  0.7210
 2003TIP3    H227569   3.595   1.863   1.785  0.4669 -0.0001 -1.5672
 2004TIP3   OH227570   1.615   3.030   8.335  0.0726 -0.7608 -0.6080
 2004TIP3    H127571   1.519   3.022   8.335 -0.0790  0.7704 -0.2335
 2004TIP3    H227572   1.640   3.022   8.427 -0.1534  2.9073 -0.0875
 2005TIP3   OH227573   0.552   0.011   7.906 -0.9210  0.2022  0.2337
 2005TIP3    H127574   0.629  -0.014   7.958  0.0614 -0.3299 -1.3874
 2005TIP3    H227575   0.570   0.101   7.878 -0.4348 -0.2036 -0.8456
 2006TIP3   OH227576   5.452   0.214   6.754  0.3168  0.0147 -0.1575
 2006TIP3    H127577   5.400   0.192   6.677 -0.3342  0.7929  0.0366
 2006TIP3    H227578   5.389   0.211   6.827  0.9355 -0.7766  0.3622
 2007TIP3   OH227579   1.636   3.191   1.214  0.5650  0.5989 -0.3574
 2007TIP3    H127580   1.667   3.207   1.304 -1.2243  1.2234  0.2042
 2007TIP3    H227581   1.714   3.196   1.160  1.3932  2.5712  0.9032
 2008TIP3   OH227582   4.122   5.064   8.447  0.3737  0.3590  0.1995
 2008TIP3    H127583   4.050   5.102   8.397  0.7257  0.0717 -0.5399
 2008TIP3    H227584   4.081   4.994   8.498  0.1881 -0.1224 -0.5810
 2009TIP3   OH227585   5.847   2.156   0.348 -0.2508  0.7118 -0.8106
 2009TIP3    H127586   5.776   2.112   0.302 -0.4219  2.0775 -1.9192
 2009TIP3    H227587   5.924   2.142   0.293 -0.2783  1.6484 -1.1050
 2010TIP3   OH227588   6.490   1.470   1.357  0.1609  0.2001 -0.0821
 2010TIP3    H127589   6.401   1.450   1.385 -0.7238  1.9865 -1.4151
 2010TIP3    H227590   6.544   1.405   1.402 -1.4277  0.9611  3.2763
 2011TIP3   OH227591   6.574   4.709   1.167  0.3232 -0.2035 -0.0813
 2011TIP3    H127592   6.491   4.733   1.127 -0.9446  0.7816  2.8822
 2011TIP3    H227593   6.625   4.790   1.169  0.4581 -0.2898  0.0739
 2012TIP3   OH227594   1.393   4.990   8.599  0.0328 -0.5593  0.7463
 2012TIP3    H127595   1.404   5.083   8.582 -0.2900 -0.7138 -0.4142
 2012TIP3    H227596   1.318   4.986   8.660  0.1279 -0.0635  0.9017
 2013TIP3   OH227597   6.078   0.996   8.551 -0.3846  0.3515  0.0562
 2013TIP3    H127598   6.099   1.064   8.486  0.8286  0.6995  0.7804
 2013TIP3    H227599   6.060   1.045   8.631  0.0271 -0.1498  0.4609
 2014TIP3   OH227600   1.945   2.466   1.600  0.4763 -0.4225 -0.0295
 2014TIP3    H127601   1.968   2.498   1.688  2.1665  0.9870 -0.9177
 2014TIP3    H227602   1.853   2.442   1.607  0.3311  0.4909  1.9130
 2015TIP3   OH227603   1.216   1.616   2.561 -0.0929  0.3133 -0.0886
 2015TIP3    H127604   1.292   1.562   2.539  1.8675  2.8449 -0.0337
 2015TIP3    H227605   1.211   1.611   2.657 -1.2612 -1.3763 -0.2029
 2016TIP3   OH227606   6.247   2.389   7.441 -0.0818  0.2804  0.4076
 2016TIP3    H127607   6.342   2.381   7.444 -0.1833 -1.0541  2.1399
 2016TIP3    H227608   6.228   2.465   7.497 -0.0427  0.8495 -0.3294
 2017TIP3   OH227609   0.806   5.934   8.477  0.7379 -0.4079 -0.4805
 2017TIP3    H127610   0.771   5.845   8.469  0.8143 -0.4670 -0.1841
 2017TIP3    H227611   0.873   5.927   8.545 -2.2191  0.7229  2.8603
 2018TIP3   OH227612   1.959   6.031   8.063 -0.7073  0.1700  0.2240
 2018TIP3    H127613   1.915   5.951   8.090  0.6442 -0.2931  1.1681
 2018TIP3    H227614   2.020   6.051   8.135  2.8100 -0.8854 -2.1888
 2019TIP3   OH227615   5.726   0.867   8.412  0.0971  0.5503  0.1309
 2019TIP3    H127616   5.709   0.949   8.365 -1.5802  0.3020  0.2227
 2019TIP3    H227617   5.704   0.887   8.503  0.3450  0.1796  0.2737
 2020TIP3   OH227618   2.184   0.420   8.633 -0.1980 -0.3958 -0.2189
 2020TIP3    H127619   2.192   0.506   8.675 -1.4743 -0.0990 -0.5543
 2020TIP3    H227620   2.112   0.377   8.680  1.3080 -1.8759  0.8933
 2021TIP3   OH227621   6.047   3.344   6.216  0.0347  0.3229  0.0458
 2021TIP3    H127622   6.090   3.389   6.142 -1.4091  1.9534  0.1462
 2021TIP3    H227623   6.018   3.415   6.274 -1.5453 -0.7752  0.6633
 2022TIP3   OH227624   5.919   6.566   0.946 -0.3749 -0.4953  0.2224
 2022TIP3    H127625   5.849   6.570   0.882  1.3877 -2.0603 -1.9476
 2022TIP3    H227626   5.995   6.603   0.902  0.6417 -0.6029  1.8031
 2023TIP3   OH227627   3.988   4.849   8.549  0.7452  0.1208 -0.0628
 2023TIP3    H127628   4.034   4.777   8.505  2.1378  1.3263 -0.6728
 2023TIP3    H227629   3.897   4.819   8.555  1.3925 -1.9377  0.2964
 2024TIP3   OH227630   0.218   4.739   7.388  0.0644 -0.9123 -0.3721
 2024TIP3    H127631   0.191   4.830   7.402 -0.5826 -1.2648  0.8492
 2024TIP3    H227632   0.188   4.718   7.300 -1.8455 -0.6299  0.1684
 2025TIP3   OH227633   2.583   1.209   0.734  0.2184 -0.2791  0.3179
 2025TIP3    H127634   2.586   1.295   0.776  1.5749  0.6058 -1.4216
 2025TIP3    H227635   2.532   1.223   0.654 -0.1674 -1.2789  0.3697
 2026TIP3   OH227636   4.913   4.726   0.229  0.3052 -0.4108 -0.0656
 2026TIP3    H127637   4.933   4.819   0.242 -1.2669 -0.1084  0.3748
 2026TIP3    H227638   4.967   4.701   0.154  0.5821  0.9224 -0.3489
 2027TIP3   OH227639   3.512   1.428   8.716 -0.1458 -0.1704 -0.1992
 2027TIP3    H127640   3.500   1.384   8.632  0.5440 -0.8364  0.0381
 2027TIP3    H227641   3.582   1.378   8.759  1.8364  2.1070 -0.5885
 2028TIP3   OH227642   5.329   2.565   8.551  0.5652  0.4088 -0.4975
 2028TIP3    H127643   5.408   2.515   8.535 -0.5579 -1.4171 -0.5836
 2028TIP3    H227644   5.258   2.512   8.514 -0.8122  1.5525  0.3618
 2029TIP3   OH227645   4.561   5.044   8.640  0.7597 -0.1059  0.1702
 2029TIP3    H127646   4.612   5.120   8.669  1.4749 -1.1608  1.7551
 2029TIP3    H227647   4.627   4.980   8.612  0.1755 -0.3702 -0.6478
 2030TIP3   OH227648   6.248   5.095   8.751 -0.4116  0.5124 -0.1603
 2030TIP3    H127649   6.318   5.160   8.757 -0.2506  0.4684 -1.2938
 2030TIP3    H227650   6.295   5.011   8.745 -0.6193  0.2397  1.5863
 2031TIP3   OH227651   4.498   6.388   6.950 -0.7152 -0.0071 -0.4535
 2031TIP3    H127652   4.590   6.409   6.967 -0.0361 -1.8246 -1.5562
 2031TIP3    H227653   4.461   6.369   7.037 -0.0606  0.6816 -0.0080
 2032TIP3   OH227654   0.717   6.516   2.060  0.8025 -0.1318  0.4893
 2032TIP3    H127655   0.680   6.428   2.060  0.3810  0.0454  0.3540
 2032TIP3    H227656   0.761   6.524   2.145  1.5484 -0.7648  0.1762
 2033TIP3   OH227657   3.616   3.553   7.931  0.5802 -0.1781  0.0766
 2033TIP3    H127658   3.629   3.620   7.998  0.4471  0.7200 -0.7822
 2033TIP3    H227659   3.669   3.582   7.857 -0.5680 -0.2727 -0.8197
 2034TIP3   OH227660   4.371   5.436   0.140  0.0184 -0.3000  0.1018
 2034TIP3    H127661   4.290   5.477   0.168 -0.4775 -0.4881 -1.0003
 2034TIP3    H227662   4.346   5.346   0.118  0.4402 -0.2512 -0.6079
 2035TIP3   OH227663   6.339   4.265   1.901  0.2395  0.0946 -0.1046
 2035TIP3    H127664   6.375   4.354   1.907  1.3206 -0.3663  0.5476
 2035TIP3    H227665   6.251   4.272   1.939  1.4559  0.2970  2.9112
 2036TIP3   OH227666   2.694   2.090   1.772 -0.5173  0.2528 -0.0829
 2036TIP3    H127667   2.755   2.157   1.805 -1.9012  0.3964  2.3930
 2036TIP3    H227668   2.676   2.035   1.847 -0.5306 -2.1225 -1.7330
 2037TIP3   OH227669   3.352   2.758   0.310 -0.1448 -0.3137  0.4132
 2037TIP3    H127670   3.415   2.830   0.308 -0.5330  0.0178 -1.1022
 2037TIP3    H227671   3.397   2.686   0.265 -0.8434 -0.0550 -0.7312
 2038TIP3   OH227672   6.543   3.858   6.507 -0.7652  0.1028  0.5415
 2038TIP3    H127673   6.528   3.763   6.504 -1.8760  0.2166  1.6834
 2038TIP3    H227674   6.623   3.867   6.559  1.4056 -0.3158 -2.4184
 2039TIP3   OH227675   1.330   4.895   7.846  0.2632 -0.0251 -0.5332
 2039TIP3    H127676   1.406   4.854   7.804 -0.6118 -0.2768 -1.9775
 2039TIP3    H227677   1.268   4.823   7.858 -0.1625  0.3588 -0.4032
 2040TIP3   OH227678   2.553   1.443   6.424  0.7379  0.3415 -0.2809
 2040TIP3    H127679   2.630   1.388   6.409 -0.6743 -1.3000 -2.0812
 2040TIP3    H227680   2.490   1.384   6.467 -0.9536  0.3103 -2.6124
 2041TIP3   OH227681   6.564   2.943   0.971 -0.0029  0.5087  0.1937
 2041TIP3    H127682   6.575   2.971   0.880 -0.7899  1.3488  0.3357
 2041TIP3    H227683   6.497   2.875   0.968  2.8964 -2.5651 -0.3273
 2042TIP3   OH227684   1.624   6.759   8.846  0.2016 -0.7504 -0.2255
 2042TIP3    H127685   1.551   6.722   8.796 -1.8498 -0.7994  2.5662
 2042TIP3    H227686   1.641   6.696   8.915 -1.2728  1.8166  2.7599
 2043TIP3   OH227687   1.941   6.375   6.029  0.3983  0.1497  0.1573
 2043TIP3    H127688   1.956   6.397   6.121 -0.2673 -0.0474  0.3131
 2043TIP3    H227689   1.856   6.333   6.027  0.4308  0.0989 -0.5460
 2044TIP3   OH227690   1.104   3.405   7.530 -0.6051 -0.3175  0.3287
 2044TIP3    H127691   1.198   3.416   7.543 -0.4310 -2.6771  1.5318
 2044TIP3    H227692   1.080   3.475   7.470  1.9721  0.1012 -0.3257
 2045TIP3   OH227693   5.228   0.264   1.114  0.2806  0.0118  0.8146
 2045TIP3    H127694   5.318   0.240   1.094  0.8886  0.7608  2.4392
 2045TIP3    H227695   5.197   0.309   1.036  0.7620 -1.5993 -0.3652
 2046TIP3   OH227696   0.451   4.212   1.674  0.5078 -0.5482 -0.3812
 2046TIP3    H127697   0.455   4.302   1.708 -3.8013  1.6115 -4.4649
 2046TIP3    H227698   0.415   4.161   1.747  0.8528  1.4985  1.3393
 2047TIP3   OH227699   0.353   2.211   1.547 -0.3706  0.4540  0.1111
 2047TIP3    H127700   0.344   2.286   1.607  0.1199  0.7535 -0.1894
 2047TIP3    H227701   0.298   2.234   1.472 -0.3921  0.4138  0.1145
 2048TIP3   OH227702   2.993   1.465   2.122  0.2677  0.5539 -0.6588
 2048TIP3    H127703   2.978   1.441   2.213 -1.8214 -0.3207 -1.1713
 2048TIP3    H227704   3.031   1.553   2.126  0.8700  0.2483  1.0475
 2049TIP3   OH227705   1.445   4.424   8.280 -0.5657  0.2910 -0.5158
 2049TIP3    H127706   1.446   4.329   8.291 -0.1103  0.2769 -0.6695
 2049TIP3    H227707   1.534   4.447   8.253 -0.0235  1.0358  1.7197
 2050TIP3   OH227708   0.026   3.754   7.287  0.3663  0.4695 -0.2244
 2050TIP3    H127709   0.031   3.675   7.234  1.9422 -0.1318  0.7738
 2050TIP3    H227710   0.034   3.826   7.224  1.7151 -0.2173 -0.8631
 2051TIP3   OH227711   5.664   2.418   8.782 -0.0654 -0.1270 -0.5348
 2051TIP3    H127712   5.577   2.415   8.821  0.4796 -1.2654  0.6665
 2051TIP3    H227713   5.672   2.335   8.734  0.9834 -0.8565  0.8376
 2052TIP3   OH227714   5.118   0.695   8.692  0.4097 -0.0474 -0.1244
 2052TIP3    H127715   5.152   0.661   8.610  0.8882  0.5601 -0.1824
 2052TIP3    H227716   5.027   0.664   8.695  0.6009 -0.6736 -0.5322
 2053TIP3   OH227717   2.103   3.342   2.304  0.1796 -0.6724  0.2881
 2053TIP3    H127718   2.117   3.278   2.374 -1.3374 -0.1947  1.0692
 2053TIP3    H227719   2.077   3.289   2.229 -3.3167 -0.9803  1.5273
 2054TIP3   OH227720   2.065   5.104   7.883 -0.0469  0.4836  0.2117
 2054TIP3    H127721   1.976   5.133   7.899 -0.4276 -1.7431  3.1186
 2054TIP3    H227722   2.056   5.011   7.860  1.4420  0.6362 -1.1334
 2055TIP3   OH227723   2.714   3.023   8.337  0.1509 -0.0620  0.3310
 2055TIP3    H127724   2.754   3.051   8.419  0.7991  0.3016 -0.0959
 2055TIP3    H227725   2.641   3.083   8.324  0.0404 -0.1261  0.6371
 2056TIP3   OH227726   6.137   3.820   8.365  0.7051  0.4435  0.6381
 2056TIP3    H127727   6.060   3.859   8.324  0.4600 -1.0552 -0.3886
 2056TIP3    H227728   6.105   3.740   8.405  1.7336 -0.2436  0.1283
 2057TIP3   OH227729   6.347   0.118   2.252 -0.5449 -0.5492  0.0889
 2057TIP3    H127730   6.394   0.158   2.325 -1.7018 -1.1963  1.2371
 2057TIP3    H227731   6.411   0.114   2.182  0.9217 -0.8192  1.3783
 2058TIP3   OH227732   1.235   0.204   0.743  0.1251  0.6533  0.0238
 2058TIP3    H127733   1.250   0.196   0.649 -0.5003 -0.5567  0.0028
 2058TIP3    H227734   1.161   0.264   0.751 -1.2895 -0.9548 -0.4153
 2059TIP3   OH227735   3.068   2.492   1.145  0.4184 -0.7786  0.1581
 2059TIP3    H127736   3.024   2.429   1.086 -0.2565 -1.8051  1.6780
 2059TIP3    H227737   3.003   2.509   1.213  1.4285 -0.1850  0.9957
 2060TIP3   OH227738   4.918   5.924   1.473  0.0879 -0.2375 -0.2001
 2060TIP3    H127739   4.997   5.918   1.527  0.5824 -1.1147 -0.9927
 2060TIP3    H227740   4.854   5.869   1.519  0.7142 -1.5340 -0.8283
 2061TIP3   OH227741   5.569   0.615   8.627  0.3790  0.6243  0.7027
 2061TIP3    H127742   5.505   0.667   8.675  1.2616 -0.0406  2.7522
 2061TIP3    H227743   5.651   0.630   8.674  1.1101 -0.8019 -0.0630
 2062TIP3   OH227744   0.229   1.649   0.900  0.1732 -0.0940 -0.0121
 2062TIP3    H127745   0.248   1.562   0.935 -0.1035 -0.4083 -0.6379
 2062TIP3    H227746   0.134   1.660   0.912  0.2589  0.2669  0.3815
 2063TIP3   OH227747   0.409   1.241   0.376 -0.3999  0.0384  0.2285
 2063TIP3    H127748   0.469   1.178   0.417 -0.9080 -1.3158 -1.0248
 2063TIP3    H227749   0.466   1.305   0.335  0.2130 -0.9994 -0.5974
 2064TIP3   OH227750   3.603   1.077   1.656 -0.4295  0.4247 -0.4579
 2064TIP3    H127751   3.648   1.162   1.660  0.8868 -0.2492 -0.1274
 2064TIP3    H227752   3.662   1.021   1.605 -0.9136 -0.4826 -0.0540
 2065TIP3   OH227753   0.641   0.767   8.377  0.3236  0.3904  0.3697
 2065TIP3    H127754   0.709   0.733   8.435  1.5709  0.9550 -0.7095
 2065TIP3    H227755   0.662   0.860   8.367 -1.5495  0.9555  1.2525
 2066TIP3   OH227756   1.571   3.029   0.597  0.0344 -0.2699  0.2042
 2066TIP3    H127757   1.528   2.963   0.543  0.1178  0.6729 -1.0521
 2066TIP3    H227758   1.661   3.030   0.566  0.3117 -0.3665  1.0005
 2067TIP3   OH227759   1.886   3.130   1.095 -0.0270 -0.0758  0.2523
 2067TIP3    H127760   1.946   3.096   1.029  0.5896  1.6237 -0.1300
 2067TIP3    H227761   1.800   3.099   1.069  0.1400  0.9323 -1.6642
 2068TIP3   OH227762   0.084   1.571   7.296  0.2511 -0.0893  0.1420
 2068TIP3    H127763   0.072   1.647   7.352  0.3313  0.7704 -0.9621
 2068TIP3    H227764   0.179   1.566   7.282  0.3210 -0.8787  0.8481
 2069TIP3   OH227765   4.698   2.810   0.799 -0.3650  0.6438  0.1907
 2069TIP3    H127766   4.723   2.722   0.771 -0.5154  0.4098  0.7779
 2069TIP3    H227767   4.779   2.848   0.833 -0.1424  0.9915 -0.6958
 2070TIP3   OH227768   5.224   0.855   1.406  0.5055 -0.0945 -0.2248
 2070TIP3    H127769   5.212   0.950   1.404  0.5928 -0.0476  0.8075
 2070TIP3    H227770   5.318   0.842   1.401  0.5787 -0.0613  0.8075
 2071TIP3   OH227771   0.623   2.545   8.837 -0.1751 -0.6307 -0.7879
 2071TIP3    H127772   0.717   2.529   8.833 -0.0821 -0.8608  1.0311
 2071TIP3    H227773   0.596   2.558   8.747  1.3066 -2.2812 -1.5318
 2072TIP3   OH227774   0.524   5.988   8.279 -0.5035  0.0368 -0.3296
 2072TIP3    H127775   0.568   6.053   8.334  0.3106 -2.0752  1.6962
 2072TIP3    H227776   0.560   5.904   8.308  0.2284 -1.2723 -4.3468
 2073TIP3   OH227777   3.630   3.394   1.466 -0.1864  0.0778 -0.3049
 2073TIP3    H127778   3.558   3.357   1.415  0.2767 -0.0209 -0.8956
 2073TIP3    H227779   3.645   3.330   1.536  0.1295 -0.5068 -0.8942
 2074TIP3   OH227780   2.270   0.758   0.688 -0.3631  0.0632  0.5410
 2074TIP3    H127781   2.309   0.771   0.775  0.1562  1.8758  0.0828
 2074TIP3    H227782   2.301   0.833   0.637 -3.1418  0.7347 -0.3304
 2075TIP3   OH227783   6.323   6.162   1.224  0.1484  0.0112  0.3770
 2075TIP3    H127784   6.413   6.188   1.206 -0.6660  1.6159 -2.0081
 2075TIP3    H227785   6.299   6.210   1.303  0.7297  1.4373 -0.2656
 2076TIP3   OH227786   1.975   0.700   0.182  0.0547  0.0533  0.3129
 2076TIP3    H127787   1.893   0.677   0.137  0.4200  0.3398 -0.5248
 2076TIP3    H227788   1.949   0.766   0.247 -0.7876 -1.6961  1.8436
 2077TIP3   OH227789   0.651   5.703   8.512 -0.1237  0.2462  0.2519
 2077TIP3    H127790   0.662   5.623   8.461  1.9019  0.6665 -0.0491
 2077TIP3    H227791   0.599   5.675   8.587  0.6019 -1.4043  0.2048
 2078TIP3   OH227792   2.295   1.108   0.690  0.2966  0.0538 -0.5333
 2078TIP3    H127793   2.342   1.039   0.643 -1.0126 -0.3953 -1.2210
 2078TIP3    H227794   2.304   1.185   0.634  0.0724 -0.0758 -0.7490
 2079TIP3   OH227795   4.772   1.661   8.390 -0.5391  0.0040  0.1366
 2079TIP3    H127796   4.685   1.636   8.420 -1.1399 -0.7757 -2.0724
 2079TIP3    H227797   4.760   1.745   8.347 -0.0559  0.1943  0.3592
 2080TIP3   OH227798   3.264   5.957   7.113 -0.1660 -0.1629 -0.3456
 2080TIP3    H127799   3.313   6.017   7.170 -0.6948 -1.2807  1.3687
 2080TIP3    H227800   3.303   5.968   7.027  0.9256  1.3356  0.3037
 2081TIP3   OH227801   4.328   1.238   8.775 -0.2927 -0.0390  0.5680
 2081TIP3    H127802   4.262   1.186   8.821 -0.8615  1.1756  1.1593
 2081TIP3    H227803   4.392   1.174   8.746 -0.5092 -0.9822  2.0517
 2082TIP3   OH227804   4.909   4.136   0.616 -0.2848 -0.0304  0.1153
 2082TIP3    H127805   4.894   4.138   0.522 -1.2347 -0.1051  0.2535
 2082TIP3    H227806   4.861   4.211   0.650  0.5186  0.3267  0.4816
 2083TIP3   OH227807   1.324   6.441   0.957 -0.2095  0.8061  0.1364
 2083TIP3    H127808   1.296   6.409   0.871 -1.7946  0.4379  0.7419
 2083TIP3    H227809   1.391   6.379   0.986 -0.0858  0.6042 -0.5859
 2084TIP3   OH227810   2.167   2.927   7.710 -1.0286  0.3422 -0.2536
 2084TIP3    H127811   2.159   2.846   7.660 -2.4509 -0.0516  0.5402
 2084TIP3    H227812   2.253   2.962   7.687 -0.8482 -0.8207 -1.4489
 2085TIP3   OH227813   4.714   5.530   7.774 -0.0714 -0.9841  0.4606
 2085TIP3    H127814   4.790   5.536   7.718 -1.0215 -1.8848 -1.0037
 2085TIP3    H227815   4.693   5.436   7.776  0.0204 -1.0006  2.4649
 2086TIP3   OH227816   5.320   0.033   1.382  0.0127  0.1552  0.2964
 2086TIP3    H127817   5.299  -0.036   1.445  0.1889 -1.0246 -0.8863
 2086TIP3    H227818   5.393  -0.003   1.332 -1.2966  0.2306 -1.7888
 2087TIP3   OH227819   0.429   1.249   2.162  0.1828 -0.3414 -0.0622
 2087TIP3    H127820   0.356   1.202   2.121 -1.7157  2.1686  0.2467
 2087TIP3    H227821   0.469   1.184   2.220 -0.7796 -2.2465 -1.4202
 2088TIP3   OH227822   1.213   4.627   1.852  0.4507 -0.0681  0.2078
 2088TIP3    H127823   1.183   4.550   1.901 -0.0220  0.9190  1.5086
 2088TIP3    H227824   1.138   4.652   1.798 -0.0957  0.6621  1.2845
 2089TIP3   OH227825   2.017   4.418   1.158  0.8255  0.0002  0.2723
 2089TIP3    H127826   2.008   4.406   1.063 -0.0023  0.1642  0.3192
 2089TIP3    H227827   1.927   4.411   1.191  0.7593  2.4386  0.7464
 2090TIP3   OH227828   4.297   6.665   8.519  0.2691 -0.7595 -0.0221
 2090TIP3    H127829   4.304   6.687   8.427 -2.2300  2.0144  0.3271
 2090TIP3    H227830   4.209   6.693   8.545  1.8368  1.3765  3.8637
 2091TIP3   OH227831   2.985   5.457   0.441 -0.2138 -0.0484 -0.1636
 2091TIP3    H127832   2.929   5.394   0.486 -0.3534  0.9778  1.1469
 2091TIP3    H227833   2.970   5.540   0.487  1.8865  0.3927 -0.1735
 2092TIP3   OH227834   2.369   2.786   1.696 -0.1171  0.5041 -0.2198
 2092TIP3    H127835   2.412   2.861   1.654 -2.1132  0.8949 -1.7014
 2092TIP3    H227836   2.364   2.811   1.788  1.1613  1.2131 -0.3067
 2093TIP3   OH227837   5.358   2.283   8.697  0.5976  0.0389  0.5058
 2093TIP3    H127838   5.291   2.235   8.649  1.1285  1.1768 -1.5326
 2093TIP3    H227839   5.441   2.250   8.662  1.0863 -0.5616  2.1761
 2094TIP3   OH227840   3.707   4.292   7.358 -0.3540  0.1199 -0.3266
 2094TIP3    H127841   3.774   4.340   7.406  0.6850 -1.2683 -0.3123
 2094TIP3    H227842   3.628   4.345   7.367  0.5835  1.4806  0.1914
 2095TIP3   OH227843   5.001   4.559   1.184 -0.3463 -0.2712 -0.1192
 2095TIP3    H127844   5.041   4.603   1.108 -0.8578 -2.3494 -1.6814
 2095TIP3    H227845   4.923   4.611   1.202 -0.2973  0.1850 -1.1182
 2096TIP3   OH227846   0.585   1.909   0.988  0.1972 -0.4004 -0.0252
 2096TIP3    H127847   0.634   1.844   0.938  0.6531 -0.6211  0.6902
 2096TIP3    H227848   0.652   1.969   1.022 -0.1454  0.0042 -0.0430
 2097TIP3   OH227849   4.277   6.723   0.968  0.4750 -0.3131 -0.0054
 2097TIP3    H127850   4.225   6.787   1.016  0.8141  0.5443 -0.7503
 2097TIP3    H227851   4.230   6.712   0.885  0.8950 -0.3393 -0.2450
 2098TIP3   OH227852   4.024   0.755   8.126  0.2566  0.2451  0.6379
 2098TIP3    H127853   3.937   0.744   8.088  0.7432 -0.9710 -0.1725
 2098TIP3    H227854   4.032   0.849   8.142 -1.1836  0.3699  0.6897
 2099TIP3   OH227855   4.454   1.794   2.466  0.3566  0.3744  0.2061
 2099TIP3    H127856   4.375   1.846   2.478  0.0249 -0.5451  2.3502
 2099TIP3    H227857   4.515   1.853   2.421 -0.9919  1.6219 -0.0332
 2100TIP3   OH227858   1.993   4.296   1.844 -0.5075 -0.5024 -0.2286
 2100TIP3    H127859   2.026   4.382   1.869  0.7101 -0.7125 -1.0078
 2100TIP3    H227860   2.071   4.248   1.815 -0.8248 -2.5467  2.0003
 2101TIP3   OH227861   3.049   3.635   7.756  0.5871 -0.2446 -1.0515
 2101TIP3    H127862   3.128   3.595   7.792  0.5429 -1.4604 -2.2608
 2101TIP3    H227863   2.977   3.581   7.788  0.2794  0.4301 -0.5592
 2102TIP3   OH227864   6.629   1.016   1.221  0.6185  0.5664 -0.0493
 2102TIP3    H127865   6.630   0.923   1.241  1.6245  0.9322  1.7878
 2102TIP3    H227866   6.704   1.030   1.162  0.2695  0.1907 -0.5938
 2103TIP3   OH227867   2.515   4.867   1.474  0.9044 -0.8573 -0.1250
 2103TIP3    H127868   2.526   4.902   1.562  0.4830 -1.7405  0.2920
 2103TIP3    H227869   2.441   4.806   1.481  0.2362 -0.2274 -1.3020
 2104TIP3   OH227870   4.874   0.565   8.641 -0.0227 -0.4770  0.5668
 2104TIP3    H127871   4.780   0.548   8.630 -0.6571  2.8060 -0.1334
 2104TIP3    H227872   4.903   0.595   8.555  1.4317 -0.4278  1.0520
 2105TIP3   OH227873   0.230   5.830   2.083 -0.1842 -0.2161 -0.2790
 2105TIP3    H127874   0.221   5.743   2.122  0.8744  0.1475  0.8427
 2105TIP3    H227875   0.144   5.872   2.096 -0.2547 -0.5842  0.4851
 2106TIP3   OH227876   3.009   0.300   7.337 -0.9389 -0.0710  0.3219
 2106TIP3    H127877   2.932   0.301   7.394 -0.0012  0.2812  1.6342
 2106TIP3    H227878   3.083   0.291   7.396  0.0872  0.2986 -0.8464
 2107TIP3   OH227879   0.655   3.575   7.483  0.2596  1.2846 -0.1294
 2107TIP3    H127880   0.717   3.523   7.533 -1.5154  1.0103  1.9300
 2107TIP3    H227881   0.684   3.566   7.392  1.6566 -0.9358  0.4626
 2108TIP3   OH227882   4.754   4.503   7.248  0.6320 -0.0912  0.4766
 2108TIP3    H127883   4.797   4.501   7.163  1.3538  0.1338  0.8312
 2108TIP3    H227884   4.673   4.552   7.233  1.5730  1.4608  0.2761
 2109TIP3   OH227885   4.006   4.833   8.088 -0.1225  0.0125 -0.1058
 2109TIP3    H127886   4.090   4.810   8.127 -0.3279  1.6009  1.3988
 2109TIP3    H227887   4.011   4.928   8.074 -0.8603 -0.1893 -2.0695
 2110TIP3   OH227888   4.288   3.875   8.508  0.3764  0.2162 -0.6330
 2110TIP3    H127889   4.236   3.879   8.588 -0.0785  0.3996 -0.9354
 2110TIP3    H227890   4.224   3.864   8.438  0.4773  2.9873 -1.2832
 2111TIP3   OH227891   0.198   5.876   2.474  0.0466 -0.1584 -0.7095
 2111TIP3    H127892   0.124   5.816   2.477 -0.6026  0.6571  1.0263
 2111TIP3    H227893   0.159   5.963   2.473  0.9880  0.2853 -2.4461
 2112TIP3   OH227894   1.616   1.479   1.169  0.6819  0.2047  0.1899
 2112TIP3    H127895   1.660   1.459   1.087 -0.1511  1.4005 -0.5814
 2112TIP3    H227896   1.684   1.467   1.236  1.5504 -0.1635 -0.7270
 2113TIP3   OH227897   4.696   1.931   8.307 -0.0283  1.2128 -0.0836
 2113TIP3    H127898   4.686   1.922   8.401  0.9710  1.9806  0.1088
 2113TIP3    H227899   4.734   2.018   8.295 -0.1992  1.1485 -1.2005
 2114TIP3   OH227900   2.572   4.697   0.993  0.5472 -0.6380  0.6036
 2114TIP3    H127901   2.481   4.723   1.009  0.5072 -0.2829 -0.1920
 2114TIP3    H227902   2.609   4.688   1.081  0.0703  0.3566  0.9244
 2115TIP3   OH227903   3.572   5.144   8.087  0.2855  0.1873  0.0782
 2115TIP3    H127904   3.479   5.144   8.064  0.7097  0.7205 -1.8566
 2115TIP3    H227905   3.576   5.102   8.173 -1.5856 -1.3730 -0.5171
 2116TIP3   OH227906   6.054   0.880   7.818  0.7268  0.3026  0.0786
 2116TIP3    H127907   5.994   0.825   7.869 -0.0717 -0.6023 -1.7513
 2116TIP3    H227908   6.130   0.824   7.803  0.0210 -0.2946 -1.5632
 2117TIP3   OH227909   6.116   4.979   0.291  0.0738  0.2646 -0.1671
 2117TIP3    H127910   6.059   4.960   0.365 -0.1925  1.1177 -0.1422
 2117TIP3    H227911   6.071   4.940   0.216 -0.9490  1.5581 -0.2697
 2118TIP3   OH227912   4.533   0.489   0.600 -0.1188  0.2886  0.2592
 2118TIP3    H127913   4.531   0.403   0.557  0.0835  1.1936 -1.6352
 2118TIP3    H227914   4.599   0.479   0.669  1.3152 -0.5560 -1.1641
 2119TIP3   OH227915   2.492   1.221   1.257 -0.2107 -0.1507  0.3229
 2119TIP3    H127916   2.453   1.308   1.259  0.1953  0.0216  1.2189
 2119TIP3    H227917   2.552   1.224   1.183 -1.3990 -0.2200 -0.6855
 2120TIP3   OH227918   1.369   5.763   8.363  0.7753  0.2493 -0.2401
 2120TIP3    H127919   1.364   5.801   8.276  1.3891  4.0386  1.1798
 2120TIP3    H227920   1.455   5.721   8.366  0.5946 -0.2657 -1.5164
 2121TIP3   OH227921   2.665   2.627   0.429  0.0224  0.1301 -0.1591
 2121TIP3    H127922   2.647   2.644   0.521  2.0965  1.5119  0.0732
 2121TIP3    H227923   2.732   2.558   0.430  0.4028  0.4873 -0.6046
 2122TIP3   OH227924   3.961   2.354   8.124 -0.2983  0.8704  0.2739
 2122TIP3    H127925   3.966   2.447   8.146 -2.7989  1.7647 -2.2429
 2122TIP3    H227926   3.880   2.324   8.164  0.0682 -0.0156  0.3769
 2123TIP3   OH227927   5.749   0.142   7.899  0.3276  0.3154  0.1734
 2123TIP3    H127928   5.809   0.188   7.958  1.8029  0.2570 -1.2230
 2123TIP3    H227929   5.766   0.179   7.813 -0.6045 -0.7545 -0.5054
 2124TIP3   OH227930   1.365   5.203   1.282  0.1193  0.0678  0.2470
 2124TIP3    H127931   1.392   5.233   1.369 -0.1532  2.3379 -0.4106
 2124TIP3    H227932   1.300   5.134   1.300  1.7607 -1.1846  1.8048
 2125TIP3   OH227933   2.090   4.662   8.821 -0.2991  0.3323 -0.2799
 2125TIP3    H127934   2.105   4.651   8.727  1.6073  0.5452 -0.0295
 2125TIP3    H227935   2.165   4.620   8.862 -1.0476  0.3617  1.1618
 2126TIP3   OH227936   5.436   5.893   7.800  0.4293 -0.4940 -0.2925
 2126TIP3    H127937   5.498   5.826   7.829  2.2594  1.5891  0.9459
 2126TIP3    H227938   5.479   5.935   7.726 -1.0741 -1.1853 -1.6022
 2127TIP3   OH227939   5.575   5.529   0.458  0.1539 -0.0057  0.2804
 2127TIP3    H127940   5.544   5.451   0.411 -0.8302  1.3852 -1.5202
 2127TIP3    H227941   5.670   5.524   0.453  0.1191 -1.1938  0.4095
 2128TIP3   OH227942   1.949   6.647   0.283 -0.2355 -0.3188 -0.0177
 2128TIP3    H127943   1.909   6.571   0.240 -0.9675 -1.4540  2.5294
 2128TIP3    H227944   2.039   6.620   0.300 -0.0016  0.0572 -0.6227
 2129TIP3   OH227945   5.905   4.093   8.689 -0.6035 -0.2575 -0.3683
 2129TIP3    H127946   5.909   4.000   8.714  0.0338  0.1667  1.2515
 2129TIP3    H227947   5.813   4.108   8.667 -1.3009 -0.7080  1.9117
 2130TIP3   OH227948   5.201   1.890   0.662  0.4968 -0.3125 -0.1774
 2130TIP3    H127949   5.146   1.947   0.609  0.9384 -1.5684 -2.1129
 2130TIP3    H227950   5.175   1.801   0.637  1.4350 -0.9583  0.9923
 2131TIP3   OH227951   5.971   2.267   1.575  0.3622 -0.4561 -0.4024
 2131TIP3    H127952   6.026   2.260   1.497  0.1719 -1.1595 -0.4771
 2131TIP3    H227953   5.929   2.182   1.583  0.2583 -0.3376  0.3840
 2132TIP3   OH227954   6.588   4.830   0.890 -0.1156 -0.1495  0.1092
 2132TIP3    H127955   6.504   4.809   0.849 -0.2744  1.0778 -0.2515
 2132TIP3    H227956   6.598   4.924   0.876  2.2058 -0.5585 -1.4819
 2133TIP3   OH227957   1.294   0.910   6.406  0.0787  0.5241  0.4418
 2133TIP3    H127958   1.361   0.842   6.413  0.9882  1.3226 -0.3265
 2133TIP3    H227959   1.252   0.894   6.322  0.0740  0.7274  0.4052
 2134TIP3   OH227960   0.029   5.455   7.804 -0.3484 -0.1182  0.3471
 2134TIP3    H127961   0.025   5.499   7.889  0.3753 -0.2349  0.4442
 2134TIP3    H227962   0.096   5.503   7.755  1.8420 -2.2131  1.1216
 2135TIP3   OH227963   1.800   0.695   2.391  0.1930 -0.1524 -0.1400
 2135TIP3    H127964   1.723   0.704   2.448  0.0449  0.0997 -0.3765
 2135TIP3    H227965   1.860   0.762   2.421  2.1024 -2.8579  2.7742
 2136TIP3   OH227966   3.718   0.344   7.516  0.0771 -0.3297 -0.0428
 2136TIP3    H127967   3.771   0.269   7.544 -1.2884 -1.2087  0.2536
 2136TIP3    H227968   3.632   0.308   7.497 -0.1588  0.8932 -1.5779
 2137TIP3   OH227969   2.292   3.003   8.709  0.1387  0.5269  0.0267
 2137TIP3    H127970   2.202   2.987   8.736  0.3995  1.9300  1.9210
 2137TIP3    H227971   2.287   3.010   8.613 -1.8588  1.0991  0.1229
 2138TIP3   OH227972   6.157   3.329   7.209  0.8037  0.1493 -0.4721
 2138TIP3    H127973   6.193   3.260   7.265 -0.4357 -0.1591 -0.0323
 2138TIP3    H227974   6.162   3.293   7.120  0.0899 -0.5538 -0.2374
 2139TIP3   OH227975   5.423   4.150   0.067 -0.3409 -0.0918  0.4870
 2139TIP3    H127976   5.385   4.213   0.005 -0.9255 -1.8356 -0.9916
 2139TIP3    H227977   5.350   4.125   0.123 -0.6238 -1.0049 -0.2733
 2140TIP3   OH227978   0.412   1.020   1.231 -0.4303  0.2889  0.2949
 2140TIP3    H127979   0.417   1.020   1.136  1.5785 -0.4573  0.3354
 2140TIP3    H227980   0.346   1.086   1.252  0.1027  1.4984 -1.5767
 2141TIP3   OH227981   6.207   3.284   1.204  0.0415 -0.0251  0.9398
 2141TIP3    H127982   6.205   3.374   1.236 -0.8734 -0.7313  3.0829
 2141TIP3    H227983   6.286   3.247   1.244  0.6558 -0.0835 -0.2909
 2142TIP3   OH227984   0.420   3.282   8.295  0.6486  0.3610 -0.1586
 2142TIP3    H127985   0.404   3.224   8.220  1.2494 -0.8765  0.6563
 2142TIP3    H227986   0.352   3.259   8.358  0.6965  0.7732  0.0453
 2143TIP3   OH227987   5.996   6.208   7.919 -0.2057 -0.0680  0.4062
 2143TIP3    H127988   6.092   6.206   7.912 -0.0749  0.1854  1.9150
 2143TIP3    H227989   5.979   6.225   8.011 -1.7149  0.4403  0.0528
 2144TIP3   OH227990   6.690   5.983   8.101 -0.6331 -0.5913  0.3017
 2144TIP3    H127991   6.735   6.008   8.020 -0.9799 -0.1377  0.2463
 2144TIP3    H227992   6.757   5.938   8.153  0.9423  2.9741  1.6788
 2145TIP3   OH227993   5.429   0.784   2.507 -0.1573 -0.2982 -0.6294
 2145TIP3    H127994   5.422   0.702   2.458  0.2395 -0.7191  0.0091
 2145TIP3    H227995   5.394   0.850   2.447 -1.4080 -1.0687 -0.7756
 2146TIP3   OH227996   0.782   5.227   8.168 -0.4245 -0.2694  0.1411
 2146TIP3    H127997   0.747   5.308   8.130 -0.7735 -0.0754  0.8772
 2146TIP3    H227998   0.863   5.211   8.118 -0.2527  0.6306  0.1098
 2147TIP3   OH227999   0.425   2.974   0.470 -0.2666 -0.1606 -0.0284
 2147TIP3    H128000   0.415   2.880   0.483 -1.6877 -0.1388 -0.8395
 2147TIP3    H228001   0.520   2.988   0.476 -0.1577 -1.3249  2.0296
 2148TIP3   OH228002   6.374   4.617   6.583  0.3531  0.2068 -0.6193
 2148TIP3    H128003   6.378   4.560   6.506  1.3106  0.3175 -0.6649
 2148TIP3    H228004   6.418   4.698   6.556  2.3583 -0.4149  0.5771
 2149TIP3   OH228005   6.720   2.179   1.450  0.0860  0.2400 -0.3396
 2149TIP3    H128006   6.693   2.104   1.397 -1.4483  0.2080  0.4187
 2149TIP3    H228007   6.668   2.172   1.530  2.2280  0.3572  1.1444
 2150TIP3   OH228008   6.790   5.657   1.843  0.0380  0.2734  0.0090
 2150TIP3    H128009   6.832   5.573   1.822 -0.3913  0.3352 -1.2119
 2150TIP3    H228010   6.795   5.706   1.761 -0.9630  0.9025  0.3142
 2151TIP3   OH228011   6.569   2.287   6.577  0.6436  0.1519 -0.1169
 2151TIP3    H128012   6.619   2.224   6.628 -0.4334 -1.4008 -0.9171
 2151TIP3    H228013   6.478   2.258   6.583  0.1973  1.2333 -1.0704
 2152TIP3   OH228014   0.845   6.097   1.077 -0.2777  0.0776 -0.2323
 2152TIP3    H128015   0.783   6.037   1.119 -0.1896  0.5901  0.6529
 2152TIP3    H228016   0.824   6.183   1.114  0.5863  0.3485 -0.3464
 2153TIP3   OH228017   4.585   4.054   8.310  0.0157  0.1627  0.2590
 2153TIP3    H128018   4.553   3.989   8.373 -0.0637  0.2464  0.3056
 2153TIP3    H228019   4.678   4.034   8.300  0.5677  1.5022  2.0707
 2154TIP3   OH228020   0.091   6.112   7.886  0.1530 -0.2744  0.0077
 2154TIP3    H128021   0.161   6.047   7.875  0.1278 -0.2892 -0.0655
 2154TIP3    H228022   0.133   6.196   7.867  0.6782 -0.0468  1.9480
 2155TIP3   OH228023   4.397   5.601   6.333 -0.1026  0.5554  0.5071
 2155TIP3    H128024   4.397   5.669   6.266 -1.2336  0.9185  0.8388
 2155TIP3    H228025   4.340   5.635   6.402 -1.0496 -0.8923  0.4939
 2156TIP3   OH228026   4.554   5.974   8.838  0.2265 -0.4487  0.3572
 2156TIP3    H128027   4.520   6.061   8.859 -0.2594 -0.6480  0.4009
 2156TIP3    H228028   4.635   5.991   8.789  2.1927  0.0368  3.4926
 2157TIP3   OH228029   5.351   2.200   0.126  0.3955  0.1959 -0.4982
 2157TIP3    H128030   5.351   2.208   0.030 -0.9074 -0.7232 -0.6008
 2157TIP3    H228031   5.368   2.289   0.157 -0.4799  0.7757 -1.5845
 2158TIP3   OH228032   1.567   4.077   8.688 -0.0262  0.2797 -0.7513
 2158TIP3    H128033   1.650   4.053   8.647 -0.0158 -0.6091 -0.2450
 2158TIP3    H228034   1.509   4.003   8.670 -0.0878 -0.0288  0.6084
 2159TIP3   OH228035   5.513   5.624   7.648  0.2855  0.1912  0.1231
 2159TIP3    H128036   5.438   5.605   7.704 -1.1401 -0.1476 -1.7796
 2159TIP3    H228037   5.582   5.565   7.679 -0.2745  0.3715  1.7911
 2160TIP3   OH228038   3.891   3.431   0.106 -0.2213 -0.0139 -0.2346
 2160TIP3    H128039   3.984   3.428   0.131 -0.1951 -0.1340 -0.3447
 2160TIP3    H228040   3.854   3.350   0.142  0.1071 -0.8653 -1.7290
 2161TIP3   OH228041   4.628   3.061   8.050 -0.0762  0.0711 -0.3191
 2161TIP3    H128042   4.547   3.100   8.082  0.0428 -0.7298  1.0476
 2161TIP3    H228043   4.696   3.125   8.073 -0.1096 -0.0764  0.2129
 2162TIP3   OH228044   5.774   3.027   8.293  0.0068 -0.1254 -0.1624
 2162TIP3    H128045   5.749   3.119   8.306 -1.2009 -0.4982  0.3377
 2162TIP3    H228046   5.726   3.000   8.215 -0.7232 -0.6922  0.4653
 2163TIP3   OH228047   3.969   3.110   7.173 -0.2686  0.1914  0.1656
 2163TIP3    H128048   3.912   3.141   7.102 -2.0676 -1.6461  0.7017
 2163TIP3    H228049   3.910   3.098   7.247  1.4541  1.3595  1.7863
 2164TIP3   OH228050   3.239   0.156   8.230  0.3523  0.1642 -0.3811
 2164TIP3    H128051   3.290   0.204   8.296 -1.0744  2.8036 -1.0609
 2164TIP3    H228052   3.234   0.216   8.156 -2.4311 -0.5730 -0.8882
 2165TIP3   OH228053   4.487   1.544   7.575 -0.4610 -0.2436 -0.3969
 2165TIP3    H128054   4.493   1.560   7.480  0.0054 -0.3978 -0.3943
 2165TIP3    H228055   4.452   1.456   7.582  1.5784 -1.1093 -0.4565
 2166TIP3   OH228056   3.622   5.965   0.269 -0.3055  0.2068 -0.2161
 2166TIP3    H128057   3.639   5.919   0.352  0.2274 -1.8419 -1.3773
 2166TIP3    H228058   3.532   5.942   0.247  0.1073 -0.7106 -1.0266
 2167TIP3   OH228059   4.090   2.845   0.858 -0.0202 -0.6925  0.1046
 2167TIP3    H128060   4.167   2.833   0.913 -0.1370 -1.2268  0.1545
 2167TIP3    H228061   4.043   2.919   0.897  0.9810  0.3207 -0.5124
 2168TIP3   OH228062   0.038   2.469   0.771 -0.0786  0.2101  0.1392
 2168TIP3    H128063   0.019   2.457   0.864  0.5174 -1.7288  0.0698
 2168TIP3    H228064  -0.024   2.411   0.727  0.1754  0.4992 -0.6104
 2169TIP3   OH228065   1.464   3.656   0.432  0.0960 -0.5495 -0.1846
 2169TIP3    H128066   1.525   3.604   0.484  1.5990  1.3777  0.1363
 2169TIP3    H228067   1.437   3.726   0.492  0.1364  0.4526 -1.3011
 2170TIP3   OH228068   6.692   4.037   8.259 -0.0320  0.4669  0.2003
 2170TIP3    H128069   6.721   3.947   8.248 -0.1088  0.4985 -0.2803
 2170TIP3    H228070   6.652   4.060   8.175 -0.9955  0.5934  0.6815
 2171TIP3   OH228071   1.152   2.079   8.134 -0.4163  0.5593  0.4517
 2171TIP3    H128072   1.163   2.155   8.191 -1.8042  1.2027 -0.0772
 2171TIP3    H228073   1.063   2.049   8.153 -0.5263  0.1723 -0.6517
 2172TIP3   OH228074   1.867   1.641   8.445  0.2536 -0.9030 -0.1532
 2172TIP3    H128075   1.952   1.598   8.453  0.2018 -1.0476 -0.3680
 2172TIP3    H228076   1.865   1.705   8.516  1.9218  1.4944 -2.1166
 2173TIP3   OH228077   1.861   5.032   7.591 -0.5567 -0.0254  0.5575
 2173TIP3    H128078   1.809   5.112   7.600  0.0465  0.2806  1.5376
 2173TIP3    H228079   1.881   5.007   7.681 -1.4899 -1.8042  0.3138
 2174TIP3   OH228080   4.004   3.302   7.519  0.0671 -0.2899 -0.1745
 2174TIP3    H128081   4.091   3.272   7.547  0.1590  0.7548  0.7529
 2174TIP3    H228082   3.989   3.382   7.570 -0.1751  1.2109 -2.4540
 2175TIP3   OH228083   6.250   2.891   7.447 -0.3055  0.1204 -0.4297
 2175TIP3    H128084   6.271   2.861   7.536 -1.6473  0.1355 -0.0910
 2175TIP3    H228085   6.295   2.829   7.390  0.0499 -0.2727  0.2645
 2176TIP3   OH228086   4.861   2.266   6.642 -0.1094 -0.2693 -0.2185
 2176TIP3    H128087   4.844   2.337   6.580  0.9846  0.5809  0.4138
 2176TIP3    H228088   4.832   2.300   6.726  0.5976 -0.4845  0.1229
 2177TIP3   OH228089   5.897   0.161   0.238 -0.4331  0.0772  0.2541
 2177TIP3    H128090   5.920   0.081   0.192 -1.4392 -0.0808  0.0168
 2177TIP3    H228091   5.830   0.202   0.184 -2.0638 -0.3906  1.8145
 2178TIP3   OH228092   5.539   2.035   7.179  0.9217 -0.4940  0.3496
 2178TIP3    H128093   5.559   1.993   7.095  1.6509 -0.3818  0.4591
 2178TIP3    H228094   5.524   2.127   7.156 -1.2537 -0.8776  0.0276
 2179TIP3   OH228095   4.570   4.806   7.524  0.1875 -0.0638  0.3052
 2179TIP3    H128096   4.550   4.900   7.524 -0.6669 -0.1898  2.2621
 2179TIP3    H228097   4.486   4.763   7.508  0.4362 -0.5028  0.1699
 2180TIP3   OH228098   0.837   3.842   8.348 -0.0796 -0.1384  0.0172
 2180TIP3    H128099   0.785   3.879   8.277  1.9995 -0.2914 -1.6603
 2180TIP3    H228100   0.792   3.761   8.371 -0.4323 -0.4341 -1.5886
 2181TIP3   OH228101   5.301   5.992   0.137 -0.5406  0.2251 -0.4897
 2181TIP3    H128102   5.363   5.930   0.099  0.6595  1.1750 -0.1418
 2181TIP3    H228103   5.227   5.992   0.076 -0.1084 -0.7521 -1.0439
 2182TIP3   OH228104   4.039   3.902   2.164 -0.3532  0.4716 -0.2978
 2182TIP3    H128105   4.123   3.867   2.192 -0.7182  0.7651  1.2347
 2182TIP3    H228106   4.052   3.926   2.072  0.9124 -0.4440 -0.3732
 2183TIP3   OH228107   3.892   2.537   7.475 -0.3771  0.0392  0.1613
 2183TIP3    H128108   3.813   2.483   7.466 -1.5036  1.6141 -0.0041
 2183TIP3    H228109   3.915   2.530   7.567  0.2074 -1.6060 -0.0767
 2184TIP3   OH228110   0.838   1.153   0.731 -0.1265  0.0729 -0.7579
 2184TIP3    H128111   0.911   1.177   0.788 -1.0807  0.0346  0.5246
 2184TIP3    H228112   0.859   1.195   0.647  2.0814 -1.1396 -0.9009
 2185TIP3   OH228113   1.412   1.174   0.535 -0.5164 -0.0824 -0.2754
 2185TIP3    H128114   1.433   1.240   0.601  0.6163 -0.0282 -0.6766
 2185TIP3    H228115   1.360   1.109   0.582 -0.5153  0.4224  0.4430
 2186TIP3   OH228116   5.879   2.604   8.513  0.3441  0.4154 -0.4166
 2186TIP3    H128117   5.950   2.540   8.507  1.5082  1.3540  2.2062
 2186TIP3    H228118   5.865   2.616   8.607 -1.9284  1.7802 -0.8503
 2187TIP3   OH228119   3.960   5.878   1.106  0.5269 -0.2598 -0.2703
 2187TIP3    H128120   3.934   5.794   1.067  3.1147 -1.4391  0.3054
 2187TIP3    H228121   4.032   5.855   1.165  1.1136  2.3501  0.1451
 2188TIP3   OH228122   3.768   4.166   0.355  0.0951  0.2285 -0.1199
 2188TIP3    H128123   3.718   4.243   0.330  0.2093  0.3714  0.0907
 2188TIP3    H228124   3.757   4.159   0.450 -2.2394 -1.6278 -0.4338
 2189TIP3   OH228125   0.212   3.723   8.439  0.0024 -0.4105 -0.1045
 2189TIP3    H128126   0.254   3.778   8.505  1.6314 -1.6939  0.0008
 2189TIP3    H228127   0.162   3.784   8.385  0.6607  0.9808  0.8076
 2190TIP3   OH228128   5.477   3.738   0.095 -0.3979  0.0139 -0.0081
 2190TIP3    H128129   5.495   3.786   0.015 -1.3557 -0.4901 -0.5485
 2190TIP3    H228130   5.390   3.700   0.081  0.8869 -3.1360 -0.2776
 2191TIP3   OH228131   1.168   4.063   0.372  0.0419 -0.3767  0.1181
 2191TIP3    H128132   1.260   4.073   0.348 -0.0281 -0.4535 -0.1908
 2191TIP3    H228133   1.144   3.976   0.340 -0.4012  0.0260 -0.6726
 2192TIP3   OH228134   2.346   4.184   7.935  0.3956 -0.4416  0.1593
 2192TIP3    H128135   2.404   4.123   7.888  1.2103 -0.7527  1.5231
 2192TIP3    H228136   2.400   4.218   8.006 -1.3254 -1.4491  2.0672
 2193TIP3   OH228137   6.685   4.747   7.232  0.2921  0.4372  0.0478
 2193TIP3    H128138   6.741   4.789   7.167 -0.1841  2.1807  0.7327
 2193TIP3    H228139   6.734   4.668   7.258  2.5017  1.9344  0.6996
 2194TIP3   OH228140   5.902   3.045   1.453 -0.5107  0.0351 -0.0594
 2194TIP3    H128141   5.831   3.037   1.390 -1.1084 -0.5614  0.6719
 2194TIP3    H228142   5.923   3.139   1.454  0.6575 -0.1292 -2.3342
 2195TIP3   OH228143   6.063   5.496   8.428 -0.1094 -0.4096  0.1095
 2195TIP3    H128144   6.014   5.417   8.405 -0.7632 -0.2731  0.9758
 2195TIP3    H228145   6.086   5.484   8.521  1.4319 -0.4182 -0.2369
 2196TIP3   OH228146   6.555   0.149   7.171 -0.5915 -0.3144  0.5954
 2196TIP3    H128147   6.475   0.193   7.200  1.1509  1.9420  2.3533
 2196TIP3    H228148   6.562   0.071   7.227 -1.4699 -0.4646  0.5033
 2197TIP3   OH228149   0.148   0.947   8.636  0.5416 -0.2391 -0.1027
 2197TIP3    H128150   0.190   1.011   8.579 -1.6173  2.2280  0.8822
 2197TIP3    H228151   0.101   0.889   8.577  0.5724  0.5789 -0.9436
 2198TIP3   OH228152   1.168   3.949   1.811 -0.0075  0.1634  0.2368
 2198TIP3    H128153   1.125   4.033   1.824 -0.4609  0.0260 -0.3665
 2198TIP3    H228154   1.226   3.962   1.736  0.4477  0.1315  0.5761
 2199TIP3   OH228155   2.878   2.826   7.796 -0.1403  0.0255  0.4514
 2199TIP3    H128156   2.961   2.826   7.843  1.4971  0.5984 -2.1747
 2199TIP3    H228157   2.857   2.733   7.784  0.7848 -0.1524  0.1244
 2200TIP3   OH228158   0.774   2.260   8.464  0.3718 -0.1876 -0.4115
 2200TIP3    H128159   0.727   2.272   8.382  1.2032 -0.1857 -0.8962
 2200TIP3    H228160   0.714   2.210   8.519 -0.8935  1.2991 -0.3868
 2201TIP3   OH228161   6.441   4.619   0.117  0.0299 -0.6559 -0.3961
 2201TIP3    H128162   6.378   4.578   0.176 -1.0935  1.1207 -0.2792
 2201TIP3    H228163   6.405   4.706   0.100  2.2628  0.2834 -0.6725
 2202TIP3   OH228164   5.032   4.758   0.976  0.2324  0.1490  0.5827
 2202TIP3    H128165   5.094   4.735   0.907 -0.3728 -2.0208  0.7073
 2202TIP3    H228166   4.977   4.826   0.937  1.5808  0.9096 -0.1006
 2203TIP3   OH228167   2.575   4.018   7.877 -0.0291  0.3412 -0.2353
 2203TIP3    H128168   2.664   4.012   7.912 -0.6967 -0.8100  1.3920
 2203TIP3    H228169   2.582   3.988   7.786  1.1055 -0.5811  0.1377
 2204TIP3   OH228170   1.069   1.112   8.785  0.1653  0.0444  0.2972
 2204TIP3    H128171   1.157   1.076   8.777 -0.1764 -1.1684  1.6741
 2204TIP3    H228172   1.083   1.207   8.789  1.2450 -0.0101 -1.2238
 2205TIP3   OH228173   3.575   0.172   1.920  0.2358  0.3813 -0.2562
 2205TIP3    H128174   3.579   0.076   1.923  1.6078  0.4231 -0.1281
 2205TIP3    H228175   3.635   0.201   1.989 -0.3320  1.3390 -0.1457
 2206TIP3   OH228176   4.380   5.321   1.733 -0.1078  0.1622 -0.2095
 2206TIP3    H128177   4.363   5.413   1.713 -0.0826 -0.1041 -1.5254
 2206TIP3    H228178   4.432   5.323   1.814  0.6016  1.3369 -0.6723
 2207TIP3   OH228179   0.820   4.144   8.226  0.2488  0.0573 -0.2505
 2207TIP3    H128180   0.896   4.124   8.281 -0.9512 -0.2913  1.3560
 2207TIP3    H228181   0.748   4.096   8.267 -0.9109  0.6070 -1.5703
 2208TIP3   OH228182   3.813   4.677   7.329  0.0492 -0.2102  0.0076
 2208TIP3    H128183   3.874   4.740   7.288 -0.5929  0.7161  0.4325
 2208TIP3    H228184   3.752   4.655   7.259 -0.7628  1.0068  0.2924
 2209TIP3   OH228185   6.107   2.661   6.940 -0.3829 -0.0445 -0.7034
 2209TIP3    H128186   6.148   2.664   7.026 -3.4703 -0.8751  0.9357
 2209TIP3    H228187   6.111   2.751   6.909 -1.2157  0.7592  1.3709
 2210TIP3   OH228188   2.042   0.984   1.858  0.5167 -0.2538 -0.5078
 2210TIP3    H128189   2.069   1.075   1.870  0.7741 -0.4502  0.5039
 2210TIP3    H228190   1.977   0.987   1.788 -0.2684  0.8644  0.2300
 2211TIP3   OH228191   3.150   5.788   0.312 -0.1462  0.1263  0.6702
 2211TIP3    H128192   3.095   5.864   0.326 -0.5148 -0.2341  1.2154
 2211TIP3    H228193   3.199   5.779   0.394  1.7130  1.2235 -0.2553
 2212TIP3   OH228194   6.249   5.226   0.274  0.4166  0.4396  0.2322
 2212TIP3    H128195   6.225   5.133   0.281 -0.1557  0.2970 -2.4830
 2212TIP3    H228196   6.289   5.234   0.187  2.2183  2.4171  1.1459
 2213TIP3   OH228197   1.825   0.766   6.770  0.0134  0.0668 -0.1276
 2213TIP3    H128198   1.882   0.704   6.816 -1.7078 -1.5411 -0.0268
 2213TIP3    H228199   1.763   0.710   6.723 -2.0509  1.6947  0.5148
 2214TIP3   OH228200   5.187   5.228   7.501 -0.0649  0.3161  0.2632
 2214TIP3    H128201   5.169   5.321   7.488  0.2285  0.3231 -0.1164
 2214TIP3    H228202   5.184   5.216   7.595 -0.8232  0.5640  0.2799
 2215TIP3   OH228203   4.471   5.211   2.067  0.1560  0.1102 -0.0055
 2215TIP3    H128204   4.508   5.294   2.037  1.6474 -0.4432  0.2375
 2215TIP3    H228205   4.405   5.237   2.132 -0.3878  1.1391 -0.9348
 2216TIP3   OH228206   3.337   5.130   6.960  0.1924 -0.8158 -0.1029
 2216TIP3    H128207   3.332   5.223   6.982  0.9615 -0.6547 -0.5682
 2216TIP3    H228208   3.360   5.088   7.043 -2.3947 -0.8880  0.6506
 2217TIP3   OH228209   4.716   5.070   2.010 -0.3394 -0.3164 -0.6609
 2217TIP3    H128210   4.669   5.154   2.017 -0.3397 -0.3865  0.4790
 2217TIP3    H228211   4.794   5.090   1.958 -0.2720  0.4314 -0.2893
 2218TIP3   OH228212   5.618   2.220   8.561  0.8116 -0.4163 -0.1924
 2218TIP3    H128213   5.684   2.162   8.524  0.6863  0.7529 -2.4138
 2218TIP3    H228214   5.625   2.301   8.510 -1.5597  0.1542  0.2417
 2219TIP3   OH228215   3.621   6.201   7.194 -0.2365  0.4308  0.2505
 2219TIP3    H128216   3.716   6.186   7.200  0.0128  2.0650  1.0118
 2219TIP3    H228217   3.603   6.202   7.100  0.2709 -1.1119  0.1202
 2220TIP3   OH228218   3.994   3.968   8.456 -0.3961 -0.0429  0.2255
 2220TIP3    H128219   3.958   4.010   8.534 -1.0532  0.9406 -0.5738
 2220TIP3    H228220   3.994   4.037   8.389  3.1752  0.1125  0.1718
 2221TIP3   OH228221   1.202   0.004   2.611  0.6662  0.4596 -0.1532
 2221TIP3    H128222   1.226   0.077   2.555 -1.7980  1.6439  0.2173
 2221TIP3    H228223   1.106  -0.000   2.606  0.6675 -2.3227  0.3798
 2222TIP3   OH228224   5.539   0.774   1.316  0.4345 -0.3596 -0.0306
 2222TIP3    H128225   5.615   0.721   1.339  0.1691  0.2553  2.5058
 2222TIP3    H228226   5.555   0.799   1.225  2.9476 -0.7444  0.2212
 2223TIP3   OH228227   3.806   6.746   8.030 -0.0103  0.3304  0.6865
 2223TIP3    H128228   3.742   6.678   8.008 -0.2338  0.0994  1.9858
 2223TIP3    H228229   3.762   6.828   8.009 -0.2347  0.1241  0.3372
 2224TIP3   OH228230   4.286   6.267   0.820 -0.4344 -0.2321 -0.8830
 2224TIP3    H128231   4.253   6.249   0.908  0.1541  1.3811 -0.2980
 2224TIP3    H228232   4.369   6.220   0.814  0.8438  1.7200  0.4361
 2225TIP3   OH228233   5.521   5.169   7.289  0.4456  0.2410  0.7464
 2225TIP3    H128234   5.556   5.210   7.210 -0.6712  0.7843  0.5007
 2225TIP3    H228235   5.445   5.119   7.258 -0.1881  0.7036  1.4950
 2226TIP3   OH228236   0.246   4.562   0.500 -0.2148  0.5986  0.0517
 2226TIP3    H128237   0.295   4.601   0.428 -0.7292 -0.0026 -0.6427
 2226TIP3    H228238   0.156   4.592   0.486 -0.8615 -1.6787 -1.1717
 2227TIP3   OH228239   5.755   2.210   1.178 -0.3700  0.0139 -0.0604
 2227TIP3    H128240   5.845   2.236   1.158  0.1065 -1.5370 -0.0357
 2227TIP3    H228241   5.762   2.119   1.207 -2.0582 -0.4266 -0.9404
 2228TIP3   OH228242   2.066   2.233   8.410 -0.0647 -0.0173  0.2798
 2228TIP3    H128243   2.010   2.227   8.487  0.0738  1.4642  0.5221
 2228TIP3    H228244   2.007   2.257   8.339  0.0811  0.3317  0.2774
 2229TIP3   OH228245   0.640   1.238   6.742 -0.2902 -0.6930  0.4636
 2229TIP3    H128246   0.722   1.282   6.723 -0.7235  0.1671  0.5254
 2229TIP3    H228247   0.648   1.209   6.833  0.7977 -2.5916 -0.1771
 2230TIP3   OH228248   3.220   1.808   1.532 -0.4447 -0.1029 -0.2076
 2230TIP3    H128249   3.127   1.824   1.517 -0.2799  0.7433 -0.3470
 2230TIP3    H228250   3.233   1.830   1.624 -0.1179  1.0503 -0.5245
 2231TIP3   OH228251   1.388   6.616   0.198 -0.0827  0.2559 -0.0623
 2231TIP3    H128252   1.298   6.593   0.222 -0.7467 -0.7638 -3.1453
 2231TIP3    H228253   1.391   6.711   0.204 -1.2681  0.2788  0.3907
 2232TIP3   OH228254   1.673   5.728   0.855  0.2524 -0.1578 -0.4835
 2232TIP3    H128255   1.619   5.798   0.818  0.5518 -0.1041 -0.8287
 2232TIP3    H228256   1.685   5.667   0.783 -2.1056 -1.8853  0.4686
 2233TIP3   OH228257   0.056   1.210   7.560  0.5513  0.3334  0.1162
 2233TIP3    H128258   0.102   1.126   7.563  0.9719  0.5460 -0.2671
 2233TIP3    H228259   0.026   1.224   7.650 -0.3258 -0.6665  0.0015
 2234TIP3   OH228260   3.797   4.684   7.970  0.1657  0.0724 -0.4371
 2234TIP3    H128261   3.890   4.698   7.988  0.2480 -0.8739 -0.0774
 2234TIP3    H228262   3.754   4.764   8.003  0.8112  0.3755 -0.3151
 2235TIP3   OH228263   3.519   6.006   1.312 -0.2969  0.2291 -0.0850
 2235TIP3    H128264   3.497   5.914   1.298 -0.6391  0.1874  0.7280
 2235TIP3    H228265   3.615   6.007   1.320 -0.2247  0.0525 -0.8139
 2236TIP3   OH228266   5.162   2.516   0.305  0.2812  0.6169 -0.1867
 2236TIP3    H128267   5.198   2.573   0.237  2.4895 -1.1599 -0.6290
 2236TIP3    H228268   5.094   2.466   0.261  0.8354  0.3642 -0.7706
 2237TIP3   OH228269   4.694   2.568   1.613  0.0706 -0.1479 -0.1287
 2237TIP3    H128270   4.619   2.518   1.581 -0.7478  0.1723  1.2181
 2237TIP3    H228271   4.702   2.642   1.552 -0.4469 -0.4077 -0.5173
 2238TIP3   OH228272   3.430   1.013   8.357  0.4171 -0.0834 -0.7274
 2238TIP3    H128273   3.353   0.982   8.309 -1.3615  1.0549  1.2224
 2238TIP3    H228274   3.456   0.938   8.411 -1.5277  0.5173  1.1606
 2239TIP3   OH228275   6.043   2.092   7.558  0.2004 -0.0928 -0.7047
 2239TIP3    H128276   6.061   2.135   7.641  0.2428  0.0276 -0.7762
 2239TIP3    H228277   5.965   2.039   7.575 -0.9362  1.4000 -1.0854
 2240TIP3   OH228278   4.702   1.119   0.337 -0.2198 -0.0683 -0.0382
 2240TIP3    H128279   4.748   1.202   0.322 -1.4749  0.8956  1.1232
 2240TIP3    H228280   4.684   1.119   0.431 -5.3769  1.2976 -0.7052
 2241TIP3   OH228281   0.289   1.535   7.541 -0.2208  0.3619 -0.0663
 2241TIP3    H128282   0.372   1.581   7.540 -0.4069  0.7748  1.3470
 2241TIP3    H228283   0.244   1.568   7.619 -1.9337  0.5456 -1.0603
 2242TIP3   OH228284   2.372   6.767   8.638 -0.3607 -0.3455  0.0232
 2242TIP3    H128285   2.344   6.851   8.601  0.0138 -0.3782 -0.3442
 2242TIP3    H228286   2.440   6.737   8.578 -0.5339 -0.9408  0.1230
 2243TIP3   OH228287   5.854   1.953   1.208 -0.1455  0.1218  0.0020
 2243TIP3    H128288   5.884   1.964   1.118  0.9872 -2.0980  0.0278
 2243TIP3    H228289   5.928   1.913   1.253 -1.4609 -0.9029  1.3569
 2244TIP3   OH228290   3.669   0.053   2.188  0.0687 -0.0085  0.0522
 2244TIP3    H128291   3.761   0.077   2.198  0.3092 -1.6025  2.3248
 2244TIP3    H228292   3.666  -0.040   2.207 -1.8123 -0.3464 -1.6168
 2245TIP3   OH228293   3.128   5.709   8.095  0.4483  0.0445  0.0316
 2245TIP3    H128294   3.125   5.627   8.145  0.9677  0.2729  0.4445
 2245TIP3    H228295   3.106   5.683   8.005  1.0869 -0.6322  0.0599
 2246TIP3   OH228296   6.216   2.256   0.333 -0.1528  0.0489  0.3121
 2246TIP3    H128297   6.274   2.331   0.346  0.0251  0.1957 -1.1646
 2246TIP3    H228298   6.267   2.194   0.280 -0.4056 -1.0020  1.2450
 2247TIP3   OH228299   6.163   2.199   0.597  0.4358 -0.1613 -0.3507
 2247TIP3    H128300   6.183   2.218   0.506  0.6627 -0.7764 -0.4352
 2247TIP3    H228301   6.072   2.228   0.608  0.8870  1.3414 -0.3432
 2248TIP3   OH228302   0.739   2.333   0.831  0.3881 -0.6900  0.3707
 2248TIP3    H128303   0.707   2.419   0.858  2.1130  0.3386 -0.6875
 2248TIP3    H228304   0.702   2.320   0.744  1.3616 -0.2838 -0.1217
 2249TIP3   OH228305   4.296   2.071   1.036  0.0672 -0.6770 -0.0465
 2249TIP3    H128306   4.368   2.106   0.984 -0.5952  1.6501  0.4513
 2249TIP3    H228307   4.231   2.043   0.972 -0.3392  1.2655 -0.5550
 2250TIP3   OH228308   4.598   6.137   7.696 -0.0334  0.0101 -0.4085
 2250TIP3    H128309   4.523   6.182   7.734 -0.1631 -0.3680 -0.2154
 2250TIP3    H228310   4.644   6.205   7.647  0.1802  0.5260  0.4872
 2251TIP3   OH228311   6.692   3.306   6.900  0.3173 -0.1562  0.0126
 2251TIP3    H128312   6.682   3.323   6.806 -0.5854 -0.3125  0.0716
 2251TIP3    H228313   6.785   3.317   6.917  0.4513  0.0922 -0.8623
 2252TIP3   OH228314   4.185   5.932   0.397 -0.3079 -0.3650 -0.0001
 2252TIP3    H128315   4.226   5.896   0.319  0.8246 -0.2902  0.5307
 2252TIP3    H228316   4.099   5.962   0.368  0.7267  1.2542 -1.6230
 2253TIP3   OH228317   3.509   4.682   8.079  0.7394  0.4216 -0.3477
 2253TIP3    H128318   3.453   4.748   8.037  1.6458 -0.0953 -2.4664
 2253TIP3    H228319   3.479   4.599   8.043  2.9478  0.1462 -1.6555
 2254TIP3   OH228320   0.813   4.078   0.880  0.3954 -0.3466 -0.2391
 2254TIP3    H128321   0.874   4.068   0.807  0.1239  0.6441 -0.6070
 2254TIP3    H228322   0.730   4.102   0.840  0.8897  3.1292  0.4842
 2255TIP3   OH228323   1.921   5.389   1.647  0.3833 -0.5073  0.5073
 2255TIP3    H128324   1.978   5.456   1.686 -1.1689  1.1719  0.0157
 2255TIP3    H228325   1.878   5.434   1.574 -3.4027 -0.8973  2.2867
 2256TIP3   OH228326   2.885   4.308   7.793 -0.6955 -0.0868  0.3415
 2256TIP3    H128327   2.891   4.329   7.887 -0.0458  0.6589  0.1426
 2256TIP3    H228328   2.958   4.355   7.753 -0.6824 -0.7894 -0.4803
 2257TIP3   OH228329   6.791   0.337   8.658  0.2258  0.3580 -0.2457
 2257TIP3    H128330   6.801   0.242   8.662  1.7948  0.4644 -0.8673
 2257TIP3    H228331   6.855   0.371   8.721 -0.9934  0.9911  0.6792
 2258TIP3   OH228332   6.337   1.340   7.093 -0.1540  0.6050 -0.0094
 2258TIP3    H128333   6.402   1.270   7.093 -0.9995 -0.2201 -1.3129
 2258TIP3    H228334   6.279   1.319   7.166 -0.6542 -0.3184 -0.6606
 2259TIP3   OH228335   4.992   2.202   1.669 -0.5088 -0.1558  0.2710
 2259TIP3    H128336   5.002   2.259   1.593  2.5347 -1.3611 -0.3917
 2259TIP3    H228337   4.946   2.125   1.636  0.5316 -0.5418 -0.3196
 2260TIP3   OH228338   4.781   1.938   8.570 -0.3207 -0.1346 -0.5008
 2260TIP3    H128339   4.719   1.994   8.617  0.0147  1.0526 -1.4280
 2260TIP3    H228340   4.847   1.915   8.635 -0.9614 -0.2206  0.1285
 2261TIP3   OH228341   6.252   4.186   1.174  0.3585 -0.6207  0.0271
 2261TIP3    H128342   6.223   4.208   1.085 -0.0884 -1.3020 -0.0057
 2261TIP3    H228343   6.294   4.266   1.206 -0.4783  0.0029 -0.3868
 2262TIP3   OH228344   5.139   3.820   8.371  0.2460 -0.0039  0.0561
 2262TIP3    H128345   5.048   3.809   8.397 -0.0239 -0.7479 -1.1463
 2262TIP3    H228346   5.136   3.837   8.277  1.2606  1.5826  0.2776
 2263TIP3   OH228347   5.731   6.733   6.520 -0.3023 -0.2212 -0.4353
 2263TIP3    H128348   5.740   6.689   6.605 -0.3525  1.5282  0.5089
 2263TIP3    H228349   5.815   6.779   6.508 -0.6452  0.3017 -0.8855
 2264TIP3   OH228350   1.734   3.043   0.876  0.1733 -0.1756 -0.1849
 2264TIP3    H128351   1.652   2.995   0.880 -0.0918  0.3108  0.4180
 2264TIP3    H228352   1.710   3.127   0.835  0.0704  0.5228  1.2306
 2265TIP3   OH228353   0.222   2.888   0.955 -0.4327 -0.2559  0.1484
 2265TIP3    H128354   0.191   2.803   0.924  0.0302 -0.3555 -0.0519
 2265TIP3    H228355   0.260   2.930   0.877  0.4985 -0.3978  0.5145
 2266TIP3   OH228356   1.527   5.677   1.856 -0.1724 -0.7025  1.1669
 2266TIP3    H128357   1.478   5.613   1.805 -0.3950  1.1699 -1.1526
 2266TIP3    H228358   1.608   5.690   1.807 -0.0550  0.6498  1.6846
 2267TIP3   OH228359   3.586   2.332   0.304  0.2017 -0.8217  0.3121
 2267TIP3    H128360   3.670   2.299   0.271 -0.1658 -1.7779  0.3189
 2267TIP3    H228361   3.576   2.291   0.390  0.5162  0.6076  1.0602
 2268TIP3   OH228362   1.491   0.253   1.423 -0.5454 -0.0516 -0.3059
 2268TIP3    H128363   1.441   0.265   1.504 -0.6245 -0.0799 -0.3502
 2268TIP3    H228364   1.582   0.245   1.452 -0.6110 -0.4101 -0.1918
 2269TIP3   OH228365   5.948   3.339   2.147 -0.4218 -0.1014  0.6203
 2269TIP3    H128366   5.907   3.280   2.210 -1.5809 -1.3229 -1.1891
 2269TIP3    H228367   5.881   3.404   2.128  0.1558  0.6560  1.0916
 2270TIP3   OH228368   5.960   1.138   8.280  0.0197  0.1884  0.6255
 2270TIP3    H128369   5.905   1.203   8.324  1.4095  0.9303  1.3328
 2270TIP3    H228370   5.899   1.069   8.253 -1.7196  2.3372 -1.2962
 2271TIP3   OH228371   4.703   6.576   0.881  0.2068 -0.1304 -0.4761
 2271TIP3    H128372   4.668   6.648   0.935 -0.4030  0.3227 -1.4446
 2271TIP3    H228373   4.664   6.590   0.795  2.8190  0.4479 -1.6739
 2272TIP3   OH228374   6.763   3.076   7.820 -0.2509  0.0885 -0.3048
 2272TIP3    H128375   6.734   3.046   7.734  1.7047 -0.5410 -0.7834
 2272TIP3    H228376   6.855   3.052   7.825 -0.0373  1.0619  1.5568
 2273TIP3   OH228377   6.268   1.306   6.714  0.2231 -0.4337  0.2141
 2273TIP3    H128378   6.297   1.215   6.715  0.5484 -0.3301  0.2550
 2273TIP3    H228379   6.198   1.309   6.648  0.8666 -0.5093 -0.4821
 2274TIP3   OH228380   2.264   5.240   1.133  0.0639  0.7866 -1.0600
 2274TIP3    H128381   2.249   5.165   1.191 -0.1453 -0.2275 -2.3600
 2274TIP3    H228382   2.222   5.215   1.051  1.4144  1.6230 -2.0578
 2275TIP3   OH228383   4.829   0.488   0.473 -0.2975  0.3924 -0.8297
 2275TIP3    H128384   4.764   0.424   0.503  0.5589 -0.3566 -0.5397
 2275TIP3    H228385   4.839   0.548   0.547  0.9695 -0.7946  0.0034
 2276TIP3   OH228386   4.153   0.868   1.485  1.1677 -0.0470 -0.2758
 2276TIP3    H128387   4.203   0.786   1.483 -0.7184 -1.2377 -0.3861
 2276TIP3    H228388   4.078   0.849   1.541  1.3863  2.0643  0.8487
 2277TIP3   OH228389   6.445   3.570   7.166 -0.2810 -0.5727  0.1035
 2277TIP3    H128390   6.454   3.474   7.163 -0.5249 -0.6861 -4.6534
 2277TIP3    H228391   6.491   3.600   7.088 -0.5728  3.2370  1.2330
 2278TIP3   OH228392   5.209   0.689   0.857 -0.1664 -0.6424 -0.3682
 2278TIP3    H128393   5.266   0.682   0.934  0.5370 -2.0711 -0.9984
 2278TIP3    H228394   5.237   0.770   0.814 -1.0532  0.5650  1.2289
 2279TIP3   OH228395   5.153   4.114   7.667  0.4459  0.0198  0.0271
 2279TIP3    H128396   5.190   4.148   7.586 -0.9421 -1.6358 -1.3701
 2279TIP3    H228397   5.198   4.163   7.736  1.9230  1.2284 -1.6998
 2280TIP3   OH228398   0.440   5.093   7.541  0.1388  0.3325  0.4925
 2280TIP3    H128399   0.453   5.019   7.482 -0.6987 -0.1860  0.9413
 2280TIP3    H228400   0.417   5.166   7.484 -0.9983 -0.2482  0.1862
 2281TIP3   OH228401   4.018   2.754   1.907  0.3093  0.1710  0.3956
 2281TIP3    H128402   4.045   2.759   1.815 -1.1002 -2.4049 -0.2306
 2281TIP3    H228403   4.058   2.674   1.940 -1.4324 -0.4080  1.2196
 2282TIP3   OH228404   0.475   0.828   2.326  0.2077 -0.1271  0.0125
 2282TIP3    H128405   0.506   0.753   2.377  1.2346  0.1960 -0.1090
 2282TIP3    H228406   0.517   0.904   2.367 -1.1585  0.4552  0.4061
 2283TIP3   OH228407   5.030   2.099   1.384  0.1181  0.3888 -0.2310
 2283TIP3    H128408   4.943   2.074   1.352  0.5314 -0.4634 -0.7311
 2283TIP3    H228409   5.059   2.023   1.434  1.0322  0.2021 -1.0065
 2284TIP3   OH228410   3.054   2.782   8.506 -0.4198 -0.5180 -0.5201
 2284TIP3    H128411   3.120   2.716   8.525  2.4052  2.0043 -0.8566
 2284TIP3    H228412   3.020   2.757   8.420 -0.1970 -2.0638 -0.1870
 2285TIP3   OH228413   0.400   3.432   2.280  0.3071  0.2028  0.3872
 2285TIP3    H128414   0.410   3.490   2.355  2.2709  0.5547 -0.0938
 2285TIP3    H228415   0.460   3.359   2.298 -0.1978 -0.3757 -0.2251
 2286TIP3   OH228416   3.190   6.419   6.943  0.3165 -0.5519 -0.0728
 2286TIP3    H128417   3.135   6.363   6.999  1.0317 -0.6479  0.5503
 2286TIP3    H228418   3.279   6.405   6.976  0.4326  1.6827  0.7331
 2287TIP3   OH228419   1.300   5.672   7.455  0.0631  0.1597  0.1583
 2287TIP3    H128420   1.276   5.750   7.505  1.0240  0.6071 -0.0681
 2287TIP3    H228421   1.392   5.685   7.432 -0.1327 -0.4393 -1.0030
 2288TIP3   OH228422   1.954   0.348   8.827 -0.3540 -0.3608  0.6924
 2288TIP3    H128423   1.923   0.264   8.863 -1.1780 -1.1732 -1.7494
 2288TIP3    H228424   1.877   0.404   8.824 -1.1705 -1.4212 -2.6888
 2289TIP3   OH228425   2.544   6.656   0.100  0.8027  0.1354  0.0110
 2289TIP3    H128426   2.590   6.735   0.071 -1.1070  0.9251 -1.0949
 2289TIP3    H228427   2.487   6.634   0.026 -0.4116 -0.9031  1.2193
 2290TIP3   OH228428   4.109   5.117   6.426  0.0782  0.3585 -0.0089
 2290TIP3    H128429   4.103   5.051   6.495  0.7407  2.4201  2.1945
 2290TIP3    H228430   4.023   5.119   6.386 -0.0178 -1.6361  0.0137
 2291TIP3   OH228431   6.417   6.129   0.648  0.2808 -0.1840 -0.0128
 2291TIP3    H128432   6.382   6.189   0.715  0.7797  0.0361  0.0517
 2291TIP3    H228433   6.467   6.065   0.698 -0.4101 -0.7745 -0.0642
 2292TIP3   OH228434   2.790   3.464   8.023  0.0507  0.1082 -0.6495
 2292TIP3    H128435   2.751   3.551   8.014  0.8649  0.5181 -0.3200
 2292TIP3    H228436   2.732   3.417   8.081 -0.4564  0.3958 -0.9148
 2293TIP3   OH228437   1.718   5.671   7.588  0.0815  0.4450 -0.0082
 2293TIP3    H128438   1.801   5.714   7.610 -0.5916  1.2065  1.2135
 2293TIP3    H228439   1.693   5.624   7.668 -1.3421  1.3942  0.1542
 2294TIP3   OH228440   5.585   1.279   6.621 -0.0708 -0.0233  0.3832
 2294TIP3    H128441   5.550   1.356   6.665  1.0375  0.5958  0.2141
 2294TIP3    H228442   5.624   1.312   6.540  0.6081 -0.7239  0.4065
 2295TIP3   OH228443   4.877   3.028   6.489  0.5507 -0.0131 -0.2193
 2295TIP3    H128444   4.826   3.095   6.443 -1.2281 -0.8720  0.3881
 2295TIP3    H228445   4.968   3.055   6.479 -0.0497  1.8830 -0.9218
 2296TIP3   OH228446   3.256   3.335   7.189 -0.1193  0.2194  0.3375
 2296TIP3    H128447   3.217   3.272   7.250 -0.9627  0.8145  0.4402
 2296TIP3    H228448   3.227   3.421   7.222 -0.8257  0.5439 -1.0272
 2297TIP3   OH228449   5.367   1.799   7.970  0.2818 -0.0508 -0.3393
 2297TIP3    H128450   5.330   1.745   7.901  0.4166 -1.7438  0.8493
 2297TIP3    H228451   5.356   1.889   7.939 -1.7429 -0.6526 -1.5155
 2298TIP3   OH228452   5.938   5.371   6.884 -0.2376  0.1460  0.2130
 2298TIP3    H128453   5.929   5.353   6.978  0.4407 -1.0358  0.0743
 2298TIP3    H228454   5.855   5.411   6.860  0.5793  3.1296  1.8569
 2299TIP3   OH228455   3.811   3.739   7.110 -0.0872  0.7531  0.2165
 2299TIP3    H128456   3.852   3.663   7.150 -0.7688  0.5422  0.5314
 2299TIP3    H228457   3.877   3.773   7.049  0.0274 -0.4060 -0.3384
 2300TIP3   OH228458   0.243   5.438   0.090 -0.1460 -0.1421 -0.1344
 2300TIP3    H128459   0.253   5.359   0.037 -1.7560  0.4278 -1.3688
 2300TIP3    H228460   0.212   5.505   0.029 -0.6545  0.9426  1.2446
 2301TIP3   OH228461   5.962   6.423   1.937 -0.3419 -0.5606  0.6793
 2301TIP3    H128462   5.979   6.421   2.031  0.3098 -1.0721  0.5674
 2301TIP3    H228463   6.010   6.500   1.906 -1.2627  0.1056  0.8793
 2302TIP3   OH228464   4.998   6.572   2.055 -0.1401  0.3977 -0.1596
 2302TIP3    H128465   4.973   6.495   2.106 -1.3526  0.0933 -1.1560
 2302TIP3    H228466   5.040   6.537   1.976  1.5240  0.8523  0.4835
 2303TIP3   OH228467   3.566   3.092   8.067  0.5304  0.3057 -0.1514
 2303TIP3    H128468   3.603   3.179   8.079 -1.0255  0.9076  0.6701
 2303TIP3    H228469   3.476   3.109   8.037 -0.4046 -0.9214  1.7471
 2304TIP3   OH228470   6.607   1.054   7.458 -0.0758 -0.0934  0.7023
 2304TIP3    H128471   6.651   1.112   7.519 -0.0861  0.4963  0.1558
 2304TIP3    H228472   6.516   1.052   7.487 -0.4382  1.4742 -0.2336
 2305TIP3   OH228473   3.085   6.650   0.374  0.1596 -0.3328 -0.4316
 2305TIP3    H128474   3.056   6.673   0.462 -0.5721 -0.8022 -0.5431
 2305TIP3    H228475   3.123   6.563   0.384 -0.9693 -0.8831 -0.7745
 2306TIP3   OH228476   4.729   0.719   1.100 -0.3632  0.1889 -0.0187
 2306TIP3    H128477   4.772   0.771   1.032  1.3527  0.3226  1.0816
 2306TIP3    H228478   4.798   0.662   1.134 -1.7140 -1.4056  0.1668
 2307TIP3   OH228479   1.700   4.121   0.103 -0.0470  0.4439 -0.0428
 2307TIP3    H128480   1.651   4.124   0.020  0.5570  1.4146 -0.3787
 2307TIP3    H228481   1.653   4.056   0.155  0.1588 -0.9556 -1.5167
 2308TIP3   OH228482   5.809   5.433   0.335 -0.1057  0.7074 -0.1866
 2308TIP3    H128483   5.898   5.426   0.368  0.3259  3.5584 -0.5180
 2308TIP3    H228484   5.818   5.461   0.244 -1.3353  0.7165 -0.3322
 2309TIP3   OH228485   4.350   0.828   0.737 -0.4207 -0.1165  0.3561
 2309TIP3    H128486   4.440   0.862   0.730  0.2196 -1.3132  2.1327
 2309TIP3    H228487   4.357   0.737   0.708 -0.9272 -0.4013  1.1041
 2310TIP3   OH228488   2.634   2.418   7.762  0.9653 -0.2263  0.4747
 2310TIP3    H128489   2.566   2.469   7.718 -0.0026 -1.0796  0.9458
 2310TIP3    H228490   2.620   2.328   7.733  1.5043 -0.5038  1.0515
 2311TIP3   OH228491   6.091   1.328   8.092 -0.1454  0.5205  0.5442
 2311TIP3    H128492   6.122   1.262   8.030 -1.6238 -0.7426  1.1066
 2311TIP3    H228493   6.056   1.278   8.166 -0.9936  1.9317  1.1443
 2312TIP3   OH228494   0.406   0.085   7.060  0.3295  0.4018 -0.3882
 2312TIP3    H128495   0.387   0.010   7.003  1.3188  0.3152 -0.6364
 2312TIP3    H228496   0.362   0.159   7.018 -0.6910 -0.0410 -0.1173
 2313TIP3   OH228497   2.835   2.716   6.204 -0.3050 -0.2007  0.1210
 2313TIP3    H128498   2.834   2.662   6.283 -1.0805 -1.0692 -0.4664
 2313TIP3    H228499   2.743   2.718   6.175  0.1968 -1.3826 -1.7340
 2314TIP3   OH228500   5.771   5.934   8.666 -0.4465 -0.6823 -0.6341
 2314TIP3    H128501   5.821   5.854   8.648 -2.9119 -2.1210 -1.5803
 2314TIP3    H228502   5.757   5.973   8.580  1.4252  1.2978 -0.1081
 2315TIP3   OH228503   5.941   4.348   0.340 -0.2624 -0.1177  0.4435
 2315TIP3    H128504   6.021   4.356   0.391  0.6189  0.3871 -0.9610
 2315TIP3    H228505   5.970   4.324   0.252 -1.7048 -0.6782  0.0886
 2316TIP3   OH228506   4.430   0.959   1.078 -0.0644 -0.6028  0.2584
 2316TIP3    H128507   4.428   1.016   1.001 -0.5883  0.3643  0.9638
 2316TIP3    H228508   4.358   0.991   1.133 -0.3257 -1.9164  0.7035
 2317TIP3   OH228509   2.893   1.279   8.647 -0.1721  0.0508 -0.8135
 2317TIP3    H128510   2.899   1.279   8.742  1.2654 -2.2622 -0.8281
 2317TIP3    H228511   2.810   1.237   8.628  0.1191 -0.6452 -0.5676
 2318TIP3   OH228512   0.205   4.342   6.765  0.4501  0.3199  0.0747
 2318TIP3    H128513   0.180   4.431   6.743  1.2828  0.6028  0.2298
 2318TIP3    H228514   0.259   4.314   6.690  0.3924  0.0330  0.1398
 2319TIP3   OH228515   4.188   0.053   7.112  1.2884  0.2728 -0.0667
 2319TIP3    H128516   4.095   0.060   7.137  1.8809 -0.7125  2.7494
 2319TIP3    H228517   4.222   0.141   7.123  0.4049  1.0712 -2.8473
 2320TIP3   OH228518   2.563   1.583   6.989  0.2696  0.4905 -0.4734
 2320TIP3    H128519   2.484   1.627   7.022  0.2179  0.1563 -0.1437
 2320TIP3    H228520   2.557   1.590   6.894  0.1526  1.0089 -0.4314
 2321TIP3   OH228521   3.261   2.411   7.053 -0.0549  0.0231  0.3498
 2321TIP3    H128522   3.175   2.435   7.019 -0.2388  0.7208  1.2788
 2321TIP3    H228523   3.323   2.464   7.002 -0.2982  0.7491  0.8009
 2322TIP3   OH228524   2.533   2.228   0.138  0.1130  0.0701  0.6318
 2322TIP3    H128525   2.492   2.213   0.053  1.5832 -1.2739  0.1160
 2322TIP3    H228526   2.560   2.319   0.136  3.5918 -0.7754 -2.0327
 2323TIP3   OH228527   5.748   3.971   8.202 -0.3309 -0.5467 -0.6758
 2323TIP3    H128528   5.670   3.916   8.204 -0.2143 -0.7040 -0.2446
 2323TIP3    H228529   5.715   4.060   8.215 -0.4432 -0.6077 -0.5421
 2324TIP3   OH228530   3.057   4.239   1.189  0.0088  0.0147 -0.3887
 2324TIP3    H128531   3.024   4.205   1.106 -0.9532 -0.6997  0.2639
 2324TIP3    H228532   3.145   4.203   1.197 -0.0867 -0.3328 -0.8433
 2325TIP3   OH228533   3.661   4.461   0.385  0.4311 -0.2350  0.0172
 2325TIP3    H128534   3.609   4.541   0.393  0.8375  0.0653 -0.3339
 2325TIP3    H228535   3.745   4.490   0.348  0.6968 -0.7748  0.1860
 2326TIP3   OH228536   6.730   6.065   0.773  0.1307  0.2347  0.0978
 2326TIP3    H128537   6.647   6.101   0.805  0.0514  0.4749 -0.3751
 2326TIP3    H228538   6.714   5.970   0.768  0.0477  0.2264  0.4775
 2327TIP3   OH228539   2.156   3.151   0.946  0.3624  0.5137  0.0665
 2327TIP3    H128540   2.132   3.060   0.960  2.0280  0.3149  2.0832
 2327TIP3    H228541   2.157   3.162   0.851  1.3714 -1.9012 -0.2561
 2328TIP3   OH228542   6.205   6.464   7.005  0.5977  0.4777  0.1009
 2328TIP3    H128543   6.246   6.509   7.078  1.4484 -0.3429  0.1380
 2328TIP3    H228544   6.111   6.471   7.022  0.5779  3.5930 -0.7023
 2329TIP3   OH228545   4.337   5.863   6.996 -0.6034  0.1289 -0.1736
 2329TIP3    H128546   4.361   5.928   6.929 -0.9957 -0.5595 -0.9916
 2329TIP3    H228547   4.391   5.887   7.072 -0.4609  1.1760 -0.5866
 2330TIP3   OH228548   5.074   6.361   6.573  0.4776 -0.2313 -0.1953
 2330TIP3    H128549   5.148   6.313   6.534 -0.2065  1.1956 -3.5263
 2330TIP3    H228550   5.109   6.448   6.590  0.1966 -0.2662  0.6021
 2331TIP3   OH228551   1.905   0.176   2.295  0.3558 -0.2899 -0.4679
 2331TIP3    H128552   1.927   0.243   2.360  2.5411 -0.8698 -0.5462
 2331TIP3    H228553   1.859   0.109   2.345  1.7573 -0.5965  0.4518
 2332TIP3   OH228554   4.314   0.533   7.502 -0.3445 -0.1822 -0.1527
 2332TIP3    H128555   4.369   0.457   7.524 -0.8934  0.0605  2.4535
 2332TIP3    H228556   4.375   0.597   7.465  0.6664 -0.8527  0.2976
 2333TIP3   OH228557   0.664   4.970   1.074  0.0008 -0.2683  0.0602
 2333TIP3    H128558   0.657   5.047   1.130 -1.0574  0.3767 -0.9358
 2333TIP3    H228559   0.626   4.899   1.126 -0.6789  0.2515  0.2788
 2334TIP3   OH228560   1.775   0.252   6.759  0.3859  0.4295 -0.3584
 2334TIP3    H128561   1.795   0.278   6.849  1.6794  0.6132 -0.6727
 2334TIP3    H228562   1.696   0.302   6.737 -1.1118 -1.0654  1.2862
 2335TIP3   OH228563   5.062   1.632   7.332 -0.3764 -0.7860 -0.3074
 2335TIP3    H128564   4.983   1.591   7.366  0.7155 -0.9560  2.2849
 2335TIP3    H228565   5.059   1.722   7.366  0.4180 -0.7277 -0.3598
 2336TIP3   OH228566   1.385   1.316   1.843 -0.0601  0.1645  0.2569
 2336TIP3    H128567   1.315   1.275   1.895 -0.4876  0.2564 -0.2289
 2336TIP3    H228568   1.342   1.390   1.799  0.9883  1.9223  2.0667
 2337TIP3   OH228569   5.714   1.503   1.265  0.2695 -0.1881  0.1784
 2337TIP3    H128570   5.628   1.488   1.303  0.9372  0.3404  1.9791
 2337TIP3    H228571   5.757   1.418   1.270 -0.1366 -0.4670 -0.7760
 2338TIP3   OH228572   0.242   5.769   0.923 -0.2293 -0.4609  0.1795
 2338TIP3    H128573   0.329   5.739   0.899 -0.7805 -0.7974 -1.5106
 2338TIP3    H228574   0.221   5.836   0.858 -1.0724 -0.1032  0.8094
 2339TIP3   OH228575   3.554   4.564   1.305 -0.1101 -0.1323  0.3421
 2339TIP3    H128576   3.491   4.577   1.235 -0.1606  2.3860  0.7631
 2339TIP3    H228577   3.627   4.519   1.263 -0.7410  0.0319 -0.9788
 2340TIP3   OH228578   0.206   1.541   2.747  0.4155  0.7588  0.4334
 2340TIP3    H128579   0.123   1.495   2.730 -0.0377  2.3650 -2.5507
 2340TIP3    H228580   0.268   1.472   2.770 -0.8644 -1.0268 -1.1288
 2341TIP3   OH228581   2.023   2.499   7.183  0.6494 -0.2910 -0.3286
 2341TIP3    H128582   2.095   2.558   7.160  0.0086  0.4928 -0.4034
 2341TIP3    H228583   1.971   2.493   7.103 -0.1200  0.2861  0.1038
 2342TIP3   OH228584   5.971   3.928   0.633 -0.0760 -0.9387  0.2855
 2342TIP3    H128585   6.049   3.872   0.642 -1.0138 -2.4402 -0.4418
 2342TIP3    H228586   5.999   3.999   0.576  1.1020 -0.7457  1.0660
 2343TIP3   OH228587   4.897   0.823   0.900  0.1202  0.6674 -0.2668
 2343TIP3    H128588   4.952   0.850   0.826  0.0850  2.5431  0.3379
 2343TIP3    H228589   4.924   0.880   0.972 -2.0818  1.1238  0.2686
 2344TIP3   OH228590   5.713   4.445   7.025 -0.2854  0.0180  0.2258
 2344TIP3    H128591   5.743   4.516   7.081 -2.9739  1.2299  0.2595
 2344TIP3    H228592   5.793   4.409   6.986  1.1702  3.1585  0.0720
 2345TIP3   OH228593   4.237   4.516   1.138  0.1142 -0.5412 -0.0222
 2345TIP3    H128594   4.157   4.494   1.186 -0.3454  3.6556  1.4846
 2345TIP3    H228595   4.227   4.608   1.115  4.6337  0.2899  0.4677
 2346TIP3   OH228596   3.743   4.234   1.748  0.0120 -0.5627 -0.6878
 2346TIP3    H128597   3.736   4.189   1.663 -0.2175  0.4872 -1.2369
 2346TIP3    H228598   3.670   4.200   1.799  0.0686 -1.1056 -0.9560
 2347TIP3   OH228599   1.563   5.321   0.360 -0.2221 -0.7292 -0.2945
 2347TIP3    H128600   1.598   5.406   0.385 -0.5524 -1.3371  2.7171
 2347TIP3    H228601   1.528   5.334   0.272  1.0745  1.7980 -0.5392
 2348TIP3   OH228602   4.585   4.982   6.983 -0.3512 -0.5222 -0.4526
 2348TIP3    H128603   4.537   4.912   6.938 -0.3625 -1.5191  1.0403
 2348TIP3    H228604   4.676   4.970   6.956 -0.7149  0.6039 -2.3191
 2349TIP3   OH228605   4.292   4.360   0.667  0.5851 -0.0446  0.5134
 2349TIP3    H128606   4.321   4.282   0.620 -3.4722 -2.0801  0.8918
 2349TIP3    H228607   4.272   4.328   0.755 -1.4601  1.2502  0.5880
 2350TIP3   OH228608   0.509   1.954   2.351  0.1559 -0.4322 -0.2371
 2350TIP3    H128609   0.519   1.864   2.383  0.6850 -1.3346 -2.7069
 2350TIP3    H228610   0.586   1.999   2.383  0.4302 -1.1556  0.1487
 2351TIP3   OH228611   5.285   5.442   0.363 -0.1876  0.0701  0.1696
 2351TIP3    H128612   5.353   5.400   0.309  0.8275  0.0512  1.4136
 2351TIP3    H228613   5.309   5.534   0.364 -1.6577  0.5237 -1.4512
 2352TIP3   OH228614   1.213   4.980   1.311  0.4477 -0.3868  0.4384
 2352TIP3    H128615   1.157   4.904   1.330 -1.5346  1.1117  0.9790
 2352TIP3    H228616   1.209   4.989   1.215 -0.7931  0.0285  0.5017
 2353TIP3   OH228617   1.101   2.397   1.322  0.6362 -0.0078  0.7699
 2353TIP3    H128618   1.129   2.400   1.414 -0.5462 -1.2987  1.2074
 2353TIP3    H228619   1.080   2.488   1.301 -1.1159  0.0472  2.4740
 2354TIP3   OH228620   3.084   4.773   0.486 -0.0808  0.2198 -0.3181
 2354TIP3    H128621   3.134   4.701   0.525  0.0612 -0.0053 -0.9128
 2354TIP3    H228622   3.098   4.764   0.392 -1.0129  0.3169 -0.4773
 2355TIP3   OH228623   5.012   3.733   7.503  0.1672 -0.2977  0.0291
 2355TIP3    H128624   4.981   3.823   7.513 -2.1950 -1.0849  0.3458
 2355TIP3    H228625   4.984   3.688   7.583 -0.5929 -1.7865 -1.0222
 2356TIP3   OH228626   1.596   2.687   8.121 -0.5447 -0.7282  0.1924
 2356TIP3    H128627   1.588   2.774   8.160 -0.7857 -1.6978  2.4481
 2356TIP3    H228628   1.666   2.644   8.170 -0.3204 -1.7833 -0.9878
 2357TIP3   OH228629   3.972   4.417   8.101  0.4252 -0.0702 -0.5557
 2357TIP3    H128630   4.018   4.496   8.127  0.1327 -0.1183  0.1400
 2357TIP3    H228631   4.039   4.361   8.062  1.0906 -0.3678  0.9348
 2358TIP3   OH228632   4.796   0.790   7.667  0.1745 -0.0313 -0.3369
 2358TIP3    H128633   4.772   0.812   7.756 -0.0679  1.4183 -0.7379
 2358TIP3    H228634   4.785   0.871   7.618  1.0078 -0.6097 -1.5424
 2359TIP3   OH228635   2.273   3.479   7.847 -0.3390 -0.1445  0.1590
 2359TIP3    H128636   2.323   3.401   7.824  0.3951  0.5568 -0.7130
 2359TIP3    H228637   2.339   3.548   7.856 -1.0621  0.6027 -0.1248
 2360TIP3   OH228638   3.641   2.001   1.900  0.5930  0.2109 -0.1302
 2360TIP3    H128639   3.621   1.956   1.982 -0.4137 -1.7767 -1.4009
 2360TIP3    H228640   3.618   2.093   1.917 -0.7662 -0.3767  1.4069
 2361TIP3   OH228641   2.758   0.626   8.432 -0.0810 -0.5671 -0.4118
 2361TIP3    H128642   2.688   0.577   8.476 -3.0581  2.7507 -0.9291
 2361TIP3    H228643   2.812   0.659   8.504 -0.5450 -1.1377  0.2193
 2362TIP3   OH228644   1.509   6.695   1.773 -0.5124 -0.1674 -0.1320
 2362TIP3    H128645   1.494   6.684   1.679 -0.2262 -0.1846 -0.1775
 2362TIP3    H228646   1.458   6.624   1.813 -0.2620 -0.4481 -0.3028
 2363TIP3   OH228647   2.511   1.700   7.865 -0.2039  0.0675  0.2407
 2363TIP3    H128648   2.476   1.767   7.924  0.7615 -0.5871  1.5955
 2363TIP3    H228649   2.454   1.625   7.878 -0.6738  0.2720 -0.5343
 2364TIP3   OH228650   1.625   1.786   2.544 -0.1972 -0.2802 -0.1231
 2364TIP3    H128651   1.588   1.700   2.567 -2.0016  0.3880 -0.3792
 2364TIP3    H228652   1.549   1.841   2.525  0.9686  1.0701 -1.1212
 2365TIP3   OH228653   6.077   4.120   2.163 -0.0518 -0.4731 -0.2662
 2365TIP3    H128654   6.084   4.190   2.097 -0.9480 -0.0102  0.1111
 2365TIP3    H228655   6.001   4.145   2.216  1.4256 -0.1454  1.7728
 2366TIP3   OH228656   4.808   6.617   7.524 -0.0578  0.0308 -0.1879
 2366TIP3    H128657   4.857   6.696   7.546 -0.0310  0.3842 -1.4797
 2366TIP3    H228658   4.874   6.556   7.489 -0.1086 -0.5115  0.6264
 2367TIP3   OH228659   0.734   0.581   0.099  0.1639  0.3578  0.3727
 2367TIP3    H128660   0.695   0.659   0.060  2.1045  1.0939 -0.2482
 2367TIP3    H228661   0.759   0.608   0.187  1.5508  0.7429 -0.1068
 2368TIP3   OH228662   5.698   2.142   7.412  0.2691 -0.0787  0.0617
 2368TIP3    H128663   5.772   2.114   7.358 -0.6081  0.2134 -1.3420
 2368TIP3    H228664   5.622   2.100   7.372 -0.8333  2.6262 -0.9140
 2369TIP3   OH228665   2.571   5.998   0.158  0.0765 -0.3065 -0.2743
 2369TIP3    H128666   2.660   6.001   0.192 -0.0125  0.3959 -0.0884
 2369TIP3    H228667   2.546   5.906   0.165  0.2998 -0.2959  0.9570
 2370TIP3   OH228668   4.260   0.145   7.464  0.0286  0.5431  0.2062
 2370TIP3    H128669   4.229   0.181   7.381  1.7133 -0.3538 -0.8731
 2370TIP3    H228670   4.229   0.206   7.530  1.6554  3.2972 -1.3905
 2371TIP3   OH228671   0.640   2.244   2.232  0.6452 -0.5505 -0.2210
 2371TIP3    H128672   0.717   2.231   2.176  0.1334  0.4887 -1.1886
 2371TIP3    H228673   0.581   2.298   2.181 -1.0098 -1.7936  0.2655
 2372TIP3   OH228674   2.476   1.707   0.499  0.4862 -0.0163 -0.1052
 2372TIP3    H128675   2.570   1.710   0.519  0.6381 -0.8110 -0.6519
 2372TIP3    H228676   2.472   1.719   0.404 -0.2063  3.5652  0.2394
 2373TIP3   OH228677   2.032   1.394   8.623 -0.0036  0.0255  0.7802
 2373TIP3    H128678   2.048   1.419   8.714 -1.1070 -0.1479  1.0359
 2373TIP3    H228679   2.098   1.442   8.573 -0.7510  1.8765  1.4519
 2374TIP3   OH228680   1.604   1.805   8.163  0.1096  0.0710  0.1271
 2374TIP3    H128681   1.518   1.847   8.161  0.3871  0.6625  0.3037
 2374TIP3    H228682   1.594   1.726   8.110 -0.8756 -0.5129  1.1473
 2375TIP3   OH228683   1.784   6.259   8.575 -0.5071 -0.2818  0.0795
 2375TIP3    H128684   1.857   6.317   8.596  0.8734 -1.7261 -0.5341
 2375TIP3    H228685   1.811   6.214   8.495 -2.7706  0.2743 -1.0829
 2376TIP3   OH228686   0.762   6.711   0.695  0.1983 -0.1298  0.5606
 2376TIP3    H128687   0.680   6.699   0.743 -0.4062 -0.4244 -0.5143
 2376TIP3    H228688   0.786   6.802   0.711  0.8024 -0.5994  2.6149
 2377TIP3   OH228689   3.565   1.861   8.324  0.1594  0.0141 -0.8005
 2377TIP3    H128690   3.537   1.885   8.236 -1.9020  1.1876  0.1092
 2377TIP3    H228691   3.489   1.817   8.363  0.7011  0.3171  0.6702
 2378TIP3   OH228692   5.833   4.097   6.868  0.2794  0.4945  1.0355
 2378TIP3    H128693   5.927   4.113   6.863 -0.0555  2.3392 -1.1301
 2378TIP3    H228694   5.824   4.019   6.923  3.2131 -0.9946 -0.3752
 2379TIP3   OH228695   5.127   1.829   1.484  0.0217 -0.5636 -0.9444
 2379TIP3    H128696   5.072   1.788   1.551  0.9729  1.0396  0.9182
 2379TIP3    H228697   5.214   1.830   1.522  0.6201  0.3393 -2.2566
 2380TIP3   OH228698   1.653   1.803   6.729 -0.1119 -0.4384 -0.3035
 2380TIP3    H128699   1.601   1.861   6.674  0.0376 -0.6139 -0.6323
 2380TIP3    H228700   1.599   1.725   6.740 -0.8960  0.2761  1.2533
 2381TIP3   OH228701   3.794   1.343   8.729  0.1595  0.2682 -0.1195
 2381TIP3    H128702   3.811   1.436   8.743  0.5715 -0.0349  1.5219
 2381TIP3    H228703   3.790   1.333   8.634 -1.7132  2.2745 -0.3282
 2382TIP3   OH228704   5.843   4.292   6.678  0.1496 -0.5523  0.1453
 2382TIP3    H128705   5.885   4.261   6.597  1.5852  0.4947  0.4604
 2382TIP3    H228706   5.845   4.216   6.736  0.0037 -1.0277 -0.4552
 2383TIP3   OH228707   3.411   1.122   7.761 -0.3379 -0.3727 -0.4432
 2383TIP3    H128708   3.373   1.070   7.832  1.4341  0.8393  1.5262
 2383TIP3    H228709   3.478   1.066   7.723  0.0861 -0.3412  0.2279
 2384TIP3   OH228710   5.989   2.307   8.026 -0.2946  0.0757 -0.4879
 2384TIP3    H128711   5.935   2.274   8.097  1.1528  0.3835  0.8138
 2384TIP3    H228712   6.079   2.291   8.054  0.3480 -0.9618 -2.8415
 2385TIP3   OH228713   3.092   4.018   0.323 -0.2685  0.5185 -0.5722
 2385TIP3    H128714   3.124   3.928   0.313  1.2470  0.9658 -0.0674
 2385TIP3    H228715   3.072   4.046   0.234 -0.8193 -0.3372 -0.7264
 2386TIP3   OH228716   1.221   2.528   8.359 -0.0697  0.5247  0.2820
 2386TIP3    H128717   1.149   2.489   8.408  0.4314 -0.3843  0.3068
 2386TIP3    H228718   1.250   2.601   8.415 -0.1587  0.1181  0.8677
 2387TIP3   OH228719   1.246   2.567   1.084  0.1327 -0.6323  0.3295
 2387TIP3    H128720   1.162   2.613   1.078  0.2014 -0.6586 -1.2982
 2387TIP3    H228721   1.224   2.481   1.119 -0.8739 -1.3938 -1.9767
 2388TIP3   OH228722   4.214   2.333   7.026  0.0636  0.2193 -0.6776
 2388TIP3    H128723   4.274   2.405   7.006 -0.2703  0.4807 -0.7529
 2388TIP3    H228724   4.176   2.310   6.941 -0.8839  0.9057 -0.4531
 2389TIP3   OH228725   0.543   5.873   7.451 -0.1940 -0.6870  0.1153
 2389TIP3    H128726   0.615   5.872   7.388  1.2551 -0.4280  1.6870
 2389TIP3    H228727   0.585   5.854   7.536 -2.0943 -1.2741  0.9810
 2390TIP3   OH228728   6.108   5.875   8.525 -0.2857 -0.0603 -0.2821
 2390TIP3    H128729   6.199   5.881   8.497  0.0495 -2.8786 -0.0667
 2390TIP3    H228730   6.107   5.914   8.613  0.5849  0.4781 -0.5017
 2391TIP3   OH228731   1.710   3.798   1.095 -0.1586 -0.2824 -0.0127
 2391TIP3    H128732   1.662   3.874   1.129 -0.4238  0.4174 -1.8453
 2391TIP3    H228733   1.797   3.805   1.135 -0.6120  0.1805  0.9254
 2392TIP3   OH228734   5.043   4.711   7.230 -0.0877  0.2154  0.0130
 2392TIP3    H128735   4.983   4.657   7.179 -0.4638  0.4918  0.1593
 2392TIP3    H228736   4.987   4.776   7.272  0.3507  0.6730 -0.1012
 2393TIP3   OH228737   5.814   4.183   2.223  0.5530 -0.6798 -0.4015
 2393TIP3    H128738   5.773   4.245   2.162  1.0606 -0.1839 -0.2472
 2393TIP3    H228739   5.749   4.170   2.292  1.1486  1.2019  0.5907
 2394TIP3   OH228740   5.545   3.708   6.312 -0.1936 -1.2258 -0.2774
 2394TIP3    H128741   5.514   3.665   6.232 -0.5474  0.2674 -0.9826
 2394TIP3    H228742   5.569   3.796   6.284 -1.3831 -0.2797  1.4490
 2395TIP3   OH228743   2.484   3.028   8.120  0.1834  0.1240 -0.0122
 2395TIP3    H128744   2.454   2.960   8.060  0.8560 -0.1951  0.0091
 2395TIP3    H228745   2.485   2.986   8.206  1.3316 -0.0721 -0.1132
 2396TIP3   OH228746   3.393   2.404   7.496  0.0184  0.3146  0.0468
 2396TIP3    H128747   3.360   2.488   7.465 -0.4015  0.3432  0.5642
 2396TIP3    H228748   3.374   2.343   7.424 -0.6840  0.4384  0.1236
 2397TIP3   OH228749   4.542   0.105   7.554  0.5464 -0.1049  0.1137
 2397TIP3    H128750   4.546   0.032   7.616  0.0274  0.3587  0.7018
 2397TIP3    H228751   4.452   0.105   7.522  0.9831 -0.7671 -1.1790
 2398TIP3   OH228752   5.818   3.008   8.589 -0.8433  0.5861 -0.7555
 2398TIP3    H128753   5.748   2.998   8.653 -0.8721  0.0607 -0.8622
 2398TIP3    H228754   5.791   2.953   8.516  0.5238 -1.0844 -0.0678
 2399TIP3   OH228755   1.510   0.403   0.587 -0.0675 -0.0137  0.3407
 2399TIP3    H128756   1.531   0.358   0.505  0.8001  0.0092  0.5435
 2399TIP3    H228757   1.418   0.383   0.602  0.3258 -1.8900  0.5177
 2400TIP3   OH228758   4.140   0.555   0.042 -0.4575 -0.6178  0.9345
 2400TIP3    H128759   4.223   0.554   0.090  1.0579 -0.3693 -1.5371
 2400TIP3    H228760   4.141   0.475  -0.010 -1.5172 -0.3496  0.4705
 2401TIP3   OH228761   3.234   0.104   0.025  0.3238 -0.3663 -0.3038
 2401TIP3    H128762   3.200   0.016   0.037 -0.5127 -0.0815 -0.4991
 2401TIP3    H228763   3.171   0.161   0.070  1.5356  0.0375  0.9233
 2402TIP3   OH228764   3.076   1.526   7.717 -0.0337  0.0559 -0.4938
 2402TIP3    H128765   3.039   1.596   7.664  0.7554  1.0417  0.2032
 2402TIP3    H228766   3.169   1.547   7.724 -0.2808  0.6447  2.1967
 2403TIP3   OH228767   0.180   1.214   1.261  0.4678 -0.4058 -0.5397
 2403TIP3    H128768   0.203   1.285   1.321  0.4682 -0.6971 -0.1915
 2403TIP3    H228769   0.131   1.257   1.191 -0.6101 -0.2399  0.2955
 2404TIP3   OH228770   1.952   5.796   8.234 -0.1752 -0.7072  0.2151
 2404TIP3    H128771   2.030   5.750   8.264  0.0149  0.3541  1.3939
 2404TIP3    H228772   1.903   5.816   8.313 -0.4415  0.7756 -0.2973
 2405TIP3   OH228773   4.430   2.935   6.938  0.2733  0.5668 -0.2441
 2405TIP3    H128774   4.432   3.018   6.890  1.6947  1.2708  0.9396
 2405TIP3    H228775   4.460   2.870   6.874 -1.8559  0.7372 -1.4972
 2406TIP3   OH228776   4.636   4.882   1.755  0.0668  0.1620  0.7246
 2406TIP3    H128777   4.647   4.932   1.835 -0.9794  1.0630  0.3298
 2406TIP3    H228778   4.582   4.937   1.699 -1.8852 -1.7438  0.5894
 2407TIP3   OH228779   0.229   4.526   1.195  0.4592  0.2126  0.5238
 2407TIP3    H128780   0.227   4.454   1.133 -1.1744  0.1386  0.6286
 2407TIP3    H228781   0.257   4.602   1.144 -0.9141  0.1634 -0.3399
 2408TIP3   OH228782   6.272   1.848   8.590  0.2899 -0.2565  0.5207
 2408TIP3    H128783   6.363   1.852   8.617 -0.0319  2.1671  1.5719
 2408TIP3    H228784   6.223   1.864   8.671 -0.8927  2.0935 -0.5467
 2409TIP3   OH228785   6.235   1.583   8.040 -0.0451 -0.0058  0.4039
 2409TIP3    H128786   6.164   1.639   8.069 -1.6057 -2.1490  0.9393
 2409TIP3    H228787   6.203   1.494   8.051  2.8755 -1.1070  1.0766
 2410TIP3   OH228788   5.136   2.373   1.816  0.1699  0.0033  0.3532
 2410TIP3    H128789   5.077   2.306   1.782  0.5204 -0.2429  0.2184
 2410TIP3    H228790   5.218   2.327   1.831 -0.3171 -0.1917  2.7578
 2411TIP3   OH228791   1.869   3.755   8.198 -0.1873 -0.1793 -0.2310
 2411TIP3    H128792   1.857   3.661   8.212  1.2985 -0.3688 -0.1381
 2411TIP3    H228793   1.865   3.765   8.103  0.2196 -0.4120 -0.2731
 2412TIP3   OH228794   3.382   4.198   0.629 -0.2158 -0.0192  0.1453
 2412TIP3    H128795   3.406   4.225   0.541 -2.2646  2.0111  0.1239
 2412TIP3    H228796   3.449   4.236   0.686  0.0041  0.3917 -0.3843
 2413TIP3   OH228797   4.871   4.576   7.005 -0.0635  0.0034  0.1228
 2413TIP3    H128798   4.832   4.623   6.932 -1.3843  0.4491  1.0784
 2413TIP3    H228799   4.959   4.555   6.976  0.5737  3.0200 -0.3559
 2414TIP3   OH228800   5.954   1.980   0.129  0.3091 -0.3028  1.0326
 2414TIP3    H128801   6.039   1.966   0.087 -1.3615 -0.9662 -2.4305
 2414TIP3    H228802   5.931   1.894   0.165  0.1968 -0.6446  0.1537
 2415TIP3   OH228803   3.328   1.345   7.615  0.2200  0.1782 -0.2877
 2415TIP3    H128804   3.335   1.422   7.671 -5.1402 -0.0773  1.3674
 2415TIP3    H228805   3.353   1.272   7.670  0.6791  0.3832 -0.2263
 2416TIP3   OH228806   3.342   5.547   2.169  0.1024 -0.0573 -0.0017
 2416TIP3    H128807   3.258   5.548   2.123 -1.8669 -0.8886  3.2658
 2416TIP3    H228808   3.371   5.455   2.166 -0.9044 -0.4766  1.6949
 2417TIP3   OH228809   0.327   5.348   0.688 -0.2092  0.3163  0.1161
 2417TIP3    H128810   0.331   5.268   0.740 -0.6222  0.2089 -0.0111
 2417TIP3    H228811   0.387   5.409   0.732 -1.4410  0.6385  1.4305
 2418TIP3   OH228812   1.042   6.459   8.632  0.2329  0.0931 -0.3243
 2418TIP3    H128813   1.037   6.430   8.541  0.1137 -1.2828  0.0854
 2418TIP3    H228814   1.129   6.431   8.661 -0.1877 -0.6123  0.3185
 2419TIP3   OH228815   0.236   0.988   8.138 -0.4730  0.0232 -0.0079
 2419TIP3    H128816   0.260   0.904   8.178 -0.2303  1.4837  3.2143
 2419TIP3    H228817   0.280   0.987   8.053  0.9465 -2.3667  0.6429
 2420TIP3   OH228818   2.709   1.963   6.770 -0.6214 -0.6264  0.0729
 2420TIP3    H128819   2.625   2.009   6.764  0.0774  0.8007  0.6290
 2420TIP3    H228820   2.733   1.968   6.862 -0.0749 -1.3141 -0.0202
 2421TIP3   OH228821   3.528   1.570   0.173 -0.5111  0.1995 -0.6067
 2421TIP3    H128822   3.548   1.477   0.185 -1.3829 -0.0049 -0.6615
 2421TIP3    H228823   3.613   1.613   0.168 -0.1001 -0.4532  0.4872
 2422TIP3   OH228824   5.092   3.026   7.106 -0.4319 -0.0615  0.2225
 2422TIP3    H128825   4.999   3.037   7.086 -0.7682 -3.1122 -0.5066
 2422TIP3    H228826   5.121   2.959   7.044  2.1596  0.5186  0.7182
 2423TIP3   OH228827   1.291   2.787   8.447 -0.0251 -0.0233  0.1152
 2423TIP3    H128828   1.380   2.784   8.483  0.0416  0.4142 -0.0154
 2423TIP3    H228829   1.290   2.864   8.391 -0.7832  0.5529  0.8965
 2424TIP3   OH228830   3.246   3.326   0.691  0.2141  0.1242 -0.1046
 2424TIP3    H128831   3.264   3.306   0.599 -0.0038  2.1350 -0.6285
 2424TIP3    H228832   3.331   3.345   0.729  0.3256 -0.8903  0.1787
 2425TIP3   OH228833   5.487   0.613   1.525 -0.1456 -0.3538  0.1661
 2425TIP3    H128834   5.498   0.650   1.438 -1.8911 -1.1426 -0.4315
 2425TIP3    H228835   5.476   0.689   1.583 -2.0923  0.1434 -0.7950
 2426TIP3   OH228836   4.569   4.965   6.613 -0.1202  0.1764  0.1080
 2426TIP3    H128837   4.555   4.896   6.549 -1.4325  0.7682 -0.2898
 2426TIP3    H228838   4.522   4.936   6.691  2.7169 -1.2519  1.4112
 2427TIP3   OH228839   3.677   1.372   7.205  0.1116 -0.2111 -0.1539
 2427TIP3    H128840   3.657   1.464   7.223  1.3522  0.3312 -1.3807
 2427TIP3    H228841   3.743   1.375   7.137 -0.2439 -2.0477 -0.6252
 2428TIP3   OH228842   2.812   5.908   2.010  0.1088 -0.5144 -0.1182
 2428TIP3    H128843   2.725   5.928   2.046  0.5208 -1.5287  1.5400
 2428TIP3    H228844   2.798   5.830   1.956 -0.2315  0.0995 -0.9368
 2429TIP3   OH228845   6.421   6.111   7.683 -0.1178 -0.6594  0.0511
 2429TIP3    H128846   6.418   6.029   7.634  0.0180 -0.2138 -0.7322
 2429TIP3    H228847   6.515   6.131   7.690 -0.1127 -1.0003  0.9817
 2430TIP3   OH228848   3.689   3.695   8.188  0.0796  0.2149 -0.1808
 2430TIP3    H128849   3.649   3.736   8.265  1.0959 -0.5243  0.7899
 2430TIP3    H228850   3.768   3.747   8.173 -0.0939  0.3277 -0.7011
 2431TIP3   OH228851   2.079   1.395   1.332  0.1109 -0.4298  0.0891
 2431TIP3    H128852   2.091   1.354   1.246 -0.5381  0.0725 -0.2546
 2431TIP3    H228853   2.103   1.327   1.395 -0.4309 -1.1616 -0.4804
 2432TIP3   OH228854   5.629   4.544   7.828 -0.3489 -0.1856 -0.2819
 2432TIP3    H128855   5.551   4.489   7.820  0.7044 -1.5128 -2.5662
 2432TIP3    H228856   5.697   4.496   7.780  1.3415  1.8833 -0.1202
 2433TIP3   OH228857   3.304   5.975   8.033 -0.0099 -0.2168 -0.4819
 2433TIP3    H128858   3.292   6.002   7.942 -0.0056 -2.7465 -1.3195
 2433TIP3    H228859   3.228   5.919   8.051  0.2897 -0.2082  0.8740
 2434TIP3   OH228860   6.158   3.476   0.235 -0.3526  0.0864 -0.1270
 2434TIP3    H128861   6.145   3.512   0.323  0.1059  0.0220 -0.0297
 2434TIP3    H228862   6.210   3.543   0.190 -1.6192  0.6769 -0.7372
 2435TIP3   OH228863   6.375   1.512   8.755 -0.5541 -0.3160 -0.3031
 2435TIP3    H128864   6.327   1.492   8.675 -1.4340 -2.7196  0.7438
 2435TIP3    H228865   6.338   1.454   8.821  1.7920 -0.1550  1.2881
 2436TIP3   OH228866   4.748   5.896   2.142 -0.4249  0.0419 -0.5251
 2436TIP3    H128867   4.672   5.927   2.094 -1.1805 -1.5107 -0.3912
 2436TIP3    H228868   4.779   5.821   2.092  1.4609  1.0413 -0.9527
 2437TIP3   OH228869   3.802   2.748   2.052 -0.1648 -0.3302 -0.0998
 2437TIP3    H128870   3.888   2.741   2.009  0.3775  0.6113  0.7968
 2437TIP3    H228871   3.777   2.839   2.042 -1.3969 -0.7350 -0.9309
 2438TIP3   OH228872   5.261   2.906   2.315  0.2715 -0.4430 -0.5341
 2438TIP3    H128873   5.306   2.980   2.275 -0.4425  0.7596  0.7840
 2438TIP3    H228874   5.332   2.851   2.348  0.8491  1.0548  0.8787
 2439TIP3   OH228875   5.881   4.541   8.313  0.5351  0.1372  0.0128
 2439TIP3    H128876   5.865   4.457   8.355  1.6309 -0.8388 -1.3990
 2439TIP3    H228877   5.822   4.542   8.238  0.3021  0.7753  0.1993
 2440TIP3   OH228878   0.557   2.924   8.833 -0.3918  0.1151  0.1555
 2440TIP3    H128879   0.504   2.913   8.754  1.7712 -2.0878 -1.1377
 2440TIP3    H228880   0.539   3.013   8.862 -3.2293  0.1315 -1.2982
 2441TIP3   OH228881   1.166   3.120   1.241 -0.7920 -0.3103  0.3043
 2441TIP3    H128882   1.104   3.145   1.172  0.1890  1.8434  0.0986
 2441TIP3    H228883   1.247   3.102   1.193 -0.3247  0.4070  0.8100
 2442TIP3   OH228884   6.437   4.892   8.646  0.3956  0.4207  0.4742
 2442TIP3    H128885   6.522   4.928   8.672  1.2104  0.4387 -1.9680
 2442TIP3    H228886   6.437   4.802   8.681  0.1989  1.2480  2.8076
 2443TIP3   OH228887   0.622   3.523   1.502 -0.5520 -0.0468 -0.1007
 2443TIP3    H128888   0.686   3.578   1.457  0.2236 -1.0491 -0.2588
 2443TIP3    H228889   0.674   3.458   1.549 -1.2146  1.8890  3.6703
 2444TIP3   OH228890   0.380   2.394   1.813 -1.1749 -0.2148 -0.0063
 2444TIP3    H128891   0.389   2.358   1.901  1.0028  2.2630  0.9244
 2444TIP3    H228892   0.285   2.394   1.797 -1.8295  0.7811  3.0609
 2445TIP3   OH228893   0.160   0.959   7.649 -0.3287 -0.3573 -0.2686
 2445TIP3    H128894   0.151   0.914   7.733 -0.0390 -0.6274 -0.3783
 2445TIP3    H228895   0.101   0.913   7.590  0.5834 -1.1556 -0.5989
 2446TIP3   OH228896   6.620   3.207   0.040 -0.1180 -0.6157 -0.1038
 2446TIP3    H128897   6.545   3.260   0.010  0.6130 -0.1090 -1.1044
 2446TIP3    H228898   6.692   3.233  -0.018  1.2470 -0.0076  1.7862
 2447TIP3   OH228899   0.186   3.193   0.010 -0.0922 -0.4981  0.2382
 2447TIP3    H128900   0.257   3.251  -0.015  1.4416 -1.1269  2.8498
 2447TIP3    H228901   0.106   3.240  -0.015  1.1703  0.5413 -2.0723
 2448TIP3   OH228902   3.122   4.741   1.213 -0.3943 -0.4290 -0.8350
 2448TIP3    H128903   3.050   4.781   1.166 -0.3091  0.2632 -0.4061
 2448TIP3    H228904   3.101   4.648   1.217 -0.9533 -0.3213 -1.2413
 2449TIP3   OH228905   3.774   0.903   0.553  0.4295 -0.2280 -0.5855
 2449TIP3    H128906   3.727   0.827   0.587 -2.3384  0.1371 -3.1536
 2449TIP3    H228907   3.843   0.866   0.498  1.7394 -0.7795  1.3256
 2450TIP3   OH228908   3.420   2.856   0.044  0.2432  0.2353  0.5269
 2450TIP3    H128909   3.419   2.783  -0.018  0.6997  0.0998  0.6735
 2450TIP3    H228910   3.376   2.928  -0.003  0.4318  0.0829  0.1089
 2451TIP3   OH228911   5.293   4.621   1.325 -0.4723  0.1790  0.4994
 2451TIP3    H128912   5.205   4.655   1.339 -0.7392 -0.4308  0.3454
 2451TIP3    H228913   5.350   4.679   1.375 -0.7736  1.5488 -0.6777
 2452TIP3   OH228914   2.066   6.230   0.758  0.2120 -0.0086  0.4057
 2452TIP3    H128915   2.099   6.140   0.767 -0.3228 -0.4271 -1.4829
 2452TIP3    H228916   2.099   6.260   0.674  0.1133  1.4730  0.8654
 2453TIP3   OH228917   0.772   3.696   1.333  0.4897 -0.0278  1.0157
 2453TIP3    H128918   0.760   3.641   1.255  1.4672  3.8975 -2.2916
 2453TIP3    H228919   0.854   3.667   1.371  0.1401 -1.8669  0.4679
 2454TIP3   OH228920   2.123   1.489   2.269  0.1666  0.5370 -0.1881
 2454TIP3    H128921   2.158   1.531   2.190  1.9100  1.2413  0.8862
 2454TIP3    H228922   2.060   1.552   2.303 -1.4262 -0.2527 -1.5585
 2455TIP3   OH228923   3.439   3.924   0.250  0.6875  0.5721 -0.3835
 2455TIP3    H128924   3.451   3.996   0.189  1.6415 -1.2291 -2.4476
 2455TIP3    H228925   3.527   3.908   0.286  0.3640  0.8164  0.5457
 2456TIP3   OH228926   5.800   5.386   8.390  0.3905 -0.1527 -0.5467
 2456TIP3    H128927   5.841   5.338   8.318 -0.4756  0.5845 -1.5663
 2456TIP3    H228928   5.746   5.453   8.347 -0.3977  0.1061  0.7743
 2457TIP3   OH228929   2.907   1.612   0.002 -0.0419  0.9622 -0.0757
 2457TIP3    H128930   2.929   1.686   0.059  0.3704  0.4971  0.3774
 2457TIP3    H228931   2.874   1.653  -0.078  2.5827  1.7245 -0.8809
 2458TIP3   OH228932   3.948   4.840   7.781 -0.0391 -0.5450 -0.0631
 2458TIP3    H128933   4.012   4.889   7.833  0.8753 -1.0092 -0.7196
 2458TIP3    H228934   3.864   4.880   7.803  0.4863  0.1790  0.7093
 2459TIP3   OH228935   3.557   1.687   7.275  0.3763  0.1049 -0.1435
 2459TIP3    H128936   3.513   1.622   7.329  1.2723 -1.1835 -0.9038
 2459TIP3    H228937   3.650   1.672   7.289  0.6173  1.7464  0.2442
 2460TIP3   OH228938   6.690   1.639   0.701  0.1894 -0.7883  0.5724
 2460TIP3    H128939   6.777   1.631   0.662  1.7101  0.5991  3.3390
 2460TIP3    H228940   6.663   1.729   0.683  0.4448 -0.4620  1.7413
 2461TIP3   OH228941   3.900   6.768   6.471 -0.2290  0.6074  0.8317
 2461TIP3    H128942   3.980   6.780   6.421  0.5736  0.9153  2.1286
 2461TIP3    H228943   3.861   6.855   6.474 -0.6111  0.4622  0.2201
 2462TIP3   OH228944   0.789   5.030   8.483 -0.5046  0.1084  0.3251
 2462TIP3    H128945   0.809   4.985   8.401  1.5078  2.0976 -0.3551
 2462TIP3    H228946   0.694   5.020   8.493 -0.4721 -2.2744 -0.9120
 2463TIP3   OH228947   4.062   0.421   1.391 -0.0295 -1.0216  0.5066
 2463TIP3    H128948   4.018   0.445   1.473 -2.7517 -1.1043 -0.8222
 2463TIP3    H228949   4.142   0.472   1.391 -2.4575  3.2214  0.7997
 2464TIP3   OH228950   6.168   2.124   2.503 -0.3743 -0.1135  0.0808
 2464TIP3    H128951   6.167   2.057   2.572  0.1815 -0.2603 -0.0550
 2464TIP3    H228952   6.206   2.201   2.544  2.1711 -0.8844 -0.6803
 2465TIP3   OH228953   3.088   3.942   0.654  0.3797 -0.1203  0.5931
 2465TIP3    H128954   3.088   3.871   0.718 -2.1159  0.0726  0.8940
 2465TIP3    H228955   3.151   3.914   0.588  1.0073 -1.5997  1.7462
 2466TIP3   OH228956   0.895   2.269   0.534  0.4483 -0.2681 -0.3612
 2466TIP3    H128957   0.832   2.206   0.566  0.5508 -0.4452 -0.5051
 2466TIP3    H228958   0.954   2.284   0.607 -0.0512  0.2763 -0.0623
 2467TIP3   OH228959   3.144   2.587   6.710  0.8897  0.3991 -0.1203
 2467TIP3    H128960   3.185   2.669   6.739  0.9676  0.5877 -0.7529
 2467TIP3    H228961   3.059   2.613   6.674  1.6076  0.4512 -1.9110
 2468TIP3   OH228962   4.409   3.557   1.272  0.2896  0.3231  0.6065
 2468TIP3    H128963   4.405   3.578   1.179 -1.1260  0.5872  0.7064
 2468TIP3    H228964   4.383   3.465   1.276  2.3438 -0.3038  0.5737
 2469TIP3   OH228965   3.667   3.149   1.082  0.9095 -0.0254 -0.0883
 2469TIP3    H128966   3.691   3.241   1.093 -0.4890  0.3979 -0.3519
 2469TIP3    H228967   3.688   3.130   0.991  0.2125  0.3729 -0.3472
 2470TIP3   OH228968   2.319   3.109   1.571 -0.4822 -0.2453 -0.4852
 2470TIP3    H128969   2.265   3.179   1.533 -0.5570  1.0118  1.7811
 2470TIP3    H228970   2.408   3.143   1.567 -0.5515  0.1828  0.8849
 2471TIP3   OH228971   2.186   6.498   1.558 -0.5657 -0.2627 -0.4546
 2471TIP3    H128972   2.137   6.418   1.573 -0.6446  0.0005  0.8004
 2471TIP3    H228973   2.119   6.567   1.552 -0.5001 -0.2742 -1.5361
 2472TIP3   OH228974   5.138   3.043   7.720 -0.5030 -0.9358  0.1954
 2472TIP3    H128975   5.065   3.104   7.725  1.3540  1.3357  2.2380
 2472TIP3    H228976   5.153   3.015   7.811  1.4779 -0.8601 -0.0542
 2473TIP3   OH228977   3.706   1.388   2.108  0.0005 -0.3524 -0.0678
 2473TIP3    H128978   3.623   1.349   2.134  0.6077 -0.3529  2.0824
 2473TIP3    H228979   3.689   1.482   2.105  0.4393 -0.0489  3.0554
 2474TIP3   OH228980   6.625   3.642   7.459  0.3726 -0.2626 -0.2949
 2474TIP3    H128981   6.693   3.681   7.405  2.4215 -2.9100  0.1896
 2474TIP3    H228982   6.592   3.569   7.406 -0.5442 -0.3579  0.3857
 2475TIP3   OH228983   2.336   2.469   1.029 -0.3561 -0.3266  0.0683
 2475TIP3    H128984   2.305   2.490   1.117  1.8723  0.4107  0.7508
 2475TIP3    H228985   2.333   2.552   0.982  0.1172 -0.3518 -0.0073
 2476TIP3   OH228986   5.477   4.072   1.477 -0.4338  0.5601  0.0908
 2476TIP3    H128987   5.410   4.066   1.409  0.6532 -1.5306 -0.9105
 2476TIP3    H228988   5.449   4.009   1.544  0.2459  0.0861 -0.0677
 2477TIP3   OH228989   3.992   2.134   7.127  0.3958  0.1433  0.6411
 2477TIP3    H128990   4.052   2.209   7.121  0.3609  0.2273  1.2757
 2477TIP3    H228991   4.001   2.090   7.043  0.5214  0.7814  0.3129
 2478TIP3   OH228992   5.251   6.695   7.863  0.4970  0.1386  0.3563
 2478TIP3    H128993   5.228   6.690   7.955  1.1390  1.6089  0.6364
 2478TIP3    H228994   5.201   6.770   7.829  1.8489  0.9449  0.0551
 2479TIP3   OH228995   5.340   1.678   1.958 -0.0401  0.0094 -0.2992
 2479TIP3    H128996   5.266   1.738   1.961  0.5323  0.7170  0.4655
 2479TIP3    H228997   5.401   1.719   1.896  0.7944  0.8050  0.9817
 2480TIP3   OH228998   0.848   2.250   7.777  0.2530  0.4365 -0.0856
 2480TIP3    H128999   0.882   2.181   7.721  0.1004 -0.0224  0.3755
 2480TIP3    H229000   0.762   2.218   7.805  1.4525 -0.7277  2.7006
 2481TIP3   OH229001   6.354   4.756   2.076  0.4287 -0.1646 -0.0696
 2481TIP3    H129002   6.365   4.681   2.135  0.4057  0.3337  0.5785
 2481TIP3    H229003   6.358   4.832   2.133 -4.4931  0.2373  0.1688
 2482TIP3   OH229004   2.527   4.338   8.095 -0.5271 -1.2605 -0.0301
 2482TIP3    H129005   2.472   4.415   8.084  1.2853 -0.0466 -1.1466
 2482TIP3    H229006   2.584   4.359   8.170 -0.5795 -1.8744  0.1896
 2483TIP3   OH229007   2.224   6.231   0.202  0.5537 -0.3902 -0.2138
 2483TIP3    H129008   2.319   6.237   0.205  0.5223  2.6124 -1.4087
 2483TIP3    H229009   2.204   6.208   0.111  0.1179 -1.8724  0.2336
 2484TIP3   OH229010   0.592   5.139   1.289  0.4514 -0.3254 -0.6649
 2484TIP3    H129011   0.643   5.133   1.370  0.7138 -0.3197 -0.8290
 2484TIP3    H229012   0.502   5.121   1.317  0.6871 -1.3782 -0.5394
 2485TIP3   OH229013   4.548   0.622   7.374 -0.0352 -0.0660 -0.5510
 2485TIP3    H129014   4.547   0.713   7.403  0.4470 -0.1961 -0.1111
 2485TIP3    H229015   4.517   0.625   7.284 -0.4514  0.4827 -0.3934
 2486TIP3   OH229016   4.701   1.096   1.219  0.3266  0.2579 -0.2317
 2486TIP3    H129017   4.640   1.058   1.155  1.3139 -1.6843 -0.0892
 2486TIP3    H229018   4.644   1.135   1.285 -0.8586 -2.0041  0.2101
 2487TIP3   OH229019   2.363   0.154   1.018 -0.0268 -0.1305  0.4371
 2487TIP3    H129020   2.389   0.079   1.071 -1.2171 -0.7873  0.1353
 2487TIP3    H229021   2.297   0.119   0.958  2.3196  0.1968 -2.5877
 2488TIP3   OH229022   4.182   3.656   7.217  0.6928  0.6266  0.0554
 2488TIP3    H129023   4.182   3.749   7.237  0.8116  0.3987  1.1866
 2488TIP3    H229024   4.262   3.622   7.257  0.7949  0.0808 -0.5815
 2489TIP3   OH229025   4.946   0.079   1.578  0.4277  0.1642  0.4138
 2489TIP3    H129026   4.969   0.144   1.511  0.2625 -0.1106  0.0850
 2489TIP3    H229027   4.910   0.006   1.528  2.0166 -0.8103  0.6436
 2490TIP3   OH229028   1.205   2.230   8.852  0.0370  0.0949  0.1791
 2490TIP3    H129029   1.176   2.298   8.913 -0.0682 -1.2937  1.7173
 2490TIP3    H229030   1.127   2.209   8.801  0.0348  1.0106 -0.2178
 2491TIP3   OH229031   5.567   3.959   0.282 -0.4588 -0.3755 -0.5778
 2491TIP3    H129032   5.509   3.943   0.207  1.8300 -1.8042 -2.1778
 2491TIP3    H229033   5.636   3.894   0.273  0.1590 -0.2990  2.5988
 2492TIP3   OH229034   0.698   0.469   7.661 -0.0704  0.2421  0.0182
 2492TIP3    H129035   0.653   0.513   7.589 -0.9008  1.5481  1.2852
 2492TIP3    H229036   0.787   0.502   7.657  0.9308 -2.3206 -2.4804
 2493TIP3   OH229037   2.522   4.340   1.878 -0.1859 -0.2934  0.5910
 2493TIP3    H129038   2.548   4.289   1.955  2.9981  0.0285 -0.1421
 2493TIP3    H229039   2.520   4.277   1.806  4.1116  0.3940 -0.3902
 2494TIP3   OH229040   0.765   0.495   8.671  0.3255 -0.3979  0.3537
 2494TIP3    H129041   0.755   0.510   8.765  1.4790  0.7679  0.3226
 2494TIP3    H229042   0.767   0.400   8.661 -1.9738 -0.5858  1.2408
 2495TIP3   OH229043   3.826   6.097   1.605  0.8518  0.3543  0.1229
 2495TIP3    H129044   3.912   6.100   1.645  1.2524  0.1962 -0.7023
 2495TIP3    H229045   3.813   6.005   1.582  1.0361  0.5809 -0.9469
 2496TIP3   OH229046   2.289   0.966   1.540  0.1427 -0.4111  0.1623
 2496TIP3    H129047   2.351   1.028   1.580 -2.1319  1.2502  1.3864
 2496TIP3    H229048   2.325   0.880   1.561  2.5645  0.4506 -0.1209
 2497TIP3   OH229049   2.144   4.084   1.266 -0.7372 -0.3859 -0.6476
 2497TIP3    H129050   2.080   4.094   1.196  0.1482  0.4728 -1.3535
 2497TIP3    H229051   2.193   4.166   1.267 -1.4502  0.0913  1.7371
 2498TIP3   OH229052   1.468   4.719   1.788 -0.4608 -0.1575 -0.0771
 2498TIP3    H129053   1.442   4.763   1.708  0.6441 -0.5952 -0.7032
 2498TIP3    H229054   1.387   4.682   1.823 -0.9624  0.0969 -0.9556
 2499TIP3   OH229055   1.209   5.975   0.124 -0.4684 -0.9074  0.2091
 2499TIP3    H129056   1.214   5.881   0.105 -0.4483 -0.3584 -3.1239
 2499TIP3    H229057   1.174   6.014   0.044 -1.0020  1.9113  1.6776
 2500TIP3   OH229058   2.883   3.208   8.499 -0.2144 -0.0113  0.4954
 2500TIP3    H129059   2.957   3.261   8.528  1.4011 -2.0192  0.2612
 2500TIP3    H229060   2.813   3.271   8.485  1.5659  2.0399  0.2604
 2501TIP3   OH229061   5.423   6.210   0.243  0.0772 -0.0916  0.3659
 2501TIP3    H129062   5.383   6.125   0.228 -1.7063  0.7037  0.3435
 2501TIP3    H229063   5.487   6.220   0.172 -1.8466 -0.1516 -1.4663
 2502TIP3   OH229064   2.423   0.945   1.233 -0.3365 -0.2593 -0.4300
 2502TIP3    H129065   2.430   1.040   1.224 -0.1037 -0.2339 -0.0202
 2502TIP3    H229066   2.364   0.932   1.307  3.0381 -0.3382  2.5353
 2503TIP3   OH229067   4.139   5.903   1.486 -0.7657 -0.3145  0.6547
 2503TIP3    H129068   4.104   5.986   1.454  0.8184  0.6918  1.4113
 2503TIP3    H229069   4.125   5.842   1.414 -0.7617  0.9292 -0.4387
 2504TIP3   OH229070   2.208   4.401   8.680  0.2292  0.6019 -0.2650
 2504TIP3    H129071   2.143   4.422   8.613  0.1522  0.1270 -0.3431
 2504TIP3    H229072   2.194   4.308   8.699  0.9392  0.4761 -0.3402
 2505TIP3   OH229073   3.190   3.557   8.501 -0.0334  0.2534 -0.5467
 2505TIP3    H129074   3.179   3.620   8.430 -1.6092 -0.2233 -0.7806
 2505TIP3    H229075   3.187   3.472   8.458 -0.6181 -0.0306  0.0320
 2506TIP3   OH229076   3.345   6.635   0.245  0.3780  0.0798  0.4335
 2506TIP3    H129077   3.253   6.659   0.252  0.1541 -0.4181 -0.6464
 2506TIP3    H229078   3.346   6.540   0.249  0.8678  0.0839  0.5454
 2507TIP3   OH229079   0.744   2.564   1.676 -0.0788  0.1283 -0.3160
 2507TIP3    H129080   0.722   2.481   1.717 -1.0786  0.9298  0.8609
 2507TIP3    H229081   0.836   2.555   1.650 -0.4412 -1.6551 -1.0924
 2508TIP3   OH229082   6.502   3.321   7.099 -0.7085  0.8443 -0.3832
 2508TIP3    H129083   6.426   3.279   7.059 -1.4364 -0.4585  2.1024
 2508TIP3    H229084   6.575   3.296   7.044 -1.9569  1.7123 -2.5641
 2509TIP3   OH229085   3.192   1.374   7.107  0.0805  0.2397 -0.0969
 2509TIP3    H129086   3.160   1.285   7.123 -0.5891  0.2568 -1.2035
 2509TIP3    H229087   3.234   1.400   7.189  0.7607 -1.2851  0.0705
 2510TIP3   OH229088   1.465   2.155   2.539  0.3777  0.0680 -0.3828
 2510TIP3    H129089   1.476   2.066   2.574  0.2545 -0.0841 -0.7324
 2510TIP3    H229090   1.370   2.163   2.526  0.4513  0.0275 -0.9404
 2511TIP3   OH229091   1.262   5.610   6.589  0.4945 -0.1291  0.3735
 2511TIP3    H129092   1.195   5.655   6.641 -0.5449 -2.2355  0.9432
 2511TIP3    H229093   1.315   5.562   6.653  1.1661 -0.2691 -0.2652
 2512TIP3   OH229094   4.789   0.189   8.514 -0.6884  0.3397  0.1450
 2512TIP3    H129095   4.764   0.195   8.607 -0.1023  3.6661  0.2218
 2512TIP3    H229096   4.882   0.215   8.513 -0.3955 -0.6793 -1.2855
 2513TIP3   OH229097   4.658   2.411   8.437  0.4416 -0.0274 -0.4131
 2513TIP3    H129098   4.670   2.504   8.454  0.4325  0.0154 -0.6426
 2513TIP3    H229099   4.666   2.402   8.342 -0.9838 -0.0460 -0.5576
 2514TIP3   OH229100   6.008   6.305   8.526 -0.1905 -0.1841  0.4209
 2514TIP3    H129101   6.028   6.392   8.490  2.0881 -0.4377  0.9175
 2514TIP3    H229102   5.915   6.309   8.548  0.1986  2.7440  2.0658
 2515TIP3   OH229103   3.934   3.672   8.000 -0.4756  0.7255 -0.6310
 2515TIP3    H129104   4.009   3.705   7.951  0.4163 -0.1852  0.0764
 2515TIP3    H229105   3.946   3.706   8.089 -0.6665  0.2191 -0.4069
 2516TIP3   OH229106   3.419   1.277   8.468 -0.0203  0.1764  0.2146
 2516TIP3    H129107   3.325   1.281   8.485 -0.4221  0.4025 -1.8190
 2516TIP3    H229108   3.434   1.187   8.438  0.0687  0.6416 -1.1727
 2517TIP3   OH229109   5.808   3.803   6.993 -0.2658 -0.1206  0.0079
 2517TIP3    H129110   5.749   3.841   7.058 -0.8662  1.0245 -1.1843
 2517TIP3    H229111   5.804   3.709   7.010 -0.1050  0.1710  1.8760
 2518TIP3   OH229112   0.722   5.895   8.825 -0.0579 -0.3528 -0.0134
 2518TIP3    H129113   0.764   5.930   8.903  1.1696 -1.9938  0.1151
 2518TIP3    H229114   0.636   5.864   8.855  0.5433 -1.2920  0.7856
 2519TIP3   OH229115   3.662   2.185   8.086  0.4447  0.3453 -0.2988
 2519TIP3    H129116   3.656   2.211   8.177 -1.4843  1.3825 -0.6714
 2519TIP3    H229117   3.709   2.256   8.043  0.8890  0.1025 -0.2270
 2520TIP3   OH229118   4.456   6.348   8.448 -0.1552  0.2812 -0.1864
 2520TIP3    H129119   4.482   6.438   8.429 -0.8307  0.5199 -0.0073
 2520TIP3    H229120   4.403   6.321   8.372  0.5656 -0.1844 -0.5304
 2521TIP3   OH229121   6.107   3.229   2.578  0.2244 -0.2186 -0.2724
 2521TIP3    H129122   6.076   3.218   2.488  0.1487  0.9147 -0.4008
 2521TIP3    H229123   6.104   3.324   2.593 -0.3605 -0.4232  1.1258
 2522TIP3   OH229124   5.717   2.467   8.168 -0.0654 -0.1770  0.3106
 2522TIP3    H129125   5.755   2.386   8.202 -1.4025 -0.3193  1.5567
 2522TIP3    H229126   5.792   2.526   8.157  0.6920 -0.9238  1.2864
 2523TIP3   OH229127   5.237   2.771   0.603 -0.0093  0.3394  0.1914
 2523TIP3    H129128   5.238   2.815   0.518 -2.8036  0.4336  0.0852
 2523TIP3    H229129   5.308   2.811   0.653  0.9456  1.0953 -1.6994
 2524TIP3   OH229130   2.419   6.694   1.729  0.0975  0.7894 -0.5156
 2524TIP3    H129131   2.373   6.687   1.645  0.1767  1.0931 -0.5862
 2524TIP3    H229132   2.485   6.624   1.727 -2.2162 -1.6133  0.7886
 2525TIP3   OH229133   6.319   3.765   1.447  0.2343 -0.7018 -0.2774
 2525TIP3    H129134   6.371   3.827   1.500  0.3564 -0.5485 -0.5765
 2525TIP3    H229135   6.247   3.817   1.413 -1.3106 -1.3458  1.7877
 2526TIP3   OH229136   1.060   2.110   1.353 -0.6106  0.1949 -0.1711
 2526TIP3    H129137   1.047   2.171   1.425 -1.5086 -0.3100  0.1108
 2526TIP3    H229138   0.985   2.124   1.295  0.6674  1.3819 -1.6172
 2527TIP3   OH229139   5.424   5.814   1.345  0.0426 -0.2211  0.1650
 2527TIP3    H129140   5.436   5.792   1.438  2.8415  0.3963  0.0524
 2527TIP3    H229141   5.380   5.738   1.308  0.2505 -1.1495  1.7066
 2528TIP3   OH229142   2.584   1.139   0.433  0.2823  0.4491 -0.6221
 2528TIP3    H129143   2.676   1.115   0.449  0.7666  2.0914 -0.7542
 2528TIP3    H229144   2.582   1.163   0.340 -0.1848  0.8625 -0.5055
 2529TIP3   OH229145   2.024   4.457   6.506 -0.6137  0.4797  0.6292
 2529TIP3    H129146   2.087   4.416   6.446 -0.4613  1.4385  0.1177
 2529TIP3    H229147   2.059   4.544   6.523 -1.5629  0.8617  0.7017
 2530TIP3   OH229148   2.283   1.916   8.391  0.0192  0.2570 -0.3615
 2530TIP3    H129149   2.211   1.973   8.365 -1.0428 -0.1340  1.5469
 2530TIP3    H229150   2.362   1.967   8.373 -0.7865  1.2881 -1.0912
 2531TIP3   OH229151   4.360   2.354   1.735 -0.4094  0.7220  0.1210
 2531TIP3    H129152   4.398   2.272   1.704  2.9998  2.0124  0.5234
 2531TIP3    H229153   4.373   2.415   1.663  0.8183  1.8959  1.3008
 2532TIP3   OH229154   0.799   3.577   7.248 -0.2642 -0.0262  0.2113
 2532TIP3    H129155   0.875   3.631   7.272 -0.1271  0.5061 -1.3238
 2532TIP3    H229156   0.837   3.493   7.222 -0.1896  0.2393 -0.5539
 2533TIP3   OH229157   6.237   1.116   6.444  0.1810  0.0248 -0.1929
 2533TIP3    H129158   6.259   1.208   6.431  0.4953  0.6432  3.5415
 2533TIP3    H229159   6.309   1.068   6.404 -0.0675  1.3354 -2.3458
 2534TIP3   OH229160   2.748   0.282   1.364  0.1040 -0.4372  0.7864
 2534TIP3    H129161   2.784   0.280   1.453 -0.5462 -1.3363  1.0480
 2534TIP3    H229162   2.725   0.373   1.349 -0.3265 -0.3644  1.7786
 2535TIP3   OH229163   1.543   6.509   1.175  0.5277  0.3013 -0.0327
 2535TIP3    H129164   1.613   6.453   1.208 -0.0228 -0.2739  0.1968
 2535TIP3    H229165   1.515   6.560   1.251  1.4669  1.3780 -0.3930
 2536TIP3   OH229166   1.583   5.665   7.346 -0.1982  0.3679  0.4114
 2536TIP3    H129167   1.651   5.655   7.280 -0.6587  0.4058 -0.0741
 2536TIP3    H229168   1.630   5.661   7.430  0.1550 -1.7168  0.1746
 2537TIP3   OH229169   6.211   4.071   6.186 -0.4623 -0.2328 -0.3358
 2537TIP3    H129170   6.241   4.134   6.252  0.2048 -0.5848 -0.2915
 2537TIP3    H229171   6.165   4.124   6.121 -0.0305  0.2783 -0.2292
 2538TIP3   OH229172   0.408   4.074   8.568  0.0468 -0.1118  0.4990
 2538TIP3    H129173   0.318   4.105   8.577  0.0288  0.0884 -0.2965
 2538TIP3    H229174   0.406   3.985   8.603 -0.1541  0.3439  1.7224
 2539TIP3   OH229175   4.575   6.604   1.568  0.4094 -0.5775  0.1260
 2539TIP3    H129176   4.586   6.514   1.597  0.8677 -0.6422 -0.2397
 2539TIP3    H229177   4.587   6.601   1.473  0.2773 -0.1594  0.0932
 2540TIP3   OH229178   4.263   2.042   7.621  0.2139 -0.2088  0.2186
 2540TIP3    H129179   4.269   1.946   7.625 -1.2743 -0.3440 -0.1597
 2540TIP3    H229180   4.261   2.062   7.527 -0.3681  0.1130  0.2952
 2541TIP3   OH229181   5.087   6.115   8.467 -0.0974 -0.1881 -0.5680
 2541TIP3    H129182   5.044   6.189   8.510 -0.3642  0.3469 -1.7091
 2541TIP3    H229183   5.017   6.053   8.450 -0.3470  0.4190 -1.8809
 2542TIP3   OH229184   3.615   5.521   0.544 -0.5891  0.3237  0.5516
 2542TIP3    H129185   3.700   5.548   0.580 -1.2793 -1.7715  4.1887
 2542TIP3    H229186   3.637   5.459   0.474  0.7981  1.8947 -0.5067
 2543TIP3   OH229187   3.127   6.470   1.668 -0.6805  0.4716 -0.0744
 2543TIP3    H129188   3.137   6.447   1.760  0.6917  1.2491  0.0021
 2543TIP3    H229189   3.125   6.386   1.622  0.7691  0.0990  0.4968
 2544TIP3   OH229190   6.040   1.390   8.665  0.0195  0.0824  0.0823
 2544TIP3    H129191   5.962   1.441   8.686 -1.6325 -2.2121 -0.1515
 2544TIP3    H229192   6.080   1.437   8.592 -1.1744  1.2938  0.1704
 2545TIP3   OH229193   6.335   5.795   1.873  0.1357  0.0783 -0.3131
 2545TIP3    H129194   6.372   5.872   1.916 -0.4183  0.4743 -0.5434
 2545TIP3    H229195   6.248   5.785   1.911  1.3317 -2.3955  2.1922
 2546TIP3   OH229196   6.609   5.407   7.643 -0.0458  0.1837 -0.1778
 2546TIP3    H129197   6.686   5.435   7.693 -0.9896  0.9280  0.8960
 2546TIP3    H229198   6.628   5.315   7.621  0.9498  0.2204  0.4423
 2547TIP3   OH229199   3.607   3.943   8.833  0.0739 -0.2139  0.0440
 2547TIP3    H129200   3.695   3.974   8.853 -0.1704 -1.0176  2.7780
 2547TIP3    H229201   3.613   3.848   8.835 -0.4230 -0.3555 -2.1803
 2548TIP3   OH229202   3.354   6.675   1.786  0.0224 -0.0739  0.1155
 2548TIP3    H129203   3.426   6.708   1.732 -0.4031 -0.3179 -0.6145
 2548TIP3    H229204   3.323   6.597   1.739 -0.4358 -0.2182  0.6504
 2549TIP3   OH229205   0.209   4.718   7.959 -0.0910  0.0173 -0.4736
 2549TIP3    H129206   0.124   4.712   8.002  0.4483  0.6497  0.7296
 2549TIP3    H229207   0.270   4.736   8.031  0.8759  0.8387 -1.4820
 2550TIP3   OH229208   6.310   5.550   8.828 -0.0519 -0.2411 -0.0426
 2550TIP3    H129209   6.346   5.580   8.744  1.1425 -0.7096  0.2751
 2550TIP3    H229210   6.215   5.557   8.817  0.0815  2.9655 -0.2312
 2551TIP3   OH229211   5.987   4.923   7.509 -0.2352  0.5268 -1.0353
 2551TIP3    H129212   5.907   4.974   7.497 -0.5588 -0.2546 -2.4012
 2551TIP3    H229213   6.058   4.986   7.499 -0.6471  0.9452 -1.3243
 2552TIP3   OH229214   1.737   2.539   2.711  0.2339  0.3573  0.0979
 2552TIP3    H129215   1.818   2.578   2.743  0.9103 -1.2481  0.4285
 2552TIP3    H229216   1.760   2.502   2.626 -0.8439  2.1461 -1.0284
 2553TIP3   OH229217   5.618   1.453   8.696  0.4508  0.1833  0.3931
 2553TIP3    H129218   5.584   1.543   8.691 -0.8506 -0.2560  0.9480
 2553TIP3    H229219   5.544   1.398   8.671  1.3914 -0.7365 -0.4684
 2554TIP3   OH229220   6.708   0.497   8.376 -0.0018 -0.1982  0.4191
 2554TIP3    H129221   6.623   0.534   8.351  1.3320  2.0429 -1.2594
 2554TIP3    H229222   6.744   0.561   8.437  0.8336 -0.6769  0.4395
 2555TIP3   OH229223   5.522   5.268   7.876  0.2877  0.3894 -0.1685
 2555TIP3    H129224   5.480   5.213   7.810 -0.5686  1.4355 -0.5415
 2555TIP3    H229225   5.563   5.338   7.825  1.4987  0.0231  0.2791
 2556TIP3   OH229226   0.785   2.986   7.363 -0.2003  0.6741 -0.0709
 2556TIP3    H129227   0.751   2.952   7.280 -0.1053  0.2202  0.0769
 2556TIP3    H229228   0.868   3.027   7.340  1.3484 -2.0858  0.2519
 2557TIP3   OH229229   5.622   5.337   8.131 -0.6695  0.5909  0.0488
 2557TIP3    H129230   5.698   5.392   8.109  0.3102 -0.8138 -0.2034
 2557TIP3    H229231   5.587   5.309   8.046 -0.9427  0.5318  0.1805
 2558TIP3   OH229232   1.998   1.417   7.332  0.2128  0.0340  0.3079
 2558TIP3    H129233   1.911   1.403   7.295  0.3575  1.1480 -0.5283
 2558TIP3    H229234   1.982   1.472   7.409  0.1723  0.3322  0.0912
 2559TIP3   OH229235   5.203   4.117   0.739  0.4292 -0.2791 -0.3113
 2559TIP3    H129236   5.138   4.049   0.758  1.0151 -0.3742  1.5044
 2559TIP3    H229237   5.153   4.199   0.742  0.4570 -0.2888  1.7469
 2560TIP3   OH229238   1.195   0.586   7.163  0.1845  0.1559  0.1028
 2560TIP3    H129239   1.139   0.515   7.194  1.6340 -0.6847  0.8778
 2560TIP3    H229240   1.213   0.564   7.071 -1.5639  0.9954 -0.4864
 2561TIP3   OH229241   1.208   4.817   8.743 -1.1091  0.3297  0.2193
 2561TIP3    H129242   1.278   4.765   8.782 -1.5814 -0.9665 -0.5968
 2561TIP3    H229243   1.132   4.803   8.799 -2.0886 -2.3991 -1.6186
 2562TIP3   OH229244   1.664   2.767   0.879 -0.0884 -0.3074 -0.2265
 2562TIP3    H129245   1.616   2.747   0.798 -1.9726  0.1708  0.7067
 2562TIP3    H229246   1.599   2.811   0.935  1.8378  1.6613  0.6082
 2563TIP3   OH229247   0.995   6.480   0.506 -0.1747 -0.2572 -0.5222
 2563TIP3    H129248   0.957   6.433   0.431 -0.7490  0.8324 -0.9369
 2563TIP3    H229249   0.986   6.419   0.579 -0.5165 -0.9579 -1.1291
 2564TIP3   OH229250   5.563   1.946   6.926 -0.3457  0.4686  0.2718
 2564TIP3    H129251   5.516   1.864   6.909 -0.4419  0.5771  0.0033
 2564TIP3    H229252   5.644   1.938   6.875 -0.0278  0.2412  0.8098
 2565TIP3   OH229253   4.927   2.725   1.877 -0.1096 -0.3307 -0.0814
 2565TIP3    H129254   4.896   2.801   1.927  0.4505  0.0454 -0.2965
 2565TIP3    H229255   4.864   2.717   1.805 -0.9635 -0.9243  0.7243
 2566TIP3   OH229256   6.756   5.697   8.700 -0.7117 -0.4255 -0.8593
 2566TIP3    H129257   6.786   5.621   8.650 -0.0763 -0.7894  0.0486
 2566TIP3    H229258   6.762   5.770   8.639 -0.5659 -0.9715 -1.5053
 2567TIP3   OH229259   0.712   0.464   1.774 -0.4309  0.0209 -0.5437
 2567TIP3    H129260   0.633   0.514   1.756 -0.9236 -0.2066  0.8734
 2567TIP3    H229261   0.759   0.462   1.691 -0.8834  1.9629 -0.8945
 2568TIP3   OH229262   2.178   1.805   7.561  0.2774 -0.1069  0.2055
 2568TIP3    H129263   2.246   1.744   7.589  0.4320  0.2551  0.6397
 2568TIP3    H229264   2.189   1.881   7.619  0.8253  0.8173 -1.0517
 2569TIP3   OH229265   6.489   0.312   1.440  0.2390  0.4128  0.0911
 2569TIP3    H129266   6.517   0.402   1.424  0.7058  0.0433 -1.3375
 2569TIP3    H229267   6.478   0.306   1.535  0.3160  1.9327  0.2153
 2570TIP3   OH229268   6.296   1.595   1.982  0.1735  0.1539 -0.3454
 2570TIP3    H129269   6.249   1.567   1.904 -1.1289 -0.8584  0.7489
 2570TIP3    H229270   6.285   1.690   1.984 -0.7176  0.0680 -0.8222
 2571TIP3   OH229271   2.293   4.157   6.951  0.3609  0.3046 -0.1647
 2571TIP3    H129272   2.295   4.063   6.968  0.0191  0.3354  0.0406
 2571TIP3    H229273   2.279   4.163   6.856  1.4836  0.1452 -0.3495
 2572TIP3   OH229274   1.224   1.260   7.924  0.4600 -0.2058 -0.6101
 2572TIP3    H129275   1.166   1.336   7.935 -2.6921 -2.1438 -2.3621
 2572TIP3    H229276   1.297   1.293   7.871 -1.2350  1.4832 -2.0451
 2573TIP3   OH229277   4.936   0.966   7.874  0.2682  0.3717  0.1136
 2573TIP3    H129278   5.008   0.997   7.930  0.0307  0.6851  0.2495
 2573TIP3    H229279   4.973   0.965   7.786  0.5572  0.1535  0.2347
 2574TIP3   OH229280   6.590   2.560   6.517  0.3073  0.1079  0.4505
 2574TIP3    H129281   6.593   2.473   6.557  1.4872 -0.3110 -0.5012
 2574TIP3    H229282   6.497   2.581   6.513 -0.0468 -1.4166  0.0281
 2575TIP3   OH229283   2.258   3.831   1.061 -0.6144  0.2905 -0.1212
 2575TIP3    H129284   2.319   3.762   1.088 -0.8921  0.1069  0.0407
 2575TIP3    H229285   2.256   3.825   0.966 -1.3896 -0.5773 -0.0570
 2576TIP3   OH229286   3.615   4.859   7.088 -0.3489 -0.0241 -0.4126
 2576TIP3    H129287   3.678   4.792   7.061  0.0909  0.7328 -1.3350
 2576TIP3    H229288   3.529   4.819   7.072 -0.1057 -0.7435  0.0416
 2577TIP3   OH229289   6.030   3.178   1.003  0.1484  0.5284 -0.2183
 2577TIP3    H129290   6.080   3.206   1.079  1.2929 -0.0822 -0.7123
 2577TIP3    H229291   5.971   3.111   1.036  0.4529  0.4523  0.1798
 2578TIP3   OH229292   4.463   0.997   8.406  0.3007 -0.0359  0.0638
 2578TIP3    H129293   4.436   0.942   8.480  0.1419 -0.1908 -0.1082
 2578TIP3    H229294   4.420   0.957   8.330 -0.1736  0.5903 -0.0000
 2579TIP3   OH229295   5.190   1.660   0.524  0.2819  0.0130 -0.5694
 2579TIP3    H129296   5.226   1.669   0.436  0.1822  1.0837 -0.5203
 2579TIP3    H229297   5.225   1.577   0.557  3.3022  1.2918 -0.2665
 2580TIP3   OH229298   3.390   0.407   7.701 -0.0139 -0.7739 -0.3706
 2580TIP3    H129299   3.298   0.432   7.695 -0.6399 -2.4980  1.2379
 2580TIP3    H229300   3.389   0.312   7.716  2.1258 -1.2840 -2.7241
 2581TIP3   OH229301   6.395   0.249   1.910  0.3784  0.4901  0.6830
 2581TIP3    H129302   6.469   0.222   1.964  0.9432  1.2686  0.3174
 2581TIP3    H229303   6.320   0.246   1.968  0.5482 -1.0771  0.8638
 2582TIP3   OH229304   3.283   0.497   0.165 -0.0266  0.5169  0.4154
 2582TIP3    H129305   3.269   0.453   0.249 -1.7792 -0.2774 -0.2539
 2582TIP3    H229306   3.197   0.530   0.139  0.9466  3.1759  0.1844
 2583TIP3   OH229307   1.266   1.914   1.026 -0.3463 -0.2900 -0.5550
 2583TIP3    H129308   1.319   1.981   0.981 -2.0161  1.0482 -0.6417
 2583TIP3    H229309   1.176   1.943   1.014 -1.0401 -1.7481  0.7749
 2584TIP3   OH229310   3.845   2.136   7.809 -0.0227  0.4335 -0.0073
 2584TIP3    H129311   3.801   2.215   7.841 -2.7593 -0.8865 -0.2198
 2584TIP3    H229312   3.834   2.140   7.714 -1.3424 -0.7931  0.0685
 2585TIP3   OH229313   1.439   4.696   0.614 -0.3333  0.2713  0.3489
 2585TIP3    H129314   1.418   4.661   0.701 -0.9655  0.5686  0.3172
 2585TIP3    H229315   1.373   4.763   0.598  0.9250  1.6062  0.4715
 2586TIP3   OH229316   1.509   2.368   2.763  0.6814 -0.1669 -0.2691
 2586TIP3    H129317   1.522   2.310   2.688  0.3370 -0.9357  0.2567
 2586TIP3    H229318   1.596   2.404   2.780  0.9094 -0.5558 -0.5799
 2587TIP3   OH229319   5.387   0.811   2.126  0.4291  0.4652  0.1286
 2587TIP3    H129320   5.340   0.850   2.200 -0.0970  1.9327 -0.9323
 2587TIP3    H229321   5.471   0.857   2.123  0.6421  0.0815  0.0831
 2588TIP3   OH229322   2.970   2.194   0.855  0.3657 -0.0555  0.1386
 2588TIP3    H129323   2.905   2.126   0.837  0.4337 -0.4884  1.4377
 2588TIP3    H229324   2.939   2.237   0.934  0.8882  0.7417 -0.0724
 2589TIP3   OH229325   3.597   5.526   8.452  0.4186  0.0318  0.0774
 2589TIP3    H129326   3.554   5.452   8.494 -0.2101  0.5532  0.3850
 2589TIP3    H229327   3.536   5.599   8.465  0.2575  0.2518 -1.5862
 2590TIP3   OH229328   0.987   5.120   0.039  0.0513 -0.0171  0.2721
 2590TIP3    H129329   0.971   5.214   0.032 -1.8383 -0.1807  1.4292
 2590TIP3    H229330   0.974   5.087  -0.050 -1.3856  0.5814  0.2233
 2591TIP3   OH229331   0.103   1.906   7.624 -0.2361  0.4983 -0.2652
 2591TIP3    H129332   0.017   1.947   7.639 -1.7200 -2.6485  0.5612
 2591TIP3    H229333   0.099   1.876   7.533  0.2240  0.7729 -0.3804
 2592TIP3   OH229334   0.310   3.857   7.822  0.5461 -0.4745  0.1046
 2592TIP3    H129335   0.358   3.850   7.905 -0.5853 -2.2648  0.6648
 2592TIP3    H229336   0.346   3.788   7.767 -0.3268 -0.8357 -0.0245
 2593TIP3   OH229337   4.901   0.327   6.771 -0.3974  0.0467 -0.3827
 2593TIP3    H129338   4.965   0.388   6.808  0.0846 -0.8011  0.2202
 2593TIP3    H229339   4.893   0.353   6.679 -0.8218  1.5231  0.0467
 2594TIP3   OH229340   2.269   2.998   6.968  0.9815 -0.3204 -0.0074
 2594TIP3    H129341   2.288   2.914   6.926 -1.5051 -0.3626 -1.2024
 2594TIP3    H229342   2.278   3.063   6.898  1.0291  0.1745  0.4493
 2595TIP3   OH229343   6.614   1.260   1.026  0.2208  0.4150 -0.0725
 2595TIP3    H129344   6.627   1.222   0.940  0.1739 -0.1372  0.1608
 2595TIP3    H229345   6.626   1.187   1.087  0.2735  0.8005  0.3886
 2596TIP3   OH229346   0.929   1.302   6.487 -0.8434  0.0295 -0.4406
 2596TIP3    H129347   0.990   1.243   6.533  0.5884  2.2277  0.6836
 2596TIP3    H229348   0.939   1.386   6.533 -1.9086  1.4575 -2.6759
 2597TIP3   OH229349   1.930   1.828   8.660 -0.0994 -0.3836  0.1392
 2597TIP3    H129350   1.918   1.923   8.664 -3.0184 -0.6965  0.8116
 2597TIP3    H229351   1.847   1.792   8.689  1.6178 -3.2078  2.0247
 2598TIP3   OH229352   5.129   2.390   8.457 -0.1266 -0.9884 -0.1641
 2598TIP3    H129353   5.055   2.351   8.505 -1.2350  0.9129 -0.2590
 2598TIP3    H229354   5.104   2.385   8.365 -0.4379  0.2288 -0.1543
 2599TIP3   OH229355   3.458   6.514   1.292  0.7687  0.2856  0.0200
 2599TIP3    H129356   3.550   6.532   1.313  1.1131 -2.0196  0.7295
 2599TIP3    H229357   3.461   6.458   1.214  0.1931 -2.2019  1.6705
 2600TIP3   OH229358   0.174   1.602   8.566 -0.4294  0.0641 -0.0182
 2600TIP3    H129359   0.164   1.522   8.618  0.5029 -0.1401 -0.1231
 2600TIP3    H229360   0.174   1.571   8.475  1.2657 -0.0107 -0.0276
 2601TIP3   OH229361   6.725   4.453   1.556 -0.2852  0.3035  0.7182
 2601TIP3    H129362   6.817   4.481   1.552 -1.0168  2.9467  0.6606
 2601TIP3    H229363   6.678   4.518   1.504 -2.2834 -0.6774  1.2104
 2602TIP3   OH229364   5.084   5.002   7.336 -0.2398 -0.4111 -0.3392
 2602TIP3    H129365   5.109   5.062   7.406 -0.9106 -1.2468  0.6601
 2602TIP3    H229366   5.000   5.035   7.305 -0.1493 -0.2808 -0.4406
 2603TIP3   OH229367   2.836   5.218   0.477  0.4367 -1.1080  0.0291
 2603TIP3    H129368   2.906   5.176   0.528  0.6216 -0.4846  0.3004
 2603TIP3    H229369   2.769   5.240   0.542  1.1724  0.7346  0.2231
 2604TIP3   OH229370   4.104   5.540   0.143  0.4022  0.1558 -0.1266
 2604TIP3    H129371   4.030   5.574   0.194  1.2202  2.5150 -0.4034
 2604TIP3    H229372   4.063   5.488   0.074 -0.8359 -0.9187  1.3280
 2605TIP3   OH229373   5.284   0.890   0.197 -0.0480 -0.0421 -0.3158
 2605TIP3    H129374   5.212   0.953   0.187  0.1536  0.0126 -1.5731
 2605TIP3    H229375   5.257   0.836   0.271 -0.7092  0.8754  0.1413
 2606TIP3   OH229376   0.436   6.218   2.424  0.2964 -0.0165  0.0543
 2606TIP3    H129377   0.403   6.156   2.359  0.9796 -0.3207 -0.0172
 2606TIP3    H229378   0.531   6.209   2.418  0.3911  0.7949  0.2865
 2607TIP3   OH229379   4.940   2.257   8.598  0.2098 -0.3673  0.0452
 2607TIP3    H129380   4.850   2.288   8.606  1.0608  2.6682 -0.6911
 2607TIP3    H229381   4.953   2.199   8.673 -2.3344 -0.9576  0.1192
 2608TIP3   OH229382   4.042   2.922   0.598 -0.1809 -0.1392  0.1268
 2608TIP3    H129383   4.033   2.912   0.692 -0.3688  2.1720  0.4169
 2608TIP3    H229384   4.132   2.894   0.579 -0.2552 -0.9373  0.9258
 2609TIP3   OH229385   4.102   6.341   8.428 -0.3779  0.0224 -0.4718
 2609TIP3    H129386   4.095   6.396   8.350 -0.0431  1.9132  0.7730
 2609TIP3    H229387   4.084   6.401   8.501 -0.1068 -1.5588  0.9439
 2610TIP3   OH229388   0.022   4.195   0.873 -0.3921  0.3210 -0.1989
 2610TIP3    H129389   0.027   4.101   0.891 -1.5659  0.1043 -0.8982
 2610TIP3    H229390   0.100   4.232   0.915  2.4555 -1.4818 -3.3497
 2611TIP3   OH229391   0.062   4.679   7.621  0.2710  0.0853 -0.4543
 2611TIP3    H129392  -0.017   4.639   7.657  1.0776  0.7773  2.3392
 2611TIP3    H229393   0.103   4.608   7.571 -2.1645 -0.2073 -2.2045
 2612TIP3   OH229394   1.088   5.778   0.908 -0.4994 -0.1324 -0.8527
 2612TIP3    H129395   1.177   5.770   0.873  0.2493  0.7022  0.7316
 2612TIP3    H229396   1.062   5.688   0.928 -0.2032 -0.4251 -1.7307
 2613TIP3   OH229397   2.269   4.442   7.842 -0.0850 -0.2331  0.1752
 2613TIP3    H129398   2.274   4.347   7.843 -0.9494 -0.2855 -0.2767
 2613TIP3    H229399   2.337   4.469   7.780 -0.4964 -0.5996 -0.4432
 2614TIP3   OH229400   3.680   2.372   7.439 -0.4329  0.7393 -0.6798
 2614TIP3    H129401   3.589   2.376   7.468 -0.5899  3.0257 -1.2919
 2614TIP3    H229402   3.675   2.343   7.348 -0.6030  1.2330 -0.8335
 2615TIP3   OH229403   2.399   2.706   0.921 -0.5698  0.3892  0.0176
 2615TIP3    H129404   2.450   2.781   0.952 -0.4923  0.1929  0.3724
 2615TIP3    H229405   2.360   2.736   0.839  0.6405  0.3331 -0.6024
 2616TIP3   OH229406   6.055   4.735   1.085  0.1603 -0.6343  0.8108
 2616TIP3    H129407   6.011   4.800   1.139 -0.7987 -1.3380  0.9163
 2616TIP3    H229408   6.020   4.651   1.115 -0.3385 -1.0541 -0.8148
 2617TIP3   OH229409   2.474   4.504   6.465  0.1486 -0.4508  0.0437
 2617TIP3    H129410   2.549   4.554   6.497 -2.1450  0.9529  3.8605
 2617TIP3    H229411   2.503   4.412   6.470  2.0714  0.1066 -0.0890
 2618TIP3   OH229412   2.145   2.172   8.758 -0.1538  0.0602  0.1675
 2618TIP3    H129413   2.177   2.123   8.833 -0.0467 -0.5911 -0.2970
 2618TIP3    H229414   2.225   2.199   8.711 -0.2458 -0.5457 -0.3482
 2619TIP3   OH229415   0.856   2.835   0.810 -0.0028  0.0102 -0.4280
 2619TIP3    H129416   0.820   2.924   0.809 -1.3693 -0.4726 -3.0275
 2619TIP3    H229417   0.874   2.815   0.718 -0.6107 -2.7354 -0.0518
 2620TIP3   OH229418   3.714   0.991   7.529 -0.1018 -0.2513  0.1837
 2620TIP3    H129419   3.648   1.016   7.465  1.6687  0.5325 -1.4124
 2620TIP3    H229420   3.748   1.073   7.563  0.4810 -0.6215  0.5212
 2621TIP3   OH229421   1.194   0.516   8.385 -0.0638 -0.2975  0.0187
 2621TIP3    H129422   1.148   0.455   8.443 -1.9489 -1.2648 -2.3528
 2621TIP3    H229423   1.164   0.602   8.413 -3.8050 -0.8932 -1.5951
 2622TIP3   OH229424   6.366   2.079   7.553 -0.2847 -0.6821 -0.1081
 2622TIP3    H129425   6.388   2.166   7.585  0.2023 -0.9618  0.3332
 2622TIP3    H229426   6.292   2.052   7.606 -0.5478 -0.4737 -0.3625
 2623TIP3   OH229427   3.151   4.067   1.479 -0.5693  0.1286  0.0405
 2623TIP3    H129428   3.193   4.105   1.402 -0.0336 -0.7205 -0.0955
 2623TIP3    H229429   3.224   4.039   1.535 -0.9238 -1.8490 -0.4397
 2624TIP3   OH229430   6.002   3.489   8.340  0.3674 -0.0302 -0.6726
 2624TIP3    H129431   6.065   3.513   8.271  0.0412 -0.8451 -1.2620
 2624TIP3    H229432   5.961   3.572   8.364  1.5950  0.5081 -0.3387
 2625TIP3   OH229433   6.596   2.315   8.521 -0.1363  0.0687  0.3936
 2625TIP3    H129434   6.532   2.245   8.510  0.4930 -0.3851 -0.5809
 2625TIP3    H229435   6.613   2.318   8.615 -0.7167 -0.5883  0.5290
 2626TIP3   OH229436   3.715   5.789   8.060  0.1035 -0.3699  0.4585
 2626TIP3    H129437   3.673   5.852   8.120 -1.3993 -0.2008 -0.6906
 2626TIP3    H229438   3.742   5.717   8.116 -2.8845 -1.0614  1.1873
 2627TIP3   OH229439   0.969   2.274   1.599  0.1165  0.3384 -0.2387
 2627TIP3    H129440   0.943   2.346   1.542  0.9462  0.2842 -0.6991
 2627TIP3    H229441   0.960   2.309   1.688  0.7834  1.1076 -0.4680
 2628TIP3   OH229442   3.174   1.767   0.084  0.3778  0.6357 -0.8543
 2628TIP3    H129443   3.100   1.806   0.131 -0.9140 -0.6913 -1.6921
 2628TIP3    H229444   3.149   1.771  -0.008  0.8995 -0.7093 -1.0837
 2629TIP3   OH229445   4.714   0.052   0.175  0.1648 -0.3632  0.0810
 2629TIP3    H129446   4.791   0.033   0.228  0.6641  0.1513 -0.4420
 2629TIP3    H229447   4.642   0.012   0.223  0.5699  0.2574  1.2549
 2630TIP3   OH229448   5.810   6.038   0.714 -0.4030 -0.3554  0.3656
 2630TIP3    H129449   5.883   5.976   0.703 -0.5986 -0.2964 -1.6774
 2630TIP3    H229450   5.743   6.007   0.654 -2.7365 -1.2364  3.1903
 2631TIP3   OH229451   5.153   5.816   0.972 -0.4793 -0.1582 -0.4752
 2631TIP3    H129452   5.072   5.865   0.963 -2.4240 -2.4228  2.5807
 2631TIP3    H229453   5.170   5.815   1.066  2.1880 -1.1735 -0.8914
 2632TIP3   OH229454   5.351   4.851   7.354  0.3174  0.0430  0.5249
 2632TIP3    H129455   5.356   4.816   7.444  0.0155 -0.0306  0.5128
 2632TIP3    H229456   5.271   4.902   7.353  0.3490  0.0860  0.3090
 2633TIP3   OH229457   6.102   3.907   1.324 -0.1139 -0.3370  0.1192
 2633TIP3    H129458   6.040   3.848   1.282 -0.3955  0.5945 -0.8125
 2633TIP3    H229459   6.047   3.976   1.361  0.2738 -0.2445  0.5266
 2634TIP3   OH229460   1.812   0.350   2.065  0.5980  0.2382  0.3367
 2634TIP3    H129461   1.891   0.399   2.086  0.1941  0.1046  2.2849
 2634TIP3    H229462   1.819   0.270   2.117 -0.8639  0.2794  0.6337
 2635TIP3   OH229463   6.039   6.490   7.333 -0.0947  0.0065 -0.1669
 2635TIP3    H129464   6.001   6.468   7.248  1.2460  0.3336 -0.8753
 2635TIP3    H229465   5.967   6.532   7.381 -0.5264  1.0132 -1.6158
 2636TIP3   OH229466   4.061   5.234   0.508 -0.2920 -0.7388  0.1176
 2636TIP3    H129467   4.103   5.320   0.515 -1.9947  0.0911  0.9098
 2636TIP3    H229468   4.105   5.180   0.573  0.7582 -0.4477 -0.3390
 2637TIP3   OH229469   2.121   6.205   8.766 -0.8580 -0.4643 -0.4368
 2637TIP3    H129470   2.097   6.270   8.701  0.6274  1.4746  0.8517
 2637TIP3    H229471   2.204   6.168   8.735 -0.7877 -0.4516 -0.2653
 2638TIP3   OH229472   4.122   1.313   7.757  0.4409  0.5274 -0.1789
 2638TIP3    H129473   4.097   1.360   7.837 -3.1956 -0.7706 -0.3508
 2638TIP3    H229474   4.076   1.359   7.687 -0.8816 -1.4900 -0.7173
 2639TIP3   OH229475   3.125   0.213   0.664 -0.1012 -0.3314  0.6494
 2639TIP3    H129476   3.036   0.192   0.633 -0.4507  1.7689  0.1107
 2639TIP3    H229477   3.121   0.202   0.759 -1.2521  0.7267  0.7479
 2640TIP3   OH229478   4.565   0.170   8.367 -0.8143  0.8051 -0.1017
 2640TIP3    H129479   4.648   0.181   8.414 -0.3668  0.6714 -0.8371
 2640TIP3    H229480   4.499   0.166   8.435 -0.2100  0.9114  0.5009
 2641TIP3   OH229481   6.769   5.816   7.759  0.4018  0.9509  0.8665
 2641TIP3    H129482   6.782   5.753   7.687 -1.9775  0.3471  0.8905
 2641TIP3    H229483   6.717   5.886   7.720  1.8605  2.2720  1.2107
 2642TIP3   OH229484   2.450   0.035   0.480 -0.1609 -0.4729 -0.2851
 2642TIP3    H129485   2.430  -0.047   0.435 -1.0530  0.0851 -0.9450
 2642TIP3    H229486   2.470   0.097   0.409  2.2337 -0.5257  0.2655
 2643TIP3   OH229487   5.974   1.914   8.636  0.2715 -0.2107 -0.1786
 2643TIP3    H129488   5.879   1.912   8.646  0.2723  0.5003  0.0609
 2643TIP3    H229489   5.999   2.002   8.665  1.2924 -1.2941  2.5520
 2644TIP3   OH229490   5.784   4.478   2.335  0.4337 -0.0858  0.7287
 2644TIP3    H129491   5.871   4.462   2.298  0.1273 -0.3858  0.1216
 2644TIP3    H229492   5.801   4.513   2.422  1.1696  0.2817  0.4436
 2645TIP3   OH229493   6.042   2.968   8.224  0.1891 -0.0098 -0.0496
 2645TIP3    H129494   5.950   2.995   8.224 -0.0431 -0.7703 -0.4251
 2645TIP3    H229495   6.082   3.019   8.294 -1.0554 -1.4283  1.7605
 2646TIP3   OH229496   3.699   2.569   1.825 -0.6991 -0.6332 -0.3682
 2646TIP3    H129497   3.769   2.534   1.769 -0.0606  1.6179 -1.0682
 2646TIP3    H229498   3.740   2.581   1.911 -0.9186 -1.4867 -0.1267
 2647TIP3   OH229499   3.987   1.994   6.876 -0.0751 -0.0405  0.1776
 2647TIP3    H129500   3.989   1.900   6.891 -1.2490  0.0730  1.1465
 2647TIP3    H229501   3.911   2.008   6.820 -0.6322  0.4609  1.0506
 2648TIP3   OH229502   5.909   2.127   2.360  0.3704  0.3811  0.7846
 2648TIP3    H129503   5.899   2.222   2.370  0.1577  0.4000  0.4442
 2648TIP3    H229504   5.980   2.103   2.419  1.5177  1.0007 -0.2941
 2649TIP3   OH229505   2.424   0.451   8.310 -0.4624 -0.1590  0.9343
 2649TIP3    H129506   2.435   0.524   8.249  2.1193 -0.2289  1.1915
 2649TIP3    H229507   2.336   0.418   8.292 -0.0076  0.0614 -2.5489
 2650TIP3   OH229508   2.858   2.267   1.095 -0.0259  0.0520  0.1282
 2650TIP3    H129509   2.875   2.204   1.165  0.0182 -0.2922 -0.1922
 2650TIP3    H229510   2.804   2.335   1.137 -3.7378 -2.2356 -0.4681
 2651TIP3   OH229511   6.796   1.387   0.526 -0.2931 -0.2807 -0.0627
 2651TIP3    H129512   6.852   1.461   0.547 -0.1885  0.0459 -1.4054
 2651TIP3    H229513   6.709   1.413   0.557 -0.9824  1.8459 -3.2506
 2652TIP3   OH229514   2.795   4.976   6.817 -0.0387 -0.2441  0.3649
 2652TIP3    H129515   2.809   4.919   6.741 -0.7918  0.3306 -0.2200
 2652TIP3    H229516   2.732   4.929   6.871  0.9458 -0.9315  0.9590
 2653TIP3   OH229517   1.580   1.947   2.283  0.0174  0.0429  0.2308
 2653TIP3    H129518   1.492   1.979   2.265 -0.2025  0.0899  1.3137
 2653TIP3    H229519   1.577   1.854   2.263  0.3160  0.4287 -1.7513
 2654TIP3   OH229520   4.555   6.639   0.679 -0.6098 -0.6419 -0.2146
 2654TIP3    H129521   4.491   6.576   0.646  0.1137 -0.2504 -2.5727
 2654TIP3    H229522   4.516   6.725   0.661  0.4139 -0.4001 -1.5254
 2655TIP3   OH229523   4.871   0.264   7.171 -0.0501 -0.1628  0.0048
 2655TIP3    H129524   4.876   0.357   7.150 -0.1642 -0.4862 -1.5808
 2655TIP3    H229525   4.809   0.259   7.244 -1.2085  0.8808 -0.8636
 2656TIP3   OH229526   1.484   1.351   0.089  0.2375 -0.0868  0.4401
 2656TIP3    H129527   1.448   1.423   0.037 -1.9724 -2.0407 -0.9093
 2656TIP3    H229528   1.412   1.323   0.145  0.0328 -3.0037 -1.0911
 2657TIP3   OH229529   4.734   1.826   2.058 -0.6288  0.1499 -0.2263
 2657TIP3    H129530   4.761   1.786   1.976 -1.3118  1.6062 -1.2104
 2657TIP3    H229531   4.731   1.754   2.121  1.7686 -0.6929 -0.9805
 2658TIP3   OH229532   4.786   1.576   1.025  0.1037  0.3900  0.1688
 2658TIP3    H129533   4.783   1.500   1.083  0.7209  0.3327  0.1241
 2658TIP3    H229534   4.764   1.650   1.082  2.1577  0.5401  0.8322
 2659TIP3   OH229535   3.863   2.605   8.555 -0.6853  0.1142 -0.0081
 2659TIP3    H129536   3.846   2.575   8.466 -2.1899  0.6267  0.0792
 2659TIP3    H229537   3.794   2.564   8.607  0.2650 -0.2951  0.9674
 2660TIP3   OH229538   3.608   4.507   2.223  0.6489  0.5499 -0.3575
 2660TIP3    H129539   3.680   4.534   2.279  2.0860  0.8315 -2.2431
 2660TIP3    H229540   3.535   4.564   2.248  0.7271 -0.3275  2.1884
 2661TIP3   OH229541   5.173   4.168   0.217 -0.1111  0.7694 -0.3310
 2661TIP3    H129542   5.114   4.177   0.293  1.3235  1.4624  0.7450
 2661TIP3    H229543   5.126   4.212   0.146 -0.3961  2.4368  0.8171
 2662TIP3   OH229544   1.449   0.950   0.328 -0.9122  0.4724 -0.2080
 2662TIP3    H129545   1.424   0.967   0.419 -0.8079  0.3138 -0.1502
 2662TIP3    H229546   1.440   0.856   0.318 -1.3182  0.5399 -0.4809
 2663TIP3   OH229547   1.500   0.582   0.858 -0.4280  0.2981 -0.2242
 2663TIP3    H129548   1.433   0.543   0.915  1.4976 -0.5238  1.6303
 2663TIP3    H229549   1.491   0.676   0.872  1.2678  0.1050  3.2370
 2664TIP3   OH229550   0.083   3.570   1.604  0.0709 -0.5157 -0.6116
 2664TIP3    H129551   0.178   3.583   1.606 -0.0586  0.4841 -0.8437
 2664TIP3    H229552   0.051   3.634   1.541 -0.8882 -0.0043  0.3567
 2665TIP3   OH229553   0.638   0.842   1.838 -0.1303  0.2125  0.3424
 2665TIP3    H129554   0.598   0.898   1.904  0.1025  1.1420 -0.2969
 2665TIP3    H229555   0.711   0.799   1.883 -1.2635 -0.8236  1.2721
 2666TIP3   OH229556   6.553   2.119   0.427  0.1885  0.2932 -0.4213
 2666TIP3    H129557   6.522   2.032   0.451 -0.6384  0.7589  0.2609
 2666TIP3    H229558   6.540   2.125   0.333 -2.1951  0.6056 -0.1127
 2667TIP3   OH229559   4.053   6.756   8.551 -0.3997  0.1804  0.0182
 2667TIP3    H129560   4.046   6.760   8.456 -0.4333 -0.2003  0.0036
 2667TIP3    H229561   3.978   6.806   8.583 -0.3124  0.4221 -0.1539
 2668TIP3   OH229562   1.504   4.502   8.665  0.8223  0.3094  0.0743
 2668TIP3    H129563   1.467   4.424   8.623  0.3114  0.8473 -0.4912
 2668TIP3    H229564   1.458   4.509   8.748  1.3376 -0.3636  0.4202
 2669TIP3   OH229565   0.648   4.921   0.131 -0.1176 -0.2057  0.0345
 2669TIP3    H129566   0.618   4.939   0.042  2.8800  1.3052 -0.8104
 2669TIP3    H229567   0.690   4.836   0.126 -0.6579 -0.4870  0.2218
 2670TIP3   OH229568   1.331   2.761   2.371 -0.1524  0.0039 -0.4381
 2670TIP3    H129569   1.348   2.768   2.465 -0.1120  0.2174 -0.4613
 2670TIP3    H229570   1.240   2.788   2.361  0.0524  0.6502 -0.5481
 2671TIP3   OH229571   1.029   6.023   7.653 -0.4286  0.3058 -0.0467
 2671TIP3    H129572   1.010   5.951   7.713 -0.0984 -0.1454 -0.4742
 2671TIP3    H229573   0.943   6.051   7.622 -0.5414 -0.1924 -0.2027
 2672TIP3   OH229574   6.415   6.365   1.668  0.0735 -0.0732 -0.2920
 2672TIP3    H129575   6.385   6.345   1.756 -2.0066 -3.4905 -1.5909
 2672TIP3    H229576   6.494   6.312   1.656  0.1966  0.1701 -0.6060
 2673TIP3   OH229577   1.202   5.221   7.405  0.4321 -0.1131 -0.1263
 2673TIP3    H129578   1.223   5.144   7.353 -2.1741 -0.5710 -0.6440
 2673TIP3    H229579   1.196   5.189   7.495  1.5710 -0.0255 -0.0113
 2674TIP3   OH229580   0.768   0.353   0.475  0.0129 -0.4419 -0.6666
 2674TIP3    H129581   0.692   0.318   0.523  0.6934 -0.0615  0.7545
 2674TIP3    H229582   0.745   0.445   0.460  0.1324 -0.3531 -0.3280
 2675TIP3   OH229583   3.685   3.022   7.144 -0.1295  0.1539  0.4526
 2675TIP3    H129584   3.627   3.049   7.215  0.2821 -0.4437  1.0318
 2675TIP3    H229585   3.693   3.100   7.088 -1.5017  0.2396  0.3344
 2676TIP3   OH229586   5.549   0.011   0.471 -0.1694 -0.1207  0.0612
 2676TIP3    H129587   5.485   0.064   0.423  1.0305  1.9134  0.5858
 2676TIP3    H229588   5.560   0.057   0.555  2.0682 -0.2701 -0.0852
 2677TIP3   OH229589   1.481   6.489   7.415  0.3311  0.2644 -0.1678
 2677TIP3    H129590   1.481   6.411   7.471  0.7883 -0.7648 -1.5435
 2677TIP3    H229591   1.439   6.557   7.469 -0.6894 -1.0942  0.8295
 2678TIP3   OH229592   0.452   0.189   1.282 -0.1281  0.7373 -0.4260
 2678TIP3    H129593   0.529   0.197   1.337 -0.4807  1.0047  0.0400
 2678TIP3    H229594   0.475   0.124   1.216  0.2129  0.2453  0.1786
 2679TIP3   OH229595   0.469   1.922   8.742  0.3662  0.0704 -0.6387
 2679TIP3    H129596   0.532   1.861   8.780 -1.6793 -2.3328 -0.7926
 2679TIP3    H229597   0.444   1.882   8.659 -2.0529  0.3631 -0.1290
 2680TIP3   OH229598   2.199   1.485   8.215  0.2085  0.4320  0.6042
 2680TIP3    H129599   2.269   1.547   8.233  0.7102  0.6843 -1.7936
 2680TIP3    H229600   2.129   1.538   8.177 -0.0351 -0.2013  0.1334
 2681TIP3   OH229601   5.573   0.130   8.219 -0.7090 -0.3012 -0.2476
 2681TIP3    H129602   5.596   0.170   8.303 -0.2942 -2.1551  0.5576
 2681TIP3    H229603   5.509   0.063   8.241 -0.8326 -0.6020 -1.4638
 2682TIP3   OH229604   2.094   1.099   8.735  0.0972  0.1157 -0.2494
 2682TIP3    H129605   2.078   1.191   8.716 -0.8892 -0.2346 -1.2650
 2682TIP3    H229606   2.039   1.052   8.672 -1.1619 -1.1574  1.6732
 2683TIP3   OH229607   3.520   5.373   8.714 -0.1620 -0.6898  0.2635
 2683TIP3    H129608   3.443   5.427   8.734  0.2674  0.6238 -1.3852
 2683TIP3    H229609   3.591   5.413   8.765  0.6345  1.8173 -2.4956
 2684TIP3   OH229610   6.220   2.862   8.067 -0.1023  0.1882  0.4036
 2684TIP3    H129611   6.167   2.875   8.146  1.4551 -0.2424  1.5736
 2684TIP3    H229612   6.275   2.940   8.062  1.0139 -0.5483  0.7622
 2685TIP3   OH229613   3.558   3.229   0.124 -0.2611 -0.6952 -0.2533
 2685TIP3    H129614   3.492   3.194   0.064  0.6713 -0.3317 -1.5207
 2685TIP3    H229615   3.527   3.318   0.144 -0.8770 -1.0242  0.2880
 2686TIP3   OH229616   2.627   1.208   0.164 -0.0597  0.5787  0.3385
 2686TIP3    H129617   2.722   1.194   0.167 -0.2181 -0.9755 -0.5173
 2686TIP3    H229618   2.616   1.294   0.124  0.9766  0.6488  0.1845
 2687TIP3   OH229619   4.409   1.748   0.871  0.7998  0.6256  0.2472
 2687TIP3    H129620   4.465   1.821   0.844  1.0377  0.8361  1.2714
 2687TIP3    H229621   4.421   1.742   0.966  1.8766 -1.6448  0.0491
 2688TIP3   OH229622   1.488   6.762   0.466 -0.2365  0.5897  0.2567
 2688TIP3    H129623   1.566   6.804   0.430 -0.2048  1.4572  1.2762
 2688TIP3    H229624   1.508   6.669   0.462  0.3558  0.7368 -0.6000
 2689TIP3   OH229625   3.917   6.146   1.103 -0.0576 -0.3218  0.7254
 2689TIP3    H129626   3.854   6.154   1.174 -0.5679 -0.9004  0.3407
 2689TIP3    H229627   3.936   6.053   1.097  0.3272 -0.2272  0.3962
 2690TIP3   OH229628   0.525   5.949   0.687  0.0455  0.3502 -0.5000
 2690TIP3    H129629   0.492   5.882   0.627 -3.2904  0.7838  0.6724
 2690TIP3    H229630   0.576   5.899   0.752  0.4042 -0.6072 -1.4883
 2691TIP3   OH229631   2.656   1.431   8.477 -1.0550  0.3056 -0.6027
 2691TIP3    H129632   2.639   1.359   8.538  0.2816  0.4140 -0.0451
 2691TIP3    H229633   2.580   1.488   8.484 -0.6776  0.6487  1.4946
 2692TIP3   OH229634   1.595   2.292   1.003  1.2142  0.2871 -0.0082
 2692TIP3    H129635   1.524   2.253   1.054  1.9653  0.1191  0.9329
 2692TIP3    H229636   1.569   2.278   0.912  0.0887  0.1499  0.3167
 2693TIP3   OH229637   1.472   4.991   7.518 -0.7149  0.4267  0.1405
 2693TIP3    H129638   1.494   5.013   7.428 -1.0628  3.7727  0.7397
 2693TIP3    H229639   1.378   4.973   7.515 -0.6557  0.1686 -0.2191
 2694TIP3   OH229640   5.233   3.798   0.629 -0.4685 -0.0117  0.3166
 2694TIP3    H129641   5.240   3.857   0.554  0.4375  0.0196  0.4132
 2694TIP3    H229642   5.152   3.824   0.673  0.4443  1.8977  0.9828
 2695TIP3   OH229643   5.900   5.120   0.991 -0.3986 -0.5761  0.1915
 2695TIP3    H129644   5.877   5.056   0.924  0.1890 -0.5802 -0.0162
 2695TIP3    H229645   5.927   5.067   1.066  0.5178 -0.5941 -0.1296
 2696TIP3   OH229646   4.602   1.871   7.228  0.2761 -0.1519 -0.1211
 2696TIP3    H129647   4.623   1.779   7.210 -1.1140 -0.4975 -0.1439
 2696TIP3    H229648   4.516   1.883   7.187  0.4868  1.1884 -0.1835
 2697TIP3   OH229649   2.890   1.721   7.148 -0.6091  0.6237 -0.1996
 2697TIP3    H129650   2.932   1.807   7.153 -0.1169  0.3479  0.4957
 2697TIP3    H229651   2.943   1.671   7.087 -0.9033  0.8109 -0.6147
 2698TIP3   OH229652   3.684   1.326   7.553 -0.4193 -0.0467 -0.5192
 2698TIP3    H129653   3.657   1.415   7.529 -1.6054 -0.6000 -1.3502
 2698TIP3    H229654   3.611   1.271   7.524 -1.5380 -0.9412  3.4254
 2699TIP3   OH229655   5.146   0.766   1.161  0.3559 -0.2217 -0.4128
 2699TIP3    H129656   5.214   0.726   1.107  0.9992  1.9913 -1.3711
 2699TIP3    H229657   5.190   0.785   1.244 -0.0636 -1.7783  0.1947
 2700TIP3   OH229658   4.133   2.470   2.475  0.2665 -0.2063  0.3734
 2700TIP3    H129659   4.090   2.386   2.458  2.3704 -1.1593 -0.6582
 2700TIP3    H229660   4.120   2.520   2.394 -0.4382  0.2241  0.7475
 2701TIP3   OH229661   3.255   5.562   8.655  0.1154 -0.0245 -0.3065
 2701TIP3    H129662   3.298   5.623   8.595  1.0871 -0.5365 -0.1540
 2701TIP3    H229663   3.237   5.614   8.733 -0.6669  0.5049 -0.8240
 2702TIP3   OH229664   6.755   3.598   0.856 -0.0152 -0.5338 -0.1005
 2702TIP3    H129665   6.793   3.663   0.796 -0.2019 -1.5878 -1.4291
 2702TIP3    H229666   6.828   3.538   0.875 -0.0341 -0.3658  0.5017
 2703TIP3   OH229667   3.747   3.475   0.688  0.3171 -0.2071  0.8890
 2703TIP3    H129668   3.729   3.461   0.595 -0.1873  2.2417  0.5517
 2703TIP3    H229669   3.838   3.503   0.691  0.0365  0.7280  0.9876
 2704TIP3   OH229670   5.307   6.014   8.023  0.5204  0.1262 -0.2188
 2704TIP3    H129671   5.319   5.952   8.096  1.0333 -0.3235 -0.6717
 2704TIP3    H229672   5.343   5.968   7.947  1.0605  1.0449 -0.5375
 2705TIP3   OH229673   4.072   3.723   0.466  0.4937 -0.7538  0.2811
 2705TIP3    H129674   4.160   3.758   0.481 -0.4564  1.8155  0.4150
 2705TIP3    H229675   4.016   3.801   0.463 -1.4585 -2.1066 -2.1908
 2706TIP3   OH229676   2.803   2.199   2.055 -0.3297 -0.5020 -0.8449
 2706TIP3    H129677   2.773   2.110   2.037  1.8233 -1.2170 -1.1991
 2706TIP3    H229678   2.854   2.191   2.136  0.3565  0.2856 -1.1830
 2707TIP3   OH229679   3.424   1.927   7.308 -0.8447  0.1960 -0.0427
 2707TIP3    H129680   3.452   2.017   7.326 -0.3166  0.1228 -0.4549
 2707TIP3    H229681   3.505   1.876   7.309 -1.0283 -0.1247 -0.6750
 2708TIP3   OH229682   4.179   3.692   8.249  0.0545 -0.2408  0.0828
 2708TIP3    H129683   4.168   3.597   8.241 -1.0413 -0.0491 -1.0421
 2708TIP3    H229684   4.093   3.727   8.225  0.3749  1.0293  0.7396
 2709TIP3   OH229685   0.984   4.256   2.211  1.0272  0.7167 -0.2804
 2709TIP3    H129686   1.032   4.221   2.287 -0.8499 -0.2346  0.5320
 2709TIP3    H229687   0.892   4.238   2.230  0.4600  0.8069 -2.6347
 2710TIP3   OH229688   6.115   5.981   1.307  0.3177  0.0755 -0.4880
 2710TIP3    H129689   6.171   5.911   1.341  0.0068  0.0554 -0.0192
 2710TIP3    H229690   6.177   6.049   1.278  0.6322 -0.4709 -1.1417
 2711TIP3   OH229691   0.668   6.482   0.162  0.0492  0.3974 -0.3565
 2711TIP3    H129692   0.625   6.487   0.076 -0.3567  1.4004 -0.1061
 2711TIP3    H229693   0.608   6.527   0.222 -0.0907 -1.0541  0.6430
 2712TIP3   OH229694   2.467   2.287   0.487  0.6338 -0.0377 -0.1894
 2712TIP3    H129695   2.411   2.314   0.560  0.4367 -2.7190  0.7522
 2712TIP3    H229696   2.546   2.340   0.497  0.3328  0.1534  1.5664
 2713TIP3   OH229697   2.775   1.157   1.457  0.0969 -0.1303 -0.1628
 2713TIP3    H129698   2.856   1.108   1.442 -0.3598 -1.1323  0.5506
 2713TIP3    H229699   2.779   1.182   1.549 -0.1681  0.2887 -0.2604
 2714TIP3   OH229700   6.049   1.575   6.350  0.2218 -0.1901 -0.1053
 2714TIP3    H129701   6.045   1.576   6.446 -1.9597 -0.5640 -0.1350
 2714TIP3    H229702   6.031   1.665   6.324 -2.4334 -0.6322 -0.1332
 2715TIP3   OH229703   6.235   2.046   8.276 -0.3810 -0.1667  0.7377
 2715TIP3    H129704   6.276   2.057   8.362  0.4535  0.5454  0.2674
 2715TIP3    H229705   6.256   2.127   8.230  1.0616 -1.3966 -0.8866
 2716TIP3   OH229706   2.702   6.768   7.287  0.2405  0.1723 -0.2371
 2716TIP3    H129707   2.783   6.811   7.258  1.0457  0.8869  2.6934
 2716TIP3    H229708   2.632   6.823   7.252  0.9700 -0.1251 -2.3361
 2717TIP3   OH229709   2.883   1.612   0.485  0.5200  0.2012 -0.5711
 2717TIP3    H129710   2.806   1.662   0.461 -0.2977 -1.0687 -0.6787
 2717TIP3    H229711   2.865   1.582   0.574  0.7861 -0.3036 -0.6851
 2718TIP3   OH229712   1.773   2.116   1.760  0.2935  0.0051  0.1567
 2718TIP3    H129713   1.810   2.204   1.751  0.1891  0.0986  0.5956
 2718TIP3    H229714   1.849   2.057   1.757  0.2061 -0.0632 -2.1942
 2719TIP3   OH229715   2.205   5.853   8.422 -0.2673  0.2093 -0.7343
 2719TIP3    H129716   2.158   5.775   8.451 -0.9972 -0.0428 -2.4909
 2719TIP3    H229717   2.268   5.870   8.493 -1.4796 -0.7326  0.6395
 2720TIP3   OH229718   5.422   1.033   1.828  0.2828  0.3082 -0.2702
 2720TIP3    H129719   5.336   0.995   1.845  0.5608 -1.7015 -2.7812
 2720TIP3    H229720   5.465   1.035   1.914 -2.0082  0.8268  0.9265
 2721TIP3   OH229721   6.190   4.088   8.144  0.2702  0.0005 -0.3240
 2721TIP3    H129722   6.111   4.104   8.196  0.1000  1.0804 -0.8765
 2721TIP3    H229723   6.237   4.019   8.191 -0.8824 -0.4944  0.1363
 2722TIP3   OH229724   4.326   6.436   8.206  0.0554  0.1468 -0.8097
 2722TIP3    H129725   4.240   6.477   8.202 -0.1891 -0.4329 -1.8425
 2722TIP3    H229726   4.383   6.493   8.155  0.3830  0.7175  0.1618
 2723TIP3   OH229727   5.901   5.649   1.133 -0.0327  0.1426 -0.0613
 2723TIP3    H129728   5.880   5.566   1.091 -1.9672  0.8630 -0.6543
 2723TIP3    H229729   5.952   5.625   1.210 -0.9488 -1.6263  0.0382
 2724TIP3   OH229730   1.789   6.134   0.876 -0.1215  0.3710 -0.3746
 2724TIP3    H129731   1.874   6.110   0.841 -0.1963  1.5879 -1.4865
 2724TIP3    H229732   1.734   6.146   0.798 -1.0892  0.3846  0.2897
 2725TIP3   OH229733   0.598   4.464   0.809 -0.2563  0.3323  0.1376
 2725TIP3    H129734   0.613   4.555   0.781 -0.7865  0.1737 -0.7048
 2725TIP3    H229735   0.503   4.454   0.805 -0.1182 -0.6314 -0.9836
 2726TIP3   OH229736   3.400   0.530   6.594 -0.4674 -0.5737  0.0987
 2726TIP3    H129737   3.415   0.437   6.612  0.6189 -0.3757  0.2559
 2726TIP3    H229738   3.458   0.551   6.522 -0.3053  0.1106  0.4165
 2727TIP3   OH229739   1.897   1.084   1.623 -0.0434  0.4152  0.2993
 2727TIP3    H129740   1.878   1.004   1.573  1.7400  0.1129  0.0586
 2727TIP3    H229741   1.826   1.144   1.600 -1.2472 -0.9704  0.2365
 2728TIP3   OH229742   2.558   2.746   7.730 -0.6513 -0.0507 -0.1185
 2728TIP3    H129743   2.599   2.660   7.717  0.5947  0.4978  0.0447
 2728TIP3    H229744   2.521   2.767   7.644  0.1153 -0.2165 -0.5044
 2729TIP3   OH229745   5.552   2.922   0.959  0.4201 -0.5711 -1.0869
 2729TIP3    H129746   5.625   2.928   1.020 -0.1928 -0.9208 -0.3128
 2729TIP3    H229747   5.524   3.013   0.946 -0.4435 -0.5903  0.3995
 2730TIP3   OH229748   1.619   1.484   8.601 -0.0980  0.4128  0.1072
 2730TIP3    H129749   1.648   1.456   8.514  1.2091 -2.2740  1.2918
 2730TIP3    H229750   1.526   1.504   8.590 -0.1154 -0.4740 -1.7757
 2731TIP3   OH229751   1.538   1.962   0.611  0.1602  0.3550 -0.4187
 2731TIP3    H129752   1.587   2.037   0.643  1.0564  0.2019 -1.3684
 2731TIP3    H229753   1.499   1.993   0.529 -0.1563  0.0349 -0.3917
 2732TIP3   OH229754   6.759   5.261   0.580  0.6651  0.4736  0.5308
 2732TIP3    H129755   6.842   5.308   0.588  0.6610  0.6951 -0.5934
 2732TIP3    H229756   6.749   5.246   0.486 -0.5991  0.5019  0.6472
 2733TIP3   OH229757   5.054   5.619   7.038  0.4783  0.2243  0.6456
 2733TIP3    H129758   5.038   5.590   6.948 -0.4120  3.0959 -0.2349
 2733TIP3    H229759   5.135   5.575   7.063 -0.0523 -1.8157 -0.9910
 2734TIP3   OH229760   6.424   5.038   1.987 -0.7345  0.0539 -0.7176
 2734TIP3    H129761   6.406   5.121   2.030 -2.0908 -0.2263 -0.7068
 2734TIP3    H229762   6.484   5.059   1.916  0.0636  0.8093  0.1535
 2735TIP3   OH229763   3.910   2.311   2.541 -0.1693 -0.1087  0.2200
 2735TIP3    H129764   3.903   2.259   2.461 -0.4822 -0.5559  0.5341
 2735TIP3    H229765   3.838   2.374   2.535 -2.9206 -2.8102  2.0637
 2736TIP3   OH229766   3.552   2.098   7.711 -0.4360  0.2415 -0.5113
 2736TIP3    H129767   3.631   2.059   7.672 -0.3037 -2.0688  1.7748
 2736TIP3    H229768   3.584   2.174   7.759  0.0886  0.4529 -1.1855
 2737TIP3   OH229769   4.066   4.215   8.315  1.1149 -0.1676  0.1099
 2737TIP3    H129770   4.031   4.303   8.323  1.0179 -0.2861  1.1265
 2737TIP3    H229771   4.048   4.190   8.224 -0.4851  0.1642  0.3048
 2738TIP3   OH229772   3.143   0.685   8.386  1.0298  0.3078 -0.3750
 2738TIP3    H129773   3.216   0.656   8.442 -0.0338 -1.3683  0.2457
 2738TIP3    H229774   3.068   0.690   8.446  0.4299  1.0437 -1.1726
 2739TIP3   OH229775   2.018   3.173   2.121  0.4346  0.3001  0.8984
 2739TIP3    H129776   2.100   3.145   2.081  0.4079  2.3111 -0.6969
 2739TIP3    H229777   1.977   3.091   2.151  1.3005 -1.1796 -1.6202
 2740TIP3   OH229778   4.359   0.438   6.915 -0.0005  0.5537  0.0539
 2740TIP3    H129779   4.314   0.522   6.909  0.0973  0.4837 -2.9394
 2740TIP3    H229780   4.442   0.457   6.959 -1.0563  1.4604  1.7698
 2741TIP3   OH229781   3.052   4.553   8.583  0.1585  0.6076 -0.2240
 2741TIP3    H129782   3.083   4.552   8.492 -0.3046  0.9828 -0.3908
 2741TIP3    H229783   3.029   4.462   8.601  3.3703 -0.1780  0.6373
 2742TIP3   OH229784   6.097   5.001   7.231 -0.0054  0.1697  0.1526
 2742TIP3    H129785   6.185   4.975   7.260 -0.5631  0.5284  2.3464
 2742TIP3    H229786   6.111   5.080   7.179  1.3415 -2.1988 -3.4663
 2743TIP3   OH229787   0.399   2.682   8.143 -0.7467  0.0862 -0.2493
 2743TIP3    H129788   0.313   2.724   8.149 -1.3697 -0.4480 -3.6056
 2743TIP3    H229789   0.423   2.689   8.051  2.5756 -0.3522  0.4668
 2744TIP3   OH229790   4.253   0.476   6.464 -0.0615 -0.3256  0.1131
 2744TIP3    H129791   4.190   0.413   6.500  0.0297 -0.1439  0.5984
 2744TIP3    H229792   4.217   0.562   6.486 -0.2103 -0.2079 -0.5930
 2745TIP3   OH229793   3.005   2.297   6.382  0.8570 -0.4218 -0.0236
 2745TIP3    H129794   2.964   2.224   6.428 -0.3164  0.3547  0.2178
 2745TIP3    H229795   2.946   2.371   6.397  0.8026  0.0437 -2.1421
 2746TIP3   OH229796   2.031   5.455   1.215  0.5016  0.3938 -0.7591
 2746TIP3    H129797   2.074   5.369   1.216  0.4130  0.3509  0.9063
 2746TIP3    H229798   2.055   5.495   1.298 -0.3507  1.5513 -1.0509
 2747TIP3   OH229799   6.376   5.299   1.893 -0.9484  0.1394 -0.4795
 2747TIP3    H129800   6.438   5.359   1.936 -1.3720  0.8609 -0.8532
 2747TIP3    H229801   6.300   5.299   1.950 -0.4247 -1.1856  0.2754
 2748TIP3   OH229802   0.165   2.397   8.713 -0.3405  0.4554 -0.1411
 2748TIP3    H129803   0.109   2.321   8.727  0.8197 -0.1128  2.0218
 2748TIP3    H229804   0.184   2.397   8.620 -0.1752 -2.1106 -0.1799
 2749TIP3   OH229805   0.502   0.737   1.429 -0.7046  0.4232  0.0078
 2749TIP3    H129806   0.503   0.675   1.357  1.6129 -0.5793  0.7873
 2749TIP3    H229807   0.525   0.821   1.389  2.4000 -0.4401 -0.3066
 2750TIP3   OH229808   2.846   2.885   0.424 -0.0764 -0.0615 -0.3774
 2750TIP3    H129809   2.894   2.847   0.497 -2.0933  0.1182  1.1406
 2750TIP3    H229810   2.818   2.810   0.371  1.5221 -0.1821 -1.0947
 2751TIP3   OH229811   6.520   0.897   0.215  1.2318 -0.1769  0.0742
 2751TIP3    H129812   6.451   0.963   0.226  0.7894 -0.6439  0.1323
 2751TIP3    H229813   6.474   0.819   0.184  1.9377 -0.0650 -1.3139
 2752TIP3   OH229814   3.477   0.866   0.855  0.2998 -0.5092 -0.2101
 2752TIP3    H129815   3.489   0.944   0.908  0.2601 -0.1371 -0.7387
 2752TIP3    H229816   3.443   0.800   0.916 -1.1395  0.3216 -0.0758
 2753TIP3   OH229817   1.901   0.318   1.696  0.0306  0.1362 -0.3885
 2753TIP3    H129818   1.958   0.251   1.658  1.6600 -0.7289  3.2127
 2753TIP3    H229819   1.947   0.400   1.682  0.3226 -0.0847 -0.7409
 2754TIP3   OH229820   0.883   2.696   7.728  0.3171  0.0187 -0.2051
 2754TIP3    H129821   0.913   2.680   7.817  1.5251  0.9265 -0.4363
 2754TIP3    H229822   0.883   2.791   7.718 -0.7840 -0.0236 -0.8619
 2755TIP3   OH229823   2.358   4.362   1.583 -0.5302  0.2650  0.6460
 2755TIP3    H129824   2.447   4.367   1.548 -0.6810  0.6098  0.2995
 2755TIP3    H229825   2.302   4.394   1.511 -0.8108  1.3529  1.3196
 2756TIP3   OH229826   0.377   6.421   0.118 -0.3103 -0.5788 -0.0398
 2756TIP3    H129827   0.377   6.325   0.119 -0.4325 -0.6168 -1.4695
 2756TIP3    H229828   0.286   6.444   0.098 -0.7206 -0.0919  2.1859
 2757TIP3   OH229829   0.132   1.860   2.994 -0.1666  0.0334 -0.1685
 2757TIP3    H129830   0.213   1.829   2.954  0.0836  0.0231  0.3429
 2757TIP3    H229831   0.155   1.879   3.085 -0.8560 -0.4572  0.1221
 2758TIP3   OH229832   1.544   0.823   1.114  0.3486 -0.5233  0.1443
 2758TIP3    H129833   1.479   0.824   1.043 -0.0165  0.3982  0.4715
 2758TIP3    H229834   1.521   0.899   1.168  3.4182  1.6291 -1.2839
 2759TIP3   OH229835   5.702   3.841   1.526 -0.1272  0.2380 -0.3862
 2759TIP3    H129836   5.656   3.797   1.454 -0.0735 -0.3758 -0.0467
 2759TIP3    H229837   5.664   3.804   1.605  0.7370 -0.0456 -0.0993
 2760TIP3   OH229838   1.107   1.096   7.736 -0.0931 -0.0112 -0.0826
 2760TIP3    H129839   1.028   1.137   7.702  0.7507  1.3248 -0.5292
 2760TIP3    H229840   1.137   1.155   7.806  0.0406 -0.9525  0.6793
 2761TIP3   OH229841   5.662   6.358   0.332  0.1669  0.4877  0.4197
 2761TIP3    H129842   5.582   6.404   0.305 -0.1452  0.1599  0.7694
 2761TIP3    H229843   5.689   6.310   0.254 -0.6725 -0.3698  0.6353
 2762TIP3   OH229844   3.628   4.476   7.859 -0.0385  0.0841  0.3095
 2762TIP3    H129845   3.696   4.417   7.825 -0.7963 -0.6484  0.0293
 2762TIP3    H229846   3.670   4.562   7.860  0.5823 -0.1778 -0.8079
 2763TIP3   OH229847   2.057   0.665   2.106 -0.2581  0.2253  0.1341
 2763TIP3    H129848   2.075   0.572   2.095  1.8264  0.5862  0.0886
 2763TIP3    H229849   2.041   0.676   2.200 -0.2698 -0.1361  0.1727
 2764TIP3   OH229850   0.310   0.161   8.542 -0.0958  0.0245 -0.2637
 2764TIP3    H129851   0.254   0.180   8.467 -0.7891  0.1233  0.2667
 2764TIP3    H229852   0.266   0.089   8.587 -1.1089  1.6369  1.4709
 2765TIP3   OH229853   2.846   4.041   7.878 -0.2392  0.0980  0.0759
 2765TIP3    H129854   2.867   3.978   7.809  0.5433 -0.9559  1.2198
 2765TIP3    H229855   2.873   4.126   7.843  0.8522 -0.5107 -0.6221
 2766TIP3   OH229856   0.324   4.819   8.645 -1.1678  0.2161 -0.1393
 2766TIP3    H129857   0.296   4.788   8.559  0.2149 -0.2785 -0.4307
 2766TIP3    H229858   0.282   4.905   8.653 -1.3534  0.2547 -1.2845
 2767TIP3   OH229859   0.224   0.899   0.517 -0.3112 -0.0204  0.0111
 2767TIP3    H129860   0.152   0.846   0.484 -0.5023  0.5002 -0.4157
 2767TIP3    H229861   0.204   0.988   0.488  1.2868 -0.0914 -1.4912
 2768TIP3   OH229862   1.513   5.378   6.703 -0.5069  0.4334  0.3815
 2768TIP3    H129863   1.479   5.348   6.618 -0.3678  0.2231  0.3993
 2768TIP3    H229864   1.469   5.322   6.767 -0.9755  0.9139  0.4823
 2769TIP3   OH229865   0.018   1.875   2.764 -0.2270  0.6367 -0.5259
 2769TIP3    H129866   0.061   1.881   2.849 -0.3019 -0.3570 -0.4090
 2769TIP3    H229867  -0.023   1.960   2.751  2.1371  1.8160 -0.8362
 2770TIP3   OH229868   3.753   2.220   0.113  0.1356 -0.0316 -0.5489
 2770TIP3    H129869   3.756   2.137   0.065 -0.6193 -0.7589  0.6131
 2770TIP3    H229870   3.844   2.239   0.135  0.1854 -1.3535  0.4786
 2771TIP3   OH229871   0.773   3.362   2.348 -0.9321 -0.4912  0.0752
 2771TIP3    H129872   0.835   3.299   2.311 -1.5367 -0.4966 -0.9731
 2771TIP3    H229873   0.822   3.444   2.350 -1.0030 -0.3992 -1.1472
 2772TIP3   OH229874   1.844   5.642   2.060  0.1829 -0.2375 -0.6421
 2772TIP3    H129875   1.875   5.667   2.147  1.4874  0.2483 -1.2188
 2772TIP3    H229876   1.790   5.715   2.032 -1.1658 -0.8849  0.1863
 2773TIP3   OH229877   2.482   5.210   0.911 -0.0167 -0.6223 -0.5152
 2773TIP3    H129878   2.467   5.116   0.898 -0.7286 -0.6843  0.5532
 2773TIP3    H229879   2.396   5.245   0.934  0.3088  0.2259 -0.5354
 2774TIP3   OH229880   0.940   6.328   0.030  0.0418  0.4596 -0.4710
 2774TIP3    H129881   0.928   6.372  -0.054 -1.1560 -0.9850 -1.0920
 2774TIP3    H229882   0.979   6.243   0.007 -2.9013 -1.1770  0.0395
 2775TIP3   OH229883   4.130   5.949   8.785 -0.0625 -0.2346 -0.4046
 2775TIP3    H129884   4.085   5.966   8.868  1.2674  0.2020  0.2536
 2775TIP3    H229885   4.090   6.011   8.723 -0.8686 -0.3696 -0.0384
 2776TIP3   OH229886   5.246   3.391   1.219  0.3230 -0.2025  0.0020
 2776TIP3    H129887   5.218   3.420   1.133 -0.6268  1.0285  0.6940
 2776TIP3    H229888   5.182   3.324   1.244 -0.6626  0.9208  0.5891
 2777TIP3   OH229889   5.703   3.032   1.284 -0.1214  0.2706 -0.3069
 2777TIP3    H129890   5.667   3.099   1.226 -0.2326  2.6468  2.2818
 2777TIP3    H229891   5.627   2.978   1.308 -1.3056  2.6189  1.7385
 2778TIP3   OH229892   4.667   2.682   8.518 -0.2328  0.4769 -0.5376
 2778TIP3    H129893   4.610   2.731   8.459  0.1000  1.0502 -0.3854
 2778TIP3    H229894   4.634   2.702   8.606 -0.1090  0.4162 -0.4767
 2779TIP3   OH229895   1.108   5.707   1.411 -0.0886 -0.2814 -1.0449
 2779TIP3    H129896   1.080   5.726   1.500  0.8387  0.2275 -0.8502
 2779TIP3    H229897   1.075   5.780   1.359 -1.3295 -0.9779 -1.2827
 2780TIP3   OH229898   2.160   5.392   8.736 -0.1162 -0.7276 -0.1262
 2780TIP3    H129899   2.172   5.297   8.733  1.7251 -0.6086  1.1576
 2780TIP3    H229900   2.176   5.421   8.646 -1.1478 -1.6603 -0.6275
 2781TIP3   OH229901   2.305   2.230   7.991 -0.4306 -0.5031  0.1828
 2781TIP3    H129902   2.283   2.311   7.946  0.7826 -0.2155  0.0636
 2781TIP3    H229903   2.285   2.247   8.083  1.7799  0.7197  0.4988
 2782TIP3   OH229904   4.663   3.255   1.253 -0.1508  0.2575 -0.1463
 2782TIP3    H129905   4.651   3.177   1.306 -0.2062  0.3173 -0.0699
 2782TIP3    H229906   4.640   3.327   1.311  0.6756  0.3837  0.0257
 2783TIP3   OH229907   0.869   2.472   8.588  0.0903  0.3261 -0.3610
 2783TIP3    H129908   0.810   2.406   8.553  0.2956 -0.7334  1.1567
 2783TIP3    H229909   0.849   2.551   8.539 -0.2892 -0.8006 -2.1220
 2784TIP3   OH229910   3.631   1.724   6.777 -1.1342  0.0904  0.3862
 2784TIP3    H129911   3.629   1.787   6.706  0.6718 -0.1650  0.0797
 2784TIP3    H229912   3.653   1.776   6.855  1.2210 -0.2231 -0.0102
 2785TIP3   OH229913   2.597   5.562   6.478 -0.3443  0.1323  0.4367
 2785TIP3    H129914   2.513   5.564   6.431 -0.9604  0.5041  1.5101
 2785TIP3    H229915   2.605   5.650   6.516  1.4548  0.7236 -1.1801
 2786TIP3   OH229916   3.259   2.368   0.575  0.0558  0.1448 -0.1992
 2786TIP3    H129917   3.331   2.393   0.633 -1.0768  0.2978  1.1964
 2786TIP3    H229918   3.223   2.452   0.545 -0.4381  0.1098  0.2763
 2787TIP3   OH229919   5.028   6.415   6.936 -0.0188 -0.0364 -0.5111
 2787TIP3    H129920   4.993   6.330   6.911 -0.0935 -0.2002  0.1406
 2787TIP3    H229921   5.015   6.470   6.859 -2.5303  0.1659 -0.0160
 2788TIP3   OH229922   6.121   4.132   0.496 -0.1240 -0.5852 -0.1842
 2788TIP3    H129923   6.107   4.225   0.513  0.0015 -0.5222 -0.4145
 2788TIP3    H229924   6.211   4.116   0.523 -0.5137 -0.9145  0.9890
 2789TIP3   OH229925   4.074   6.533   8.224 -0.2954  0.2464  0.2761
 2789TIP3    H129926   4.059   6.625   8.244 -0.2103  0.9123 -2.3668
 2789TIP3    H229927   3.999   6.508   8.170  1.6425  0.0028 -2.5014
 2790TIP3   OH229928   0.684   5.976   2.267  0.0927  0.2709  0.0182
 2790TIP3    H129929   0.662   6.053   2.320  0.2321 -0.5363  1.3023
 2790TIP3    H229930   0.610   5.916   2.280 -0.3545  0.4391 -1.5341
 2791TIP3   OH229931   2.710   2.776   8.477  0.4842  0.3809  0.4500
 2791TIP3    H129932   2.690   2.847   8.416 -3.7213 -1.4396 -0.6995
 2791TIP3    H229933   2.755   2.711   8.423 -1.7382 -0.5198 -0.4604
 2792TIP3   OH229934   6.168   0.647   1.122  0.2107  0.3474  0.6745
 2792TIP3    H129935   6.195   0.555   1.120  1.4730  0.7035 -0.8841
 2792TIP3    H229936   6.239   0.693   1.078 -0.6251  2.0209  1.0100
 2793TIP3   OH229937   2.220   6.014   1.761 -0.1731 -0.1393 -0.0233
 2793TIP3    H129938   2.289   6.076   1.738 -0.9016  0.0906 -1.7733
 2793TIP3    H229939   2.259   5.928   1.746  0.3602 -0.0813  0.9594
 2794TIP3   OH229940   0.932   0.889   6.506  0.0143  0.0916 -0.3807
 2794TIP3    H129941   0.999   0.939   6.553 -1.7742  1.1853  1.1777
 2794TIP3    H229942   0.881   0.956   6.459 -1.7296 -0.3238  0.8186
 2795TIP3   OH229943   3.629   0.542   7.698  0.2138 -0.3632  0.1639
 2795TIP3    H129944   3.559   0.478   7.706  0.1033 -0.3415 -0.6071
 2795TIP3    H229945   3.671   0.522   7.614  1.4483 -0.7007  0.8358
 2796TIP3   OH229946   0.254   0.498   8.038 -0.1336  0.5804 -0.4455
 2796TIP3    H129947   0.184   0.457   7.986  0.7980 -2.5073  0.5003
 2796TIP3    H229948   0.321   0.522   7.974  0.8974 -2.9329 -0.9167
 2797TIP3   OH229949   1.722   3.065   0.041 -0.2604  0.0018  0.3996
 2797TIP3    H129950   1.808   3.106   0.053 -0.3583 -0.1740  1.8688
 2797TIP3    H229951   1.740   2.983  -0.005  0.1241  0.8112 -0.9784
 2798TIP3   OH229952   1.061   0.356   7.067  0.0571 -0.9832  0.3210
 2798TIP3    H129953   1.013   0.341   6.986 -0.8054 -1.0813  0.8375
 2798TIP3    H229954   1.132   0.291   7.066  0.5835 -0.4094 -0.7522
 2799TIP3   OH229955   3.830   5.148   8.446  0.0732 -0.0685 -0.3791
 2799TIP3    H129956   3.835   5.242   8.463  0.5432 -0.1668  0.0798
 2799TIP3    H229957   3.808   5.110   8.531  1.5850 -0.5090 -0.1460
 2800TIP3   OH229958   3.189   3.328   1.086 -0.2585 -0.6431  0.5723
 2800TIP3    H129959   3.100   3.323   1.122 -0.1037 -1.1920  0.8950
 2800TIP3    H229960   3.214   3.237   1.069  0.2965 -0.5085  0.6268
 2801TIP3   OH229961   2.564   4.614   7.149  0.2374 -1.1024 -0.2682
 2801TIP3    H129962   2.495   4.562   7.109 -0.4042 -2.0788  2.0185
 2801TIP3    H229963   2.632   4.551   7.173  1.8525 -0.2107 -2.1153
 2802TIP3   OH229964   1.873   4.074   7.435 -0.9467  0.4246  0.1222
 2802TIP3    H129965   1.878   3.979   7.439  1.9607  0.5291  2.2662
 2802TIP3    H229966   1.843   4.101   7.521  0.8508  1.4626  0.4735
 2803TIP3   OH229967   1.366   1.642   8.587 -0.2359  0.3153 -0.1316
 2803TIP3    H129968   1.277   1.665   8.614 -0.0286  0.6742  0.2601
 2803TIP3    H229969   1.363   1.640   8.491 -0.6315  0.4615 -0.1224
 2804TIP3   OH229970   3.699   2.116   8.511  0.2327  0.6832 -0.2306
 2804TIP3    H129971   3.672   2.024   8.500  1.8484  0.3343 -1.8243
 2804TIP3    H229972   3.713   2.126   8.605 -1.1009 -0.3426  0.1202
 2805TIP3   OH229973   1.508   5.177   0.618  0.0506  0.0371  0.2274
 2805TIP3    H129974   1.462   5.221   0.546  1.9725 -0.5499 -1.4459
 2805TIP3    H229975   1.439   5.157   0.681 -1.3097  3.0272 -0.1334
 2806TIP3   OH229976   1.948   3.371   0.913 -0.6451 -0.5274 -0.1852
 2806TIP3    H129977   1.885   3.342   0.978 -1.7297 -0.0929 -1.0149
 2806TIP3    H229978   2.023   3.312   0.924 -0.6318 -0.2024  1.6905
 2807TIP3   OH229979   2.293   5.806   1.235  0.5193  0.8795 -0.0162
 2807TIP3    H129980   2.261   5.725   1.195 -0.8390  1.5977 -0.4235
 2807TIP3    H229981   2.318   5.861   1.161  0.0327  1.3925  0.1906
 2808TIP3   OH229982   3.504   4.724   8.362 -0.3259 -0.4218  0.2290
 2808TIP3    H129983   3.422   4.741   8.408  0.3652  2.4078  0.6202
 2808TIP3    H229984   3.482   4.731   8.269 -0.3932  1.3614  0.3507
 2809TIP3   OH229985   3.742   5.301   1.021 -0.5986  0.2158  0.0151
 2809TIP3    H129986   3.777   5.360   0.954  0.8385 -1.7645 -1.0816
 2809TIP3    H229987   3.688   5.239   0.972 -1.2015 -0.0564  0.9965
 2810TIP3   OH229988   6.432   2.690   7.328 -0.5660  0.4005 -0.0739
 2810TIP3    H129989   6.478   2.626   7.384  0.0041  1.5612  0.8360
 2810TIP3    H229990   6.501   2.748   7.297 -1.3280  1.9302  0.9676
 2811TIP3   OH229991   6.045   1.323   7.753  0.0090  0.3883 -0.0009
 2811TIP3    H129992   6.063   1.369   7.671  0.0816  1.3569  0.5348
 2811TIP3    H229993   5.993   1.386   7.803  1.8595  0.7231  1.5917
 2812TIP3   OH229994   1.258   3.530   1.845 -0.2153 -0.3988  0.0393
 2812TIP3    H129995   1.214   3.486   1.918  0.9752  2.5159  2.7429
 2812TIP3    H229996   1.192   3.591   1.811  0.6860  2.0163  2.3059
 2813TIP3   OH229997   3.799   4.330   2.080 -0.2328  0.3663 -0.4600
 2813TIP3    H129998   3.784   4.372   1.995 -1.6925 -0.8645 -0.8548
 2813TIP3    H229999   3.748   4.382   2.142  0.5876  1.0843 -0.3727
 2814TIP3   OH230000   5.938   0.795   1.145 -0.4589 -0.8244 -0.1563
 2814TIP3    H130001   5.962   0.880   1.184 -0.4433 -0.5742 -0.7097
 2814TIP3    H230002   6.019   0.744   1.146 -0.0424 -0.2240 -1.3928
 2815TIP3   OH230003   6.670   6.621   8.462 -0.5429 -0.2131  0.6012
 2815TIP3    H130004   6.588   6.633   8.510  0.2487 -1.4012  2.3558
 2815TIP3    H230005   6.652   6.548   8.403 -0.3665 -1.5398  2.0902
 2816TIP3   OH230006   2.044   5.001   1.704 -0.0761 -0.3768 -0.4599
 2816TIP3    H130007   1.991   4.951   1.766  0.1143 -0.4740 -0.3737
 2816TIP3    H230008   2.105   5.051   1.759  0.6656 -1.1149 -0.5992
 2817TIP3   OH230009   5.651   0.198   0.093 -0.3733  0.4806  0.5909
 2817TIP3    H130010   5.572   0.226   0.140 -1.6666 -0.5866 -0.8321
 2817TIP3    H230011   5.637   0.228   0.003  0.0790 -1.0960 -0.0392
 2818TIP3   OH230012   5.905   4.100   1.129  0.4081 -0.0262 -0.5855
 2818TIP3    H130013   5.866   4.018   1.100 -0.2454  0.6094 -1.5600
 2818TIP3    H230014   5.996   4.095   1.101  0.7724 -1.0197  0.6677
 2819TIP3   OH230015   4.045   1.331   1.822  0.6236  0.2792 -0.2320
 2819TIP3    H130016   4.124   1.385   1.821  2.1104 -1.7749 -0.4615
 2819TIP3    H230017   4.029   1.311   1.730  1.2504 -1.2143 -0.0382
 2820TIP3   OH230018   1.648   5.778   8.698  0.0622  0.3268 -0.0876
 2820TIP3    H130019   1.555   5.769   8.679 -0.1643  0.4100  0.9030
 2820TIP3    H230020   1.658   5.743   8.787  0.9285  0.5330 -0.0898
 2821TIP3   OH230021   1.502   5.916   0.769 -0.2763  0.0100  0.1797
 2821TIP3    H130022   1.421   5.963   0.791 -0.1823  0.5722 -0.6264
 2821TIP3    H230023   1.528   5.952   0.684 -1.1916 -2.7730 -1.4296
 2822TIP3   OH230024   3.696   0.574   7.333 -0.2845  0.5106  0.0941
 2822TIP3    H130025   3.601   0.565   7.334 -0.3076  0.4055 -1.4714
 2822TIP3    H230026   3.727   0.495   7.378 -0.9218  0.4587  0.4636
 2823TIP3   OH230027   2.287   3.230   8.093  0.4543  0.4544  0.7432
 2823TIP3    H130028   2.232   3.218   8.016  1.0611  1.8308  0.0759
 2823TIP3    H230029   2.353   3.160   8.087  1.5928  1.6231 -0.9715
 2824TIP3   OH230030   5.146   0.293   2.085 -0.2954 -0.0369 -0.4286
 2824TIP3    H130031   5.108   0.205   2.075 -1.4658  0.5839 -1.7050
 2824TIP3    H230032   5.187   0.291   2.172 -0.3411 -1.8194 -0.3999
 2825TIP3   OH230033   0.189   5.530   6.493  0.5339 -0.1593 -0.0536
 2825TIP3    H130034   0.143   5.453   6.526  0.9685 -0.8800 -1.0727
 2825TIP3    H230035   0.122   5.598   6.491 -0.1681 -0.8345 -0.2424
 2826TIP3   OH230036   5.442   2.015   8.211 -0.3399 -0.0998  0.3304
 2826TIP3    H130037   5.423   2.043   8.122 -1.3336  1.1899  0.9113
 2826TIP3    H230038   5.382   1.942   8.227 -0.7328  0.1923  0.2032
 2827TIP3   OH230039   3.483   1.502   6.562 -0.2246 -0.1065  0.4393
 2827TIP3    H130040   3.463   1.579   6.615 -1.6333 -0.1076 -0.0609
 2827TIP3    H230041   3.398   1.463   6.542  0.2213  0.0511 -2.0896
 2828TIP3   OH230042   0.620   2.620   2.340 -0.7603 -0.9828 -0.5639
 2828TIP3    H130043   0.552   2.592   2.401 -0.3963 -0.0031  0.3215
 2828TIP3    H230044   0.702   2.594   2.382 -0.4575  0.5549 -0.1280
 2829TIP3   OH230045   0.667   6.081   2.010  0.0215 -0.1997  0.1346
 2829TIP3    H130046   0.615   6.000   2.008 -1.8951  0.9478  0.7765
 2829TIP3    H230047   0.724   6.071   2.087 -1.8344 -0.0454  1.6052
 2830TIP3   OH230048   4.935   2.722   1.329  0.2212 -0.4222 -0.1215
 2830TIP3    H130049   4.944   2.797   1.271  0.7286  0.7522  1.4086
 2830TIP3    H230050   5.011   2.726   1.387  0.7833 -2.6873 -0.5951
 2831TIP3   OH230051   6.111   4.216   1.460 -0.6655  0.4823  0.3743
 2831TIP3    H130052   6.174   4.208   1.532 -0.3226  1.6786  0.2313
 2831TIP3    H230053   6.159   4.184   1.383 -0.9123 -0.4621  0.6035
 2832TIP3   OH230054   3.805   0.526   0.064 -0.6593  0.2606 -0.1485
 2832TIP3    H130055   3.894   0.561   0.057 -0.7509  0.4499 -0.4080
 2832TIP3    H230056   3.793   0.509   0.157 -0.2805  0.0427 -0.1371
 2833TIP3   OH230057   4.585   5.503   1.548 -0.1382 -0.7226  0.4539
 2833TIP3    H130058   4.605   5.533   1.460  1.8053 -1.4066  0.6011
 2833TIP3    H230059   4.519   5.434   1.536  2.5970 -3.3650 -0.9406
 2834TIP3   OH230060   6.195   3.597   8.186 -0.1962 -0.7109 -0.2774
 2834TIP3    H130061   6.223   3.589   8.095 -2.7344 -3.1882 -0.9677
 2834TIP3    H230062   6.194   3.692   8.203  2.2999 -0.2781 -2.0883
 2835TIP3   OH230063   5.220   1.937   0.131  0.3280 -0.6113 -0.2876
 2835TIP3    H130064   5.262   2.023   0.137  1.1202 -0.9427 -0.9046
 2835TIP3    H230065   5.127   1.956   0.127  0.4554  0.1823  0.3230
 2836TIP3   OH230066   2.887   3.513   1.077 -0.2338  0.0013 -0.0851
 2836TIP3    H130067   2.948   3.529   1.006  0.3907  0.0432  0.4528
 2836TIP3    H230068   2.862   3.421   1.068  0.9252 -0.3875  0.4544
 2837TIP3   OH230069   1.833   6.474   6.302  0.1449  0.0421 -0.3143
 2837TIP3    H130070   1.919   6.438   6.325  0.3663  0.8619  0.2018
 2837TIP3    H230071   1.853   6.557   6.260 -0.4194  0.7496  0.7695
 2838TIP3   OH230072   6.017   5.907   7.898  0.1229 -0.0149  0.8043
 2838TIP3    H130073   6.019   5.876   7.989  0.8299  1.3922  1.3005
 2838TIP3    H230074   6.031   6.002   7.904  1.0611 -0.0077 -0.8245
 2839TIP3   OH230075   1.234   1.901   1.304  0.0031  0.3512  0.4228
 2839TIP3    H130076   1.233   1.904   1.208 -0.8222  2.6728  0.4345
 2839TIP3    H230077   1.166   1.964   1.330 -1.4100 -1.8700  2.5525
 2840TIP3   OH230078   6.732   2.151   7.856 -0.1166  0.3220 -0.4053
 2840TIP3    H130079   6.715   2.064   7.821  0.4629  0.0564 -0.0381
 2840TIP3    H230080   6.651   2.200   7.838 -1.2634 -0.8681  1.1795
 2841TIP3   OH230081   0.818   1.397   0.138 -0.1720  0.4148  0.4504
 2841TIP3    H130082   0.894   1.451   0.159 -0.6330  0.9626  0.7406
 2841TIP3    H230083   0.776   1.444   0.065 -0.1437  0.0268  0.1809
 2842TIP3   OH230084   6.568   3.467   8.054 -0.0432 -0.0641  0.1039
 2842TIP3    H130085   6.557   3.557   8.024  0.9627  0.2146  0.5309
 2842TIP3    H230086   6.634   3.472   8.123 -1.9882 -0.7178  2.1644
 2843TIP3   OH230087   3.831   2.901   0.399  0.4076  0.1162 -0.6421
 2843TIP3    H130088   3.897   2.923   0.333  0.0090  3.0803 -0.1719
 2843TIP3    H230089   3.870   2.930   0.482 -1.7639  2.9060 -0.4596
 2844TIP3   OH230090   4.715   3.308   8.183  0.3085 -0.1678  0.3410
 2844TIP3    H130091   4.635   3.270   8.219  0.0369 -0.3005 -0.3874
 2844TIP3    H230092   4.780   3.295   8.251 -0.8027  1.9897  1.9137
 2845TIP3   OH230093   0.292   2.015   1.238 -0.2049 -0.7437 -0.7426
 2845TIP3    H130094   0.245   2.078   1.183  0.5273  0.9768  0.5430
 2845TIP3    H230095   0.375   2.057   1.259 -0.2810 -1.5089  1.3449
 2846TIP3   OH230096   2.735   1.825   1.253  0.3338 -0.3434  0.0728
 2846TIP3    H130097   2.678   1.855   1.323  0.0300  1.5476 -0.8998
 2846TIP3    H230098   2.758   1.735   1.276 -2.2789 -0.8541  0.9567
 2847TIP3   OH230099   2.628   3.485   0.077 -0.2688 -0.7863 -0.0560
 2847TIP3    H130100   2.625   3.532  -0.006 -0.5201  0.0714  0.4286
 2847TIP3    H230101   2.706   3.519   0.121 -0.8914 -0.2278  0.6375
 2848TIP3   OH230102   2.770   1.351   7.205  0.4288 -0.1128  0.0616
 2848TIP3    H130103   2.750   1.437   7.168  1.7961 -0.4818 -1.6161
 2848TIP3    H230104   2.685   1.307   7.211  0.1110 -0.0885 -2.8524
 2849TIP3   OH230105   2.503   0.168   0.236 -1.0231 -0.2618  0.6768
 2849TIP3    H130106   2.558   0.128   0.168 -1.7789 -0.4587  0.1617
 2849TIP3    H230107   2.551   0.246   0.262 -0.5800 -0.3334  0.1089
 2850TIP3   OH230108   1.999   3.569   1.192 -0.0325  0.3184 -0.0118
 2850TIP3    H130109   2.061   3.541   1.125 -1.1728 -0.5415 -0.7397
 2850TIP3    H230110   1.957   3.647   1.156 -0.0524  0.3451  0.0678
 2851TIP3   OH230111   1.472   6.213   0.982 -0.2838 -0.0816 -0.1097
 2851TIP3    H130112   1.432   6.196   0.897 -2.0491  0.1329  0.6535
 2851TIP3    H230113   1.563   6.184   0.971 -0.4920 -0.1511 -2.0267
 2852TIP3   OH230114   1.823   5.552   1.441 -0.2419  0.4254 -0.0951
 2852TIP3    H130115   1.746   5.520   1.395  0.1555 -1.0181  0.1883
 2852TIP3    H230116   1.840   5.638   1.403 -0.4092 -0.3629 -2.0526
 2853TIP3   OH230117   3.007   6.462   8.670  0.4697 -0.0759 -0.6068
 2853TIP3    H130118   2.958   6.416   8.739  2.1116  0.9663  1.3510
 2853TIP3    H230119   3.078   6.402   8.647  0.7179  0.1383 -0.4006
 2854TIP3   OH230120   3.538   6.632   6.670  0.1754  0.1867 -0.3976
 2854TIP3    H130121   3.513   6.720   6.699  1.1993  0.4845 -0.3584
 2854TIP3    H230122   3.506   6.625   6.581  0.5427  0.8097 -0.5835
 2855TIP3   OH230123   5.251   1.394   0.564  0.1958 -0.0494 -0.0692
 2855TIP3    H130124   5.279   1.345   0.641 -0.1177  0.6420  0.4988
 2855TIP3    H230125   5.159   1.369   0.551  0.8229 -1.8445 -1.5614
 2856TIP3   OH230126   0.798   1.353   2.980 -0.3796 -0.4275  0.0737
 2856TIP3    H130127   0.740   1.423   2.951 -0.9370  0.3034  2.6508
 2856TIP3    H230128   0.771   1.277   2.929  0.1414  1.1071 -2.6905
 2857TIP3   OH230129   4.055   4.816   2.512  0.4153  0.1625  0.2614
 2857TIP3    H130130   3.999   4.850   2.581  1.0415  1.1712  0.2879
 2857TIP3    H230131   4.137   4.793   2.556  0.6140  0.2635 -0.0498
 2858TIP3   OH230132   5.049   6.439   0.208 -0.8314 -0.3271  0.1023
 2858TIP3    H130133   5.116   6.411   0.271  1.2434  1.0130 -1.3594
 2858TIP3    H230134   4.969   6.448   0.259  0.7928  0.8955  2.6187
 2859TIP3   OH230135   1.283   0.973   8.496  0.2608  0.1867  0.1206
 2859TIP3    H130136   1.209   0.915   8.479  0.9843 -0.4990 -0.7701
 2859TIP3    H230137   1.250   1.061   8.479 -0.3845 -0.1021 -0.1304
 2860TIP3   OH230138   4.743   3.064   8.614 -0.4924  0.4089  0.0321
 2860TIP3    H130139   4.684   3.039   8.542 -2.0475  1.3732  0.9196
 2860TIP3    H230140   4.690   3.120   8.670  1.4492  1.7501  0.6210
 2861TIP3   OH230141   6.628   2.358   0.237  0.8969  0.0922  0.2734
 2861TIP3    H130142   6.579   2.286   0.197 -0.2748  1.3978 -0.7210
 2861TIP3    H230143   6.720   2.336   0.222  0.5850 -1.3834  0.3477
 2862TIP3   OH230144   5.381   3.402   7.274 -0.1820 -0.4235 -0.0600
 2862TIP3    H130145   5.376   3.438   7.186 -0.5172  0.4908  0.3185
 2862TIP3    H230146   5.408   3.475   7.329 -0.1616 -0.9316  0.6281
 2863TIP3   OH230147   0.456   4.704   2.425  0.0820  0.3413 -0.1236
 2863TIP3    H130148   0.525   4.754   2.471  0.7325  2.8042 -3.4167
 2863TIP3    H230149   0.496   4.619   2.408  1.4260  0.8933  0.1324
 2864TIP3   OH230150   2.845   6.077   6.858  0.1369 -0.7764  0.2725
 2864TIP3    H130151   2.934   6.080   6.824 -0.2283  0.5246 -0.6539
 2864TIP3    H230152   2.856   6.072   6.953  1.2286  0.6217  0.2615
 2865TIP3   OH230153   5.817   2.969   0.119  0.1112  0.6779 -0.1911
 2865TIP3    H130154   5.864   3.042   0.160  0.3110  0.1267  0.5973
 2865TIP3    H230155   5.816   2.901   0.187  0.0215 -0.0861 -0.9491
 2866TIP3   OH230156   0.641   3.034   1.656  0.3019 -0.0710 -0.5177
 2866TIP3    H130157   0.731   3.013   1.634  0.0844  0.4151 -1.9929
 2866TIP3    H230158   0.647   3.108   1.717  0.9073 -0.8633  0.4084
 2867TIP3   OH230159   4.252   4.107   2.681 -0.5045 -0.1702 -0.3485
 2867TIP3    H130160   4.313   4.181   2.681 -0.9517  0.4211  3.3030
 2867TIP3    H230161   4.218   4.102   2.592  1.9921  1.9084 -1.5214
 2868TIP3   OH230162   4.523   6.755   2.122  0.3956  0.7172  0.1052
 2868TIP3    H130163   4.466   6.829   2.102  1.2539  1.5576  0.6478
 2868TIP3    H230164   4.612   6.790   2.114  0.8208  0.2685  2.0998
 2869TIP3   OH230165   2.018   4.196   0.459 -0.3764 -0.2397  0.1184
 2869TIP3    H130166   1.925   4.210   0.444 -0.8422 -2.2149  0.7911
 2869TIP3    H230167   2.035   4.237   0.544 -0.7734 -0.3644  0.2610
 2870TIP3   OH230168   6.212   0.793   8.197  0.0227  0.0055  0.8664
 2870TIP3    H130169   6.140   0.746   8.240 -0.4458 -0.0765  0.0020
 2870TIP3    H230170   6.222   0.874   8.247 -1.7463  0.7736  0.0311
 2871TIP3   OH230171   6.107   5.630   8.171  0.2563  0.1965 -0.5982
 2871TIP3    H130172   6.129   5.626   8.264  3.1096  0.3281 -1.1781
 2871TIP3    H230173   6.118   5.540   8.140 -0.0738  0.2755 -0.9600
 2872TIP3   OH230174   0.290   6.115   7.571 -0.1151 -0.3403  0.6850
 2872TIP3    H130175   0.196   6.110   7.552 -0.0974 -2.1425  0.9707
 2872TIP3    H230176   0.312   6.031   7.611  1.6739 -0.0272  0.4551
 2873TIP3   OH230177   3.373   4.295   0.063  0.2381 -0.2054 -0.1378
 2873TIP3    H130178   3.374   4.390   0.073 -2.1544 -0.0792 -0.3359
 2873TIP3    H230179   3.280   4.272   0.068  0.4965 -2.2583 -2.5371
 2874TIP3   OH230180   6.440   1.013   1.760  0.1689  0.0241  0.5347
 2874TIP3    H130181   6.412   1.098   1.794 -0.0548 -0.3871  1.4096
 2874TIP3    H230182   6.358   0.966   1.744  0.2330 -1.3239  3.4621
 2875TIP3   OH230183   0.017   1.767   8.108 -0.0231 -0.0003  0.2132
 2875TIP3    H130184  -0.012   1.688   8.063 -1.1055  0.5525 -0.0806
 2875TIP3    H230185  -0.012   1.755   8.199 -1.9476  0.8888 -0.2380
 2876TIP3   OH230186   0.747   5.769   7.286  0.1702  0.1541 -0.1615
 2876TIP3    H130187   0.839   5.796   7.290  0.7152 -1.6456  0.2522
 2876TIP3    H230188   0.725   5.772   7.193  0.2267  1.8315 -0.1507
 2877TIP3   OH230189   5.889   0.821   6.088 -0.3264 -0.0657  0.3786
 2877TIP3    H130190   5.945   0.876   6.144  0.7961  0.6927 -1.4020
 2877TIP3    H230191   5.800   0.854   6.104  0.1188  1.0055  0.7475
 2878TIP3   OH230192   3.991   0.701   0.816 -0.3195  0.0433  0.5480
 2878TIP3    H130193   3.966   0.721   0.907 -1.3040  0.5568  0.1889
 2878TIP3    H230194   4.035   0.780   0.786 -0.2848 -0.0004  0.4842
 2879TIP3   OH230195   3.109   5.261   7.688 -0.1779 -0.0353  1.2948
 2879TIP3    H130196   3.166   5.189   7.663  1.3136  1.4262  0.2843
 2879TIP3    H230197   3.021   5.231   7.666  0.3473 -1.7066  1.3644
 2880TIP3   OH230198   3.387   5.514   7.644  0.0556 -0.0865  0.9056
 2880TIP3    H130199   3.429   5.429   7.652  0.6430  0.2035  0.9210
 2880TIP3    H230200   3.371   5.525   7.550 -0.5146 -0.4431  0.9537
 2881TIP3   OH230201   5.749   2.109   0.853 -0.1670 -0.2832 -0.0199
 2881TIP3    H130202   5.808   2.043   0.889  0.4204  0.6471  0.7479
 2881TIP3    H230203   5.664   2.064   0.847  0.4914 -1.4939 -0.7433
 2882TIP3   OH230204   5.631   1.452   7.664  0.5012  0.4007  0.1602
 2882TIP3    H130205   5.645   1.539   7.703  0.7548 -0.6055  2.4632
 2882TIP3    H230206   5.539   1.432   7.681  0.3258  0.3726 -0.7606
 2883TIP3   OH230207   5.615   6.355   0.630 -0.0516 -0.1832  0.4134
 2883TIP3    H130208   5.657   6.314   0.555 -1.4225 -0.9463  0.0220
 2883TIP3    H230209   5.557   6.421   0.591 -0.9424 -0.7415  0.7647
 2884TIP3   OH230210   4.161   3.451   1.063 -0.1946 -0.3700 -0.2760
 2884TIP3    H130211   4.209   3.532   1.041 -0.1718  0.0325  1.1192
 2884TIP3    H230212   4.078   3.459   1.016  0.2247 -0.0287 -0.9816
 2885TIP3   OH230213   6.723   5.145   7.654 -0.1997  0.4606  0.3997
 2885TIP3    H130214   6.735   5.128   7.748  0.7231  0.7881  0.3480
 2885TIP3    H230215   6.709   5.058   7.616 -1.3721  0.3910  0.9356
 2886TIP3   OH230216   5.425   1.565   1.422 -0.5064 -0.1154  0.3109
 2886TIP3    H130217   5.455   1.474   1.418 -0.3842 -0.1247  1.1327
 2886TIP3    H230218   5.424   1.594   1.331 -1.1809 -1.1343 -0.0288
 2887TIP3   OH230219   5.214   6.183   7.162  0.2046  0.1741 -0.4287
 2887TIP3    H130220   5.156   6.122   7.207  0.2990  0.1364 -0.3599
 2887TIP3    H230221   5.214   6.153   7.071 -0.1878  0.4033 -0.5065
 2888TIP3   OH230222   0.941   2.619   7.452  0.9901  0.3675 -0.2737
 2888TIP3    H130223   1.008   2.687   7.450  1.3957  0.0380  0.9870
 2888TIP3    H230224   0.895   2.634   7.535  0.8235 -0.6361 -0.1718
 2889TIP3   OH230225   5.104   5.896   1.246 -0.2832 -0.4252 -0.4414
 2889TIP3    H130226   5.021   5.907   1.291  0.5361  1.9426  0.6412
 2889TIP3    H230227   5.147   5.823   1.291 -1.9928 -2.1705 -1.4874
 2890TIP3   OH230228   5.978   1.082   0.889 -0.1717 -0.2157  0.3453
 2890TIP3    H130229   5.976   1.054   0.797 -0.1828 -1.1215  0.6111
 2890TIP3    H230230   6.070   1.102   0.906 -0.0961 -0.4703  0.2493
 2891TIP3   OH230231   6.502   2.950   1.691 -0.3843  0.2313 -0.4282
 2891TIP3    H130232   6.481   2.944   1.598 -2.2233 -0.9509  0.0082
 2891TIP3    H230233   6.598   2.949   1.694 -0.2902 -0.4843 -2.2609
 2892TIP3   OH230234   5.879   3.272   7.020 -0.4004 -0.4218 -0.0624
 2892TIP3    H130235   5.854   3.212   6.950  0.7080 -0.6384 -0.2840
 2892TIP3    H230236   5.907   3.215   7.092  1.0225 -0.2038 -0.4060
 2893TIP3   OH230237   4.229   3.231   8.458 -0.4316 -0.3601  0.0678
 2893TIP3    H130238   4.262   3.264   8.541 -0.3863 -1.4538  0.5057
 2893TIP3    H230239   4.217   3.137   8.473 -1.5709 -0.3754 -0.7884
 2894TIP3   OH230240   2.518   1.505   0.704  0.4436  0.1813 -1.0265
 2894TIP3    H130241   2.481   1.593   0.703 -0.2674 -0.0814 -0.1749
 2894TIP3    H230242   2.468   1.457   0.639 -0.5275 -0.0821 -0.1195
 2895TIP3   OH230243   1.435   6.783   8.207 -0.1661 -0.0574 -0.0441
 2895TIP3    H130244   1.485   6.850   8.253  0.2758  0.2917 -1.0265
 2895TIP3    H230245   1.415   6.821   8.122  1.6331 -1.8056 -1.3355
 2896TIP3   OH230246   3.162   4.396   7.433 -0.6952  0.3865  0.0038
 2896TIP3    H130247   3.184   4.427   7.346 -1.5273  2.6833  0.5572
 2896TIP3    H230248   3.083   4.342   7.421  0.7393 -1.6314 -0.9567
 2897TIP3   OH230249   2.547   5.580   7.803 -0.0178  0.0146 -0.2786
 2897TIP3    H130250   2.470   5.560   7.857  2.5099 -1.0619  3.3669
 2897TIP3    H230251   2.527   5.664   7.763 -2.6722  0.3226  1.4179
 2898TIP3   OH230252   0.577   2.566   0.942 -0.2047  0.0355  0.6519
 2898TIP3    H130253   0.567   2.554   1.037  2.7841 -0.3322  1.0283
 2898TIP3    H230254   0.566   2.660   0.929 -0.7109  0.0844  1.3553
 2899TIP3   OH230255   1.898   5.877   8.519  0.0400 -0.2109 -0.4417
 2899TIP3    H130256   1.944   5.927   8.586 -0.0297 -0.5449 -0.1385
 2899TIP3    H230257   1.891   5.789   8.556 -1.3552 -0.0339 -0.2221
 2900TIP3   OH230258   3.293   3.257   6.634  0.5666 -0.0619  0.2719
 2900TIP3    H130259   3.291   3.225   6.544 -1.1491 -2.7855  1.1594
 2900TIP3    H230260   3.365   3.209   6.675  0.7765  0.5118  0.5864
 2901TIP3   OH230261   1.754   4.832   7.150  0.6183 -0.0124  0.4150
 2901TIP3    H130262   1.710   4.747   7.156  0.7380 -0.1330 -0.3693
 2901TIP3    H230263   1.838   4.813   7.108 -0.0415  0.7204 -1.3177
 2902TIP3   OH230264   1.690   1.601   0.666 -0.6667  0.4929  0.4634
 2902TIP3    H130265   1.759   1.536   0.655 -2.1180 -1.4267  1.7656
 2902TIP3    H230266   1.724   1.663   0.730  0.0086 -0.2203  0.8101
 2903TIP3   OH230267   0.594   1.640   0.533  0.0173  0.1317  0.2351
 2903TIP3    H130268   0.640   1.720   0.555  0.6158  0.1740 -1.0929
 2903TIP3    H230269   0.620   1.621   0.442  0.6127 -2.0385  0.7973
 2904TIP3   OH230270   0.081   3.533   6.802 -0.0884  0.0798 -0.1745
 2904TIP3    H130271   0.134   3.575   6.735  1.6408 -1.2911  0.2536
 2904TIP3    H230272  -0.004   3.519   6.760  0.2963  1.1046 -1.3578
 2905TIP3   OH230273   1.157   0.276   1.525  0.2351  0.3131  0.5406
 2905TIP3    H130274   1.184   0.185   1.513  0.1083  0.5766 -2.2065
 2905TIP3    H230275   1.200   0.302   1.607  0.1181 -2.2348  1.5113
 2906TIP3   OH230276   0.884   5.362   8.544 -0.4404  0.0784 -0.5413
 2906TIP3    H130277   0.843   5.283   8.580 -0.5317  0.5737  0.4498
 2906TIP3    H230278   0.816   5.429   8.549 -0.7894 -0.0467 -2.5370
 2907TIP3   OH230279   4.352   2.417   8.232 -0.2605 -0.7853 -0.4043
 2907TIP3    H130280   4.305   2.377   8.159  2.2076 -1.4104 -1.7831
 2907TIP3    H230281   4.410   2.348   8.265 -0.0533  0.0074  0.9895
 2908TIP3   OH230282   2.661   3.551   8.666  0.6092 -0.1643  0.0543
 2908TIP3    H130283   2.605   3.607   8.614  0.3520 -0.2924  0.1901
 2908TIP3    H230284   2.750   3.576   8.641  0.4937 -0.8677 -1.1369
 2909TIP3   OH230285   3.155   5.126   8.398  0.2269  0.1450 -0.5054
 2909TIP3    H130286   3.107   5.167   8.469 -0.9313 -1.4133 -0.3419
 2909TIP3    H230287   3.187   5.199   8.345 -2.0194  1.2680 -0.4088
 2910TIP3   OH230288   1.098   1.422   0.483 -0.1518 -0.0009  0.0502
 2910TIP3    H130289   1.139   1.422   0.569 -0.1294  1.7948  0.0864
 2910TIP3    H230290   1.170   1.436   0.422 -0.4505  1.4329 -0.0173
 2911TIP3   OH230291   5.240   6.483   8.450  0.1659 -0.1737 -0.7983
 2911TIP3    H130292   5.226   6.482   8.544  1.1288  0.7327 -0.6274
 2911TIP3    H230293   5.157   6.512   8.414  0.6337  2.3345 -0.0108
 2912TIP3   OH230294   5.075   1.332   7.604 -0.0792  0.5050  0.1675
 2912TIP3    H130295   5.095   1.241   7.581  1.6585  0.3834  1.8468
 2912TIP3    H230296   5.122   1.384   7.540  2.4295  0.1668  1.5947
 2913TIP3   OH230297   5.546   5.522   1.231 -0.0504  0.2127  0.0128
 2913TIP3    H130298   5.568   5.604   1.189  1.2427  0.2544  0.7194
 2913TIP3    H230299   5.589   5.526   1.317 -0.6598 -0.8408  0.3945
 2914TIP3   OH230300   6.343   0.945   8.513 -0.2722  0.2457 -0.7719
 2914TIP3    H130301   6.335   1.011   8.444 -2.1792 -0.5211 -1.3443
 2914TIP3    H230302   6.254   0.933   8.546  0.3479 -0.6001  0.7167
 2915TIP3   OH230303   5.732   1.549   1.986 -0.3816  0.6607  0.3763
 2915TIP3    H130304   5.734   1.564   2.080 -2.1822 -0.5877  0.6790
 2915TIP3    H230305   5.643   1.517   1.969 -0.3401  1.5236 -1.8602
 2916TIP3   OH230306   6.220   3.308   1.888 -0.6962 -0.2331 -1.1575
 2916TIP3    H130307   6.226   3.323   1.983  1.6949 -0.8619 -1.1635
 2916TIP3    H230308   6.126   3.302   1.872 -1.1811  0.0150  1.1534
 2917TIP3   OH230309   3.245   0.641   7.204 -0.3263  0.2343  0.2461
 2917TIP3    H130310   3.168   0.616   7.153 -0.0683 -1.7662  0.7323
 2917TIP3    H230311   3.213   0.704   7.268 -1.7447 -1.1240  0.9324
 2918TIP3   OH230312   6.778   2.990   1.772 -0.7857 -0.0659  0.0847
 2918TIP3    H130313   6.829   3.069   1.756  0.5329 -0.7677  0.6531
 2918TIP3    H230314   6.837   2.933   1.822 -2.5395 -0.4587  1.8177
 2919TIP3   OH230315   4.952   4.837   1.686 -0.3800  0.5401 -0.0508
 2919TIP3    H130316   4.988   4.748   1.683  2.7593  1.7013 -1.3472
 2919TIP3    H230317   4.949   4.859   1.779  0.9189 -0.1884  0.1863
 2920TIP3   OH230318   4.792   4.262   1.093 -0.1642 -0.2182  0.0902
 2920TIP3    H130319   4.761   4.352   1.092  0.7200  0.1737 -3.4711
 2920TIP3    H230320   4.879   4.266   1.054 -1.4589 -2.8920 -3.6312
 2921TIP3   OH230321   0.714   6.431   0.502  0.0951 -0.2495 -0.4073
 2921TIP3    H130322   0.704   6.359   0.564 -1.3429  0.0420 -0.2549
 2921TIP3    H230323   0.629   6.437   0.458  0.2202  1.2468 -0.5141
 2922TIP3   OH230324   5.219   2.441   1.505  0.0821 -0.0823  0.2128
 2922TIP3    H130325   5.128   2.472   1.508  0.0839  0.0872 -0.8924
 2922TIP3    H230326   5.235   2.405   1.592 -0.4593  1.5481  1.0411
 2923TIP3   OH230327   6.191   0.341   0.830  0.0294 -0.2541  0.1987
 2923TIP3    H130328   6.195   0.383   0.744 -0.2075  0.6668  0.6266
 2923TIP3    H230329   6.120   0.277   0.822 -0.9547  0.8159  0.1124
 2924TIP3   OH230330   3.826   2.131   1.641 -0.1042  0.1527  0.2256
 2924TIP3    H130331   3.807   2.224   1.639  0.2362  0.2808  1.7363
 2924TIP3    H230332   3.879   2.115   1.564  0.6936  1.4173  0.4933
 2925TIP3   OH230333   3.302   2.032   8.483  0.3651 -0.2465  0.6670
 2925TIP3    H130334   3.380   2.009   8.433  0.6641  0.5902  0.7382
 2925TIP3    H230335   3.237   2.056   8.417  0.2480 -0.6654  0.6227
 2926TIP3   OH230336   4.666   0.886   7.904  0.0773  0.5289 -0.0350
 2926TIP3    H130337   4.626   0.853   7.984  2.4638 -1.8554  0.3275
 2926TIP3    H230338   4.742   0.936   7.934  0.5720  0.2268 -0.7553
 2927TIP3   OH230339   3.860   1.836   1.774 -1.0623  0.2003 -0.6178
 2927TIP3    H130340   3.938   1.890   1.759 -0.0327 -1.3037 -0.9358
 2927TIP3    H230341   3.798   1.895   1.816  0.6450  1.1796  0.6852
 2928TIP3   OH230342   5.326   1.134   7.510  0.0643  0.1875  0.5185
 2928TIP3    H130343   5.341   1.089   7.427 -0.8187  1.8352 -0.5918
 2928TIP3    H230344   5.235   1.112   7.533  0.1946  0.0147  0.8748
 2929TIP3   OH230345   0.799   2.106   0.987  0.6659 -0.0505  0.3556
 2929TIP3    H130346   0.835   2.172   1.046 -1.1381  0.7212  0.6585
 2929TIP3    H230347   0.770   2.155   0.910  3.0764 -1.0461 -1.3147
 2930TIP3   OH230348   2.436   1.417   7.832 -0.2988 -0.2923  0.3036
 2930TIP3    H130349   2.527   1.392   7.814  0.3019 -0.7022  3.3374
 2930TIP3    H230350   2.384   1.348   7.791  1.0499 -2.9789  2.6899
 2931TIP3   OH230351   3.464   3.599   7.316  0.6031 -0.4030 -0.3512
 2931TIP3    H130352   3.370   3.602   7.297  0.4589 -0.6310  0.3010
 2931TIP3    H230353   3.494   3.519   7.274  0.2498 -1.0005  0.5067
 2932TIP3   OH230354   0.357   1.690   2.280  0.4277  0.1097  0.6320
 2932TIP3    H130355   0.379   1.626   2.213  1.6802  1.1267  0.0383
 2932TIP3    H230356   0.269   1.665   2.309  1.5829 -3.1168  1.8897
 2933TIP3   OH230357   1.668   2.545   1.152  0.0275  0.2323 -0.0123
 2933TIP3    H130358   1.588   2.499   1.126  0.2068 -0.8247  1.2236
 2933TIP3    H230359   1.716   2.482   1.206  0.3912  1.7633  1.5404
 2934TIP3   OH230360   4.757   2.843   6.665  0.1466  0.4949  0.9409
 2934TIP3    H130361   4.797   2.906   6.604 -1.7471  1.1012  0.2579
 2934TIP3    H230362   4.784   2.873   6.751  0.0072  1.7325  0.5766
 2935TIP3   OH230363   6.215   1.865   0.016 -0.2742 -0.0085  0.8313
 2935TIP3    H130364   6.171   1.806   0.078  0.2226  0.1543  1.3459
 2935TIP3    H230365   6.285   1.905   0.067  0.2524  0.0018  0.1145
 2936TIP3   OH230366   4.046   5.689   0.863  0.4933  0.1309  0.2301
 2936TIP3    H130367   4.101   5.620   0.899  0.4778 -1.6721 -2.8452
 2936TIP3    H230368   4.102   5.735   0.801 -0.9988 -1.0012 -2.1046
 2937TIP3   OH230369   1.661   5.419   2.093  0.1997 -0.0811 -0.8187
 2937TIP3    H130370   1.719   5.496   2.096 -0.2316  0.2314 -0.3063
 2937TIP3    H230371   1.681   5.377   2.009  2.6923 -1.1698  0.2097
 2938TIP3   OH230372   1.273   6.658   0.622 -0.8272  0.1083  0.0765
 2938TIP3    H130373   1.201   6.674   0.562 -0.5161 -0.3896 -0.4440
 2938TIP3    H230374   1.345   6.713   0.590 -0.2844 -1.0274 -0.7360
 2939TIP3   OH230375   4.068   5.163   6.746 -0.1804 -0.5870 -0.2274
 2939TIP3    H130376   4.153   5.171   6.790 -1.1355 -1.3084  1.8308
 2939TIP3    H230377   4.030   5.251   6.751  0.1531 -0.4223 -0.5572
 2940TIP3   OH230378   5.190   4.384   8.200 -0.3013 -0.1359  0.2965
 2940TIP3    H130379   5.134   4.386   8.278  0.0328 -0.1940  0.5410
 2940TIP3    H230380   5.250   4.458   8.213 -2.8229  2.5392 -1.8649
 2941TIP3   OH230381   5.242   6.401   0.409  0.7895 -0.1731 -0.1239
 2941TIP3    H130382   5.311   6.356   0.359  0.3477  0.6010 -1.4940
 2941TIP3    H230383   5.288   6.464   0.464  1.1825  1.0126 -1.7245
 2942TIP3   OH230384   3.374   4.700   1.129 -0.1951 -0.5686 -0.0105
 2942TIP3    H130385   3.286   4.712   1.165 -0.2608  1.4101 -0.7250
 2942TIP3    H230386   3.426   4.770   1.167  1.2396 -1.9952  0.7787
 2943TIP3   OH230387   0.899   6.514   0.827 -0.2865  0.7070 -0.0480
 2943TIP3    H130388   0.870   6.601   0.799  1.2084  1.3676  0.3173
 2943TIP3    H230389   0.933   6.528   0.915  1.0596  0.0202 -0.4251
 2944TIP3   OH230390   2.175   6.767   8.822  0.0813  0.1262  0.1315
 2944TIP3    H130391   2.222   6.769   8.905 -0.6029 -0.9554  0.5609
 2944TIP3    H230392   2.243   6.779   8.756  0.7275  0.3015  0.8137
 2945TIP3   OH230393   5.595   1.874   1.103  0.4753 -0.0284  0.0939
 2945TIP3    H130394   5.683   1.910   1.111  0.8981 -0.5043 -1.7762
 2945TIP3    H230395   5.558   1.879   1.191  1.2262  3.0613  0.3410
 2946TIP3   OH230396   3.384   5.411   1.469 -0.0282  0.3795 -0.6007
 2946TIP3    H130397   3.454   5.347   1.468  1.5286  1.9798  0.4191
 2946TIP3    H230398   3.426   5.493   1.496 -2.3441  1.3365  0.3822
 2947TIP3   OH230399   5.529   0.612   0.567 -0.2388  0.0994  0.1368
 2947TIP3    H130400   5.609   0.564   0.545 -0.6083 -0.7618  0.6546
 2947TIP3    H230401   5.551   0.704   0.549  0.3446 -0.2795 -1.2400
 2948TIP3   OH230402   0.415   1.933   1.567  0.0202  0.3355 -0.1269
 2948TIP3    H130403   0.346   1.892   1.515 -0.7507 -0.3482  1.3562
 2948TIP3    H230404   0.396   2.027   1.562  1.9172  0.6743 -3.7194
 2949TIP3   OH230405   2.280   2.202   7.292 -0.4176  0.5822  0.3045
 2949TIP3    H130406   2.362   2.240   7.323  1.5136 -1.8708 -1.4168
 2949TIP3    H230407   2.268   2.239   7.205 -1.2454  1.0190  0.5945
 2950TIP3   OH230408   2.265   4.511   6.801  0.0614  0.1101  0.2301
 2950TIP3    H130409   2.176   4.545   6.810  0.0703  0.0050  0.7372
 2950TIP3    H230410   2.254   4.424   6.764 -0.4903 -2.1413  4.8896
 2951TIP3   OH230411   0.878   1.170   2.154  0.3444  0.2592 -0.2261
 2951TIP3    H130412   0.857   1.097   2.212 -0.2707  0.6394  0.0453
 2951TIP3    H230413   0.971   1.188   2.170 -0.2175  1.5259  2.0297
 2952TIP3   OH230414   1.891   1.690   7.036 -0.1246  0.5851  0.3619
 2952TIP3    H130415   1.923   1.671   6.948  0.7982 -1.5677  1.1058
 2952TIP3    H230416   1.798   1.671   7.033  0.5172 -3.6353  0.7539
 2953TIP3   OH230417   6.306   1.674   1.326 -0.5430 -0.2567 -0.1082
 2953TIP3    H130418   6.386   1.659   1.276 -0.6087 -1.0893  0.0195
 2953TIP3    H230419   6.243   1.612   1.290 -1.0636  0.2280 -0.0498
 2954TIP3   OH230420   0.989   3.219   8.440  0.2985 -0.5403  0.3602
 2954TIP3    H130421   1.032   3.138   8.468  2.5022  0.5195  0.2424
 2954TIP3    H230422   1.010   3.226   8.347 -0.5756 -0.2193  0.1760
 2955TIP3   OH230423   0.384   2.150   0.575 -0.0031  0.1824  0.4119
 2955TIP3    H130424   0.311   2.100   0.612  0.7195 -1.4227 -0.2330
 2955TIP3    H230425   0.356   2.241   0.580 -1.9421 -0.3797  0.4031
 2956TIP3   OH230426   5.272   1.499   7.420  0.1668  0.3866 -0.1273
 2956TIP3    H130427   5.225   1.582   7.424  2.4358  1.7341  0.7239
 2956TIP3    H230428   5.297   1.490   7.328 -3.3117 -1.3915 -1.0411
 2957TIP3   OH230429   0.374   1.351   2.846  0.3544  0.3297  0.0522
 2957TIP3    H130430   0.456   1.395   2.868  0.7286  0.4337 -1.4319
 2957TIP3    H230431   0.377   1.268   2.894  1.9948 -0.3002 -1.0555
 2958TIP3   OH230432   4.320   3.360   8.688 -0.0736  0.3552 -0.1189
 2958TIP3    H130433   4.309   3.356   8.783 -0.5581  1.4371 -0.1027
 2958TIP3    H230434   4.269   3.437   8.662 -0.2706 -0.1570 -1.3059
 2959TIP3   OH230435   6.649   4.610   0.659  0.0909 -0.8955  0.7073
 2959TIP3    H130436   6.630   4.564   0.741  1.2654 -0.0290  1.5105
 2959TIP3    H230437   6.710   4.679   0.685  0.5912 -0.6857 -0.9297
 2960TIP3   OH230438   2.391   0.280   1.508 -0.2897  0.2144 -0.3465
 2960TIP3    H130439   2.424   0.201   1.551 -0.7565 -0.3074 -0.9326
 2960TIP3    H230440   2.448   0.293   1.433  0.1267  0.7596  0.0533
 2961TIP3   OH230441   2.500   4.827   0.568 -0.0426 -0.1499 -0.6724
 2961TIP3    H130442   2.518   4.767   0.640  0.0610  0.3637 -0.2601
 2961TIP3    H230443   2.586   4.840   0.526  0.3098  1.1530  0.3905
 2962TIP3   OH230444   1.195   5.751   2.221 -0.0397 -0.1388 -0.1958
 2962TIP3    H130445   1.191   5.675   2.162  0.6417 -0.7690  0.5449
 2962TIP3    H230446   1.104   5.780   2.227  0.0776  1.1790 -3.0791
 2963TIP3   OH230447   1.157   4.559   0.638  0.1586 -0.1711  0.1761
 2963TIP3    H130448   1.069   4.559   0.677 -0.0899 -0.5716 -0.3789
 2963TIP3    H230449   1.216   4.556   0.713 -0.2804  0.8978  0.5850
 2964TIP3   OH230450   4.474   3.121   7.761  0.2385 -0.0015  0.0298
 2964TIP3    H130451   4.509   3.035   7.780  2.3197  1.1919  2.0605
 2964TIP3    H230452   4.544   3.167   7.715  0.4626  1.5723  1.7912
 2965TIP3   OH230453   6.258   5.531   2.067 -0.4940  0.2211  0.3004
 2965TIP3    H130454   6.216   5.608   2.106 -0.9911  0.9758 -1.6048
 2965TIP3    H230455   6.219   5.457   2.113 -0.2318  1.0863  1.9623
 2966TIP3   OH230456   4.797   2.053   1.253 -0.3006 -0.3877  0.1853
 2966TIP3    H130457   4.775   2.139   1.215  1.0405  0.6804  1.7291
 2966TIP3    H230458   4.725   1.996   1.225 -1.0111  1.1183 -1.2307
 2967TIP3   OH230459   5.556   1.162   8.162  0.5094  0.3277 -0.1582
 2967TIP3    H130460   5.497   1.162   8.087 -0.3550  0.4665  0.4957
 2967TIP3    H230461   5.619   1.231   8.144 -0.5505  1.3490 -0.1203
 2968TIP3   OH230462   5.573   5.992   7.585  0.0644  0.0288  0.2131
 2968TIP3    H130463   5.655   6.034   7.612  0.3269  0.3289 -0.9855
 2968TIP3    H230464   5.600   5.920   7.529 -0.4239 -1.3516  1.6776
 2969TIP3   OH230465   3.157   0.574   1.092  0.0454 -0.5153 -0.6909
 2969TIP3    H130466   3.098   0.523   1.147 -0.3367  0.1600 -0.4517
 2969TIP3    H230467   3.186   0.513   1.024  0.3308 -1.2914  0.1131
 2970TIP3   OH230468   6.748   2.535   8.458 -0.4446 -0.2644 -0.0846
 2970TIP3    H130469   6.691   2.461   8.481  0.0875 -0.3407  1.0069
 2970TIP3    H230470   6.753   2.587   8.537 -1.1995  1.2303 -0.9791
 2971TIP3   OH230471   5.536   5.247   2.409  0.2847 -0.6430 -0.3312
 2971TIP3    H130472   5.446   5.229   2.380  0.5816 -1.2774 -0.8782
 2971TIP3    H230473   5.544   5.203   2.493 -0.5763  1.1893  0.7907
 2972TIP3   OH230474   0.148   1.044   7.057 -0.4586 -0.8136 -0.2569
 2972TIP3    H130475   0.226   1.014   7.011 -0.1803  0.4199 -0.6437
 2972TIP3    H230476   0.118   0.968   7.107  1.9841 -0.8589  1.3139
 2973TIP3   OH230477   4.553   5.211   8.399 -0.3120 -0.3227  0.7766
 2973TIP3    H130478   4.586   5.196   8.311 -0.1885  0.8349  0.6107
 2973TIP3    H230479   4.566   5.128   8.444  1.7611 -0.2857  0.3710
 2974TIP3   OH230480   5.294   2.277   1.255 -0.0811  0.1074 -0.6561
 2974TIP3    H130481   5.230   2.284   1.326 -0.0190 -1.2811 -0.4413
 2974TIP3    H230482   5.367   2.228   1.293 -0.3306 -1.2467 -1.8538
 2975TIP3   OH230483   4.998   2.859   0.751  0.0990 -0.3134 -1.2719
 2975TIP3    H130484   4.955   2.941   0.726  0.5360 -0.0983 -1.3272
 2975TIP3    H230485   5.066   2.846   0.685  0.2735 -0.5281 -1.0537
 2976TIP3   OH230486   5.463   5.511   6.399  0.6237 -0.3078 -0.2285
 2976TIP3    H130487   5.481   5.557   6.481  1.0930 -0.5043 -0.2191
 2976TIP3    H230488   5.370   5.486   6.405  1.0625 -1.7893  0.9892
 2977TIP3   OH230489   2.760   6.393   0.456  0.0239 -0.3997 -0.4285
 2977TIP3    H130490   2.697   6.456   0.422 -1.3084 -0.4269  1.7659
 2977TIP3    H230491   2.709   6.337   0.514  1.6125 -2.0872 -0.5496
 2978TIP3   OH230492   6.571   4.537   0.895  0.1104 -0.3359  0.0804
 2978TIP3    H130493   6.577   4.632   0.905  0.5643 -0.2856 -0.5632
 2978TIP3    H230494   6.518   4.508   0.969 -0.6387  0.4986 -0.1092
 2979TIP3   OH230495   4.701   4.210   2.203  0.4785 -0.1482 -0.0816
 2979TIP3    H130496   4.644   4.210   2.127  0.1751 -1.6501  0.1189
 2979TIP3    H230497   4.648   4.174   2.274  0.6043  1.6417  0.9975
 2980TIP3   OH230498   4.757   2.715   0.211 -0.2028 -0.0122 -0.4539
 2980TIP3    H130499   4.703   2.738   0.287  1.7447 -1.3559  1.4491
 2980TIP3    H230500   4.821   2.786   0.206  1.8488 -1.5641  1.4746
 2981TIP3   OH230501   4.961   3.486   1.794 -0.2997 -0.0756  0.1822
 2981TIP3    H130502   4.979   3.468   1.886 -2.5085 -2.3831  0.2692
 2981TIP3    H230503   5.048   3.499   1.755  0.7362  0.1141  2.4081
 2982TIP3   OH230504   2.740   0.262   2.153 -0.0089 -0.4028 -0.0999
 2982TIP3    H130505   2.771   0.205   2.223 -0.3472  1.0306  1.2898
 2982TIP3    H230506   2.697   0.204   2.090 -0.8027 -1.6253  1.5120
 2983TIP3   OH230507   4.455   0.699   1.804  0.0803  0.2096  0.0011
 2983TIP3    H130508   4.503   0.760   1.749  1.6794 -0.3579  0.7094
 2983TIP3    H230509   4.521   0.663   1.864 -0.7071 -2.3872 -0.5429
 2984TIP3   OH230510   3.722   2.972   7.803  0.0996 -0.7175  0.4105
 2984TIP3    H130511   3.782   3.046   7.813  1.0477 -1.0024 -2.4388
 2984TIP3    H230512   3.636   3.008   7.824  0.8017  0.6433  1.0519
 2985TIP3   OH230513   3.139   2.744   7.208  0.1247 -0.0459 -0.5735
 2985TIP3    H130514   3.076   2.688   7.162 -0.5657 -0.0514  0.3497
 2985TIP3    H230515   3.123   2.832   7.174 -0.9088  0.0747  0.1775
 2986TIP3   OH230516   6.754   5.193   2.588  0.1720  0.3813 -0.8278
 2986TIP3    H130517   6.798   5.132   2.647 -1.6665 -0.9468 -0.7568
 2986TIP3    H230518   6.802   5.275   2.598  2.4834 -0.9114 -0.6378
 2987TIP3   OH230519   1.347   5.917   7.329 -0.1555 -0.5159 -0.1574
 2987TIP3    H130520   1.424   5.912   7.273 -0.7304 -1.3258 -0.8968
 2987TIP3    H230521   1.332   6.011   7.340  3.0012 -0.1405  2.9762
 2988TIP3   OH230522   1.307   1.180   1.571 -0.0560  0.3261 -0.2684
 2988TIP3    H130523   1.214   1.165   1.586  0.0289  0.6798  0.7523
 2988TIP3    H230524   1.312   1.218   1.484 -0.8058 -0.2476 -0.5707
 2989TIP3   OH230525   4.922   3.028   1.216  0.0986  0.3442 -0.0298
 2989TIP3    H130526   4.832   3.048   1.240 -0.2602 -2.5412  1.5261
 2989TIP3    H230527   4.968   3.021   1.300  0.0371 -4.9962 -0.1057
 2990TIP3   OH230528   3.453   5.078   1.550 -0.4301 -0.0406 -0.6839
 2990TIP3    H130529   3.473   5.086   1.643  0.3642 -3.8290 -0.3894
 2990TIP3    H230530   3.535   5.100   1.506  0.4426 -2.0121 -0.1814
 2991TIP3   OH230531   3.940   5.139   0.811 -0.5485 -0.5763  0.6478
 2991TIP3    H130532   4.030   5.106   0.809 -0.2289  0.1815  1.8955
 2991TIP3    H230533   3.910   5.131   0.720  1.1086  0.0245  0.0013
 2992TIP3   OH230534   5.620   2.037   7.970 -0.4924  0.3858 -0.5290
 2992TIP3    H130535   5.581   2.113   7.926 -0.8265 -0.5192 -1.8783
 2992TIP3    H230536   5.596   1.963   7.914  1.4779 -0.4710 -0.3071
 2993TIP3   OH230537   1.838   1.585   2.205  0.0732 -0.0058 -0.1727
 2993TIP3    H130538   1.809   1.674   2.224 -0.6652 -0.1357 -0.6520
 2993TIP3    H230539   1.768   1.529   2.238 -0.5125 -0.2982 -1.7874
 2994TIP3   OH230540   6.215   2.165   2.182  0.5391  0.3054  0.0800
 2994TIP3    H130541   6.237   2.139   2.271  1.5881 -0.6780 -0.4356
 2994TIP3    H230542   6.123   2.191   2.186  0.3218 -0.5696  1.2732
 2995TIP3   OH230543   2.818   1.784   0.800 -0.4100  0.0080 -0.3996
 2995TIP3    H130544   2.818   1.689   0.814  0.0736  0.1340  0.5496
 2995TIP3    H230545   2.908   1.811   0.817 -0.6107  0.6754 -0.3767
 2996TIP3   OH230546   6.020   6.402   1.149  0.2711  0.0234  0.8333
 2996TIP3    H130547   5.982   6.436   1.068  0.7558 -0.2367  0.4903
 2996TIP3    H230548   6.114   6.394   1.131 -0.0823 -4.2453 -0.1964
 2997TIP3   OH230549   2.889   5.320   2.279 -0.3029  0.0275 -0.3121
 2997TIP3    H130550   2.832   5.244   2.287 -1.5314  1.0318  0.7798
 2997TIP3    H230551   2.902   5.330   2.185  1.0969 -2.3601 -0.4820
 2998TIP3   OH230552   5.765   3.342   8.327 -0.2149  0.1453  0.0617
 2998TIP3    H130553   5.852   3.381   8.334 -0.3373  0.5792 -0.6944
 2998TIP3    H230554   5.717   3.379   8.401  0.8043 -1.6988  1.7466
 2999TIP3   OH230555   3.610   2.554   8.748  0.1531 -0.4078 -0.0543
 2999TIP3    H130556   3.534   2.601   8.713  0.3811  1.4838  1.7839
 2999TIP3    H230557   3.578   2.466   8.766 -1.3407  0.0904 -0.1813
 3000TIP3   OH230558   6.090   6.041   8.744 -0.3383  0.4287  0.0414
 3000TIP3    H130559   6.031   6.023   8.818 -0.4586 -0.6677 -0.2965
 3000TIP3    H230560   6.068   6.130   8.717 -2.0539 -0.0382 -0.2516
 3001TIP3   OH230561   4.272   3.195   7.186 -0.5258 -0.0280 -0.2052
 3001TIP3    H130562   4.259   3.201   7.280 -0.8543  2.5512 -0.3585
 3001TIP3    H230563   4.204   3.135   7.156 -0.6934 -0.5374  1.1298
 3002TIP3   OH230564   4.870   2.467   0.134 -0.4035  1.0276 -0.2189
 3002TIP3    H130565   4.866   2.466   0.038 -0.7273  1.0215 -0.2055
 3002TIP3    H230566   4.835   2.552   0.159 -1.0694  0.7166 -0.0746
 3003TIP3   OH230567   4.240   4.815   2.205 -0.1804  0.2515 -0.7612
 3003TIP3    H130568   4.316   4.782   2.157 -0.0909 -0.8130  0.0688
 3003TIP3    H230569   4.270   4.821   2.296 -0.4521  1.8964 -0.7480
 3004TIP3   OH230570   4.321   2.315   0.380  0.0914  0.2608 -0.2756
 3004TIP3    H130571   4.311   2.229   0.421  1.1584  0.0971 -0.3183
 3004TIP3    H230572   4.270   2.374   0.435  1.2153 -0.0067  1.1464
 3005TIP3   OH230573   2.438   4.019   6.663 -0.1444 -0.2227  0.0607
 3005TIP3    H130574   2.346   3.994   6.671 -0.1752 -0.3833 -0.7719
 3005TIP3    H230575   2.486   3.940   6.686 -0.1338  0.4788  2.9105
 3006TIP3   OH230576   5.583   5.727   1.040  0.4144 -0.1386 -0.0959
 3006TIP3    H130577   5.671   5.764   1.040 -0.4305  2.0400 -1.2455
 3006TIP3    H230578   5.526   5.802   1.056 -1.3822 -0.9280 -2.3144
 3007TIP3   OH230579   4.852   2.645   6.921  0.1655  0.5121 -0.3230
 3007TIP3    H130580   4.880   2.666   7.010  0.9107  0.3726 -0.5154
 3007TIP3    H230581   4.807   2.723   6.891 -0.1905  0.5186  0.2145
 3008TIP3   OH230582   4.718   6.325   1.609 -0.1542  0.0950 -0.0054
 3008TIP3    H130583   4.627   6.302   1.630 -0.0829  0.4553  0.6907
 3008TIP3    H230584   4.733   6.284   1.523 -0.9917  0.0896 -0.1560
 3009TIP3   OH230585   1.526   5.322   1.516 -0.4918  0.1988  0.1282
 3009TIP3    H130586   1.508   5.354   1.605  1.0725  0.1265  0.4939
 3009TIP3    H230587   1.539   5.402   1.465 -0.4153  0.2256  0.1883
 3010TIP3   OH230588   0.301   5.930   7.846 -0.2996 -0.2173  0.1362
 3010TIP3    H130589   0.321   5.860   7.784 -1.3372 -0.4986  0.1056
 3010TIP3    H230590   0.350   5.907   7.925 -0.2812 -0.7407 -0.0227
 3011TIP3   OH230591   2.537   5.432   7.575  0.6661  0.2570 -0.0024
 3011TIP3    H130592   2.542   5.493   7.649  1.2391 -0.6609  0.7324
 3011TIP3    H230593   2.627   5.403   7.562  0.3894 -0.4556 -0.3234
 3012TIP3   OH230594   3.279   1.496   0.087  0.0662  0.0707  0.7832
 3012TIP3    H130595   3.367   1.518   0.117 -1.6007  1.5635  5.3276
 3012TIP3    H230596   3.239   1.580   0.064 -0.6604 -0.4338  0.0869
 3013TIP3   OH230597   3.509   6.685   6.975 -0.1709  0.0956 -1.2592
 3013TIP3    H130598   3.474   6.717   6.892  0.1753  0.2044 -1.3656
 3013TIP3    H230599   3.526   6.764   7.026 -2.2504 -0.0146 -0.2928
 3014TIP3   OH230600   4.095   1.484   6.811  0.4481  0.3038 -0.2968
 3014TIP3    H130601   4.116   1.394   6.836 -1.5821 -0.1008  0.1263
 3014TIP3    H230602   4.130   1.493   6.722  2.9695 -0.0071  0.5733
 3015TIP3   OH230603   5.125   0.459   1.890 -0.2845 -0.0977 -0.3725
 3015TIP3    H130604   5.198   0.520   1.893 -2.0416  2.1754 -1.0583
 3015TIP3    H230605   5.132   0.409   1.972  1.8174  0.2612 -0.2838
 3016TIP3   OH230606   4.659   0.741   0.551  0.0775  0.4053  0.0890
 3016TIP3    H130607   4.623   0.652   0.550  1.1693 -0.0601 -1.3337
 3016TIP3    H230608   4.619   0.782   0.628 -0.7178 -1.1955  0.5787
 3017TIP3   OH230609   2.664   2.845   1.887 -0.5656 -0.0716 -0.4848
 3017TIP3    H130610   2.717   2.857   1.967 -0.8616 -0.1455 -0.2767
 3017TIP3    H230611   2.574   2.844   1.918 -0.6172 -2.0559 -0.5745
 3018TIP3   OH230612   6.528   2.681   0.665  0.4753  0.2379  0.4830
 3018TIP3    H130613   6.476   2.718   0.736  1.2036  0.9240  0.6790
 3018TIP3    H230614   6.614   2.666   0.704  0.7739  0.2735 -0.1473
 3019TIP3   OH230615   2.890   6.650   8.530  0.0026 -0.1820 -0.3279
 3019TIP3    H130616   2.925   6.580   8.585  0.7121 -0.1762 -0.7543
 3019TIP3    H230617   2.876   6.723   8.591  0.0848 -0.4076 -0.0328
 3020TIP3   OH230618   0.082   3.936   0.921  0.4969 -0.1647  0.2703
 3020TIP3    H130619  -0.001   3.921   0.966  0.6353  0.2852  0.6987
 3020TIP3    H230620   0.148   3.896   0.979  0.8586  1.9080  1.3923
 3021TIP3   OH230621   2.726   4.502   0.112  0.0419 -0.1716  0.1605
 3021TIP3    H130622   2.770   4.541   0.036  0.5787 -2.0973 -0.5979
 3021TIP3    H230623   2.743   4.562   0.184  1.3412  0.6642 -0.7999
 3022TIP3   OH230624   6.316   3.204   0.220  0.1440 -0.2020 -0.4912
 3022TIP3    H130625   6.303   3.144   0.147 -1.1187  1.6333 -1.8628
 3022TIP3    H230626   6.279   3.287   0.190  0.0693  0.7757  2.0370
 3023TIP3   OH230627   1.704   3.660   7.006 -0.2208 -0.3688 -0.1575
 3023TIP3    H130628   1.700   3.714   6.928 -0.3164 -0.3104 -0.1127
 3023TIP3    H230629   1.614   3.630   7.020  0.0138 -1.4480 -0.8203
 3024TIP3   OH230630   4.684   6.372   8.625 -0.2117 -0.5220  0.3282
 3024TIP3    H130631   4.692   6.447   8.683  0.9904  1.1368 -1.8121
 3024TIP3    H230632   4.604   6.387   8.576 -1.0380 -1.7318  1.2328
 3025TIP3   OH230633   2.607   6.339   8.815  0.0547  0.1406  0.0473
 3025TIP3    H130634   2.526   6.381   8.785  0.2561  1.4981  1.3049
 3025TIP3    H230635   2.599   6.248   8.784 -2.4484 -0.0626  1.0351
 3026TIP3   OH230636   3.183   6.271   1.076 -0.2851 -0.7010  0.0616
 3026TIP3    H130637   3.172   6.184   1.115 -2.5542  0.3210  1.9533
 3026TIP3    H230638   3.096   6.311   1.083  0.5270  1.4597 -1.4251
 3027TIP3   OH230639   6.136   3.447   8.609 -0.8247 -0.0871  0.7503
 3027TIP3    H130640   6.068   3.380   8.611 -1.1864  0.1918 -0.8266
 3027TIP3    H230641   6.090   3.528   8.588 -0.1508  0.3036  0.7376
 3028TIP3   OH230642   2.927   3.866   8.360  0.4788  0.4129 -0.1718
 3028TIP3    H130643   2.895   3.948   8.399 -1.9046 -0.0928 -0.8783
 3028TIP3    H230644   2.917   3.880   8.266  0.3653 -0.5610 -0.3073
 3029TIP3   OH230645   6.335   4.733   1.047 -0.5171  0.3036  0.2390
 3029TIP3    H130646   6.341   4.800   0.979  0.7814  0.2354  0.2591
 3029TIP3    H230647   6.241   4.720   1.060 -0.7941  0.5952 -1.2663
 3030TIP3   OH230648   0.241   5.917   1.472 -0.3908  0.5297 -0.3998
 3030TIP3    H130649   0.305   5.845   1.464 -1.4135 -0.1591 -3.4804
 3030TIP3    H230650   0.256   5.971   1.395 -1.2061  2.3665  0.6831
 3031TIP3   OH230651   1.019   5.864   2.505 -0.1020  0.7417  0.4243
 3031TIP3    H130652   1.094   5.817   2.541 -0.2775  0.5534  0.5480
 3031TIP3    H230653   0.972   5.897   2.581 -0.4883  0.3222  0.3748
 3032TIP3   OH230654   5.254   4.885   8.254  0.2626  0.0837 -0.0348
 3032TIP3    H130655   5.338   4.930   8.258  1.6068 -2.1374 -1.0138
 3032TIP3    H230656   5.202   4.936   8.191  1.3205  0.8491 -0.3089
 3033TIP3   OH230657   1.449   3.109   1.548  0.0995 -0.4779  0.4672
 3033TIP3    H130658   1.388   3.165   1.500  2.2436  1.7257  0.1357
 3033TIP3    H230659   1.492   3.058   1.480  0.9835  0.4362  0.3219
 3034TIP3   OH230660   0.831   6.253   2.194 -0.0255  0.1559  0.0284
 3034TIP3    H130661   0.856   6.344   2.211  1.5616 -0.2206 -0.0748
 3034TIP3    H230662   0.799   6.220   2.278 -2.0315  1.1955 -0.2737
 3035TIP3   OH230663   3.088   6.462   2.787  0.0893  0.0158 -0.2594
 3035TIP3    H130664   3.011   6.441   2.735  1.0483  0.1680 -1.7952
 3035TIP3    H230665   3.081   6.557   2.801  0.4337  0.1852 -1.1622
 3036TIP3   OH230666   4.863   4.549   8.652 -0.6890  0.9791 -0.3281
 3036TIP3    H130667   4.806   4.485   8.695 -2.3824  1.7431 -1.3208
 3036TIP3    H230668   4.915   4.586   8.723 -0.0691 -1.0398  0.3509
 3037TIP3   OH230669   3.968   1.033   7.724 -0.1423  0.3140  0.0971
 3037TIP3    H130670   4.036   1.100   7.713  2.0433 -0.9367  3.9814
 3037TIP3    H230671   3.987   0.968   7.657  0.4921  1.4192 -0.8399
 3038TIP3   OH230672   4.574   3.805   1.618  0.0227 -0.1296  0.0773
 3038TIP3    H130673   4.481   3.785   1.620  0.1893 -0.9238  1.6792
 3038TIP3    H230674   4.614   3.732   1.570 -0.3995  1.6421 -3.2994
 3039TIP3   OH230675   3.503   3.115   6.724 -0.5864  0.1599  0.0159
 3039TIP3    H130676   3.573   3.101   6.661 -1.4623 -0.8032 -0.7805
 3039TIP3    H230677   3.548   3.133   6.807  0.5763  0.7383 -0.7134
 3040TIP3   OH230678   5.143   4.411   7.815  0.1303  0.4051  0.4654
 3040TIP3    H130679   5.138   4.506   7.809 -1.4349  0.2842 -0.8140
 3040TIP3    H230680   5.088   4.389   7.891  0.4569  0.5209  0.7351
 3041TIP3   OH230681   2.679   3.741   8.423  0.0733 -0.0115 -0.2220
 3041TIP3    H130682   2.633   3.725   8.340 -1.4052  0.2648  0.5040
 3041TIP3    H230683   2.768   3.765   8.397  0.5279 -2.8048 -1.6111
 3042TIP3   OH230684   1.628   3.645   1.554 -0.5003 -0.3124 -0.1384
 3042TIP3    H130685   1.672   3.591   1.619  0.1420  0.6708  0.2689
 3042TIP3    H230686   1.646   3.602   1.470 -1.9124 -1.9730  0.3474
 3043TIP3   OH230687   6.598   1.881   0.134  0.3423  0.2273 -0.3643
 3043TIP3    H130688   6.688   1.889   0.163  0.9878 -0.1430 -2.1359
 3043TIP3    H230689   6.560   1.968   0.148  0.8646  0.3134  0.6431
 3044TIP3   OH230690   4.010   0.281   8.311 -0.1934 -0.2640 -0.1406
 3044TIP3    H130691   4.003   0.341   8.236  0.1631 -0.7459 -0.5645
 3044TIP3    H230692   3.991   0.336   8.387 -0.8262  0.1779 -0.6019
 3045TIP3   OH230693   3.122   1.877   7.697  0.3845 -0.0404  0.0119
 3045TIP3    H130694   3.175   1.948   7.660  1.1111  0.2689  1.5612
 3045TIP3    H230695   3.071   1.844   7.623  0.7107  1.4837 -0.9368
 3046TIP3   OH230696   1.479   2.883   7.616 -0.3672  0.3971  0.0337
 3046TIP3    H130697   1.455   2.914   7.703  1.3473  0.6397  0.4673
 3046TIP3    H230698   1.552   2.823   7.631  0.5955  1.1805 -1.2838
 3047TIP3   OH230699   4.899   2.973   0.188  0.2147 -0.4173 -0.4770
 3047TIP3    H130700   4.937   2.945   0.105 -0.2003 -1.2546 -0.3984
 3047TIP3    H230701   4.804   2.972   0.174  0.1788  0.7450 -0.3917
 3048TIP3   OH230702   4.999   4.264   2.281 -0.0357 -0.5619 -0.1370
 3048TIP3    H130703   4.929   4.240   2.221  0.3613  1.3404 -1.4507
 3048TIP3    H230704   5.006   4.190   2.341 -0.8955 -2.2521 -2.0275
 3049TIP3   OH230705   2.688   4.362   7.232 -0.4247 -0.2783 -0.3461
 3049TIP3    H130706   2.658   4.272   7.241 -0.3927 -0.3312 -0.7532
 3049TIP3    H230707   2.777   4.362   7.267 -0.1887 -0.5440 -0.9445
 3050TIP3   OH230708   3.416   5.226   0.587 -0.2092 -0.2741  0.0045
 3050TIP3    H130709   3.459   5.305   0.620 -0.7041 -0.2534  0.6213
 3050TIP3    H230710   3.404   5.241   0.493 -0.6172  0.5281  0.1851
 3051TIP3   OH230711   5.938   0.789   8.637 -0.4886 -0.1307 -0.0076
 3051TIP3    H130712   5.986   0.825   8.562 -2.8048 -1.6732 -2.4157
 3051TIP3    H230713   5.869   0.853   8.654 -0.7426 -0.3846 -0.0690
 3052TIP3   OH230714   5.967   0.767   8.318  0.2586  0.0110 -0.8953
 3052TIP3    H130715   5.876   0.794   8.332  0.3896  0.4885 -0.9367
 3052TIP3    H230716   5.977   0.687   8.370 -0.2494 -0.1702 -1.0763
 3053TIP3   OH230717   3.008   5.991   0.551  0.0755  0.7715  0.2475
 3053TIP3    H130718   2.951   6.034   0.487 -0.6722  1.0623  1.0963
 3053TIP3    H230719   3.003   6.046   0.628 -0.3683 -0.4593  1.1348
 3054TIP3   OH230720   6.490   6.366   6.593 -0.5205 -0.3365 -0.3040
 3054TIP3    H130721   6.567   6.416   6.565 -0.3784 -1.2362 -1.5981
 3054TIP3    H230722   6.451   6.419   6.663  0.1871  1.0668 -0.9371
 3055TIP3   OH230723   1.332   5.693   0.789 -0.7106 -0.5513 -0.2988
 3055TIP3    H130724   1.388   5.760   0.830 -1.5290 -0.7070  1.1453
 3055TIP3    H230725   1.380   5.666   0.711  0.3685  0.6121 -0.0743
 3056TIP3   OH230726   3.545   0.271   8.025  0.1877  0.2353  0.3414
 3056TIP3    H130727   3.579   0.223   8.101  0.8570  1.0098  0.5451
 3056TIP3    H230728   3.513   0.202   7.966  0.4881 -0.4252  0.9282
 3057TIP3   OH230729   6.408   6.022   2.036 -0.0134 -0.3258  0.1219
 3057TIP3    H130730   6.492   6.030   2.081 -0.2807  1.7085  0.3521
 3057TIP3    H230731   6.352   6.089   2.077 -1.7425 -1.5632 -0.0795
 3058TIP3   OH230732   3.200   5.830   0.881 -0.2776  0.1694  0.0739
 3058TIP3    H130733   3.204   5.813   0.975  2.1592 -1.5741 -0.2491
 3058TIP3    H230734   3.171   5.747   0.843  2.2792 -0.3643 -0.8955
 3059TIP3   OH230735   4.277   4.843   7.685  0.2947 -0.0203  0.1919
 3059TIP3    H130736   4.349   4.903   7.662  0.8466 -0.5454  0.5244
 3059TIP3    H230737   4.201   4.879   7.639  0.9827 -0.0113 -0.9756
 3060TIP3   OH230738   2.628   1.323   8.219 -0.2891  0.0316  0.2218
 3060TIP3    H130739   2.655   1.234   8.201 -2.2376 -0.4169 -0.7869
 3060TIP3    H230740   2.643   1.335   8.313  0.0513 -1.3213  0.3498
 3061TIP3   OH230741   0.943   1.953   7.793  0.2913  0.3400  0.4395
 3061TIP3    H130742   0.883   1.900   7.741 -1.7757  2.5329  0.3914
 3061TIP3    H230743   0.924   1.929   7.883  0.3223  0.0516  0.3698
 3062TIP3   OH230744   3.803   5.485   0.013 -0.0790 -0.5629  0.0541
 3062TIP3    H130745   3.870   5.428  -0.025  1.4164  0.9006  0.3565
 3062TIP3    H230746   3.821   5.571  -0.025 -1.7690 -0.1121  0.2098
 3063TIP3   OH230747   2.405   1.116   0.965  0.1094  0.1634  0.1732
 3063TIP3    H130748   2.489   1.162   0.973 -0.0828  0.8081 -1.2872
 3063TIP3    H230749   2.366   1.149   0.884 -1.0244 -1.0112  0.1947
 3064TIP3   OH230750   2.198   0.405   1.151  0.7119 -0.5221 -0.7196
 3064TIP3    H130751   2.244   0.404   1.067  2.4255  0.9265  0.1302
 3064TIP3    H230752   2.156   0.491   1.154 -1.0032 -1.3179 -0.8939
 3065TIP3   OH230753   2.834   2.563   7.658 -0.1952 -0.3786 -0.2087
 3065TIP3    H130754   2.885   2.545   7.579  1.1064 -0.0731  0.5227
 3065TIP3    H230755   2.773   2.490   7.666  0.7299 -1.2145 -0.6524
 3066TIP3   OH230756   2.428   1.459   1.639  0.3179  0.0533  0.3904
 3066TIP3    H130757   2.375   1.523   1.686 -0.9189 -1.7767  1.5811
 3066TIP3    H230758   2.396   1.374   1.668  1.5513 -1.1547 -1.5274
 3067TIP3   OH230759   4.657   4.417   8.824  0.2914 -0.1744 -0.2875
 3067TIP3    H130760   4.633   4.337   8.777  0.0364  0.1855 -0.7815
 3067TIP3    H230761   4.606   4.485   8.781  0.4503  0.2424  0.1836
 3068TIP3   OH230762   0.233   2.613   0.904  0.1467  0.0377  0.5689
 3068TIP3    H130763   0.171   2.582   0.837 -0.5344  0.5356  0.9503
 3068TIP3    H230764   0.317   2.575   0.878  0.0184  0.6714 -0.8982
 3069TIP3   OH230765   2.984   0.690   1.530 -0.4328 -0.3041  0.1758
 3069TIP3    H130766   2.991   0.742   1.450 -0.1880 -0.6222 -0.0114
 3069TIP3    H230767   2.987   0.599   1.500 -0.3516 -0.4255  0.5444
 3070TIP3   OH230768   1.981   2.546   0.218 -0.1166 -0.3813 -0.1936
 3070TIP3    H130769   2.034   2.603   0.162 -0.8424  0.8627  0.3499
 3070TIP3    H230770   1.986   2.586   0.305  0.6525 -2.0466  0.5859
 3071TIP3   OH230771   0.693   0.904   7.625  0.2419 -0.0452  0.2142
 3071TIP3    H130772   0.752   0.848   7.575 -0.3645  0.0723 -0.6455
 3071TIP3    H230773   0.612   0.854   7.632 -0.1120  0.4759 -0.0656
 3072TIP3   OH230774   3.017   6.352   2.337  1.0165 -0.3788  0.3974
 3072TIP3    H130775   3.088   6.297   2.305  1.6017  0.0942  0.8687
 3072TIP3    H230776   3.003   6.323   2.427  1.6263  0.5389  0.7932
 3073TIP3   OH230777   1.706   5.897   6.985  0.0430  0.4895  0.4796
 3073TIP3    H130778   1.733   5.973   6.934  0.2495  1.3223  1.7846
 3073TIP3    H230779   1.641   5.854   6.930  0.9162  0.8203 -0.8816
 3074TIP3   OH230780   1.440   3.733   1.747  0.1713  0.7237  0.0517
 3074TIP3    H130781   1.409   3.652   1.787  0.5861  0.4938 -0.0847
 3074TIP3    H230782   1.502   3.704   1.679  0.8038  1.1737  0.4303
 3075TIP3   OH230783   3.001   2.849   1.232  0.6883  0.4845  0.0697
 3075TIP3    H130784   2.944   2.926   1.233 -1.6746 -1.1416  0.0462
 3075TIP3    H230785   2.996   2.818   1.141 -0.0615 -0.8119  0.5324
 3076TIP3   OH230786   0.712   5.168   7.596 -0.6960  0.6798  0.3716
 3076TIP3    H130787   0.625   5.137   7.620  0.2683 -1.3999  1.3741
 3076TIP3    H230788   0.750   5.097   7.544  0.7659  1.1150  0.7822
 3077TIP3   OH230789   4.709   5.064   2.288 -0.0381 -0.2500 -0.2752
 3077TIP3    H130790   4.703   5.063   2.192 -1.1125 -1.1028 -0.2248
 3077TIP3    H230791   4.765   5.138   2.308  1.1469 -0.7415 -1.6122
 3078TIP3   OH230792   0.665   5.036   0.369 -0.2321  0.0190  0.1433
 3078TIP3    H130793   0.650   5.022   0.275  1.3140 -1.1970  0.0405
 3078TIP3    H230794   0.645   5.128   0.383 -0.8269  0.1350 -1.3150
 3079TIP3   OH230795   5.917   2.901   0.558  0.3061  0.3763  0.4437
 3079TIP3    H130796   5.921   2.906   0.654  0.8025  0.4903  0.4197
 3079TIP3    H230797   6.009   2.900   0.530  0.1751  2.1391 -0.1358
 3080TIP3   OH230798   3.371   2.834   1.559  0.1731 -0.0928  0.0822
 3080TIP3    H130799   3.422   2.910   1.530  1.0776  0.3142  2.5173
 3080TIP3    H230800   3.422   2.758   1.530  0.3467  0.2517 -0.5353
 3081TIP3   OH230801   4.395   2.257   0.785 -0.8289  0.2298  0.5647
 3081TIP3    H130802   4.425   2.343   0.753  1.4722 -0.7413 -0.0918
 3081TIP3    H230803   4.470   2.223   0.835 -1.3051 -1.8137 -0.0431
 3082TIP3   OH230804   0.442   1.826   6.971  0.4263 -0.4099 -0.5093
 3082TIP3    H130805   0.414   1.912   7.002 -0.4206 -1.3925  1.6358
 3082TIP3    H230806   0.507   1.845   6.903 -1.1063  1.9000 -1.4299
 3083TIP3   OH230807   0.618   2.531   1.212 -0.5041  0.0819 -0.2867
 3083TIP3    H130808   0.695   2.508   1.264 -1.3218  0.1486  0.9968
 3083TIP3    H230809   0.574   2.600   1.262 -0.7287  0.9630 -1.6362
 3084TIP3   OH230810   1.115   6.097   0.372  0.2499  0.4529 -0.0941
 3084TIP3    H130811   1.150   6.044   0.301  3.6406  1.0260  0.9455
 3084TIP3    H230812   1.186   6.100   0.437 -1.6503  2.1865  2.0799
 3085TIP3   OH230813   0.355   1.833   7.762 -0.2394 -0.1746  0.1107
 3085TIP3    H130814   0.301   1.804   7.836 -0.7377 -1.8252 -0.8491
 3085TIP3    H230815   0.292   1.869   7.700  0.1348  0.8175  0.2839
 3086TIP3   OH230816   0.070   6.373   7.131  0.4188 -0.0399 -0.1090
 3086TIP3    H130817   0.096   6.464   7.123  0.6074 -0.1271 -0.5118
 3086TIP3    H230818   0.146   6.330   7.171  0.2596  0.0110  0.2550
 3087TIP3   OH230819   1.347   4.189   6.809  0.3836  0.0769 -0.2611
 3087TIP3    H130820   1.258   4.160   6.789  0.3139 -1.4924  1.9904
 3087TIP3    H230821   1.377   4.231   6.729 -1.7727 -0.8435 -1.6381
 3088TIP3   OH230822   5.868   6.214   0.917  0.0705 -0.1367 -0.1890
 3088TIP3    H130823   5.813   6.167   0.855  1.1939 -2.0438  0.1858
 3088TIP3    H230824   5.911   6.146   0.969 -0.0570  1.3464  2.0439
 3089TIP3   OH230825   4.653   0.190   6.574 -0.0329 -0.5824 -0.3274
 3089TIP3    H130826   4.595   0.205   6.649 -1.5177 -0.8753 -1.3937
 3089TIP3    H230827   4.733   0.239   6.597 -1.1191  0.8352  0.6426
 3090TIP3   OH230828   0.372   2.521   7.648 -0.7774  0.2910 -0.8408
 3090TIP3    H130829   0.463   2.546   7.662 -0.9094  1.0330 -1.2346
 3090TIP3    H230830   0.368   2.498   7.556 -1.2832  1.6629 -1.1896
 3091TIP3   OH230831   4.629   0.697   2.013 -0.1932  0.0101  0.0627
 3091TIP3    H130832   4.574   0.665   2.085 -0.8462  0.8974 -0.0145
 3091TIP3    H230833   4.680   0.768   2.052 -1.0248  0.9361 -0.4718
 3092TIP3   OH230834   3.882   6.267   6.694  0.7126  0.4101  0.1419
 3092TIP3    H130835   3.951   6.303   6.749  0.2845  0.5166  0.6239
 3092TIP3    H230836   3.859   6.339   6.635  0.6302  0.5662  0.3588
 3093TIP3   OH230837   4.264   6.648   6.671  0.2231  0.3727  0.5139
 3093TIP3    H130838   4.244   6.740   6.653  2.1425  0.9065  0.8657
 3093TIP3    H230839   4.276   6.609   6.585 -1.6566  0.1412  0.3102
 3094TIP3   OH230840   1.679   6.201   8.002 -0.1838  0.6210 -0.1550
 3094TIP3    H130841   1.702   6.259   7.929  1.4639  0.5459  0.2815
 3094TIP3    H230842   1.643   6.259   8.068  1.0543  1.1204  0.1102
 3095TIP3   OH230843   0.737   2.807   8.018 -0.5653  0.0163 -0.0177
 3095TIP3    H130844   0.734   2.720   8.057  0.7360 -0.4538 -0.8805
 3095TIP3    H230845   0.669   2.806   7.951 -2.6579  0.7526  1.9933
 3096TIP3   OH230846   4.589   4.223   1.417 -1.0377  0.2242  0.4869
 3096TIP3    H130847   4.597   4.181   1.502 -3.6750  1.6138  1.5074
 3096TIP3    H230848   4.666   4.279   1.410 -0.6700 -0.0938  1.8284
 3097TIP3   OH230849   0.895   2.232   2.103 -0.3997  0.1887  0.4777
 3097TIP3    H130850   0.972   2.198   2.148  0.1270 -0.6912 -1.0035
 3097TIP3    H230851   0.919   2.322   2.080  0.0124  0.0667  0.4147
 3098TIP3   OH230852   1.538   3.757   7.995 -0.3575  0.2471 -0.1610
 3098TIP3    H130853   1.526   3.700   8.071  0.4306 -0.2422 -0.3880
 3098TIP3    H230854   1.455   3.804   7.987 -0.3247  0.6006  1.2355
 3099TIP3   OH230855   6.568   5.131   1.735  0.2210  0.5973 -0.6086
 3099TIP3    H130856   6.564   5.080   1.653  1.4593  1.5675 -1.3083
 3099TIP3    H230857   6.479   5.164   1.747 -0.7792 -2.0797  0.1487
 3100TIP3   OH230858   0.357   1.740   1.770 -0.3185 -0.1616 -0.2125
 3100TIP3    H130859   0.359   1.802   1.698 -0.1458  0.5873  0.4236
 3100TIP3    H230860   0.277   1.760   1.817  0.6777  0.9244  1.1218
 3101TIP3   OH230861   3.587   6.691   7.776  0.0378 -0.2913  0.2378
 3101TIP3    H130862   3.593   6.603   7.815  0.5150 -0.2602  0.2396
 3101TIP3    H230863   3.587   6.675   7.681  1.5773 -0.2172  0.2116
 3102TIP3   OH230864   6.410   0.374   2.432  0.1526  0.4144 -0.1827
 3102TIP3    H130865   6.421   0.382   2.527  0.2241 -0.8735 -0.0565
 3102TIP3    H230866   6.473   0.436   2.395 -0.5658  1.6602  0.5931
 3103TIP3   OH230867   6.261   2.547   8.684 -0.2044  0.6354  0.0895
 3103TIP3    H130868   6.277   2.533   8.777  0.2176 -2.1342 -0.3203
 3103TIP3    H230869   6.174   2.511   8.669  0.7252 -1.3323 -0.9737
 3104TIP3   OH230870   2.111   1.170   7.368 -0.2839 -0.6125  0.1656
 3104TIP3    H130871   2.137   1.132   7.284  1.8362 -0.1241  0.5436
 3104TIP3    H230872   2.091   1.262   7.347 -3.4621 -1.3100 -0.3934
 3105TIP3   OH230873   1.958   5.937   1.555 -0.5365 -0.3350 -0.3491
 3105TIP3    H130874   1.873   5.906   1.587 -0.1377 -2.1100 -0.9086
 3105TIP3    H230875   2.009   5.952   1.635 -1.9882  2.8716  0.1246
 3106TIP3   OH230876   5.307   5.070   7.154  0.0537 -0.5928  0.1373
 3106TIP3    H130877   5.229   5.115   7.185 -0.6712 -0.6872 -1.4655
 3106TIP3    H230878   5.276   4.987   7.119  0.7790 -0.4155 -0.9893
 3107TIP3   OH230879   6.661   4.881   7.458  0.4056 -0.4403  0.0232
 3107TIP3    H130880   6.708   4.814   7.507  0.5999  0.4622  1.1185
 3107TIP3    H230881   6.651   4.844   7.370 -0.3240 -2.2840  0.8241
 3108TIP3   OH230882   4.662   3.012   0.508 -0.1237  0.2358 -0.1712
 3108TIP3    H130883   4.572   3.006   0.539 -1.1172 -0.0787 -2.8714
 3108TIP3    H230884   4.694   3.095   0.545 -1.0862 -0.1834  1.7323
 3109TIP3   OH230885   6.348   4.065   0.898  0.9385 -0.8515  0.4818
 3109TIP3    H130886   6.319   4.021   0.979 -1.2549  2.0665  1.4843
 3109TIP3    H230887   6.400   4.139   0.929 -0.8822  0.9900 -0.5689
 3110TIP3   OH230888   3.443   1.290   8.034 -0.5823  0.0871  0.0384
 3110TIP3    H130889   3.412   1.266   7.947 -0.7491  0.8938 -0.1355
 3110TIP3    H230890   3.515   1.229   8.052 -1.5525 -1.1097  0.0007
 3111TIP3   OH230891   0.782   0.750   2.070  0.3068 -0.0932  0.8683
 3111TIP3    H130892   0.759   0.835   2.107 -0.8170 -0.1156  0.2946
 3111TIP3    H230893   0.747   0.687   2.132 -1.4637 -0.1291 -0.0746
 3112TIP3   OH230894   4.208   2.254   2.687  0.0837 -0.1018  0.5779
 3112TIP3    H130895   4.123   2.257   2.642  0.4281  0.3645 -0.0617
 3112TIP3    H230896   4.237   2.345   2.690  1.3644 -0.4242 -0.8012
 3113TIP3   OH230897   3.462   2.032   8.797 -0.4090 -0.3828  0.0100
 3113TIP3    H130898   3.405   1.976   8.744  0.1119 -0.9379  0.0261
 3113TIP3    H230899   3.447   2.004   8.887 -1.0383  0.3286  0.1326
 3114TIP3   OH230900   5.270   1.044   0.481 -0.1114 -0.2797  0.0244
 3114TIP3    H130901   5.296   1.136   0.473 -0.9910 -0.1723 -2.2625
 3114TIP3    H230902   5.342   0.995   0.443 -1.4605 -0.2021 -2.8562
 3115TIP3   OH230903   1.621   1.379   2.002 -0.1887 -0.3974  0.2042
 3115TIP3    H130904   1.570   1.423   2.071  0.9535  1.7855 -0.2363
 3115TIP3    H230905   1.581   1.409   1.920 -0.3100 -1.4094 -0.1157
 3116TIP3   OH230906   0.227   0.604   1.622  0.2586 -0.1594  0.4122
 3116TIP3    H130907   0.322   0.599   1.636  0.2388  2.4407  2.3334
 3116TIP3    H230908   0.205   0.696   1.640 -2.4167 -0.2564 -1.6981
 3117TIP3   OH230909   0.744   1.103   2.856  0.1561 -0.2088 -0.0863
 3117TIP3    H130910   0.758   1.014   2.887  2.9269 -0.0552 -0.6218
 3117TIP3    H230911   0.663   1.098   2.805 -1.7160 -1.5576  2.7639
 3118TIP3   OH230912   2.753   3.651   2.233 -0.2873 -0.2549  0.0640
 3118TIP3    H130913   2.670   3.639   2.188 -0.6558  0.4602  0.5333
 3118TIP3    H230914   2.817   3.605   2.178 -1.1041 -1.4809  0.1116
 3119TIP3   OH230915   0.618   2.774   2.739 -0.3821  0.1378 -0.1037
 3119TIP3    H130916   0.629   2.694   2.687 -1.7501 -0.0395 -0.1570
 3119TIP3    H230917   0.525   2.774   2.762 -0.2331  1.3347  0.5326
 3120TIP3   OH230918   4.610   3.009   0.220 -0.6047 -0.6526  0.1788
 3120TIP3    H130919   4.517   2.998   0.240 -0.2552 -0.6364  1.9727
 3120TIP3    H230920   4.653   3.015   0.305  0.8327  1.2095 -0.5881
 3121TIP3   OH230921   0.080   4.787   1.575 -0.2643  0.3914  0.0660
 3121TIP3    H130922   0.154   4.798   1.635 -0.5433  0.5654  0.3845
 3121TIP3    H230923   0.014   4.848   1.608  0.3823  2.1961 -1.7477
 3122TIP3   OH230924   0.420   6.483   1.360  0.1706 -0.0972  0.6344
 3122TIP3    H130925   0.413   6.537   1.281 -0.1992  0.6619  1.1759
 3122TIP3    H230926   0.503   6.510   1.400 -0.0398  0.1097  0.9335
 3123TIP3   OH230927   4.409   2.080   8.300 -0.0505  0.5572 -0.3947
 3123TIP3    H130928   4.472   2.123   8.359 -1.7841  3.0810 -0.2359
 3123TIP3    H230929   4.399   1.992   8.337  0.2845  1.4514  2.0544
 3124TIP3   OH230930   4.111   3.295   2.090 -0.4933  0.2597 -0.3106
 3124TIP3    H130931   4.028   3.254   2.116  0.5871 -2.0178 -0.1891
 3124TIP3    H230932   4.153   3.318   2.173 -1.2475  2.0035 -0.3883
 3125TIP3   OH230933   4.845   1.799   7.849 -0.1008  0.4737  0.0108
 3125TIP3    H130934   4.781   1.776   7.781 -0.5505 -2.0685  1.1768
 3125TIP3    H230935   4.798   1.788   7.931  1.0912  1.2243  0.8272
 3126TIP3   OH230936   6.679   6.531   6.505  0.2327 -0.6330  0.1069
 3126TIP3    H130937   6.732   6.507   6.429  0.8880 -0.8127  0.6080
 3126TIP3    H230938   6.620   6.599   6.473  0.6208 -0.5833 -0.5197
 3127TIP3   OH230939   4.184   6.300   7.988  0.2028 -0.3985  0.1629
 3127TIP3    H130940   4.114   6.260   8.041 -0.2056 -1.1182 -0.8910
 3127TIP3    H230941   4.249   6.328   8.052 -2.2170  2.7796  1.4823
 3128TIP3   OH230942   2.159   3.318   8.660  0.5316 -0.8413  0.2134
 3128TIP3    H130943   2.134   3.232   8.692 -1.0116 -0.9321 -1.0926
 3128TIP3    H230944   2.098   3.378   8.704 -0.1728 -0.7414 -0.8511
 3129TIP3   OH230945   4.579   0.041   7.950 -0.1283  0.0930 -1.0364
 3129TIP3    H130946   4.494   0.001   7.970 -0.5309  1.5210  0.2939
 3129TIP3    H230947   4.609  -0.006   7.872 -1.0208 -2.0844 -0.1759
 3130TIP3   OH230948   5.368   6.270   0.759 -0.0326 -0.1929  0.6501
 3130TIP3    H130949   5.342   6.359   0.735 -0.2140 -1.0369 -2.8992
 3130TIP3    H230950   5.459   6.263   0.730  0.7428 -0.5460  2.9915
 3131TIP3   OH230951   3.798   6.562   8.459 -0.3669 -0.3300 -0.2726
 3131TIP3    H130952   3.851   6.516   8.525  2.3113  2.4646 -0.2241
 3131TIP3    H230953   3.720   6.591   8.507 -0.1227 -1.2556  0.7310
 3132TIP3   OH230954   6.197   3.033   0.703 -0.0421 -0.1624  0.7343
 3132TIP3    H130955   6.258   3.053   0.632 -1.5035 -0.8216 -0.7682
 3132TIP3    H230956   6.158   3.118   0.726  0.6828  0.1035  1.0187
 3133TIP3   OH230957   0.522   6.307   2.088 -0.0764  0.4301 -0.0883
 3133TIP3    H130958   0.452   6.247   2.115 -0.0924  0.8575  0.8578
 3133TIP3    H230959   0.584   6.252   2.041 -1.0233  0.0320 -0.9171
 3134TIP3   OH230960   2.696   3.720   7.495 -0.2356 -0.6121 -0.6177
 3134TIP3    H130961   2.625   3.765   7.450 -0.3198 -0.7769 -0.6523
 3134TIP3    H230962   2.737   3.666   7.427  0.2095 -0.1707 -0.6994
 3135TIP3   OH230963   2.165   6.341   0.499 -0.1259  0.0196 -0.6467
 3135TIP3    H130964   2.161   6.363   0.406  1.2875 -0.5798 -0.8720
 3135TIP3    H230965   2.246   6.380   0.529 -0.8848  0.7505  0.5108
 3136TIP3   OH230966   2.923   4.091   7.466  0.8058 -0.2034  0.4847
 3136TIP3    H130967   2.959   4.016   7.512  0.3674  0.6427  2.2837
 3136TIP3    H230968   2.838   4.106   7.506 -0.7366 -0.8725 -2.2570
 3137TIP3   OH230969   1.923   1.810   0.542  0.2906 -0.0474  0.1302
 3137TIP3    H130970   1.840   1.832   0.583  1.0757  0.7525  1.3652
 3137TIP3    H230971   1.989   1.857   0.593  1.4557 -0.1122 -1.2300
 3138TIP3   OH230972   0.992   2.325   8.250 -0.1874  0.4659 -0.4347
 3138TIP3    H130973   0.906   2.284   8.247  0.4826 -0.9668 -1.3382
 3138TIP3    H230974   1.015   2.341   8.159  1.3672 -1.1941 -0.4080
 3139TIP3   OH230975   4.514   3.909   8.788  0.0106  0.5367  0.2112
 3139TIP3    H130976   4.600   3.943   8.765 -1.2980  2.5149 -2.1800
 3139TIP3    H230977   4.466   3.905   8.705 -2.0645 -0.9993  1.3758
 3140TIP3   OH230978   5.843   2.254   1.891 -0.0793 -0.1808 -0.1187
 3140TIP3    H130979   5.753   2.268   1.863  0.8797  2.1030 -2.5258
 3140TIP3    H230980   5.893   2.249   1.809  2.3192  1.5754  1.1086
 3141TIP3   OH230981   5.078   5.193   0.918  0.3999 -0.4850 -0.3602
 3141TIP3    H130982   5.144   5.188   0.987  0.3300 -0.5852 -0.3010
 3141TIP3    H230983   5.087   5.111   0.869 -1.7597 -1.9788  1.5304
 3142TIP3   OH230984   2.197   0.652   0.999 -0.5896  0.4232 -0.3838
 3142TIP3    H130985   2.272   0.706   0.973 -1.5252  0.4862 -3.3088
 3142TIP3    H230986   2.125   0.715   1.008 -0.9024  0.0528 -0.2677
 3143TIP3   OH230987   3.383   3.240   2.118 -0.0951 -0.3411  0.1793
 3143TIP3    H130988   3.342   3.304   2.060  0.2524  1.5576  1.9126
 3143TIP3    H230989   3.477   3.247   2.099  0.0611  0.5882  1.2006
 3144TIP3   OH230990   1.739   0.215   8.284 -0.0347  0.1153  0.0710
 3144TIP3    H130991   1.719   0.218   8.190  0.2451 -0.0111  0.0052
 3144TIP3    H230992   1.674   0.273   8.324  0.2615  0.7057 -0.2781
 3145TIP3   OH230993   6.713   6.567   6.918  0.4671  0.1499  0.1414
 3145TIP3    H130994   6.804   6.547   6.899 -0.3185 -3.1444 -0.8318
 3145TIP3    H230995   6.698   6.532   7.006 -0.1243 -0.5425 -0.2166
 3146TIP3   OH230996   5.922   0.693   0.876 -0.5204  0.0295 -0.1374
 3146TIP3    H130997   5.888   0.663   0.960  0.3359  1.3661  0.7263
 3146TIP3    H230998   6.012   0.719   0.895 -0.6365  1.3307 -1.2274
 3147TIP3   OH230999   4.057   4.266   0.381 -0.0470 -0.2844 -0.4603
 3147TIP3    H131000   4.077   4.320   0.457  0.9867 -0.9876 -0.2078
 3147TIP3    H231001   3.962   4.267   0.375 -0.1873 -0.7440  1.2518
 3148TIP3   OH231002   0.181   4.214   8.842 -0.1617  0.1551  0.4656
 3148TIP3    H131003   0.272   4.237   8.864  0.3085  0.1289 -1.2947
 3148TIP3    H231004   0.170   4.245   8.752 -1.1172 -1.9515 -0.2089
 3149TIP3   OH231005   6.763   4.458   1.252 -0.6376  0.1300 -0.1009
 3149TIP3    H131006   6.698   4.521   1.220 -1.4306 -0.4437  0.3516
 3149TIP3    H231007   6.845   4.487   1.212 -1.2617  0.5478 -1.1413
 3150TIP3   OH231008   5.955   5.302   7.455 -0.6363 -0.6458  0.7889
 3150TIP3    H131009   5.920   5.256   7.531 -2.2430 -1.3793 -0.3567
 3150TIP3    H231010   5.883   5.358   7.426  0.6825  1.2823  1.0711
 3151TIP3   OH231011   5.169   2.688   1.750 -0.8519  0.1876 -0.7949
 3151TIP3    H131012   5.187   2.602   1.789  1.6178  2.6720  4.6656
 3151TIP3    H231013   5.090   2.719   1.795  0.8779  2.3747  0.9765
 3152TIP3   OH231014   2.784   6.209   7.708  0.1590  0.0409  0.2362
 3152TIP3    H131015   2.732   6.289   7.706  1.3980  0.8705 -2.1668
 3152TIP3    H231016   2.874   6.238   7.700  0.6956 -1.5563  0.1372
 3153TIP3   OH231017   1.449   5.934   8.125 -0.0036  1.0363  0.5482
 3153TIP3    H131018   1.408   6.005   8.076  1.2362  2.8027  1.9110
 3153TIP3    H231019   1.543   5.948   8.114  0.2824 -0.5503  0.6926
 3154TIP3   OH231020   3.406   5.840   8.251 -0.2835 -0.0817 -0.1361
 3154TIP3    H131021   3.435   5.914   8.198  0.1898 -0.2903 -0.1755
 3154TIP3    H231022   3.326   5.810   8.209 -0.9911  0.9715  0.4025
 3155TIP3   OH231023   5.793   0.496   0.467  0.0837 -0.4859 -0.2327
 3155TIP3    H131024   5.833   0.409   0.470  2.9041  0.7234  0.4022
 3155TIP3    H231025   5.847   0.545   0.406 -0.8719  1.0970  0.1346
 3156TIP3   OH231026   2.929   1.887   1.986 -0.0024  0.2723 -0.3424
 3156TIP3    H131027   2.837   1.913   1.977  0.0521 -0.2198 -3.3058
 3156TIP3    H231028   2.955   1.920   2.073 -3.0951 -0.0968  0.8573
 3157TIP3   OH231029   4.742   3.304   7.377 -0.8182  0.1756 -0.2624
 3157TIP3    H131030   4.800   3.377   7.355 -2.3189  1.6243  0.3702
 3157TIP3    H231031   4.773   3.232   7.322  1.3655  0.9562 -0.1648
 3158TIP3   OH231032   5.945   0.051   0.715  0.7779 -1.1369 -0.3000
 3158TIP3    H131033   6.008   0.039   0.786 -0.1525 -1.2859  0.5136
 3158TIP3    H231034   5.869  -0.001   0.740  1.1868 -2.9127 -2.4164
 3159TIP3   OH231035   6.734   0.145   0.037  0.7203 -0.2115  0.3891
 3159TIP3    H131036   6.668   0.092  -0.007  1.9653 -0.7458 -0.9154
 3159TIP3    H231037   6.689   0.180   0.114 -0.5805 -1.9328  0.4759
 3160TIP3   OH231038   6.045   1.998   8.084  0.0328  0.2475  0.0101
 3160TIP3    H131039   6.112   1.985   8.017  0.4447  1.2827  0.2115
 3160TIP3    H231040   6.094   2.013   8.165 -0.3871  2.1029 -0.0345
 3161TIP3   OH231041   1.109   0.982   0.254 -0.3031  0.0294  0.1215
 3161TIP3    H131042   1.018   1.007   0.236 -0.7735 -1.0792  0.8216
 3161TIP3    H231043   1.145   0.959   0.168 -0.6440  0.5900 -0.1789
 3162TIP3   OH231044   3.768   6.364   1.625 -0.1388 -0.1245  0.4044
 3162TIP3    H131045   3.826   6.402   1.691 -1.3974  0.9370  0.9626
 3162TIP3    H231046   3.804   6.277   1.607  1.7486  0.5864  0.5228
 3163TIP3   OH231047   0.270   5.080   0.321 -0.3777 -1.1807 -0.3527
 3163TIP3    H131048   0.302   5.159   0.365 -0.7190 -1.7689  0.9995
 3163TIP3    H231049   0.209   5.041   0.383 -2.0921 -1.2358 -1.9788
 3164TIP3   OH231050   1.037   3.612   1.403  0.2278  0.3315  0.3037
 3164TIP3    H131051   1.037   3.530   1.353  1.8854  0.5302 -0.0516
 3164TIP3    H231052   1.126   3.620   1.436 -1.0677 -0.5231  4.5623
 3165TIP3   OH231053   6.075   0.353   0.303 -0.5808  0.3869  0.1682
 3165TIP3    H131054   6.012   0.296   0.260  1.6647 -1.8356 -0.4159
 3165TIP3    H231055   6.097   0.419   0.236 -0.2358 -0.5210 -0.6393
 3166TIP3   OH231056   4.963   4.991   0.262  0.2213  0.1380  0.7295
 3166TIP3    H131057   4.945   5.040   0.342 -0.4884  0.1351  0.5811
 3166TIP3    H231058   4.903   5.029   0.197 -0.1683 -0.7639  0.5472
 3167TIP3   OH231059   0.814   2.889   0.245  0.3576 -0.3954  0.5114
 3167TIP3    H131060   0.907   2.914   0.242  0.2270  0.3512  1.8040
 3167TIP3    H231061   0.768   2.971   0.262 -0.8216 -0.2888 -2.5922
 3168TIP3   OH231062   6.611   2.905   1.424  0.5649 -0.4437 -0.1262
 3168TIP3    H131063   6.692   2.878   1.383  0.3238 -1.8497  0.2832
 3168TIP3    H231064   6.626   2.996   1.450  1.4793 -0.2364 -1.3373
 3169TIP3   OH231065   5.902   1.590   8.478 -0.2479  0.4227 -0.1257
 3169TIP3    H131066   5.957   1.663   8.449 -0.0959  0.8686  1.2012
 3169TIP3    H231067   5.822   1.597   8.425  0.0805  1.0842 -0.5427
 3170TIP3   OH231068   4.037   4.694   6.509 -0.1372 -0.4788 -0.5639
 3170TIP3    H131069   3.956   4.732   6.474 -0.2408 -0.2367 -0.0734
 3170TIP3    H231070   4.097   4.768   6.516  0.1501 -0.6694 -0.9834
 3171TIP3   OH231071   3.151   1.412   8.041 -0.1903  0.0453 -0.0561
 3171TIP3    H131072   3.156   1.472   7.967  0.2639  1.1181  0.8223
 3171TIP3    H231073   3.243   1.393   8.063 -0.2575 -2.6950 -1.6341
 3172TIP3   OH231074   6.069   1.695   0.160 -0.3817 -0.0757 -0.3152
 3172TIP3    H131075   6.044   1.647   0.081  0.7951 -0.7583 -0.2939
 3172TIP3    H231076   6.130   1.637   0.205 -1.0461  0.2969  1.1162
 3173TIP3   OH231077   6.129   4.654   1.417  0.3427  0.0723  0.2891
 3173TIP3    H131078   6.087   4.682   1.498 -0.0545  1.1730 -0.2719
 3173TIP3    H231079   6.057   4.640   1.356  0.7355  1.6851 -0.5964
 3174TIP3   OH231080   0.421   2.991   8.437 -0.0873 -0.9232  0.3311
 3174TIP3    H131081   0.331   3.008   8.408 -0.0637  0.7418  1.1021
 3174TIP3    H231082   0.472   2.986   8.356 -0.8195 -1.5972 -0.1005
 3175TIP3   OH231083   1.984   6.384   6.932 -0.3766 -0.2224 -0.2346
 3175TIP3    H131084   2.077   6.380   6.910 -0.1559  1.9901  0.1049
 3175TIP3    H231085   1.981   6.399   7.026 -1.0531  0.1343 -0.3018
 3176TIP3   OH231086   5.816   6.518   1.495 -0.2339  0.9474 -0.1239
 3176TIP3    H131087   5.819   6.611   1.518 -2.9393  0.7284  1.5276
 3176TIP3    H231088   5.774   6.476   1.570  0.7681 -1.6381 -0.8961
 3177TIP3   OH231089   3.632   4.744   7.535  0.2870 -0.1987 -0.7428
 3177TIP3    H131090   3.569   4.738   7.463 -0.4575  0.1481 -0.1406
 3177TIP3    H231091   3.714   4.713   7.498 -0.5913 -2.2325 -1.1143
 3178TIP3   OH231092   6.003   6.783   2.012  0.0720  0.1428 -0.0219
 3178TIP3    H131093   5.910   6.762   2.008 -0.4118  2.3144 -1.6378
 3178TIP3    H231094   6.015   6.827   2.096 -0.1147 -1.0272  0.6390
 3179TIP3   OH231095   6.089   1.222   7.351 -0.6004  0.1805 -0.2212
 3179TIP3    H131096   6.069   1.160   7.280  0.8303  0.5386 -0.9778
 3179TIP3    H231097   6.171   1.189   7.388 -1.4671 -0.1643  1.5020
 3180TIP3   OH231098   5.394   4.880   1.155 -0.3555  0.4746  0.0003
 3180TIP3    H131099   5.436   4.828   1.223 -0.9237  0.1445  0.1071
 3180TIP3    H231100   5.464   4.935   1.120  0.2837 -0.4380 -0.1864
 3181TIP3   OH231101   6.774   0.333   1.856  0.0948 -0.1632 -0.2642
 3181TIP3    H131102   6.735   0.311   1.941 -1.1613  1.3293 -0.4142
 3181TIP3    H231103   6.732   0.415   1.830  1.4349  0.1244 -1.7149
 3182TIP3   OH231104   2.354   2.585   8.763  0.1105 -0.0212  0.1641
 3182TIP3    H131105   2.309   2.611   8.844 -0.0193  0.7372 -0.1379
 3182TIP3    H231106   2.347   2.490   8.761 -0.2850 -0.0140  0.8147
 3183TIP3   OH231107   0.406   6.084   0.069 -0.0999  0.3947  0.0876
 3183TIP3    H131108   0.491   6.039   0.068 -0.4367 -0.3128  1.2069
 3183TIP3    H231109   0.385   6.092   0.162 -0.5175  2.0225 -0.1085
 3184TIP3   OH231110   2.009   4.976   0.661 -0.6623 -0.8983 -0.4212
 3184TIP3    H131111   1.917   4.976   0.688 -1.2864 -2.2738 -2.3225
 3184TIP3    H231112   2.008   5.014   0.573  1.0711  1.9927  0.6688
 3185TIP3   OH231113   2.266   6.768   8.348 -0.8187 -0.2176 -0.2833
 3185TIP3    H131114   2.258   6.859   8.376 -2.3659 -1.2038  2.9871
 3185TIP3    H231115   2.339   6.733   8.399 -0.0993 -0.8187 -1.6559
 3186TIP3   OH231116   1.389   1.901   1.890  0.1512 -0.0356  0.1409
 3186TIP3    H131117   1.350   1.935   1.810 -0.3575  1.4722  0.9781
 3186TIP3    H231118   1.463   1.848   1.861  0.2866  0.8885 -1.2976
 3187TIP3   OH231119   0.544   2.930   1.422  0.2185  0.0358  0.4179
 3187TIP3    H131120   0.582   2.843   1.415 -2.7535 -1.3494 -0.3128
 3187TIP3    H231121   0.554   2.954   1.514  1.1833 -1.0044  0.6019
 3188TIP3   OH231122   0.504   3.926   0.450  0.1594  0.0735  0.3744
 3188TIP3    H131123   0.437   3.911   0.517  0.2865 -0.0226  0.4796
 3188TIP3    H231124   0.543   4.010   0.474 -1.3877  1.2216 -0.9086
 3189TIP3   OH231125   5.009   4.353   8.412 -0.8212  0.3149  0.1239
 3189TIP3    H131126   4.917   4.378   8.405 -1.0441 -0.4865  0.0097
 3189TIP3    H231127   5.007   4.269   8.459 -0.1636  0.2278  0.0056
 3190TIP3   OH231128   5.006   0.094   1.884 -0.0584 -0.2817  0.1298
 3190TIP3    H131129   5.090   0.049   1.881  1.4120  2.2965 -1.7030
 3190TIP3    H231130   4.971   0.085   1.795 -0.9518  0.0636  0.4321
 3191TIP3   OH231131   4.278   6.415   8.653 -0.4752  0.1622  0.2078
 3191TIP3    H131132   4.262   6.504   8.622  0.1235  0.8425  1.7251
 3191TIP3    H231133   4.335   6.376   8.586 -0.1699  1.1660 -0.1361
 3192TIP3   OH231134   2.735   0.895   7.208  0.2049  0.5165 -0.3403
 3192TIP3    H131135   2.659   0.858   7.253 -0.7472  0.5188 -1.8534
 3192TIP3    H231136   2.800   0.909   7.277 -0.8083 -0.3942  0.8480
 3193TIP3   OH231137   2.480   4.072   7.176  0.1685 -0.3664 -0.5247
 3193TIP3    H131138   2.456   3.999   7.233  0.0846 -0.4546 -0.6719
 3193TIP3    H231139   2.484   4.034   7.088  2.0675 -0.6489 -0.3708
 3194TIP3   OH231140   4.217   1.941   1.506  0.3730 -0.2579  0.2915
 3194TIP3    H131141   4.232   1.847   1.522  2.7540  0.1640  0.8221
 3194TIP3    H231142   4.275   1.962   1.433  0.0865  0.8895  0.3869
 3195TIP3   OH231143   0.870   1.088   8.602 -0.6370 -0.8808 -0.1818
 3195TIP3    H131144   0.815   1.164   8.620 -2.1662 -2.0765  0.4077
 3195TIP3    H231145   0.959   1.119   8.618 -1.0677  1.2058 -1.4953
 3196TIP3   OH231146   4.927   3.376   8.844  0.4022 -0.4720  0.0565
 3196TIP3    H131147   5.021   3.376   8.863  0.4409  0.9318 -0.0509
 3196TIP3    H231148   4.885   3.376   8.930  0.4404 -2.6599  0.1351
 3197TIP3   OH231149   4.089   0.735   7.576 -0.7668  0.1874  0.5713
 3197TIP3    H131150   4.065   0.695   7.493 -0.5943  0.4688  0.3831
 3197TIP3    H231151   4.009   0.731   7.629 -1.0702  0.5970  0.1559
 3198TIP3   OH231152   1.408   1.749   0.681  0.2291  0.3079 -0.2103
 3198TIP3    H131153   1.462   1.826   0.668 -0.0065  0.3486 -1.0049
 3198TIP3    H231154   1.459   1.694   0.741  0.5544  0.9171  0.0808
 3199TIP3   OH231155   2.917   3.597   7.145 -0.0240  1.4223 -0.3911
 3199TIP3    H131156   2.924   3.546   7.226 -2.4898  1.3557 -0.1545
 3199TIP3    H231157   2.996   3.652   7.144  0.8660  0.2514  1.1957
 3200TIP3   OH231158   1.675   4.018   6.574 -0.0258 -0.1702 -0.4050
 3200TIP3    H131159   1.706   3.960   6.505 -0.7183  0.5329 -1.3364
 3200TIP3    H231160   1.618   4.080   6.529 -0.2874  0.4649  0.7644
 3201TIP3   OH231161   4.864   6.407   0.749  0.3034 -0.0331  0.2052
 3201TIP3    H131162   4.950   6.433   0.783 -0.5906  0.1021  2.5639
 3201TIP3    H231163   4.805   6.476   0.779 -0.4192  0.8977 -3.0080
 3202TIP3   OH231164   1.629   2.605   7.034  0.3551 -0.0683 -0.2023
 3202TIP3    H131165   1.709   2.554   7.022  0.0101 -0.9325  0.9829
 3202TIP3    H231166   1.562   2.557   6.985  0.1723 -0.4024  0.3640
 3203TIP3   OH231167   3.208   3.069   1.350  0.1681 -0.1844  0.1160
 3203TIP3    H131168   3.288   3.085   1.399  0.2659  0.6828 -0.2991
 3203TIP3    H231169   3.232   3.005   1.283 -0.2097 -2.1585  1.7806
 3204TIP3   OH231170   4.094   1.129   1.005  0.2559  0.1514 -0.5135
 3204TIP3    H131171   4.058   1.216   1.018 -0.2316 -0.0467 -0.5019
 3204TIP3    H231172   4.133   1.106   1.089 -1.4505 -0.4708  0.1586
 3205TIP3   OH231173   2.449   2.790   7.970  0.2710  0.2372 -0.1974
 3205TIP3    H131174   2.500   2.794   7.890 -1.9345 -1.2810 -1.7933
 3205TIP3    H231175   2.477   2.709   8.013  0.0188 -0.0064 -0.4896
 3206TIP3   OH231176   1.850   4.897   1.069 -0.2870  0.1337 -0.0111
 3206TIP3    H131177   1.918   4.964   1.071  1.4127 -1.5002 -0.4487
 3206TIP3    H231178   1.795   4.921   0.994  0.7523  0.6106 -0.6410
 3207TIP3   OH231179   3.943   1.148   6.266 -0.2678  0.4653 -0.3287
 3207TIP3    H131180   3.851   1.160   6.290 -0.2594  0.1528 -0.1382
 3207TIP3    H231181   3.991   1.204   6.327 -0.2807  0.0521  0.0655
 3208TIP3   OH231182   6.204   1.979   7.848 -0.2137  0.1610 -0.5122
 3208TIP3    H131183   6.254   1.901   7.822 -1.0881 -1.0548  1.2175
 3208TIP3    H231184   6.268   2.035   7.892  0.1134 -0.2898 -0.4052
 3209TIP3   OH231185   5.097   4.578   7.498  0.4270  0.0849  0.1708
 3209TIP3    H131186   5.045   4.654   7.526  1.0218  0.9945 -1.0955
 3209TIP3    H231187   5.069   4.562   7.408  1.8263  0.1695 -0.3044
 3210TIP3   OH231188   6.006   4.084   8.354  0.1133  0.4217  0.2715
 3210TIP3    H131189   6.039   4.149   8.416  2.7311 -1.1665  0.7239
 3210TIP3    H231190   5.919   4.061   8.387  0.1567  1.8884  1.5161
 3211TIP3   OH231191   5.697   4.078   0.044 -0.8799 -0.6100 -0.2202
 3211TIP3    H131192   5.648   4.144   0.094  0.1379 -0.5651  0.7772
 3211TIP3    H231193   5.716   4.009   0.108  1.5673  0.0424 -0.1598
 3212TIP3   OH231194   3.219   1.745   7.394  0.0417 -0.5088  0.0203
 3212TIP3    H131195   3.290   1.785   7.344 -1.4012  0.8399 -1.0219
 3212TIP3    H231196   3.167   1.818   7.425 -0.6492 -1.4585  1.1948
 3213TIP3   OH231197   6.352   2.633   1.655 -0.1587  0.9923 -0.4229
 3213TIP3    H131198   6.402   2.613   1.734  0.0724  1.4025 -0.4625
 3213TIP3    H231199   6.356   2.552   1.603  0.3981  0.9942 -0.3876
 3214TIP3   OH231200   3.342   6.270   1.396 -0.5822  0.6573 -0.0460
 3214TIP3    H131201   3.383   6.198   1.347  1.4219  0.6858  1.4656
 3214TIP3    H231202   3.381   6.349   1.359 -0.9291  0.8294 -0.0482
 3215TIP3   OH231203   4.857   4.944   0.813  0.1235 -0.8356 -0.0473
 3215TIP3    H131204   4.933   4.989   0.776  0.4564 -1.6631 -0.3737
 3215TIP3    H231205   4.808   4.913   0.737 -0.0408 -1.1370  0.1797
 3216TIP3   OH231206   3.492   3.478   8.206  0.0195 -0.1257 -0.2329
 3216TIP3    H131207   3.401   3.474   8.174 -0.0580  0.5710 -0.1166
 3216TIP3    H231208   3.539   3.525   8.138  0.1018  0.3077  0.1161
 3217TIP3   OH231209   1.227   3.583   0.903 -0.1785 -0.2784  0.1301
 3217TIP3    H131210   1.231   3.520   0.975  0.4849  0.0023  0.3437
 3217TIP3    H231211   1.315   3.619   0.897  0.4443 -1.9031 -2.2646
 3218TIP3   OH231212   2.412   5.001   7.303 -0.5859  0.1729 -0.2774
 3218TIP3    H131213   2.366   5.051   7.369 -1.2285 -0.1981 -0.4365
 3218TIP3    H231214   2.453   4.929   7.351  1.9219  1.8275  0.2608
 3219TIP3   OH231215   4.063   1.993   0.582 -0.4268  0.2078 -0.4361
 3219TIP3    H131216   4.047   1.938   0.658  2.2564 -0.2723 -0.1166
 3219TIP3    H231217   4.020   1.948   0.510 -0.6625 -0.8146  0.3276
 3220TIP3   OH231218   3.757   5.934   7.767 -0.5289 -0.0783  0.2160
 3220TIP3    H131219   3.754   6.027   7.745 -1.4565  0.2665  1.6676
 3220TIP3    H231220   3.667   5.912   7.790 -0.3714 -1.4242 -0.3708
 3221TIP3   OH231221   0.726   6.483   6.344 -0.6371  0.4974 -0.1788
 3221TIP3    H131222   0.807   6.437   6.321 -0.4509  0.3217  0.7981
 3221TIP3    H231223   0.671   6.415   6.383 -1.3357  0.5792 -0.9990
 3222TIP3   OH231224   2.302   1.509   0.280  0.0348 -0.0850 -0.3368
 3222TIP3    H131225   2.320   1.562   0.202  0.5444 -0.5830 -0.5632
 3222TIP3    H231226   2.238   1.560   0.329  0.6655  0.8442 -0.4474
 3223TIP3   OH231227   3.215   4.260   8.607  0.0721 -0.6617  0.2148
 3223TIP3    H131228   3.284   4.195   8.623 -0.7394 -1.3490  1.0039
 3223TIP3    H231229   3.262   4.344   8.604  0.9797 -1.1435  0.4530
 3224TIP3   OH231230   5.970   2.226   8.814 -0.1752  0.0182 -0.0980
 3224TIP3    H131231   5.977   2.309   8.862 -0.8647  1.7079 -2.7281
 3224TIP3    H231232   5.911   2.172   8.867 -1.3398  1.9897  0.6907
 3225TIP3   OH231233   0.122   5.707   7.978  0.2337 -0.6592  0.3142
 3225TIP3    H131234   0.127   5.775   7.911  1.2292 -0.1276  0.9117
 3225TIP3    H231235   0.207   5.709   8.022  0.6828 -2.9839 -0.2996
 3226TIP3   OH231236   4.180   4.986   1.920  0.7811  0.2559 -0.2171
 3226TIP3    H131237   4.250   4.951   1.974 -0.4188 -0.6857  0.7774
 3226TIP3    H231238   4.145   5.060   1.970 -1.0323 -1.2609  0.9147
 3227TIP3   OH231239   1.344   4.151   8.835  0.0204  0.1332 -0.0423
 3227TIP3    H131240   1.286   4.215   8.793 -0.5960  0.1210  0.7639
 3227TIP3    H231241   1.405   4.125   8.766 -0.0789  1.1633 -0.5325
 3228TIP3   OH231242   4.023   3.231   0.573 -0.6202  0.1467 -0.5225
 3228TIP3    H131243   4.067   3.175   0.637 -0.6008  0.2373 -0.4568
 3228TIP3    H231244   4.029   3.319   0.610 -1.3893  0.0785 -0.2268
 3229TIP3   OH231245   5.134   1.327   1.946  0.0055  0.0489 -0.9484
 3229TIP3    H131246   5.145   1.280   1.863 -0.6407  0.7395 -1.4269
 3229TIP3    H231247   5.124   1.419   1.921 -1.7190  0.0874 -0.2085
 3230TIP3   OH231248   4.580   3.306   0.715  0.1866 -0.2217 -0.8026
 3230TIP3    H131249   4.598   3.270   0.802  0.8366 -0.1118 -0.8806
 3230TIP3    H231250   4.542   3.234   0.666  1.8741 -0.9827 -1.0895
 3231TIP3   OH231251   6.208   3.240   6.428  0.1463  0.1370 -0.6125
 3231TIP3    H131252   6.223   3.146   6.419 -0.3757 -0.0466  0.3752
 3231TIP3    H231253   6.152   3.263   6.354 -0.9566 -0.6182 -0.0292
 3232TIP3   OH231254   2.826   5.508   1.313 -0.3092  0.6002 -0.4959
 3232TIP3    H131255   2.734   5.529   1.299 -0.5432 -1.2642 -2.3451
 3232TIP3    H231256   2.825   5.416   1.339  1.0436  0.3302 -1.2980
 3233TIP3   OH231257   5.184   0.358   0.852  0.4537 -0.1888 -0.1862
 3233TIP3    H131258   5.152   0.445   0.825  2.4901  1.2679  1.7610
 3233TIP3    H231259   5.273   0.354   0.817  0.4287 -1.4551 -0.1305
 3234TIP3   OH231260   4.491   3.908   7.532 -0.8098  0.0361  0.1695
 3234TIP3    H131261   4.548   3.961   7.589 -1.8257 -0.7378  1.9961
 3234TIP3    H231262   4.402   3.930   7.560 -1.5081  1.3988 -2.7848
 3235TIP3   OH231263   3.894   0.430   1.601  0.0810  0.3246  0.1950
 3235TIP3    H131264   3.859   0.353   1.557  0.0292 -0.5963  1.7805
 3235TIP3    H231265   3.899   0.405   1.693  0.4341  2.0879  0.6914
 3236TIP3   OH231266   3.588   3.996   8.477  0.4627  0.0341 -0.1287
 3236TIP3    H131267   3.680   3.994   8.505  0.2465  0.3137  0.6173
 3236TIP3    H231268   3.542   4.038   8.550 -0.7176 -2.7465  0.8621
 3237TIP3   OH231269   5.467   0.252   7.335 -0.7611 -0.3308  0.0575
 3237TIP3    H131270   5.515   0.228   7.256 -1.0133 -0.6299 -0.0067
 3237TIP3    H231271   5.384   0.204   7.328 -0.8264 -0.2754  0.4505
 3238TIP3   OH231272   5.832   3.281   8.011  0.4847  0.0429 -0.4803
 3238TIP3    H131273   5.824   3.308   8.103  0.2942 -0.8814 -0.2065
 3238TIP3    H231274   5.922   3.302   7.987  0.4901  0.4309 -0.1310
 3239TIP3   OH231275   5.732   2.422   6.397  0.3815  0.6353  0.5016
 3239TIP3    H131276   5.773   2.345   6.358 -0.9244  0.6046 -0.9378
 3239TIP3    H231277   5.791   2.494   6.375  0.1533  0.4678 -0.7745
 3240TIP3   OH231278   2.976   4.068   0.046 -0.2459 -0.0805  0.3514
 3240TIP3    H131279   2.900   4.052   0.102 -0.7830 -1.0541 -0.6091
 3240TIP3    H231280   2.963   4.010  -0.030  0.1698  1.5946 -1.0666
 3241TIP3   OH231281   1.888   2.086   1.391  0.5587  0.1658  0.0348
 3241TIP3    H131282   1.976   2.107   1.422  0.4703 -1.4614  1.5474
 3241TIP3    H231283   1.892   1.993   1.367 -0.8929 -0.1089  0.7415
 3242TIP3   OH231284   4.057   4.138   1.626 -0.4492  0.5566  0.1185
 3242TIP3    H131285   4.031   4.151   1.717  0.8903  0.2063  0.5736
 3242TIP3    H231286   4.148   4.109   1.630 -0.4619  0.1917 -1.3203
 3243TIP3   OH231287   6.649   5.013   1.495  0.6620 -0.5444 -0.0058
 3243TIP3    H131288   6.642   5.030   1.401  0.3557 -0.0180  0.1120
 3243TIP3    H231289   6.580   4.949   1.513  1.3062 -1.3514 -0.2995
 3244TIP3   OH231290   5.462   4.626   6.952 -0.3421 -1.0582 -0.1294
 3244TIP3    H131291   5.403   4.690   6.992  1.5203  2.0181 -1.8697
 3244TIP3    H231292   5.530   4.612   7.017  0.8335  1.2332 -0.7346
 3245TIP3   OH231293   1.681   2.195   0.611  0.0809 -0.1451  0.4042
 3245TIP3    H131294   1.657   2.270   0.665 -0.8181 -0.5871  0.6544
 3245TIP3    H231295   1.739   2.230   0.544  0.0063  0.6927  0.7707
 3246TIP3   OH231296   0.893   2.333   7.392 -0.4306  0.1772  0.2102
 3246TIP3    H131297   0.892   2.426   7.416  0.9954  0.7899 -1.8451
 3246TIP3    H231298   0.895   2.333   7.297  0.7612 -1.9507  0.1718
 3247TIP3   OH231299   6.714   3.838   1.697  0.2750 -0.0775 -0.6889
 3247TIP3    H131300   6.808   3.852   1.695  0.1634  0.7101 -2.0581
 3247TIP3    H231301   6.691   3.820   1.605 -0.8655 -0.5311 -0.3307
 3248TIP3   OH231302   2.184   3.257   6.576 -0.0607 -0.1871  0.1700
 3248TIP3    H131303   2.258   3.234   6.633 -0.3091  1.3520  1.1763
 3248TIP3    H231304   2.141   3.173   6.558  1.6320 -1.0416 -0.0387
 3249TIP3   OH231305   1.009   4.137   7.630  0.1573 -0.3583  0.6460
 3249TIP3    H131306   1.085   4.172   7.676 -0.3571  1.9711 -0.1163
 3249TIP3    H231307   0.934   4.165   7.682 -0.3364  0.9187 -0.6638
 3250TIP3   OH231308   0.209   1.936   7.992 -0.3273 -0.1017 -0.4444
 3250TIP3    H131309   0.174   2.007   7.939 -0.2789  1.4063  1.4168
 3250TIP3    H231310   0.132   1.894   8.030 -0.3054  0.4244  0.2105
 3251TIP3   OH231311   2.927   5.279   0.192  0.2041 -0.6766 -0.3196
 3251TIP3    H131312   2.941   5.290   0.286 -0.3734 -2.0291 -0.0554
 3251TIP3    H231313   2.839   5.240   0.185  0.3518 -0.8559 -1.4025
 3252TIP3   OH231314   3.855   4.726   7.025 -0.3922  0.1954 -0.5735
 3252TIP3    H131315   3.944   4.750   6.998 -0.3778 -0.0716 -0.7691
 3252TIP3    H231316   3.841   4.639   6.986 -0.9988  0.5349 -1.1333
 3253TIP3   OH231317   3.771   0.754   7.140 -0.2000  0.0790  0.2382
 3253TIP3    H131318   3.834   0.700   7.094 -1.4734 -0.2409 -1.2090
 3253TIP3    H231319   3.727   0.694   7.201 -0.3098 -0.0885 -0.0078
 3254TIP3   OH231320   0.138   4.032   0.369  0.1916 -0.0010 -0.1409
 3254TIP3    H131321   0.105   3.943   0.355  1.1017 -0.3484 -0.1346
 3254TIP3    H231322   0.229   4.029   0.339  0.8018  0.4484  1.5800
 3255TIP3   OH231323   2.131   1.834   0.217  0.1052 -0.6439  0.2138
 3255TIP3    H131324   2.037   1.840   0.202  0.2486  1.1510 -0.2646
 3255TIP3    H231325   2.144   1.748   0.256 -1.9413 -0.3653  1.7010
 3256TIP3   OH231326   6.763   2.757   8.676  0.3901  0.0039 -0.3178
 3256TIP3    H131327   6.813   2.782   8.754 -0.8192  0.5687  0.3168
 3256TIP3    H231328   6.692   2.702   8.710 -1.0088  1.4393 -0.7892
 3257TIP3   OH231329   0.397   6.682   8.743 -0.0534 -0.2542  0.7186
 3257TIP3    H131330   0.319   6.738   8.744 -0.3368 -0.5117 -1.9294
 3257TIP3    H231331   0.371   6.605   8.693  1.9447 -0.2309 -0.4528
 3258TIP3   OH231332   2.514   1.506   7.414 -0.1801 -0.4522 -0.4915
 3258TIP3    H131333   2.424   1.515   7.382 -0.1463  0.9380 -0.2446
 3258TIP3    H231334   2.565   1.566   7.359  0.7527 -1.7521 -1.1248
 3259TIP3   OH231335   4.211   2.460   7.818  0.4216  0.3628  0.6550
 3259TIP3    H131336   4.262   2.406   7.758 -0.7690 -0.4699  0.3679
 3259TIP3    H231337   4.187   2.401   7.889  0.4054  0.9168  1.1181
 3260TIP3   OH231338   0.256   4.257   1.476  0.4251  0.2284  0.0566
 3260TIP3    H131339   0.324   4.239   1.540  0.7111  0.9735 -0.0188
 3260TIP3    H231340   0.238   4.351   1.487 -1.4776 -0.1900  0.9397
 3261TIP3   OH231341   5.500   3.662   1.117  0.2130  0.3516  0.1228
 3261TIP3    H131342   5.500   3.567   1.134  1.4956  0.5927  1.7589
 3261TIP3    H231343   5.412   3.681   1.087 -0.0214 -1.3959 -0.4371
 3262TIP3   OH231344   5.199   6.063   1.819 -0.5816  0.3818 -0.3052
 3262TIP3    H131345   5.235   6.058   1.730 -0.7437 -1.2948 -0.3147
 3262TIP3    H231346   5.275   6.049   1.876 -0.7833 -0.6432 -0.2616
 3263TIP3   OH231347   0.876   0.529   7.197 -0.0811  0.3717 -0.1720
 3263TIP3    H131348   0.811   0.585   7.155 -1.4581 -0.4877  0.7186
 3263TIP3    H231349   0.938   0.508   7.128 -1.6567 -0.1056 -1.5154
 3264TIP3   OH231350   0.126   6.317   8.357  0.1186 -0.0906  0.3043
 3264TIP3    H131351   0.122   6.369   8.437 -2.3124 -0.3373  0.4085
 3264TIP3    H231352   0.037   6.283   8.345  0.0768  0.8236 -3.0806
 3265TIP3   OH231353   2.254   4.252   0.093  0.2471 -0.3661  0.7418
 3265TIP3    H131354   2.164   4.219   0.092  0.8906 -2.3174 -0.9958
 3265TIP3    H231355   2.249   4.336   0.049 -0.5876 -0.9722 -0.3684
 3266TIP3   OH231356   0.833   6.654   8.562 -0.7091  0.1981  0.3001
 3266TIP3    H131357   0.902   6.588   8.570 -0.5079  0.3708  0.0339
 3266TIP3    H231358   0.811   6.655   8.469 -0.7374  0.4726  0.3070
 3267TIP3   OH231359   5.945   5.912   0.076 -0.3184  0.0061 -0.1449
 3267TIP3    H131360   6.012   5.844   0.066 -0.1849  0.4141 -3.1619
 3267TIP3    H231361   5.866   5.865   0.103 -0.1415 -1.3637 -1.8233
 3268TIP3   OH231362   4.756   3.499   7.770  0.3721 -0.1056 -0.2222
 3268TIP3    H131363   4.744   3.530   7.860 -0.4636 -1.2527  0.0729
 3268TIP3    H231364   4.704   3.560   7.717  0.1194  0.0192  0.1629
 3269TIP3   OH231365   1.570   6.174   0.668  0.0726  1.2194  0.1359
 3269TIP3    H131366   1.634   6.184   0.597  0.5109  1.5282  0.5699
 3269TIP3    H231367   1.497   6.231   0.643 -0.2538  0.5160 -0.5922
 3270TIP3   OH231368   0.163   1.740   2.050 -0.2714  0.4127 -0.1789
 3270TIP3    H131369   0.174   1.647   2.028 -1.0491  0.4023 -0.5468
 3270TIP3    H231370   0.078   1.745   2.094  0.7987  0.5959  1.9791
 3271TIP3   OH231371   4.175   3.400   1.808 -0.2694  0.1208 -0.1540
 3271TIP3    H131372   4.132   3.480   1.776 -0.6498 -0.3520 -0.8650
 3271TIP3    H231373   4.161   3.402   1.903  0.2838  1.2128 -0.0690
 3272TIP3   OH231374   1.156   0.609   7.734  0.3455  0.2408 -0.0535
 3272TIP3    H131375   1.189   0.699   7.738  1.1256 -0.0393 -0.0592
 3272TIP3    H231376   1.083   0.609   7.796 -0.5465  1.2277 -1.0576
 3273TIP3   OH231377   4.874   5.366   0.687 -0.0240 -0.2437  0.3118
 3273TIP3    H131378   4.943   5.425   0.658  0.7124 -0.9217  0.6260
 3273TIP3    H231379   4.877   5.371   0.783 -1.5619  0.9962  0.3316
 3274TIP3   OH231380   5.778   4.631   7.330 -0.4033  0.4354  0.0467
 3274TIP3    H131381   5.757   4.719   7.299 -0.2067  0.3430 -0.3492
 3274TIP3    H231382   5.694   4.586   7.331 -0.5162  0.6468  0.3179
 3275TIP3   OH231383   6.540   1.889   7.910  0.2293 -0.2950 -0.2094
 3275TIP3    H131384   6.523   1.800   7.941 -0.6675 -0.3317 -0.7890
 3275TIP3    H231385   6.564   1.879   7.818 -2.2226  0.2184 -0.9790
 3276TIP3   OH231386   1.413   0.795   1.549 -0.3509 -0.7287  0.6530
 3276TIP3    H131387   1.348   0.782   1.480 -0.6321  0.0255  0.7628
 3276TIP3    H231388   1.473   0.721   1.540 -0.6366 -0.8781 -0.1099
 3277TIP3   OH231389   4.104   6.328   0.031  0.0719  0.2725  0.4391
 3277TIP3    H131390   4.149   6.389   0.088 -1.3405  2.0086 -0.2100
 3277TIP3    H231391   4.145   6.340  -0.055  0.5159 -0.5153  0.5285
 3278TIP3   OH231392   5.630   4.157   1.157 -0.0363 -0.1419 -0.7641
 3278TIP3    H131393   5.710   4.108   1.137  0.4647  0.4230 -0.1997
 3278TIP3    H231394   5.559   4.095   1.140  0.4174 -0.1751 -2.7608
 3279TIP3   OH231395   3.791   2.609   0.080  0.1379 -0.0072  0.0157
 3279TIP3    H131396   3.729   2.565   0.022 -0.0533 -0.0061  0.2183
 3279TIP3    H231397   3.876   2.596   0.038  0.2577 -1.6731  0.7034
 3280TIP3   OH231398   1.322   3.067   7.808  0.1223 -0.1826  0.3086
 3280TIP3    H131399   1.300   3.048   7.899 -2.9646 -0.7085 -0.4203
 3280TIP3    H231400   1.383   3.140   7.812 -0.6944  0.4498  2.7769
 3281TIP3   OH231401   3.682   3.911   0.363  0.5258 -0.8579 -0.2663
 3281TIP3    H131402   3.747   3.842   0.370  1.2472 -0.3211 -1.3842
 3281TIP3    H231403   3.732   3.989   0.340 -0.3423 -0.0804  0.4099
 3282TIP3   OH231404   5.195   6.629   1.520  0.3532 -0.3180 -0.5551
 3282TIP3    H131405   5.111   6.676   1.516  0.1934 -0.3896  1.0295
 3282TIP3    H231406   5.175   6.551   1.573  1.4757 -0.2050  0.0486
 3283TIP3   OH231407   5.091   1.212   7.069  0.5480  0.4690  0.4339
 3283TIP3    H131408   5.133   1.197   7.153  1.8183  1.2547 -0.0219
 3283TIP3    H231409   5.012   1.262   7.090  0.0272 -0.6608  1.2726
 3284TIP3   OH231410   1.988   1.452   0.915 -0.2107 -0.2775  0.0664
 3284TIP3    H131411   2.039   1.371   0.920  1.7332  0.8228 -0.7780
 3284TIP3    H231412   1.897   1.423   0.905  0.3467 -2.3313  0.5424
 3285TIP3   OH231413   5.847   0.437   0.776  0.0147  0.0908  0.6603
 3285TIP3    H131414   5.882   0.526   0.788 -1.8600  0.6884  2.1639
 3285TIP3    H231415   5.865   0.417   0.684  1.2783  1.6595  0.5115
 3286TIP3   OH231416   1.364   0.382   7.047  0.2863 -0.0921  0.0879
 3286TIP3    H131417   1.348   0.288   7.047 -0.4542  0.0153 -1.3532
 3286TIP3    H231418   1.455   0.391   7.017  0.4233 -0.3455  0.4197
 3287TIP3   OH231419   6.198   4.500   8.456 -0.3317 -0.0169  0.5293
 3287TIP3    H131420   6.170   4.464   8.373  0.0467  1.4656 -0.2789
 3287TIP3    H231421   6.149   4.451   8.522 -0.3738 -1.4498 -0.5327
 3288TIP3   OH231422   3.249   4.819   8.054 -0.4888  0.3807 -0.3810
 3288TIP3    H131423   3.277   4.899   8.010 -1.7382  0.9665 -0.1433
 3288TIP3    H231424   3.176   4.846   8.109  1.7656  0.0026  3.1667
 3289TIP3   OH231425   4.847   2.227   0.814  0.0004 -0.5139  0.6619
 3289TIP3    H131426   4.919   2.242   0.753  1.0737 -2.7914  1.2289
 3289TIP3    H231427   4.891   2.198   0.895 -1.4849 -0.0999  1.6496
 3290TIP3   OH231428   1.179   6.045   6.801  0.0823 -0.0260  0.5523
 3290TIP3    H131429   1.156   5.973   6.743  1.6468  0.6979 -1.0549
 3290TIP3    H231430   1.273   6.034   6.816  0.7556  2.5562 -1.1359
 3291TIP3   OH231431   2.188   0.410   0.817  0.6293  0.4062 -0.3698
 3291TIP3    H131432   2.231   0.479   0.869  1.1020 -0.4183  0.3652
 3291TIP3    H231433   2.258   0.348   0.798  0.8366  1.3832 -3.3135
 3292TIP3   OH231434   0.351   5.434   7.463 -0.6533 -0.3157  0.1938
 3292TIP3    H131435   0.288   5.369   7.494  0.1539 -0.7303  1.0109
 3292TIP3    H231436   0.367   5.411   7.372 -0.7035 -0.9948  0.3533
 3293TIP3   OH231437   3.953   0.810   0.370 -0.2246  0.3606 -0.2383
 3293TIP3    H131438   4.039   0.794   0.408 -0.6438 -0.8082  0.2909
 3293TIP3    H231439   3.962   0.893   0.324  1.0661  0.4610  0.1429
 3294TIP3   OH231440   0.662   1.187   7.030  0.8281  0.6516  0.2361
 3294TIP3    H131441   0.599   1.209   7.099 -1.0740  1.2994 -1.6368
 3294TIP3    H231442   0.699   1.103   7.059  0.7055  1.2661  2.4101
 3295TIP3   OH231443   2.775   1.616   1.010  0.3940 -0.1365 -0.3938
 3295TIP3    H131444   2.831   1.625   1.086 -2.4934 -2.1205  2.2243
 3295TIP3    H231445   2.789   1.526   0.980  0.5743  0.2200 -1.4127
 3296TIP3   OH231446   3.635   4.021   7.603  0.2112 -0.1921 -0.6493
 3296TIP3    H131447   3.562   4.005   7.664  0.1377 -2.7770 -1.2833
 3296TIP3    H231448   3.704   4.058   7.658 -0.7848  0.1050  0.4403
 3297TIP3   OH231449   0.184   2.861   8.140  0.0972 -0.4323 -0.2391
 3297TIP3    H131450   0.169   2.836   8.049  0.0554 -0.2071 -0.2951
 3297TIP3    H231451   0.098   2.854   8.182  0.2327 -1.1171 -0.0735
 3298TIP3   OH231452   4.896   3.688   0.409 -0.2974  0.8483 -0.0104
 3298TIP3    H131453   4.901   3.669   0.315 -0.8523  0.7179 -0.0170
 3298TIP3    H231454   4.878   3.781   0.414  0.5643  1.0243 -0.0124
 3299TIP3   OH231455   0.993   0.083   0.886 -0.4309 -0.3041 -0.1148
 3299TIP3    H131456   1.065   0.022   0.868 -0.2690  0.4187 -2.1366
 3299TIP3    H231457   1.033   0.169   0.883 -0.7425 -0.0044  2.3398
 3300TIP3   OH231458   6.549   2.811   6.839  0.3096 -0.1761 -0.0896
 3300TIP3    H131459   6.571   2.767   6.757 -2.0869 -1.6671 -0.0265
 3300TIP3    H231460   6.564   2.744   6.907 -0.4715  0.0859  0.3524
 3301TIP3   OH231461   1.984   5.282   0.399 -0.1421  0.0705  0.1332
 3301TIP3    H131462   1.959   5.190   0.391 -0.9256  0.1774  1.0749
 3301TIP3    H231463   2.079   5.283   0.384  0.1420 -1.1173  1.5550
 3302TIP3   OH231464   1.918   4.661   7.403  0.4514  0.7432 -0.0773
 3302TIP3    H131465   1.862   4.620   7.337  0.5128  2.5180 -1.3057
 3302TIP3    H231466   1.860   4.723   7.449  0.5747  0.0157  1.0990
 3303TIP3   OH231467   5.262   0.345   2.333  0.3190  0.1181 -0.1888
 3303TIP3    H131468   5.212   0.400   2.393 -0.1123  1.0057 -1.3219
 3303TIP3    H231469   5.341   0.394   2.314  0.5124 -0.2113 -0.2485
 3304TIP3   OH231470   5.225   4.762   1.857  0.2089 -0.0910  0.2364
 3304TIP3    H131471   5.301   4.747   1.800  0.1619 -0.7590  0.3405
 3304TIP3    H231472   5.161   4.696   1.829 -0.2045  0.2532  0.3711
 3305TIP3   OH231473   6.613   3.875   0.932  0.2177 -0.0443  0.1457
 3305TIP3    H131474   6.529   3.908   0.902 -2.1594 -4.7175  0.8036
 3305TIP3    H231475   6.631   3.926   1.012 -1.2547  1.9473 -0.7137
 3306TIP3   OH231476   1.175   5.604   1.902 -0.1594  0.1834  0.5447
 3306TIP3    H131477   1.216   5.518   1.908 -0.1448  0.2090  0.8425
 3306TIP3    H231478   1.246   5.664   1.879  0.4153  0.5601  3.0265
 3307TIP3   OH231479   3.670   1.801   8.817  0.0598  0.3905 -0.1455
 3307TIP3    H131480   3.740   1.747   8.779  0.4058 -1.6446  2.9653
 3307TIP3    H231481   3.599   1.795   8.754  1.8778  0.7362 -2.3892
 3308TIP3   OH231482   0.057   6.384   8.652 -0.5464 -1.0851 -0.0718
 3308TIP3    H131483   0.013   6.318   8.706  1.6548 -3.4599 -0.9544
 3308TIP3    H231484  -0.014   6.427   8.604 -2.2945 -0.8914  2.4673
 3309TIP3   OH231485   6.661   1.220   1.423  0.1037 -0.2355  0.1872
 3309TIP3    H131486   6.739   1.253   1.379  1.0001 -0.2178  1.7228
 3309TIP3    H231487   6.646   1.134   1.383  1.2749 -0.4991  0.2759
 3310TIP3   OH231488   5.801   1.487   2.284 -0.1969 -0.3776 -0.1654
 3310TIP3    H131489   5.708   1.503   2.269 -0.7991 -0.9940  2.4082
 3310TIP3    H231490   5.805   1.396   2.315  1.3313 -0.5363 -0.7473
 3311TIP3   OH231491   0.179   6.623   7.110  0.3051 -0.2226 -0.1788
 3311TIP3    H131492   0.228   6.668   7.179  1.2074 -1.1186 -0.2122
 3311TIP3    H231493   0.246   6.601   7.044 -0.2870 -0.7169 -0.6267
 3312TIP3   OH231494   0.570   4.673   8.697 -0.3174  0.5522  0.6732
 3312TIP3    H131495   0.509   4.720   8.642 -0.5121 -2.2840 -1.7925
 3312TIP3    H231496   0.647   4.729   8.702 -0.4629  1.1494 -2.2216
 3313TIP3   OH231497   4.647   2.269   1.147  0.4894  0.0351 -0.2762
 3313TIP3    H131498   4.722   2.320   1.178 -0.9817  1.8858  0.4051
 3313TIP3    H231499   4.615   2.316   1.070  0.5649 -1.2601 -1.1292
 3314TIP3   OH231500   6.535   0.850   1.966 -0.2071  0.3593  0.6674
 3314TIP3    H131501   6.508   0.898   1.889 -0.7239 -2.4086 -1.0269
 3314TIP3    H231502   6.482   0.885   2.037 -0.6069  2.1356 -0.4610
 3315TIP3   OH231503   5.181   1.533   0.922 -0.0164 -0.2148 -0.1372
 3315TIP3    H131504   5.149   1.472   0.989 -1.8662 -1.4164 -1.9992
 3315TIP3    H231505   5.121   1.607   0.925 -0.2326 -0.3683 -0.5963
 3316TIP3   OH231506   1.296   3.368   0.736  0.2763 -0.2034  0.8107
 3316TIP3    H131507   1.369   3.394   0.792  0.1048  1.7769  0.2181
 3316TIP3    H231508   1.221   3.418   0.769 -0.4404 -0.9969  0.4291
 3317TIP3   OH231509   6.506   4.199   8.660  0.1148  0.9512  0.4399
 3317TIP3    H131510   6.558   4.277   8.676  0.9402  0.4748  0.1240
 3317TIP3    H231511   6.452   4.221   8.584 -0.8527  1.7782  1.3428
 3318TIP3   OH231512   2.897   2.967   8.646  0.4975  0.2859  0.4492
 3318TIP3    H131513   2.911   2.884   8.601 -0.6830  1.0430 -1.4738
 3318TIP3    H231514   2.923   3.033   8.581 -4.0032  1.5213 -0.4082
 3319TIP3   OH231515   3.262   0.242   7.434 -0.2371  0.1037  0.0318
 3319TIP3    H131516   3.292   0.151   7.435  1.5460  0.6462  1.2322
 3319TIP3    H231517   3.342   0.293   7.436 -1.1978  1.7448 -1.0529
 3320TIP3   OH231518   1.883   0.105   0.122  0.1137  0.4648 -0.6411
 3320TIP3    H131519   1.801   0.067   0.154  0.3383  0.1117 -0.4850
 3320TIP3    H231520   1.952   0.057   0.168  0.4310  0.2453 -1.3331
 3321TIP3   OH231521   6.323   6.643   1.570  0.1611 -0.0404  0.2029
 3321TIP3    H131522   6.310   6.555   1.607 -2.5495  0.3391  0.3933
 3321TIP3    H231523   6.385   6.685   1.630  1.1605 -1.6659  0.3633
 3322TIP3   OH231524   2.163   5.293   7.258  0.2509  0.3369  0.1009
 3322TIP3    H131525   2.129   5.381   7.244  1.9326  1.1108  0.6733
 3322TIP3    H231526   2.185   5.291   7.351  1.5241 -0.2017 -0.1975
 3323TIP3   OH231527   2.530   3.773   0.270 -0.1491  0.6374  0.1134
 3323TIP3    H131528   2.485   3.786   0.186 -0.6136  2.4416  0.6056
 3323TIP3    H231529   2.469   3.806   0.336  0.9651  1.0179  0.9954
 3324TIP3   OH231530   6.615   5.249   6.943  0.1762  0.0045  0.2690
 3324TIP3    H131531   6.678   5.177   6.950  1.3166  1.0192  0.7500
 3324TIP3    H231532   6.658   5.314   6.889 -1.5611 -0.3728 -1.6828
 3325TIP3   OH231533   2.758   5.353   1.719  0.1238  0.1582 -0.2845
 3325TIP3    H131534   2.715   5.367   1.635  0.1522  0.7544 -0.1990
 3325TIP3    H231535   2.733   5.263   1.744  1.4346 -0.6457 -1.6995
 3326TIP3   OH231536   1.666   0.070   0.897  0.1059 -0.2800 -0.4522
 3326TIP3    H131537   1.754   0.034   0.896 -0.1598 -1.1515  1.7207
 3326TIP3    H231538   1.613   0.002   0.940 -1.2290  1.0204  0.0412
 3327TIP3   OH231539   2.129   4.689   0.341  0.4830 -0.7601  0.1998
 3327TIP3    H131540   2.187   4.756   0.378  1.6932  0.2912 -3.2388
 3327TIP3    H231541   2.089   4.731   0.265  0.9705 -3.7373 -1.8828
 3328TIP3   OH231542   4.621   2.970   1.245 -0.4326 -0.2637 -0.0526
 3328TIP3    H131543   4.643   2.932   1.330 -1.2557 -1.5077 -0.3680
 3328TIP3    H231544   4.653   2.906   1.181 -0.7308  0.1757 -0.6510
 3329TIP3   OH231545   1.685   1.834   1.327  0.3660  0.8780 -0.1367
 3329TIP3    H131546   1.609   1.811   1.380  0.3185  0.7032 -0.2792
 3329TIP3    H231547   1.662   1.918   1.287 -0.4229  0.0810 -1.4521
 3330TIP3   OH231548   4.769   0.229   7.665  0.5333 -0.4335 -0.1108
 3330TIP3    H131549   4.790   0.199   7.754 -0.0370 -0.8331 -0.1027
 3330TIP3    H231550   4.733   0.151   7.622 -0.5968  0.1287 -0.2196
 3331TIP3   OH231551   6.580   3.279   7.851 -0.4865 -0.4714 -0.2730
 3331TIP3    H131552   6.604   3.342   7.919 -1.9747 -0.8890  0.6861
 3331TIP3    H231553   6.638   3.205   7.867  0.1177 -0.0234 -0.3394
 3332TIP3   OH231554   6.375   5.203   6.843 -0.0246  0.0700  0.3025
 3332TIP3    H131555   6.407   5.135   6.783 -0.0069  1.6812 -1.6473
 3332TIP3    H231556   6.454   5.238   6.884 -0.0628 -1.2540  1.5430
 3333TIP3   OH231557   0.917   2.754   1.807 -0.3216 -0.3962 -0.4137
 3333TIP3    H131558   0.915   2.752   1.903 -0.3664 -0.6603 -0.4187
 3333TIP3    H231559   0.826   2.752   1.781 -0.3042 -0.6362 -0.4640
 3334TIP3   OH231560   3.371   3.558   1.131 -0.2009  0.3734  0.2944
 3334TIP3    H131561   3.389   3.570   1.224 -1.0979  1.1075  0.3924
 3334TIP3    H231562   3.317   3.480   1.126 -1.9418  1.4962  0.6483
 3335TIP3   OH231563   4.198   1.035   1.251  0.3854  0.6077  0.0864
 3335TIP3    H131564   4.227   0.988   1.330  0.6164 -1.2162 -1.0235
 3335TIP3    H231565   4.105   1.050   1.265  0.9544  3.0168  1.9686
 3336TIP3   OH231566   1.795   4.528   7.164 -0.2930  0.1605  0.0912
 3336TIP3    H131567   1.782   4.507   7.071 -2.5127  0.7156  0.2164
 3336TIP3    H231568   1.832   4.448   7.202  0.4267 -0.1553 -1.2110
 3337TIP3   OH231569   4.298   0.653   1.356 -0.0496  0.0082 -0.2018
 3337TIP3    H131570   4.389   0.674   1.334  0.2762  0.4195  1.3990
 3337TIP3    H231571   4.301   0.625   1.448 -1.5154 -0.0958 -0.1579
 3338TIP3   OH231572   5.436   2.871   0.734 -0.3031  0.0770 -0.5544
 3338TIP3    H131573   5.458   2.875   0.827  0.5339 -2.1126 -0.5950
 3338TIP3    H231574   5.411   2.960   0.711 -1.7163  0.4479  2.0533
 3339TIP3   OH231575   4.716   6.502   8.172 -0.0890 -0.6020  0.2708
 3339TIP3    H131576   4.694   6.559   8.245 -1.8066 -1.2012  0.2806
 3339TIP3    H231577   4.754   6.424   8.212  0.1811 -0.3918  0.4223
 3340TIP3   OH231578   0.137   3.758   0.384  0.6696  0.4539  0.1144
 3340TIP3    H131579   0.219   3.716   0.409  0.8673  0.9142  0.2458
 3340TIP3    H231580   0.111   3.713   0.303  0.2789 -0.6987  0.8576
 3341TIP3   OH231581   1.584   1.720   2.115  0.5045  0.1696 -0.0299
 3341TIP3    H131582   1.559   1.631   2.139  0.5745  0.6932  2.2604
 3341TIP3    H231583   1.591   1.719   2.020 -0.2347 -2.0628 -0.1069
 3342TIP3   OH231584   3.038   5.675   1.343  0.0699 -0.0982  0.3092
 3342TIP3    H131585   2.984   5.615   1.292 -0.2675 -1.5826  2.2719
 3342TIP3    H231586   2.983   5.697   1.419  0.6902  1.7040  0.2674
 3343TIP3   OH231587   6.285   1.252   0.460 -0.1644  0.7264 -0.2462
 3343TIP3    H131588   6.333   1.310   0.401 -1.4783  0.5650 -1.5300
 3343TIP3    H231589   6.197   1.245   0.422 -0.1992 -1.7388  0.0912
 3344TIP3   OH231590   1.487   2.543   8.426  0.0494  0.4350  0.6261
 3344TIP3    H131591   1.493   2.508   8.515 -0.5093 -0.7826  0.1977
 3344TIP3    H231592   1.396   2.529   8.401  0.3668  0.1271 -0.3941
 3345TIP3   OH231593   6.578   5.625   1.547 -0.1705 -0.0741  0.2596
 3345TIP3    H131594   6.651   5.684   1.565  0.9025 -2.0887  3.5476
 3345TIP3    H231595   6.618   5.538   1.545 -1.8467 -0.9129 -3.1721
 3346TIP3   OH231596   5.119   0.577   8.431  0.3603 -0.3636  0.1348
 3346TIP3    H131597   5.075   0.579   8.345 -0.1810  1.4233  0.4238
 3346TIP3    H231598   5.203   0.619   8.415 -0.0234  0.6127  0.6008
 3347TIP3   OH231599   1.480   5.420   7.420 -0.5208 -0.4324 -0.5827
 3347TIP3    H131600   1.524   5.352   7.370 -1.4584 -0.0144 -2.0215
 3347TIP3    H231601   1.515   5.502   7.386  0.4962 -0.1541  1.0401
 3348TIP3   OH231602   1.659   6.561   0.170  0.3454 -0.8555  0.1498
 3348TIP3    H131603   1.674   6.476   0.210 -0.8782 -0.7888  0.7952
 3348TIP3    H231604   1.564   6.572   0.169  0.3377 -0.4777 -2.0179
 3349TIP3   OH231605   2.978   1.395   0.338 -0.3985  0.1278 -0.0532
 3349TIP3    H131606   3.067   1.427   0.355 -0.1406  1.9177 -3.8351
 3349TIP3    H231607   2.921   1.462   0.375 -0.1546 -0.1968  0.9352
 3350TIP3   OH231608   4.008   0.472   8.045 -0.0496  0.3684 -0.5104
 3350TIP3    H131609   4.010   0.567   8.059 -0.1639  0.5663 -1.7576
 3350TIP3    H231610   4.097   0.451   8.016  0.1508 -0.0197  0.3374
 3351TIP3   OH231611   5.183   5.132   1.344 -0.1891  0.2222 -0.1753
 3351TIP3    H131612   5.275   5.141   1.319 -0.4889  0.7873 -1.0846
 3351TIP3    H231613   5.157   5.048   1.306  0.3816 -0.7585  1.4830
 3352TIP3   OH231614   1.540   2.730   2.633 -0.3891 -0.0734  1.0896
 3352TIP3    H131615   1.471   2.688   2.684  0.4064  1.0483  3.1929
 3352TIP3    H231616   1.620   2.684   2.658  0.0908  0.8302  1.2491
 3353TIP3   OH231617   1.717   6.601   7.353  0.1359 -0.0456 -0.2903
 3353TIP3    H131618   1.622   6.603   7.364  0.0988  0.3652 -0.6434
 3353TIP3    H231619   1.741   6.509   7.367  0.2413  0.4317  4.3061
 3354TIP3   OH231620   0.246   6.292   7.777 -0.2624  0.4738 -0.4140
 3354TIP3    H131621   0.292   6.235   7.715 -2.0649 -0.2755 -1.1501
 3354TIP3    H231622   0.315   6.331   7.831  1.1906 -0.6093 -1.4241
 3355TIP3   OH231623   3.554   1.577   8.018 -0.4320 -0.1006 -0.0232
 3355TIP3    H131624   3.649   1.566   8.014 -0.6456 -1.9827 -0.6452
 3355TIP3    H231625   3.535   1.590   8.111  0.3213 -0.8335  0.2378
 3356TIP3   OH231626   6.748   0.249   8.306  0.7026  0.4595  0.3589
 3356TIP3    H131627   6.661   0.210   8.313  0.7508  0.4028  0.6425
 3356TIP3    H231628   6.743   0.331   8.354  0.1661  1.5793 -1.5033
 3357TIP3   OH231629   3.880   4.830   1.534 -0.0575  0.0037 -0.1970
 3357TIP3    H131630   3.933   4.848   1.612 -0.5954  0.4284  0.0784
 3357TIP3    H231631   3.860   4.737   1.540 -1.8325  0.4211  1.2989
 3358TIP3   OH231632   2.466   6.179   7.969  0.0416  0.2717 -0.5471
 3358TIP3    H131633   2.519   6.112   8.013 -0.0677  1.8009  2.1207
 3358TIP3    H231634   2.529   6.228   7.916  1.1793  1.2819  1.6074
 3359TIP3   OH231635   3.125   0.879   0.886 -0.0724  0.0116  0.1289
 3359TIP3    H131636   3.109   0.919   0.800 -1.4604 -0.7887 -0.0264
 3359TIP3    H231637   3.164   0.794   0.866 -1.5479 -0.7158  0.1869
 3360TIP3   OH231638   2.355   4.106   8.577 -0.2322 -0.2077 -0.4775
 3360TIP3    H131639   2.275   4.131   8.624 -0.0925  0.2704 -0.4921
 3360TIP3    H231640   2.330   4.028   8.528 -0.3984 -0.7010  0.3556
 3361TIP3   OH231641   5.767   1.277   0.953  0.4414 -0.1936 -0.4063
 3361TIP3    H131642   5.782   1.246   1.042 -0.1086 -1.6690 -0.7809
 3361TIP3    H231643   5.842   1.243   0.903  0.0612 -0.5566 -0.7421
 3362TIP3   OH231644   4.030   2.319   7.388 -0.2792 -0.0098  0.2129
 3362TIP3    H131645   3.986   2.402   7.369 -2.3192 -0.1562  3.5097
 3362TIP3    H231646   4.114   2.346   7.426  0.4577  0.3802 -1.5697
 3363TIP3   OH231647   2.853   3.750   0.731 -0.1247  0.3830  0.1144
 3363TIP3    H131648   2.826   3.803   0.656 -0.5378 -1.0920 -0.8167
 3363TIP3    H231649   2.921   3.692   0.697  1.6369  1.4965  1.5533
 3364TIP3   OH231650   0.425   0.445   6.710  0.5637 -0.3264 -0.0829
 3364TIP3    H131651   0.336   0.472   6.685  0.0772 -2.0000 -0.3170
 3364TIP3    H231652   0.482   0.505   6.662 -0.3727 -1.8955 -3.5395
 3365TIP3   OH231653   1.770   3.743   0.824  0.4313  0.8129 -0.0221
 3365TIP3    H131654   1.761   3.771   0.915  1.0486  1.5709 -0.1895
 3365TIP3    H231655   1.838   3.676   0.826 -0.0004  0.3755  0.1625
 3366TIP3   OH231656   4.747   6.482   7.066  0.1826 -0.1591 -0.1592
 3366TIP3    H131657   4.702   6.551   7.114  3.8717  1.0388  1.9761
 3366TIP3    H231658   4.820   6.527   7.022  0.4628 -2.1773 -1.9270
 3367TIP3   OH231659   4.735   4.327   0.703 -0.0099 -0.0357 -0.4721
 3367TIP3    H131660   4.702   4.382   0.774  0.9230  1.5286 -1.1823
 3367TIP3    H231661   4.755   4.390   0.633 -1.2495 -1.5460 -2.2655
 3368TIP3   OH231662   4.798   1.494   7.609 -0.2926  0.3946 -0.1701
 3368TIP3    H131663   4.717   1.509   7.657 -0.2009  2.4247 -0.5590
 3368TIP3    H231664   4.827   1.407   7.636 -1.3078  0.6451  1.8593
 3369TIP3   OH231665   2.922   2.512   0.731 -0.0295  1.1268 -0.3365
 3369TIP3    H131666   2.974   2.440   0.766  1.0855  1.6490 -0.8834
 3369TIP3    H231667   2.847   2.469   0.689  1.1787  0.1811 -1.6296
 3370TIP3   OH231668   5.579   2.317   0.923  0.0731  0.4356 -0.2462
 3370TIP3    H131669   5.661   2.268   0.914  0.5772  1.2456 -0.1731
 3370TIP3    H231670   5.576   2.343   1.015 -1.0654 -0.9286  0.1338
 3371TIP3   OH231671   1.135   3.774   8.285  0.5405  0.1387  0.2136
 3371TIP3    H131672   1.056   3.811   8.324 -0.1150 -1.9770  0.9923
 3371TIP3    H231673   1.103   3.720   8.213  1.2434 -0.9371  0.6906
 3372TIP3   OH231674   3.035   6.450   1.962  0.0803 -0.7718 -0.0268
 3372TIP3    H131675   2.996   6.373   2.002 -0.3322 -0.1151  0.8804
 3372TIP3    H231676   2.964   6.514   1.958  1.0918  0.5914  2.0477
 3373TIP3   OH231677   1.318   2.773   8.768 -0.1434  0.1277 -0.3447
 3373TIP3    H131678   1.232   2.747   8.734 -0.1235  0.9391 -1.0682
 3373TIP3    H231679   1.373   2.780   8.690  0.3992  0.2796  0.0439
 3374TIP3   OH231680   6.545   3.014   8.591  0.0525 -0.5103  0.2764
 3374TIP3    H131681   6.460   2.972   8.595  0.3661 -1.2173 -0.2906
 3374TIP3    H231682   6.587   2.978   8.513 -0.1587  1.8210 -0.9959
 3375TIP3   OH231683   2.496   3.844   1.252  0.1709 -0.2702 -0.0539
 3375TIP3    H131684   2.544   3.906   1.307  0.1028 -0.3810  0.1301
 3375TIP3    H231685   2.426   3.897   1.212  0.0738 -0.2430  0.1522
 3376TIP3   OH231686   3.143   1.966   0.323 -0.1500  0.1428 -0.9313
 3376TIP3    H131687   3.217   1.906   0.332 -1.5667 -1.6127 -0.3660
 3376TIP3    H231688   3.180   2.052   0.342  1.5948 -0.7556  0.0612
 3377TIP3   OH231689   1.400   1.168   8.743 -0.3978  0.2026  0.2644
 3377TIP3    H131690   1.474   1.176   8.684 -0.2551 -1.9965  0.0680
 3377TIP3    H231691   1.369   1.258   8.755  1.5521  1.0423 -0.5643
 3378TIP3   OH231692   4.662   4.857   8.388 -0.3673 -0.4326 -0.0350
 3378TIP3    H131693   4.662   4.781   8.330 -0.5427 -0.8927  0.5488
 3378TIP3    H231694   4.579   4.902   8.370 -1.4761 -1.7883  1.3633
 3379TIP3   OH231695   4.204   2.902   1.690 -0.4618  0.5505 -0.2069
 3379TIP3    H131696   4.277   2.950   1.651  1.3927 -0.5645  1.6648
 3379TIP3    H231697   4.175   2.958   1.762 -1.9427  1.3017 -1.3666
 3380TIP3   OH231698   3.788   2.391   2.107  0.6696 -0.3831  0.0289
 3380TIP3    H131699   3.793   2.318   2.168 -0.4115 -0.3731  0.1578
 3380TIP3    H231700   3.754   2.464   2.159 -0.0397 -0.3121 -0.5181
 3381TIP3   OH231701   5.837   1.914   7.526  0.3142  0.3203  0.2678
 3381TIP3    H131702   5.775   1.872   7.466  0.1851  1.4098 -0.3933
 3381TIP3    H231703   5.784   1.979   7.573  0.6772  0.3187  0.6841
 3382TIP3   OH231704   5.316   3.974   1.264 -0.0010 -0.4081 -0.6316
 3382TIP3    H131705   5.223   3.992   1.273 -0.2537 -1.4783 -1.0206
 3382TIP3    H231706   5.334   3.988   1.171 -0.0134 -1.2880 -0.7697
 3383TIP3   OH231707   4.210   2.153   8.843 -0.1109 -0.0436  0.4978
 3383TIP3    H131708   4.232   2.202   8.763 -1.2105 -0.1131  0.1350
 3383TIP3    H231709   4.165   2.075   8.812 -1.4281  0.3955  1.1995
 3384TIP3   OH231710   2.202   5.539   1.431 -0.5105  0.3267 -0.4462
 3384TIP3    H131711   2.235   5.612   1.482  3.7520 -0.9133 -0.9990
 3384TIP3    H231712   2.205   5.464   1.491  0.0846 -0.2713 -1.1868
 3385TIP3   OH231713   6.028   2.777   7.581  0.1728  0.2102 -0.5346
 3385TIP3    H131714   6.072   2.806   7.501  0.8695  2.7633  0.6590
 3385TIP3    H231715   5.981   2.855   7.612 -1.8482 -1.2922  0.4478
 3386TIP3   OH231716   1.222   3.882   0.010 -0.3037 -0.2216 -0.1758
 3386TIP3    H131717   1.128   3.890  -0.006 -0.3928 -1.8750 -0.6821
 3386TIP3    H231718   1.253   3.972   0.022 -1.8455  0.3794 -0.5521
 3387TIP3   OH231719   5.418   1.608   1.170 -0.7076 -0.0212 -0.4106
 3387TIP3    H131720   5.475   1.638   1.099  0.3569  1.8239  1.1301
 3387TIP3    H231721   5.343   1.668   1.167  0.1361  1.1820  0.9875
 3388TIP3   OH231722   2.204   5.192   0.876 -0.1626 -0.0856 -0.1159
 3388TIP3    H131723   2.268   5.150   0.819  1.2105  0.4811  0.9521
 3388TIP3    H231724   2.145   5.238   0.817 -0.0212 -1.2058 -1.1594
 3389TIP3   OH231725   1.675   5.889   2.101  0.0128  0.5220  0.0386
 3389TIP3    H131726   1.623   5.951   2.050  0.2627  0.5745 -0.1591
 3389TIP3    H231727   1.741   5.943   2.144  0.8108  0.2985 -0.8668
 3390TIP3   OH231728   3.592   3.377   7.172  0.7531  0.1769  0.1718
 3390TIP3    H131729   3.659   3.373   7.241  1.2009  0.9744 -0.1988
 3390TIP3    H231730   3.618   3.309   7.110 -0.0230 -1.0032  1.0813
 3391TIP3   OH231731   0.579   6.299   6.807 -0.2785 -0.0301  0.4454
 3391TIP3    H131732   0.565   6.230   6.872  1.1748 -0.4785  0.3060
 3391TIP3    H231733   0.494   6.342   6.800 -0.7079 -0.5673  1.9580
 3392TIP3   OH231734   1.476   5.127   2.264  0.8795  0.0149  0.6186
 3392TIP3    H131735   1.388   5.097   2.285  1.3935 -0.3033  2.5442
 3392TIP3    H231736   1.483   5.117   2.169 -0.8785 -0.6873  0.5261
 3393TIP3   OH231737   3.390   5.856   1.894  0.3956 -0.0509  0.1087
 3393TIP3    H131738   3.408   5.868   1.801 -1.8115  0.9873 -0.2686
 3393TIP3    H231739   3.366   5.763   1.901  1.0057 -0.2442 -0.2653
 3394TIP3   OH231740   4.354   2.580   8.634 -0.1314  0.0259  0.3079
 3394TIP3    H131741   4.283   2.540   8.583 -0.4350  2.2920 -1.2012
 3394TIP3    H231742   4.310   2.644   8.690  0.5422 -0.1033  0.9992
 3395TIP3   OH231743   5.386   1.064   7.207  0.8139  0.1620 -0.5992
 3395TIP3    H131744   5.442   1.032   7.136 -0.7729 -0.4606 -1.6250
 3395TIP3    H231745   5.345   0.985   7.242 -0.1732  0.6953 -0.5364
 3396TIP3   OH231746   4.006   6.241   8.184  0.1406  0.3999 -0.3063
 3396TIP3    H131747   3.938   6.304   8.208  0.4613  0.6383 -0.0323
 3396TIP3    H231748   4.037   6.206   8.267  0.4461  0.3883 -0.4253
 3397TIP3   OH231749   1.362   2.235   8.332  0.0693  0.2242 -0.5837
 3397TIP3    H131750   1.306   2.308   8.360  1.3489  1.4662 -1.1430
 3397TIP3    H231751   1.435   2.235   8.394  0.6389  0.1367 -1.2362
 3398TIP3   OH231752   3.602   1.674   2.581 -0.0780  0.2442  0.1055
 3398TIP3    H131753   3.563   1.736   2.642 -0.9860  0.2189 -0.4297
 3398TIP3    H231754   3.530   1.650   2.522  0.5219 -0.5107 -0.3377
 3399TIP3   OH231755   2.730   4.231   0.176  0.3818  0.2610 -0.0366
 3399TIP3    H131756   2.733   4.324   0.156  0.7372  0.1420 -0.5495
 3399TIP3    H231757   2.659   4.196   0.122 -0.3228  0.3728  0.7822
 3400TIP3   OH231758   4.823   0.550   0.055  0.1001  0.5871 -0.0901
 3400TIP3    H131759   4.729   0.552   0.033 -0.3220 -2.5209  0.9533
 3400TIP3    H231760   4.865   0.521  -0.026  0.1002  1.3017 -0.3542
 3401TIP3   OH231761   6.209   2.354   6.760 -0.0225  0.5137  0.5745
 3401TIP3    H131762   6.271   2.426   6.771  0.1623  0.8988 -2.2876
 3401TIP3    H231763   6.244   2.304   6.686 -2.7936  0.3983 -0.7506
 3402TIP3   OH231764   5.365   5.017   6.062  0.9612 -0.4050 -0.3569
 3402TIP3    H131765   5.318   5.039   6.142  1.9671 -1.4620  0.5613
 3402TIP3    H231766   5.341   5.086   6.000 -1.8854 -0.9461 -0.0047
 3403TIP3   OH231767   3.567   2.293   1.980 -0.3936  0.0401 -0.7321
 3403TIP3    H131768   3.527   2.369   1.937 -1.8123  1.0434  2.1501
 3403TIP3    H231769   3.643   2.329   2.026 -0.8504 -0.3182  0.3277
 3404TIP3   OH231770   1.260   1.328   2.954 -0.6582  0.1078  0.1437
 3404TIP3    H131771   1.336   1.270   2.954 -0.4041  0.4266  0.7384
 3404TIP3    H231772   1.187   1.274   2.984 -0.3749  0.1578  0.9269
 3405TIP3   OH231773   5.955   4.172   6.453  0.4837  0.0973 -0.4506
 3405TIP3    H131774   6.020   4.201   6.389 -0.4791 -0.2455 -1.6278
 3405TIP3    H231775   5.985   4.086   6.481 -0.0705 -0.6094 -1.9231
 3406TIP3   OH231776   0.168   5.427   1.768  0.0739  0.4140  0.1125
 3406TIP3    H131777   0.228   5.353   1.753  0.6238  0.8186  0.2631
 3406TIP3    H231778   0.083   5.386   1.781  0.3572 -0.1950  0.1306
 3407TIP3   OH231779   5.073   2.744   6.723 -0.2261  0.0969  0.4490
 3407TIP3    H131780   5.096   2.816   6.782  0.0772  0.6656 -0.3548
 3407TIP3    H231781   5.070   2.667   6.780 -2.7705  1.0565  1.7979
 3408TIP3   OH231782   0.499   5.347   1.695 -0.6042 -0.1442 -0.1291
 3408TIP3    H131783   0.585   5.388   1.691 -0.0846 -1.2591 -1.5655
 3408TIP3    H231784   0.481   5.337   1.788  0.6195  0.4863  0.2012
 3409TIP3   OH231785   0.888   5.973   0.171 -0.4994  0.4787  0.1067
 3409TIP3    H131786   0.851   5.968   0.259  1.4256 -0.6696  0.9276
 3409TIP3    H231787   0.983   5.977   0.186 -0.1763  1.7511 -1.8978
 3410TIP3   OH231788   3.142   1.210   1.242 -0.8612  0.2904  0.0766
 3410TIP3    H131789   3.183   1.281   1.193 -0.7552 -0.7095 -1.3368
 3410TIP3    H231790   3.215   1.159   1.277 -0.7624 -1.4945 -2.4468
 3411TIP3   OH231791   2.357   4.479   1.003 -0.0085  0.3348 -0.1338
 3411TIP3    H131792   2.306   4.552   1.037  0.1881  0.9456 -1.1272
 3411TIP3    H231793   2.434   4.519   0.964 -0.7070 -0.2262 -2.2120
 3412TIP3   OH231794   2.628   0.556   1.347  0.2256 -0.2277 -0.6243
 3412TIP3    H131795   2.631   0.584   1.255  1.8821  1.8896 -0.0029
 3412TIP3    H231796   2.540   0.581   1.377 -0.1028 -0.3644 -1.4424
 3413TIP3   OH231797   1.469   1.270   8.136  0.5958 -0.1351 -0.2229
 3413TIP3    H131798   1.514   1.222   8.067  1.0162 -1.0059  0.6328
 3413TIP3    H231799   1.382   1.231   8.141  0.0372  0.9111 -1.2284
 3414TIP3   OH231800   2.945   0.166   1.178  0.3866  0.2584 -0.2074
 3414TIP3    H131801   3.012   0.192   1.241  0.5766 -0.5158 -0.0691
 3414TIP3    H231802   2.864   0.207   1.209  0.0242 -1.7134  1.7564
 3415TIP3   OH231803   1.758   5.425   8.101 -0.2986 -0.0590  0.4623
 3415TIP3    H131804   1.819   5.387   8.164  1.0715  0.3363 -0.5659
 3415TIP3    H231805   1.813   5.453   8.028 -1.8868 -0.9915 -1.1766
 3416TIP3   OH231806   4.837   5.028   0.015 -0.6830 -0.5880 -0.8213
 3416TIP3    H131807   4.879   5.076  -0.057  0.0142 -0.3504 -0.2609
 3416TIP3    H231808   4.808   4.946  -0.026  0.0133 -0.6065 -1.3024
 3417TIP3   OH231809   0.971   5.272   7.225 -0.5696 -0.1467 -0.3416
 3417TIP3    H131810   1.010   5.249   7.141  1.1662 -1.5380  0.7931
 3417TIP3    H231811   1.043   5.269   7.288 -1.3744  2.9426  0.9112
 3418TIP3   OH231812   5.470   4.764   6.170 -0.4746  0.3499 -0.6202
 3418TIP3    H131813   5.446   4.851   6.139 -0.9397  0.0460 -1.1398
 3418TIP3    H231814   5.556   4.748   6.131 -1.1857 -0.1586 -2.0978
 3419TIP3   OH231815   5.658   5.423   6.762 -0.4627 -0.2693 -0.3309
 3419TIP3    H131816   5.582   5.482   6.764 -0.1868  0.0983 -0.5546
 3419TIP3    H231817   5.701   5.442   6.679  1.7735  1.9763  1.1860
 3420TIP3   OH231818   4.137   2.242   1.207 -0.2465  1.1871 -0.1752
 3420TIP3    H131819   4.200   2.219   1.138  0.8396  0.3855  1.0416
 3420TIP3    H231820   4.060   2.272   1.159 -0.0854 -0.7535 -1.8083
 3421TIP3   OH231821   3.023   1.149   8.115 -0.3024  0.1534 -0.1792
 3421TIP3    H131822   3.090   1.081   8.126 -0.3091  0.1364 -0.2457
 3421TIP3    H231823   3.070   1.231   8.131  0.2001  0.2925 -2.1674
 3422TIP3   OH231824   6.178   6.198   7.598 -0.3939 -0.0867  0.2975
 3422TIP3    H131825   6.130   6.116   7.591 -0.1368 -0.1091 -1.4842
 3422TIP3    H231826   6.252   6.178   7.654 -0.6958 -0.8845  0.4240
 3423TIP3   OH231827   6.445   5.380   7.840 -0.7363  0.1509  0.2493
 3423TIP3    H131828   6.388   5.456   7.829 -0.3787  0.6205  1.4836
 3423TIP3    H231829   6.502   5.382   7.763 -1.2769  0.6472 -0.1496
 3424TIP3   OH231830   1.639   3.094   0.290  0.2190  0.0929  0.5873
 3424TIP3    H131831   1.607   3.184   0.285 -0.9073 -0.1649  2.2670
 3424TIP3    H231832   1.662   3.072   0.200 -0.1880  1.7998  0.0244
 3425TIP3   OH231833   0.808   4.134   7.826  0.1246  0.3514 -0.6431
 3425TIP3    H131834   0.717   4.116   7.803  0.1023  0.4325 -0.6193
 3425TIP3    H231835   0.803   4.206   7.888  0.1486 -0.2123  0.0290
 3426TIP3   OH231836   4.847   1.651   1.441 -0.1290 -0.6142  0.0659
 3426TIP3    H131837   4.883   1.690   1.521  0.9375  2.4483 -1.7136
 3426TIP3    H231838   4.752   1.662   1.450 -0.0520 -0.6379  1.0495
 3427TIP3   OH231839   2.532   0.556   7.159 -0.0996 -0.3896  0.0311
 3427TIP3    H131840   2.503   0.549   7.068 -0.1370  0.4652 -0.0332
 3427TIP3    H231841   2.479   0.490   7.205 -0.2885 -0.6307 -0.5124
 3428TIP3   OH231842   1.219   1.546   1.324  0.2524 -0.0571 -0.1145
 3428TIP3    H131843   1.278   1.596   1.269 -0.0468  0.6184  0.1644
 3428TIP3    H231844   1.220   1.592   1.408 -1.4511  0.6038 -0.4102
 3429TIP3   OH231845   3.604   5.688   0.081 -0.4244 -0.5283 -0.1788
 3429TIP3    H131846   3.680   5.644   0.119 -1.3172 -2.2160 -0.2943
 3429TIP3    H231847   3.529   5.637   0.109 -1.6312  1.4391  0.4197
 3430TIP3   OH231848   3.307   2.399   1.583  0.1889 -0.1755 -0.3329
 3430TIP3    H131849   3.332   2.439   1.499 -1.6824 -0.1907 -0.9491
 3430TIP3    H231850   3.246   2.330   1.558 -0.0814 -0.4433  1.0288
 3431TIP3   OH231851   5.124   2.768   1.489 -0.3173 -0.0196  0.2951
 3431TIP3    H131852   5.209   2.803   1.465 -0.5350  0.9655  0.9031
 3431TIP3    H231853   5.128   2.756   1.583 -1.2399  1.1698  0.5083
 3432TIP3   OH231854   0.224   0.654   7.416  0.4035  0.1972  0.2707
 3432TIP3    H131855   0.165   0.696   7.353  0.0691 -1.4424 -0.5596
 3432TIP3    H231856   0.166   0.618   7.483  0.5705 -0.1816  0.2113
 3433TIP3   OH231857   0.413   5.611   0.341  0.0292  0.5017 -0.2988
 3433TIP3    H131858   0.354   5.674   0.300  0.6877  0.8463 -0.7265
 3433TIP3    H231859   0.396   5.528   0.296 -0.5667  0.4495  0.0077
 3434TIP3   OH231860   0.035   3.586   7.045  0.5409  0.3230 -0.1974
 3434TIP3    H131861   0.094   3.528   7.093 -1.0731 -2.0163 -0.8879
 3434TIP3    H231862   0.032   3.551   6.956 -1.2431  0.8148 -0.3874
 3435TIP3   OH231863   5.396   5.592   7.362 -0.2418 -0.7245  0.3427
 3435TIP3    H131864   5.364   5.681   7.346 -1.4389 -1.2905 -0.5103
 3435TIP3    H231865   5.451   5.600   7.440 -2.9169  0.2131  2.2616
 3436TIP3   OH231866   1.942   5.341   8.350  0.4155  0.2967 -0.0223
 3436TIP3    H131867   1.923   5.247   8.345 -0.1255  0.4441 -1.7412
 3436TIP3    H231868   1.992   5.360   8.270  2.5902  1.0769  1.4448
 3437TIP3   OH231869   2.404   6.486   8.703 -0.2366 -0.8035  0.2514
 3437TIP3    H131870   2.391   6.581   8.692  1.0879 -0.2901  2.4749
 3437TIP3    H231871   2.356   6.447   8.630  1.1118  1.6658 -2.1592
 3438TIP3   OH231872   3.055   0.038   7.499  0.3336  0.3170  0.0334
 3438TIP3    H131873   3.039   0.118   7.448 -2.0348  0.4378  0.8371
 3438TIP3    H231874   3.051   0.067   7.590  1.7537 -0.3673  0.3390
 3439TIP3   OH231875   1.927   1.414   0.335  0.3363 -0.8422  0.3230
 3439TIP3    H131876   1.849   1.467   0.319  0.4787 -0.7704 -0.1555
 3439TIP3    H231877   1.910   1.332   0.291 -0.1986 -1.5000  1.6899
 3440TIP3   OH231878   1.872   2.236   2.121  0.2373 -0.2853  0.2601
 3440TIP3    H131879   1.947   2.270   2.071 -1.4161  0.7708 -1.6787
 3440TIP3    H231880   1.870   2.290   2.201  1.5960 -0.4174  0.4000
 3441TIP3   OH231881   2.036   5.477   0.767 -0.1406 -0.3377 -0.3781
 3441TIP3    H131882   2.035   5.535   0.843  2.4229  0.4919 -0.8905
 3441TIP3    H231883   1.969   5.411   0.787  1.3627 -1.0307  3.3063
 3442TIP3   OH231884   4.862   3.403   1.136 -0.0536  0.2808 -0.0641
 3442TIP3    H131885   4.861   3.448   1.051 -0.9309  0.9489  0.2855
 3442TIP3    H231886   4.775   3.364   1.144  0.1857 -0.1926  0.3230
 3443TIP3   OH231887   1.466   6.709   1.003 -0.0759 -0.1171 -0.1857
 3443TIP3    H131888   1.469   6.620   1.037  1.2583 -0.2268 -0.5555
 3443TIP3    H231889   1.380   6.716   0.961 -0.4799 -0.9845  0.4781
 3444TIP3   OH231890   5.437   6.575   0.565 -0.3113  0.0268  0.1813
 3444TIP3    H131891   5.384   6.628   0.624  0.6273  0.0702  1.0248
 3444TIP3    H231892   5.489   6.638   0.515  0.0109 -0.0601  0.4051
 3445TIP3   OH231893   0.573   0.789   0.011  0.2595 -0.0601 -0.2366
 3445TIP3    H131894   0.596   0.880   0.028 -0.6850  0.2278 -0.4354
 3445TIP3    H231895   0.534   0.790  -0.076  1.7138 -0.9313 -0.9225
 3446TIP3   OH231896   2.281   5.539   1.098  0.3560 -0.8029 -0.0858
 3446TIP3    H131897   2.191   5.513   1.117 -1.1502  3.0992 -0.9082
 3446TIP3    H231898   2.290   5.523   1.004 -0.0448  0.1719 -0.2992
 3447TIP3   OH231899   2.220   1.530   1.831  0.0090 -0.0942  0.3016
 3447TIP3    H131900   2.234   1.583   1.909 -2.9938 -0.0030  0.8878
 3447TIP3    H231901   2.216   1.440   1.863  1.0358 -0.3194 -0.1315
 3448TIP3   OH231902   5.329   1.666   0.282 -0.5691 -0.0286  0.5230
 3448TIP3    H131903   5.332   1.595   0.219 -2.0383 -0.3728  0.8099
 3448TIP3    H231904   5.324   1.745   0.229  0.7388 -0.1222  0.2097
 3449TIP3   OH231905   0.421   0.187   0.841  0.3775 -0.0452  0.1950
 3449TIP3    H131906   0.464   0.247   0.902 -0.9518  1.3014 -0.1380
 3449TIP3    H231907   0.351   0.239   0.801  1.1144 -0.9176 -2.4177
 3450TIP3   OH231908   6.368   6.487   8.063  0.4695 -0.4017  0.3081
 3450TIP3    H131909   6.422   6.464   8.138 -0.2965 -0.3550  0.8814
 3450TIP3    H231910   6.371   6.410   8.007 -1.2045 -1.5791  1.7127
 3451TIP3   OH231911   6.352   5.999   8.313  0.2903 -0.2251 -0.1976
 3451TIP3    H131912   6.325   5.920   8.266  0.8835 -1.0133  0.7513
 3451TIP3    H231913   6.394   6.053   8.245 -0.2028 -0.6711 -0.8783
 3452TIP3   OH231914   3.704   1.337   1.790  0.4834 -0.1983 -0.0093
 3452TIP3    H131915   3.781   1.351   1.735  0.6227 -0.7468  0.0425
 3452TIP3    H231916   3.643   1.406   1.763  1.5945  1.2730  1.0804
 3453TIP3   OH231917   0.792   4.132   1.153  0.0352  0.5975  0.2029
 3453TIP3    H131918   0.883   4.131   1.182  0.3048 -0.8602 -0.6314
 3453TIP3    H231919   0.792   4.085   1.069 -1.5017  0.4126  0.2727
 3454TIP3   OH231920   4.535   0.470   2.166 -0.2342  0.3548 -0.0213
 3454TIP3    H131921   4.498   0.420   2.093 -1.0045  0.3040  0.3926
 3454TIP3    H231922   4.475   0.455   2.238  1.0183 -0.3622  0.9176
 3455TIP3   OH231923   5.124   1.096   6.824 -0.3324  0.0291  0.2220
 3455TIP3    H131924   5.215   1.083   6.799  0.1623  1.5238  1.0858
 3455TIP3    H231925   5.128   1.142   6.908 -1.8206  1.9171 -0.6489
 3456TIP3   OH231926   1.798   2.223   2.583  0.1215 -0.5453 -0.1069
 3456TIP3    H131927   1.830   2.133   2.589 -3.4022 -1.8574  1.9596
 3456TIP3    H231928   1.725   2.218   2.522 -0.4997  0.7862  0.4931
 3457TIP3   OH231929   0.593   2.688   0.241  0.4092 -0.0914  0.1310
 3457TIP3    H131930   0.597   2.648   0.154  1.2204 -0.2906  0.2521
 3457TIP3    H231931   0.678   2.732   0.251  1.3837 -2.1405  1.7753
 3458TIP3   OH231932   2.290   0.888   8.499 -0.2968 -0.5329 -0.3315
 3458TIP3    H131933   2.313   0.828   8.428  1.5801 -1.5578  1.0563
 3458TIP3    H231934   2.354   0.960   8.492 -0.9507  0.0475 -0.4714
 3459TIP3   OH231935   5.645   1.574   8.272 -0.0772  0.2574 -0.0695
 3459TIP3    H131936   5.589   1.622   8.211  0.1772  1.3097  0.5000
 3459TIP3    H231937   5.696   1.516   8.216 -0.8768  0.1585 -0.7118
 3460TIP3   OH231938   0.817   6.699   7.256  0.0382 -0.4075  0.5670
 3460TIP3    H131939   0.749   6.641   7.290 -1.3220  1.4304  1.1297
 3460TIP3    H231940   0.805   6.697   7.161  0.3856 -1.4483  0.5310
 3461TIP3   OH231941   2.849   0.108   7.988  0.1900  0.5694  0.3193
 3461TIP3    H131942   2.828   0.181   8.047  2.9286  1.1748  0.6415
 3461TIP3    H231943   2.884   0.040   8.046  0.0210 -0.0337 -0.2750
 3462TIP3   OH231944   2.002   3.467   7.838  0.8625  0.0196 -0.1588
 3462TIP3    H131945   1.964   3.392   7.883 -1.4003  0.4754 -1.1656
 3462TIP3    H231946   2.092   3.471   7.870  0.5164 -2.0141  1.2747
 3463TIP3   OH231947   3.599   4.711   1.891 -0.6511 -0.2969 -0.2671
 3463TIP3    H131948   3.622   4.619   1.901 -2.3434 -0.7470 -0.0836
 3463TIP3    H231949   3.671   4.760   1.930  0.9153 -1.4811 -1.5570
 3464TIP3   OH231950   1.593   1.075   1.493  0.8441  0.7757 -0.0444
 3464TIP3    H131951   1.635   1.161   1.503  2.2883  0.0166  0.7305
 3464TIP3    H231952   1.660   1.021   1.451  0.4720 -0.3577  0.7940
 3465TIP3   OH231953   5.765   0.645   8.838 -0.1428  0.4811  0.1962
 3465TIP3    H131954   5.822   0.577   8.875  0.8012 -0.2068 -2.3363
 3465TIP3    H231955   5.806   0.727   8.867  2.1653  0.0057 -1.4409
 3466TIP3   OH231956   0.263   1.367   7.011 -0.2773 -0.4137 -0.6383
 3466TIP3    H131957   0.252   1.460   7.031 -1.8193 -0.6680 -0.1442
 3466TIP3    H231958   0.275   1.326   7.097 -1.1621 -0.8360 -0.7019
 3467TIP3   OH231959   3.123   6.210   1.516  0.6967 -0.1028 -0.3659
 3467TIP3    H131960   3.199   6.235   1.464  0.0774  0.1865 -1.1456
 3467TIP3    H231961   3.048   6.231   1.461  0.0019  0.5777  0.7833
 3468TIP3   OH231962   2.396   4.067   7.551 -0.4732  0.3864  0.6657
 3468TIP3    H131963   2.321   4.126   7.546 -0.7699  0.0015  0.5419
 3468TIP3    H231964   2.358   3.979   7.553 -0.0118  0.1640  0.1167
 3469TIP3   OH231965   1.358   0.788   8.728  0.7065  0.5708 -0.4211
 3469TIP3    H131966   1.423   0.837   8.779  0.9214  0.5536 -0.6756
 3469TIP3    H231967   1.322   0.853   8.667  1.9292  0.1451 -1.6686
 3470TIP3   OH231968   1.481   5.327   7.687  0.5952 -0.2384 -0.2572
 3470TIP3    H131969   1.495   5.343   7.594 -0.7669 -0.6155 -0.5459
 3470TIP3    H231970   1.549   5.378   7.731  0.5082  0.8923 -1.4053
 3471TIP3   OH231971   2.200   0.970   7.544 -0.0025  0.4221  0.2692
 3471TIP3    H131972   2.161   1.022   7.474  0.6177  2.6134  1.4485
 3471TIP3    H231973   2.292   0.961   7.519  0.0484  0.5299  0.4159
 3472TIP3   OH231974   4.377   2.428   6.733  0.0983 -0.2232  0.0582
 3472TIP3    H131975   4.295   2.453   6.690 -0.6641 -0.3001  1.4226
 3472TIP3    H231976   4.441   2.424   6.662 -1.3262 -1.2577 -1.2292
 3473TIP3   OH231977   0.685   5.318   0.380  0.2313  0.3675 -0.0151
 3473TIP3    H131978   0.747   5.368   0.433  0.7171 -0.8503  0.6153
 3473TIP3    H231979   0.664   5.375   0.307  1.2824  1.2244  0.3237
 3474TIP3   OH231980   4.682   6.668   7.275  0.4059 -0.3888  0.0065
 3474TIP3    H131981   4.614   6.634   7.334  0.6299 -0.6973  0.0860
 3474TIP3    H231982   4.757   6.686   7.332  0.5586 -0.5126 -0.1537
 3475TIP3   OH231983   2.960   6.401   1.069  0.4657  0.3434  0.8690
 3475TIP3    H131984   2.993   6.488   1.092 -0.5133  0.6887  1.0174
 3475TIP3    H231985   2.896   6.418   1.000  0.9285 -0.3660  0.2458
 3476TIP3   OH231986   1.402   4.633   0.071 -0.0948 -0.0852 -0.3447
 3476TIP3    H131987   1.371   4.574   0.140  2.3484 -0.4853  0.4811
 3476TIP3    H231988   1.443   4.705   0.117  1.5922 -0.3593 -1.3489
 3477TIP3   OH231989   0.370   6.150   0.573 -0.3405 -0.4201  0.1757
 3477TIP3    H131990   0.441   6.214   0.583 -0.2363 -0.7413  1.8939
 3477TIP3    H231991   0.410   6.067   0.599 -1.0993 -0.7757  0.2350
 3478TIP3   OH231992   4.342   4.876   8.707 -0.3028 -0.0256 -0.0774
 3478TIP3    H131993   4.413   4.847   8.764  0.2920 -0.1126 -0.8481
 3478TIP3    H231994   4.380   4.945   8.653 -0.7762 -0.1395 -0.5669
 3479TIP3   OH231995   2.746   2.023   7.032  0.2896  0.1063  0.0988
 3479TIP3    H131996   2.656   2.018   7.063  0.2084 -3.2236 -0.2417
 3479TIP3    H231997   2.798   2.035   7.111 -0.3918  2.4820  0.2538
 3480TIP3   OH231998   3.480   4.250   1.067 -0.3789 -0.0235  0.9023
 3480TIP3    H131999   3.575   4.243   1.078 -0.2555 -2.3806 -0.8505
 3480TIP3    H232000   3.457   4.177   1.009 -3.0278  1.5193 -0.1904
 3481TIP3   OH232001   5.802   2.483   7.894 -0.1362  0.0666  0.6701
 3481TIP3    H132002   5.887   2.506   7.857  0.3057 -0.7441  1.1415
 3481TIP3    H232003   5.823   2.424   7.967 -0.9766  1.3722  2.0475
 3482TIP3   OH232004   4.623   6.071   7.033  0.1869  0.5245 -0.1997
 3482TIP3    H132005   4.661   6.075   6.946  0.2617  0.8268 -0.1534
 3482TIP3    H232006   4.611   6.163   7.058 -0.1262  0.4381 -0.0215
 3483TIP3   OH232007   3.033   3.118   0.052 -0.5957  0.2932  0.2191
 3483TIP3    H132008   3.052   3.052   0.119  0.1362 -0.2361 -0.4802
 3483TIP3    H232009   3.117   3.131   0.007 -1.4404 -0.7909 -1.8384
 3484TIP3   OH232010   6.040   4.322   7.192  0.0769  0.0964 -0.0449
 3484TIP3    H132011   6.047   4.392   7.127  0.7388 -0.0402 -0.1308
 3484TIP3    H232012   5.947   4.302   7.196  0.0402  0.0327 -1.0396
 3485TIP3   OH232013   1.608   6.120   0.264  0.1791 -0.2432  0.4460
 3485TIP3    H132014   1.573   6.198   0.308  0.9696  0.7857 -0.6875
 3485TIP3    H232015   1.662   6.077   0.331 -0.1801  0.2386  1.0500
 3486TIP3   OH232016   6.133   3.528   0.504  0.7346 -0.4171 -0.1228
 3486TIP3    H132017   6.104   3.551   0.592 -0.8119 -0.4277 -0.5942
 3486TIP3    H232018   6.220   3.566   0.496 -0.1880  1.9775  0.4655
 3487TIP3   OH232019   3.801   1.106   1.977 -0.1853 -0.2527 -0.1440
 3487TIP3    H132020   3.723   1.084   1.927 -0.1745 -0.2984 -0.1410
 3487TIP3    H232021   3.794   1.053   2.057 -0.2705 -0.0775 -0.0360
 3488TIP3   OH232022   5.530   4.210   6.850  0.0794  0.0963  0.0942
 3488TIP3    H132023   5.549   4.273   6.781 -1.9250  0.2384 -0.3961
 3488TIP3    H232024   5.614   4.195   6.893  1.4230 -0.0309 -2.3961
 3489TIP3   OH232025   5.406   4.900   7.975  0.0304 -0.2160 -0.1113
 3489TIP3    H132026   5.364   4.983   7.996 -0.6973  0.0515 -2.4154
 3489TIP3    H232027   5.449   4.914   7.891  1.3901 -1.6904  0.2665
 3490TIP3   OH232028   3.610   6.163   7.924  0.3233 -0.3640 -0.0905
 3490TIP3    H132029   3.569   6.134   7.843 -1.1242 -1.3741  0.9621
 3490TIP3    H232030   3.614   6.084   7.979 -0.5060  0.6797  1.5437
 3491TIP3   OH232031   4.154   6.284   7.357 -0.1251 -0.4458 -0.6959
 3491TIP3    H132032   4.138   6.325   7.443  3.5243  1.9437 -0.9144
 3491TIP3    H232033   4.186   6.197   7.378 -0.1782 -0.2388  0.3070
 3492TIP3   OH232034   4.301   5.198   6.899 -0.4987 -0.6267 -0.7956
 3492TIP3    H132035   4.349   5.115   6.904 -0.5763 -0.6368 -0.1015
 3492TIP3    H232036   4.236   5.192   6.968 -0.2977  0.1502 -0.5319
 3493TIP3   OH232037   1.174   6.256   7.700  0.3073  0.3440  0.3111
 3493TIP3    H132038   1.127   6.179   7.668  1.8759 -1.1140  1.3083
 3493TIP3    H232039   1.109   6.305   7.750 -0.3253 -1.3090  1.1890
 3494TIP3   OH232040   4.772   1.957   0.340 -0.1064  0.3217  0.8055
 3494TIP3    H132041   4.678   1.960   0.359 -0.2632 -1.0156  0.3312
 3494TIP3    H232042   4.788   2.034   0.286 -1.3203 -0.4240 -0.7071
 3495TIP3   OH232043   5.142   4.540   6.896  0.3238 -0.0498  0.0345
 3495TIP3    H132044   5.230   4.503   6.908  0.7415  1.5848  2.6185
 3495TIP3    H232045   5.150   4.595   6.817  1.7163  0.3208  0.4038
 3496TIP3   OH232046   6.008   0.199   8.333 -0.0545  0.3527  0.0948
 3496TIP3    H132047   5.961   0.130   8.379  0.3604  1.2144  1.9116
 3496TIP3    H232048   5.954   0.218   8.256 -1.7954  0.1240  1.2042
 3497TIP3   OH232049   0.786   6.363   1.508  0.6659 -0.0711  0.0186
 3497TIP3    H132050   0.720   6.348   1.575  1.1094 -1.5465  0.1568
 3497TIP3    H232051   0.822   6.449   1.530 -0.2205  0.1307  0.7746
 3498TIP3   OH232052   4.985   6.682   6.852  0.7096 -0.2949  0.4218
 3498TIP3    H132053   4.996   6.690   6.758 -1.5650 -1.6136 -0.0233
 3498TIP3    H232054   4.932   6.758   6.877  0.2810 -0.5873  0.4149
 3499TIP3   OH232055   5.719   5.782   7.477 -0.6192 -1.0818 -0.2226
 3499TIP3    H132056   5.684   5.725   7.546 -1.2796 -2.9137 -1.9682
 3499TIP3    H232057   5.814   5.777   7.487 -0.6972 -1.8365  0.1640
 3500TIP3   OH232058   0.685   3.499   0.131 -0.1554 -0.1596  0.2268
 3500TIP3    H132059   0.772   3.473   0.163  0.4659  0.0960 -1.1535
 3500TIP3    H232060   0.664   3.578   0.181  0.1569 -0.5369  0.9657
 3501TIP3   OH232061   1.918   3.419   6.387  0.0259  0.2355  0.0534
 3501TIP3    H132062   1.899   3.351   6.451  0.0917  1.3966  1.3541
 3501TIP3    H232063   2.010   3.440   6.401 -0.0416  0.7195 -0.1973
 3502TIP3   OH232064   1.857   0.328   0.341  0.5949  0.3852  0.5159
 3502TIP3    H132065   1.771   0.287   0.354  1.0597 -0.5373  0.7776
 3502TIP3    H232066   1.871   0.326   0.247  1.4574 -1.8813  0.6523
 3503TIP3   OH232067   0.878   2.165   0.031  0.0936 -0.4449  0.0620
 3503TIP3    H132068   0.925   2.084   0.010  0.5831 -0.3060  0.5996
 3503TIP3    H232069   0.789   2.149  -0.000  0.4318 -0.8041 -0.7559
 3504TIP3   OH232070   4.295   6.220   0.489  0.2198 -0.6899  0.5643
 3504TIP3    H132071   4.343   6.265   0.419  0.0612  0.9782  1.4988
 3504TIP3    H232072   4.206   6.213   0.455 -0.2504  1.5863  1.2029
 3505TIP3   OH232073   1.730   2.491   8.303  0.2154  0.0518 -0.2236
 3505TIP3    H132074   1.744   2.403   8.338  1.1255  0.5335  0.6951
 3505TIP3    H232075   1.653   2.524   8.349  1.0203  0.4351  0.9074
 3506TIP3   OH232076   5.306   5.159   1.057  0.0113 -0.3623  0.2816
 3506TIP3    H132077   5.361   5.190   1.129 -0.7587 -0.7630  1.0702
 3506TIP3    H232078   5.328   5.066   1.048  2.6590  0.3801 -2.3890
 3507TIP3   OH232079   6.595   4.211   7.719 -0.0160  0.3254 -0.6473
 3507TIP3    H132080   6.662   4.269   7.682 -0.1877 -0.0679 -1.5951
 3507TIP3    H232081   6.525   4.270   7.746  0.4148  0.6806 -0.2859
 3508TIP3   OH232082   0.404   5.348   1.028  0.0208 -0.0032  0.3507
 3508TIP3    H132083   0.389   5.395   1.110 -0.4822 -1.3063  1.0342
 3508TIP3    H232084   0.422   5.417   0.964 -0.5151  1.0997  1.3439
 3509TIP3   OH232085   1.766   2.228   7.614  0.2795  0.3674 -0.6125
 3509TIP3    H132086   1.691   2.168   7.621 -0.1228  1.0772  2.6536
 3509TIP3    H232087   1.727   2.311   7.587 -0.1060  0.6302  0.6807
 3510TIP3   OH232088   2.532   1.211   7.347 -0.1026  0.1677  0.0896
 3510TIP3    H132089   2.513   1.304   7.362 -0.6698  0.1564 -0.5112
 3510TIP3    H232090   2.460   1.181   7.291 -0.1582 -0.7395  0.6323
 3511TIP3   OH232091   3.044   5.548   0.175  0.0459  0.1438 -0.0362
 3511TIP3    H132092   3.024   5.465   0.219  1.0979  0.2499  0.6633
 3511TIP3    H232093   3.121   5.582   0.221  0.9514  0.4544 -1.7136
 3512TIP3   OH232094   6.228   4.433   6.763 -0.4114  0.3109 -0.4585
 3512TIP3    H132095   6.311   4.424   6.810 -1.7041  1.0943  2.1626
 3512TIP3    H232096   6.213   4.347   6.725  0.4503 -0.5707  1.1003
 3513TIP3   OH232097   1.038   4.302   0.401 -0.8699 -0.0193 -0.3090
 3513TIP3    H132098   1.094   4.227   0.383 -1.0619 -0.0687 -0.7053
 3513TIP3    H232099   0.950   4.265   0.408 -1.0289  0.2218 -0.9440
 3514TIP3   OH232100   6.304   2.849   1.496  0.2943 -0.3246 -0.2278
 3514TIP3    H132101   6.226   2.793   1.491  0.7375 -1.1497  1.4145
 3514TIP3    H232102   6.364   2.801   1.553  1.2027  1.2363  0.1846
 3515TIP3   OH232103   5.097   2.319   2.095  0.2976  0.0743  0.1249
 3515TIP3    H132104   5.175   2.270   2.123  0.0412 -0.6162 -0.3277
 3515TIP3    H232105   5.112   2.338   2.003 -0.2374 -0.4242 -0.0752
 3516TIP3   OH232106   3.760   2.080   0.908  0.0423  0.1929 -0.5019
 3516TIP3    H132107   3.756   2.176   0.915 -1.6583  0.4066 -2.9390
 3516TIP3    H232108   3.689   2.049   0.965 -0.4489  0.5121 -0.9283
 3517TIP3   OH232109   4.421   1.226   7.309  0.2050 -0.5593  0.1446
 3517TIP3    H132110   4.329   1.213   7.331  0.5229  0.1921  2.1612
 3517TIP3    H232111   4.424   1.226   7.213 -1.8123 -1.0151  0.0526
 3518TIP3   OH232112   5.345   4.654   0.147 -0.1742 -0.1566 -0.2582
 3518TIP3    H132113   5.377   4.706   0.073  3.1621  2.0652  2.3988
 3518TIP3    H232114   5.387   4.569   0.137 -0.1652 -0.0536 -1.1746
 3519TIP3   OH232115   1.634   1.271   0.394 -0.6870  0.3087 -0.0076
 3519TIP3    H132116   1.606   1.352   0.353 -1.1261  1.7016  2.8107
 3519TIP3    H232117   1.554   1.236   0.435 -0.0412 -0.2580  0.8093
 3520TIP3   OH232118   4.114   2.889   2.234  0.3317  0.5241  0.0795
 3520TIP3    H132119   4.079   2.894   2.322  2.0240 -1.9955  1.0085
 3520TIP3    H232120   4.193   2.943   2.236  0.9436 -0.3582  0.4654
 3521TIP3   OH232121   6.005   2.351   2.153 -0.3388 -0.5262  0.5615
 3521TIP3    H132122   5.964   2.437   2.166  0.0615 -0.5621  2.4257
 3521TIP3    H232123   6.043   2.355   2.066 -1.8035  0.5579 -0.0623
 3522TIP3   OH232124   4.252   5.802   0.152  0.2597 -0.0770 -0.5187
 3522TIP3    H132125   4.205   5.719   0.155 -2.2037  1.2281  1.8466
 3522TIP3    H232126   4.225   5.842   0.069 -2.4636  0.3165  0.4458
 3523TIP3   OH232127   6.328   4.439   1.395 -0.3030 -0.2248 -0.5189
 3523TIP3    H132128   6.236   4.467   1.394 -0.7928 -1.6230  0.9800
 3523TIP3    H232129   6.341   4.403   1.482  1.9199  0.6266 -0.4469
 3524TIP3   OH232130   0.261   3.012   6.972  0.5582  0.1883  0.4563
 3524TIP3    H132131   0.350   3.040   6.950  0.3716 -0.3313 -1.1039
 3524TIP3    H232132   0.260   2.918   6.953 -0.5179  0.3241 -0.2788
 3525TIP3   OH232133   4.329   3.065   2.273 -0.6103 -0.4499  0.7024
 3525TIP3    H132134   4.415   3.061   2.314  0.4640  1.7082 -1.1344
 3525TIP3    H232135   4.276   3.117   2.333  0.1124  0.2977  0.7126
 3526TIP3   OH232136   6.083   3.227   0.487 -0.4854  0.0749  0.8715
 3526TIP3    H132137   6.125   3.311   0.506 -0.2789  0.1371  0.1606
 3526TIP3    H232138   6.147   3.161   0.516  1.0960  0.1404 -2.0745
 3527TIP3   OH232139   2.617   2.982   1.183 -0.4498 -0.1001  0.9113
 3527TIP3    H132140   2.526   3.002   1.206  0.0149  1.5666  1.4416
 3527TIP3    H232141   2.669   3.036   1.242  0.8645  0.6520 -0.8697
 3528TIP3   OH232142   3.439   2.477   1.812  0.1298 -0.6972 -0.3358
 3528TIP3    H132143   3.530   2.502   1.800  0.1248 -0.8988 -0.8211
 3528TIP3    H232144   3.408   2.457   1.724 -0.5555 -0.0328 -0.2606
 3529TIP3   OH232145   4.435   5.227   7.209 -0.5213 -0.5290  0.0929
 3529TIP3    H132146   4.364   5.266   7.158  0.0011 -0.7746 -0.8411
 3529TIP3    H232147   4.417   5.253   7.299 -0.5040  1.4119 -0.4209
 3530TIP3   OH232148   6.509   0.457   8.628  0.6199  0.0089 -0.2930
 3530TIP3    H132149   6.529   0.550   8.639  0.0957  0.0879  0.0162
 3530TIP3    H232150   6.589   0.413   8.655  0.2686  0.3042  1.3762
 3531TIP3   OH232151   5.169   5.384   0.619  0.4689 -0.0518 -0.0511
 3531TIP3    H132152   5.210   5.387   0.533  0.8425 -1.7178  0.0385
 3531TIP3    H232153   5.121   5.301   0.620 -2.3420  1.4582  0.1238
 3532TIP3   OH232154   4.319   5.559   8.241 -0.2213 -0.0641  0.3531
 3532TIP3    H132155   4.394   5.549   8.299 -0.7681  0.5159  1.1887
 3532TIP3    H232156   4.354   5.546   8.153  0.8674  0.2619  0.7247
 3533TIP3   OH232157   5.691   5.349   1.736 -0.4773  0.4951  0.7620
 3533TIP3    H132158   5.652   5.426   1.778 -3.0099 -0.4791  0.4158
 3533TIP3    H232159   5.687   5.281   1.804 -1.5160 -0.2068  0.0338
 3534TIP3   OH232160   1.644   5.208   7.026  0.2411  0.4140 -0.3023
 3534TIP3    H132161   1.703   5.217   6.951  1.0605 -0.8298  0.1661
 3534TIP3    H232162   1.600   5.124   7.013  1.1494 -0.3230  1.0894
 3535TIP3   OH232163   2.182   4.249   7.530  0.3345  0.3829 -0.0244
 3535TIP3    H132164   2.183   4.260   7.435  1.2798  1.8885  0.1303
 3535TIP3    H232165   2.247   4.311   7.562  0.6471 -0.6965  1.5581
 3536TIP3   OH232166   3.812   1.731   1.532  0.2689 -0.0568  0.3463
 3536TIP3    H132167   3.837   1.769   1.617 -1.2534 -1.4815  1.4999
 3536TIP3    H232168   3.717   1.742   1.528  0.3642  0.4296 -1.4531
 3537TIP3   OH232169   6.515   1.436   0.587 -0.6124 -0.2364 -0.0696
 3537TIP3    H132170   6.437   1.382   0.582 -1.2528  0.7546 -1.9572
 3537TIP3    H232171   6.488   1.514   0.635 -0.3956 -0.4992  0.4788
 3538TIP3   OH232172   2.180   1.284   6.984  0.2329 -0.3187  0.4008
 3538TIP3    H132173   2.195   1.376   6.964 -0.7372 -0.2328 -0.0052
 3538TIP3    H232174   2.092   1.266   6.951  0.0246 -1.1432  1.3498
 3539TIP3   OH232175   6.753   4.154   7.292  1.3446  0.2299  0.4478
 3539TIP3    H132176   6.776   4.081   7.235 -0.6169 -1.2903  1.4697
 3539TIP3    H232177   6.818   4.150   7.363  1.4919 -0.2595  0.2903
 3540TIP3   OH232178   0.338   2.126   8.193  0.2879 -0.0846 -0.4791
 3540TIP3    H132179   0.370   2.216   8.201  0.5049  0.0005 -1.9957
 3540TIP3    H232180   0.283   2.127   8.115  0.5430 -1.3360 -0.6980
 3541TIP3   OH232181   0.444   3.123   7.590 -0.4933  0.3158  0.1449
 3541TIP3    H132182   0.362   3.088   7.626  1.3034 -4.4639  0.3343
 3541TIP3    H232183   0.431   3.123   7.496 -0.9223  0.1245  0.2005
 3542TIP3   OH232184   3.101   5.162   0.011  0.0645  0.0363 -0.6159
 3542TIP3    H132185   3.044   5.197   0.079  0.4616  0.2039 -0.3640
 3542TIP3    H232186   3.042   5.115  -0.048 -0.3639  0.4389 -0.5113
 3543TIP3   OH232187   2.609   5.677   7.376  0.0068 -0.4001  0.1115
 3543TIP3    H132188   2.692   5.704   7.416 -0.2314 -1.7307  1.6322
 3543TIP3    H232189   2.603   5.583   7.395  0.2249 -1.4029 -3.8205
 3544TIP3   OH232190   1.779   4.885   1.337 -0.5364  0.4341 -0.0457
 3544TIP3    H132191   1.808   4.891   1.246  2.3840  0.2417  0.7688
 3544TIP3    H232192   1.740   4.971   1.355 -2.2548  0.0750 -1.7489
 3545TIP3   OH232193   4.304   4.037   0.088  0.4360 -0.3234  0.0930
 3545TIP3    H132194   4.321   4.131   0.096 -0.2102 -0.0250 -1.5356
 3545TIP3    H232195   4.384   4.001   0.051  1.1172 -0.6446  1.7974
 3546TIP3   OH232196   1.326   2.587   0.112 -0.0047  0.7284 -0.1418
 3546TIP3    H132197   1.324   2.668   0.062  1.7360  0.5264 -0.6054
 3546TIP3    H232198   1.418   2.561   0.113 -0.0671  0.3479  2.6138
 3547TIP3   OH232199   4.325   0.260   7.779  0.2403  0.8464 -0.1979
 3547TIP3    H132200   4.399   0.293   7.727 -0.2292 -0.7512 -1.9891
 3547TIP3    H232201   4.366   0.211   7.851  0.9490  0.3753 -0.9039
 3548TIP3   OH232202   0.677   6.151   0.609 -0.0106  0.0539  0.2954
 3548TIP3    H132203   0.688   6.195   0.693 -3.4970  2.0990 -0.1002
 3548TIP3    H232204   0.653   6.061   0.631 -0.6869  0.5161  1.4874
 3549TIP3   OH232205   3.013   2.098   6.862  0.1369  0.1629 -1.1388
 3549TIP3    H132206   2.919   2.083   6.852  0.1550 -0.0545 -0.9926
 3549TIP3    H232207   3.023   2.192   6.852 -0.0284  0.1277 -1.7077
 3550TIP3   OH232208   0.025   3.738   7.732 -0.1682 -0.1605  0.2055
 3550TIP3    H132209   0.054   3.827   7.749  1.0836 -0.5315  0.1365
 3550TIP3    H232210   0.071   3.713   7.652 -0.5004 -0.8783  0.2276
 3551TIP3   OH232211   3.455   3.099   1.534 -0.3662 -0.7278 -0.3999
 3551TIP3    H132212   3.463   3.131   1.445 -2.8561  1.3530  0.0268
 3551TIP3    H232213   3.541   3.116   1.574  0.4567 -0.8030 -2.0782
 3552TIP3   OH232214   5.625   6.364   0.901 -0.2455 -0.0327 -0.3920
 3552TIP3    H132215   5.712   6.356   0.941  0.4562 -0.7954 -1.9875
 3552TIP3    H232216   5.642   6.368   0.807 -1.6794  3.5079 -0.6816
 3553TIP3   OH232217   0.735   5.605   1.212 -0.0846  0.1128  0.0790
 3553TIP3    H132218   0.809   5.559   1.172 -0.8785 -0.2801 -1.0052
 3553TIP3    H232219   0.674   5.535   1.236 -0.8234  0.5184 -0.5745
 3554TIP3   OH232220   2.734   1.546   7.577 -0.9368  0.1405  0.4170
 3554TIP3    H132221   2.685   1.627   7.569 -0.0778  0.6006 -0.4732
 3554TIP3    H232222   2.681   1.481   7.531 -0.0441  0.9590 -1.8947
 3555TIP3   OH232223   6.067   1.148   8.778  0.4208 -0.2884 -0.0374
 3555TIP3    H132224   5.989   1.160   8.832  0.6571 -1.0019  0.4788
 3555TIP3    H232225   6.082   1.234   8.738 -2.1147 -0.7225 -2.1969
 3556TIP3   OH232226   2.111   1.828   6.836  0.3483  0.0165 -0.3775
 3556TIP3    H132227   2.205   1.807   6.834  0.3859  0.2254 -0.8707
 3556TIP3    H232228   2.101   1.884   6.914  0.6078 -0.1188 -0.2457
 3557TIP3   OH232229   1.596   2.029   7.936  0.4501  0.0649 -0.1666
 3557TIP3    H132230   1.594   2.103   7.996 -2.1198 -0.2386  0.2767
 3557TIP3    H232231   1.606   1.952   7.992  2.3128 -0.0053 -0.5536
 3558TIP3   OH232232   1.968   1.709   1.026 -0.1099 -0.1937  0.9033
 3558TIP3    H132233   1.905   1.730   0.957 -1.0729 -0.3979  1.7021
 3558TIP3    H232234   1.976   1.613   1.023 -0.7000 -0.2739  1.5186
 3559TIP3   OH232235   0.232   0.027   1.276 -0.2546 -0.4974 -0.1228
 3559TIP3    H132236   0.154   0.029   1.331  0.2474  1.1119  0.5875
 3559TIP3    H232237   0.282   0.105   1.302  0.6300 -0.4007 -1.9583
 3560TIP3   OH232238   4.631   6.682   7.716  1.0248 -0.0525  0.1415
 3560TIP3    H132239   4.569   6.609   7.711 -0.5184  1.2430 -0.2868
 3560TIP3    H232240   4.690   6.667   7.642  1.0313 -1.1090  0.3378
 3561TIP3   OH232241   2.965   0.926   0.658 -0.0112 -0.4246 -0.8931
 3561TIP3    H132242   2.947   0.996   0.596 -1.0862  2.7401  2.5945
 3561TIP3    H232243   2.883   0.912   0.704  1.1429 -1.1948  1.0753
 3562TIP3   OH232244   4.928   0.103   0.351  0.8680  0.2469 -0.0823
 3562TIP3    H132245   4.939   0.165   0.423 -1.5765  1.3935 -0.5548
 3562TIP3    H232246   4.939   0.017   0.390  0.4895  0.8786  1.4924
 3563TIP3   OH232247   6.732   2.510   8.180  0.2128  0.2057  0.0841
 3563TIP3    H132248   6.742   2.416   8.197 -1.7340  0.0337  0.5152
 3563TIP3    H232249   6.733   2.550   8.267  0.2424  0.4888 -0.0466
 3564TIP3   OH232250   4.362   6.217   7.791  0.0543 -0.2390  0.1778
 3564TIP3    H132251   4.308   6.245   7.865  0.1668  0.8994 -0.1450
 3564TIP3    H232252   4.333   6.128   7.773 -0.8995 -0.0712  0.7588
 3565TIP3   OH232253   4.149   5.232   7.138  0.2539 -0.1333  0.1141
 3565TIP3    H132254   4.104   5.183   7.206  1.7270  0.6047  1.6921
 3565TIP3    H232255   4.088   5.303   7.116 -1.1156 -1.5419 -0.9100
 3566TIP3   OH232256   6.077   4.738   7.694 -0.3028 -0.0909  0.0825
 3566TIP3    H132257   6.054   4.831   7.695 -0.1595 -0.0550  0.0531
 3566TIP3    H232258   6.023   4.700   7.626  1.2269  0.3811 -1.4685
 3567TIP3   OH232259   4.332   0.114   1.940  0.4472  0.3613 -0.0838
 3567TIP3    H132260   4.373   0.051   1.880 -1.0281 -1.3681  0.6439
 3567TIP3    H232261   4.258   0.150   1.891 -0.2188 -0.3792  0.3621
 3568TIP3   OH232262   2.434   6.388   1.476  0.8212  0.4064 -0.0412
 3568TIP3    H132263   2.437   6.305   1.524 -0.0577  0.7814  0.7121
 3568TIP3    H232264   2.343   6.418   1.486  0.9485  1.1182 -0.8876
 3569TIP3   OH232265   5.038   4.963   7.813 -0.0285  0.1183 -0.1292
 3569TIP3    H132266   5.100   4.952   7.740  1.1961 -0.8391  1.0024
 3569TIP3    H232267   4.964   4.908   7.789  0.9996 -1.3954 -0.0120
 3570TIP3   OH232268   4.424   3.182   6.803  0.5632 -0.4109  0.1663
 3570TIP3    H132269   4.485   3.205   6.733 -1.3284  1.4669 -0.9501
 3570TIP3    H232270   4.345   3.153   6.758 -0.0902 -0.8997  1.5689
 3571TIP3   OH232271   6.274   2.647   7.907  0.2496 -0.0307 -0.8834
 3571TIP3    H132272   6.319   2.599   7.976 -1.1181 -0.4675 -0.2466
 3571TIP3    H232273   6.273   2.738   7.938 -0.4952 -0.2476 -0.2110
 3572TIP3   OH232274   4.182   4.780   1.293  0.7197 -0.1876 -0.5131
 3572TIP3    H132275   4.272   4.748   1.297  0.7174 -0.1141  0.2329
 3572TIP3    H232276   4.174   4.841   1.366  0.2784  0.3748 -1.0156
 3573TIP3   OH232277   2.679   3.385   8.449  0.7316 -0.0991  0.2516
 3573TIP3    H132278   2.585   3.403   8.447  0.7208 -0.0779  0.6974
 3573TIP3    H232279   2.709   3.426   8.530  1.6578  2.3524 -1.2588
 3574TIP3   OH232280   5.233   1.514   2.167 -0.5981 -0.4383 -0.0001
 3574TIP3    H132281   5.282   1.565   2.103 -2.0485  1.3823  0.2649
 3574TIP3    H232282   5.229   1.426   2.130  1.7416 -0.3388 -0.6081
 3575TIP3   OH232283   2.937   2.984   7.160 -0.0216  0.4462  0.1464
 3575TIP3    H132284   2.905   2.927   7.230 -0.0880  0.6336  0.2711
 3575TIP3    H232285   2.957   2.925   7.088 -1.2717  0.3731 -0.1694
 3576TIP3   OH232286   0.584   3.941   8.026 -0.1670 -0.2039  0.3446
 3576TIP3    H132287   0.525   3.886   8.077 -1.5874 -0.0609 -1.0655
 3576TIP3    H232288   0.552   4.030   8.042 -0.5100 -0.1451 -0.6237
 3577TIP3   OH232289   6.567   6.690   1.347  0.4461  0.2284 -0.1251
 3577TIP3    H132290   6.542   6.775   1.311 -2.1562 -0.1170  0.6063
 3577TIP3    H232291   6.536   6.627   1.283  0.4436 -0.2216  0.3096
 3578TIP3   OH232292   2.908   3.264   8.234 -0.1123 -0.5690  0.5367
 3578TIP3    H132293   2.825   3.266   8.187  0.1278  1.0943  0.1243
 3578TIP3    H232294   2.897   3.196   8.301 -1.2875 -1.3309 -0.4015
 3579TIP3   OH232295   6.045   6.416   1.406 -0.1264 -0.0811 -0.0103
 3579TIP3    H132296   6.029   6.396   1.313 -1.5509 -0.6227  0.3172
 3579TIP3    H232297   5.968   6.468   1.432  0.9974  1.3988  0.5007
 3580TIP3   OH232298   2.262   1.675   2.092 -0.0519  0.4322 -0.3890
 3580TIP3    H132299   2.203   1.741   2.129  2.5109  2.4157  0.4546
 3580TIP3    H232300   2.332   1.725   2.050  0.8105 -1.7924 -1.7878
 3581TIP3   OH232301   5.519   4.514   8.571  0.0208  0.2552  0.3603
 3581TIP3    H132302   5.472   4.450   8.625  0.2944  0.8970  1.3873
 3581TIP3    H232303   5.608   4.514   8.606  0.1498  0.8149  0.0317
 3582TIP3   OH232304   5.786   3.576   1.217  0.7446 -0.5147  0.1410
 3582TIP3    H132305   5.823   3.540   1.137  0.4187  1.1845 -0.8227
 3582TIP3    H232306   5.700   3.609   1.192  0.8183  0.4538  1.0764
 3583TIP3   OH232307   0.233   4.909   1.940  0.7265 -0.5236  0.1163
 3583TIP3    H132308   0.177   4.853   1.993 -0.7938 -0.3413 -1.1886
 3583TIP3    H232309   0.237   4.865   1.855  1.0577  0.4028 -0.3648
 3584TIP3   OH232310   0.978   3.287   0.798  0.2559  0.1202 -0.1511
 3584TIP3    H132311   0.891   3.313   0.767 -0.1900  0.7576  1.5089
 3584TIP3    H232312   1.031   3.365   0.788 -0.2713  0.8168  1.9163
 3585TIP3   OH232313   5.277   3.579   0.195 -0.1862 -0.5120 -0.3000
 3585TIP3    H132314   5.217   3.632   0.248 -0.1675 -1.5240  0.7745
 3585TIP3    H232315   5.357   3.574   0.247 -0.3814 -2.0408 -0.0950
 3586TIP3   OH232316   0.848   4.838   8.303 -0.3665  0.3087  0.2975
 3586TIP3    H132317   0.793   4.763   8.282 -1.0768  0.8392  0.2408
 3586TIP3    H232318   0.934   4.815   8.268 -1.2616  0.7515 -2.3880
 3587TIP3   OH232319   4.626   6.523   1.299  0.1010  0.3905 -0.2844
 3587TIP3    H132320   4.584   6.440   1.323  0.5629  0.2532  0.0798
 3587TIP3    H232321   4.698   6.496   1.241 -0.9332  0.7096 -1.7434
 3588TIP3   OH232322   0.134   2.901   8.840 -0.3711 -0.0595 -0.5155
 3588TIP3    H132323   0.118   2.996   8.841  0.6977  0.2155  2.4870
 3588TIP3    H232324   0.227   2.893   8.818 -0.5153 -0.4157 -0.9818
 3589TIP3   OH232325   2.351   6.022   0.428  0.2339  0.2807  0.2448
 3589TIP3    H132326   2.335   5.968   0.350  1.6508  0.1446  0.0255
 3589TIP3    H232327   2.295   6.098   0.416  0.3065  0.1776 -0.8241
 3590TIP3   OH232328   5.069   3.167   0.352 -0.2139 -0.0083  0.2150
 3590TIP3    H132329   5.128   3.205   0.286 -2.5163  0.9048 -1.4649
 3590TIP3    H232330   5.004   3.118   0.301 -0.2298 -2.0735  2.0702
 3591TIP3   OH232331   6.722   2.801   0.206  0.0529 -0.8241 -0.2882
 3591TIP3    H132332   6.666   2.824   0.280  0.8982 -0.5892  0.2953
 3591TIP3    H232333   6.672   2.828   0.129  0.0905  1.0778  0.2839
 3592TIP3   OH232334   4.781   5.266   0.964 -0.1080  0.1197  0.4018
 3592TIP3    H132335   4.715   5.236   0.902  0.4676 -0.1459 -0.1017
 3592TIP3    H232336   4.847   5.196   0.964  1.4773  1.5234 -1.1039
 3593TIP3   OH232337   2.415   0.850   0.914  0.1281 -0.1702  0.0819
 3593TIP3    H132338   2.473   0.823   0.984 -0.2711 -0.0046  0.4798
 3593TIP3    H232339   2.411   0.945   0.920 -0.4221 -0.2010  0.2524
 3594TIP3   OH232340   3.480   1.211   7.392  0.0676  0.7327 -0.1215
 3594TIP3    H132341   3.389   1.180   7.392  0.3130 -0.1114 -2.1082
 3594TIP3    H232342   3.480   1.288   7.335  0.2168  2.1542  1.7002
 3595TIP3   OH232343   0.287   4.459   6.987 -0.4219 -0.4529 -0.0266
 3595TIP3    H132344   0.247   4.400   6.924  0.1110  0.4445 -1.2396
 3595TIP3    H232345   0.379   4.432   6.991  0.1940  1.1239 -1.7087
 3596TIP3   OH232346   4.063   5.496   6.974 -0.0968 -0.4955  0.1719
 3596TIP3    H132347   4.083   5.587   6.951 -0.3403 -0.4826  0.0134
 3596TIP3    H232348   3.998   5.469   6.910  1.8898 -1.6314 -1.4920
 3597TIP3   OH232349   3.667   3.717   1.143 -0.0469 -0.0020  0.8923
 3597TIP3    H132350   3.638   3.630   1.115 -0.2363  0.3934 -0.1765
 3597TIP3    H232351   3.748   3.701   1.190 -0.3950 -0.8192  1.2406
 3598TIP3   OH232352   4.015   3.002   6.466 -0.7035  0.0599  0.6315
 3598TIP3    H132353   3.935   2.955   6.445 -1.4341  1.2743  0.6329
 3598TIP3    H232354   4.064   3.004   6.384  0.2065 -2.2440  1.0314
 3599TIP3   OH232355   5.777   2.192   8.191 -0.1631  1.0603 -0.0938
 3599TIP3    H132356   5.807   2.163   8.277 -1.4292  1.0636  0.3677
 3599TIP3    H232357   5.707   2.131   8.168  3.3242 -2.2580 -3.4648
 3600TIP3   OH232358   3.125   3.057   8.003 -0.2863  0.0435  0.5311
 3600TIP3    H132359   3.055   3.034   8.064 -1.5536  0.9025 -0.5345
 3600TIP3    H232360   3.082   3.108   7.935  1.8132  2.8330  1.1043
 3601TIP3   OH232361   3.414   3.910   7.731 -0.4450 -0.2931 -0.9716
 3601TIP3    H132362   3.388   3.828   7.771  1.0631 -1.4596 -2.2612
 3601TIP3    H232363   3.389   3.977   7.794  1.1874 -1.9583  1.6227
 3602TIP3   OH232364   6.680   5.031   0.697 -0.4121 -0.2545 -0.3115
 3602TIP3    H132365   6.702   5.112   0.652  1.4037 -1.4995 -1.8454
 3602TIP3    H232366   6.592   5.010   0.669 -0.9761  1.2255  0.2402
 3603TIP3   OH232367   2.615   6.486   1.758  0.7206  0.0388 -0.2493
 3603TIP3    H132368   2.527   6.454   1.779  0.7717 -0.2831 -0.5184
 3603TIP3    H232369   2.652   6.419   1.701 -0.5753  2.2333 -4.1068
 3604TIP3   OH232370   3.339   4.066   1.661 -0.6283  0.4618 -0.1374
 3604TIP3    H132371   3.313   4.145   1.708  3.2145  0.4961  2.3802
 3604TIP3    H232372   3.335   3.996   1.726  0.0868 -0.5336 -1.1222
 3605TIP3   OH232373   1.318   6.142   7.945 -0.3055 -0.3198  0.3527
 3605TIP3    H132374   1.310   6.144   7.850  3.1049  0.8625 -0.0679
 3605TIP3    H232375   1.279   6.225   7.974  2.4087  1.4635 -0.6258
 3606TIP3   OH232376   0.569   0.213   0.599 -0.0844 -0.1218  0.0160
 3606TIP3    H132377   0.511   0.150   0.642 -1.4984  0.7374 -0.5526
 3606TIP3    H232378   0.592   0.274   0.668 -3.2014  1.8675 -0.4839
 3607TIP3   OH232379   5.479   5.302   7.532  0.2111  0.2010  0.4470
 3607TIP3    H132380   5.386   5.323   7.541  0.4267  1.5149 -0.1524
 3607TIP3    H232381   5.486   5.258   7.447  0.2385  0.8503  0.1044
 3608TIP3   OH232382   6.422   6.106   0.019 -0.1846  0.0318 -0.4093
 3608TIP3    H132383   6.345   6.140  -0.026 -0.5014 -0.2896 -0.1131
 3608TIP3    H232384   6.391   6.029   0.066  0.0093  0.6380  0.7724
 3609TIP3   OH232385   0.484   4.445   1.846  0.1074 -0.0328 -0.0078
 3609TIP3    H132386   0.556   4.508   1.847 -0.0218  0.1205 -0.2030
 3609TIP3    H232387   0.405   4.499   1.838 -0.1399 -0.1018  1.5837
 3610TIP3   OH232388   5.225   2.749   1.108  0.0635  0.1028 -0.3373
 3610TIP3    H132389   5.274   2.671   1.080  0.0476  0.2872 -0.8788
 3610TIP3    H232390   5.210   2.735   1.202 -0.8405 -1.0481 -0.6196
 3611TIP3   OH232391   0.003   5.963   7.331 -0.3225 -0.2206 -0.4684
 3611TIP3    H132392   0.072   5.970   7.264  0.4521 -3.1212 -0.1109
 3611TIP3    H232393  -0.078   5.960   7.281 -0.1430  1.9020 -0.9750
 3612TIP3   OH232394   4.844   3.975   7.348  0.1462 -0.2562 -0.2901
 3612TIP3    H132395   4.777   4.042   7.362 -1.0679 -1.2424 -1.1278
 3612TIP3    H232396   4.865   3.943   7.436 -0.8856 -0.2855 -0.0349
 3613TIP3   OH232397   2.429   5.933   8.564 -0.2198 -0.5087  0.1078
 3613TIP3    H132398   2.442   5.991   8.639  0.6334 -0.8035  0.1983
 3613TIP3    H232399   2.456   5.985   8.489 -1.3503 -0.1102 -0.0542
 3614TIP3   OH232400   4.827   4.580   7.950  0.0539 -0.3124 -0.0876
 3614TIP3    H132401   4.834   4.491   7.983 -1.1077 -0.5493 -0.4456
 3614TIP3    H232402   4.902   4.626   7.989  0.1955 -1.2307  0.7579
 3615TIP3   OH232403   5.714   1.464   7.401 -0.1983  0.1418 -0.3178
 3615TIP3    H132404   5.805   1.479   7.426  0.2629 -3.0572  0.3273
 3615TIP3    H232405   5.666   1.464   7.484 -0.5851  0.5691 -0.5356
 3616TIP3   OH232406   5.568   5.699   7.010 -0.3177 -0.2609 -0.5026
 3616TIP3    H132407   5.510   5.775   7.011  0.7751  0.6382 -1.6059
 3616TIP3    H232408   5.528   5.640   6.946 -0.5237 -0.0655 -0.5586
 3617TIP3   OH232409   5.140   2.518   7.717 -1.0239 -0.0306 -0.2918
 3617TIP3    H132410   5.174   2.548   7.632 -0.5542 -2.1357 -0.9267
 3617TIP3    H232411   5.212   2.532   7.778 -0.9174  0.3731 -0.5070
 3618TIP3   OH232412   1.334   3.055   8.361  0.4627  0.4241 -0.1911
 3618TIP3    H132413   1.329   3.106   8.442  1.1691 -0.6030  0.5242
 3618TIP3    H232414   1.257   3.083   8.311 -0.6157  0.2988  1.3007
 3619TIP3   OH232415   5.268   3.375   8.368  0.3371 -0.3640  0.0893
 3619TIP3    H132416   5.197   3.398   8.428  1.3070  1.7814  0.5194
 3619TIP3    H232417   5.341   3.351   8.426 -0.0241 -2.8657 -0.3458
 3620TIP3   OH232418   3.290   1.045   1.049  0.1534 -0.3528 -0.5913
 3620TIP3    H132419   3.317   0.960   1.083  2.9008 -0.0711 -1.7645
 3620TIP3    H232420   3.220   1.073   1.107 -0.0170 -2.8640  0.5538
 3621TIP3   OH232421   2.515   2.062   7.530  0.0865  0.0283  0.8884
 3621TIP3    H132422   2.533   2.087   7.621 -1.7582 -0.3914  1.4261
 3621TIP3    H232423   2.423   2.086   7.517  0.0523 -0.7863 -0.5560
 3622TIP3   OH232424   5.290   4.194   7.433 -0.0218 -0.6053 -0.0758
 3622TIP3    H132425   5.332   4.273   7.467  1.0614 -1.5627  0.8977
 3622TIP3    H232426   5.280   4.210   7.339  0.5536  0.5172  0.0418
 3623TIP3   OH232427   0.983   2.032   8.626  0.3887  0.3415  0.0237
 3623TIP3    H132428   0.905   2.071   8.588  0.9786  1.3947 -0.1572
 3623TIP3    H232429   1.055   2.085   8.592  1.1401 -0.2727  0.6100
 3624TIP3   OH232430   5.370   1.307   1.207 -0.1607 -0.1757 -0.4240
 3624TIP3    H132431   5.387   1.385   1.155  0.1825  0.6590  0.8909
 3624TIP3    H232432   5.438   1.245   1.181  1.1394  0.8934  0.3122
 3625TIP3   OH232433   6.045   5.111   8.572  0.6082  0.5312  0.0174
 3625TIP3    H132434   6.096   5.082   8.496  1.8329  1.9843  0.2376
 3625TIP3    H232435   6.111   5.127   8.640 -0.2264  1.5123  0.6234
 3626TIP3   OH232436   1.883   6.723   0.780 -0.0189 -0.7842 -0.6792
 3626TIP3    H132437   1.806   6.695   0.730  0.4103 -2.1675 -0.5950
 3626TIP3    H232438   1.916   6.643   0.820 -0.5135  0.2678  2.0993
 3627TIP3   OH232439   4.214   4.540   8.016 -0.1251  0.0497 -0.0074
 3627TIP3    H132440   4.234   4.608   7.952 -0.2135 -0.3739 -0.4966
 3627TIP3    H232441   4.279   4.472   7.999  0.6846  0.4850  1.2299
 3628TIP3   OH232442   6.000   3.567   7.486  0.1029 -0.4174  0.6057
 3628TIP3    H132443   5.970   3.648   7.443 -0.9611 -1.3699 -0.5236
 3628TIP3    H232444   6.086   3.551   7.447 -0.1831 -0.4349 -0.0392
 3629TIP3   OH232445   6.347   2.572   6.760  0.2047  0.4269  0.0315
 3629TIP3    H132446   6.277   2.606   6.817  2.5174  1.9133  2.1995
 3629TIP3    H232447   6.370   2.646   6.704  0.2164  0.0011 -0.5378
 3630TIP3   OH232448   6.530   0.681   0.465 -0.0038  0.0052 -0.1973
 3630TIP3    H132449   6.541   0.760   0.411  1.2003 -0.5877 -0.8687
 3630TIP3    H232450   6.607   0.679   0.521  0.4107 -1.1042 -0.7644
 3631TIP3   OH232451   0.412   4.686   6.889  0.0809  0.8021 -0.0408
 3631TIP3    H132452   0.493   4.641   6.864  0.0044 -0.0303  1.1188
 3631TIP3    H232453   0.351   4.616   6.912 -0.2143  1.4610  1.3166
 3632TIP3   OH232454   6.553   2.130   1.652  0.3033 -0.1782 -0.2244
 3632TIP3    H132455   6.464   2.096   1.647  0.6009 -1.1690  0.8509
 3632TIP3    H232456   6.544   2.210   1.705 -0.4442  1.7700 -3.0381
 3633TIP3   OH232457   4.814   6.205   8.034 -0.0795  0.3767 -0.2418
 3633TIP3    H132458   4.837   6.120   7.998  1.0960  1.0725 -1.2102
 3633TIP3    H232459   4.815   6.192   8.129 -0.0879 -0.7213 -0.3809
 3634TIP3   OH232460   3.111   1.376   8.325  0.6028  0.6306 -0.5539
 3634TIP3    H132461   3.165   1.429   8.266 -0.4976  0.7758 -1.4785
 3634TIP3    H232462   3.030   1.426   8.334  0.3068  0.0359  0.1395
 3635TIP3   OH232463   4.982   4.652   8.436  0.1595 -0.1380  0.8513
 3635TIP3    H132464   4.940   4.601   8.505  1.4895  0.1778  1.9539
 3635TIP3    H232465   4.994   4.739   8.475 -1.7039  0.9645 -0.8468
 3636TIP3   OH232466   3.319   3.524   1.404  0.4301 -0.5043 -0.1992
 3636TIP3    H132467   3.338   3.583   1.477  0.6663 -2.3160  1.2617
 3636TIP3    H232468   3.240   3.477   1.431  1.1737 -2.0041 -0.5902
 3637TIP3   OH232469   0.459   1.297   0.828  0.0058  0.0196 -0.3499
 3637TIP3    H132470   0.521   1.334   0.766  0.4758 -0.1548  0.0125
 3637TIP3    H232471   0.409   1.233   0.776 -0.3231  0.6282 -0.7964
 3638TIP3   OH232472   1.673   0.418   7.078 -0.1978  0.0924 -0.1460
 3638TIP3    H132473   1.615   0.437   7.153  0.1612  2.6713 -0.4131
 3638TIP3    H232474   1.732   0.350   7.110 -1.2245 -0.1820  1.2909
 3639TIP3   OH232475   4.396   0.595   8.371 -0.0121  0.0415  1.1196
 3639TIP3    H132476   4.367   0.542   8.297 -0.8192 -0.7744  1.9864
 3639TIP3    H232477   4.380   0.685   8.345  0.6230 -0.1652 -0.0640
 3640TIP3   OH232478   6.743   0.832   8.213 -0.0180 -0.0163  0.4348
 3640TIP3    H132479   6.657   0.809   8.250 -0.0070 -0.2394  0.3184
 3640TIP3    H232480   6.806   0.789   8.271 -0.0262 -1.6839 -0.7332
 3641TIP3   OH232481   3.331   3.659   7.876 -0.1093 -0.0669 -0.6412
 3641TIP3    H132482   3.394   3.587   7.873 -0.0575 -0.0199 -0.6756
 3641TIP3    H232483   3.295   3.655   7.965  1.5676  1.2842  0.1721
 3642TIP3   OH232484   1.178   2.533   1.977 -0.4603 -0.6059  0.5337
 3642TIP3    H132485   1.195   2.621   2.011 -0.0594 -0.0467 -1.0365
 3642TIP3    H232486   1.166   2.479   2.055  0.8842  0.5176  1.5680
 3643TIP3   OH232487   0.951   6.193   1.825  0.0743 -0.3644  0.4560
 3643TIP3    H132488   1.006   6.161   1.897 -0.6364  0.0536  1.2035
 3643TIP3    H232489   0.993   6.273   1.796  0.3511 -0.5216  0.4200
 3644TIP3   OH232490   6.479   4.991   8.081 -0.0493 -0.2371 -0.2005
 3644TIP3    H132491   6.477   5.020   7.990 -0.2447 -0.5124 -0.2851
 3644TIP3    H232492   6.412   5.045   8.124  0.0878 -0.0623 -0.2060
 3645TIP3   OH232493   3.139   1.839   0.689  0.3477  0.1336  0.2427
 3645TIP3    H132494   3.157   1.931   0.672 -0.4611 -0.0671 -2.0064
 3645TIP3    H232495   3.151   1.796   0.604 -1.4879 -1.4577  0.7122
 3646TIP3   OH232496   0.661   1.055   8.401  0.5298 -0.1808  0.4933
 3646TIP3    H132497   0.726   1.070   8.333  0.1503  2.8115  0.6577
 3646TIP3    H232498   0.702   1.084   8.482  0.1413 -1.4451  1.1692
 3647TIP3   OH232499   2.530   6.164   6.696  0.1908 -0.3314 -0.0690
 3647TIP3    H132500   2.606   6.121   6.656 -0.4424 -1.4300 -0.1164
 3647TIP3    H232501   2.463   6.164   6.628 -0.5039 -1.1535  0.5857
 3648TIP3   OH232502   2.559   0.037   7.553  0.3084 -0.1242  0.6513
 3648TIP3    H132503   2.599   0.049   7.639  1.4802  0.8181  0.0180
 3648TIP3    H232504   2.628  -0.006   7.501 -1.2224 -2.9765  0.8049
 3649TIP3   OH232505   0.538   4.738   1.163 -0.0916 -0.0475 -0.6564
 3649TIP3    H132506   0.485   4.685   1.103 -0.1980 -0.8623  0.1370
 3649TIP3    H232507   0.473   4.779   1.220 -0.0320  1.1979 -1.4376
 3650TIP3   OH232508   1.484   2.359   7.003 -0.1401 -0.4572 -0.3995
 3650TIP3    H132509   1.425   2.286   6.982 -0.0296 -0.0561 -2.2500
 3650TIP3    H232510   1.572   2.325   6.986  0.0103 -0.2714 -0.0247
 3651TIP3   OH232511   1.024   2.737   8.735 -0.0257 -0.2221 -0.0261
 3651TIP3    H132512   0.943   2.752   8.784 -0.5564 -1.1596 -0.5977
 3651TIP3    H232513   0.995   2.705   8.650  0.7474  3.6907 -1.9720
 3652TIP3   OH232514   2.304   2.246   8.291  0.0237  0.0647 -0.1727
 3652TIP3    H132515   2.230   2.214   8.342  0.0104  0.8372  0.3116
 3652TIP3    H232516   2.380   2.204   8.331 -0.0138  0.4407  0.3059
 3653TIP3   OH232517   0.022   3.386   7.648  0.1778 -0.1571 -0.3203
 3653TIP3    H132518   0.053   3.475   7.663 -0.3149  0.3486 -2.0891
 3653TIP3    H232519  -0.046   3.373   7.714  1.5252  0.0455  1.1900
 3654TIP3   OH232520   0.277   6.645   8.369 -0.2033 -0.1304 -0.2205
 3654TIP3    H132521   0.230   6.724   8.395  0.7437 -0.2368  1.9858
 3654TIP3    H232522   0.292   6.597   8.450 -0.1168 -2.2632 -1.4135
 3655TIP3   OH232523   0.792   3.557   8.521  0.2666  0.3416  0.2293
 3655TIP3    H132524   0.714   3.586   8.567 -0.2352 -0.9537  0.2262
 3655TIP3    H232525   0.863   3.610   8.558 -0.1908 -0.3256  2.1382
 3656TIP3   OH232526   1.393   3.961   0.903  0.2026  0.0246 -0.0667
 3656TIP3    H132527   1.425   3.907   0.830  1.8317 -1.7872  1.8815
 3656TIP3    H232528   1.413   4.051   0.876  1.3200 -0.6370 -1.5866
 3657TIP3   OH232529   0.943   3.719   0.950  0.0262  0.4865  0.7414
 3657TIP3    H132530   0.974   3.810   0.953  1.3947  0.1215 -0.7282
 3657TIP3    H232531   1.023   3.667   0.944 -0.6305 -0.9751  3.2853
 3658TIP3   OH232532   1.772   1.598   7.875  0.1542  0.3520 -0.0291
 3658TIP3    H132533   1.683   1.626   7.894  1.1921  2.7778  1.7269
 3658TIP3    H232534   1.798   1.651   7.800  0.3435  0.1384 -0.1152
 3659TIP3   OH232535   0.404   5.297   0.433 -0.2440  0.7166  0.1447
 3659TIP3    H132536   0.500   5.301   0.432 -0.1823 -0.4566 -1.3935
 3659TIP3    H232537   0.382   5.285   0.526  1.1964 -0.6523  0.3591
 3660TIP3   OH232538   4.258   0.555   0.637  0.8041 -0.4058  0.4280
 3660TIP3    H132539   4.230   0.534   0.726  1.6977 -0.5388  0.6839
 3660TIP3    H232540   4.345   0.518   0.629  1.6100  1.4125  0.2189
 3661TIP3   OH232541   5.900   5.664   6.756  0.9450 -0.0330  0.5614
 3661TIP3    H132542   5.920   5.646   6.848  3.2553  1.2044  0.3592
 3661TIP3    H232543   5.976   5.711   6.723 -0.2565  0.4432 -1.7484
 3662TIP3   OH232544   4.890   6.648   1.439 -0.2962  0.0867  0.5782
 3662TIP3    H132545   4.859   6.583   1.502  0.1539 -0.0506  0.6590
 3662TIP3    H232546   4.912   6.598   1.361  2.0606 -0.1701  1.3299
 3663TIP3   OH232547   5.955   5.300   7.946  0.0331 -0.1403  0.4933
 3663TIP3    H132548   5.914   5.374   7.902 -0.5407 -0.1419  1.0141
 3663TIP3    H232549   5.952   5.229   7.883  0.3876  0.2119  0.0693
 3664TIP3   OH232550   0.928   2.407   1.853 -0.1584  0.4798  0.1486
 3664TIP3    H132551   0.880   2.453   1.921 -0.7564 -0.1660  0.1824
 3664TIP3    H232552   1.021   2.417   1.877 -0.3266  0.9237  0.6180
 3665TIP3   OH232553   3.947   0.040   2.278  0.4602  0.3127  0.3799
 3665TIP3    H132554   3.965  -0.013   2.200 -1.2351 -0.3716  0.4002
 3665TIP3    H232555   3.987   0.125   2.259  0.4318  0.0378 -1.0659
 3666TIP3   OH232556   5.513   2.494   0.720  0.6963  0.3557  0.2778
 3666TIP3    H132557   5.538   2.410   0.759 -2.7567 -0.1225  1.7451
 3666TIP3    H232558   5.491   2.472   0.629 -1.6966 -0.7182  1.0624
 3667TIP3   OH232559   0.531   4.061   7.740 -0.0005 -0.3017 -0.3518
 3667TIP3    H132560   0.486   3.977   7.747  0.8571 -0.6390  2.2001
 3667TIP3    H232561   0.499   4.112   7.815  2.4602  0.0621  0.5619
 3668TIP3   OH232562   6.424   4.143   0.624  0.4435 -0.4297 -0.5417
 3668TIP3    H132563   6.508   4.100   0.608  0.8607  0.9093 -2.3242
 3668TIP3    H232564   6.391   4.103   0.704  2.1189 -1.9823 -0.5687
 3669TIP3   OH232565   1.394   4.079   7.557 -0.1559  0.1391 -0.3536
 3669TIP3    H132566   1.351   3.999   7.525  0.2417 -0.0402 -0.4555
 3669TIP3    H232567   1.343   4.105   7.633 -0.8110  0.2808 -0.8384
 3670TIP3   OH232568   6.473   5.455   0.179  0.2214 -0.1262  0.1524
 3670TIP3    H132569   6.448   5.499   0.260  2.1747  0.7663  0.3273
 3670TIP3    H232570   6.418   5.494   0.112  0.5119  1.1656  0.6316
 3671TIP3   OH232571   4.216   3.422   8.253  0.2606  0.3852  0.2227
 3671TIP3    H132572   4.198   3.390   8.164  1.2642  0.1771  0.0811
 3671TIP3    H232573   4.193   3.348   8.309 -0.7854  0.6649  0.1822
 3672TIP3   OH232574   0.008   3.902   8.705 -0.4395  0.1210 -0.1742
 3672TIP3    H132575   0.056   3.934   8.782 -0.7434 -0.2702  0.1852
 3672TIP3    H232576  -0.010   3.981   8.654  1.0724  0.2118 -0.6086
 3673TIP3   OH232577   1.434   4.502   6.716 -0.1450  0.0116  0.6122
 3673TIP3    H132578   1.348   4.494   6.674  0.4713 -0.9876 -0.5198
 3673TIP3    H232579   1.488   4.546   6.650  0.2122  0.6500  1.3223
 3674TIP3   OH232580   0.714   1.171   1.935 -0.4357 -0.2903  0.2710
 3674TIP3    H132581   0.664   1.094   1.962 -0.4679  0.3093  1.9783
 3674TIP3    H232582   0.773   1.189   2.008 -0.9385  1.7508  0.2233
 3675TIP3   OH232583   2.538   0.996   7.043 -0.3697  0.5583  0.2541
 3675TIP3    H132584   2.585   1.047   6.977 -0.1465 -1.3777 -1.1859
 3675TIP3    H232585   2.606   0.956   7.096 -0.3395 -1.3441 -1.1259
 3676TIP3   OH232586   5.624   3.638   8.471  0.0464  0.4925  0.8921
 3676TIP3    H132587   5.593   3.654   8.560 -0.8052 -2.2124  1.1747
 3676TIP3    H232588   5.544   3.627   8.419  0.5062 -0.6269  0.3859
 3677TIP3   OH232589   6.500   2.909   6.481  0.2002 -0.5935 -0.4953
 3677TIP3    H132590   6.515   2.947   6.567 -0.9377  1.0400 -0.9725
 3677TIP3    H232591   6.575   2.938   6.429  0.3122 -0.6311 -0.3560
 3678TIP3   OH232592   2.381   2.718   0.421 -0.0706  0.0337  0.1708
 3678TIP3    H132593   2.380   2.810   0.447  0.1790  0.2531 -0.5560
 3678TIP3    H232594   2.458   2.682   0.465 -1.0187 -0.2113  1.6688
 3679TIP3   OH232595   5.487   3.193   8.720 -0.4731  0.3076 -0.1917
 3679TIP3    H132596   5.491   3.253   8.794  2.4367  1.0279 -0.8042
 3679TIP3    H232597   5.539   3.118   8.747 -0.1760  0.1555 -1.1505
 3680TIP3   OH232598   1.803   0.957   6.977 -0.4970 -0.3652  0.0657
 3680TIP3    H132599   1.828   0.905   7.053  0.1666 -0.7888 -0.4271
 3680TIP3    H232600   1.786   0.893   6.908 -0.5225  0.0378 -0.3104
 3681TIP3   OH232601   6.360   4.972   1.567  0.7264  0.3455  0.3439
 3681TIP3    H132602   6.380   5.056   1.526 -1.0583  0.0129 -1.3532
 3681TIP3    H232603   6.271   4.982   1.601  0.5500 -0.7888  0.2671
 3682TIP3   OH232604   5.470   1.420   1.967  0.0253 -0.5024  0.1316
 3682TIP3    H132605   5.459   1.353   1.900  0.0674 -0.1118 -0.2701
 3682TIP3    H232606   5.394   1.477   1.956  1.0392  0.7233 -0.9346
 3683TIP3   OH232607   1.987   0.774   1.199  0.1883 -0.3200 -0.5300
 3683TIP3    H132608   2.066   0.803   1.245 -0.3434  0.3733 -0.0333
 3683TIP3    H232609   1.965   0.690   1.240  0.8999 -0.7374 -0.9703
 3684TIP3   OH232610   3.147   1.984   1.196 -0.2951  0.6111  0.5100
 3684TIP3    H132611   3.186   1.904   1.230 -0.3108  1.1516  1.8688
 3684TIP3    H232612   3.167   1.983   1.103 -1.3938 -1.5958  0.2221
 3685TIP3   OH232613   0.155   5.247   7.537  0.1695 -0.4269 -0.3581
 3685TIP3    H132614   0.110   5.197   7.606  0.5699 -1.4471 -0.8057
 3685TIP3    H232615   0.097   5.240   7.461  0.2355 -0.2164 -0.4288
 3686TIP3   OH232616   3.766   2.034   6.738  0.0119 -0.1273 -0.3084
 3686TIP3    H132617   3.757   1.979   6.660  2.8616 -1.2344  0.0065
 3686TIP3    H232618   3.782   2.122   6.704 -2.6376  0.2324 -0.8418
 3687TIP3   OH232619   2.577   2.436   2.039 -0.1376  0.5899  0.5996
 3687TIP3    H132620   2.672   2.420   2.038  0.0339  1.4783  0.8354
 3687TIP3    H232621   2.538   2.351   2.022  0.6956  0.0972  1.0534
 3688TIP3   OH232622   3.359   4.589   0.082 -0.2999  0.3443 -0.0685
 3688TIP3    H132623   3.387   4.622   0.167 -0.1365 -3.6964  1.6600
 3688TIP3    H232624   3.268   4.617   0.073  0.0123  1.7550  0.8775
 3689TIP3   OH232625   6.787   3.121   0.249  0.0989 -0.3180 -0.3861
 3689TIP3    H132626   6.721   3.150   0.186  0.1742  1.3078  0.2422
 3689TIP3    H232627   6.868   3.115   0.198  0.5223  2.5726 -0.1990
 3690TIP3   OH232628   2.988   5.606   1.816 -0.8535 -0.3277 -0.2215
 3690TIP3    H132629   3.073   5.605   1.773 -1.6501  0.1395 -1.8864
 3690TIP3    H232630   2.992   5.535   1.880  0.5073 -0.7941 -0.7994
 3691TIP3   OH232631   4.163   0.304   0.515  0.4367  0.3990  0.3430
 3691TIP3    H132632   4.162   0.258   0.600  0.1947  0.7907  0.5513
 3691TIP3    H232633   4.184   0.395   0.537 -0.4190  0.6686  0.0627
 3692TIP3   OH232634   0.516   0.981   2.049 -0.9064 -0.1231  0.0162
 3692TIP3    H132635   0.506   0.944   2.137 -2.4063 -0.8022 -0.4031
 3692TIP3    H232636   0.435   1.030   2.034 -0.4375  0.4288 -0.7906
 3693TIP3   OH232637   6.310   4.281   7.176 -0.2968  0.0864 -0.5061
 3693TIP3    H132638   6.307   4.365   7.221 -1.2279  0.3600 -1.0498
 3693TIP3    H232639   6.219   4.261   7.157  0.1231  0.8183 -3.7774
 3694TIP3   OH232640   0.786   5.858   1.783  0.2628  0.0533 -0.7149
 3694TIP3    H132641   0.876   5.851   1.753  0.1653 -1.5204 -0.7300
 3694TIP3    H232642   0.736   5.807   1.719 -0.2903 -1.1949  0.6749
 3695TIP3   OH232643   1.704   2.479   7.503  0.1700  0.2089  0.6025
 3695TIP3    H132644   1.703   2.558   7.557 -1.1919  0.2568  0.5241
 3695TIP3    H232645   1.661   2.504   7.422  1.0472 -0.2261 -0.0224
 3696TIP3   OH232646   2.178   4.812   0.782 -0.0820  0.0771 -0.0848
 3696TIP3    H132647   2.110   4.869   0.746 -0.1437  0.0922  0.0552
 3696TIP3    H232648   2.167   4.729   0.735 -0.4097 -0.0280  0.1686
 3697TIP3   OH232649   2.701   5.300   6.831  0.0909  0.3413 -0.1197
 3697TIP3    H132650   2.725   5.236   6.898  0.6013 -1.4878 -1.9250
 3697TIP3    H232651   2.774   5.362   6.830  0.0879  0.3858  0.9702
 3698TIP3   OH232652   4.583   4.991   7.246  0.5529  0.4273 -0.0315
 3698TIP3    H132653   4.604   4.977   7.154  0.3683 -1.0622  0.1237
 3698TIP3    H232654   4.523   5.065   7.246 -1.8708 -1.4027 -1.4557
 3699TIP3   OH232655   4.566   0.065   1.717 -0.1000 -0.0982 -0.1487
 3699TIP3    H132656   4.581   0.007   1.643 -0.3236 -0.5006  0.1211
 3699TIP3    H232657   4.651   0.070   1.761 -0.7379 -2.6496  1.5798
 3700TIP3   OH232658   1.917   1.207   6.956  0.3267  0.4772 -0.4644
 3700TIP3    H132659   1.939   1.195   7.048 -0.3650  1.0101 -0.2156
 3700TIP3    H232660   1.892   1.120   6.925  0.7104  0.2701 -0.1876
 3701TIP3   OH232661   5.399   3.070   1.298 -0.7720 -0.0752  0.5869
 3701TIP3    H132662   5.433   3.128   1.366 -0.7572 -0.1400  0.6343
 3701TIP3    H232663   5.381   2.988   1.343  0.3676 -0.5125  0.2834
 3702TIP3   OH232664   0.370   3.786   8.681  0.2519 -0.0466  0.3026
 3702TIP3    H132665   0.332   3.790   8.769  1.0901  1.0435  0.6385
 3702TIP3    H232666   0.455   3.745   8.694  0.8109  1.0530  0.1649
 3703TIP3   OH232667   2.757   6.051   0.434 -0.4717 -0.3925  0.1409
 3703TIP3    H132668   2.694   6.110   0.474 -1.6797 -0.9136 -0.9191
 3703TIP3    H232669   2.740   5.966   0.475 -0.6695 -0.5959 -0.3544
 3704TIP3   OH232670   3.092   5.074   0.515 -0.3941 -0.0787 -0.4370
 3704TIP3    H132671   3.132   5.092   0.431  0.3839 -0.4132 -0.1436
 3704TIP3    H232672   3.105   4.980   0.529  0.4025  0.1539  0.5155
 3705TIP3   OH232673   2.697   1.615   0.273  0.2122 -0.1923 -0.2050
 3705TIP3    H132674   2.616   1.565   0.286 -0.8121  1.8436  1.8763
 3705TIP3    H232675   2.677   1.675   0.202 -0.6451  1.2296  1.1833
 3706TIP3   OH232676   4.785   0.417   1.971  0.4116  0.4603 -0.4589
 3706TIP3    H132677   4.715   0.365   1.930  0.9919 -1.2040  0.5603
 3706TIP3    H232678   4.744   0.455   2.049  0.8461 -1.3986  0.7440
 3707TIP3   OH232679   4.097   1.051   8.603 -0.4656 -0.1396  0.2283
 3707TIP3    H132680   4.127   1.024   8.690  1.5660 -1.3785 -0.7605
 3707TIP3    H232681   4.043   0.978   8.574 -1.2719  0.3444  0.4909
 3708TIP3   OH232682   4.753   6.217   0.967  0.1437  0.1539  0.7156
 3708TIP3    H132683   4.837   6.188   1.001 -0.4637 -0.5276  1.7003
 3708TIP3    H232684   4.772   6.250   0.880  1.1819 -1.4990  0.2772
 3709TIP3   OH232685   6.461   2.396   2.342 -0.2660  0.0951 -0.2919
 3709TIP3    H132686   6.366   2.397   2.329 -0.0515 -0.3364 -2.1212
 3709TIP3    H232687   6.473   2.422   2.434 -2.2754 -2.4562  0.8292
 3710TIP3   OH232688   6.309   4.519   7.324  0.0944  0.4309 -0.7142
 3710TIP3    H132689   6.321   4.457   7.397  2.1514  0.1641 -1.2483
 3710TIP3    H232690   6.308   4.605   7.366  0.4983  0.2305 -0.2833
 3711TIP3   OH232691   2.202   2.632   8.419  0.1449  0.1900 -0.0930
 3711TIP3    H132692   2.215   2.600   8.329 -0.2304  2.4133 -1.0068
 3711TIP3    H232693   2.289   2.660   8.448  0.8210 -3.0070  1.3655
 3712TIP3   OH232694   1.666   3.843   6.798  0.3800  0.8599  0.2745
 3712TIP3    H132695   1.751   3.811   6.768 -0.1439  1.1922 -1.7687
 3712TIP3    H232696   1.657   3.930   6.757 -1.0797  0.6716  0.1146
 3713TIP3   OH232697   4.140   3.500   0.169 -0.2718  0.1024 -0.1389
 3713TIP3    H132698   4.203   3.571   0.160  0.9381 -1.0703 -1.6061
 3713TIP3    H232699   4.170   3.451   0.246  2.0058 -1.6172 -1.9337
 3714TIP3   OH232700   4.645   4.174   6.501 -0.1211 -0.5632  0.8943
 3714TIP3    H132701   4.643   4.144   6.592  1.5338 -0.6614  0.9438
 3714TIP3    H232702   4.642   4.269   6.507 -0.1531 -0.5751  1.0585
 3715TIP3   OH232703   3.008   4.955   7.823 -0.0287  0.1258 -0.0394
 3715TIP3    H132704   2.997   5.037   7.871 -2.0330  0.9336 -1.6964
 3715TIP3    H232705   2.953   4.892   7.869 -1.0390  0.6002 -0.5541
 3716TIP3   OH232706   6.582   4.182   1.505 -0.1078  0.0207 -0.0933
 3716TIP3    H132707   6.607   4.273   1.521 -1.8894  0.5037  0.2276
 3716TIP3    H232708   6.657   4.143   1.460  0.6595  1.6526 -0.2813
 3717TIP3   OH232709   4.501   2.666   0.519  0.1626 -0.3325  0.5226
 3717TIP3    H132710   4.586   2.707   0.503  0.0844 -0.3251  0.0985
 3717TIP3    H232711   4.515   2.573   0.498 -0.2803 -0.1024 -0.9498
 3718TIP3   OH232712   4.464   3.684   8.217 -0.1212  0.3171  0.3223
 3718TIP3    H132713   4.466   3.721   8.129 -0.0084 -1.6039 -0.5431
 3718TIP3    H232714   4.371   3.675   8.237 -0.2073  3.0283  1.4808
 3719TIP3   OH232715   2.692   5.744   0.849 -0.8510  0.4320 -0.0910
 3719TIP3    H132716   2.641   5.664   0.865  0.1305 -0.3611 -0.7904
 3719TIP3    H232717   2.738   5.760   0.932  0.3057 -0.7599 -0.4707
 3720TIP3   OH232718   1.161   0.191   7.614  0.3904 -0.1610 -0.1243
 3720TIP3    H132719   1.076   0.176   7.655  1.1716 -0.1932  1.5921
 3720TIP3    H232720   1.165   0.286   7.602 -0.2526 -0.2441 -1.1094
 3721TIP3   OH232721   4.173   0.054   1.208 -0.2981  0.4827  0.4447
 3721TIP3    H132722   4.133   0.128   1.164  1.9544  1.7466  0.3656
 3721TIP3    H232723   4.236   0.092   1.269  0.5249 -1.3376  0.8293
 3722TIP3   OH232724   3.895   5.385   7.989  0.1694  0.0755  0.0214
 3722TIP3    H132725   3.820   5.381   7.929  0.6847  1.2259 -0.7277
 3722TIP3    H232726   3.869   5.332   8.064 -1.0513 -0.2429 -0.6112
 3723TIP3   OH232727   1.417   0.668   0.406  0.5313 -0.5989  0.1923
 3723TIP3    H132728   1.335   0.634   0.371 -0.2849 -0.5604  1.9662
 3723TIP3    H232729   1.470   0.590   0.423 -0.4966 -0.9425  2.2015
 3724TIP3   OH232730   4.524   1.602   8.467 -0.4518 -0.3742  0.0708
 3724TIP3    H132731   4.517   1.603   8.562 -1.3515 -0.9158  0.0179
 3724TIP3    H232732   4.443   1.561   8.437 -1.1566  1.6215 -1.0083
 3725TIP3   OH232733   6.456   1.211   0.185  0.3035 -0.1675 -0.1681
 3725TIP3    H132734   6.521   1.273   0.220  1.8444 -2.5808  1.5833
 3725TIP3    H232735   6.404   1.263   0.124  0.5354  3.2330  2.1939
 3726TIP3   OH232736   3.547   0.345   6.901  0.2232  0.2161  0.3462
 3726TIP3    H132737   3.519   0.322   6.812  0.2226  0.2342  0.3417
 3726TIP3    H232738   3.595   0.427   6.890  0.5064  0.0464  0.3188
 3727TIP3   OH232739   3.241   1.008   7.951  0.1438  0.1416 -0.4988
 3727TIP3    H132740   3.157   0.982   7.912  0.7111 -1.2572 -0.8562
 3727TIP3    H232741   3.245   0.960   8.034  0.3339  0.6569 -0.2067
 3728TIP3   OH232742   2.788   4.594   7.456  0.2808 -0.2661  0.2526
 3728TIP3    H132743   2.820   4.607   7.367  2.2709 -0.2814  0.9259
 3728TIP3    H232744   2.710   4.650   7.462  0.3434  0.0350 -1.3597
 3729TIP3   OH232745   6.260   3.049   1.819  0.0966  0.0988  0.2222
 3729TIP3    H132746   6.262   3.139   1.851  0.4559 -0.2376  1.2007
 3729TIP3    H232747   6.339   3.041   1.765  0.8082  0.0103  1.2282
 3730TIP3   OH232748   3.207   0.647   0.768 -0.4428  0.6529  0.2545
 3730TIP3    H132749   3.252   0.649   0.684 -0.5807  0.8615  0.1841
 3730TIP3    H232750   3.209   0.555   0.795 -0.6371  0.5427 -0.1063
 3731TIP3   OH232751   1.333   3.059   7.349  0.4170 -0.0311  0.3749
 3731TIP3    H132752   1.294   3.121   7.287  1.7266  0.6350  0.1670
 3731TIP3    H232753   1.411   3.104   7.382  2.2380 -2.0968 -0.8393
 3732TIP3   OH232754   6.266   0.600   0.399 -0.4072 -0.0846  0.2465
 3732TIP3    H132755   6.351   0.618   0.438 -0.6559  2.1918 -0.0857
 3732TIP3    H232756   6.233   0.524   0.445  1.6089 -0.7417  0.6843
 3733TIP3   OH232757   1.685   0.855   7.360  0.3734  0.5488 -0.6242
 3733TIP3    H132758   1.641   0.939   7.370 -2.7504 -1.0322  0.3273
 3733TIP3    H232759   1.702   0.826   7.450 -1.2585 -1.0261 -0.7559
 3734TIP3   OH232760   3.678   0.559   1.473 -0.2173  0.1901 -0.1045
 3734TIP3    H132761   3.689   0.552   1.378  0.6471 -0.8276  0.0488
 3734TIP3    H232762   3.757   0.519   1.509  0.1772  1.9322  1.0554
 3735TIP3   OH232763   3.306   5.073   7.957  0.1997  0.0791  0.6179
 3735TIP3    H132764   3.238   5.136   7.980 -0.9859 -1.0800  0.3515
 3735TIP3    H232765   3.311   5.077   7.861  0.2945 -0.0667  0.6163
 3736TIP3   OH232766   0.020   4.334   8.298 -0.2145 -0.4111  0.4349
 3736TIP3    H132767   0.027   4.242   8.322 -0.4491 -0.5411  0.0180
 3736TIP3    H232768  -0.074   4.351   8.295 -0.3116 -0.9749 -2.4752
 3737TIP3   OH232769   5.537   1.457   6.840  0.2786  0.0011  0.1498
 3737TIP3    H132770   5.471   1.398   6.877 -0.8539  0.0756 -1.6321
 3737TIP3    H232771   5.508   1.544   6.865  0.4259 -0.0381  0.4612
 3738TIP3   OH232772   0.695   0.154   7.032 -0.3609 -0.0250 -0.4475
 3738TIP3    H132773   0.726   0.066   7.051  0.6478  0.7750  2.0558
 3738TIP3    H232774   0.601   0.150   7.050 -0.2888 -0.5469 -0.1659
 3739TIP3   OH232775   4.249   4.023   7.618  0.4011  0.1087  0.4619
 3739TIP3    H132776   4.181   4.038   7.683 -0.0429 -0.1031  0.0512
 3739TIP3    H232777   4.261   4.107   7.575  0.0908  0.0379  0.2391
 3740TIP3   OH232778   3.879   6.603   6.194 -0.8387 -0.6186 -0.3962
 3740TIP3    H132779   3.826   6.595   6.273 -0.6579 -1.7021 -0.3598
 3740TIP3    H232780   3.873   6.695   6.169 -1.0875 -0.3112  0.7465
 3741TIP3   OH232781   2.708   6.046   1.319  0.1823  0.6896  0.4349
 3741TIP3    H132782   2.756   6.004   1.391 -0.0556 -1.1791 -0.4276
 3741TIP3    H232783   2.641   6.098   1.362  0.0142 -0.4308  1.5785
 3742TIP3   OH232784   3.022   2.116   1.636 -0.0477 -0.3288  0.1398
 3742TIP3    H132785   3.085   2.134   1.566  0.7166  1.3341  1.1929
 3742TIP3    H232786   2.943   2.163   1.610  0.7482  1.6457  1.0888
 3743TIP3   OH232787   1.097   5.211   6.981  0.3223  0.3145 -0.2237
 3743TIP3    H132788   1.084   5.246   6.893 -0.8829 -1.4055 -0.7867
 3743TIP3    H232789   1.128   5.122   6.968  0.5200  0.1643  1.1062
 3744TIP3   OH232790   2.176   2.831   1.503  0.0614 -0.2644 -0.4926
 3744TIP3    H132791   2.243   2.802   1.565 -1.4747  0.1598  1.4860
 3744TIP3    H232792   2.199   2.922   1.483 -0.0340 -0.0476  0.3549
 3745TIP3   OH232793   2.226   0.776   1.334  0.3123  0.4294 -0.1081
 3745TIP3    H132794   2.281   0.709   1.374  0.1513  1.3576  1.7993
 3745TIP3    H232795   2.222   0.846   1.400 -2.0426  0.9761 -0.7391
 3746TIP3   OH232796   4.582   2.122   7.462  0.1689  0.0482 -1.0936
 3746TIP3    H132797   4.496   2.101   7.424  0.2195  0.4478 -1.4285
 3746TIP3    H232798   4.643   2.114   7.389  0.6319 -1.5417 -0.5971
 3747TIP3   OH232799   0.404   5.734   0.583 -0.6088  0.1089 -0.0274
 3747TIP3    H132800   0.433   5.698   0.499  0.1708  0.7864 -0.0662
 3747TIP3    H232801   0.422   5.664   0.646 -1.5800 -0.5625 -0.4648
 3748TIP3   OH232802   6.344   5.264   8.545 -0.3418  0.3970 -0.1392
 3748TIP3    H132803   6.410   5.320   8.506  0.3497 -0.1472  0.2266
 3748TIP3    H232804   6.278   5.324   8.579 -0.4702  0.9108 -1.2698
 3749TIP3   OH232805   1.531   3.365   0.276 -0.2104 -0.0031 -0.0914
 3749TIP3    H132806   1.524   3.378   0.371  0.9284 -2.1283  0.3332
 3749TIP3    H232807   1.584   3.439   0.245  1.1450 -0.3729  1.2588
 3750TIP3   OH232808   5.418   2.205   0.558 -0.2698 -0.0830  0.0768
 3750TIP3    H132809   5.393   2.289   0.519 -0.1601  0.3712  0.9529
 3750TIP3    H232810   5.351   2.189   0.625 -1.1343 -1.4373 -1.0584
 3751TIP3   OH232811   2.093   2.769   0.090 -0.3446  0.1772 -0.3380
 3751TIP3    H132812   2.116   2.857   0.060 -2.3421  1.1812  0.8452
 3751TIP3    H232813   1.998   2.766   0.083 -0.5915 -0.8238  2.3596
 3752TIP3   OH232814   0.138   0.175   7.217 -0.5323  1.0297  0.3561
 3752TIP3    H132815   0.064   0.158   7.276 -0.5103  1.6640  0.5712
 3752TIP3    H232816   0.103   0.157   7.130  0.0187 -1.9391  0.6579
 3753TIP3   OH232817   2.017   6.558   7.940 -0.1095 -0.2362  0.5413
 3753TIP3    H132818   2.028   6.476   7.988  0.3332  0.7615  2.2364
 3753TIP3    H232819   1.927   6.585   7.957  0.6206  1.1589  2.6761
 3754TIP3   OH232820   5.156   2.071   7.152  0.3994  0.5025  0.3565
 3754TIP3    H132821   5.161   2.032   7.065  0.6190  1.1927  0.0481
 3754TIP3    H232822   5.246   2.098   7.172  0.1295  1.6121  0.1799
 3755TIP3   OH232823   6.430   6.671   2.293  0.8022  0.4414  0.0371
 3755TIP3    H132824   6.526   6.669   2.284  0.7500 -0.2149 -0.5217
 3755TIP3    H232825   6.414   6.733   2.364  1.7847 -1.3615  1.9492
 3756TIP3   OH232826   2.434   2.961   0.227 -0.0753 -0.6254  0.1498
 3756TIP3    H132827   2.523   2.996   0.214  0.0234 -1.7360 -3.3250
 3756TIP3    H232828   2.422   2.900   0.154 -3.0124 -2.0354  1.6501
 3757TIP3   OH232829   3.283   1.057   7.301 -0.0514  0.2741  0.4839
 3757TIP3    H132830   3.220   1.124   7.327  0.6587  0.6719  1.1986
 3757TIP3    H232831   3.254   0.978   7.346 -0.7676  0.1298 -0.1939
 3758TIP3   OH232832   1.813   5.873   0.285 -0.7089  0.7718 -0.3570
 3758TIP3    H132833   1.884   5.937   0.281 -2.2004  2.4493 -1.6337
 3758TIP3    H232834   1.853   5.790   0.259  1.4125  0.9986  1.8767
 3759TIP3   OH232835   2.632   0.446   1.965 -0.3282  0.2542  0.5752
 3759TIP3    H132836   2.693   0.392   2.015 -0.7724 -0.5207  0.2908
 3759TIP3    H232837   2.605   0.515   2.027 -2.2540 -1.6985  2.0827
 3760TIP3   OH232838   5.289   0.580   7.519  0.1785 -1.0736 -0.3931
 3760TIP3    H132839   5.206   0.628   7.520 -0.3920 -1.9746  1.9695
 3760TIP3    H232840   5.353   0.642   7.554  0.6248 -0.2844 -2.4752
 3761TIP3   OH232841   1.536   1.103   7.929  0.8676 -0.5385  0.5110
 3761TIP3    H132842   1.513   1.021   7.885  1.1997 -0.0132 -0.6668
 3761TIP3    H232843   1.607   1.139   7.876  0.0647  0.9933  0.4480
 3762TIP3   OH232844   4.667   2.174   1.494  0.0861  0.5417 -0.2957
 3762TIP3    H132845   4.741   2.117   1.514 -0.3253 -0.3556 -1.2507
 3762TIP3    H232846   4.647   2.157   1.402  0.0340  2.3490 -0.6525
 3763TIP3   OH232847   0.007   3.311   8.251  0.6390  0.4149  0.6854
 3763TIP3    H132848  -0.035   3.236   8.209 -0.4941  0.1606  2.1616
 3763TIP3    H232849   0.050   3.358   8.180 -1.7511  0.4117 -0.9022
 3764TIP3   OH232850   2.977   0.035   0.176  0.3921 -0.2271  0.6004
 3764TIP3    H132851   3.027   0.113   0.199 -1.0136  0.8510  0.1569
 3764TIP3    H232852   3.001  -0.030   0.243  0.1895  1.1852  2.1039
 3765TIP3   OH232853   1.372   1.368   1.082 -0.5729  0.3637 -0.4204
 3765TIP3    H132854   1.456   1.381   1.125 -0.5917 -0.8160  0.0146
 3765TIP3    H232855   1.337   1.456   1.069  0.9708  0.8943 -1.1301
 3766TIP3   OH232856   6.759   4.895   8.424  0.0433 -0.3656 -0.2679
 3766TIP3    H132857   6.744   4.853   8.339  0.8937  0.4377 -0.8405
 3766TIP3    H232858   6.695   4.966   8.427 -1.2173 -1.4800  0.5866
 3767TIP3   OH232859   3.715   2.862   8.841 -0.2203 -0.4252  0.2647
 3767TIP3    H132860   3.622   2.884   8.836  0.0854  0.8129 -0.6237
 3767TIP3    H232861   3.720   2.789   8.903 -1.7751 -0.5206  0.3098
 3768TIP3   OH232862   0.638   3.699   0.357  0.0136  0.1163 -0.3494
 3768TIP3    H132863   0.728   3.721   0.333 -0.0331  0.4673 -0.2053
 3768TIP3    H232864   0.598   3.783   0.379  0.2337 -0.2374  1.6143
 3769TIP3   OH232865   0.778   5.546   0.649  0.0348 -0.2711  0.2388
 3769TIP3    H132866   0.699   5.555   0.702  1.0039  0.8654  1.5750
 3769TIP3    H232867   0.775   5.620   0.588 -0.3435 -0.7197 -0.2923
 3770TIP3   OH232868   0.901   6.137   8.305 -1.1112  0.3508 -0.1054
 3770TIP3    H132869   0.905   6.070   8.236  0.7261  1.2019 -0.8794
 3770TIP3    H232870   0.862   6.092   8.380 -0.6911 -1.3399 -0.8604
 3771TIP3   OH232871   2.845   0.149   0.718 -0.4662 -0.6002  0.3142
 3771TIP3    H132872   2.781   0.201   0.768 -1.4809 -0.5411 -0.9806
 3771TIP3    H232873   2.854   0.068   0.768 -0.3961  0.0041  1.3088
 3772TIP3   OH232874   2.202   6.125   6.236  0.0735 -0.3096  0.6563
 3772TIP3    H132875   2.185   6.116   6.143 -0.0653  0.4854  0.6007
 3772TIP3    H232876   2.292   6.094   6.247 -0.2205 -1.2764  0.4147
 3773TIP3   OH232877   5.527   0.937   0.411 -0.2672 -0.6197 -0.4039
 3773TIP3    H132878   5.588   1.006   0.387 -1.3734  0.3553 -0.5166
 3773TIP3    H232879   5.557   0.860   0.364  0.4640  0.0169 -1.0034
 3774TIP3   OH232880   5.008   6.092   1.022 -0.6929  0.3924 -0.0456
 3774TIP3    H132881   5.053   6.175   1.008  0.2270 -0.2424 -0.9691
 3774TIP3    H232882   5.054   6.052   1.095 -0.4709  0.2397 -0.2681
 3775TIP3   OH232883   0.525   3.867   1.857 -0.1975  0.0932  0.6492
 3775TIP3    H132884   0.433   3.870   1.834 -0.9794 -0.2721  3.3896
 3775TIP3    H232885   0.527   3.839   1.948  2.5797  0.8519  0.9396
 3776TIP3   OH232886   1.232   0.194   6.594 -0.1758 -0.1531  0.2302
 3776TIP3    H132887   1.224   0.290   6.590  2.5003  0.2083  1.5220
 3776TIP3    H232888   1.285   0.172   6.517 -1.4610 -0.7246 -0.5105
 3777TIP3   OH232889   0.942   4.013   0.015 -0.8011 -0.2080 -0.5504
 3777TIP3    H132890   0.895   4.011  -0.069 -1.8645  1.4727 -0.0441
 3777TIP3    H232891   0.950   4.106   0.036  0.3966 -0.5686  0.7067
 3778TIP3   OH232892   0.436   3.582   0.671 -0.0461  0.5547 -0.2885
 3778TIP3    H132893   0.472   3.498   0.700 -0.0543  1.2241  1.8342
 3778TIP3    H232894   0.390   3.616   0.748  0.5381  2.8196 -0.8741
 3779TIP3   OH232895   3.848   3.035   0.875 -0.0455 -0.0692  0.3609
 3779TIP3    H132896   3.842   3.053   0.781  2.9616 -0.6262 -0.0452
 3779TIP3    H232897   3.800   2.953   0.887  2.2579 -1.8207 -1.4193
 3780TIP3   OH232898   1.050   6.445   1.728  0.2222  0.0937  0.6671
 3780TIP3    H132899   1.057   6.486   1.642 -2.1756 -2.1994 -0.7640
 3780TIP3    H232900   0.994   6.505   1.779  0.0083  0.5042 -0.0394
 3781TIP3   OH232901   5.691   1.245   7.231  0.5903 -0.0401  0.0825
 3781TIP3    H132902   5.608   1.206   7.257  1.7269 -2.7346 -0.0286
 3781TIP3    H232903   5.720   1.293   7.308 -1.4627  1.8597 -0.2042
 3782TIP3   OH232904   0.214   4.223   1.066 -0.6151 -0.0813 -0.0898
 3782TIP3    H132905   0.206   4.187   1.154 -0.3649 -0.2218 -0.1225
 3782TIP3    H232906   0.277   4.166   1.023 -2.6358 -1.5746 -1.1792
 3783TIP3   OH232907   1.917   3.731   7.927  0.1186  0.4645  0.0490
 3783TIP3    H132908   1.920   3.636   7.910 -2.2604  0.2683  0.4144
 3783TIP3    H232909   1.926   3.770   7.840  1.6923 -0.0409 -0.0501
 3784TIP3   OH232910   4.901   5.524   1.017  0.0080 -0.0818  0.3215
 3784TIP3    H132911   4.990   5.514   1.052  0.5192 -0.7294 -1.0967
 3784TIP3    H232912   4.864   5.436   1.018 -0.8777  0.2864  1.5131
 3785TIP3   OH232913   0.448   2.975   1.147 -0.0530 -0.1284 -0.2337
 3785TIP3    H132914   0.400   3.015   1.220 -0.9165  1.2038 -1.4603
 3785TIP3    H232915   0.540   2.991   1.167  0.0534 -3.0158  2.3315
 3786TIP3   OH232916   2.521   5.971   0.831  0.1828 -0.4201  1.0806
 3786TIP3    H132917   2.465   5.932   0.763  1.1994 -0.3588  0.1745
 3786TIP3    H232918   2.586   5.903   0.849  0.4756 -0.0832  1.3075
 3787TIP3   OH232919   4.566   1.440   7.837 -0.5615 -0.1832  0.0263
 3787TIP3    H132920   4.578   1.441   7.932 -0.7468 -0.7740  0.0598
 3787TIP3    H232921   4.509   1.515   7.820 -0.5155 -0.0635  0.3836
 3788TIP3   OH232922   1.688   3.034   1.997  0.0945 -0.1548  0.7697
 3788TIP3    H132923   1.751   2.997   2.059  0.7699 -2.3080 -1.0664
 3788TIP3    H232924   1.608   2.982   2.010  0.0128 -0.1442  0.3266
 3789TIP3   OH232925   3.537   4.149   1.878 -0.1727 -0.6595  0.1401
 3789TIP3    H132926   3.469   4.093   1.918  1.1438 -0.7534  2.4555
 3789TIP3    H232927   3.526   4.234   1.921  0.4772 -0.3562 -0.2883
 3790TIP3   OH232928   2.763   0.446   8.740  0.4082 -0.3137  0.0233
 3790TIP3    H132929   2.737   0.451   8.832  0.0682  0.4647 -0.1009
 3790TIP3    H232930   2.680   0.448   8.691  0.6063  2.6507 -0.3937
 3791TIP3   OH232931   1.965   2.508   8.542 -0.1183 -0.3839 -0.5258
 3791TIP3    H132932   2.045   2.544   8.505 -0.0025  0.5269  0.5861
 3791TIP3    H232933   1.978   2.413   8.539  0.1247 -0.3247 -2.2506
 3792TIP3   OH232934   2.702   4.943   7.522 -0.1565  0.1253 -0.7656
 3792TIP3    H132935   2.659   4.884   7.459 -0.2821 -0.6309  0.0005
 3792TIP3    H232936   2.694   4.897   7.606  1.0353  0.5648 -0.3927
 3793TIP3   OH232937   2.673   4.132   7.550  0.3708  0.5923 -0.4470
 3793TIP3    H132938   2.672   4.225   7.574 -0.5362  0.9092 -1.6133
 3793TIP3    H232939   2.581   4.107   7.548  0.6464 -0.8970  1.7621
 3794TIP3   OH232940   1.256   5.411   7.169  0.3371  0.0802 -0.0388
 3794TIP3    H132941   1.204   5.357   7.109 -0.9940 -0.0578  1.1634
 3794TIP3    H232942   1.337   5.429   7.122 -0.2392 -0.8603 -1.4597
 3795TIP3   OH232943   1.492   0.616   8.203  0.3477 -0.0233  0.2512
 3795TIP3    H132944   1.479   0.699   8.159  0.2510 -0.2115 -0.0762
 3795TIP3    H232945   1.409   0.569   8.193  0.7924 -0.6499 -0.6199
 3796TIP3   OH232946   0.158   3.260   6.984 -0.0406  0.3805  0.1424
 3796TIP3    H132947   0.198   3.173   6.984 -0.5551  0.1067 -1.2449
 3796TIP3    H232948   0.157   3.286   7.076  1.3682 -0.4874  0.4414
 3797TIP3   OH232949   4.491   6.367   0.014  0.5090  0.6935  0.4584
 3797TIP3    H132950   4.419   6.306   0.027  0.3847  0.2593 -1.9605
 3797TIP3    H232951   4.448   6.450  -0.007  0.7017  0.7734  0.3780
 3798TIP3   OH232952   5.112   6.760   8.695  0.0968 -0.0106 -0.0752
 3798TIP3    H132953   5.106   6.790   8.605 -0.8750 -0.5636 -0.2158
 3798TIP3    H232954   5.191   6.802   8.730  1.4755 -1.1833 -1.6879
 3799TIP3   OH232955   1.709   1.041   0.607 -0.3071 -0.0574 -0.3985
 3799TIP3    H132956   1.693   1.104   0.536 -2.5252 -0.4588 -0.3130
 3799TIP3    H232957   1.698   1.093   0.687  3.5521  0.7465 -0.1622
 3800TIP3   OH232958   2.800   5.579   6.813  0.3086 -0.3836 -0.0284
 3800TIP3    H132959   2.850   5.554   6.736  0.7320  0.5217 -0.0661
 3800TIP3    H232960   2.774   5.670   6.796 -0.8227 -0.6329  0.2654
 3801TIP3   OH232961   3.220   6.434   7.283 -0.0867 -0.1921 -0.3761
 3801TIP3    H132962   3.298   6.421   7.229 -0.2947 -1.7260 -0.3599
 3801TIP3    H232963   3.193   6.524   7.265  2.1578  0.6819  0.2653
 3802TIP3   OH232964   3.943   5.222   1.271 -0.0369 -0.2354 -0.5774
 3802TIP3    H132965   3.862   5.241   1.318 -0.5354 -0.6249 -1.2715
 3802TIP3    H232966   4.009   5.276   1.316  0.1975 -2.8776  2.6292
 3803TIP3   OH232967   0.113   4.584   8.223 -0.5087 -0.0016  0.2534
 3803TIP3    H132968   0.038   4.644   8.227 -0.2267  0.2900  1.9312
 3803TIP3    H232969   0.073   4.497   8.221 -0.8958  0.1803 -0.4518
 3804TIP3   OH232970   5.706   0.888   6.937  0.4235 -0.4785 -0.5540
 3804TIP3    H132971   5.619   0.905   6.973  0.8130 -0.1557  0.2544
 3804TIP3    H232972   5.707   0.793   6.922 -0.2607 -0.4076 -1.1016
 3805TIP3   OH232973   6.167   3.904   0.217 -0.6804 -0.0778  0.1370
 3805TIP3    H132974   6.232   3.844   0.254  1.7589  2.2052 -0.1538
 3805TIP3    H232975   6.216   3.983   0.198 -2.5379  0.2459 -4.6098
 3806TIP3   OH232976   2.988   4.097   6.982  0.1441 -0.4014 -0.1350
 3806TIP3    H132977   2.989   4.164   6.913  2.4156 -0.5700 -0.3409
 3806TIP3    H232978   2.901   4.058   6.977  0.4395 -0.8913 -3.4291
 3807TIP3   OH232979   2.875   5.119   1.474  0.0297 -0.6855  0.2012
 3807TIP3    H132980   2.836   5.201   1.442 -2.1085 -2.5503 -2.4225
 3807TIP3    H232981   2.821   5.094   1.548 -0.5513 -0.6938 -0.2192
 3808TIP3   OH232982   6.547   1.141   6.475  0.3751 -0.5315  0.3462
 3808TIP3    H132983   6.515   1.065   6.426 -0.7947 -1.9982  3.1423
 3808TIP3    H232984   6.532   1.118   6.567  1.7206  2.3521  1.4054
 3809TIP3   OH232985   6.203   3.134   8.812  0.5077  0.1989  0.1016
 3809TIP3    H132986   6.156   3.181   8.744  1.9224  0.9151 -0.4312
 3809TIP3    H232987   6.183   3.042   8.796 -1.6269  0.5161  0.6410
 3810TIP3   OH232988   0.911   2.977   7.764  0.3763 -0.0135  0.3301
 3810TIP3    H132989   0.957   3.023   7.695  0.7637  1.0698  1.2742
 3810TIP3    H232990   0.822   3.012   7.761  0.4717  0.2529  0.5632
 3811TIP3   OH232991   1.431   4.988   7.051 -0.5201 -0.3362 -0.7022
 3811TIP3    H132992   1.465   4.923   6.990 -2.1099 -2.2763  0.3468
 3811TIP3    H232993   1.350   5.020   7.010 -0.3697  0.1147 -0.6601
 3812TIP3   OH232994   0.341   0.978   8.427 -0.1322  0.2161  0.1984
 3812TIP3    H132995   0.337   0.909   8.360  2.0352  1.1217 -0.9770
 3812TIP3    H232996   0.406   0.946   8.490 -1.8618 -0.4429  1.7249
 3813TIP3   OH232997   2.621   0.103   8.839  0.2431 -0.8699 -0.4707
 3813TIP3    H132998   2.716   0.092   8.837  0.6180  1.7525  0.1226
 3813TIP3    H232999   2.603   0.169   8.772 -0.9537 -0.1666  0.5082
 3814TIP3   OH233000   2.122   6.242   7.301 -0.1065  0.0897  0.5159
 3814TIP3    H133001   2.113   6.249   7.396  0.4336  2.6313  0.4573
 3814TIP3    H233002   2.033   6.253   7.267 -0.4863 -1.9719  0.6930
 3815TIP3   OH233003   1.495   2.235   7.456 -0.0838 -0.2955 -0.7282
 3815TIP3    H133004   1.523   2.321   7.424  1.5453 -0.5913 -0.1992
 3815TIP3    H233005   1.431   2.255   7.524  1.5090  0.6136  0.5818
 3816TIP3   OH233006   2.201   4.147   1.709  0.0801 -0.8781  0.4912
 3816TIP3    H133007   2.190   4.083   1.639  1.6791 -1.2576  0.5578
 3816TIP3    H233008   2.255   4.216   1.671 -1.7807  0.6027  0.3528
 3817TIP3   OH233009   0.692   1.443   7.982  0.0873 -0.0494 -0.4483
 3817TIP3    H133010   0.599   1.463   7.995 -0.3316 -1.7187 -0.5852
 3817TIP3    H233011   0.706   1.455   7.888 -0.1866 -0.4836 -0.5493
 3818TIP3   OH233012   4.511   2.995   8.470 -0.2785 -0.2531 -0.2139
 3818TIP3    H133013   4.424   2.988   8.509 -0.5570  0.2191 -0.7328
 3818TIP3    H233014   4.518   3.086   8.443  0.5615 -0.1751  0.2306
 3819TIP3   OH233015   4.926   1.642   8.144 -0.3593 -0.4346  0.4529
 3819TIP3    H133016   4.987   1.713   8.124  1.0411 -1.7109  0.0648
 3819TIP3    H233017   4.910   1.649   8.238  2.0416 -1.3178  0.9884
 3820TIP3   OH233018   1.102   1.599   8.345 -0.3042  0.0872 -0.3431
 3820TIP3    H133019   1.192   1.578   8.320  0.0196  0.6980  0.2748
 3820TIP3    H233020   1.053   1.517   8.333  0.9587 -1.1514  2.2771
 3821TIP3   OH233021   6.231   1.115   0.711  0.0039  0.1067  0.1918
 3821TIP3    H133022   6.317   1.076   0.720 -0.0287 -0.1341 -0.4640
 3821TIP3    H233023   6.247   1.197   0.663 -0.0931  0.2344  0.3744
 3822TIP3   OH233024   1.159   6.496   0.263 -0.2154 -0.4701 -0.4218
 3822TIP3    H133025   1.084   6.517   0.208 -0.1423 -1.8061 -1.0830
 3822TIP3    H233026   1.122   6.469   0.347 -0.5174 -1.5529 -0.8902
 3823TIP3   OH233027   4.789   4.821   7.756  0.0497 -0.0442 -0.1647
 3823TIP3    H133028   4.700   4.786   7.764  0.2978 -0.3363  2.1476
 3823TIP3    H233029   4.845   4.753   7.794  1.0470  0.8705  0.0493
 3824TIP3   OH233030   5.813   0.948   8.142  0.1716  0.5292 -0.3196
 3824TIP3    H133031   5.768   0.987   8.067 -1.5808 -2.6190 -1.0988
 3824TIP3    H233032   5.874   0.885   8.104  2.2495  1.7168  0.8758
 3825TIP3   OH233033   3.875   0.511   0.327  0.5542 -0.2484 -0.0541
 3825TIP3    H133034   3.910   0.599   0.313 -0.9804  0.5803  0.9934
 3825TIP3    H233035   3.908   0.485   0.413 -0.0435 -0.1389  0.2162
 3826TIP3   OH233036   0.638   2.823   7.589 -0.3123  0.4181 -0.0730
 3826TIP3    H133037   0.647   2.873   7.509 -1.5594 -0.0220 -0.5148
 3826TIP3    H233038   0.620   2.734   7.560 -2.6355  0.5925  0.6435
 3827TIP3   OH233039   6.519   1.670   0.326  0.3786 -0.5174 -0.6923
 3827TIP3    H133040   6.555   1.725   0.396 -0.8116 -0.5055 -0.0708
 3827TIP3    H233041   6.526   1.723   0.247 -0.2453  0.3151 -0.1939
 3828TIP3   OH233042   1.691   3.464   7.952 -0.0122 -0.5834  0.4284
 3828TIP3    H133043   1.706   3.490   8.042 -0.9877 -0.2450  0.5142
 3828TIP3    H233044   1.770   3.418   7.926  0.3348 -0.5616  1.4100
 3829TIP3   OH233045   4.397   0.251   7.181 -0.1535 -0.1837 -0.1137
 3829TIP3    H133046   4.453   0.320   7.145 -1.6955  0.4931 -1.3216
 3829TIP3    H233047   4.441   0.169   7.157  0.4258  0.3389 -0.8758
 3830TIP3   OH233048   2.331   0.552   7.970 -0.6015 -0.7286 -0.2689
 3830TIP3    H133049   2.312   0.473   7.921 -1.8374 -0.9440  0.5165
 3830TIP3    H233050   2.292   0.537   8.056  0.6100  0.0544  0.4486
 3831TIP3   OH233051   1.000   0.160   1.731  0.2893  0.1924 -0.1380
 3831TIP3    H133052   1.077   0.106   1.713  1.1320  0.8403  1.2923
 3831TIP3    H233053   1.021   0.245   1.693  0.1800  0.3031  0.0493
 3832TIP3   OH233054   3.406   6.215   7.618 -0.1870 -0.3459  0.5862
 3832TIP3    H133055   3.395   6.295   7.669 -2.1698 -0.1942  0.0052
 3832TIP3    H233056   3.371   6.237   7.531  1.3760 -1.1678 -0.3045
 3833TIP3   OH233057   6.760   5.748   2.506  0.1553  0.0167 -0.5169
 3833TIP3    H133058   6.704   5.805   2.453  1.6133  1.6111 -0.4128
 3833TIP3    H233059   6.700   5.704   2.566 -1.1550  0.4790 -1.4480
 3834TIP3   OH233060   3.776   5.452   7.357  0.0833  0.5482  0.3633
 3834TIP3    H133061   3.805   5.377   7.409  1.8690  0.8020 -0.2269
 3834TIP3    H233062   3.705   5.417   7.303  1.7324 -1.0911 -0.8465
 3835TIP3   OH233063   2.359   3.075   1.128  0.2532  0.1427  0.2584
 3835TIP3    H133064   2.280   3.022   1.129  0.3214 -0.0778 -1.9411
 3835TIP3    H233065   2.353   3.126   1.047  2.0063  0.6571  0.4154
 3836TIP3   OH233066   5.282   3.205   0.920  0.3100 -0.4083 -0.4319
 3836TIP3    H133067   5.253   3.131   0.972 -1.3913 -0.0149 -0.7736
 3836TIP3    H233068   5.249   3.283   0.966  1.9850  0.1732 -0.1257
 3837TIP3   OH233069   1.451   0.392   7.392 -0.5694  0.2328 -0.5840
 3837TIP3    H133070   1.384   0.398   7.460 -0.0854  3.3610 -0.2440
 3837TIP3    H233071   1.411   0.434   7.315  1.1155  2.7817 -0.1755
 3838TIP3   OH233072   6.198   2.614   1.288 -0.2302  0.3694 -0.3787
 3838TIP3    H133073   6.116   2.655   1.312 -1.3015 -1.2297 -1.0948
 3838TIP3    H233074   6.188   2.591   1.195 -0.5863 -3.2034  0.3859
 3839TIP3   OH233075   3.992   1.718   6.895 -0.1187 -0.0312 -0.6547
 3839TIP3    H133076   3.981   1.629   6.861 -1.6785  0.5981 -1.9095
 3839TIP3    H233077   3.911   1.736   6.942  0.6594  0.3440  0.6108
 3840TIP3   OH233078   2.803   6.387   8.403 -0.0185 -0.1628  0.8357
 3840TIP3    H133079   2.785   6.406   8.311 -1.7751 -1.6515  0.8258
 3840TIP3    H233080   2.815   6.473   8.443 -0.0759  0.5463 -0.6143
 3841TIP3   OH233081   2.803   4.897   0.983 -0.3078 -0.2667  0.3109
 3841TIP3    H133082   2.824   4.903   1.076 -0.9935 -0.8911  0.5163
 3841TIP3    H233083   2.723   4.844   0.980 -0.0476 -0.6219 -0.6622
 3842TIP3   OH233084   2.961   6.193   2.578  0.3793 -0.4137  0.2018
 3842TIP3    H133085   2.897   6.137   2.533  0.5275 -1.4045  1.2095
 3842TIP3    H233086   2.911   6.271   2.602 -0.2854 -0.8825  0.3643
 3843TIP3   OH233087   5.704   4.555   8.100  0.0207  0.3117  0.2235
 3843TIP3    H133088   5.698   4.549   8.004 -0.0287 -1.8664  0.3327
 3843TIP3    H233089   5.648   4.629   8.122 -2.3302 -0.9244 -1.2244
 3844TIP3   OH233090   3.283   0.268   2.178 -0.0804  0.0121  0.0597
 3844TIP3    H133091   3.263   0.349   2.130 -0.6882 -1.3927 -2.1766
 3844TIP3    H233092   3.197   0.231   2.197  0.2148 -0.7926 -0.1601
 3845TIP3   OH233093   3.649   1.856   6.527  0.4262  0.4255  0.1059
 3845TIP3    H133094   3.627   1.781   6.472  0.7218 -0.2719  0.9230
 3845TIP3    H233095   3.662   1.928   6.465  0.5303 -0.2850 -0.7159
 3846TIP3   OH233096   4.927   1.346   8.252 -0.0815  0.4607  0.4059
 3846TIP3    H133097   5.021   1.326   8.249  0.0080  0.9521 -0.8046
 3846TIP3    H233098   4.900   1.322   8.341  1.0356 -0.3580  0.5498
 3847TIP3   OH233099   3.672   6.319   2.171  0.8475 -0.0222 -0.4302
 3847TIP3    H133100   3.613   6.248   2.197  0.5395 -0.1623 -1.4693
 3847TIP3    H233101   3.708   6.351   2.254 -0.5053 -0.0869  0.2245
 3848TIP3   OH233102   0.645   2.185   0.626  0.1745  0.0649  0.6690
 3848TIP3    H133103   0.560   2.142   0.626  1.3127 -2.3855  1.3139
 3848TIP3    H233104   0.633   2.263   0.572 -2.3597 -0.3861  0.4680
 3849TIP3   OH233105   5.973   4.128   7.694 -0.2764  0.3096  0.5454
 3849TIP3    H133106   6.011   4.147   7.609 -0.8383  0.0595  0.2364
 3849TIP3    H233107   6.031   4.172   7.757 -0.1215  0.8864  0.0069
 3850TIP3   OH233108   0.058   2.248   0.148  0.4777 -0.1163 -0.6919
 3850TIP3    H133109   0.072   2.154   0.161  1.8832  0.4738  3.6448
 3850TIP3    H233110   0.146   2.286   0.154 -0.2224  1.6082 -0.9590
 3851TIP3   OH233111   2.297   5.454   0.802  1.0818 -0.6797  0.0652
 3851TIP3    H133112   2.211   5.487   0.775  0.0490 -3.7823 -0.8817
 3851TIP3    H233113   2.347   5.448   0.721  1.2219 -1.4200  0.2022
 3852TIP3   OH233114   4.368   6.493   1.092 -0.2860  0.5633  0.1261
 3852TIP3    H133115   4.340   6.568   1.039 -1.5544  0.1970  0.2461
 3852TIP3    H233116   4.300   6.428   1.078 -0.8896  0.6087  2.5365
 3853TIP3   OH233117   2.945   1.778   0.235 -0.4615 -0.0533  0.0310
 3853TIP3    H133118   2.885   1.843   0.270  0.3918  1.9418 -1.9838
 3853TIP3    H233119   2.928   1.699   0.287 -2.1961  1.4694  1.9417
 3854TIP3   OH233120   1.235   1.833   7.638 -0.0063  0.0600  0.2131
 3854TIP3    H133121   1.259   1.773   7.709  3.1839  1.4809  0.5158
 3854TIP3    H233122   1.241   1.920   7.677  0.3717  0.7962 -1.3945
 3855TIP3   OH233123   2.261   3.912   8.420  0.0568 -0.0559 -0.9354
 3855TIP3    H133124   2.355   3.897   8.415  0.0780 -0.0667 -0.5225
 3855TIP3    H233125   2.224   3.827   8.441  0.0936  0.2429  0.4453
 3856TIP3   OH233126   4.373   1.878   7.070  0.0281  0.1216  0.7098
 3856TIP3    H133127   4.329   1.794   7.055 -2.8681  1.4563  0.9846
 3856TIP3    H233128   4.370   1.921   6.985  2.5188 -0.4121  0.2915
 3857TIP3   OH233129   0.403   4.274   8.301  0.4507  0.3696  0.2104
 3857TIP3    H133130   0.368   4.300   8.387 -0.8160  0.1428 -0.2180
 3857TIP3    H233131   0.431   4.357   8.261 -0.8409  0.7349  0.0359
 3858TIP3   OH233132   0.715   2.103   2.441  0.1107 -0.4391  0.0358
 3858TIP3    H133133   0.699   2.151   2.360  0.4278 -2.2161 -1.1314
 3858TIP3    H233134   0.728   2.171   2.507  1.5213  1.0862 -1.7144
 3859TIP3   OH233135   2.133   5.682   8.624 -0.4587 -0.0909 -0.7556
 3859TIP3    H133136   2.166   5.602   8.665 -2.4611  0.2542  1.8115
 3859TIP3    H233137   2.049   5.656   8.586 -1.2360  0.7921  0.2996
 3860TIP3   OH233138   5.491   0.830   0.862 -0.0085  0.0715 -0.0284
 3860TIP3    H133139   5.435   0.896   0.822  0.0098  0.7165  0.9758
 3860TIP3    H233140   5.547   0.799   0.791 -0.0287  1.1191 -0.5160
 3861TIP3   OH233141   1.026   3.750   0.622  0.1977  0.2872 -0.0873
 3861TIP3    H133142   1.057   3.736   0.712 -0.9427 -2.5469 -0.0439
 3861TIP3    H233143   0.931   3.745   0.628  0.0741  0.7529 -1.3659
 3862TIP3   OH233144   0.775   5.144   1.493 -0.2712 -0.5985 -0.3956
 3862TIP3    H133145   0.833   5.208   1.450  0.0384 -0.4749  0.1960
 3862TIP3    H233146   0.814   5.059   1.471 -1.2134 -0.6584 -1.9683
 3863TIP3   OH233147   3.194   2.739   7.845 -0.2337 -0.8443 -0.4172
 3863TIP3    H133148   3.265   2.736   7.781  1.4892 -0.1470  1.3654
 3863TIP3    H233149   3.234   2.775   7.924 -2.8667  0.8078  0.3062
 3864TIP3   OH233150   0.710   5.824   0.870 -0.0337  0.2951 -0.3942
 3864TIP3    H133151   0.695   5.733   0.846 -1.6781  0.6217 -0.7892
 3864TIP3    H233152   0.742   5.821   0.960  0.8921 -0.7014 -0.7429
 3865TIP3   OH233153   5.405   1.114   6.759 -0.6899 -0.1413 -0.2233
 3865TIP3    H133154   5.450   1.182   6.709  2.1633  0.3004  2.6229
 3865TIP3    H233155   5.443   1.032   6.726 -0.3602 -0.0037 -0.1870
 3866TIP3   OH233156   2.348   5.841   0.631  0.6757 -0.7105  0.7913
 3866TIP3    H133157   2.368   5.753   0.598  1.4460 -0.6731  1.1207
 3866TIP3    H233158   2.339   5.895   0.553 -0.8686 -1.2879  0.5502
 3867TIP3   OH233159   5.795   1.896   8.142 -0.0077 -0.2435  0.1652
 3867TIP3    H133160   5.718   1.932   8.097  0.1843 -0.6503 -0.4998
 3867TIP3    H233161   5.867   1.951   8.113 -0.0502  0.1672  0.8266
 3868TIP3   OH233162   0.857   6.583   1.246 -0.0231 -0.1404 -0.2555
 3868TIP3    H133163   0.938   6.558   1.202  0.8947 -0.2195  1.3935
 3868TIP3    H233164   0.859   6.535   1.329 -1.1945  0.7645  0.3288
 3869TIP3   OH233165   1.896   0.402   2.467 -0.3972 -0.4809  1.1987
 3869TIP3    H133166   1.981   0.419   2.506  0.4641 -1.1532 -0.2728
 3869TIP3    H233167   1.862   0.488   2.443  0.3775 -0.2770  0.8127
 3870TIP3   OH233168   2.385   1.276   8.096  0.0252  0.3278  0.6837
 3870TIP3    H133169   2.449   1.314   8.155 -2.0995  2.0843  2.0318
 3870TIP3    H233170   2.389   1.331   8.017  0.7323 -0.1107  0.4033
 3871TIP3   OH233171   2.009   2.149   7.954  0.1022 -0.0618 -0.3327
 3871TIP3    H133172   1.998   2.138   7.860  1.4264  0.5339 -0.5920
 3871TIP3    H233173   2.092   2.196   7.963  0.3552 -0.7195  1.1618
 3872TIP3   OH233174   2.572   5.183   6.406 -0.0417  0.1152  0.1588
 3872TIP3    H133175   2.509   5.212   6.341  1.9523 -0.2187 -2.0721
 3872TIP3    H233176   2.553   5.090   6.419  0.3444 -0.1389 -0.9896
 3873TIP3   OH233177   6.473   0.714   8.327 -0.0009  0.0125  0.0242
 3873TIP3    H133178   6.456   0.781   8.394 -0.4199  0.9326 -0.9721
 3873TIP3    H233179   6.427   0.746   8.249  1.5378 -0.3611 -1.0861
 3874TIP3   OH233180   0.451   1.353   1.183 -0.0870 -0.0193  0.3385
 3874TIP3    H133181   0.473   1.286   1.119 -0.3666  0.6902 -0.5194
 3874TIP3    H233182   0.378   1.401   1.144 -2.1367 -1.2530  2.3532
 3875TIP3   OH233183   6.229   1.543   8.475  0.4215 -0.1124 -0.0675
 3875TIP3    H133184   6.240   1.459   8.429  2.2861 -0.0051  0.1220
 3875TIP3    H233185   6.188   1.600   8.410  0.7067 -0.6740 -0.7572
 3876TIP3   OH233186   2.298   2.921   6.473  0.4553 -0.0109  0.2018
 3876TIP3    H133187   2.225   2.982   6.485 -0.4133 -0.7777 -0.9825
 3876TIP3    H233188   2.347   2.957   6.399 -1.0274 -1.5752 -1.6404
 3877TIP3   OH233189   0.171   1.175   0.502  0.1936 -0.2182 -0.0573
 3877TIP3    H133190   0.248   1.207   0.456 -0.5513  2.0975  0.1968
 3877TIP3    H233191   0.115   1.251   0.512 -1.0586 -1.2955  1.9469
 3878TIP3   OH233192   2.800   5.529   2.456  0.3596  0.4276  0.5965
 3878TIP3    H133193   2.832   5.467   2.390  0.9786  0.8547  0.4905
 3878TIP3    H233194   2.747   5.591   2.406 -1.8924 -1.0648  0.9480
 3879TIP3   OH233195   1.947   4.846   8.143 -0.0274  0.3784 -0.4888
 3879TIP3    H133196   1.977   4.775   8.087 -0.1933 -0.2038  0.1439
 3879TIP3    H233197   1.908   4.909   8.083  0.6054  0.1904 -1.1131
 3880TIP3   OH233198   4.759   6.723   8.348  0.2631  0.3756  0.0171
 3880TIP3    H133199   4.673   6.715   8.389  0.1000  0.5648 -0.2771
 3880TIP3    H233200   4.784   6.814   8.361 -1.1776  1.3280 -2.9142
 3881TIP3   OH233201   2.926   0.493   6.251  0.1414  0.2800 -0.2494
 3881TIP3    H133202   3.008   0.450   6.227  1.1486  0.8728  1.8862
 3881TIP3    H233203   2.940   0.585   6.225  1.9571  1.3387  3.7001
 3882TIP3   OH233204   1.395   3.110   1.111  0.6044  0.7432 -0.0939
 3882TIP3    H133205   1.480   3.150   1.131  1.3020  0.3659 -2.0243
 3882TIP3    H233206   1.407   3.070   1.025 -0.6341 -2.0297  0.9187
 3883TIP3   OH233207   6.311   2.320   2.631 -0.8469  0.1424 -0.0352
 3883TIP3    H133208   6.385   2.381   2.627 -1.4858  1.1313  1.8743
 3883TIP3    H233209   6.234   2.377   2.637 -1.4020 -0.7456  2.9504
 3884TIP3   OH233210   2.406   2.921   8.377 -0.4457  0.3444 -0.2687
 3884TIP3    H133211   2.319   2.927   8.415 -0.4325  0.4917 -0.2626
 3884TIP3    H233212   2.439   2.835   8.404 -0.3635  0.5212  0.2015
 3885TIP3   OH233213   1.132   3.120   7.631 -0.4502  0.0353 -0.0217
 3885TIP3    H133214   1.222   3.095   7.653 -1.0014 -1.7225  0.3716
 3885TIP3    H233215   1.141   3.208   7.594  1.3889  0.0362  0.2937
 3886TIP3   OH233216   4.241   4.287   7.449 -0.1536 -0.8349 -0.6523
 3886TIP3    H133217   4.290   4.364   7.479 -1.5866  0.5527 -1.7067
 3886TIP3    H233218   4.260   4.281   7.356  1.5937 -3.0821 -0.2279
 3887TIP3   OH233219   6.029   1.445   7.481  0.0173 -0.1327 -0.0038
 3887TIP3    H133220   6.037   1.362   7.434 -1.1940  0.6564 -1.7316
 3887TIP3    H233221   6.058   1.511   7.418  0.3329  0.8157  1.1048
 3888TIP3   OH233222   6.258   3.584   7.376 -0.8816 -0.3155  0.0208
 3888TIP3    H133223   6.292   3.658   7.427 -0.8449  0.3207 -0.8911
 3888TIP3    H233224   6.327   3.566   7.312 -0.8199 -1.2623  0.3384
 3889TIP3   OH233225   1.204   0.066   7.339  0.4312  0.3419 -0.3642
 3889TIP3    H133226   1.149  -0.012   7.348 -1.4534  1.5730 -0.5857
 3889TIP3    H233227   1.209   0.101   7.428  1.6881 -0.2368 -0.1740
 3890TIP3   OH233228   1.610   0.679   7.162  0.0989 -0.3975 -0.2525
 3890TIP3    H133229   1.641   0.759   7.204  0.7244 -1.6922  1.9231
 3890TIP3    H233230   1.686   0.620   7.166 -1.0260 -1.8599  0.3811
 3891TIP3   OH233231   3.216   3.730   0.381  0.2633  0.1301 -0.3503
 3891TIP3    H133232   3.204   3.755   0.290  1.2470  0.3583 -0.4301
 3891TIP3    H233233   3.280   3.793   0.415 -1.6733  1.4355  1.1226
 3892TIP3   OH233234   6.625   1.727   7.674  0.0971  0.4023  0.0058
 3892TIP3    H133235   6.549   1.734   7.616 -0.5645  1.7438  0.9691
 3892TIP3    H233236   6.692   1.782   7.634  0.5345 -0.6255 -0.7395
 3893TIP3   OH233237   0.185   4.709   2.382  0.3707  0.1968 -0.6121
 3893TIP3    H133238   0.276   4.722   2.411  0.0289 -0.9202  1.0938
 3893TIP3    H233239   0.181   4.618   2.356 -0.1143  0.4141 -1.3026
 3894TIP3   OH233240   2.300   4.744   1.035  0.0614  0.5224  0.1659
 3894TIP3    H133241   2.250   4.776   0.959 -0.7345 -0.4035  0.2804
 3894TIP3    H233242   2.239   4.751   1.108  0.1492 -0.4417  0.3477
 3895TIP3   OH233243   5.617   1.692   7.815  0.1047 -0.2396 -0.6932
 3895TIP3    H133244   5.564   1.767   7.789  0.2519  0.2404  0.3492
 3895TIP3    H233245   5.699   1.730   7.847 -0.2224 -0.7578  0.8480
 3896TIP3   OH233246   6.026   1.335   0.354  0.2456  0.1588  0.2615
 3896TIP3    H133247   5.950   1.338   0.295  0.7695 -0.0097 -0.4388
 3896TIP3    H233248   5.999   1.387   0.430 -0.2462  0.8583 -0.3706
 3897TIP3   OH233249   3.502   4.873   1.285 -0.0791 -0.6914 -0.6071
 3897TIP3    H133250   3.580   4.827   1.316 -0.7490 -0.6817  1.2328
 3897TIP3    H233251   3.527   4.965   1.284 -0.3105 -0.5851  0.9065
 3898TIP3   OH233252   3.990   0.194   7.722 -0.0326  0.0829 -0.3678
 3898TIP3    H133253   4.038   0.273   7.699 -1.0420  0.5346 -1.0010
 3898TIP3    H233254   3.906   0.226   7.756  0.0422 -0.6892  0.6116
 3899TIP3   OH233255   1.490   5.346   8.114 -0.8810  0.2769  0.3715
 3899TIP3    H133256   1.523   5.256   8.116 -1.4619  0.0218 -0.6618
 3899TIP3    H233257   1.570   5.400   8.115 -0.3909 -0.3190 -1.4709
 3900TIP3   OH233258   5.303   5.152   8.064 -0.2642 -0.1846  0.0692
 3900TIP3    H133259   5.336   5.134   8.152 -1.4543  1.3824  0.8951
 3900TIP3    H233260   5.352   5.229   8.035  0.3121 -0.8524 -0.7701
 3901TIP3   OH233261   2.671   3.530   0.711  0.2480  0.2505 -0.4135
 3901TIP3    H133262   2.681   3.610   0.659 -1.0817 -0.6804 -2.1946
 3901TIP3    H233263   2.656   3.562   0.800 -2.5219  2.1402 -1.4232
 3902TIP3   OH233264   3.745   0.988   2.230  0.2190  0.8540 -0.0073
 3902TIP3    H133265   3.677   1.041   2.271  0.5496  0.3048  1.2935
 3902TIP3    H233266   3.821   1.000   2.286  0.4551 -0.5331 -0.0026
 3903TIP3   OH233267   4.925   6.232   8.672 -0.6403  0.6132  0.4990
 3903TIP3    H133268   4.975   6.303   8.712  0.2497  0.2149  0.1234
 3903TIP3    H233269   4.845   6.274   8.641 -0.0117  1.5076  0.0437
 3904TIP3   OH233270   2.944   3.616   0.049 -0.3824 -0.4648 -0.5275
 3904TIP3    H133271   2.907   3.690   0.097  0.8489 -0.0998 -0.0925
 3904TIP3    H233272   2.977   3.557   0.117 -0.5797 -0.9989 -0.8899
 3905TIP3   OH233273   2.309   2.666   2.049  0.1074  0.1469 -0.0593
 3905TIP3    H133274   2.329   2.749   2.006  1.5908  1.3627  2.7120
 3905TIP3    H233275   2.217   2.674   2.074  0.3975  1.2601  0.7251
 3906TIP3   OH233276   0.857   4.560   2.037 -0.1173 -0.1990  0.9330
 3906TIP3    H133277   0.767   4.591   2.053 -0.1950 -0.2181  0.5336
 3906TIP3    H233278   0.846   4.468   2.011  0.1662 -0.8631  2.9399
 3907TIP3   OH233279   4.588   2.420   0.453  0.1128 -0.3205 -0.4573
 3907TIP3    H133280   4.675   2.382   0.443 -0.2012 -1.6664  1.3872
 3907TIP3    H233281   4.530   2.358   0.409 -0.0700 -0.2492 -0.3171
 3908TIP3   OH233282   3.717   4.439   8.155  0.2011  0.1821  0.2694
 3908TIP3    H133283   3.694   4.526   8.123  0.8470 -0.0145 -0.8019
 3908TIP3    H233284   3.812   4.433   8.140  0.3232 -0.3596  1.1936
 3909TIP3   OH233285   5.014   3.408   7.659 -0.1757 -0.1012 -0.5689
 3909TIP3    H133286   5.086   3.350   7.684 -0.9686 -0.9387 -0.1700
 3909TIP3    H233287   4.943   3.386   7.719 -0.1641  2.0589  0.3600
 3910TIP3   OH233288   4.267   6.709   7.713 -0.0722 -0.1401  0.2826
 3910TIP3    H133289   4.254   6.724   7.806  0.9738 -1.3675  0.6615
 3910TIP3    H233290   4.243   6.791   7.671 -0.0502  0.5999  1.6818
 3911TIP3   OH233291   5.690   3.711   7.780  0.5378  0.0941  0.0222
 3911TIP3    H133292   5.721   3.653   7.849 -1.7070 -1.8447 -0.4640
 3911TIP3    H233293   5.705   3.663   7.699  2.5395  2.0609 -0.8782
 3912TIP3   OH233294   3.168   0.898   8.191 -0.5537  0.0680 -0.1385
 3912TIP3    H133295   3.187   0.806   8.211 -1.7572 -0.3978 -0.9819
 3912TIP3    H233296   3.110   0.926   8.262 -0.4643  0.0687 -0.0656
 3913TIP3   OH233297   5.060   1.395   7.889 -0.3636  0.4983 -0.1563
 3913TIP3    H133298   5.088   1.363   7.803  0.6525 -1.1792  0.7346
 3913TIP3    H233299   5.136   1.443   7.923 -0.3538  0.2074  0.2464
 3914TIP3   OH233300   5.492   6.663   1.114  0.0340  0.1700 -0.0233
 3914TIP3    H133301   5.508   6.755   1.094 -2.2221  0.7687  0.6894
 3914TIP3    H233302   5.564   6.638   1.172  0.2909  1.6894  0.3533
 3915TIP3   OH233303   6.774   0.486   0.380  0.1803  0.3993 -0.4328
 3915TIP3    H133304   6.686   0.469   0.414  0.3553  0.1552 -0.0992
 3915TIP3    H233305   6.812   0.399   0.369  0.5880  0.5229 -0.0200
 3916TIP3   OH233306   6.634   0.588   1.807  0.1705 -0.6326 -0.1530
 3916TIP3    H133307   6.583   0.653   1.857  1.2945  0.1504  0.0055
 3916TIP3    H233308   6.663   0.635   1.729 -0.2181 -1.3837 -0.7606
 3917TIP3   OH233309   3.104   0.119   0.941  0.2353  0.2069  0.4020
 3917TIP3    H133310   3.095   0.027   0.918  2.3590  0.2533 -0.9494
 3917TIP3    H233311   3.052   0.129   1.021 -1.7329 -1.6409 -0.5330
 3918TIP3   OH233312   3.694   3.093   6.513  0.2237  0.2989  0.2277
 3918TIP3    H133313   3.752   3.034   6.465  0.8556  1.3234 -0.2929
 3918TIP3    H233314   3.633   3.125   6.448 -0.7178 -0.4857  0.7025
 3919TIP3   OH233315   4.195   2.515   8.424 -0.0062 -0.1606  0.2361
 3919TIP3    H133316   4.238   2.502   8.339 -1.5407 -0.7543 -0.4938
 3919TIP3    H233317   4.113   2.558   8.402  0.8514  2.4751  1.7510
 3920TIP3   OH233318   3.392   2.741   6.747  0.3168 -0.0473 -0.5466
 3920TIP3    H133319   3.405   2.816   6.806  0.6971  0.3704 -1.1563
 3920TIP3    H233320   3.369   2.780   6.663  0.5233 -0.6204 -0.8707
 3921TIP3   OH233321   4.120   0.632   7.114  0.2821 -0.1622  0.1423
 3921TIP3    H133322   4.107   0.541   7.089  3.3095 -0.6266 -0.1154
 3921TIP3    H233323   4.168   0.671   7.041  0.6695  1.1344  1.0459
 3922TIP3   OH233324   1.652   2.551   0.019  0.2660 -0.7802 -0.0707
 3922TIP3    H133325   1.680   2.593   0.101 -1.8522  0.6008  0.0213
 3922TIP3    H233326   1.589   2.485   0.047  0.5153 -1.2028 -0.5109
 3923TIP3   OH233327   3.935   0.662   1.916 -0.2112 -0.0663 -0.0148
 3923TIP3    H133328   3.887   0.690   1.994  1.7893  2.1168  0.5850
 3923TIP3    H233329   3.970   0.576   1.938 -0.0219  0.3474  1.3808
 3924TIP3   OH233330   4.251   5.909   8.531 -0.1797  0.3795 -0.3648
 3924TIP3    H133331   4.316   5.980   8.529 -1.1794  1.3047 -1.4508
 3924TIP3    H233332   4.223   5.905   8.622 -0.8870  2.1521 -0.4668
 3925TIP3   OH233333   4.828   0.962   7.363 -0.2086  0.1367 -0.2354
 3925TIP3    H133334   4.885   0.957   7.287 -1.4579  2.0256 -1.3580
 3925TIP3    H233335   4.887   0.984   7.436  0.7479  0.0482 -0.9687
 3926TIP3   OH233336   1.735   6.024   1.120  0.1809 -0.0215 -0.3595
 3926TIP3    H133337   1.775   6.064   1.043  0.6558  2.6081  1.1366
 3926TIP3    H233338   1.641   6.029   1.104  0.2513  1.2091 -0.4696
 3927TIP3   OH233339   0.643   6.537   8.718 -0.1396  0.8680  0.7617
 3927TIP3    H133340   0.714   6.593   8.687  0.7933 -0.5507  0.2458
 3927TIP3    H233341   0.565   6.592   8.713  0.2122  1.2659 -2.5658
 3928TIP3   OH233342   4.247   2.729   7.785 -0.2388  0.2893  0.4631
 3928TIP3    H133343   4.236   2.634   7.790  0.2105  0.1546 -0.8062
 3928TIP3    H233344   4.334   2.745   7.823  0.9943 -0.1685 -1.9892
 3929TIP3   OH233345   5.052   1.382   6.376  0.1574 -1.0082 -0.4599
 3929TIP3    H133346   5.077   1.330   6.452  0.0835 -3.0325 -1.7473
 3929TIP3    H233347   5.006   1.321   6.319  0.4360  0.3647 -2.2585
 3930TIP3   OH233348   1.403   0.549   0.130  0.3161 -0.2533  0.3142
 3930TIP3    H133349   1.315   0.587   0.129  0.7355  0.7668 -1.7206
 3930TIP3    H233350   1.402   0.484   0.060  1.5855  0.7737 -0.6953
 3931TIP3   OH233351   5.027   2.882   2.474 -0.3964  0.5812  0.5564
 3931TIP3    H133352   5.032   2.786   2.469 -1.3253  0.5778 -1.0885
 3931TIP3    H233353   5.096   2.913   2.416  0.7651  0.9619  2.0855
 3932TIP3   OH233354   2.868   6.299   2.120 -0.6457  0.3184  0.2679
 3932TIP3    H133355   2.789   6.344   2.150 -0.9948 -0.6816  0.9294
 3932TIP3    H233356   2.921   6.291   2.199 -0.1637  0.4208 -0.0443
 3933TIP3   OH233357   6.112   4.767   8.481  0.0373 -0.2206 -0.0072
 3933TIP3    H133358   6.137   4.675   8.480  2.4522  0.3678 -0.1555
 3933TIP3    H233359   6.186   4.813   8.442 -1.6875  1.6930 -1.3163
 3934TIP3   OH233360   0.933   2.318   1.109 -0.3509 -0.3199 -0.0141
 3934TIP3    H133361   0.960   2.342   1.197 -0.2395  0.8179 -0.3483
 3934TIP3    H233362   0.902   2.400   1.070  0.3784 -0.6380 -1.3144
 3935TIP3   OH233363   2.425   6.214   1.702  0.5916 -0.4598  0.3296
 3935TIP3    H133364   2.519   6.193   1.708  1.0890  0.9172 -1.6496
 3935TIP3    H233365   2.409   6.271   1.776  0.9471 -1.8393  1.5194
 3936TIP3   OH233366   4.005   4.618   8.361  0.1050 -0.0438 -0.3829
 3936TIP3    H133367   3.923   4.631   8.408  1.1069 -0.0307  1.4643
 3936TIP3    H233368   4.004   4.685   8.292 -0.5932  1.2522  0.8369
 3937TIP3   OH233369   4.498   4.179   0.640 -0.1387  0.2142 -0.0932
 3937TIP3    H133370   4.578   4.224   0.666 -0.9799  1.2280  0.8180
 3937TIP3    H233371   4.520   4.086   0.644  0.6083  0.4318  1.4718
 3938TIP3   OH233372   2.389   2.919   0.601 -0.6182  0.0576  0.5350
 3938TIP3    H133373   2.454   2.906   0.670 -0.1800  1.6940  0.4797
 3938TIP3    H233374   2.395   3.012   0.580 -0.4784 -0.4416 -1.9684
 3939TIP3   OH233375   6.759   6.366   8.001  0.4024 -0.0604  0.2058
 3939TIP3    H133376   6.710   6.351   8.082  1.2106 -0.0336  0.7103
 3939TIP3    H233377   6.843   6.401   8.030  0.9252 -0.6094 -0.6233
 3940TIP3   OH233378   6.640   1.221   7.216 -0.7178  0.4587  0.3076
 3940TIP3    H133379   6.633   1.142   7.269  0.3154 -0.8083 -1.3379
 3940TIP3    H233380   6.647   1.292   7.280 -2.3106 -0.6710  1.8357
 3941TIP3   OH233381   1.837   5.566   7.265 -0.7527  0.6275  0.1186
 3941TIP3    H133382   1.842   5.517   7.183  1.5287 -1.4819  1.3840
 3941TIP3    H233383   1.857   5.501   7.333 -0.6248  2.7074  2.1849
 3942TIP3   OH233384   3.969   3.375   8.482  0.5560  0.0343 -0.0468
 3942TIP3    H133385   4.052   3.328   8.488  0.2921 -0.5667 -0.8949
 3942TIP3    H233386   3.992   3.466   8.501  1.4906 -0.0438 -0.7202
 3943TIP3   OH233387   2.098   0.092   0.772  0.2925  0.0498  0.1830
 3943TIP3    H133388   2.159   0.022   0.796  1.3170  0.4796 -1.0425
 3943TIP3    H233389   2.011   0.056   0.792  0.8377 -1.3112  0.2196
 3944TIP3   OH233390   5.862   3.129   2.307 -0.1479 -0.3528  0.3458
 3944TIP3    H133391   5.928   3.088   2.251 -1.2253 -0.2403 -1.0554
 3944TIP3    H233392   5.862   3.076   2.387 -0.3091 -2.0525 -0.7386
 3945TIP3   OH233393   3.703   1.606   7.629 -0.0844  0.1002  0.0459
 3945TIP3    H133394   3.737   1.692   7.652 -0.9140  0.1696  1.1006
 3945TIP3    H233395   3.709   1.556   7.710 -3.0353  0.3153  0.5084
 3946TIP3   OH233396   5.473   6.439   8.119  0.1929 -0.1013  0.3377
 3946TIP3    H133397   5.500   6.367   8.176  0.5644  0.4810  0.9034
 3946TIP3    H233398   5.377   6.439   8.125  0.2280 -0.0318  0.9868
 3947TIP3   OH233399   2.283   4.119   0.976  0.0538 -0.3841 -0.4490
 3947TIP3    H133400   2.285   4.119   1.072 -1.9073 -0.3876 -0.3558
 3947TIP3    H233401   2.338   4.192   0.951  0.9284 -0.6299  0.6625
 3948TIP3   OH233402   2.862   1.465   7.928  0.6142  0.1541 -0.4093
 3948TIP3    H133403   2.951   1.445   7.956  0.4054  0.3210  0.3710
 3948TIP3    H233404   2.827   1.523   7.995 -0.7406 -1.4168  0.2979
 3949TIP3   OH233405   4.043   3.203   0.998 -0.1395  0.0405  0.2668
 3949TIP3    H133406   4.020   3.197   1.091  2.0001 -2.4010  0.7645
 3949TIP3    H233407   3.971   3.160   0.952  0.3018 -1.8114  1.1920
 3950TIP3   OH233408   3.301   1.236   8.822 -0.0777  0.1833  0.0015
 3950TIP3    H133409   3.245   1.252   8.746  0.5347 -0.6497 -0.6406
 3950TIP3    H233410   3.328   1.324   8.851 -0.2630  0.5006 -0.7756
 3951TIP3   OH233411   3.506   3.488   1.819 -0.6064 -0.5319 -0.2763
 3951TIP3    H133412   3.429   3.459   1.868 -0.7816  0.6047  0.1502
 3951TIP3    H233413   3.471   3.541   1.747 -0.2327 -0.0318 -0.0993
 3952TIP3   OH233414   6.595   6.294   6.921  0.3478  0.0880  0.1656
 3952TIP3    H133415   6.576   6.315   7.012  0.0511 -2.0080  0.6372
 3952TIP3    H233416   6.590   6.377   6.875 -0.3963  1.0451  1.9094
 3953TIP3   OH233417   0.649   4.723   7.944 -0.0149  0.6677  0.6613
 3953TIP3    H133418   0.638   4.716   7.849 -0.0802 -0.7013  0.7519
 3953TIP3    H233419   0.733   4.768   7.956 -0.5678  1.9301 -0.0273
 3954TIP3   OH233420   4.342   2.065   2.191 -0.4835 -0.2018 -0.5234
 3954TIP3    H133421   4.317   2.046   2.281  1.1792  0.3498  0.0947
 3954TIP3    H233422   4.277   2.128   2.160 -1.2565 -0.6509  0.1553
 3955TIP3   OH233423   3.578   0.885   8.021 -0.0956 -0.7550 -0.4144
 3955TIP3    H133424   3.552   0.877   7.930  1.6192  0.0396 -1.0181
 3955TIP3    H233425   3.648   0.820   8.032  1.1150  0.5225 -0.2711
 3956TIP3   OH233426   0.374   3.120   7.314 -0.3414  0.7019 -0.6525
 3956TIP3    H133427   0.405   3.202   7.275  0.1103  0.9955  0.2921
 3956TIP3    H233428   0.376   3.057   7.242  0.4124  1.2448 -1.1274
 3957TIP3   OH233429   4.081   4.579   7.196 -0.2081 -0.4021  0.0439
 3957TIP3    H133430   4.157   4.536   7.157 -1.1757 -0.9640 -1.2954
 3957TIP3    H233431   4.034   4.508   7.241 -0.0094 -0.0753  0.7851
 3958TIP3   OH233432   4.233   0.200   0.754 -0.4675  0.0900  0.1674
 3958TIP3    H133433   4.249   0.220   0.846  0.7160  0.1684 -0.0324
 3958TIP3    H233434   4.149   0.155   0.753 -1.3252  1.6002  1.0774
 3959TIP3   OH233435   0.307   3.535   8.233 -0.0420  0.8179  0.1437
 3959TIP3    H133436   0.283   3.598   8.302  0.7862 -0.3675  1.5718
 3959TIP3    H233437   0.373   3.479   8.273  1.5998  0.9954 -2.1347
 3960TIP3   OH233438   4.543   1.264   1.395  0.4150 -0.2106 -0.1684
 3960TIP3    H133439   4.532   1.320   1.472 -0.9814 -0.9073  0.1500
 3960TIP3    H233440   4.504   1.181   1.419  0.3723 -0.5878 -1.4755
 3961TIP3   OH233441   2.109   1.269   7.959 -0.0543  0.0841 -0.0568
 3961TIP3    H133442   2.118   1.174   7.954 -0.2655  0.0998 -0.7808
 3961TIP3    H233443   2.085   1.296   7.870  0.1359  0.8277  0.1121
 3962TIP3   OH233444   2.095   5.334   8.139  0.8940  0.4438 -0.1212
 3962TIP3    H133445   2.052   5.387   8.072  2.1773  1.6666 -0.0359
 3962TIP3    H233446   2.137   5.263   8.090 -0.4938 -0.3003 -0.2794
 3963TIP3   OH233447   2.212   1.100   0.338 -0.3530  0.2145 -0.5293
 3963TIP3    H133448   2.161   1.121   0.260 -0.9123 -0.8327 -0.4579
 3963TIP3    H233449   2.146   1.074   0.403  0.1768  0.1817 -0.0022
 3964TIP3   OH233450   1.460   6.337   0.367 -0.6110  0.2620  0.0047
 3964TIP3    H133451   1.405   6.390   0.309  1.8456 -0.1669 -2.9989
 3964TIP3    H233452   1.521   6.400   0.405  1.3013 -0.0445 -2.3407
 3965TIP3   OH233453   3.490   6.761   8.426  0.0999 -0.3019 -0.5646
 3965TIP3    H133454   3.425   6.810   8.476 -1.8002 -1.1319 -2.1036
 3965TIP3    H233455   3.515   6.688   8.483  2.5106  1.9233  1.5065
 3966TIP3   OH233456   4.355   3.108   2.017 -0.6997 -0.2782 -0.5317
 3966TIP3    H133457   4.439   3.062   2.011  0.8286  2.3494 -1.3190
 3966TIP3    H233458   4.340   3.118   2.111  0.5375  0.2754 -0.3735
 3967TIP3   OH233459   6.526   0.222   8.131  0.3932 -0.2886 -0.1192
 3967TIP3    H133460   6.606   0.244   8.085 -0.7399 -0.2435 -2.1891
 3967TIP3    H233461   6.517   0.127   8.120  0.9276 -0.5652  1.4863
 3968TIP3   OH233462   2.272   6.402   0.834 -0.2034 -0.5287 -0.3029
 3968TIP3    H133463   2.317   6.323   0.864 -2.3058 -2.0856 -0.9881
 3968TIP3    H233464   2.180   6.376   0.828 -1.4945  2.7759  2.1287
 3969TIP3   OH233465   4.688   3.644   8.599  0.3603  0.1163 -0.2006
 3969TIP3    H133466   4.629   3.716   8.576 -0.6159 -0.0090  1.6808
 3969TIP3    H233467   4.753   3.684   8.657 -0.4312 -0.5466  1.1915
 3970TIP3   OH233468   0.560   6.024   1.659 -0.0706 -0.6450 -0.0881
 3970TIP3    H133469   0.519   5.941   1.684  1.8873 -1.9604 -0.9952
 3970TIP3    H233470   0.499   6.063   1.597 -1.7007 -0.6460  1.4106
 3971TIP3   OH233471   0.821   0.905   7.855  0.1367 -0.4920 -0.0520
 3971TIP3    H133472   0.765   0.914   7.778 -0.1879 -1.9496 -0.0084
 3971TIP3    H233473   0.901   0.864   7.822  1.6613  2.3640 -0.2894
 3972TIP3   OH233474   1.880   1.402   1.937 -0.1268  0.1181  0.0437
 3972TIP3    H133475   1.879   1.496   1.953 -0.7128  0.2029 -0.4432
 3972TIP3    H233476   1.809   1.368   1.991 -0.2012  0.0142 -0.1205
 3973TIP3   OH233477   4.607   0.820   8.160 -0.1230  0.1572 -0.3865
 3973TIP3    H133478   4.517   0.793   8.179 -0.3349  0.2484 -1.2300
 3973TIP3    H233479   4.617   0.904   8.205 -0.4559  0.1455 -0.2897
 3974TIP3   OH233480   6.042   4.698   6.829 -0.8113  0.1104 -0.1966
 3974TIP3    H133481   6.040   4.792   6.846  0.0890  0.5051 -2.1025
 3974TIP3    H233482   5.978   4.662   6.891 -1.5029  2.0023  0.2654
 3975TIP3   OH233483   0.186   3.929   1.382 -0.0056 -0.0078 -0.0216
 3975TIP3    H133484   0.160   4.014   1.346  0.1326  0.7882  1.6468
 3975TIP3    H233485   0.281   3.926   1.370  0.3479  1.2048  2.0868
 3976TIP3   OH233486   5.771   6.261   8.221  0.2236  0.1846  0.0776
 3976TIP3    H133487   5.740   6.349   8.202  2.3407  1.1456  0.6862
 3976TIP3    H233488   5.717   6.204   8.168 -1.8582  1.7540  0.3966
 3977TIP3   OH233489   4.443   0.062   6.238  0.0974 -0.0714  0.3810
 3977TIP3    H133490   4.452   0.138   6.295  0.3116  2.8293 -3.1924
 3977TIP3    H233491   4.366   0.081   6.184 -0.7671 -3.1799  0.3265
 3978TIP3   OH233492   3.164   6.670   7.908  0.1331 -0.0874 -0.5244
 3978TIP3    H133493   3.083   6.619   7.917  0.1504 -0.0158  0.1048
 3978TIP3    H233494   3.184   6.667   7.815  0.4924 -1.8011 -0.4388
 3979TIP3   OH233495   5.751   3.513   2.066  0.0578  0.0736 -0.0170
 3979TIP3    H133496   5.762   3.598   2.024 -2.2719  1.2799  1.5888
 3979TIP3    H233497   5.734   3.453   1.994  0.1746  1.2850 -1.0853
 3980TIP3   OH233498   5.203   5.295   7.750 -0.1713 -0.5557 -0.4548
 3980TIP3    H133499   5.241   5.383   7.757  1.0331 -1.0871 -0.0025
 3980TIP3    H233500   5.146   5.288   7.827 -1.2725  0.2759 -1.1751
 3981TIP3   OH233501   5.830   5.511   0.059 -0.1236  0.3637  0.1671
 3981TIP3    H133502   5.831   5.420   0.031  1.0447  1.0213 -2.1619
 3981TIP3    H233503   5.758   5.550   0.010 -0.2687  0.8380  0.7402
 3982TIP3   OH233504   2.300   5.588   0.062  0.7430  0.1043 -0.1451
 3982TIP3    H133505   2.242   5.511   0.065  0.6450  0.2089  0.6568
 3982TIP3    H233506   2.388   5.551   0.062  0.6901 -0.0233 -0.2641
 3983TIP3   OH233507   3.350   1.063   1.632  0.0075 -0.5152  0.3595
 3983TIP3    H133508   3.342   1.066   1.536 -0.4222 -1.0617  0.3765
 3983TIP3    H233509   3.444   1.051   1.647 -0.0947 -2.1511 -0.0537
 3984TIP3   OH233510   4.198   3.058   6.674 -0.3820  0.2850 -0.3418
 3984TIP3    H133511   4.129   3.041   6.611 -0.7620  0.1010  0.1175
 3984TIP3    H233512   4.214   2.974   6.717 -0.5379  0.5258  0.2055
 3985TIP3   OH233513   2.530   2.602   0.669 -0.3276  0.1718 -0.1001
 3985TIP3    H133514   2.460   2.537   0.678 -1.3785  1.5524  3.6542
 3985TIP3    H233515   2.584   2.590   0.747  0.8741  2.1733 -0.5501
 3986TIP3   OH233516   1.247   0.502   8.120  0.5089  0.1954 -0.4467
 3986TIP3    H133517   1.218   0.592   8.106  1.0210  0.2612 -1.1731
 3986TIP3    H233518   1.218   0.481   8.209 -0.1117  0.8790 -0.4736
 3987TIP3   OH233519   3.664   1.126   8.054 -0.1901 -0.3944  0.4224
 3987TIP3    H133520   3.706   1.128   8.140  1.5238  0.5524 -0.3806
 3987TIP3    H233521   3.617   1.043   8.052  1.2513 -1.2896  1.6036
 3988TIP3   OH233522   1.361   0.131   0.176  0.0814 -0.1743 -0.5247
 3988TIP3    H133523   1.304   0.126   0.099 -2.5224  0.5228  1.2395
 3988TIP3    H233524   1.441   0.172   0.143 -1.4011  1.2341 -2.6558
 3989TIP3   OH233525   6.119   0.067   1.518 -0.1204  0.3610 -0.7155
 3989TIP3    H133526   6.110   0.124   1.595 -1.1459 -1.3239  0.4880
 3989TIP3    H233527   6.184   0.001   1.544 -0.1395  0.0295 -1.4733
 3990TIP3   OH233528   1.637   2.270   2.349 -0.1726  1.1829  0.4866
 3990TIP3    H133529   1.670   2.182   2.330 -0.3418  0.8560  1.6543
 3990TIP3    H233530   1.542   2.258   2.358 -0.4853  1.8709 -1.4472
 3991TIP3   OH233531   2.745   3.982   6.992 -0.0563 -0.3318  0.0576
 3991TIP3    H133532   2.769   3.983   7.084  1.4272  0.3235 -0.2969
 3991TIP3    H233533   2.719   3.892   6.974  0.7318 -0.7275  0.8621
 3992TIP3   OH233534   5.354   2.309   8.299 -0.2364 -0.4213  0.0978
 3992TIP3    H133535   5.311   2.334   8.381  1.2871  0.6592  0.6012
 3992TIP3    H233536   5.360   2.213   8.304 -0.4729 -0.3959  1.0771
 3993TIP3   OH233537   6.535   1.077   0.502 -0.0057  0.0178  0.1981
 3993TIP3    H133538   6.454   1.120   0.476 -0.6468 -2.1096 -1.6262
 3993TIP3    H233539   6.570   1.040   0.421  2.7813  0.7612  0.9348
 3994TIP3   OH233540   1.983   1.620   8.112  0.0742  0.5652  0.7472
 3994TIP3    H133541   1.943   1.607   8.026  0.5274 -1.2791  0.7751
 3994TIP3    H233542   2.013   1.711   8.112 -3.0529  1.7092  0.3103
 3995TIP3   OH233543   2.401   1.912   1.709 -0.0236  0.0987  0.3153
 3995TIP3    H133544   2.420   1.930   1.801  0.4504 -0.8919  0.4193
 3995TIP3    H233545   2.328   1.849   1.712  0.2891 -0.2792  0.0266
 3996TIP3   OH233546   6.104   6.674   7.709 -0.2715  0.1456 -0.4417
 3996TIP3    H133547   6.198   6.666   7.726 -0.2988 -1.3505 -0.8831
 3996TIP3    H233548   6.069   6.587   7.728 -1.6479  0.7842  0.1028
 3997TIP3   OH233549   5.100   4.583   1.703  0.1919  0.5022  0.0693
 3997TIP3    H133550   5.162   4.526   1.658  0.4279 -0.1698  1.2193
 3997TIP3    H233551   5.045   4.525   1.755  0.0505  1.2634  0.8070
 3998TIP3   OH233552   3.022   1.571   1.161 -0.2576 -0.4074  0.2292
 3998TIP3    H133553   3.048   1.575   1.069 -0.7533 -3.3202 -0.1387
 3998TIP3    H233554   3.100   1.598   1.210 -0.2074  1.9239 -0.9661
 3999TIP3   OH233555   4.955   4.338   8.032 -0.1213  0.1069 -0.2452
 3999TIP3    H133556   5.019   4.362   8.099 -1.1761  1.0909  0.4415
 3999TIP3    H233557   4.951   4.243   8.036 -0.8354  0.1819  1.7592
 4000TIP3   OH233558   3.904   0.138   8.722 -0.5755  0.1125  0.3800
 4000TIP3    H133559   3.917   0.182   8.806 -1.1006  1.6548 -0.3006
 4000TIP3    H233560   3.815   0.103   8.727 -0.4873 -0.0894  0.5780
 4001TIP3   OH233561   4.675   3.171   0.981 -0.4893  0.5971  0.2800
 4001TIP3    H133562   4.681   3.194   1.073  0.3689  0.1403  0.3479
 4001TIP3    H233563   4.753   3.118   0.964 -0.5364  0.8336 -0.7504
 4002TIP3   OH233564   0.116   5.541   0.562  0.6174  0.1257 -0.1694
 4002TIP3    H133565   0.203   5.501   0.572 -0.9770 -3.7874 -0.2155
 4002TIP3    H233566   0.098   5.535   0.468  0.8407  2.4579 -0.4265
 4003TIP3   OH233567   0.738   4.328   1.480  0.2500  0.2581  0.2098
 4003TIP3    H133568   0.652   4.320   1.521  0.0890 -0.1413 -0.1840
 4003TIP3    H233569   0.773   4.239   1.481  0.5785  0.3885  0.2080
 4004TIP3   OH233570   3.871   1.459   1.517  0.0254  0.1197  0.4167
 4004TIP3    H133571   3.830   1.545   1.512  0.3278  0.2513  0.1633
 4004TIP3    H233572   3.951   1.467   1.465 -1.2438 -1.0644 -1.8893
 4005TIP3   OH233573   1.310   0.605   1.145 -0.3321 -0.1430 -0.1865
 4005TIP3    H133574   1.402   0.633   1.153 -0.6639  1.1989 -0.8297
 4005TIP3    H233575   1.261   0.686   1.136 -1.3116 -0.9247 -2.6542
 4006TIP3   OH233576   3.080   1.185   2.281 -0.1625 -0.2247  0.3696
 4006TIP3    H133577   3.073   1.092   2.302  1.1503 -0.3548  0.2887
 4006TIP3    H233578   3.167   1.211   2.311 -0.5852  1.0420  0.5875
 4007TIP3   OH233579   1.233   3.471   8.235  0.4433 -0.3910 -0.0272
 4007TIP3    H133580   1.286   3.424   8.170  0.2027 -0.5819 -0.0858
 4007TIP3    H233581   1.167   3.518   8.184  1.3517  0.9077 -0.0581
 4008TIP3   OH233582   6.415   1.813   0.920 -0.1922 -0.2586  0.3883
 4008TIP3    H133583   6.418   1.752   0.993 -1.6844  0.6595  1.2653
 4008TIP3    H233584   6.414   1.899   0.961 -4.3658  0.2944 -0.4267
 4009TIP3   OH233585   4.010   6.282   0.398  0.2434  0.2084 -0.0017
 4009TIP3    H133586   4.064   6.343   0.347  2.8811 -1.6334  0.4161
 4009TIP3    H233587   3.934   6.266   0.343  1.3227  0.9757 -1.8035
 4010TIP3   OH233588   3.122   5.546   7.742  0.0099 -0.0518 -0.2120
 4010TIP3    H133589   3.111   5.453   7.720 -1.8735 -0.2266  1.2461
 4010TIP3    H233590   3.211   5.567   7.712  0.7715 -2.5184  0.1001
 4011TIP3   OH233591   2.047   2.580   2.146  0.7966 -0.0555  0.2576
 4011TIP3    H133592   2.018   2.640   2.214 -0.1287  1.1758 -1.1644
 4011TIP3    H233593   2.106   2.519   2.191  2.4268  2.3847  1.6091
 4012TIP3   OH233594   4.283   5.901   8.090 -0.7717  0.0812 -0.5726
 4012TIP3    H133595   4.305   5.916   7.998  0.4744  2.5052  0.0374
 4012TIP3    H233596   4.368   5.889   8.133 -1.2174  0.8508  0.5365
 4013TIP3   OH233597   6.069   2.843   1.815  0.1243  0.8202 -0.1294
 4013TIP3    H133598   6.118   2.923   1.831  0.4683  0.9007 -1.4506
 4013TIP3    H233599   6.130   2.787   1.766  0.0589 -0.4454  1.1503
 4014TIP3   OH233600   5.766   1.342   8.025  0.0830 -0.6310  0.2763
 4014TIP3    H133601   5.763   1.263   7.971 -1.8763  0.6906 -1.6759
 4014TIP3    H233602   5.823   1.402   7.977 -1.5948  0.5234 -0.3518
 4015TIP3   OH233603   5.215   5.453   8.309 -0.6898 -0.4770  0.3019
 4015TIP3    H133604   5.143   5.393   8.330 -1.1587  0.4767  1.5419
 4015TIP3    H233605   5.293   5.409   8.341 -0.9158 -0.8273  0.3797
 4016TIP3   OH233606   2.419   3.179   0.603  0.4813 -0.7009  0.1005
 4016TIP3    H133607   2.490   3.213   0.550  0.5453  2.0024  1.7479
 4016TIP3    H233608   2.450   3.188   0.694 -0.6278 -2.7260  0.7532
 4017TIP3   OH233609   1.584   4.277   0.538  0.3969 -0.5131 -0.0969
 4017TIP3    H133610   1.603   4.367   0.566  0.5612 -0.5043 -0.2348
 4017TIP3    H233611   1.639   4.264   0.462 -0.7094 -0.2232 -0.9800
 4018TIP3   OH233612   3.088   4.636   6.974  0.4455  0.2328  0.6001
 4018TIP3    H133613   3.051   4.722   6.954  1.4310  0.4114 -0.5627
 4018TIP3    H233614   3.104   4.596   6.888  0.5069 -0.8903  1.1157
 4019TIP3   OH233615   4.956   1.775   0.213  0.1649  0.0559 -0.1089
 4019TIP3    H133616   4.988   1.721   0.284 -1.5727 -0.8767  0.0128
 4019TIP3    H233617   4.880   1.820   0.249  0.8113  1.6238 -0.6016
 4020TIP3   OH233618   0.554   2.220   7.453 -0.1593  0.0610 -0.4868
 4020TIP3    H133619   0.627   2.184   7.404 -0.4291  0.0386 -0.8734
 4020TIP3    H233620   0.499   2.263   7.387 -1.1750 -1.0455 -0.3898
 4021TIP3   OH233621   6.144   5.275   2.081 -0.0657  0.1016  0.0239
 4021TIP3    H133622   6.161   5.255   2.173 -1.9993  1.1216  0.6481
 4021TIP3    H233623   6.074   5.215   2.055 -0.9081  1.1427 -0.1808
 4022TIP3   OH233624   0.505   4.838   0.505  0.4965 -0.7515  0.5482
 4022TIP3    H133625   0.466   4.811   0.422  0.5395 -1.9200  0.8912
 4022TIP3    H233626   0.570   4.904   0.481  0.3874 -0.9569 -0.3327
 4023TIP3   OH233627   5.568   2.278   1.399 -0.1508  0.2546  0.3622
 4023TIP3    H133628   5.605   2.263   1.311  1.6083  1.5290  0.8229
 4023TIP3    H233629   5.627   2.231   1.458 -1.2284 -0.4563  0.9102
 4024TIP3   OH233630   5.717   2.784   8.407 -0.1932  0.3758 -0.0153
 4024TIP3    H133631   5.765   2.720   8.460 -0.6435  0.5359  0.6047
 4024TIP3    H233632   5.761   2.784   8.322 -0.9485 -1.7082 -0.4729
 4025TIP3   OH233633   1.164   6.364   2.421  0.0114  0.1588  0.3551
 4025TIP3    H133634   1.202   6.276   2.416 -0.9751 -0.3523  1.3485
 4025TIP3    H233635   1.070   6.349   2.415 -0.2073  1.0917  1.1686
 4026TIP3   OH233636   4.703   2.916   7.820 -0.3662 -0.5037 -0.0351
 4026TIP3    H133637   4.698   2.926   7.915  0.5994  2.3460 -0.1976
 4026TIP3    H233638   4.797   2.911   7.802 -0.5554 -1.3895 -0.8287
 4027TIP3   OH233639   6.749   6.540   1.534 -0.0288 -0.0084 -0.1494
 4027TIP3    H133640   6.694   6.595   1.478  0.9388  1.2868  0.1045
 4027TIP3    H233641   6.757   6.590   1.615  0.3217 -0.8561  0.3442
 4028TIP3   OH233642   2.249   3.023   7.447 -0.4957  0.3353  0.2183
 4028TIP3    H133643   2.164   2.979   7.455  0.3668 -1.2013  1.1979
 4028TIP3    H233644   2.248   3.059   7.358 -1.4417 -1.2492 -0.4544
 4029TIP3   OH233645   6.135   5.511   1.784  0.3596 -0.4343  0.1830
 4029TIP3    H133646   6.192   5.499   1.860 -0.9752 -0.6115  1.2195
 4029TIP3    H233647   6.106   5.602   1.790  0.3858 -0.3986 -0.2197
 4030TIP3   OH233648   2.632   2.489   8.393 -0.2709 -0.3459 -0.7609
 4030TIP3    H133649   2.633   2.405   8.347  1.8871  0.4839 -2.3561
 4030TIP3    H233650   2.685   2.474   8.472  0.1048 -0.4830 -1.0379
 4031TIP3   OH233651   4.438   3.013   7.418 -0.4117 -0.5286  0.2185
 4031TIP3    H133652   4.530   2.993   7.436 -0.8600 -1.4274  1.6568
 4031TIP3    H233653   4.419   2.965   7.337  0.2773 -0.6313  0.1074
 4032TIP3   OH233654   0.530   6.700   1.462 -0.5557 -0.1616  0.1504
 4032TIP3    H133655   0.471   6.691   1.537 -1.7509 -1.9561 -0.9391
 4032TIP3    H233656   0.488   6.764   1.405  0.0517  0.7442  0.6849
 4033TIP3   OH233657   6.247   0.155   8.538  0.3196  0.6070  0.1234
 4033TIP3    H133658   6.154   0.174   8.523  0.2099 -1.1535 -1.9703
 4033TIP3    H233659   6.248   0.098   8.614 -0.6529 -1.3946 -1.2653
 4034TIP3   OH233660   0.698   3.946   1.445 -0.3599 -0.1599  0.4178
 4034TIP3    H133661   0.774   3.970   1.498  0.0508 -0.5161 -0.0009
 4034TIP3    H233662   0.727   3.870   1.395 -0.0987  1.1978 -1.6508
 4035TIP3   OH233663   0.873   4.853   0.944  0.0904 -0.1120  0.1984
 4035TIP3    H133664   0.862   4.773   0.996  1.1797 -0.6371 -0.3490
 4035TIP3    H233665   0.799   4.908   0.970 -0.3623 -1.0589  1.0118
 4036TIP3   OH233666   5.722   0.873   0.685  0.1736 -0.4620  0.1575
 4036TIP3    H133667   5.771   0.943   0.641 -1.1690  1.2330  1.2136
 4036TIP3    H233668   5.783   0.837   0.749 -0.0782  2.1612  2.0294
 4037TIP3   OH233669   5.025   0.079   1.016  0.1485  0.0528 -0.2077
 4037TIP3    H133670   5.089   0.119   1.076  0.6471  0.8047 -1.2158
 4037TIP3    H233671   4.948   0.066   1.071 -0.2388  2.9063  0.1044
 4038TIP3   OH233672   4.375   5.374   1.435  0.0508 -0.1831  0.1954
 4038TIP3    H133673   4.345   5.452   1.389 -1.6146 -0.1180  1.2812
 4038TIP3    H233674   4.354   5.301   1.376 -0.4115  0.0338  0.0845
 4039TIP3   OH233675   2.514   6.754   8.188  0.3053  0.1909 -0.3215
 4039TIP3    H133676   2.548   6.842   8.208  1.9424 -0.0060 -1.9212
 4039TIP3    H233677   2.430   6.770   8.145 -1.0964  0.7618  2.3737
 4040TIP3   OH233678   2.950   6.276   0.280 -0.4040  0.0168  0.0132
 4040TIP3    H133679   3.039   6.306   0.300 -0.9697  1.4354  0.5638
 4040TIP3    H233680   2.895   6.319   0.346 -1.2148 -3.0877  1.5610
 4041TIP3   OH233681   0.052   3.399   0.410 -0.1019  0.3348  0.2895
 4041TIP3    H133682   0.122   3.335   0.411  0.4637  0.7680 -2.5311
 4041TIP3    H233683  -0.019   3.357   0.361 -1.8095  0.0122  2.8381
 4042TIP3   OH233684   5.545   1.682   8.534 -0.6773  0.5240 -0.0494
 4042TIP3    H133685   5.566   1.770   8.502  3.0879 -0.2670 -0.2107
 4042TIP3    H233686   5.586   1.623   8.471 -0.6819 -1.2897  1.5626
 4043TIP3   OH233687   3.074   6.232   7.095  0.5730  0.1599 -0.2182
 4043TIP3    H133688   3.012   6.232   7.168  1.7328  0.8717  0.7967
 4043TIP3    H233689   3.073   6.141   7.064  0.3729 -0.2584  0.9543
 4044TIP3   OH233690   5.946   3.834   8.080  0.1290  0.4386  0.0003
 4044TIP3    H133691   5.890   3.876   8.146  0.1307 -1.0967  1.0491
 4044TIP3    H233692   5.911   3.864   7.996 -1.1461  0.8954  0.6596
 4045TIP3   OH233693   6.756   0.329   1.232  0.1799 -0.0158  0.5097
 4045TIP3    H133694   6.842   0.357   1.202 -0.2895  0.2196 -0.6561
 4045TIP3    H233695   6.749   0.365   1.321  1.0160  0.5213  0.3679
 4046TIP3   OH233696   0.919   1.278   6.779 -0.2460 -0.3302  0.0800
 4046TIP3    H133697   0.981   1.232   6.836 -1.9743 -0.8213  1.6834
 4046TIP3    H233698   0.955   1.366   6.771  0.2596 -0.3481  1.6595
 4047TIP3   OH233699   3.704   3.648   7.418  0.2781 -0.3440 -0.1206
 4047TIP3    H133700   3.620   3.623   7.380 -0.0880  0.3127  0.2364
 4047TIP3    H233701   3.766   3.583   7.385  0.1629  0.6810 -2.5721
 4048TIP3   OH233702   5.940   3.801   7.380 -0.0694  0.1641  0.5688
 4048TIP3    H133703   5.994   3.830   7.306  1.0325  0.5872  1.5050
 4048TIP3    H233704   5.897   3.880   7.410 -1.1455 -0.1513 -0.0930
 4049TIP3   OH233705   2.715   1.859   0.531 -0.2153  0.4595 -0.8004
 4049TIP3    H133706   2.751   1.856   0.619 -1.4650  2.2315 -0.1735
 4049TIP3    H233707   2.777   1.915   0.482  1.1052 -1.4433 -1.4281
 4050TIP3   OH233708   3.718   1.369   0.341  0.2815 -0.1633 -0.1723
 4050TIP3    H133709   3.761   1.454   0.350  3.5085 -1.8375  2.7357
 4050TIP3    H233710   3.769   1.324   0.274  1.4539 -1.1862  1.3245
 4051TIP3   OH233711   1.436   2.744   0.693 -0.1666 -0.3305 -0.3364
 4051TIP3    H133712   1.389   2.699   0.763  0.5557 -1.0718 -0.3231
 4051TIP3    H233713   1.392   2.717   0.613  0.2051 -0.9930 -0.3209
 4052TIP3   OH233714   6.282   6.328   1.915  0.2952 -0.5694 -0.0344
 4052TIP3    H133715   6.274   6.315   2.010 -0.7216 -1.8892 -0.2629
 4052TIP3    H233716   6.194   6.356   1.888  1.0258  1.5907 -0.3807
 4053TIP3   OH233717   4.679   3.702   7.341 -0.4148 -0.4316 -0.3956
 4053TIP3    H133718   4.657   3.794   7.332  0.2995 -0.1020  1.0099
 4053TIP3    H233719   4.751   3.689   7.279  0.5027  0.3498  0.4634
 4054TIP3   OH233720   5.720   4.646   6.118 -0.9139  0.4840  0.7358
 4054TIP3    H133721   5.747   4.563   6.081 -0.9190  0.7422  0.1501
 4054TIP3    H233722   5.771   4.654   6.199 -0.7477  0.0253  0.6775
 4055TIP3   OH233723   0.149   0.550   6.760 -0.5501  0.2052 -0.4758
 4055TIP3    H133724   0.068   0.597   6.742 -1.9659 -0.6538  2.8533
 4055TIP3    H233725   0.121   0.461   6.782  0.9356  0.4790  3.1168
 4056TIP3   OH233726   1.802   4.461   8.105  0.4738 -0.5506  0.3513
 4056TIP3    H133727   1.782   4.500   8.189 -0.5068  0.6487 -0.4059
 4056TIP3    H233728   1.783   4.368   8.117 -1.1537 -0.1699  1.0360
 4057TIP3   OH233729   4.977   3.529   8.261  0.2017  0.1492 -0.0729
 4057TIP3    H133730   5.001   3.470   8.189  1.6167  1.2380 -0.5401
 4057TIP3    H233731   5.042   3.509   8.329  2.0183  2.4646 -0.9826
 4058TIP3   OH233732   6.091   5.190   6.751 -0.7213  0.1459  0.3430
 4058TIP3    H133733   6.185   5.205   6.756 -0.4263 -0.4322 -2.2100
 4058TIP3    H233734   6.052   5.262   6.801  1.0436  0.6127  1.0987
 4059TIP3   OH233735   5.023   1.375   0.032 -0.3145 -0.1207  0.6266
 4059TIP3    H133736   5.101   1.430   0.028 -0.8782  0.7020  0.6977
 4059TIP3    H233737   4.952   1.431   0.001 -0.4881 -1.6145 -1.9943
 4060TIP3   OH233738   2.711   1.357   2.540 -0.1035  0.0172  0.1868
 4060TIP3    H133739   2.789   1.402   2.506 -0.3956  0.9754  0.7362
 4060TIP3    H233740   2.726   1.265   2.520  1.9920 -0.0727  1.8280
 4061TIP3   OH233741   3.429   0.017   1.386  0.4968  0.0917 -0.0807
 4061TIP3    H133742   3.444   0.058   1.300 -0.6922  1.3119  0.2633
 4061TIP3    H233743   3.335   0.001   1.389  0.6806 -0.9830  0.5700
 4062TIP3   OH233744   2.314   3.657   1.889  0.7286  0.0572  0.4775
 4062TIP3    H133745   2.299   3.708   1.969  0.1454  0.0893  0.3550
 4062TIP3    H233746   2.338   3.722   1.823 -2.3207  0.5586 -0.3028
 4063TIP3   OH233747   0.593   1.097   0.556  0.4027  0.3156  0.2563
 4063TIP3    H133748   0.671   1.104   0.611  1.2826  2.5961 -1.1231
 4063TIP3    H233749   0.522   1.074   0.616  1.7338  0.4403  1.9335
 4064TIP3   OH233750   5.265   2.047   7.938 -0.0054 -0.0350  1.4199
 4064TIP3    H133751   5.259   2.141   7.955  0.2014  0.5229 -1.2110
 4064TIP3    H233752   5.194   2.028   7.878  2.0928 -0.7561 -1.0031
 4065TIP3   OH233753   2.139   5.821   7.491  0.1676  0.8181  0.6723
 4065TIP3    H133754   2.185   5.774   7.421 -0.1685  1.3088  0.1062
 4065TIP3    H233755   2.206   5.873   7.533  0.6789 -0.6475  1.7455
 4066TIP3   OH233756   4.351   4.475   8.289  0.2509 -0.2699  0.6102
 4066TIP3    H133757   4.330   4.485   8.382 -0.5387 -2.4120  0.7005
 4066TIP3    H233758   4.283   4.526   8.244 -1.3353 -1.8542  1.1326
 4067TIP3   OH233759   6.644   4.747   8.177 -0.5240 -0.3142 -0.5398
 4067TIP3    H133760   6.580   4.816   8.167 -1.6494 -0.4953  3.4946
 4067TIP3    H233761   6.595   4.666   8.164 -0.7323 -0.4160  0.7644
 4068TIP3   OH233762   6.535   6.558   1.990 -0.5271 -0.0449  0.0635
 4068TIP3    H133763   6.452   6.583   2.030 -0.3696 -1.2671  1.2035
 4068TIP3    H233764   6.602   6.600   2.044 -0.3034 -1.9484  1.3515
 4069TIP3   OH233765   2.500   0.746   8.766  0.2312 -0.2203  0.2264
 4069TIP3    H133766   2.405   0.750   8.751  0.1525  0.5972  0.8683
 4069TIP3    H233767   2.521   0.652   8.761 -0.7553 -0.4960  0.8731
 4070TIP3   OH233768   5.975   4.217   0.088  0.0463 -0.1147 -0.1999
 4070TIP3    H133769   5.916   4.149   0.122  1.4670 -1.3105 -0.0626
 4070TIP3    H233770   5.987   4.193  -0.004 -0.7555  0.9379 -0.6037
 4071TIP3   OH233771   2.472   6.276   6.932  0.4352  0.2624 -0.0605
 4071TIP3    H133772   2.550   6.231   6.966 -0.2711 -2.4738 -1.6964
 4071TIP3    H233773   2.488   6.284   6.838 -0.8671  0.5131 -0.2819
 4072TIP3   OH233774   3.627   1.313   1.506  0.0131 -0.2147 -0.2592
 4072TIP3    H133775   3.699   1.347   1.453  0.5827  0.0609  0.6838
 4072TIP3    H233776   3.597   1.388   1.557  0.2817 -0.7562  0.7105
 4073TIP3   OH233777   6.585   2.933   0.014 -0.0307  0.0854 -0.1663
 4073TIP3    H133778   6.596   3.028   0.015 -0.2317  0.1332 -1.4154
 4073TIP3    H233779   6.556   2.913  -0.075  0.4803 -1.1954 -0.0635
 4074TIP3   OH233780   0.723   4.758   7.453  0.7427  0.2513 -0.0541
 4074TIP3    H133781   0.755   4.832   7.505  1.9259 -0.1930 -0.1165
 4074TIP3    H233782   0.802   4.718   7.418  0.2899 -2.1401  1.4469
 4075TIP3   OH233783   2.967   2.537   7.099  0.1306 -0.0864  0.6733
 4075TIP3    H133784   2.966   2.465   7.036  0.1571  0.4528  0.0466
 4075TIP3    H233785   2.874   2.551   7.120  0.0516  0.2925  0.0958
 4076TIP3   OH233786   3.550   5.406   0.812 -0.9157  0.3570 -0.2851
 4076TIP3    H133787   3.483   5.444   0.869 -1.8584  0.1772 -1.2469
 4076TIP3    H233788   3.613   5.477   0.799 -0.5991  0.3643  1.0654
 4077TIP3   OH233789   2.066   3.930   7.135  0.3624  0.1376  0.4551
 4077TIP3    H133790   2.085   4.022   7.153 -0.1900  0.3711 -0.1381
 4077TIP3    H233791   2.103   3.915   7.048 -2.1655  0.6247 -0.7737
 4078TIP3   OH233792   2.988   0.861   1.968  0.0345  0.6221  0.6362
 4078TIP3    H133793   3.051   0.829   2.033  0.2591  0.6957  0.4570
 4078TIP3    H233794   2.902   0.841   2.006  0.1687 -0.6963  0.2868
 4079TIP3   OH233795   6.374   5.091   1.186 -0.4287 -0.3770 -0.0067
 4079TIP3    H133796   6.319   5.163   1.218 -0.1242  0.2501 -0.8593
 4079TIP3    H233797   6.324   5.012   1.206 -0.8623  0.0856  0.7597
 4080TIP3   OH233798   4.756   2.559   2.241 -0.4175 -0.1887 -0.2270
 4080TIP3    H133799   4.759   2.464   2.234 -2.0525 -0.1655 -2.0200
 4080TIP3    H233800   4.665   2.580   2.262 -0.6190  1.0362 -2.0638
 4081TIP3   OH233801   0.354   1.736   0.469 -0.1096  0.2223 -0.3161
 4081TIP3    H133802   0.401   1.792   0.407  1.0274 -1.2376 -0.8398
 4081TIP3    H233803   0.421   1.677   0.504 -0.9566  0.2592  1.4656
 4082TIP3   OH233804   4.382   4.975   0.988  0.1442  0.0123 -0.2155
 4082TIP3    H133805   4.333   4.992   1.069  0.1074  1.3323 -0.4861
 4082TIP3    H233806   4.339   5.030   0.923  0.2790 -0.9138 -1.1036
 4083TIP3   OH233807   4.295   1.976   6.820 -0.0213  0.1051 -0.3437
 4083TIP3    H133808   4.283   1.896   6.768 -0.9433  0.3141 -0.4682
 4083TIP3    H233809   4.207   2.011   6.831 -0.3166 -1.4845  3.9062
 4084TIP3   OH233810   5.573   2.468   8.425 -0.3581 -0.7620  0.7697
 4084TIP3    H133811   5.644   2.520   8.388  0.0008 -0.8533  1.3242
 4084TIP3    H233812   5.524   2.437   8.349  0.9127 -1.7254  0.3128
 4085TIP3   OH233813   3.159   3.805   0.128 -0.6878 -0.2450 -0.4655
 4085TIP3    H133814   3.149   3.732   0.066  1.8132  0.2846 -1.6267
 4085TIP3    H233815   3.168   3.882   0.072  1.6071  0.2612  0.5001
 4086TIP3   OH233816   2.476   1.351   2.430 -0.1040  0.3642 -0.1795
 4086TIP3    H133817   2.552   1.336   2.486 -0.5847  0.1306  0.4211
 4086TIP3    H233818   2.462   1.446   2.434 -0.3759  0.3078  0.4332
 4087TIP3   OH233819   6.013   3.131   0.210  0.0188 -0.1071  0.0435
 4087TIP3    H133820   6.092   3.097   0.168  0.2784  2.0661 -1.4021
 4087TIP3    H233821   6.043   3.173   0.290  0.4401  0.9975 -0.6617
 4088TIP3   OH233822   3.817   1.613   0.233  0.4966  0.2464 -0.2837
 4088TIP3    H133823   3.871   1.651   0.302 -1.4337  0.1749  1.3615
 4088TIP3    H233824   3.879   1.586   0.166  2.5741 -0.5947  1.8427
 4089TIP3   OH233825   1.008   5.987   8.019  0.1913 -0.4333 -0.2252
 4089TIP3    H133826   1.096   6.026   8.017  0.2026 -0.4497 -0.0356
 4089TIP3    H233827   1.014   5.919   8.086  0.1286 -0.6567 -0.4449
 4090TIP3   OH233828   5.829   0.306   8.163 -0.1575  0.4438 -0.4795
 4090TIP3    H133829   5.857   0.387   8.120  0.3715  0.4712 -0.1057
 4090TIP3    H233830   5.762   0.333   8.226  0.1390  0.6181 -0.2370
 4091TIP3   OH233831   3.712   5.789   7.502  0.0741  0.2293  0.1760
 4091TIP3    H133832   3.714   5.857   7.569 -1.3174 -0.0131  0.5162
 4091TIP3    H233833   3.652   5.823   7.435 -1.8373 -1.2073  1.0538
 4092TIP3   OH233834   6.664   4.029   0.688  0.0704  0.4068  0.3039
 4092TIP3    H133835   6.733   4.090   0.713  1.3603 -0.6587 -0.5501
 4092TIP3    H233836   6.662   3.964   0.759 -0.2104  0.5537  0.4324
 4093TIP3   OH233837   6.544   3.573   0.153  0.1366  0.1647  0.3165
 4093TIP3    H133838   6.591   3.505   0.202 -1.7219 -0.2681  1.5865
 4093TIP3    H233839   6.468   3.527   0.116  0.2931  0.9977 -1.0984
 4094TIP3   OH233840   4.284   1.331   2.685  0.4775 -0.1447  0.1055
 4094TIP3    H133841   4.321   1.411   2.648  0.6943 -0.1751  0.2544
 4094TIP3    H233842   4.192   1.353   2.702  0.1271 -0.4217 -1.3001
 4095TIP3   OH233843   3.081   3.829   7.111 -0.5590 -0.4808  0.2548
 4095TIP3    H133844   3.134   3.906   7.133  0.5257 -1.1693  0.1601
 4095TIP3    H233845   2.997   3.845   7.154 -0.8063  1.3258 -0.7786
 4096TIP3   OH233846   4.167   5.428   1.959  0.1438 -0.2678 -0.4580
 4096TIP3    H133847   4.123   5.350   1.993  2.4830 -1.6856 -0.4199
 4096TIP3    H233848   4.257   5.399   1.944  0.3274  1.5161 -3.6243
 4097TIP3   OH233849   1.196   1.667   1.564  0.0251 -0.5682  0.6640
 4097TIP3    H133850   1.179   1.633   1.652  0.5041  0.0499  1.0038
 4097TIP3    H233851   1.193   1.762   1.574 -2.1215 -0.4780 -0.4303
 4098TIP3   OH233852   0.894   4.973   7.481  0.6137 -0.2601 -0.3000
 4098TIP3    H133853   0.978   4.996   7.521  1.3512  0.4980 -2.1532
 4098TIP3    H233854   0.917   4.944   7.392 -1.1348  0.9147 -1.2006
 4099TIP3   OH233855   4.657   5.411   7.391  0.0544  0.1287  0.6211
 4099TIP3    H133856   4.622   5.500   7.388  0.0673  0.1059 -1.1422
 4099TIP3    H233857   4.746   5.419   7.357  0.0956 -0.5458  0.5602
 4100TIP3   OH233858   6.677   3.544   8.353 -0.2001 -0.3158 -0.0143
 4100TIP3    H133859   6.606   3.520   8.412 -0.5339 -1.7384 -0.9185
 4100TIP3    H233860   6.706   3.461   8.315  0.2986  0.4826 -1.4977
 4101TIP3   OH233861   1.450   0.868   0.857  0.3520 -0.1101  0.4014
 4101TIP3    H133862   1.430   0.949   0.903 -1.1801  0.0108 -0.3844
 4101TIP3    H233863   1.388   0.866   0.784  1.4149 -1.2258 -0.5240
 4102TIP3   OH233864   2.765   0.556   0.154 -0.0810  0.3603 -0.0031
 4102TIP3    H133865   2.760   0.651   0.168  0.8985  0.4611 -0.2916
 4102TIP3    H233866   2.732   0.519   0.236  1.0660  0.9541  0.7565
 4103TIP3   OH233867   2.052   4.119   8.674 -0.0382  0.1569 -0.4713
 4103TIP3    H133868   1.968   4.138   8.633  0.9284  1.5722 -1.9018
 4103TIP3    H233869   2.042   4.151   8.764 -1.7444 -1.8070  0.1335
 4104TIP3   OH233870   3.359   0.737   1.077 -0.5058 -0.3811 -0.5444
 4104TIP3    H133871   3.283   0.680   1.077 -1.1776  0.4601 -2.0301
 4104TIP3    H233872   3.434   0.677   1.077 -1.1880 -1.2640 -1.6057
 4105TIP3   OH233873   0.380   5.785   8.055 -0.1980 -0.6618  0.1938
 4105TIP3    H133874   0.447   5.719   8.037 -0.9500 -1.6261  0.8351
 4105TIP3    H233875   0.398   5.813   8.145 -0.6170 -0.8905  0.3522
 4106TIP3   OH233876   0.363   0.613   0.092  0.0555 -0.0055 -0.1710
 4106TIP3    H133877   0.445   0.662   0.101 -0.3563  0.8266 -0.8009
 4106TIP3    H233878   0.369   0.543   0.158  1.3221 -0.0412 -0.3099
 4107TIP3   OH233879   5.916   4.555   0.136  0.2920 -0.4416 -0.3038
 4107TIP3    H133880   5.924   4.516   0.223  1.3767 -0.8018 -0.5459
 4107TIP3    H233881   5.825   4.582   0.130  0.6013  1.2612  1.6292
 4108TIP3   OH233882   4.793   2.815   8.172 -0.7322 -0.4134  0.0668
 4108TIP3    H133883   4.835   2.846   8.252  1.4877 -1.5100 -0.6089
 4108TIP3    H233884   4.708   2.782   8.201 -0.1873 -0.3327  1.8877
 4109TIP3   OH233885   2.211   3.940   1.502  0.2567 -0.0400 -0.0145
 4109TIP3    H133886   2.171   3.987   1.429  1.3613  1.1988  0.1397
 4109TIP3    H233887   2.180   3.850   1.492 -0.2501  0.2658 -1.5467
 4110TIP3   OH233888   4.007   2.169   6.543  0.8570 -0.1582  0.9345
 4110TIP3    H133889   3.918   2.173   6.507  0.1916  1.0323  2.5758
 4110TIP3    H233890   4.039   2.082   6.520 -1.7336 -1.6457  2.5485
 4111TIP3   OH233891   2.582   2.485   0.165 -0.4993 -0.0211  0.3216
 4111TIP3    H133892   2.506   2.526   0.208 -0.7941  0.1811 -0.3790
 4111TIP3    H233893   2.657   2.536   0.196 -0.8420  0.9212 -0.3539
 4112TIP3   OH233894   2.278   4.628   7.385 -0.3620  1.0021 -0.0216
 4112TIP3    H133895   2.223   4.579   7.324  0.7162 -0.0063 -0.2112
 4112TIP3    H233896   2.217   4.657   7.454 -0.8689 -1.6501  0.7676
 4113TIP3   OH233897   0.505   0.506   8.495 -0.4694 -0.2271 -0.0345
 4113TIP3    H133898   0.454   0.463   8.426 -0.5118 -2.1806  1.1341
 4113TIP3    H233899   0.595   0.479   8.478 -0.5622 -1.2869  1.0118
 4114TIP3   OH233900   1.139   0.656   0.079 -0.2413  0.1632 -0.5693
 4114TIP3    H133901   1.089   0.713   0.021 -0.8130 -0.3088 -0.5432
 4114TIP3    H233902   1.108   0.568   0.059 -0.0891 -0.0470  0.1047
 4115TIP3   OH233903   5.892   6.455   0.206  0.0918 -0.5351  0.0226
 4115TIP3    H133904   5.827   6.427   0.140  0.5761  1.6617 -1.4912
 4115TIP3    H233905   5.896   6.382   0.268 -2.6374 -1.4280 -0.7060
 4116TIP3   OH233906   5.113   3.958   6.686  0.5805  0.3985  0.0986
 4116TIP3    H133907   5.190   4.006   6.655 -0.7300  1.5668 -1.5575
 4116TIP3    H233908   5.117   3.874   6.641  1.6960 -0.1953  1.2582
 4117TIP3   OH233909   4.626   0.238   0.478 -0.4126 -0.0060  0.0197
 4117TIP3    H133910   4.618   0.234   0.383 -0.4981  0.2577  0.0152
 4117TIP3    H233911   4.553   0.184   0.510  0.6514 -1.5727 -0.0766
 4118TIP3   OH233912   2.336   6.028   7.525  0.4662 -0.2382 -0.8483
 4118TIP3    H133913   2.293   6.074   7.596  0.9405 -0.7065 -0.2471
 4118TIP3    H233914   2.429   6.048   7.536  0.6915 -1.3865 -0.5275
 4119TIP3   OH233915   6.689   4.509   6.319 -0.1632 -0.1432 -0.2753
 4119TIP3    H133916   6.607   4.460   6.326  0.6056 -1.3388  0.8919
 4119TIP3    H233917   6.666   4.598   6.345 -0.9610 -0.6376  0.8045
 4120TIP3   OH233918   3.905   6.654   2.077  0.3128 -0.1217  0.0138
 4120TIP3    H133919   3.862   6.680   1.996  2.6206  0.1977 -1.1853
 4120TIP3    H233920   3.861   6.573   2.103 -0.7152 -0.0226 -1.3111
 4121TIP3   OH233921   5.073   5.270   7.077  0.5267 -0.0545  0.4739
 4121TIP3    H133922   5.146   5.330   7.091 -0.4294  1.4256 -0.5100
 4121TIP3    H233923   5.031   5.302   6.997 -0.6076 -1.4773  0.4573
 4122TIP3   OH233924   5.696   2.658   7.614  0.2916 -0.1570  0.5288
 4122TIP3    H133925   5.720   2.568   7.596 -0.3685  0.1063 -2.0951
 4122TIP3    H233926   5.776   2.708   7.597  0.3237 -0.1250  0.7700
 4123TIP3   OH233927   5.403   0.169   7.799 -0.6213 -0.5852  0.3219
 4123TIP3    H133928   5.328   0.211   7.841  0.6774  2.0241  0.1951
 4123TIP3    H233929   5.442   0.237   7.744  1.9578 -1.7765  0.5239
 4124TIP3   OH233930   2.811   1.996   7.286 -0.4587  0.3510 -0.0715
 4124TIP3    H133931   2.768   1.913   7.305  1.0806 -0.7880 -1.2558
 4124TIP3    H233932   2.819   2.039   7.371 -0.0860 -1.3340  0.7916
 4125TIP3   OH233933   2.531   2.161   7.795  0.5464 -0.5119 -0.2074
 4125TIP3    H133934   2.487   2.175   7.879  1.5420  2.9449 -0.1182
 4125TIP3    H233935   2.613   2.118   7.817  0.8715  0.5116  0.6522
 4126TIP3   OH233936   2.207   4.468   1.342 -0.2880  0.2196  0.3250
 4126TIP3    H133937   2.251   4.397   1.295  0.6805  1.0793 -0.0972
 4126TIP3    H233938   2.130   4.488   1.289 -0.0218  0.1659 -0.0795
 4127TIP3   OH233939   5.028   3.171   8.664  0.7090 -0.2887  0.1411
 4127TIP3    H133940   5.009   3.262   8.686  2.5632  0.4645 -1.0925
 4127TIP3    H233941   4.942   3.131   8.649 -0.1112  2.3667 -3.3548
 4128TIP3   OH233942   5.099   6.418   7.207 -0.2838 -0.3561  0.3028
 4128TIP3    H133943   5.160   6.346   7.218 -0.9121 -0.8267  0.7839
 4128TIP3    H233944   5.057   6.402   7.123 -0.0321 -0.2471  0.1554
 4129TIP3   OH233945   1.307   3.421   7.962 -0.5824  0.6318  0.0859
 4129TIP3    H133946   1.381   3.385   7.913  0.2311  0.1804  1.5995
 4129TIP3    H233947   1.234   3.362   7.942  0.4965 -1.4151  1.7984
 4130TIP3   OH233948   3.780   3.091   0.620 -0.4277 -0.6382 -0.9719
 4130TIP3    H133949   3.711   3.129   0.566 -0.2384  3.1511  1.0935
 4130TIP3    H233950   3.861   3.132   0.587 -0.1240  0.4680  1.0055
 4131TIP3   OH233951   5.112   6.522   0.821  0.4595  0.2237  0.2268
 4131TIP3    H133952   5.206   6.537   0.810  0.7106 -1.1671  0.2690
 4131TIP3    H233953   5.072   6.609   0.814  1.8432  0.9728  1.2199
 4132TIP3   OH233954   3.221   3.766   6.290 -0.1775  0.2151  0.1728
 4132TIP3    H133955   3.148   3.743   6.233  0.6562  2.6745 -2.1131
 4132TIP3    H233956   3.233   3.860   6.278  4.1680 -0.2128 -0.6859
 4133TIP3   OH233957   4.715   4.329   8.395  0.2421  0.1682  0.4984
 4133TIP3    H133958   4.703   4.254   8.336  0.4472 -0.3537  1.1055
 4133TIP3    H233959   4.655   4.312   8.467 -1.0912  1.5423 -0.2369
 4134TIP3   OH233960   1.525   6.349   8.607  0.4173 -0.0198  0.1098
 4134TIP3    H133961   1.560   6.260   8.607 -1.4565 -0.8203  0.9634
 4134TIP3    H233962   1.446   6.344   8.662 -0.6464  1.7867 -1.1242
 4135TIP3   OH233963   1.094   6.105   8.767  0.0955 -0.1582 -0.1024
 4135TIP3    H133964   1.133   6.077   8.683  1.2476  0.3843  0.2327
 4135TIP3    H233965   1.000   6.089   8.756  0.0141  1.2758 -2.0496
 4136TIP3   OH233966   4.463   1.974   0.376 -0.3914 -0.3916 -0.1322
 4136TIP3    H133967   4.418   2.044   0.423 -1.1569 -0.9434 -0.0286
 4136TIP3    H233968   4.451   1.995   0.284  1.8335  1.1602 -0.1568
 4137TIP3   OH233969   1.568   2.279   8.584  0.2642 -0.5811  0.2406
 4137TIP3    H133970   1.486   2.318   8.614  0.7867 -0.3214  1.3701
 4137TIP3    H233971   1.618   2.262   8.664  1.1730 -1.0530 -0.4079
 4138TIP3   OH233972   1.495   5.875   0.471 -0.2583 -0.1561  0.0738
 4138TIP3    H133973   1.405   5.862   0.440  0.5254  0.6379 -2.8841
 4138TIP3    H233974   1.543   5.800   0.436  0.7551  0.9436 -0.9836
 4139TIP3   OH233975   0.200   6.044   8.218  0.0737 -0.2732  0.3804
 4139TIP3    H133976   0.164   6.130   8.198  3.4834  0.3386 -5.2828
 4139TIP3    H233977   0.294   6.059   8.232  0.4903 -2.9286  1.0654
 4140TIP3   OH233978   1.446   6.006   7.638  0.6765  0.2630 -0.2892
 4140TIP3    H133979   1.377   5.942   7.657 -0.2640  1.2501 -0.2961
 4140TIP3    H233980   1.502   5.962   7.574  0.4827 -0.8324  0.2592
 4141TIP3   OH233981   3.769   5.424   0.296  0.3050 -0.0010  0.2123
 4141TIP3    H133982   3.769   5.447   0.203 -0.6710  0.0151  0.2091
 4141TIP3    H233983   3.861   5.425   0.320  0.6221 -0.4517 -0.8697
 4142TIP3   OH233984   5.229   2.966   8.796 -0.0782  0.1406 -0.1317
 4142TIP3    H133985   5.301   2.946   8.737 -1.4309  0.9787 -2.1962
 4142TIP3    H233986   5.168   3.017   8.742 -1.5025  0.7597  1.9555
 4143TIP3   OH233987   5.950   2.707   1.369 -0.2218  0.2582  0.4619
 4143TIP3    H133988   5.919   2.735   1.456 -1.7247  0.7957 -0.2103
 4143TIP3    H233989   5.877   2.658   1.332  0.4160  0.0024 -0.4919
 4144TIP3   OH233990   1.722   0.109   1.531 -0.7488 -0.2790 -0.1485
 4144TIP3    H133991   1.713   0.124   1.625 -0.6506 -2.2248  0.2058
 4144TIP3    H233992   1.801   0.158   1.507 -0.5683 -0.0490  0.8529
 4145TIP3   OH233993   6.089   4.462   1.133  0.3007  0.1768  0.2839
 4145TIP3    H133994   6.012   4.434   1.183 -1.2583  2.2818 -0.7715
 4145TIP3    H233995   6.101   4.393   1.068 -1.0655  0.0639  0.1191
 4146TIP3   OH233996   1.278   2.402   1.541  0.5988  0.5347 -0.3000
 4146TIP3    H133997   1.296   2.312   1.566  1.1272  0.0949 -2.0799
 4146TIP3    H233998   1.344   2.422   1.474  0.7496  2.3845  0.3371
 4147TIP3   OH233999   2.688   6.220   1.109 -0.2514  0.3807 -0.1103
 4147TIP3    H134000   2.699   6.150   1.174 -0.5752 -0.3551 -0.8228
 4147TIP3    H234001   2.719   6.299   1.153 -0.3482 -0.1224  0.8936
 4148TIP3   OH234002   0.328   3.118   1.371  0.3451  0.0220  0.2059
 4148TIP3    H134003   0.240   3.154   1.367  0.8170  1.1614 -0.4049
 4148TIP3    H234004   0.318   3.034   1.417 -0.7455  1.0475  1.9468
 4149TIP3   OH234005   4.460   2.484   6.977  0.0138 -0.3684 -0.1645
 4149TIP3    H134006   4.419   2.487   6.890 -0.2393  0.6273 -0.0231
 4149TIP3    H234007   4.550   2.457   6.960  0.5985  1.8839 -1.0063
 4150TIP3   OH234008   5.246   2.093   8.547  0.6378 -0.6006 -0.3383
 4150TIP3    H134009   5.194   2.076   8.469  0.2670 -0.2709 -0.1699
 4150TIP3    H234010   5.294   2.012   8.562  0.9489 -0.5615 -1.0799
 4151TIP3   OH234011   5.456   3.473   7.910  0.3654  0.4186 -0.2622
 4151TIP3    H134012   5.534   3.467   7.855  0.0976 -1.0060 -0.5166
 4151TIP3    H234013   5.464   3.401   7.972 -1.3224 -0.5310 -1.0819
 4152TIP3   OH234014   0.956   1.239   1.359  0.5558 -0.1773 -0.1617
 4152TIP3    H134015   0.989   1.262   1.445 -0.4221 -2.0110  0.7844
 4152TIP3    H234016   0.887   1.302   1.341 -1.3823 -1.5772  1.8821
 4153TIP3   OH234017   0.725   0.907   1.532  0.1396  0.7750  0.3385
 4153TIP3    H134018   0.709   0.894   1.626 -0.9947  1.6549  0.2868
 4153TIP3    H234019   0.693   0.995   1.514 -0.0467  0.4600 -0.9615
 4154TIP3   OH234020   5.001   2.155   7.968 -0.2138 -0.0886 -0.1929
 4154TIP3    H134021   5.077   2.213   7.977 -0.1156 -0.3465  0.8461
 4154TIP3    H234022   4.949   2.172   8.046 -1.3916  0.2889 -1.0406
 4155TIP3   OH234023   5.294   3.998   8.584 -0.2530  0.1206 -0.2671
 4155TIP3    H134024   5.261   3.969   8.500 -1.2551  2.3893 -0.7557
 4155TIP3    H234025   5.225   3.974   8.647 -0.5784  0.4546 -0.4901
 4156TIP3   OH234026   6.267   6.146   7.936 -0.5243 -0.1045 -1.2438
 4156TIP3    H134027   6.316   6.156   7.854  0.6725 -0.6852 -0.6210
 4156TIP3    H234028   6.335   6.144   8.004 -1.4728 -0.1701 -0.2857
 4157TIP3   OH234029   6.563   4.720   1.932 -0.3009  0.2137 -0.3979
 4157TIP3    H134030   6.472   4.737   1.956 -1.1028 -2.0865 -1.5056
 4157TIP3    H234031   6.565   4.730   1.837 -0.4853 -3.6572 -0.9616
 4158TIP3   OH234032   1.456   2.266   1.820 -0.1997 -0.3841 -0.5726
 4158TIP3    H134033   1.435   2.232   1.907  0.8634 -0.8842 -0.4998
 4158TIP3    H234034   1.404   2.347   1.813  1.3873  0.9076  1.4327
 4159TIP3   OH234035   1.842   6.128   7.192 -0.1627  0.3339 -0.1344
 4159TIP3    H134036   1.869   6.044   7.228  0.8415  0.8842  0.4421
 4159TIP3    H234037   1.851   6.118   7.097 -0.6184 -0.3849 -0.1070
 4160TIP3   OH234038   3.672   3.211   1.678 -0.0582  0.4609 -0.1870
 4160TIP3    H134039   3.669   3.292   1.729  1.1032  1.8834 -2.2449
 4160TIP3    H234040   3.726   3.152   1.730  1.0689  1.8454  0.2802
 4161TIP3   OH234041   4.936   0.321   7.471 -0.7175 -0.0040 -0.2219
 4161TIP3    H134042   4.866   0.277   7.519 -0.6874 -0.8198 -0.9034
 4161TIP3    H234043   4.976   0.252   7.418 -1.1657  0.9702 -1.9133
 4162TIP3   OH234044   1.875   1.609   6.802 -0.0349 -0.0816 -0.1460
 4162TIP3    H134045   1.815   1.538   6.826 -1.1968  0.3834 -1.5211
 4162TIP3    H234046   1.819   1.673   6.757  0.9565  1.7733  1.1616
 4163TIP3   OH234047   4.161   4.923   6.617 -0.1305 -0.3860 -0.6360
 4163TIP3    H134048   4.250   4.908   6.650 -0.9075 -2.0394  0.8810
 4163TIP3    H234049   4.132   5.002   6.663  0.3820 -0.0961 -0.7984
 4164TIP3   OH234050   4.447   2.215   7.110  0.3205 -0.6783  0.5168
 4164TIP3    H134051   4.361   2.249   7.082  1.4631  2.2842  0.1948
 4164TIP3    H234052   4.500   2.219   7.030  1.4582  0.1052  1.2979
 4165TIP3   OH234053   1.663   2.951   7.977  0.3411 -0.0274  0.0725
 4165TIP3    H134054   1.738   2.980   8.029  0.2476  0.1982  0.0822
 4165TIP3    H234055   1.685   2.976   7.887  0.6050 -0.6224 -0.0318
 4166TIP3   OH234056   5.491   0.182   1.132  0.2218 -0.2466 -0.0028
 4166TIP3    H134057   5.570   0.140   1.165 -0.8523 -1.8261  0.6532
 4166TIP3    H234058   5.523   0.262   1.089  2.3475 -1.6463 -1.2237
 4167TIP3   OH234059   0.050   2.985   8.521 -0.5832  0.1070 -0.1608
 4167TIP3    H134060   0.053   2.892   8.545  0.5049  0.2833  0.4983
 4167TIP3    H234061   0.008   3.027   8.596  0.1100  0.2919  0.1361
 4168TIP3   OH234062   0.927   2.736   0.565 -0.0044  0.2935  0.7579
 4168TIP3    H134063   0.925   2.652   0.520 -0.3550  0.2998  0.7634
 4168TIP3    H234064   0.901   2.800   0.499  0.0403  0.3717  0.8146
 4169TIP3   OH234065   0.388   5.708   8.355  0.1239  0.3526 -0.3701
 4169TIP3    H134066   0.303   5.746   8.379 -0.2234  0.2798 -1.4377
 4169TIP3    H234067   0.427   5.683   8.439 -0.9826  0.2258  0.1294
 4170TIP3   OH234068   5.144   0.272   0.108  0.0840  0.1522 -0.1104
 4170TIP3    H134069   5.091   0.291   0.186 -1.9484 -0.5095 -1.2429
 4170TIP3    H234070   5.085   0.292   0.034  1.1940 -1.2827 -1.4471
 4171TIP3   OH234071   5.715   2.364   7.228 -0.2110 -0.6882  0.3512
 4171TIP3    H134072   5.675   2.386   7.312 -0.1436  0.4003  0.1152
 4171TIP3    H234073   5.761   2.444   7.202  0.7965 -1.3987 -0.1394
 4172TIP3   OH234074   0.212   6.041   7.146  0.0680  0.0737 -0.3145
 4172TIP3    H134075   0.261   6.095   7.208 -0.2341  1.7341 -1.4611
 4172TIP3    H234076   0.278   5.994   7.096  0.3444 -0.3988  0.4749
 4173TIP3   OH234077   3.143   1.174   0.223 -0.2795 -0.7328 -0.2982
 4173TIP3    H134078   3.116   1.259   0.189 -2.7016 -0.3810  2.1344
 4173TIP3    H234079   3.237   1.182   0.239  0.0744  0.4903 -2.6360
 4174TIP3   OH234080   1.021   0.562   2.355 -0.2403 -0.2170  0.0948
 4174TIP3    H134081   1.112   0.533   2.351  0.3333  1.5244 -0.6557
 4174TIP3    H234082   1.026   0.655   2.379 -1.9640 -0.6608  2.6253
 4175TIP3   OH234083   4.886   5.754   8.597  0.0651  0.4174 -0.3496
 4175TIP3    H134084   4.941   5.730   8.672 -0.2114 -1.4987 -0.7089
 4175TIP3    H234085   4.798   5.724   8.621  0.1571 -1.2052 -1.8011
 4176TIP3   OH234086   4.911   4.016   6.816  0.1675  0.2726 -0.1889
 4176TIP3    H134087   4.989   4.006   6.762  0.1258  1.3915 -0.4940
 4176TIP3    H234088   4.936   3.984   6.902  0.3259 -1.2661 -0.7756
 4177TIP3   OH234089   1.370   4.979   2.575 -0.4227  0.1510  0.6438
 4177TIP3    H134090   1.336   4.993   2.487  3.0008  2.0748 -0.5112
 4177TIP3    H234091   1.317   5.037   2.630 -1.4376  0.2482 -0.3820
 4178TIP3   OH234092   0.257   3.017   2.076 -0.2956  0.4476 -0.1432
 4178TIP3    H134093   0.309   3.045   2.001 -0.5131 -0.0824 -0.5010
 4178TIP3    H234094   0.167   3.042   2.054 -0.1463  1.9163  0.7397
 4179TIP3   OH234095   3.154   4.546   8.342  0.5120 -0.1694 -0.0805
 4179TIP3    H134096   3.177   4.526   8.251  1.4198  2.4315 -0.4916
 4179TIP3    H234097   3.224   4.505   8.393  0.4197 -0.9892 -0.5781
 4180TIP3   OH234098   2.809   4.941   8.306  0.0167  0.4259 -0.3219
 4180TIP3    H134099   2.716   4.921   8.321  0.5932 -1.5677  1.0200
 4180TIP3    H234100   2.816   5.035   8.324 -1.3254  0.1774  2.0429
 4181TIP3   OH234101   4.965   3.354   1.370 -0.2637  0.3921 -0.0869
 4181TIP3    H134102   4.942   3.360   1.277 -0.2666  1.8334 -0.0279
 4181TIP3    H234103   4.884   3.379   1.416  0.5809  3.0162  0.1782
 4182TIP3   OH234104   3.258   6.618   8.658  0.5361 -0.1747 -0.6734
 4182TIP3    H134105   3.243   6.640   8.566 -1.2790  1.0843 -0.1319
 4182TIP3    H234106   3.186   6.558   8.680  0.9174 -0.4120 -0.0458
 4183TIP3   OH234107   3.121   5.600   0.768 -0.5402 -0.4396 -0.1534
 4183TIP3    H134108   3.088   5.528   0.822 -0.3758  0.1054  0.7026
 4183TIP3    H234109   3.179   5.558   0.705 -0.8861 -1.1188 -0.0336
 4184TIP3   OH234110   5.041   4.069   1.035 -0.3260  0.1704  0.5320
 4184TIP3    H134111   5.034   4.141   0.973 -0.4596  0.6690  1.1108
 4184TIP3    H234112   5.085   4.107   1.111  0.5913 -0.6451  0.4305
 4185TIP3   OH234113   5.618   0.899   7.811  0.1643 -0.2666 -0.3929
 4185TIP3    H134114   5.677   0.831   7.778  1.2817 -0.0367  1.0083
 4185TIP3    H234115   5.532   0.875   7.777  0.9462 -0.9338 -2.0463
 4186TIP3   OH234116   5.909   3.448   1.001  0.1259  0.5459 -0.3491
 4186TIP3    H134117   5.843   3.464   0.934  1.0673  0.7878 -1.2469
 4186TIP3    H234118   5.937   3.358   0.987  0.3368  0.6016 -0.2856
 4187TIP3   OH234119   4.912   4.409   1.781  0.2658 -0.4909 -0.2075
 4187TIP3    H134120   4.887   4.340   1.842 -0.2412 -0.6301 -0.5626
 4187TIP3    H234121   4.831   4.459   1.767  0.1458 -0.9943 -1.4420
 4188TIP3   OH234122   4.859   6.454   1.192 -0.1780  0.4029 -0.0677
 4188TIP3    H134123   4.861   6.471   1.098 -0.5997 -0.6578 -0.2817
 4188TIP3    H234124   4.870   6.360   1.200 -0.0597  0.4922  0.9577
 4189TIP3   OH234125   1.770   2.842   1.781  0.2714  0.2175  0.1045
 4189TIP3    H134126   1.837   2.884   1.836  1.0048  2.7619 -2.4637
 4189TIP3    H234127   1.693   2.897   1.791  0.2201  0.3365 -0.8482
 4190TIP3   OH234128   1.948   5.044   0.288 -0.1869 -0.4389  0.3663
 4190TIP3    H134129   1.924   5.062   0.197  1.4428 -0.1813 -0.0463
 4190TIP3    H234130   1.957   4.949   0.292 -1.6160 -0.5874  0.6454
 4191TIP3   OH234131   0.465   6.038   1.235  0.4344  0.5709 -0.1404
 4191TIP3    H134132   0.534   6.094   1.269 -0.5068  1.6312  0.0675
 4191TIP3    H234133   0.465   6.053   1.140  1.0804 -0.1241 -0.2578
 4192TIP3   OH234134   4.944   5.506   7.939  0.6984 -0.0723 -0.0606
 4192TIP3    H134135   4.978   5.568   8.004  1.7576 -1.1297  0.4143
 4192TIP3    H234136   4.850   5.526   7.934  0.6748  0.2874  1.4958
 4193TIP3   OH234137   2.090   6.213   7.590 -0.0464  0.0278 -0.1390
 4193TIP3    H134138   2.017   6.168   7.633 -1.2433  2.0447  0.0514
 4193TIP3    H234139   2.140   6.252   7.662 -0.0677  0.5120 -0.3827
 4194TIP3   OH234140   6.768   3.311   1.716  0.3523 -0.0357  0.0911
 4194TIP3    H134141   6.815   3.389   1.686  0.2231 -0.2724 -0.7535
 4194TIP3    H234142   6.705   3.344   1.779 -1.2448  0.9117 -1.8695
 4195TIP3   OH234143   0.045   3.654   1.890  0.1590 -1.0313  0.1814
 4195TIP3    H134144  -0.023   3.591   1.866 -0.6259 -0.4269  0.8046
 4195TIP3    H234145   0.123   3.622   1.845 -0.4720 -1.8681 -0.3493
 4196TIP3   OH234146   5.363   0.707   8.420 -0.2135  0.7845  0.1760
 4196TIP3    H134147   5.339   0.800   8.419 -0.4801  0.7223  0.6509
 4196TIP3    H234148   5.442   0.704   8.474 -1.2460  0.4948  1.7091
 4197TIP3   OH234149   1.918   2.816   1.535 -0.0539 -0.1748 -0.3280
 4197TIP3    H134150   1.893   2.818   1.628  0.5844  0.2384 -0.1590
 4197TIP3    H234151   2.012   2.801   1.536  0.3091  1.8017 -0.8403
 4198TIP3   OH234152   5.780   3.741   1.917 -0.1864 -0.0114 -0.1577
 4198TIP3    H134153   5.764   3.806   1.986  0.8133  0.8880 -0.7407
 4198TIP3    H234154   5.710   3.757   1.853 -0.7443 -0.4264  0.3426
 4199TIP3   OH234155   0.353   2.776   6.809 -0.5085 -0.1913 -0.0013
 4199TIP3    H134156   0.322   2.846   6.752 -0.1067  0.6394  0.7624
 4199TIP3    H234157   0.448   2.775   6.797 -0.4717 -0.3393  0.2898
 4200TIP3   OH234158   2.184   1.667   0.751  0.1871 -0.2957 -0.3037
 4200TIP3    H134159   2.107   1.690   0.802 -1.3218 -2.8572 -1.2519
 4200TIP3    H234160   2.232   1.606   0.806  0.2541 -0.5705 -0.6594
 4201TIP3   OH234161   2.305   1.485   0.910  0.1844 -0.0456  0.1055
 4201TIP3    H134162   2.243   1.433   0.961  0.1833 -1.2817 -1.0852
 4201TIP3    H234163   2.371   1.514   0.974 -0.9779  0.3292  1.1764
 4202TIP3   OH234164   3.654   3.511   8.828  0.0569  0.4453 -0.2650
 4202TIP3    H134165   3.740   3.483   8.860  1.7356  1.5185 -3.3994
 4202TIP3    H234166   3.626   3.578   8.890  1.1532 -0.3361  1.1620
 4203TIP3   OH234167   4.816   2.444   7.940 -0.6024 -0.0852 -0.2970
 4203TIP3    H134168   4.788   2.425   7.851  2.0905 -0.7850 -1.0744
 4203TIP3    H234169   4.862   2.528   7.935 -0.6837  0.0211  0.4907
 4204TIP3   OH234170   6.792   5.219   0.261  0.1788 -0.2461 -0.1529
 4204TIP3    H134171   6.767   5.127   0.269  0.8336 -0.4122  0.0009
 4204TIP3    H234172   6.836   5.225   0.176  0.7920 -0.2318  0.1599
 4205TIP3   OH234173   4.873   5.402   7.243  0.1810 -0.2346 -0.1635
 4205TIP3    H134174   4.844   5.317   7.210 -0.2793  0.1485 -0.7543
 4205TIP3    H234175   4.942   5.429   7.181  0.1311 -0.0518 -0.1394
 4206TIP3   OH234176   5.088   5.927   7.286  0.1193 -0.6786 -0.5762
 4206TIP3    H134177   5.001   5.948   7.254  0.4612 -2.4474 -2.9116
 4206TIP3    H234178   5.073   5.881   7.369 -0.9709  1.2656  0.3648
 4207TIP3   OH234179   3.272   5.405   0.402  0.1031  0.0823  0.3086
 4207TIP3    H134180   3.179   5.428   0.398  0.4085  1.2472 -1.5149
 4207TIP3    H234181   3.277   5.318   0.363 -0.2245 -0.0121  0.4707
 4208TIP3   OH234182   3.227   2.160   1.435 -0.2680  0.1090 -0.4081
 4208TIP3    H134183   3.206   2.114   1.354 -0.3566  1.4043 -1.1499
 4208TIP3    H234184   3.320   2.184   1.427 -0.3811  0.6021 -0.3256
 4209TIP3   OH234185   3.391   0.374   1.316  0.5805  0.3166 -0.3944
 4209TIP3    H134186   3.305   0.354   1.279  0.6520 -0.2769 -0.2399
 4209TIP3    H234187   3.433   0.430   1.251 -0.0690  0.9283 -0.2995
 4210TIP3   OH234188   5.174   2.491   8.800 -0.3665  0.5952 -0.7214
 4210TIP3    H134189   5.114   2.419   8.782  0.9707 -0.5659 -0.7632
 4210TIP3    H234190   5.214   2.511   8.715 -0.8501  1.5089 -0.7400
 4211TIP3   OH234191   5.371   0.100   8.544 -0.2354  0.0044  0.2813
 4211TIP3    H134192   5.374   0.113   8.639  2.1561  1.1389  0.1398
 4211TIP3    H234193   5.387   0.187   8.508 -1.5765 -0.3219 -1.2000
 4212TIP3   OH234194   3.969   0.685   1.099  0.0820 -0.2260  0.2938
 4212TIP3    H134195   4.047   0.709   1.148 -0.4699 -0.3908  1.2714
 4212TIP3    H234196   3.896   0.712   1.154 -0.6046  1.4056 -1.2897
 4213TIP3   OH234197   6.522   4.625   1.433  0.1247  0.1279  0.1044
 4213TIP3    H134198   6.450   4.564   1.448 -0.7491  1.6381  2.4238
 4213TIP3    H234199   6.535   4.623   1.338 -0.2892 -3.1124  0.0089
 4214TIP3   OH234200   0.525   2.832   0.930 -0.3593  0.1002 -0.2337
 4214TIP3    H134201   0.587   2.893   0.891  0.2034 -1.7005 -2.3820
 4214TIP3    H234202   0.462   2.887   0.976  1.4131  2.1124 -0.0991
 4215TIP3   OH234203   1.307   0.162   7.854 -0.2950 -0.1108 -0.5498
 4215TIP3    H134204   1.253   0.139   7.778  0.7316 -4.3179 -0.2968
 4215TIP3    H234205   1.365   0.086   7.865  2.3383  2.0620  2.0916
 4216TIP3   OH234206   2.046   6.546   7.135 -0.2352 -0.4718  0.0655
 4216TIP3    H134207   1.994   6.624   7.117  0.6933  0.1412 -0.0359
 4216TIP3    H234208   2.069   6.554   7.228  1.3401  0.3244 -0.3481
 4217TIP3   OH234209   1.111   0.658   0.362 -0.0415 -0.2709 -0.7996
 4217TIP3    H134210   1.112   0.651   0.267 -2.5183 -0.4166 -0.8755
 4217TIP3    H234211   1.128   0.569   0.393 -0.0768 -0.3953 -1.1424
 4218TIP3   OH234212   4.495   4.232   7.231  0.3539 -0.2106  0.4442
 4218TIP3    H134213   4.582   4.233   7.190 -0.1307  2.4717 -0.8082
 4218TIP3    H234214   4.459   4.146   7.210  1.9624 -0.6422 -0.7308
 4219TIP3   OH234215   3.116   0.504   7.626 -0.8030  0.2739 -0.5373
 4219TIP3    H134216   3.057   0.530   7.555 -1.0031  0.0213 -0.4648
 4219TIP3    H234217   3.058   0.492   7.701 -0.5284  1.0424 -0.1992
 4220TIP3   OH234218   6.628   4.997   1.217 -0.2285  0.5840  0.2379
 4220TIP3    H134219   6.535   5.019   1.218 -0.3772  0.0112 -0.2270
 4220TIP3    H234220   6.663   5.046   1.143 -0.2547  0.4676  0.1466
 4221TIP3   OH234221   6.266   3.529   7.929 -0.5219 -0.8452  0.0546
 4221TIP3    H134222   6.270   3.433   7.926 -0.8005 -0.8661  0.3076
 4221TIP3    H234223   6.343   3.558   7.881 -0.3426 -1.1989  0.1291
 4222TIP3   OH234224   3.201   2.379   1.944 -0.5042  0.0619 -0.2829
 4222TIP3    H134225   3.208   2.294   1.899 -0.7624  0.1677 -0.5277
 4222TIP3    H234226   3.269   2.433   1.905 -0.9108  0.2436 -0.7570
 4223TIP3   OH234227   6.646   1.988   7.573  0.6594  0.7021  0.6563
 4223TIP3    H134228   6.580   2.058   7.579  1.8637  1.9106  0.3177
 4223TIP3    H234229   6.686   2.000   7.487  0.2959 -0.9954  0.2127
 4224TIP3   OH234230   0.156   1.530   7.782 -0.1992  0.5920 -0.2743
 4224TIP3    H134231   0.127   1.439   7.789 -1.5569  0.9647 -0.7141
 4224TIP3    H234232   0.091   1.579   7.832 -1.0354  1.5828 -2.2532
 4225TIP3   OH234233   5.765   2.166   7.671  0.0243  0.8276  0.3824
 4225TIP3    H134234   5.830   2.233   7.648 -0.1181  0.6286 -0.6262
 4225TIP3    H234235   5.708   2.161   7.595  0.2929 -0.7422  0.2534
 4226TIP3   OH234236   3.714   1.312   1.206 -0.8917  0.0596  0.3049
 4226TIP3    H134237   3.662   1.385   1.239 -1.9013 -0.6994  0.4655
 4226TIP3    H234238   3.679   1.296   1.119  0.4832  0.8379 -0.4253
 4227TIP3   OH234239   4.381   0.298   0.954 -0.0097  0.1295  0.2375
 4227TIP3    H134240   4.467   0.339   0.961 -0.3353  1.2436 -1.6660
 4227TIP3    H234241   4.323   0.368   0.926 -1.0164 -1.1350 -1.0156
 4228TIP3   OH234242   6.504   6.511   0.670  0.0306 -0.1725  0.5726
 4228TIP3    H134243   6.441   6.485   0.602 -0.0567 -0.8532  0.9064
 4228TIP3    H234244   6.579   6.546   0.621  0.0925 -0.9332  0.1029
 4229TIP3   OH234245   0.058   1.666   0.253  0.4063  0.0717  0.0755
 4229TIP3    H134246   0.111   1.587   0.266  0.5118  0.2577  0.8114
 4229TIP3    H234247  -0.028   1.633   0.228  0.7127 -0.2497 -0.5620
 4230TIP3   OH234248   4.992   1.976   8.383  0.6875 -0.3510 -0.2809
 4230TIP3    H134249   4.908   1.948   8.417  0.3587  0.2252 -0.5952
 4230TIP3    H234250   4.979   2.068   8.359  1.8142  0.1988  1.0294
 4231TIP3   OH234251   2.973   5.367   0.822  0.0602  0.1570  0.0249
 4231TIP3    H134252   2.978   5.273   0.840 -1.2424  0.6171  3.7977
 4231TIP3    H234253   2.907   5.375   0.754 -0.0696 -1.6408 -0.1069
 4232TIP3   OH234254   4.660   3.445   8.786 -0.0344  0.4929  0.0019
 4232TIP3    H134255   4.648   3.521   8.729  1.6082  1.9772  1.5040
 4232TIP3    H234256   4.746   3.411   8.762 -2.1029 -3.3505 -3.2288
 4233TIP3   OH234257   2.928   3.592   8.616  0.4856  0.4427  0.3314
 4233TIP3    H134258   3.013   3.568   8.581  1.3867  2.8426  0.6921
 4233TIP3    H234259   2.946   3.620   8.706 -0.8538  0.1285  0.7331
 4234TIP3   OH234260   6.033   0.905   6.334 -0.5872 -0.3150 -0.0011
 4234TIP3    H134261   6.056   0.979   6.390  1.4730  0.6455 -1.9587
 4234TIP3    H234262   6.059   0.828   6.384 -0.7245  0.3808  1.1855
 4235TIP3   OH234263   5.508   2.983   8.446 -0.1081 -0.4407  0.0357
 4235TIP3    H134264   5.597   2.952   8.434  0.0651  0.1770 -0.3421
 4235TIP3    H234265   5.513   3.042   8.521 -0.0829  0.0243 -0.3264
 4236TIP3   OH234266   5.450   0.545   2.301 -0.4561 -0.2876 -0.2847
 4236TIP3    H134267   5.470   0.592   2.220  1.4828 -1.1177 -0.3467
 4236TIP3    H234268   5.536   0.528   2.340 -1.3437  0.4124  2.1509
 4237TIP3   OH234269   3.313   3.937   8.134  0.6257 -0.3759 -0.6120
 4237TIP3    H134270   3.254   3.935   8.058  2.2454 -1.3808 -1.9033
 4237TIP3    H234271   3.272   3.878   8.198 -0.0336 -0.6577 -1.2844
 4238TIP3   OH234272   3.154   0.419   1.848  0.2088  0.1072 -0.2838
 4238TIP3    H134273   3.202   0.336   1.857  2.1368  0.9648 -1.9507
 4238TIP3    H234274   3.165   0.462   1.933  0.0915 -0.8833  0.2404
 4239TIP3   OH234275   3.894   4.574   7.701  0.3882 -0.4942  0.1024
 4239TIP3    H134276   3.932   4.561   7.788  0.2771 -0.7978  0.1066
 4239TIP3    H234277   3.869   4.666   7.699 -3.0406 -1.2360  1.7928
 4240TIP3   OH234278   1.728   1.191   6.162 -0.4806  0.6234 -0.8228
 4240TIP3    H134279   1.662   1.260   6.155 -1.0799  0.0646 -0.7914
 4240TIP3    H234280   1.683   1.119   6.207 -0.1625 -0.1438 -1.6964
 4241TIP3   OH234281   1.582   1.658   7.323  0.4953  0.0651 -0.7802
 4241TIP3    H134282   1.494   1.623   7.339  1.2550 -1.8192 -0.4398
 4241TIP3    H234283   1.591   1.729   7.386 -0.8601  0.4683 -0.9956
 4242TIP3   OH234284   1.442   4.889   8.346 -0.0978  0.4041  0.7860
 4242TIP3    H134285   1.405   4.939   8.419 -0.2518 -0.7132  1.4816
 4242TIP3    H234286   1.389   4.810   8.340 -0.4310  0.7114 -0.8962
 4243TIP3   OH234287   1.202   4.262   6.525 -0.3727  0.0355  0.1756
 4243TIP3    H134288   1.168   4.196   6.585 -0.7707 -0.5875 -0.7153
 4243TIP3    H234289   1.128   4.321   6.510 -0.6980 -0.5877 -0.7534
 4244TIP3   OH234290   2.792   2.189   0.183  0.0827 -0.2003 -0.1076
 4244TIP3    H134291   2.748   2.117   0.138 -1.4735 -1.6009  3.2903
 4244TIP3    H234292   2.725   2.257   0.189  1.2312  1.2372 -2.4046
 4245TIP3   OH234293   4.535   5.238   6.448  0.0311 -0.6127  0.0575
 4245TIP3    H134294   4.484   5.205   6.374  0.5363 -1.4087  0.0414
 4245TIP3    H234295   4.523   5.172   6.517  0.4825 -0.4618  0.2866
 4246TIP3   OH234296   0.518   3.422   1.986  0.3709  0.3489  0.2571
 4246TIP3    H134297   0.531   3.516   1.974 -2.5708  0.9962  1.2630
 4246TIP3    H234298   0.475   3.414   2.072 -2.1205 -1.5580 -1.0292
 4247TIP3   OH234299   5.397   4.383   7.773  0.4626 -0.2483 -0.0822
 4247TIP3    H134300   5.418   4.290   7.780 -0.3040 -0.3901  0.4029
 4247TIP3    H234301   5.308   4.390   7.808 -0.1891  0.3917 -1.7600
 4248TIP3   OH234302   1.962   0.552   7.701  0.0943  0.5008 -0.5603
 4248TIP3    H134303   1.957   0.518   7.612 -0.5738  0.4204 -0.4966
 4248TIP3    H234304   2.038   0.610   7.700  2.4646 -2.3614 -0.1761
 4249TIP3   OH234305   6.576   1.691   8.779  0.1402 -0.3148  0.8562
 4249TIP3    H134306   6.571   1.753   8.852  0.9955  0.1494  0.5335
 4249TIP3    H234307   6.492   1.646   8.780 -0.8963  1.5011  0.5283
 4250TIP3   OH234308   4.134   6.664   0.710  0.5113 -0.5531 -0.2358
 4250TIP3    H134309   4.202   6.607   0.673 -0.5184 -2.2000  0.3191
 4250TIP3    H234310   4.058   6.607   0.720  0.0375  0.3962  2.2509
 4251TIP3   OH234311   5.851   3.922   2.123 -0.6383  0.4438 -0.1079
 4251TIP3    H134312   5.932   3.973   2.129  1.4584 -2.6851  0.5660
 4251TIP3    H234313   5.796   3.957   2.193 -0.8574  3.9793 -1.8265
 4252TIP3   OH234314   0.802   0.229   8.664 -0.2730  0.1107 -0.3660
 4252TIP3    H134315   0.807   0.173   8.742  1.0370  0.0281 -0.4787
 4252TIP3    H234316   0.718   0.207   8.624 -0.5326 -0.5529  0.5013
 4253TIP3   OH234317   5.470   0.408   7.033 -0.2050 -0.0973  0.5300
 4253TIP3    H134318   5.433   0.438   7.116 -0.4774 -0.9485  0.7308
 4253TIP3    H234319   5.398   0.413   6.971  0.6172  2.9276 -0.3120
 4254TIP3   OH234320   3.942   2.528   7.742 -0.0479  0.1424 -0.1062
 4254TIP3    H134321   3.929   2.616   7.777 -0.0235 -0.1333  0.6155
 4254TIP3    H234322   4.028   2.501   7.775  0.9676  0.6764 -2.1206
 4255TIP3   OH234323   4.784   3.304   1.645 -0.8237  0.2298 -0.4147
 4255TIP3    H134324   4.847   3.362   1.688 -0.8188  1.4465 -1.9820
 4255TIP3    H234325   4.771   3.232   1.708 -0.1001  1.4235  1.1692
 4256TIP3   OH234326   2.172   6.319   8.099  0.4082  0.1933  0.8029
 4256TIP3    H134327   2.250   6.364   8.132 -0.4257  0.9803  1.7481
 4256TIP3    H234328   2.186   6.228   8.125  1.0404  0.3089  0.9043
 4257TIP3   OH234329   2.486   5.167   6.689  0.2233 -0.4118 -0.2356
 4257TIP3    H134330   2.489   5.098   6.622  2.3988 -2.4417  1.7747
 4257TIP3    H234331   2.568   5.214   6.677 -1.6682  2.7140 -2.2497
 4258TIP3   OH234332   4.358   0.534   8.633 -0.3304 -0.0685  0.6864
 4258TIP3    H134333   4.360   0.533   8.537  0.3087 -0.3153  0.6996
 4258TIP3    H234334   4.270   0.503   8.655 -0.9229  1.1769  0.1744
 4259TIP3   OH234335   0.135   6.640   7.504 -0.0515 -0.6317  0.2391
 4259TIP3    H134336   0.219   6.681   7.483 -0.0074 -0.9086 -0.1287
 4259TIP3    H234337   0.083   6.711   7.543  1.0269 -0.9127  2.3559
 4260TIP3   OH234338   6.371   0.439   2.167 -0.3912  0.5725 -0.2397
 4260TIP3    H134339   6.458   0.477   2.155  0.7298 -1.6074  0.3469
 4260TIP3    H234340   6.363   0.429   2.262 -0.7214 -0.4154 -0.3629
 4261TIP3   OH234341   3.071   0.598   2.484  0.3719  0.5396  0.2003
 4261TIP3    H134342   3.096   0.689   2.502 -3.8590  1.6029  2.1545
 4261TIP3    H234343   3.079   0.555   2.569 -0.5423 -0.0388  0.0006
 4262TIP3   OH234344   4.704   2.986   7.467 -0.3772 -0.3741  0.0404
 4262TIP3    H134345   4.707   2.954   7.557 -0.8492 -4.3634 -1.1617
 4262TIP3    H234346   4.792   3.021   7.451  0.0933 -0.7454  1.6797
 4263TIP3   OH234347   4.122   3.331   8.012  0.2183  0.7691 -0.0938
 4263TIP3    H134348   4.056   3.267   8.037  0.3742 -0.2742 -2.1468
 4263TIP3    H234349   4.072   3.404   7.975  0.1714  0.0188 -1.5636
 4264TIP3   OH234350   1.169   0.393   1.059 -0.0830  0.1236 -0.3233
 4264TIP3    H134351   1.208   0.476   1.087  0.4958  0.0702 -0.9270
 4264TIP3    H234352   1.240   0.347   1.015 -0.4234 -0.6612 -0.0691
 4265TIP3   OH234353   0.628   3.653   8.715 -0.1543  0.2927 -0.1828
 4265TIP3    H134354   0.626   3.735   8.765 -0.0718 -0.2986  0.8363
 4265TIP3    H234355   0.664   3.589   8.777 -0.6122 -0.6007 -0.8257
 4266TIP3   OH234356   5.235   1.028   7.808 -0.1294 -0.2519  0.6116
 4266TIP3    H134357   5.254   0.934   7.811 -0.8702 -0.3874  1.1596
 4266TIP3    H234358   5.173   1.037   7.736 -0.2896 -0.2184  0.7563
 4267TIP3   OH234359   1.055   0.839   1.792 -0.7604 -0.0553  0.2563
 4267TIP3    H134360   1.015   0.777   1.731 -3.7687  1.2253  0.7520
 4267TIP3    H234361   1.049   0.796   1.877 -2.5211  0.6511  0.5439
 4268TIP3   OH234362   2.617   3.385   2.290 -0.0317  0.0288  0.2707
 4268TIP3    H134363   2.556   3.443   2.335 -0.9377  0.7408 -1.7676
 4268TIP3    H234364   2.699   3.395   2.339 -1.3168 -0.5667  2.7518
 4269TIP3   OH234365   4.443   1.569   7.284 -0.3820  0.2582  0.2529
 4269TIP3    H134366   4.521   1.604   7.240 -1.6376  1.4826 -1.0658
 4269TIP3    H234367   4.427   1.486   7.240 -1.1476  1.0919 -1.0877
 4270TIP3   OH234368   6.779   6.068   1.080  0.3416 -0.5005 -0.0922
 4270TIP3    H134369   6.774   6.099   0.990  1.7422 -1.1189 -0.4118
 4270TIP3    H234370   6.723   6.128   1.129 -0.3381 -0.0728 -1.3361
 4271TIP3   OH234371   2.275   6.227   7.789  0.5155 -0.5790  0.1872
 4271TIP3    H134372   2.308   6.313   7.765  0.0875 -0.7489 -1.0442
 4271TIP3    H234373   2.330   6.200   7.863  0.6622  0.7281  0.5812
 4272TIP3   OH234374   2.827   2.438   8.581 -0.4421 -0.5666  0.1667
 4272TIP3    H134375   2.859   2.399   8.663  0.4607 -1.3602 -0.5244
 4272TIP3    H234376   2.906   2.475   8.541 -0.6389 -1.2273 -0.8778
 4273TIP3   OH234377   2.547   5.703   0.158  0.0325  0.2288 -0.0006
 4273TIP3    H134378   2.544   5.662   0.072  1.4345  0.5748 -0.2403
 4273TIP3    H234379   2.640   5.713   0.177 -0.2432  2.0090  0.6476
 4274TIP3   OH234380   6.107   0.952   6.709 -0.2464 -0.1691  0.0784
 4274TIP3    H134381   6.148   0.910   6.633 -2.2350 -1.3676 -0.4114
 4274TIP3    H234382   6.179   0.996   6.753  1.6547 -2.4873 -0.4715
 4275TIP3   OH234383   3.879   3.765   0.214  0.9293  0.3720 -0.4907
 4275TIP3    H134384   3.896   3.723   0.130  0.3933  1.4666 -1.1669
 4275TIP3    H234385   3.957   3.817   0.232  2.1308 -1.7859  0.9517
 4276TIP3   OH234386   6.519   4.367   6.903  0.2115  0.1135  0.4257
 4276TIP3    H134387   6.613   4.385   6.903  0.3896 -0.7248 -0.3599
 4276TIP3    H234388   6.510   4.288   6.956 -0.1321  0.4839  0.9376
 4277TIP3   OH234389   4.086   1.605   1.404  0.1311 -0.4512  0.0919
 4277TIP3    H134390   4.025   1.664   1.449 -0.2114 -0.5371 -0.2478
 4277TIP3    H234391   4.172   1.632   1.434 -0.0524 -0.0751  0.2931
 4278TIP3   OH234392   2.698   6.078   7.147 -0.2823  0.5071  0.0716
 4278TIP3    H134393   2.613   6.048   7.113 -0.6478  2.9417 -1.4207
 4278TIP3    H234394   2.759   6.007   7.126 -1.3641  0.0541 -1.7704
 4279TIP3   OH234395   5.737   4.755   0.436 -0.4379 -0.2646 -0.3055
 4279TIP3    H134396   5.698   4.712   0.359  1.2115  0.4927 -1.6238
 4279TIP3    H234397   5.727   4.691   0.506 -2.7234 -0.6699 -0.9050
 4280TIP3   OH234398   0.449   3.968   1.355  0.2069  0.7723 -0.6438
 4280TIP3    H134399   0.522   3.933   1.407 -0.0312  3.0234  1.3853
 4280TIP3    H234400   0.481   4.051   1.322 -0.7475  0.8148 -1.5037
 4281TIP3   OH234401   6.084   2.900   8.524  0.2963 -0.3718  0.1133
 4281TIP3    H134402   6.075   2.843   8.447  1.9537  2.9781 -2.8540
 4281TIP3    H234403   5.994   2.924   8.546 -0.3180 -2.6566  0.3753
 4282TIP3   OH234404   4.120   3.154   6.921 -0.6738 -0.1823  0.2846
 4282TIP3    H134405   4.128   3.129   6.828 -2.5455  2.4424 -0.7162
 4282TIP3    H234406   4.026   3.149   6.938 -0.4491  0.3520  1.7555
 4283TIP3   OH234407   1.070   5.900   7.378  0.0537  0.1178 -0.1453
 4283TIP3    H134408   1.049   5.960   7.449 -0.6378  0.6862 -0.8170
 4283TIP3    H234409   1.163   5.912   7.363  0.7358 -1.5949  2.1090
 4284TIP3   OH234410   0.592   1.067   0.108 -0.3422 -0.1365  0.2020
 4284TIP3    H134411   0.573   1.144   0.055  2.4868  0.6513  0.1427
 4284TIP3    H234412   0.683   1.080   0.137 -0.6585 -2.1525  2.4591
 4285TIP3   OH234413   4.675   2.110   0.636 -0.1985  0.1294 -0.7726
 4285TIP3    H134414   4.730   2.146   0.706  1.1584 -1.3513 -1.0253
 4285TIP3    H234415   4.708   2.150   0.556  1.1849 -1.4219 -1.0313
 4286TIP3   OH234416   5.878   0.730   7.958  0.2107  0.0561 -0.5377
 4286TIP3    H134417   5.784   0.714   7.954 -0.0480  0.6874  1.4534
 4286TIP3    H234418   5.917   0.644   7.973 -0.4031  0.1268  1.8949
 4287TIP3   OH234419   3.996   6.495   8.635  0.1532  0.3894 -0.0558
 4287TIP3    H134420   4.018   6.588   8.631  1.6543  0.1598  1.5974
 4287TIP3    H234421   3.970   6.480   8.726  1.2857 -1.0748  0.0635
 4288TIP3   OH234422   2.076   5.987   1.286 -0.2211 -0.1428 -0.2197
 4288TIP3    H134423   2.147   5.924   1.279 -0.6077 -0.6044 -0.0273
 4288TIP3    H234424   2.027   5.961   1.364 -1.0484 -0.3088 -0.7741
 4289TIP3   OH234425   4.132   6.455   7.589  0.3989  0.1529 -0.3276
 4289TIP3    H134426   4.157   6.542   7.559 -0.8652  0.0358 -1.8017
 4289TIP3    H234427   4.116   6.466   7.683  0.5548  1.4264 -0.4334
 4290TIP3   OH234428   4.534   0.008   0.972 -0.3882 -0.1834  0.1092
 4290TIP3    H134429   4.448  -0.017   0.940 -0.4219  0.1530 -0.0667
 4290TIP3    H234430   4.553   0.091   0.927  0.3087 -0.5870 -0.3423
 4291TIP3   OH234431   0.690   2.297   1.735 -0.0146  0.7077  0.0860
 4291TIP3    H134432   0.644   2.214   1.747 -0.2895  0.8281 -0.1258
 4291TIP3    H234433   0.749   2.303   1.811 -0.6205  0.7253  0.5676
 4292TIP3   OH234434   0.154   1.596   0.617  0.0211 -0.3113 -0.4975
 4292TIP3    H134435   0.202   1.645   0.550 -0.2507  0.3723 -0.1946
 4292TIP3    H234436   0.213   1.594   0.692 -0.6584  1.0799  0.0963
 4293TIP3   OH234437   0.412   1.477   7.292 -0.0133 -0.7597  1.0113
 4293TIP3    H134438   0.461   1.557   7.270 -0.0401 -1.2738 -1.1381
 4293TIP3    H234439   0.346   1.507   7.355  0.3828  0.7914  0.7445
 4294TIP3   OH234440   1.738   3.505   1.307 -0.8137 -0.0157 -0.2026
 4294TIP3    H134441   1.747   3.423   1.355 -1.2659 -1.0027 -1.7410
 4294TIP3    H234442   1.823   3.520   1.267 -0.4284  0.8228  0.8732
 4295TIP3   OH234443   0.327   4.488   0.750 -0.3649 -0.3456  0.4586
 4295TIP3    H134444   0.331   4.396   0.722 -1.4471  0.0416 -1.0901
 4295TIP3    H234445   0.265   4.528   0.690 -0.3304  1.2923  1.4759
 4296TIP3   OH234446   0.949   2.840   7.031  0.4050  0.1003 -0.2477
 4296TIP3    H134447   0.859   2.864   7.051  0.1209 -0.0952 -1.2147
 4296TIP3    H234448   0.980   2.908   6.972  1.7592  1.5523  2.0020
 4297TIP3   OH234449   1.002   2.612   7.986 -0.3517  0.2655  0.1670
 4297TIP3    H134450   1.028   2.520   7.985 -0.2495  0.2655 -2.0296
 4297TIP3    H234451   1.065   2.656   7.929 -1.2555  1.4411  0.0191
 4298TIP3   OH234452   4.366   1.926   8.675  0.1760  0.7500 -0.3141
 4298TIP3    H134453   4.346   2.013   8.642  0.3745  0.4308 -1.3238
 4298TIP3    H234454   4.403   1.880   8.600  0.8989  0.0693  0.4369
 4299TIP3   OH234455   0.932   6.200   7.429  0.3696  0.3410  0.1466
 4299TIP3    H134456   0.991   6.273   7.408 -1.7665  2.2970  0.5547
 4299TIP3    H234457   0.880   6.232   7.502 -2.0930 -0.7672 -1.0237
 4300TIP3   OH234458   4.747   0.818   6.929  0.1016  0.6414  0.4744
 4300TIP3    H134459   4.783   0.899   6.967 -1.6272  2.3538 -1.3352
 4300TIP3    H234460   4.684   0.848   6.864  0.5949 -2.1761 -1.4814
 4301TIP3   OH234461   5.227   4.130   8.303 -0.6635 -0.2515 -0.7741
 4301TIP3    H134462   5.179   4.201   8.261 -0.7756  1.7340  2.3641
 4301TIP3    H234463   5.167   4.096   8.370  1.2098  0.4339  1.4073
 4302TIP3   OH234464   1.743   1.309   1.494 -0.3622  0.0737 -0.1437
 4302TIP3    H134465   1.669   1.369   1.502 -0.1505  0.5392 -1.4480
 4302TIP3    H234466   1.815   1.364   1.461  0.1118 -0.6921 -0.4047
 4303TIP3   OH234467   5.760   0.630   1.682  0.2203  0.2994 -0.0989
 4303TIP3    H134468   5.694   0.641   1.614  0.6558  1.0065 -0.4195
 4303TIP3    H234469   5.720   0.668   1.761 -1.4967 -3.1535  0.8800
 4304TIP3   OH234470   2.186   3.173   8.349 -0.1758 -0.4296 -0.1589
 4304TIP3    H134471   2.205   3.181   8.255 -1.8663 -0.9545 -0.5800
 4304TIP3    H234472   2.176   3.079   8.364 -2.5529 -0.2223 -0.0674
 4305TIP3   OH234473   0.812   5.565   7.580  0.5240  0.6325 -0.0439
 4305TIP3    H134474   0.763   5.647   7.575 -1.0705 -0.3292 -1.2166
 4305TIP3    H234475   0.828   5.553   7.674 -1.6633  0.9483  0.4448
 4306TIP3   OH234476   1.627   1.691   6.409  0.0859  0.3252 -0.2196
 4306TIP3    H134477   1.594   1.601   6.414  0.6839 -0.0080 -1.7088
 4306TIP3    H234478   1.713   1.687   6.450  0.1376  0.1998 -0.3383
 4307TIP3   OH234479   2.350   4.278   1.191 -0.3088  0.1474 -0.4622
 4307TIP3    H134480   2.353   4.356   1.136 -1.1771  0.8089  0.3902
 4307TIP3    H234481   2.439   4.243   1.188 -0.1892  0.5075 -1.7786
 4308TIP3   OH234482   1.194   1.645   0.043 -0.0200  0.1997  0.0627
 4308TIP3    H134483   1.231   1.727   0.077 -0.8089  0.5416  0.1129
 4308TIP3    H234484   1.152   1.671  -0.039  1.2129 -0.4797 -0.8180
 4309TIP3   OH234485   3.535   1.072   8.837 -0.0183  0.5444 -0.2288
 4309TIP3    H134486   3.544   1.052   8.930 -0.2439 -3.0812 -0.8383
 4309TIP3    H234487   3.452   1.121   8.831  0.9153  2.4906  1.5816
 4310TIP3   OH234488   6.447   5.076   7.559  0.2492 -0.1243  1.1936
 4310TIP3    H134489   6.390   5.122   7.498 -0.3718  0.6725  2.3443
 4310TIP3    H234490   6.500   5.018   7.503 -1.0718 -0.2550  0.0325
 4311TIP3   OH234491   0.626   6.460   1.084  0.1736  0.0121 -0.0745
 4311TIP3    H134492   0.533   6.477   1.071 -0.0016  1.2357  2.2525
 4311TIP3    H234493   0.665   6.547   1.092  1.4012 -0.4987 -0.2847
 4312TIP3   OH234494   5.516   4.780   1.431  0.0633 -0.0503  0.2666
 4312TIP3    H134495   5.544   4.689   1.443 -1.1937 -0.3330  1.2486
 4312TIP3    H234496   5.598   4.829   1.421  1.0016 -0.7419  3.5282
 4313TIP3   OH234497   2.234   2.019   0.377  0.2175  0.0307 -0.4099
 4313TIP3    H134498   2.188   1.956   0.321 -0.9352  0.5233 -0.0379
 4313TIP3    H234499   2.234   1.978   0.463 -2.2619  1.2949  0.2986
 4314TIP3   OH234500   3.594   2.597   0.257 -0.1787 -0.1182  0.5346
 4314TIP3    H134501   3.587   2.502   0.269  0.4151 -0.2620 -0.1790
 4314TIP3    H234502   3.675   2.608   0.207 -0.1833  0.7740  0.7265
 4315TIP3   OH234503   5.539   4.108   7.355 -0.3602  0.3105  0.3088
 4315TIP3    H134504   5.455   4.115   7.400  0.1688  2.2169  1.0931
 4315TIP3    H234505   5.535   4.174   7.285  0.6909  0.8584  0.7439
 4316TIP3   OH234506   4.564   1.953   6.704 -0.1876  0.3784 -0.0341
 4316TIP3    H134507   4.545   1.991   6.618 -1.8035  0.9604  0.5547
 4316TIP3    H234508   4.583   2.029   6.760  2.2545 -0.0615 -0.1437
 4317TIP3   OH234509   5.913   4.538   7.537 -0.1051  0.4737 -0.2580
 4317TIP3    H134510   5.864   4.587   7.471 -2.8436  0.1514  1.3757
 4317TIP3    H234511   5.918   4.449   7.503  0.2953  0.7346 -0.8988
 4318TIP3   OH234512   4.731   1.426   6.744 -0.0444  0.1132 -0.1303
 4318TIP3    H134513   4.657   1.369   6.722 -1.8102  1.9772  0.7404
 4318TIP3    H234514   4.716   1.451   6.835  2.0026  0.1100  0.2570
 4319TIP3   OH234515   0.295   3.671   0.884  0.6728 -0.6276 -0.2708
 4319TIP3    H134516   0.249   3.593   0.913 -0.0228 -0.6694 -1.4260
 4319TIP3    H234517   0.275   3.737   0.951 -0.7665 -0.7531 -0.5591
 4320TIP3   OH234518   0.681   1.823   7.809  0.8596 -0.4051 -0.0227
 4320TIP3    H134519   0.628   1.872   7.872  1.3964 -1.3812  1.2493
 4320TIP3    H234520   0.651   1.853   7.723  0.2058  1.0830  0.6895
 4321TIP3   OH234521   3.956   2.698   1.221  0.4022 -0.3637  0.0511
 4321TIP3    H134522   4.036   2.747   1.201 -0.7657  0.7284 -2.3735
 4321TIP3    H234523   3.988   2.618   1.263  2.9618 -0.7599 -2.3215
 4322TIP3   OH234524   3.400   4.065   8.711  0.2223  0.0675  0.2427
 4322TIP3    H134525   3.472   4.021   8.755 -0.2619 -0.4511  0.5363
 4322TIP3    H234526   3.380   4.140   8.767  0.8032  0.4483 -0.0588
 4323TIP3   OH234527   2.882   0.264   8.474  0.1712  0.5105  0.1161
 4323TIP3    H134528   2.942   0.202   8.517  0.0370  0.1464 -0.2180
 4323TIP3    H234529   2.882   0.340   8.532  2.3057  1.2310 -0.7552
 4324TIP3   OH234530   5.113   1.131   0.883 -0.2723 -0.0732 -0.2232
 4324TIP3    H134531   5.047   1.102   0.820 -0.6450  0.3290 -0.0199
 4324TIP3    H234532   5.064   1.151   0.963 -0.0932  1.4955 -0.4759
 4325TIP3   OH234533   6.297   4.774   0.447 -0.2164  0.4960 -0.7476
 4325TIP3    H134534   6.305   4.780   0.542 -3.8407  0.6956 -0.3067
 4325TIP3    H234535   6.297   4.865   0.417  3.2622  0.4439 -1.3868
 4326TIP3   OH234536   3.705   0.098   0.110  0.0199  0.4039  0.1750
 4326TIP3    H134537   3.779   0.149   0.143 -0.8536  1.3098  0.7889
 4326TIP3    H234538   3.640   0.101   0.180  0.2187 -2.2317  0.5664
 4327TIP3   OH234539   5.035   0.574   6.423  0.0698 -0.2832 -0.3561
 4327TIP3    H134540   5.095   0.634   6.379  1.3253  0.1551  1.8464
 4327TIP3    H234541   4.976   0.630   6.473  0.4379 -0.8200  0.7107
 4328TIP3   OH234542   3.542   0.800   8.509 -0.1207  0.1212 -0.0919
 4328TIP3    H134543   3.501   0.765   8.588  2.0725  0.5087  1.3091
 4328TIP3    H234544   3.525   0.735   8.441  0.9831 -2.0694  1.6074
 4329TIP3   OH234545   0.153   4.492   8.528  0.4987  0.1214 -0.4015
 4329TIP3    H134546   0.120   4.572   8.567  2.2035 -0.1466  1.7859
 4329TIP3    H234547   0.154   4.510   8.434  0.0287  2.3343 -0.0369
 4330TIP3   OH234548   4.927   4.210   0.346 -0.2852  0.9336 -0.0215
 4330TIP3    H134549   4.897   4.125   0.312 -0.1240  0.9538 -0.2183
 4330TIP3    H234550   4.879   4.275   0.296 -1.3309  0.9604  0.9716
 4331TIP3   OH234551   1.452   6.279   7.612 -0.4596 -0.8485 -0.2996
 4331TIP3    H134552   1.457   6.184   7.621 -0.0937 -1.0602 -2.3881
 4331TIP3    H234553   1.362   6.301   7.637 -0.1763 -1.5426  1.4832
 4332TIP3   OH234554   0.866   4.022   8.597 -0.4228 -0.3716  0.1276
 4332TIP3    H134555   0.944   4.031   8.544  0.3591  2.1964  1.5575
 4332TIP3    H234556   0.803   3.978   8.540  1.0451  0.2799 -2.1239
 4333TIP3   OH234557   1.704   3.510   0.569 -0.2224  0.3896 -0.1566
 4333TIP3    H134558   1.660   3.425   0.566  0.5689  0.0054 -1.6792
 4333TIP3    H234559   1.793   3.490   0.597 -0.7389  1.0916  2.2817
 4334TIP3   OH234560   6.525   0.306   0.244  0.5629  0.5535  0.2638
 4334TIP3    H134561   6.553   0.288   0.334  1.5957  0.9906  0.0470
 4334TIP3    H234562   6.517   0.401   0.240  0.6849  0.5452 -0.1485
 4335TIP3   OH234563   3.354   2.854   1.162 -0.6923 -0.1558  0.8211
 4335TIP3    H134564   3.361   2.803   1.081  0.2565  0.2117  0.6610
 4335TIP3    H234565   3.444   2.883   1.180 -1.2618  1.8681  0.6384
 4336TIP3   OH234566   5.750   4.935   6.608 -0.6120  0.2441  0.0777
 4336TIP3    H134567   5.703   4.978   6.537  1.8010  1.5384 -0.8236
 4336TIP3    H234568   5.768   4.847   6.575 -0.0195  0.6455 -0.6949
 4337TIP3   OH234569   1.065   2.701   1.334 -0.4010 -0.0218  0.6086
 4337TIP3    H134570   1.144   2.746   1.365 -0.1590  0.9490 -1.2523
 4337TIP3    H234571   1.014   2.770   1.290 -1.6895 -0.8947  0.6687
 4338TIP3   OH234572   6.702   4.242   0.096  0.0324 -0.3371 -0.2004
 4338TIP3    H134573   6.706   4.160   0.145  0.0950 -0.5256 -0.5156
 4338TIP3    H234574   6.790   4.278   0.101  0.2236 -0.7056 -0.7567
 4339TIP3   OH234575   3.586   0.328   2.530 -0.0606  0.3541  0.1057
 4339TIP3    H134576   3.492   0.308   2.530 -0.1644  0.7347 -1.4922
 4339TIP3    H234577   3.597   0.392   2.459  1.4531  0.0639  0.0519
 4340TIP3   OH234578   2.483   4.470   8.838  0.1026  0.2115  0.4248
 4340TIP3    H134579   2.560   4.505   8.882 -0.3249 -1.5404  2.7508
 4340TIP3    H234580   2.497   4.376   8.834 -0.9704  0.0633 -1.1306
 4341TIP3   OH234581   2.277   4.707   1.485 -0.2601 -0.0152  0.8617
 4341TIP3    H134582   2.198   4.758   1.470 -0.6605  0.0822  2.9634
 4341TIP3    H234583   2.259   4.622   1.444 -0.0734  1.0492 -1.5794
 4342TIP3   OH234584   5.105   1.102   0.108  0.4750  0.3343 -0.2802
 4342TIP3    H134585   5.052   1.173   0.073  0.4126  0.6617  0.4610
 4342TIP3    H234586   5.192   1.141   0.121  0.0119  0.8097  1.7721
 4343TIP3   OH234587   3.551   0.921   2.022  0.3589  0.4868 -0.5788
 4343TIP3    H134588   3.575   0.958   2.107  3.0519 -0.4623 -0.8411
 4343TIP3    H234589   3.482   0.858   2.042 -0.1952  1.4298  0.6447
 4344TIP3   OH234590   5.575   4.689   6.713  0.0178 -0.0985  0.3679
 4344TIP3    H134591   5.551   4.668   6.803  0.6989  0.5845  0.7157
 4344TIP3    H234592   5.514   4.758   6.687  0.7651  0.7562  0.8270
 4345TIP3   OH234593   5.350   3.636   8.348 -0.3552  0.0859 -0.5301
 4345TIP3    H134594   5.311   3.550   8.335  1.9017 -1.0968 -0.1277
 4345TIP3    H234595   5.276   3.694   8.363 -1.9528 -1.8133 -0.6056
 4346TIP3   OH234596   4.394   4.426   7.855 -0.0603  0.1755 -0.3138
 4346TIP3    H134597   4.450   4.349   7.861  0.6913  0.7304 -0.0493
 4346TIP3    H234598   4.454   4.500   7.864 -0.8656  0.7834  0.2167
 4347TIP3   OH234599   5.272   3.538   0.762  0.0616 -0.1005  0.1763
 4347TIP3    H134600   5.308   3.488   0.688  0.1299  0.5620 -0.2486
 4347TIP3    H234601   5.287   3.630   0.738 -1.5598  0.1921  0.1540
 4348TIP3   OH234602   6.225   6.305   8.312  0.0854  0.0098 -0.2923
 4348TIP3    H134603   6.177   6.297   8.394  0.7602 -0.4412  0.0712
 4348TIP3    H234604   6.317   6.307   8.338  0.2908  0.3180 -1.0091
 4349TIP3   OH234605   6.255   0.221   1.332  0.5160 -0.2647 -0.3886
 4349TIP3    H134606   6.222   0.141   1.373 -1.6633  0.9288  0.3466
 4349TIP3    H234607   6.331   0.245   1.385 -1.3651  0.4272  2.1949
 4350TIP3   OH234608   1.363   1.927   8.206 -0.3624  0.2032  0.3007
 4350TIP3    H134609   1.286   1.969   8.169 -0.4426  0.2448  0.5108
 4350TIP3    H234610   1.416   1.999   8.241 -0.9682  0.0736  1.5405
 4351TIP3   OH234611   4.438   4.251   0.161  0.2641 -0.7672  0.9062
 4351TIP3    H134612   4.509   4.288   0.214 -0.2212  0.6924  0.5800
 4351TIP3    H234613   4.421   4.317   0.094 -3.4931  0.4802  2.7912
 4352TIP3   OH234614   4.768   2.778   0.508  0.3325  0.1360  0.4269
 4352TIP3    H134615   4.863   2.788   0.509  0.5960 -1.1942 -2.0821
 4352TIP3    H234616   4.734   2.866   0.523  1.9773  0.8162  0.3522
 4353TIP3   OH234617   1.368   6.165   7.098 -0.1134  0.2748  0.0178
 4353TIP3    H134618   1.425   6.113   7.155  0.0092  0.4699  0.0740
 4353TIP3    H234619   1.377   6.125   7.012 -3.0756 -2.3807  0.7479
 4354TIP3   OH234620   1.679   0.899   8.635  0.2504  0.1107 -0.1675
 4354TIP3    H134621   1.700   0.806   8.621 -0.6852 -0.1475  0.0905
 4354TIP3    H234622   1.718   0.920   8.720  0.7696  0.0642 -0.3842
 4355TIP3   OH234623   3.036   1.092   8.824  0.0192 -0.4270  0.4369
 4355TIP3    H134624   2.983   1.158   8.868  1.0233 -0.2268  1.4023
 4355TIP3    H234625   3.125   1.108   8.857  0.9684  0.1617 -2.1551
 4356TIP3   OH234626   1.477   3.425   6.236  0.1315  0.1033 -0.5540
 4356TIP3    H134627   1.503   3.352   6.180  0.8955  0.7442 -1.0551
 4356TIP3    H234628   1.556   3.477   6.247 -0.6758  1.5902 -1.3233
 4357TIP3   OH234629   2.922   4.218   0.738 -0.0587  0.1361 -0.1756
 4357TIP3    H134630   2.947   4.136   0.696 -0.0127 -0.2243  0.5539
 4357TIP3    H234631   3.004   4.265   0.752  0.2065 -0.8072  1.7147
 4358TIP3   OH234632   3.652   0.131   8.250  0.5037 -0.0484  0.0206
 4358TIP3    H134633   3.615   0.057   8.299  0.9973  0.3935  1.0935
 4358TIP3    H234634   3.678   0.194   8.318 -1.2345  1.7634 -0.8858
 4359TIP3   OH234635   5.839   2.492   1.253  0.0256 -0.1585  0.1171
 4359TIP3    H134636   5.861   2.481   1.161  2.6812 -0.9415  0.7434
 4359TIP3    H234637   5.837   2.403   1.288 -2.7177 -0.0082  0.5289
 4360TIP3   OH234638   5.379   2.913   0.322  0.3444  0.1235  0.2167
 4360TIP3    H134639   5.286   2.904   0.302  0.0999 -0.2417  1.4370
 4360TIP3    H234640   5.423   2.862   0.253 -0.4377 -0.8947  0.4347
 4361TIP3   OH234641   4.592   6.664   0.382 -0.5513  0.0936  0.1513
 4361TIP3    H134642   4.572   6.691   0.471  0.5729  1.4421  0.0164
 4361TIP3    H234643   4.687   6.653   0.380 -0.5280  0.3123 -0.9315
 4362TIP3   OH234644   5.056   4.653   8.844  0.4891  0.2994  0.0378
 4362TIP3    H134645   5.094   4.739   8.824  1.0908  0.1192  0.3764
 4362TIP3    H234646   5.129   4.592   8.835 -0.1149 -0.2891 -0.9703
 4363TIP3   OH234647   5.924   1.339   0.617  0.3419 -0.0772 -0.1272
 4363TIP3    H134648   5.844   1.386   0.640  0.9848 -0.2100  2.6939
 4363TIP3    H234649   5.896   1.249   0.602  0.0604 -0.4987  2.4692
 4364TIP3   OH234650   5.529   2.674   0.444  0.0070  0.1673  0.2057
 4364TIP3    H134651   5.545   2.699   0.353 -1.6549 -1.6992 -0.6794
 4364TIP3    H234652   5.512   2.756   0.489 -2.2805  0.9830 -1.8997
 4365TIP3   OH234653   2.875   3.865   8.098 -0.0840  0.5677 -0.4164
 4365TIP3    H134654   2.811   3.815   8.046  1.9506  0.5303 -3.1090
 4365TIP3    H234655   2.898   3.939   8.042  1.3540  1.2150  0.9718
 4366TIP3   OH234656   3.055   2.306   8.741  0.1016  0.6073  0.0807
 4366TIP3    H134657   3.028   2.230   8.793 -0.4674  1.1241  0.5451
 4366TIP3    H234658   3.149   2.293   8.728  0.3878  0.7641  1.7445
 4367TIP3   OH234659   5.889   3.202   6.417  0.2593 -0.0140 -0.5617
 4367TIP3    H134660   5.914   3.247   6.337  0.1766 -0.1023 -0.6367
 4367TIP3    H234661   5.840   3.267   6.468  0.5324  0.1202 -0.4702
 4368TIP3   OH234662   6.075   0.458   8.394  0.1549  0.1412  0.0073
 4368TIP3    H134663   6.165   0.447   8.364 -0.0930 -0.6826 -0.4815
 4368TIP3    H234664   6.031   0.378   8.365 -0.9384  0.9144 -0.5060
 4369TIP3   OH234665   5.665   2.703   0.830 -0.3618  0.2942  0.4634
 4369TIP3    H134666   5.616   2.628   0.798  0.8669  0.0405 -0.8976
 4369TIP3    H234667   5.598   2.759   0.872 -1.5126 -0.8300  0.1943
 4370TIP3   OH234668   2.721   1.565   8.159  0.3661  0.5115 -0.1353
 4370TIP3    H134669   2.677   1.482   8.178 -1.8628  1.7279  0.3131
 4370TIP3    H234670   2.788   1.573   8.227 -0.2103 -0.3421  0.5454
 4371TIP3   OH234671   0.008   5.347   8.259  0.0517  0.2833  0.1795
 4371TIP3    H134672   0.039   5.434   8.232  0.8432  0.1079  0.4837
 4371TIP3    H234673  -0.051   5.321   8.189 -0.3983  1.1718  0.2097
 4372TIP3   OH234674   1.496   5.960   2.361 -0.1340  0.0211  0.2153
 4372TIP3    H134675   1.525   5.986   2.449  0.2204 -1.5464  0.5941
 4372TIP3    H234676   1.559   5.893   2.334  0.5091  1.3344 -1.7822
 4373TIP3   OH234677   0.443   4.800   8.162 -0.3572  0.1158 -0.4001
 4373TIP3    H134678   0.531   4.770   8.182 -0.2847  1.9947  2.9122
 4373TIP3    H234679   0.456   4.870   8.097  0.5961  0.3669  0.0435
 4374TIP3   OH234680   1.598   3.918   8.339  0.3208 -0.3571  0.3111
 4374TIP3    H134681   1.664   3.915   8.270  1.3299  1.2456  1.1396
 4374TIP3    H234682   1.519   3.882   8.299  1.8022 -2.9358 -0.5311
 4375TIP3   OH234683   2.910   0.634   7.485  0.1626  0.1953  0.0427
 4375TIP3    H134684   2.862   0.591   7.414  1.3994 -1.4172  0.1253
 4375TIP3    H234685   2.842   0.665   7.545 -0.8279 -1.2938 -0.2475
 4376TIP3   OH234686   1.563   5.245   8.466 -0.6018 -0.1480  0.0300
 4376TIP3    H134687   1.526   5.302   8.533 -1.1176  0.5903 -0.8755
 4376TIP3    H234688   1.515   5.266   8.386 -0.9479 -1.9803 -0.2988
 4377TIP3   OH234689   2.219   2.290   6.456 -0.0095 -0.5191 -0.2696
 4377TIP3    H134690   2.165   2.242   6.519 -0.9437  1.5318  0.5647
 4377TIP3    H234691   2.205   2.382   6.478  1.2553  0.1757 -2.1891
 4378TIP3   OH234692   2.335   6.715   1.426  0.7249 -0.3565 -0.2208
 4378TIP3    H134693   2.307   6.628   1.452  0.2399 -0.6388 -1.5991
 4378TIP3    H234694   2.337   6.712   1.330  1.7760  0.8143 -0.2563
 4379TIP3   OH234695   2.159   4.847   8.303  0.1880 -0.4039 -0.0028
 4379TIP3    H134696   2.086   4.852   8.241  0.6384  0.3115 -0.4875
 4379TIP3    H234697   2.174   4.753   8.315 -1.5759 -0.6010  1.0281
 4380TIP3   OH234698   6.476   1.234   8.674 -0.4485 -0.7981 -0.1251
 4380TIP3    H134699   6.544   1.168   8.661 -0.5977 -1.0545  0.3779
 4380TIP3    H234700   6.522   1.310   8.711 -0.5032 -1.1268  0.6290
 4381TIP3   OH234701   3.899   5.594   0.546 -0.0981 -0.2564 -0.2859
 4381TIP3    H134702   3.887   5.647   0.467  1.3824 -1.2062 -1.2079
 4381TIP3    H234703   3.994   5.580   0.550 -0.1681 -0.3207  1.6221
 4382TIP3   OH234704   5.833   4.725   7.009 -0.3498 -0.6807  0.1374
 4382TIP3    H134705   5.765   4.793   7.007 -0.5417 -0.8449  0.8036
 4382TIP3    H234706   5.874   4.735   7.094  0.2109 -0.8396 -0.1101
 4383TIP3   OH234707   3.312   2.316   8.647  0.2093  0.8386 -0.4344
 4383TIP3    H134708   3.344   2.239   8.599 -0.4559  1.8562 -2.6361
 4383TIP3    H234709   3.391   2.354   8.685  0.8930  0.4089 -1.3669
 4384TIP3   OH234710   2.904   3.915   1.391 -0.1718 -0.3593 -0.1824
 4384TIP3    H134711   2.918   3.839   1.334  0.1491  0.3170 -1.0344
 4384TIP3    H234712   2.989   3.960   1.392  0.1216 -0.8765  1.6471
 4385TIP3   OH234713   5.712   4.261   6.314 -0.0010  0.3980  0.1843
 4385TIP3    H134714   5.733   4.354   6.317  0.3630  0.3015  0.6936
 4385TIP3    H234715   5.761   4.222   6.386 -0.0070 -0.2188 -0.1320
 4386TIP3   OH234716   3.592   6.721   1.609 -0.1041  0.0315  0.7189
 4386TIP3    H134717   3.615   6.814   1.611  0.0166  0.0004  1.0295
 4386TIP3    H234718   3.561   6.705   1.520  1.0274  0.1001  0.2910
 4387TIP3   OH234719   5.440   4.637   0.490  0.1096  0.3444 -0.4223
 4387TIP3    H134720   5.348   4.638   0.465 -0.0470  1.3902  0.1348
 4387TIP3    H234721   5.487   4.650   0.408 -0.1867 -0.9364 -0.8225
 4388TIP3   OH234722   5.048   0.694   0.119  0.0735  0.3948 -0.0780
 4388TIP3    H134723   5.084   0.699   0.030  1.1030 -1.1870  0.2182
 4388TIP3    H234724   4.962   0.653   0.108 -0.2599  1.1746 -0.4410
 4389TIP3   OH234725   0.350   3.379   1.761  0.3205  0.3597 -0.0353
 4389TIP3    H134726   0.391   3.299   1.728  0.7597  1.1877 -1.5586
 4389TIP3    H234727   0.397   3.397   1.843  1.3932 -0.0194 -0.5497
 4390TIP3   OH234728   5.535   0.951   0.057 -0.0888 -0.0563 -0.1527
 4390TIP3    H134729   5.511   0.954   0.149 -0.8164  0.8503 -0.3514
 4390TIP3    H234730   5.501   0.868   0.025  0.5227 -0.5593  0.4769
 4391TIP3   OH234731   1.737   0.055   0.379 -0.1540 -0.6172 -0.2900
 4391TIP3    H134732   1.779   0.096   0.454  0.8794  0.9632 -1.6584
 4391TIP3    H234733   1.790  -0.023   0.361 -0.3207 -0.9229  0.4979
 4392TIP3   OH234734   4.565   2.026   2.003  0.2328  0.3553  0.3215
 4392TIP3    H134735   4.626   1.958   2.032 -0.5248  0.0132  1.1732
 4392TIP3    H234736   4.509   2.042   2.080 -0.6580  0.7548 -0.3933
 4393TIP3   OH234737   5.203   3.138   1.651 -0.2009 -0.4773 -0.2835
 4393TIP3    H134738   5.135   3.151   1.717 -0.8427 -1.1084 -0.7972
 4393TIP3    H234739   5.264   3.076   1.691 -0.4596 -0.6768 -0.1938
 4394TIP3   OH234740   6.261   0.365   1.094 -0.2781  0.1012  0.3208
 4394TIP3    H134741   6.201   0.342   1.023 -1.6038  0.9460  1.1277
 4394TIP3    H234742   6.257   0.291   1.155  0.4317 -0.3728 -0.1939
 4395TIP3   OH234743   5.199   4.712   0.768  0.2363  0.3774  0.2104
 4395TIP3    H134744   5.151   4.691   0.688  2.6908 -1.8359 -0.8309
 4395TIP3    H234745   5.254   4.635   0.784  2.0548  1.9799  2.3056
 4396TIP3   OH234746   3.877   1.993   8.278 -0.4853 -0.4257 -0.7876
 4396TIP3    H134747   3.914   2.046   8.348 -0.0684 -3.0912  1.1228
 4396TIP3    H234748   3.782   1.997   8.292 -0.7430  2.1019 -2.4997
 4397TIP3   OH234749   1.002   3.696   1.802 -0.4432  0.4088  0.3319
 4397TIP3    H134750   0.911   3.710   1.777 -0.6912  0.0221  1.0141
 4397TIP3    H234751   1.044   3.781   1.787 -0.4859  0.1223 -1.7435
 4398TIP3   OH234752   5.014   2.885   8.396  0.0292  0.0453  0.5093
 4398TIP3    H134753   5.103   2.918   8.407 -0.8293  2.1518  1.8966
 4398TIP3    H234754   5.004   2.820   8.465  0.7892 -1.0282 -0.3474
 4399TIP3   OH234755   6.570   4.427   8.788  0.2752 -0.0269 -0.6444
 4399TIP3    H134756   6.640   4.387   8.839 -0.7480 -1.8113 -0.5479
 4399TIP3    H234757   6.520   4.479   8.852  1.5795  1.4605 -0.7618
 4400TIP3   OH234758   0.015   0.488   7.199  0.1008  0.0734 -0.0666
 4400TIP3    H134759   0.074   0.470   7.272 -0.2148 -2.2662 -0.3127
 4400TIP3    H234760  -0.072   0.468   7.233 -0.3003  1.1333 -0.4341
 4401TIP3   OH234761   3.717   1.967   0.651  0.2322  0.0346 -0.2614
 4401TIP3    H134762   3.755   2.040   0.602 -0.9837  1.4110  0.7591
 4401TIP3    H234763   3.754   1.976   0.740  0.9307 -1.2840 -0.3928
 4402TIP3   OH234764   5.739   6.052   1.445 -0.6194  0.2219 -0.7354
 4402TIP3    H134765   5.789   5.972   1.429  1.2003  0.8275  1.4626
 4402TIP3    H234766   5.777   6.116   1.385  1.0460  0.5531  0.5934
 4403TIP3   OH234767   1.472   0.551   8.667  0.0189 -0.1895  0.1752
 4403TIP3    H134768   1.410   0.623   8.674 -0.9404 -1.0374  0.6268
 4403TIP3    H234769   1.542   0.585   8.611 -1.1193  0.6157 -0.8060
 4404TIP3   OH234770   6.349   1.244   1.906 -0.0346  0.5931  0.3040
 4404TIP3    H134771   6.354   1.207   1.994 -1.2972  0.9300  0.5478
 4404TIP3    H234772   6.281   1.312   1.913  0.1718  0.9328 -0.8238
 4405TIP3   OH234773   5.961   3.253   1.787  0.0333  0.0892  0.2597
 4405TIP3    H134774   5.935   3.165   1.758  0.7814  0.2635 -1.0328
 4405TIP3    H234775   5.894   3.278   1.850 -1.2469 -0.6659 -0.7438
 4406TIP3   OH234776   0.091   2.897   0.638  0.5798  0.1308  0.0077
 4406TIP3    H134777   0.049   2.840   0.702 -0.2352  1.3948  0.6429
 4406TIP3    H234778   0.183   2.899   0.665  0.9485 -2.0104 -0.9108
 4407TIP3   OH234779   5.499   2.277   7.080  0.7060 -0.1603 -0.0380
 4407TIP3    H134780   5.541   2.348   7.129 -0.8658  0.3816  0.5799
 4407TIP3    H234781   5.484   2.315   6.993 -1.4063  0.8197  0.6975
 4408TIP3   OH234782   5.871   0.894   0.123  0.4780  0.5955 -0.1059
 4408TIP3    H134783   5.911   0.965   0.173  0.7086  1.2198 -1.1547
 4408TIP3    H234784   5.856   0.931   0.036 -2.9327  0.6144  0.3559
 4409TIP3   OH234785   4.878   6.463   1.781 -0.1154  0.1484 -0.0323
 4409TIP3    H134786   4.830   6.407   1.720  0.0629 -0.1831  0.1286
 4409TIP3    H234787   4.823   6.466   1.860  0.0517 -0.1072  0.0961
 4410TIP3   OH234788   1.013   5.516   0.833  0.1584  0.1991 -0.5774
 4410TIP3    H134789   0.924   5.501   0.801 -0.4588  0.1092  1.0747
 4410TIP3    H234790   1.054   5.570   0.765 -1.0665  0.0290 -1.4857
 4411TIP3   OH234791   3.406   1.528   7.817  0.6681  0.4666  0.0376
 4411TIP3    H134792   3.459   1.550   7.894  2.4545 -0.0413 -0.9915
 4411TIP3    H234793   3.380   1.612   7.780  1.0890  0.7349  0.3489
 4412TIP3   OH234794   1.912   2.401   2.377 -0.1745  0.6890 -0.1445
 4412TIP3    H134795   1.870   2.330   2.426 -3.3686  1.9243 -0.8461
 4412TIP3    H234796   1.961   2.451   2.442 -1.0617  0.0373  1.0471
 4413TIP3   OH234797   3.264   2.536   8.174 -0.4562 -0.0481  0.2163
 4413TIP3    H134798   3.255   2.625   8.140 -1.6735  1.1274  3.2649
 4413TIP3    H234799   3.174   2.505   8.186 -0.0667 -1.0961  0.5913
 4414TIP3   OH234800   6.661   2.626   2.839 -0.1932 -0.0911  0.2687
 4414TIP3    H134801   6.691   2.613   2.929  0.3391 -0.1519  0.0831
 4414TIP3    H234802   6.686   2.715   2.817 -0.2016 -0.1211  0.1352
 4415TIP3   OH234803   2.605   4.639   0.737 -0.4627 -0.2507 -0.5892
 4415TIP3    H134804   2.612   4.666   0.828  1.5109  0.8975 -1.0166
 4415TIP3    H234805   2.646   4.553   0.734  0.3413  0.1286 -0.5522
 4416TIP3   OH234806   0.973   6.394   7.832  0.3478 -0.4418  0.4424
 4416TIP3    H134807   0.911   6.391   7.759 -1.2759  2.1951  1.5552
 4416TIP3    H234808   0.918   6.388   7.910  1.7195 -0.1774  1.4627
 4417TIP3   OH234809   4.133   1.048   0.037  0.9139  0.5888 -0.2214
 4417TIP3    H134810   4.091   1.044   0.123  1.3618 -0.7011 -0.0495
 4417TIP3    H234811   4.118   0.962  -0.002  0.9757  1.0544 -1.3245
 4418TIP3   OH234812   0.877   6.041   1.585  0.2992  0.4767  0.4662
 4418TIP3    H134813   0.892   6.010   1.496 -0.7129 -0.3982  0.5837
 4418TIP3    H234814   0.943   6.110   1.598  0.7512  0.3018 -0.7865
 4419TIP3   OH234815   3.419   4.325   0.348 -0.6432  1.1866  0.5981
 4419TIP3    H134816   3.506   4.362   0.363  0.3128 -1.0656  1.0119
 4419TIP3    H234817   3.420   4.298   0.256 -0.4175  0.0395  0.9236
 4420TIP3   OH234818   5.744   6.417   1.755 -0.0581 -0.8776  0.3996
 4420TIP3    H134819   5.673   6.465   1.797  0.5523  1.2264 -0.8126
 4420TIP3    H234820   5.812   6.408   1.822 -1.2367 -2.5382  1.4382
 4421TIP3   OH234821   5.053   5.737   8.793  0.3509 -0.1851  0.4692
 4421TIP3    H134822   5.134   5.718   8.745  0.5153  1.1711  0.1779
 4421TIP3    H234823   5.075   5.719   8.885  0.4857 -1.3600  0.2235
 4422TIP3   OH234824   3.494   2.214   1.391 -0.2214 -0.0105 -0.3944
 4422TIP3    H134825   3.507   2.309   1.393 -0.5999  0.1162 -2.3772
 4422TIP3    H234826   3.556   2.181   1.457  0.8890  1.5056 -0.6058
 4423TIP3   OH234827   3.256   1.740   1.259 -0.9118  0.4170 -0.1809
 4423TIP3    H134828   3.338   1.731   1.209 -0.6593  0.1768  0.2751
 4423TIP3    H234829   3.283   1.732   1.350 -1.4062  0.6416 -0.0138
 4424TIP3   OH234830   0.751   2.133   0.329 -0.8420 -0.1355  0.1505
 4424TIP3    H134831   0.783   2.045   0.311  0.2615 -0.1988  2.2002
 4424TIP3    H234832   0.826   2.179   0.366 -1.0371  2.0792 -1.9308
 4425TIP3   OH234833   0.330   0.017   7.314  0.1208  0.0851  0.0654
 4425TIP3    H134834   0.262   0.067   7.270  0.1867  0.6208  0.5620
 4425TIP3    H234835   0.404   0.078   7.322  0.5060 -0.3545 -0.0788
 4426TIP3   OH234836   0.754   3.708   0.627  0.8502  0.0156  0.2543
 4426TIP3    H134837   0.697   3.689   0.552  1.6260 -1.8708  0.0788
 4426TIP3    H234838   0.693   3.725   0.699 -0.0034  4.4744 -1.1885
 4427TIP3   OH234839   3.389   6.728   8.179 -0.1908  0.1172  0.3453
 4427TIP3    H134840   3.429   6.750   8.263 -2.1616 -0.3403  1.4466
 4427TIP3    H234841   3.313   6.787   8.172 -1.2672 -1.2843 -0.1099
 4428TIP3   OH234842   5.774   5.039   6.896 -0.0993  0.1616 -0.1989
 4428TIP3    H134843   5.748   5.130   6.910 -0.5693  0.2577 -1.6171
 4428TIP3    H234844   5.769   5.026   6.802 -2.3260 -1.9982  0.1090
 4429TIP3   OH234845   0.104   4.605   7.150 -0.3161  0.0340 -0.2986
 4429TIP3    H134846   0.070   4.663   7.082  0.8010 -0.5122 -1.3645
 4429TIP3    H234847   0.147   4.534   7.102  2.0319  0.5210  0.9191
 4430TIP3   OH234848   4.087   5.899   7.728  0.0248  0.3564  0.3985
 4430TIP3    H134849   4.034   5.971   7.694  0.9304  1.1865  0.6848
 4430TIP3    H234850   4.108   5.847   7.651  2.3699  2.4307 -0.5061
 4431TIP3   OH234851   2.295   6.387   8.487 -0.2230  0.1195  0.6483
 4431TIP3    H134852   2.277   6.440   8.410 -1.6354 -0.9764  0.1759
 4431TIP3    H234853   2.338   6.309   8.454 -0.3729 -0.1286  1.0276
 4432TIP3   OH234854   4.614   5.951   8.096  0.1784 -0.1787 -0.1304
 4432TIP3    H134855   4.576   5.914   8.016  2.2652 -0.9289 -0.8663
 4432TIP3    H234856   4.588   6.043   8.095 -0.6706 -0.4027 -1.1408
 4433TIP3   OH234857   2.662   1.246   1.015  0.0221 -0.7291 -0.1465
 4433TIP3    H134858   2.709   1.205   0.943  1.8379 -0.0970  0.6326
 4433TIP3    H234859   2.730   1.283   1.071 -1.3965  0.0299  1.1624
 4434TIP3   OH234860   6.369   4.706   8.350  0.2290 -0.3881  0.5414
 4434TIP3    H134861   6.327   4.620   8.343  0.3396 -0.4107  0.1686
 4434TIP3    H234862   6.422   4.699   8.430 -0.1263 -0.5053  0.7724
 4435TIP3   OH234863   2.842   4.883   0.655  0.0554 -0.3308  0.3249
 4435TIP3    H134864   2.808   4.801   0.691  0.0758 -1.4723 -2.0499
 4435TIP3    H234865   2.913   4.857   0.597  0.0515  1.3599 -0.5214
 4436TIP3   OH234866   4.380   6.021   0.645  0.5402  0.5872  0.2748
 4436TIP3    H134867   4.433   5.964   0.589  0.5583 -0.4679  1.3244
 4436TIP3    H234868   4.356   6.094   0.589 -0.2992 -0.9205 -1.4537
 4437TIP3   OH234869   5.163   2.859   2.056 -0.6309  0.2418 -0.3109
 4437TIP3    H134870   5.133   2.771   2.077 -1.1473  0.2695 -0.9256
 4437TIP3    H234871   5.185   2.897   2.141 -0.8329 -0.3209  0.0005
 4438TIP3   OH234872   2.584   0.999   7.819  0.2030 -0.3347 -0.4220
 4438TIP3    H134873   2.516   0.980   7.754 -0.0047  0.3615 -0.4137
 4438TIP3    H234874   2.535   1.015   7.900  0.4626 -1.2239 -0.0768
 4439TIP3   OH234875   0.146   4.123   6.934  0.1284  0.1175  0.3166
 4439TIP3    H134876   0.173   4.037   6.901  0.7188 -0.1396  1.4369
 4439TIP3    H234877   0.217   4.182   6.907  0.1179  0.1045  0.2600
 4440TIP3   OH234878   6.252   5.182   8.119  0.8796 -0.6443 -0.0689
 4440TIP3    H134879   6.198   5.166   8.042  2.1924 -0.5603 -1.0604
 4440TIP3    H234880   6.208   5.137   8.190 -2.1232  1.9186 -0.1078
 4441TIP3   OH234881   6.120   5.395   8.700  0.0970  0.2063  0.1618
 4441TIP3    H134882   6.132   5.381   8.794  1.5388 -1.0236 -0.1623
 4441TIP3    H234883   6.028   5.373   8.684 -0.5030  1.5553  1.4265
 4442TIP3   OH234884   6.090   4.984   0.588  0.9004 -0.3001 -0.1464
 4442TIP3    H134885   6.158   5.050   0.604  1.5685 -1.2329  1.0573
 4442TIP3    H234886   6.083   4.937   0.670 -0.6418 -0.7762 -0.5192
 4443TIP3   OH234887   0.526   2.083   8.410  0.1159  0.1589  0.3735
 4443TIP3    H134888   0.448   2.064   8.357  1.0760  0.6600 -1.2972
 4443TIP3    H234889   0.503   2.163   8.458 -0.1164  0.8018 -0.7654
 4444TIP3   OH234890   6.592   2.360   1.827  0.0239 -0.6586  0.0219
 4444TIP3    H134891   6.562   2.449   1.809 -1.4682 -1.2861 -0.7717
 4444TIP3    H234892   6.549   2.336   1.909  0.2660 -0.7174  0.1321
 4445TIP3   OH234893   2.970   5.204   6.775 -0.0289 -0.4579  0.0478
 4445TIP3    H134894   2.980   5.205   6.680 -0.8147  1.3879 -0.0622
 4445TIP3    H234895   2.904   5.136   6.791 -1.2031  0.4016 -0.9233
 4446TIP3   OH234896   0.007   1.713   8.365  0.4532  0.3527 -0.0259
 4446TIP3    H134897  -0.061   1.645   8.370  0.2634  0.6038  1.2704
 4446TIP3    H234898   0.066   1.693   8.438  0.7613  1.1885 -0.0369
 4447TIP3   OH234899   2.638   5.182   7.412  0.4964 -0.2126 -0.2783
 4447TIP3    H134900   2.652   5.102   7.463 -1.7078 -2.4424 -2.8596
 4447TIP3    H234901   2.564   5.225   7.455  0.4191 -0.6081 -0.0101
 4448TIP3   OH234902   4.673   2.471   6.076  0.0289  0.3088 -0.0055
 4448TIP3    H134903   4.625   2.412   6.018  0.6271  0.1726 -0.3706
 4448TIP3    H234904   4.629   2.462   6.161 -1.2954  1.0437 -0.5869
 4449TIP3   OH234905   0.894   0.410   1.526 -0.6937 -0.1321 -0.5338
 4449TIP3    H134906   0.970   0.356   1.506  0.2242  0.5604  0.8659
 4449TIP3    H234907   0.929   0.499   1.534 -1.5222  0.1122  0.7337
 4450TIP3   OH234908   1.772   3.463   8.698  0.0793 -0.1708 -0.2372
 4450TIP3    H134909   1.857   3.469   8.742  0.8540  0.2986 -1.7183
 4450TIP3    H234910   1.726   3.393   8.745  2.1768 -2.0383 -0.7889
 4451TIP3   OH234911   0.961   2.947   1.271 -0.3528  0.3159 -0.3076
 4451TIP3    H134912   1.031   3.010   1.290  0.0048  0.7716 -2.7470
 4451TIP3    H234913   0.882   3.000   1.267 -0.5169  0.1309  0.4659
 4452TIP3   OH234914   4.937   4.410   7.648  1.0442  0.4833  0.3027
 4452TIP3    H134915   4.991   4.467   7.593  0.8339 -1.1496 -1.7144
 4452TIP3    H234916   5.000   4.347   7.684  0.7325 -0.5597 -0.9144
 4453TIP3   OH234917   3.956   4.899   1.790 -0.7233 -0.2871  0.4640
 4453TIP3    H134918   4.017   4.941   1.852 -2.9591 -0.2517  2.8185
 4453TIP3    H234919   3.888   4.964   1.776 -1.2149 -1.0058 -0.5783
 4454TIP3   OH234920   6.212   0.867   1.709  0.1334  0.1682 -0.3326
 4454TIP3    H134921   6.241   0.780   1.680 -1.5625 -0.4225 -0.3804
 4454TIP3    H234922   6.127   0.879   1.667 -0.6227  0.9507  1.3477
 4455TIP3   OH234923   1.790   4.266   0.322  0.4500 -0.0863 -0.2109
 4455TIP3    H134924   1.766   4.341   0.268 -0.4890 -1.1216 -1.2931
 4455TIP3    H234925   1.779   4.190   0.264  1.1754 -1.0842  0.9051
 4456TIP3   OH234926   6.126   3.286   0.785  0.1431 -0.3193 -0.6139
 4456TIP3    H134927   6.090   3.237   0.859  1.8062 -1.6707 -0.6416
 4456TIP3    H234928   6.050   3.328   0.744 -1.1147 -1.4962  0.4364
 4457TIP3   OH234929   1.622   5.525   7.843  0.2139  0.4746  0.0544
 4457TIP3    H134930   1.692   5.460   7.841 -0.4925 -0.5298  2.9650
 4457TIP3    H234931   1.643   5.580   7.918 -1.9378  0.2750  0.8792
 4458TIP3   OH234932   3.580   1.434   0.723 -0.8938  0.1153  0.0726
 4458TIP3    H134933   3.490   1.441   0.755 -0.6698  0.3046  0.6658
 4458TIP3    H234934   3.583   1.494   0.648 -0.9997  0.8579  0.6463
 4459TIP3   OH234935   1.711   1.408   0.902  0.8383 -0.1296 -0.5026
 4459TIP3    H134936   1.679   1.469   0.835  0.4465  1.0919  0.7320
 4459TIP3    H234937   1.707   1.322   0.860 -1.1121  0.3580 -1.4802
 4460TIP3   OH234938   3.458   5.098   6.365 -0.0355  0.3607  0.3508
 4460TIP3    H134939   3.365   5.087   6.385  0.0290 -0.9369  0.0105
 4460TIP3    H234940   3.471   5.051   6.282  1.2345 -0.9242  1.2128
 4461TIP3   OH234941   1.238   5.212   7.853 -0.3678 -0.4261  0.4489
 4461TIP3    H134942   1.320   5.238   7.811  0.2198 -2.1686  0.4452
 4461TIP3    H234943   1.262   5.194   7.944 -0.7390 -0.9583  0.4451
 4462TIP3   OH234944   0.746   5.134   7.142 -0.1782 -0.1916  0.3081
 4462TIP3    H134945   0.713   5.074   7.209  0.9646 -0.2166  0.8749
 4462TIP3    H234946   0.828   5.167   7.178 -0.6555  1.5339 -0.1102
 4463TIP3   OH234947   1.047   4.423   6.924  0.4984  0.6083  0.1872
 4463TIP3    H134948   1.070   4.337   6.889 -1.2595  0.3947 -0.5219
 4463TIP3    H234949   0.973   4.407   6.982  2.1095  1.2505  2.5507
 4464TIP3   OH234950   6.465   3.052   7.064  0.3592 -0.4495 -0.7318
 4464TIP3    H134951   6.484   3.018   7.151 -0.5919  1.3154  0.2280
 4464TIP3    H234952   6.377   3.090   7.072 -0.2608 -1.3062 -2.8094
 4465TIP3   OH234953   2.964   2.792   0.648  0.1574 -0.1572  0.2878
 4465TIP3    H134954   2.944   2.699   0.663  1.1662 -0.6735 -1.2898
 4465TIP3    H234955   3.056   2.800   0.671  1.1505 -0.4879 -3.0013
 4466TIP3   OH234956   2.894   1.358   7.459 -0.3674 -0.0489 -0.0965
 4466TIP3    H134957   2.924   1.434   7.409 -0.1314 -1.1444 -1.7133
 4466TIP3    H234958   2.853   1.301   7.394  1.3309 -2.2646  0.6632
 4467TIP3   OH234959   6.043   6.082   8.265 -0.1774  0.0584 -0.0647
 4467TIP3    H134960   6.136   6.098   8.284 -0.0808  1.7946 -1.7308
 4467TIP3    H234961   5.997   6.153   8.310 -0.7428 -0.8611  0.8522
 4468TIP3   OH234962   1.628   5.074   7.776 -0.2970 -0.0718  0.0427
 4468TIP3    H134963   1.571   5.143   7.741  0.3798 -0.1454 -1.2701
 4468TIP3    H234964   1.594   4.994   7.737  1.6493  0.0591 -2.1163
 4469TIP3   OH234965   0.431   1.483   8.029 -0.4399 -0.2477  0.0872
 4469TIP3    H134966   0.390   1.404   7.993  1.5098 -0.7589 -1.1697
 4469TIP3    H234967   0.359   1.532   8.067 -2.0156 -1.6643 -0.9199
 4470TIP3   OH234968   2.225   6.389   6.849  0.8531  0.7958 -0.9554
 4470TIP3    H134969   2.306   6.358   6.889  1.5617  1.2748 -1.9894
 4470TIP3    H234970   2.253   6.444   6.776 -0.3460  3.1458  0.2340
 4471TIP3   OH234971   3.789   4.352   2.440 -0.2300 -0.1844 -0.2617
 4471TIP3    H134972   3.704   4.307   2.449 -0.2970  0.1268  0.9375
 4471TIP3    H234973   3.851   4.282   2.420 -0.6972 -0.4848 -0.6808
 4472TIP3   OH234974   2.031   3.515   3.001 -0.5921  0.2734 -0.3536
 4472TIP3    H134975   2.057   3.603   3.030  1.1479 -1.2590  3.3641
 4472TIP3    H234976   2.101   3.489   2.941  0.2242  0.5573  0.4454
 4473TIP3   OH234977   1.028   6.356   8.373 -0.1381 -0.1274  0.6218
 4473TIP3    H134978   1.121   6.348   8.393  0.2061  0.1309 -0.7703
 4473TIP3    H234979   0.997   6.265   8.366  0.3611 -0.2269 -0.4060
 4474TIP3   OH234980   2.085   4.638   7.612 -0.3492  0.4960  0.2510
 4474TIP3    H134981   2.037   4.641   7.529  0.1247  0.3047 -0.0361
 4474TIP3    H234982   2.045   4.567   7.661 -0.1257  0.1071 -0.1301
 4475TIP3   OH234983   5.424   5.958   1.122 -0.1190 -0.1365  0.0467
 4475TIP3    H134984   5.407   5.914   1.205  0.1035 -0.2569  0.0286
 4475TIP3    H234985   5.412   6.051   1.141  1.7357  0.0033  0.6678
 4476TIP3   OH234986   5.528   3.262   1.466 -0.3076 -0.4969 -0.5657
 4476TIP3    H134987   5.476   3.302   1.535 -0.1538 -1.6440  0.2422
 4476TIP3    H234988   5.593   3.209   1.512  1.0741  0.2685 -1.5725
 4477TIP3   OH234989   2.316   6.035   7.246 -0.0571  0.2437 -0.6654
 4477TIP3    H134990   2.315   6.029   7.341 -1.4785 -0.2108 -0.6816
 4477TIP3    H234991   2.250   6.101   7.225  1.5499  1.7291 -1.2973
 4478TIP3   OH234992   1.578   0.349   0.302 -0.4617 -0.1224  0.3152
 4478TIP3    H134993   1.602   0.290   0.231  0.0470  0.5020 -0.0385
 4478TIP3    H234994   1.504   0.399   0.267 -0.3952 -0.0131  0.3306
 4479TIP3   OH234995   1.175   3.072   8.761  0.0501  0.8529 -0.2222
 4479TIP3    H134996   1.092   3.098   8.801  0.9241  2.9606  0.3607
 4479TIP3    H234997   1.211   3.007   8.822 -0.0861  1.7169  0.8183
 4480TIP3   OH234998   1.045   1.075   6.925 -0.5197  0.3897 -0.3157
 4480TIP3    H134999   0.974   1.044   6.870  0.9865 -1.8103 -1.1802
 4480TIP3    H235000   1.068   0.999   6.980 -0.2482  1.7191  1.5089
 4481TIP3   OH235001   3.956   3.688   8.523 -0.0373 -0.2733  0.0836
 4481TIP3    H135002   3.860   3.692   8.524 -0.0710 -0.7025 -0.4285
 4481TIP3    H235003   3.984   3.779   8.526 -0.5073 -0.0516 -1.3582
 4482TIP3   OH235004   2.879   6.255   7.279 -0.3414 -0.0725  0.4351
 4482TIP3    H135005   2.840   6.332   7.320 -0.7769 -1.2640  2.4237
 4482TIP3    H235006   2.807   6.212   7.235 -0.1443  0.5182 -0.4818
 4483TIP3   OH235007   4.242   5.389   6.220 -0.7989 -0.4480  0.0686
 4483TIP3    H135008   4.277   5.301   6.209 -1.2794 -0.8500  1.5686
 4483TIP3    H235009   4.316   5.442   6.248 -0.3286 -0.1570 -1.5870
 4484TIP3   OH235010   3.506   6.304   1.705  0.3588 -0.5586 -0.0596
 4484TIP3    H135011   3.595   6.336   1.722 -0.2260  0.2713  1.7333
 4484TIP3    H235012   3.489   6.328   1.614  1.2212  1.2214  0.2057
 4485TIP3   OH235013   1.387   4.563   7.641 -0.2382  0.1063  0.9352
 4485TIP3    H135014   1.415   4.489   7.586  0.8139 -0.6239  2.4015
 4485TIP3    H235015   1.306   4.532   7.683 -2.0986  1.3273 -1.4494
 4486TIP3   OH235016   2.391   0.169   8.006  0.1863  0.1081  0.7381
 4486TIP3    H135017   2.308   0.131   8.038 -0.5573  0.3500 -0.7999
 4486TIP3    H235018   2.364   0.238   7.945  1.5190 -0.0231 -0.0409
 4487TIP3   OH235019   4.019   2.279   0.148 -0.5961 -0.0103  0.0723
 4487TIP3    H135020   4.091   2.240   0.098  0.6993  0.9886  1.0768
 4487TIP3    H235021   4.016   2.370   0.119  1.6218  1.2369  3.1342
 4488TIP3   OH235022   2.016   3.515   1.884 -0.1843  0.2059  0.1366
 4488TIP3    H135023   1.997   3.537   1.975 -1.2882 -0.9567  0.2116
 4488TIP3    H235024   2.039   3.422   1.886 -1.5946 -0.2088 -0.9168
 4489TIP3   OH235025   3.406   1.256   0.294 -0.5082 -0.2827 -0.1200
 4489TIP3    H135026   3.466   1.182   0.305  1.2231  1.1256  0.3380
 4489TIP3    H235027   3.398   1.292   0.382  0.9453  1.7250 -0.7423
 4490TIP3   OH235028   0.990   0.034   0.443  0.1945 -0.0586 -0.0290
 4490TIP3    H135029   1.043   0.048   0.365 -1.3426  0.8716 -0.9712
 4490TIP3    H235030   1.003   0.112   0.495  1.1477 -0.6391  0.6325
 4491TIP3   OH235031   3.571   2.884   0.881 -0.4174  0.2551 -0.6850
 4491TIP3    H135032   3.629   2.841   0.944 -0.2657 -0.5728 -1.3797
 4491TIP3    H235033   3.545   2.815   0.821 -1.8378  0.6848 -0.6111
 4492TIP3   OH235034   4.943   5.818   7.512  0.2731 -0.6413  0.0828
 4492TIP3    H135035   4.939   5.738   7.564 -0.3015 -0.1212  0.8793
 4492TIP3    H235036   4.878   5.805   7.443  0.3401 -0.9504  0.0791
 4493TIP3   OH235037   3.445   4.184   7.486  0.0741 -0.0364  0.2056
 4493TIP3    H135038   3.364   4.132   7.482 -0.3224  0.5320  0.7324
 4493TIP3    H235039   3.424   4.265   7.440  0.3764  0.0612  0.2393
 4494TIP3   OH235040   6.214   3.868   7.943 -0.4006 -0.4076  0.4462
 4494TIP3    H135041   6.208   3.963   7.953  0.6370 -0.1700 -0.9438
 4494TIP3    H235042   6.132   3.835   7.981  0.1294  0.8440  2.8923
 4495TIP3   OH235043   2.091   1.189   0.868  0.1059 -0.6253 -1.0080
 4495TIP3    H135044   2.154   1.189   0.795  0.0158  0.1481 -1.1025
 4495TIP3    H235045   2.069   1.097   0.881  2.2443 -1.0731 -0.1020
 4496TIP3   OH235046   4.052   6.069   0.713  0.1886  0.2732  0.5709
 4496TIP3    H135047   4.138   6.089   0.676  0.2946 -0.2031  0.5486
 4496TIP3    H235048   4.066   5.988   0.763 -0.9323 -1.7144 -2.1261
 4497TIP3   OH235049   3.439   2.018   8.112  0.5073 -0.4410  0.1267
 4497TIP3    H135050   3.501   2.045   8.045  0.3383 -3.3761 -1.3667
 4497TIP3    H235051   3.375   2.089   8.117 -0.3669 -0.7140 -4.0405
 4498TIP3   OH235052   2.886   4.974   0.328 -0.2063 -0.0987 -0.7246
 4498TIP3    H135053   2.896   5.003   0.418 -0.5780  0.1901 -0.7761
 4498TIP3    H235054   2.833   5.041   0.286  1.7789  0.9167 -1.7459
 4499TIP3   OH235055   4.339   1.516   8.751  0.3627 -0.1995  0.7034
 4499TIP3    H135056   4.430   1.544   8.744  0.1341  0.2615 -0.6682
 4499TIP3    H235057   4.344   1.421   8.757  0.9539 -0.1410  1.2703
 4500TIP3   OH235058   4.604   2.297   2.069  0.0501  0.5361 -0.1517
 4500TIP3    H135059   4.620   2.206   2.046  1.5787  0.8482 -0.4657
 4500TIP3    H235060   4.670   2.316   2.137  0.5548  1.7100 -0.9294
 4501TIP3   OH235061   0.431   5.280   8.341  0.6266  0.1896  0.3882
 4501TIP3    H135062   0.458   5.191   8.315 -0.2234 -0.5429  1.8923
 4501TIP3    H235063   0.381   5.312   8.266  0.6858 -0.7217 -0.0582
 4502TIP3   OH235064   5.377   5.707   0.339  0.0109 -0.0709  0.1702
 4502TIP3    H135065   5.376   5.796   0.374 -0.9872  0.3191 -0.7953
 4502TIP3    H235066   5.455   5.667   0.378  1.9870  2.0192 -1.3329
 4503TIP3   OH235067   3.307   1.557   1.503  0.0862 -0.1768  0.5176
 4503TIP3    H135068   3.284   1.650   1.507  0.6518 -0.0202  0.2200
 4503TIP3    H235069   3.224   1.513   1.487 -0.1739  0.2887  0.5643
 4504TIP3   OH235070   1.482   4.808   1.236 -0.1875  0.1757  0.5779
 4504TIP3    H135071   1.436   4.778   1.314 -1.0290 -2.7009 -0.8696
 4504TIP3    H235072   1.573   4.815   1.263 -0.5812  0.0720  2.0167
 4505TIP3   OH235073   4.318   0.819   8.215 -0.2860  0.1483 -0.2310
 4505TIP3    H135074   4.234   0.865   8.209 -0.3078 -0.0716 -1.9934
 4505TIP3    H235075   4.334   0.787   8.127  1.4549 -0.1998  0.1852
 4506TIP3   OH235076   3.944   6.024   7.018 -0.3373  0.4407  0.1718
 4506TIP3    H135077   4.018   6.058   6.968 -0.8876  1.2443 -0.1304
 4506TIP3    H235078   3.941   6.080   7.097 -1.1486  1.0133 -0.2456
 4507TIP3   OH235079   0.075   3.012   7.323 -0.0282  0.1970 -0.3342
 4507TIP3    H135080   0.164   2.977   7.331 -0.1179  0.1051  0.3676
 4507TIP3    H235081   0.087   3.107   7.323  0.1036  0.1823 -0.7206
 4508TIP3   OH235082   6.722   4.109   8.523  0.3728 -0.4584 -0.8111
 4508TIP3    H135083   6.727   4.091   8.429  0.6170  0.2466 -0.9470
 4508TIP3    H235084   6.629   4.119   8.541  0.3391 -0.3393 -1.0409
 4509TIP3   OH235085   6.014   5.444   7.225  0.0250 -0.1077 -0.1596
 4509TIP3    H135086   5.991   5.397   7.304  1.5564  0.2590  0.5325
 4509TIP3    H235087   6.072   5.514   7.254 -0.7104  1.0886 -1.3950
 4510TIP3   OH235088   4.215   5.873   1.766  0.3577  0.6974 -0.3714
 4510TIP3    H135089   4.310   5.873   1.762  0.3228 -0.5127 -1.6376
 4510TIP3    H235090   4.186   5.852   1.677 -1.1010  1.2003 -0.0561
 4511TIP3   OH235091   1.285   6.312   8.436  0.3430  0.6493 -0.3384
 4511TIP3    H135092   1.347   6.339   8.505 -1.2528 -0.6707  1.7335
 4511TIP3    H235093   1.333   6.247   8.386  1.0990  0.6184  0.3965
 4512TIP3   OH235094   1.141   4.007   8.495  0.6770 -0.2473 -0.1062
 4512TIP3    H135095   1.150   4.087   8.443 -1.6376 -0.0385 -0.3163
 4512TIP3    H235096   1.173   3.937   8.439 -1.6975 -0.0271 -1.9001
 4513TIP3   OH235097   2.217   0.579   0.029 -0.4284  0.6518 -0.5639
 4513TIP3    H135098   2.152   0.578   0.099  2.0206  0.7212  1.9011
 4513TIP3    H235099   2.257   0.666   0.035  1.2396 -0.0660 -0.5645
 4514TIP3   OH235100   3.952   0.958   7.313  0.6856  0.5200  0.0528
 4514TIP3    H135101   3.969   0.868   7.341  0.8914  0.0123 -1.6003
 4514TIP3    H235102   3.859   0.972   7.331  0.7966  0.2124  0.9063
 4515TIP3   OH235103   4.555   0.773   1.312  0.1996 -0.6767 -0.3731
 4515TIP3    H135104   4.633   0.792   1.365 -0.1691  0.5064 -0.2182
 4515TIP3    H235105   4.590   0.758   1.223  0.5750  0.3727 -0.4186
 4516TIP3   OH235106   0.312   5.754   7.240  0.2733  0.4987  0.4033
 4516TIP3    H135107   0.389   5.713   7.281 -0.3430 -0.1916  0.8898
 4516TIP3    H235108   0.349   5.827   7.189  1.5028 -1.1849 -1.2397
 4517TIP3   OH235109   3.357   5.875   0.662 -0.2048 -0.1117  0.2383
 4517TIP3    H135110   3.302   5.881   0.740 -1.1985 -0.4791 -0.4058
 4517TIP3    H235111   3.331   5.791   0.622  0.0262  0.2431 -0.6665
 4518TIP3   OH235112   0.175   3.969   1.701 -0.0096 -0.2117  0.3254
 4518TIP3    H135113   0.208   4.005   1.619 -0.7255  0.0964  0.1626
 4518TIP3    H235114   0.186   4.040   1.764  2.8442 -1.2461  1.1292
 4519TIP3   OH235115   1.807   0.909   1.394  0.5970  0.0306  0.8330
 4519TIP3    H135116   1.806   0.829   1.446  0.4686 -0.5027  0.0294
 4519TIP3    H235117   1.878   0.896   1.331 -0.4108 -0.1144 -0.2967
 4520TIP3   OH235118   3.053   0.974   1.667  0.4384  1.0404  0.1726
 4520TIP3    H135119   3.040   0.979   1.573 -1.5293 -0.4163  0.2881
 4520TIP3    H235120   3.147   0.991   1.680  0.8754  0.6334 -2.0847
 4521TIP3   OH235121   5.989   4.947   7.841  0.2619  0.2366  0.0700
 4521TIP3    H135122   5.959   4.890   7.912 -1.0856  0.2805 -0.4369
 4521TIP3    H235123   5.909   4.970   7.793  1.1238  0.2417 -1.4360
 4522TIP3   OH235124   4.627   0.603   1.532 -0.4661  0.1062  0.1780
 4522TIP3    H135125   4.551   0.650   1.568 -0.9656  0.7648 -1.6392
 4522TIP3    H235126   4.686   0.592   1.607 -1.7947  0.7053  1.3550
 4523TIP3   OH235127   2.147   0.654   7.329  0.1934  0.2076 -0.1825
 4523TIP3    H135128   2.129   0.735   7.282 -1.5224  0.2974  0.5550
 4523TIP3    H235129   2.081   0.592   7.296 -0.0617 -0.1677  0.9772
 4524TIP3   OH235130   1.199   4.414   1.581  1.1204  0.3103  0.2143
 4524TIP3    H135131   1.226   4.322   1.581  0.4031  0.0798  1.2385
 4524TIP3    H235132   1.249   4.454   1.652 -0.2438  0.1528  1.3224
 4525TIP3   OH235133   3.930   3.453   7.839 -0.7614 -0.6167  0.3035
 4525TIP3    H135134   3.972   3.515   7.779 -2.0289 -1.4290 -1.4821
 4525TIP3    H235135   3.894   3.509   7.909  1.9608  0.2128  1.1602
 4526TIP3   OH235136   4.216   5.644   7.801 -0.4192 -0.1272  0.0872
 4526TIP3    H135137   4.125   5.662   7.823 -0.5896  0.2684 -0.8997
 4526TIP3    H235138   4.229   5.686   7.716  0.8232  0.2457  0.4419
 4527TIP3   OH235139   1.666   3.890   1.705  0.0790  0.1925  0.6396
 4527TIP3    H135140   1.688   3.805   1.667  0.1933  1.0044 -1.2368
 4527TIP3    H235141   1.596   3.871   1.767  0.1969 -1.2917  0.3619
 4528TIP3   OH235142   3.958   1.413   7.544 -0.4112 -0.1001  0.4418
 4528TIP3    H135143   3.958   1.399   7.449 -1.1313  1.0286  0.2581
 4528TIP3    H235144   3.873   1.379   7.572 -0.2152 -0.3956  0.6825
 4529TIP3   OH235145   0.100   4.800   0.029  0.4147  0.4816  0.6604
 4529TIP3    H135146   0.040   4.740   0.074  0.3097  0.1947  0.1444
 4529TIP3    H235147   0.044   4.853  -0.027  0.7351 -0.4676 -0.5888
 4530TIP3   OH235148   0.017   5.318   7.264 -0.2976  0.0137  0.3818
 4530TIP3    H135149   0.001   5.302   7.171  1.6424 -0.2972  0.0593
 4530TIP3    H235150   0.024   5.413   7.271  0.2675  0.0017  0.0598
 4531TIP3   OH235151   3.509   6.693   2.438  0.2787  0.1588  0.0181
 4531TIP3    H135152   3.491   6.608   2.478  0.7906  0.0254 -0.0232
 4531TIP3    H235153   3.604   6.703   2.444  0.4685 -0.1554 -1.7106
 4532TIP3   OH235154   0.465   0.129   2.249  0.3324 -0.5067 -0.0639
 4532TIP3    H135155   0.371   0.144   2.238  0.3114 -0.6708 -0.1092
 4532TIP3    H235156   0.496   0.205   2.299  0.0327 -0.8530  0.6551
 4533TIP3   OH235157   5.347   2.064   6.845  0.2301 -0.1988  0.4672
 4533TIP3    H135158   5.271   2.011   6.869 -0.4614 -0.8266 -2.7186
 4533TIP3    H235159   5.418   2.029   6.898 -1.3242 -0.6659  2.3571
 4534TIP3   OH235160   2.214   5.332   1.610 -0.2301 -0.5352  0.0090
 4534TIP3    H135161   2.264   5.279   1.548  0.8958 -0.0548  0.4882
 4534TIP3    H235162   2.208   5.278   1.689 -0.0446 -0.3988  0.1170
 4535TIP3   OH235163   2.916   6.549   7.863 -0.4866  0.8232  0.7819
 4535TIP3    H135164   2.916   6.504   7.948  1.5643 -1.5239 -0.3401
 4535TIP3    H235165   2.836   6.520   7.820 -0.1542 -0.2746  0.8596
 4536TIP3   OH235166   0.549   3.240   7.928 -0.5060  0.1896 -0.2403
 4536TIP3    H135167   0.482   3.289   7.880  1.1979  1.1261 -1.7954
 4536TIP3    H235168   0.501   3.168   7.970 -2.4504  0.7811 -1.3267
 4537TIP3   OH235169   2.484   3.486   1.433  0.0494  0.3347  0.8419
 4537TIP3    H135170   2.430   3.436   1.371 -0.8642  2.6470 -0.3414
 4537TIP3    H235171   2.436   3.480   1.516 -0.7267  0.3067  0.3994
 4538TIP3   OH235172   5.937   5.842   0.933  0.9376 -0.2641 -0.2654
 4538TIP3    H135173   5.865   5.890   0.974 -1.3970 -1.6310 -2.5117
 4538TIP3    H235174   5.943   5.760   0.984  0.2260 -0.5705 -0.6682
 4539TIP3   OH235175   6.248   6.691   1.295 -0.2631 -0.1285  0.1828
 4539TIP3    H135176   6.308   6.692   1.370  0.1379  0.9541 -0.1366
 4539TIP3    H235177   6.281   6.620   1.240  0.3693  0.0626  0.3027
 4540TIP3   OH235178   3.056   4.932   7.551 -0.3232  0.2928  0.5024
 4540TIP3    H135179   2.987   4.866   7.559  1.1677 -1.3979  0.1232
 4540TIP3    H235180   3.109   4.921   7.630  0.3822  0.4880  0.0677
 4541TIP3   OH235181   5.501   6.381   8.471 -1.0265 -0.5008  0.6127
 4541TIP3    H135182   5.422   6.428   8.444 -0.8055  0.2143  1.1918
 4541TIP3    H235183   5.471   6.323   8.541 -1.1898 -0.8231  0.2795
 4542TIP3   OH235184   2.699   5.778   1.228  0.1518 -0.0685 -0.7422
 4542TIP3    H135185   2.772   5.751   1.172  0.5428  1.4059 -0.9868
 4542TIP3    H235186   2.707   5.874   1.234  1.1865 -0.2167  3.2203
 4543TIP3   OH235187   5.110   1.802   8.050  0.4542  0.2800  0.6008
 4543TIP3    H135188   5.202   1.821   8.032  0.1642  1.2494  0.0857
 4543TIP3    H235189   5.062   1.863   7.995 -0.4928  1.2688  2.4511
 4544TIP3   OH235190   5.377   3.125   0.677  0.3419  0.4242  0.1776
 4544TIP3    H135191   5.327   3.178   0.739 -1.7003  1.0080 -1.8454
 4544TIP3    H235192   5.397   3.184   0.605  1.7864 -0.4834 -0.2109
 4545TIP3   OH235193   3.903   3.175   7.795 -0.4495  0.1752 -0.4357
 4545TIP3    H135194   3.989   3.132   7.791 -0.6549 -0.1847 -2.2590
 4545TIP3    H235195   3.923   3.268   7.802  0.1069  0.0778 -0.6547
 4546TIP3   OH235196   6.433   0.853   8.055 -0.2327  0.0248 -0.5353
 4546TIP3    H135197   6.457   0.944   8.070 -0.0200 -0.2000  0.5907
 4546TIP3    H235198   6.338   0.851   8.067 -0.3306  0.2199 -1.2480
 4547TIP3   OH235199   1.409   0.188   8.392  0.3389  0.1375 -0.0478
 4547TIP3    H135200   1.469   0.262   8.405  0.5546 -0.3055  1.7886
 4547TIP3    H235201   1.346   0.220   8.328  1.2116  1.4410 -0.3039
 4548TIP3   OH235202   3.161   3.068   8.532 -0.5169  0.2289  0.4304
 4548TIP3    H135203   3.193   3.108   8.612 -1.1049 -1.0050  1.3143
 4548TIP3    H235204   3.150   2.975   8.554 -0.4580 -0.1818 -1.1494
 4549TIP3   OH235205   6.170   2.143   1.419 -0.3161 -0.2529 -0.1644
 4549TIP3    H135206   6.229   2.138   1.494  0.5383 -1.5012 -0.8607
 4549TIP3    H235207   6.160   2.052   1.391  0.0625  0.2336 -2.0470
 4550TIP3   OH235208   0.096   6.792   0.183  0.2735  0.2853  0.2178
 4550TIP3    H135209   0.108   6.713   0.130 -0.7302  0.3378 -0.1148
 4550TIP3    H235210   0.045   6.851   0.127  0.4872  0.9323  0.6917
 4551TIP3   OH235211   2.651   0.823   0.148  0.0475  0.5763 -0.2533
 4551TIP3    H135212   2.601   0.797   0.071 -0.8782  0.0222  0.5140
 4551TIP3    H235213   2.586   0.855   0.210  0.8238  1.4312  0.1520
 4552TIP3   OH235214   6.333   3.703   0.278 -0.1523  0.2724  0.3242
 4552TIP3    H135215   6.360   3.694   0.370  0.2994 -1.1784  0.0701
 4552TIP3    H235216   6.407   3.668   0.228 -1.2225 -0.8622 -0.5078
 4553TIP3   OH235217   1.261   5.810   7.687 -0.0595  0.1505  0.0410
 4553TIP3    H135218   1.296   5.733   7.733 -0.3517  0.2399  0.4161
 4553TIP3    H235219   1.180   5.831   7.734 -0.2549  0.3658 -0.3938
 4554TIP3   OH235220   2.840   6.140   8.162  0.3059  0.7509 -0.4252
 4554TIP3    H135221   2.860   6.176   8.075  1.6042 -0.2837 -0.5747
 4554TIP3    H235222   2.873   6.051   8.160 -0.0318  0.5665  1.0098
 4555TIP3   OH235223   5.371   0.308   1.391  0.6004 -0.3330  0.1472
 4555TIP3    H135224   5.467   0.315   1.390  0.5997 -0.2266 -1.6170
 4555TIP3    H235225   5.352   0.233   1.335 -0.3537 -0.7391  0.9751
 4556TIP3   OH235226   5.572   4.522   1.490  0.1593  0.3297 -0.8546
 4556TIP3    H135227   5.636   4.454   1.511  0.1888  0.1393 -1.5400
 4556TIP3    H235228   5.497   4.501   1.545  0.7407  0.6618  0.0946
 4557TIP3   OH235229   4.566   5.427   1.954  0.2871  0.1352  0.6793
 4557TIP3    H135230   4.512   5.492   1.911  0.3484 -0.4094 -0.2498
 4557TIP3    H235231   4.655   5.445   1.922  0.4006 -0.0049  0.9125
 4558TIP3   OH235232   0.566   6.601   7.342  0.9642  0.1672  0.0842
 4558TIP3    H135233   0.510   6.678   7.348  1.0141  0.2250 -0.2101
 4558TIP3    H235234   0.531   6.542   7.409  0.9723  0.4727  0.3649
 4559TIP3   OH235235   6.411   0.138   0.874 -0.2221  0.1140 -0.0249
 4559TIP3    H135236   6.346   0.208   0.880 -0.7542 -0.2521 -1.1959
 4559TIP3    H235237   6.439   0.124   0.964 -1.7944  0.2525  0.5154
 4560TIP3   OH235238   5.308   5.784   1.807  0.3813 -0.1034 -0.9504
 4560TIP3    H135239   5.369   5.764   1.878 -0.1572 -1.9056 -0.9587
 4560TIP3    H235240   5.241   5.838   1.848  1.3694  0.9565 -0.6846
 4561TIP3   OH235241   3.910   4.459   7.450  0.3312  0.8613  0.4813
 4561TIP3    H135242   3.880   4.539   7.407 -0.1605  0.3212 -0.2009
 4561TIP3    H235243   3.904   4.478   7.543 -0.3597  1.4133  0.3258
 4562TIP3   OH235244   0.863   4.899   1.406  1.0182 -0.2377  0.1552
 4562TIP3    H135245   0.942   4.872   1.359  0.4091  1.3417 -1.9215
 4562TIP3    H235246   0.804   4.824   1.399  1.0317 -0.1254 -1.4724
 4563TIP3   OH235247   6.726   5.454   0.047 -0.3450 -0.5695 -0.1506
 4563TIP3    H135248   6.709   5.538   0.005  0.7020 -0.6416 -0.7655
 4563TIP3    H235249   6.671   5.455   0.125 -1.0477  0.2901 -0.6361
 4564TIP3   OH235250   6.204   5.600   7.345 -0.1196 -0.4868  0.3602
 4564TIP3    H135251   6.263   5.671   7.322  0.4789 -0.3318  2.1629
 4564TIP3    H235252   6.262   5.529   7.373 -0.5750 -2.6087 -3.3864
 4565TIP3   OH235253   2.318   1.860   6.285 -0.4305 -0.8837  0.0740
 4565TIP3    H135254   2.266   1.863   6.366 -1.9857 -0.2727 -0.8889
 4565TIP3    H235255   2.326   1.952   6.259 -0.2251 -1.0985 -0.6308
 4566TIP3   OH235256   4.165   2.848   1.246  0.0633 -0.3963 -0.4843
 4566TIP3    H135257   4.241   2.897   1.215 -1.0905  0.0692 -2.7764
 4566TIP3    H235258   4.135   2.897   1.323  1.2992  0.1699 -0.3427
 4567TIP3   OH235259   4.248   2.227   8.596 -0.0962  0.8126  0.0763
 4567TIP3    H135260   4.331   2.258   8.560 -0.4278  1.0057 -0.5438
 4567TIP3    H235261   4.181   2.268   8.541 -0.5724 -0.3208 -0.2185
 4568TIP3   OH235262   1.691   3.610   0.233 -0.5003  0.6254 -0.7537
 4568TIP3    H135263   1.755   3.680   0.219 -0.4003  0.5737 -0.5548
 4568TIP3    H235264   1.628   3.648   0.295 -0.3831  0.4997 -0.5570
 4569TIP3   OH235265   3.923   2.433   1.693  0.3573  0.3816 -0.6117
 4569TIP3    H135266   3.984   2.507   1.701 -1.2373  1.7323 -0.3868
 4569TIP3    H235267   3.946   2.375   1.765  2.1839  0.1990 -1.2712
 4570TIP3   OH235268   5.823   5.366   1.037 -0.0489  0.4089  0.5628
 4570TIP3    H135269   5.875   5.286   1.029  0.3352  0.4091  2.4805
 4570TIP3    H235270   5.737   5.337   1.066 -1.1060  0.4424 -2.2746
 4571TIP3   OH235271   2.182   1.879   6.517  0.0597  0.3407 -0.7874
 4571TIP3    H135272   2.180   1.822   6.594 -0.6365  1.1561 -0.1823
 4571TIP3    H235273   2.156   1.965   6.549  0.4847  0.8724 -1.8010
 4572TIP3   OH235274   4.905   0.501   0.984 -0.4179 -0.4817 -0.1296
 4572TIP3    H135275   4.993   0.532   1.009 -0.6053  0.3127 -0.4315
 4572TIP3    H235276   4.906   0.501   0.889 -0.3384 -1.6790 -0.1364
 4573TIP3   OH235277   1.637   5.029   0.363 -0.3889  0.2381 -0.1896
 4573TIP3    H135278   1.592   5.099   0.409  1.6426  0.7173  1.2161
 4573TIP3    H235279   1.671   5.069   0.283  0.5692  0.8559  0.4991
 4574TIP3   OH235280   6.333   2.845   8.668  0.2022  0.3661 -0.4063
 4574TIP3    H135281   6.247   2.849   8.627 -0.3463  2.4617  0.7709
 4574TIP3    H235282   6.315   2.841   8.762  1.4190 -0.9315 -0.1931
 4575TIP3   OH235283   4.590   6.094   8.480 -0.2666  0.0615  0.0160
 4575TIP3    H135284   4.618   6.072   8.569  0.2545 -0.5619 -0.2893
 4575TIP3    H235285   4.543   6.176   8.490 -0.7936 -0.3334  0.9607
 4576TIP3   OH235286   1.726   2.670   0.615  0.0281 -0.6055  0.6874
 4576TIP3    H135287   1.708   2.759   0.584 -0.6245 -0.4378  1.5018
 4576TIP3    H235288   1.808   2.676   0.663  1.1399 -0.9003 -1.0781
 4577TIP3   OH235289   4.388   4.005   6.766  0.1527 -0.9623  0.0391
 4577TIP3    H135290   4.378   4.031   6.675  1.2840  1.4364  0.5150
 4577TIP3    H235291   4.455   4.064   6.801 -0.0188 -1.9999  2.3538
 4578TIP3   OH235292   2.679   0.948   0.724  0.2685 -0.0887  0.0835
 4578TIP3    H135293   2.642   1.035   0.740 -1.2326 -0.8548  1.0627
 4578TIP3    H235294   2.619   0.908   0.661 -0.6717 -1.3569  1.6927
 4579TIP3   OH235295   1.172   4.539   0.351  0.3317 -0.6793  0.4955
 4579TIP3    H135296   1.168   4.599   0.426 -1.2607 -1.5573  1.1577
 4579TIP3    H235297   1.122   4.462   0.378  0.2567 -1.2995 -1.2376
 4580TIP3   OH235298   3.842   2.292   1.166  0.0045 -0.2054  0.0013
 4580TIP3    H135299   3.803   2.227   1.225 -1.6796  1.3166  0.6588
 4580TIP3    H235300   3.851   2.371   1.219 -2.1041  1.3890 -1.8308
 4581TIP3   OH235301   3.754   2.362   0.881 -0.2854  0.1366  0.4784
 4581TIP3    H135302   3.772   2.411   0.801  0.0095 -0.7874 -0.0350
 4581TIP3    H235303   3.831   2.376   0.936 -0.8716  1.5005  0.9863
 4582TIP3   OH235304   0.780   5.367   1.699 -0.2682  0.0080  0.0964
 4582TIP3    H135305   0.834   5.444   1.683 -0.5502  0.0279 -0.8325
 4582TIP3    H235306   0.797   5.310   1.624 -1.7773  0.1620 -0.4007
 4583TIP3   OH235307   0.887   4.078   1.598  0.0654 -0.0910 -0.3356
 4583TIP3    H135308   0.943   4.135   1.650 -0.4890 -1.2086  1.5611
 4583TIP3    H235309   0.948   4.029   1.542  0.9817 -0.8617  1.2623
 4584TIP3   OH235310   0.334   1.334   6.504  0.0134 -0.1205  0.3057
 4584TIP3    H135311   0.322   1.298   6.591 -0.0042  0.3925  0.5188
 4584TIP3    H235312   0.286   1.416   6.505  1.5104  0.7923  0.4033
 4585TIP3   OH235313   6.027   2.435   7.300  0.1057 -0.2207  0.0616
 4585TIP3    H135314   6.037   2.390   7.216 -0.1033 -0.2666  0.0600
 4585TIP3    H235315   6.104   2.409   7.350  0.6033  0.3926 -0.3769
 4586TIP3   OH235316   5.357   1.384   7.663  0.3403 -0.5219 -0.1011
 4586TIP3    H135317   5.325   1.426   7.584  0.1247 -1.3482 -0.4622
 4586TIP3    H235318   5.351   1.290   7.645  2.6821 -0.7258 -0.0814
 4587TIP3   OH235319   2.836   6.012   2.431 -0.3847  0.0615  0.5965
 4587TIP3    H135320   2.751   6.019   2.389 -0.1237 -0.5566 -0.0504
 4587TIP3    H235321   2.833   5.930   2.479 -0.1576  0.0368  0.5705
 4588TIP3   OH235322   2.153   1.567   8.449  0.2420  0.4406 -0.4773
 4588TIP3    H135323   2.162   1.660   8.428  0.0743  0.4016 -0.7216
 4588TIP3    H235324   2.151   1.524   8.364 -0.5777  0.2921 -0.3846
 4589TIP3   OH235325   2.301   2.016   0.073 -0.3472 -0.2118  0.0966
 4589TIP3    H135326   2.265   1.963   0.144 -0.7878 -0.9282 -0.6383
 4589TIP3    H235327   2.380   1.970   0.045  0.0323  0.2664  0.3585
 4590TIP3   OH235328   1.646   5.814   6.693  0.4029  0.2689  0.5835
 4590TIP3    H135329   1.582   5.833   6.761  0.5877  0.9882  0.5674
 4590TIP3    H235330   1.618   5.866   6.618 -0.1207 -0.9518 -0.0942
 4591TIP3   OH235331   4.298   4.063   1.296 -0.5199 -0.1891 -0.0687
 4591TIP3    H135332   4.387   4.028   1.302  0.0779  1.4007  0.7850
 4591TIP3    H235333   4.309   4.151   1.259 -1.1605  1.8701  4.0266
 4592TIP3   OH235334   2.477   5.968   6.935  1.0923  0.3323 -0.6249
 4592TIP3    H135335   2.382   5.962   6.944  1.3359  0.2099  3.1709
 4592TIP3    H235336   2.490   6.010   6.849 -2.4172  2.2061 -0.4214
 4593TIP3   OH235337   1.727   0.152   7.587  0.4288  0.5575 -0.9874
 4593TIP3    H135338   1.668   0.109   7.525 -1.3910  0.2635  0.8546
 4593TIP3    H235339   1.725   0.245   7.561  1.0930  0.2087 -2.3983
 4594TIP3   OH235340   6.087   4.037   7.229  0.4155 -0.5385  0.5943
 4594TIP3    H135341   6.050   4.125   7.223  1.6424  0.1195  2.1382
 4594TIP3    H235342   6.088   4.006   7.138  0.6531  1.3295 -0.0858
 4595TIP3   OH235343   4.443   4.648   1.914 -0.3598 -0.7699 -0.5601
 4595TIP3    H135344   4.452   4.742   1.928  1.9430 -1.1789  1.3263
 4595TIP3    H235345   4.412   4.614   1.998  2.1810 -2.0036 -0.0166
 4596TIP3   OH235346   5.613   0.632   8.302 -0.2562  0.0066 -0.0201
 4596TIP3    H135347   5.653   0.630   8.215 -0.8878 -0.0555 -0.3180
 4596TIP3    H235348   5.634   0.719   8.337 -0.1806  0.1083 -0.3205
 4597TIP3   OH235349   0.517   1.970   2.685  0.3416 -0.0924 -0.6221
 4597TIP3    H135350   0.481   2.047   2.730 -1.7147 -1.2136 -0.2182
 4597TIP3    H235351   0.598   1.951   2.732  0.5979  1.4667 -0.3612
 4598TIP3   OH235352   0.713   0.357   7.352 -0.1859  0.9687  0.3989
 4598TIP3    H135353   0.757   0.279   7.385 -2.8785 -1.5604 -1.4690
 4598TIP3    H235354   0.772   0.391   7.284  0.8686  0.4063  1.0085
 4599TIP3   OH235355   1.725   5.858   1.673 -0.4047  0.4821 -0.5427
 4599TIP3    H135356   1.716   5.800   1.598 -1.6744 -1.1299  0.7650
 4599TIP3    H235357   1.638   5.897   1.684 -0.9374 -1.0949  1.3987
 4600TIP3   OH235358   3.489   0.326   0.957  0.2008 -0.1146  0.3039
 4600TIP3    H135359   3.506   0.412   0.997  0.4826 -0.2026  0.3713
 4600TIP3    H235360   3.569   0.276   0.972 -0.2452 -0.6461  0.9343
 4601TIP3   OH235361   1.684   2.357   1.651  0.1263  0.0927  0.4599
 4601TIP3    H135362   1.637   2.304   1.715 -0.5054  2.1016  1.7540
 4601TIP3    H235363   1.652   2.446   1.665  2.7198  1.2065 -0.0995
 4602TIP3   OH235364   1.442   4.467   1.389  0.0983 -0.0558 -0.3699
 4602TIP3    H135365   1.432   4.544   1.445 -0.3987 -0.3560 -0.0339
 4602TIP3    H235366   1.520   4.424   1.421 -1.0028 -1.0439  1.1238
 4603TIP3   OH235367   3.539   4.877   0.901 -0.1668  0.6386  0.0407
 4603TIP3    H135368   3.516   4.818   0.828  0.3515 -0.1887  0.5288
 4603TIP3    H235369   3.519   4.964   0.868  0.5833  0.3359 -1.3215
 4604TIP3   OH235370   3.882   0.796   6.877  0.5749  0.2187 -0.0521
 4604TIP3    H135371   3.817   0.783   6.808  0.3798 -0.2209  0.2111
 4604TIP3    H235372   3.891   0.710   6.918  0.3097  0.5921  0.8089
 4605TIP3   OH235373   0.277   4.880   0.688 -0.2877 -0.0689  0.6609
 4605TIP3    H135374   0.315   4.915   0.769  1.7411 -3.0440  1.1613
 4605TIP3    H235375   0.353   4.861   0.632 -1.2886 -2.4376 -0.0102
 4606TIP3   OH235376   4.161   5.796   2.341 -0.3780  0.0063 -0.9656
 4606TIP3    H135377   4.146   5.879   2.387 -0.2505 -0.5709  0.1583
 4606TIP3    H235378   4.122   5.809   2.255 -1.2319  0.9045 -0.4692
 4607TIP3   OH235379   4.769   2.400   6.875  0.6840 -0.0693 -0.0235
 4607TIP3    H135380   4.782   2.494   6.867  1.1629 -0.1229  0.1188
 4607TIP3    H235381   4.818   2.375   6.953  0.0012 -0.3308  0.3251
 4608TIP3   OH235382   4.477   1.266   1.095  0.4230  0.1249  0.3338
 4608TIP3    H135383   4.398   1.320   1.098  1.0379  1.0344  0.9142
 4608TIP3    H235384   4.543   1.317   1.143  1.3893 -0.5729 -0.2044
 4609TIP3   OH235385   5.967   0.132   1.778 -0.0758 -0.7286 -0.1280
 4609TIP3    H135386   5.994   0.091   1.859 -0.5268  0.2840  0.5609
 4609TIP3    H235387   5.876   0.159   1.794 -0.2487 -0.7261 -1.0504
 4610TIP3   OH235388   4.467   3.331   7.378 -0.2593  0.6331  0.3545
 4610TIP3    H135389   4.459   3.236   7.372 -0.8172  0.5086  2.2221
 4610TIP3    H235390   4.557   3.344   7.408 -0.1549  0.6917  0.0101
 4611TIP3   OH235391   1.045   0.367   2.132 -0.1230 -0.0970 -0.1643
 4611TIP3    H135392   1.028   0.429   2.203 -1.8705  0.0508 -0.6773
 4611TIP3    H235393   0.969   0.374   2.075  0.2091 -1.8516 -0.8833
 4612TIP3   OH235394   4.463   3.108   1.764  0.2995 -0.6449  0.6581
 4612TIP3    H135395   4.396   3.088   1.829  0.4844 -0.9215  0.7615
 4612TIP3    H235396   4.545   3.108   1.813  0.2432  1.1798  0.8561
 4613TIP3   OH235397   0.259   0.190   7.996  0.1347  0.0283  0.6006
 4613TIP3    H135398   0.248   0.168   7.903 -2.3656  2.6708  0.1409
 4613TIP3    H235399   0.352   0.213   8.004  0.3039  0.2220 -1.3627
 4614TIP3   OH235400   0.295   5.132   0.895  0.4626  0.2766  0.3665
 4614TIP3    H135401   0.332   5.178   0.970  0.3418 -1.5605  1.6130
 4614TIP3    H235402   0.203   5.158   0.895  0.5285  0.5250  0.6663
 4615TIP3   OH235403   1.384   0.017   6.739  0.4518 -0.3110 -0.5127
 4615TIP3    H135404   1.426  -0.013   6.659  0.8393 -0.7260 -0.1585
 4615TIP3    H235405   1.315   0.077   6.709  1.3240  0.4238 -1.0929
 4616TIP3   OH235406   3.081   1.474   1.430  0.1644  0.1392  0.1951
 4616TIP3    H135407   2.992   1.500   1.455 -0.6599 -3.3196  1.3947
 4616TIP3    H235408   3.070   1.434   1.343  0.7818  0.7389 -0.1666
 4617TIP3   OH235409   4.571   1.944   1.200  0.3588  0.7329  0.4197
 4617TIP3    H135410   4.503   1.994   1.245 -0.0395 -0.0491  0.6916
 4617TIP3    H235411   4.532   1.858   1.186 -0.4455  1.4875 -3.3769
 4618TIP3   OH235412   4.153   3.838   8.755  0.8012 -0.3593  0.1376
 4618TIP3    H135413   4.194   3.870   8.835  0.3971 -2.6706  1.3497
 4618TIP3    H235414   4.078   3.787   8.785 -0.3988  0.1460 -1.8282
 4619TIP3   OH235415   4.638   2.730   8.800  0.6686  0.1177  0.0323
 4619TIP3    H135416   4.554   2.776   8.802  0.8452  0.4610 -0.2502
 4619TIP3    H235417   4.667   2.726   8.891  0.0169 -0.6205  0.2142
 4620TIP3   OH235418   2.936   0.606   8.222 -0.5518 -0.2181 -0.1078
 4620TIP3    H135419   3.012   0.621   8.278 -1.7094  2.6764  0.9007
 4620TIP3    H235420   2.861   0.607   8.282 -1.6759  0.9272 -1.4286
 4621TIP3   OH235421   4.604   1.582   8.743  0.5399  0.2106  0.0624
 4621TIP3    H135422   4.649   1.503   8.771 -1.6597 -0.3423  2.3411
 4621TIP3    H235423   4.651   1.653   8.788  0.0275 -0.2312  1.3436
 4622TIP3   OH235424   4.436   0.184   8.597 -0.2294  0.1042 -1.1225
 4622TIP3    H135425   4.460   0.213   8.685  0.7716 -3.2628 -0.1227
 4622TIP3    H235426   4.359   0.236   8.574  0.3701  2.1291  1.0858
 4623TIP3   OH235427   0.100   2.319   0.468  0.1196  0.1616  0.2690
 4623TIP3    H135428   0.142   2.291   0.387 -0.9403 -0.7834  0.0218
 4623TIP3    H235429   0.007   2.321   0.447  0.0186  2.6293  0.6738
 4624TIP3   OH235430   2.684   5.779   7.115  0.4463 -0.5559 -0.0098
 4624TIP3    H135431   2.653   5.749   7.201 -1.2874 -0.4761 -0.5612
 4624TIP3    H235432   2.746   5.713   7.087  0.5095 -0.9472  1.0024
 4625TIP3   OH235433   2.370   2.312   8.668 -0.4193 -0.3010  0.5839
 4625TIP3    H135434   2.433   2.240   8.674  0.2762  0.1866 -0.4243
 4625TIP3    H235435   2.408   2.370   8.602 -1.0189  0.9366  1.3125
 4626TIP3   OH235436   1.023   0.656   1.555 -0.1109  0.9861 -0.3207
 4626TIP3    H135437   1.111   0.652   1.517 -0.3955 -0.4243 -0.9064
 4626TIP3    H235438   0.964   0.668   1.481 -0.4779  1.0543 -0.0247
 4627TIP3   OH235439   2.644   1.870   1.002 -0.0266  0.0362 -0.5035
 4627TIP3    H135440   2.671   1.861   1.093 -0.6893 -0.2714 -0.3330
 4627TIP3    H235441   2.688   1.798   0.957  0.2992  0.1865 -0.4351
 4628TIP3   OH235442   3.581   5.284   7.206 -0.1092 -0.8533  0.5874
 4628TIP3    H135443   3.500   5.263   7.253  0.4057 -1.0682  1.4015
 4628TIP3    H235444   3.551   5.326   7.125 -1.0295 -0.4774  1.0976
 4629TIP3   OH235445   5.000   6.788   0.754  0.2052 -0.0544  0.0436
 4629TIP3    H135446   5.000   6.817   0.845  2.8981  2.6421 -0.6563
 4629TIP3    H235447   4.950   6.855   0.707 -1.5370 -1.6428 -0.5224
 4630TIP3   OH235448   6.276   6.362   7.414 -0.3291 -0.3318  0.3949
 4630TIP3    H135449   6.193   6.383   7.371 -0.7148 -1.1682  0.7253
 4630TIP3    H235450   6.252   6.310   7.490  0.3333  1.1981  1.7238
 4631TIP3   OH235451   3.154   0.819   7.395 -0.1733  0.0632 -0.6630
 4631TIP3    H135452   3.081   0.876   7.370  0.3625  0.2869 -1.7980
 4631TIP3    H235453   3.130   0.784   7.480 -1.1755  0.8663 -0.6055
 4632TIP3   OH235454   5.296   6.705   2.211 -0.6973 -0.1166 -0.8474
 4632TIP3    H135455   5.296   6.626   2.157  0.3168 -0.4218 -0.4220
 4632TIP3    H235456   5.380   6.747   2.193 -0.3064 -0.2516  0.5077
 4633TIP3   OH235457   1.118   6.106   1.202  0.2775  0.2632  0.5856
 4633TIP3    H135458   1.162   6.036   1.153 -0.6361  0.6957 -0.9387
 4633TIP3    H235459   1.072   6.155   1.135 -0.7946  1.0844  1.8905
 4634TIP3   OH235460   3.215   4.518   7.194  0.3884 -0.2147  0.4794
 4634TIP3    H135461   3.157   4.535   7.119  0.0142 -0.1511  0.7792
 4634TIP3    H235462   3.290   4.472   7.156 -0.8520 -2.2784  0.3698
 4635TIP3   OH235463   1.918   4.768   0.162 -0.2126  0.1470  0.3291
 4635TIP3    H135464   1.837   4.806   0.128  0.2508  0.9327  0.0806
 4635TIP3    H235465   1.969   4.748   0.084 -0.5858 -1.3204  0.4414
 4636TIP3   OH235466   2.108   0.677   2.399  0.1829 -0.6082 -0.2010
 4636TIP3    H135467   2.191   0.717   2.425  1.4549 -2.4785 -1.1859
 4636TIP3    H235468   2.117   0.585   2.423 -1.5329 -0.8942 -0.5409
 4637TIP3   OH235469   0.956   2.534   6.717 -0.0003 -0.1208  0.3381
 4637TIP3    H135470   0.969   2.439   6.719  0.8165 -0.0554 -0.8922
 4637TIP3    H235471   0.862   2.546   6.730 -0.5515 -1.2494 -2.0123
 4638TIP3   OH235472   3.337   4.496   0.959 -0.2201  0.2155  0.4700
 4638TIP3    H135473   3.342   4.578   1.008  2.1078  0.2028  0.3420
 4638TIP3    H235474   3.343   4.428   1.026  1.4960  0.1931  0.3222
 4639TIP3   OH235475   4.234   1.652   7.015  0.0891  0.6231 -0.4322
 4639TIP3    H135476   4.168   1.673   6.949 -0.0071  0.5339 -0.3642
 4639TIP3    H235477   4.270   1.568   6.986  0.0070  0.5565 -0.3383
 4640TIP3   OH235478   2.850   3.310   8.802  0.2812 -0.1907  0.4386
 4640TIP3    H135479   2.833   3.404   8.808  1.1399 -0.1091  2.6856
 4640TIP3    H235480   2.945   3.303   8.800  0.2717 -0.9723 -2.7076
 4641TIP3   OH235481   4.002   3.016   0.232 -0.4027  0.5897 -0.3512
 4641TIP3    H135482   3.931   3.064   0.189 -0.9070 -0.3142 -0.5421
 4641TIP3    H235483   4.068   3.083   0.250  0.2329  0.8997 -3.3317
 4642TIP3   OH235484   1.706   0.161   1.168  0.3017  0.1068  0.3410
 4642TIP3    H135485   1.687   0.246   1.130 -0.1004 -0.3968 -0.6109
 4642TIP3    H235486   1.725   0.104   1.093 -2.2357 -1.3548  0.6961
 4643TIP3   OH235487   5.861   4.474   1.532 -0.7062  0.6614 -0.2148
 4643TIP3    H135488   5.909   4.546   1.573 -0.2134  0.6919 -0.8304
 4643TIP3    H235489   5.854   4.500   1.440 -0.9046  0.1216 -0.3540
 4644TIP3   OH235490   3.986   2.165   8.501 -0.1058  0.2675 -0.2920
 4644TIP3    H135491   4.013   2.106   8.572 -0.1048 -0.9099 -1.2386
 4644TIP3    H235492   3.891   2.165   8.505 -0.0989  0.4594 -0.0956
 4645TIP3   OH235493   0.471   1.627   2.626 -0.2359 -0.1665 -0.2946
 4645TIP3    H135494   0.416   1.705   2.618  0.6402  0.3667 -1.2960
 4645TIP3    H235495   0.540   1.639   2.561  1.0917 -0.8194  0.9408
 4646TIP3   OH235496   1.208   1.556   1.823  0.2912 -0.1631  0.5068
 4646TIP3    H135497   1.129   1.504   1.840  1.6112 -2.3400  0.4703
 4646TIP3    H235498   1.254   1.558   1.907 -0.8433  3.1824  1.1809
 4647TIP3   OH235499   2.024   6.780   1.056 -0.2798 -0.0869  0.8414
 4647TIP3    H135500   2.013   6.873   1.073  1.7548  0.2796  0.3163
 4647TIP3    H235501   1.974   6.737   1.126 -4.2565  1.2564 -0.8674
 4648TIP3   OH235502   4.501   5.140   0.309 -0.1942 -0.0571  0.6754
 4648TIP3    H135503   4.533   5.111   0.394  2.3209 -0.8185 -0.4428
 4648TIP3    H235504   4.580   5.166   0.261 -1.2985 -1.3638 -2.0641
 4649TIP3   OH235505   6.590   5.378   1.277  0.3355 -0.4984 -0.2429
 4649TIP3    H135506   6.668   5.385   1.332  0.7834 -0.6523 -0.8584
 4649TIP3    H235507   6.571   5.469   1.251  0.0000 -0.3985  0.3188
 4650TIP3   OH235508   0.981   0.221   6.702 -0.4887  0.0809  0.0915
 4650TIP3    H135509   0.926   0.183   6.633 -0.7923 -0.6376  0.7037
 4650TIP3    H235510   1.070   0.199   6.677 -0.5190  0.7240 -0.5994
 4651TIP3   OH235511   3.425   0.043   1.103  0.3026  0.5055 -0.1988
 4651TIP3    H135512   3.454   0.086   1.022 -0.3065 -0.9010 -1.1975
 4651TIP3    H235513   3.414  -0.049   1.079 -0.9392  0.2512  1.2069
 4652TIP3   OH235514   3.890   6.684   0.177  0.2844  0.0775  0.5789
 4652TIP3    H135515   3.815   6.742   0.162  1.6156  1.5386 -0.7021
 4652TIP3    H235516   3.908   6.692   0.271  0.0197  1.2093  0.5466
 4653TIP3   OH235517   6.678   6.638   8.129 -0.3547 -0.2520  0.3628
 4653TIP3    H135518   6.592   6.680   8.120 -0.2118 -0.1314 -0.5640
 4653TIP3    H235519   6.660   6.552   8.167 -0.6020  0.8262  2.9061
 4654TIP3   OH235520   6.282   0.834   1.317  0.0622 -0.0832 -0.4247
 4654TIP3    H135521   6.320   0.806   1.400 -1.6191  1.6972  1.0435
 4654TIP3    H235522   6.250   0.754   1.276  0.4170 -0.9294  0.8989
 4655TIP3   OH235523   1.578   3.694   7.716 -0.2638  0.0373  0.0361
 4655TIP3    H135524   1.549   3.718   7.804 -0.4397  1.2431 -0.3223
 4655TIP3    H235525   1.608   3.603   7.723  2.2519  0.8961  1.9618
 4656TIP3   OH235526   1.276   6.215   1.985  0.3178 -0.3644  0.0734
 4656TIP3    H135527   1.325   6.180   2.059 -0.5350  1.6675  1.7242
 4656TIP3    H235528   1.185   6.193   2.004  0.1692 -0.5904 -0.8466
 4657TIP3   OH235529   0.781   1.077   6.395 -0.2117 -0.0498 -0.4508
 4657TIP3    H135530   0.688   1.087   6.417 -0.8092 -1.8139 -1.9472
 4657TIP3    H235531   0.820   1.162   6.417 -1.9666  0.4188  1.1094
 4658TIP3   OH235532   1.701   4.624   1.299 -0.2116 -0.5690 -0.1238
 4658TIP3    H135533   1.711   4.709   1.341  1.4807 -0.6986 -0.1947
 4658TIP3    H235534   1.698   4.561   1.371 -2.6472 -0.4134 -0.0077
 4659TIP3   OH235535   2.613   2.917   0.766 -0.1260  0.5868  0.3881
 4659TIP3    H135536   2.658   2.833   0.776  1.0792  1.2364  0.7407
 4659TIP3    H235537   2.666   2.964   0.702 -0.3580  1.3460  0.7434
 4660TIP3   OH235538   0.029   2.088   0.673  0.2906  0.8037 -0.1628
 4660TIP3    H135539  -0.028   2.144   0.620  0.2107  0.0788 -0.8637
 4660TIP3    H235540   0.069   2.028   0.610 -1.1611 -1.2777  0.7745
 4661TIP3   OH235541   1.448   2.969   0.875 -0.0591 -0.0294 -0.7261
 4661TIP3    H135542   1.378   2.908   0.896  0.7762 -1.0939 -0.9394
 4661TIP3    H235543   1.462   2.960   0.781  0.9630 -0.5239 -0.5495
 4662TIP3   OH235544   0.533   0.645   1.677 -0.0985  0.1363  0.9680
 4662TIP3    H135545   0.545   0.664   1.584  3.7129 -1.1789  1.0336
 4662TIP3    H235546   0.578   0.717   1.722  0.3769 -0.5936  1.6812
 4663TIP3   OH235547   2.051   1.917   8.122 -0.1023 -0.0145  0.1230
 4663TIP3    H135548   1.971   1.939   8.171 -1.7609  0.1345 -2.4514
 4663TIP3    H235549   2.072   1.996   8.073  3.1748  0.7951  2.4842
 4664TIP3   OH235550   6.340   1.261   8.434 -0.4307  0.4087 -0.4134
 4664TIP3    H135551   6.363   1.239   8.524 -1.8982 -0.3421 -0.1809
 4664TIP3    H235552   6.410   1.319   8.404  1.3145 -1.1777  0.4120
 4665TIP3   OH235553   4.752   3.762   1.125  0.3877  0.4831  0.0517
 4665TIP3    H135554   4.665   3.801   1.125 -0.2319 -0.8252 -1.1409
 4665TIP3    H235555   4.800   3.809   1.194 -1.3135  1.0552  0.8808
 4666TIP3   OH235556   4.282   4.563   6.572  0.3229 -0.0262  0.0710
 4666TIP3    H135557   4.200   4.607   6.595 -0.5690 -1.8213  0.5411
 4666TIP3    H235558   4.260   4.470   6.574  2.0495 -0.5099 -1.1197
 4667TIP3   OH235559   3.267   0.182   8.602 -0.3963 -0.9858  0.2253
 4667TIP3    H135560   3.257   0.098   8.646  1.8814 -1.3922  0.0531
 4667TIP3    H235561   3.266   0.247   8.672  0.2173 -1.3651  0.5844
 4668TIP3   OH235562   6.604   4.027   7.995 -0.5088  0.1793  0.2974
 4668TIP3    H135563   6.663   4.035   7.920 -1.1742  1.8219 -0.0970
 4668TIP3    H235564   6.546   3.955   7.972  0.2240 -0.2862 -0.1065
 4669TIP3   OH235565   0.897   0.910   0.937  0.3828 -0.4485 -0.6372
 4669TIP3    H135566   0.850   0.855   0.999  0.5404 -2.4303 -2.1678
 4669TIP3    H235567   0.828   0.953   0.886  0.2526 -0.1974 -0.2516
 4670TIP3   OH235568   3.351   5.996   0.192 -0.0065  0.3568  0.2445
 4670TIP3    H135569   3.287   5.948   0.140  1.3159 -0.2188 -0.9382
 4670TIP3    H235570   3.305   6.020   0.272 -0.8442 -2.5251  0.7127
 4671TIP3   OH235571   1.960   3.341   8.424 -0.4140  0.3890 -0.5571
 4671TIP3    H135572   1.982   3.406   8.490 -1.7056  0.5056 -0.2061
 4671TIP3    H235573   2.044   3.302   8.399  0.0951  0.2192  1.2719
 4672TIP3   OH235574   0.716   1.886   0.069 -1.0121 -0.3772  0.0282
 4672TIP3    H135575   0.808   1.868   0.048 -0.8099  2.0633 -1.5408
 4672TIP3    H235576   0.712   1.881   0.164  1.2129  1.2346  0.2881
 4673TIP3   OH235577   2.060   5.531   1.910  0.2564  0.0858  0.8485
 4673TIP3    H135578   2.111   5.459   1.946 -0.3928 -0.1710  1.2925
 4673TIP3    H235579   1.998   5.553   1.980  0.1131  0.7341  0.5258
 4674TIP3   OH235580   2.065   3.679   1.696  0.0203  0.0532  0.4915
 4674TIP3    H135581   2.087   3.633   1.777  0.2038  0.1299  0.4854
 4674TIP3    H235582   2.011   3.753   1.724 -0.1133 -0.0542  0.5198
 4675TIP3   OH235583   0.490   3.368   0.019  0.3515 -0.2957  0.1972
 4675TIP3    H135584   0.565   3.421   0.046 -0.1772 -0.4895  2.2045
 4675TIP3    H235585   0.413   3.418   0.048 -0.2229 -1.0948  0.0950
 4676TIP3   OH235586   0.575   5.061   8.244 -0.2375 -0.1497  1.0584
 4676TIP3    H135587   0.665   5.094   8.245  0.1687 -1.2040  0.8457
 4676TIP3    H235588   0.555   5.047   8.152 -0.2844 -0.7781  1.1591
 4677TIP3   OH235589   6.415   3.588   0.525  0.1653  0.0507  0.2943
 4677TIP3    H135590   6.504   3.577   0.492 -0.1163 -0.3924 -0.3400
 4677TIP3    H235591   6.422   3.567   0.618  0.5303 -1.0771  0.0313
 4678TIP3   OH235592   4.645   2.307   8.107  0.6510 -0.0168  0.3065
 4678TIP3    H135593   4.680   2.372   8.047  0.4581  0.3371  0.5707
 4678TIP3    H235594   4.592   2.249   8.052  4.0920 -2.5065 -0.7196
 4679TIP3   OH235595   0.043   0.853   2.303  0.4010  0.2237 -0.4182
 4679TIP3    H135596   0.015   0.877   2.215 -1.6178  2.9014  0.8162
 4679TIP3    H235597   0.039   0.757   2.303 -3.9685  0.1581 -2.0365
 4680TIP3   OH235598   2.550   5.941   8.086  0.1876 -0.4493 -0.1574
 4680TIP3    H135599   2.615   5.893   8.036 -1.8368 -2.9434 -0.5829
 4680TIP3    H235600   2.550   5.900   8.172 -0.9792 -0.6635 -0.2438
 4681TIP3   OH235601   5.637   3.609   7.240  0.0596 -0.1074 -0.1554
 4681TIP3    H135602   5.594   3.690   7.210 -1.5358 -1.2394 -1.0840
 4681TIP3    H235603   5.686   3.578   7.165 -1.1096 -1.1152 -0.5397
 4682TIP3   OH235604   6.115   1.432   1.801 -0.6666  0.3988 -0.2721
 4682TIP3    H135605   6.054   1.395   1.865 -2.0767  1.5198 -0.9305
 4682TIP3    H235606   6.060   1.466   1.731  0.7664  0.6849 -1.3197
 4683TIP3   OH235607   0.943   0.548   7.579 -0.2317  0.1742 -0.3511
 4683TIP3    H135608   1.029   0.568   7.616 -0.9975 -1.5558  2.6908
 4683TIP3    H235609   0.953   0.462   7.538 -0.4465  0.1342 -0.3212
 4684TIP3   OH235610   3.010   1.592   7.355 -0.3495 -0.5631 -0.5001
 4684TIP3    H135611   3.010   1.648   7.277 -0.7792  0.8597  0.4705
 4684TIP3    H235612   3.084   1.624   7.407 -0.2138 -1.3314 -0.2160
 4685TIP3   OH235613   0.513   4.439   2.320  0.0723 -0.0657 -0.1784
 4685TIP3    H135614   0.498   4.365   2.378  1.1778  0.1385  0.3934
 4685TIP3    H235615   0.535   4.399   2.235  0.3330 -0.3982  0.0416
 4686TIP3   OH235616   6.372   4.408   0.725 -0.6526 -0.2554  0.6399
 4686TIP3    H135617   6.408   4.322   0.705 -1.8183 -0.9929  1.5699
 4686TIP3    H235618   6.449   4.462   0.744  0.1300 -0.8968 -0.5871
 4687TIP3   OH235619   6.010   4.833   0.075 -0.1601 -0.4537 -0.3975
 4687TIP3    H135620   5.982   4.747   0.106  0.2849 -0.9635 -1.3653
 4687TIP3    H235621   5.966   4.844  -0.010 -2.4662  1.5167  0.9338
 4688TIP3   OH235622   0.501   3.546   1.039 -0.7431  0.1916 -0.3295
 4688TIP3    H135623   0.451   3.556   1.121 -1.4908 -0.0556 -0.7448
 4688TIP3    H235624   0.454   3.601   0.976 -0.4962 -0.0630 -0.7379
 4689TIP3   OH235625   3.265   4.841   8.436 -0.0015 -0.2290  0.0723
 4689TIP3    H135626   3.226   4.911   8.384  2.1508 -0.0895 -1.5008
 4689TIP3    H235627   3.225   4.761   8.400  0.6219 -0.0548 -1.0651
 4690TIP3   OH235628   0.532   6.465   7.083  0.1159 -0.0039 -0.1127
 4690TIP3    H135629   0.546   6.530   7.152 -0.2104 -0.1230  0.0691
 4690TIP3    H235630   0.455   6.497   7.035  0.3337  0.0727 -0.4154
 4691TIP3   OH235631   4.041   0.018   8.291 -0.2995 -0.0223 -0.0955
 4691TIP3    H135632   4.030   0.113   8.282 -0.9913 -0.1252 -0.3765
 4691TIP3    H235633   3.972  -0.020   8.236 -0.8886 -0.6813  1.0661
 4692TIP3   OH235634   1.927   1.367   8.230  0.2367  0.3489 -0.0417
 4692TIP3    H135635   1.887   1.326   8.154  1.3441  0.9911 -0.9964
 4692TIP3    H235636   1.951   1.455   8.201  0.9740  0.4925  0.9402
 4693TIP3   OH235637   4.818   0.119   6.902 -0.1100 -0.2472 -0.4428
 4693TIP3    H135638   4.818   0.149   6.994  0.0398  0.7200 -0.7452
 4693TIP3    H235639   4.841   0.197   6.852 -1.9075 -0.3222 -1.4595
 4694TIP3   OH235640   4.219   4.330   0.938  0.0634  0.6765  0.1430
 4694TIP3    H135641   4.202   4.385   1.015  0.1909  0.4196  0.3543
 4694TIP3    H235642   4.259   4.251   0.973  0.2673  0.6231 -0.2027
 4695TIP3   OH235643   6.124   3.183   8.365 -0.2081  0.5249  0.2254
 4695TIP3    H135644   6.119   3.260   8.307  0.5606  0.3854 -0.0292
 4695TIP3    H235645   6.211   3.148   8.350 -0.9927 -1.1652 -0.6162
 4696TIP3   OH235646   1.021   3.885   1.438 -0.1020 -0.5514  0.4695
 4696TIP3    H135647   1.017   3.792   1.417  1.6152 -1.0596  2.1590
 4696TIP3    H235648   1.111   3.900   1.466 -0.1391  1.7962 -0.4403
 4697TIP3   OH235649   3.970   5.659   8.698 -1.0722 -0.2779 -0.0896
 4697TIP3    H135650   4.001   5.729   8.756 -0.3553 -0.9212  0.3172
 4697TIP3    H235651   4.050   5.618   8.665 -1.4799 -0.2964 -1.0858
 4698TIP3   OH235652   1.756   4.190   8.120 -0.2539  0.3533  0.2607
 4698TIP3    H135653   1.792   4.164   8.205 -0.8066  1.2657  0.7930
 4698TIP3    H235654   1.804   4.137   8.056  1.3848  0.8831  1.0091
 4699TIP3   OH235655   5.097   4.376   0.652 -0.1884 -0.0941  0.1946
 4699TIP3    H135656   5.191   4.366   0.642 -0.1475 -0.2848  0.7201
 4699TIP3    H235657   5.078   4.463   0.617 -0.0447 -0.6502 -1.3093
 4700TIP3   OH235658   4.649   4.123   6.798 -0.2496  0.1649 -0.5491
 4700TIP3    H135659   4.653   4.030   6.775  0.4069 -0.3062  1.2939
 4700TIP3    H235660   4.737   4.144   6.829 -0.5974  1.2024 -0.2211
 4701TIP3   OH235661   5.150   3.446   0.976 -0.0473  0.1210  0.2632
 4701TIP3    H135662   5.060   3.478   0.983 -0.6574 -1.1024 -1.4113
 4701TIP3    H235663   5.180   3.476   0.891  0.4360 -1.0997 -0.0196
 4702TIP3   OH235664   1.683   1.132   0.868 -0.2836  0.3483  0.2483
 4702TIP3    H135665   1.721   1.074   0.934  0.8810  0.9821  0.1784
 4702TIP3    H235666   1.589   1.120   0.876 -0.0840 -1.1881  0.5528
 4703TIP3   OH235667   1.243   3.841   1.134 -0.0383  0.4540 -0.2536
 4703TIP3    H135668   1.165   3.872   1.181  0.5938  2.8666 -0.6917
 4703TIP3    H235669   1.217   3.840   1.042  0.3520  0.9059 -0.3656
 4704TIP3   OH235670   4.260   2.552   1.218 -0.5013 -0.3982 -0.0587
 4704TIP3    H135671   4.295   2.625   1.270 -0.7578  0.1710 -0.6596
 4704TIP3    H235672   4.200   2.506   1.276  2.6027 -2.5911  1.6959
 4705TIP3   OH235673   3.930   3.858   8.211  0.1568 -0.2388  0.3139
 4705TIP3    H135674   3.944   3.879   8.303  1.7724  0.6853 -0.1019
 4705TIP3    H235675   3.947   3.940   8.165 -0.1772 -0.7997 -0.8466
 4706TIP3   OH235676   4.089   1.538   8.624  0.1285  0.3605  0.3801
 4706TIP3    H135677   4.180   1.541   8.654 -0.7598  0.8749  3.3759
 4706TIP3    H235678   4.077   1.447   8.594  1.5127  0.1846  0.2843
 4707TIP3   OH235679   1.409   5.583   0.500 -0.2560 -0.4052  0.3333
 4707TIP3    H135680   1.368   5.498   0.512  1.1589 -1.3457 -1.0885
 4707TIP3    H235681   1.369   5.619   0.421  1.6976 -1.4511 -1.2260
 4708TIP3   OH235682   4.291   4.187   1.789 -0.1241  0.2150 -0.2512
 4708TIP3    H135683   4.260   4.267   1.832 -2.1818  0.4864 -2.0552
 4708TIP3    H235684   4.318   4.216   1.702 -0.1073 -0.9304 -0.6377
 4709TIP3   OH235685   0.474   1.179   8.224 -0.4019 -0.9454 -0.0845
 4709TIP3    H135686   0.433   1.153   8.141 -2.2021 -0.0427  0.4891
 4709TIP3    H235687   0.456   1.106   8.283 -2.2062 -0.0778  0.4782
 4710TIP3   OH235688   3.404   4.476   8.505  0.2388  0.2420 -0.4100
 4710TIP3    H135689   3.442   4.521   8.581  0.3067 -2.0753  1.0439
 4710TIP3    H235690   3.477   4.430   8.465 -0.0731  0.2503 -1.0065
 4711TIP3   OH235691   4.534   5.358   7.641  0.3064 -0.2013  0.2457
 4711TIP3    H135692   4.545   5.344   7.547  1.2512 -0.0736  0.3320
 4711TIP3    H235693   4.546   5.452   7.654 -0.6302 -0.0901  0.3953
 4712TIP3   OH235694   3.138   1.250   8.569 -0.5177 -0.0949  0.5846
 4712TIP3    H135695   3.131   1.278   8.478  0.4599 -0.2162  0.4653
 4712TIP3    H235696   3.049   1.258   8.603 -0.9752 -0.4236 -0.4899
 4713TIP3   OH235697   1.697   0.507   8.835 -0.0332  0.0375 -0.1641
 4713TIP3    H135698   1.627   0.521   8.772  0.8334 -0.9451 -1.3964
 4713TIP3    H235699   1.683   0.574   8.902 -1.5958  0.4321 -0.8367
 4714TIP3   OH235700   3.902   4.297   8.552 -0.1966  0.0606  0.1182
 4714TIP3    H135701   3.887   4.369   8.615 -0.9592 -0.1510  0.1957
 4714TIP3    H235702   3.992   4.309   8.523  0.0956  0.3032  1.0821
 4715TIP3   OH235703   6.394   5.477   8.119  0.3321  0.8697  0.0905
 4715TIP3    H135704   6.426   5.457   8.031  0.9360 -0.5026  0.5840
 4715TIP3    H235705   6.323   5.414   8.134  1.3644 -0.0886  1.1892
 4716TIP3   OH235706   5.781   1.103   0.556 -0.0318 -0.5053  0.0023
 4716TIP3    H135707   5.703   1.131   0.604 -0.8618 -1.6677 -0.6272
 4716TIP3    H235708   5.764   1.125   0.465  1.0556  0.6387  0.0416
 4717TIP3   OH235709   1.034   6.050   0.880 -0.0301 -0.4929  0.0477
 4717TIP3    H135710   0.951   6.074   0.922  1.0646  2.0929  0.8859
 4717TIP3    H235711   1.027   5.955   0.868 -3.9404 -0.1950 -1.7910
 4718TIP3   OH235712   6.458   2.729   1.236  0.1836  0.0413  0.0730
 4718TIP3    H135713   6.471   2.788   1.311 -0.2092  1.6955 -1.0879
 4718TIP3    H235714   6.373   2.688   1.252  1.2188 -1.5870  1.7410
 4719TIP3   OH235715   4.386   2.995   1.450  0.0382 -0.3394 -0.2550
 4719TIP3    H135716   4.454   3.054   1.481 -0.3066 -0.9605  1.9066
 4719TIP3    H235717   4.324   3.052   1.404  1.4019  0.4102 -1.2112
 4720TIP3   OH235718   6.532   4.506   8.029 -0.4359 -0.0085  0.3639
 4720TIP3    H135719   6.520   4.455   8.109 -1.5322  1.6224  1.2856
 4720TIP3    H235720   6.444   4.539   8.008  0.0632  0.6450 -0.7742
 4721TIP3   OH235721   1.680   2.138   8.373 -0.1502 -0.2117  0.2123
 4721TIP3    H135722   1.649   2.196   8.442  0.2235  0.1858  0.0464
 4721TIP3    H235723   1.708   2.059   8.419  1.9009  0.7622  0.7354
 4722TIP3   OH235724   0.507   0.177   1.853 -0.0705  0.2818  0.3185
 4722TIP3    H135725   0.581   0.186   1.794 -0.9701  0.7473 -0.7809
 4722TIP3    H235726   0.430   0.187   1.797 -0.9637  1.0849  1.6313
 4723TIP3   OH235727   4.374   4.601   6.984 -0.4701  0.0259  0.0905
 4723TIP3    H135728   4.389   4.624   7.076 -1.7017 -0.2231  0.3761
 4723TIP3    H235729   4.440   4.535   6.964 -0.9624 -0.8260  1.1751
 4724TIP3   OH235730   1.897   0.951   2.486 -0.4716  0.3644  0.6664
 4724TIP3    H135731   1.819   0.996   2.515 -1.3859 -0.0983 -0.9099
 4724TIP3    H235732   1.962   0.966   2.555 -1.8061  1.1153  1.7974
 4725TIP3   OH235733   1.779   2.790   8.833 -0.4058  0.6061  0.3297
 4725TIP3    H135734   1.826   2.813   8.753 -0.4287  0.6127  0.3185
 4725TIP3    H235735   1.726   2.713   8.808  0.0660  0.2232  0.5068
 4726TIP3   OH235736   4.961   0.823   0.465  0.2723 -0.1739 -0.0920
 4726TIP3    H135737   4.953   0.876   0.386  0.8350  1.1112  0.6881
 4726TIP3    H235738   4.876   0.780   0.473  0.8177 -1.9502 -2.4704
 4727TIP3   OH235739   4.428   2.722   1.399  0.1058 -0.5948 -0.1769
 4727TIP3    H135740   4.370   2.792   1.430  0.0555 -0.5597 -0.3467
 4727TIP3    H235741   4.511   2.765   1.380  0.1893 -0.6463  0.0729
 4728TIP3   OH235742   4.265   2.688   0.045 -0.1376 -0.1501  0.0117
 4728TIP3    H135743   4.224   2.733   0.119 -0.4502  0.7123 -0.6726
 4728TIP3    H235744   4.334   2.748   0.016 -0.7726  0.0604 -1.1239
 4729TIP3   OH235745   5.154   6.616   8.115 -0.1619 -0.7901 -0.1324
 4729TIP3    H135746   5.090   6.567   8.063 -0.6120  0.1596 -0.4826
 4729TIP3    H235747   5.122   6.608   8.205 -1.1007  0.1455 -0.3692
 4730TIP3   OH235748   1.167   6.169   1.600 -0.1696 -0.1267  0.0641
 4730TIP3    H135749   1.147   6.253   1.559  0.3081 -0.0230  0.0379
 4730TIP3    H235750   1.240   6.188   1.660 -0.8547 -0.2678  0.9727
 4731TIP3   OH235751   2.723   5.795   0.557  0.1186 -0.0632  0.3194
 4731TIP3    H135752   2.701   5.773   0.647  1.0738 -0.1362  0.5429
 4731TIP3    H235753   2.804   5.747   0.539  0.5168  0.7896 -0.2210
 4732TIP3   OH235754   4.396   3.788   0.687 -0.0331  0.3531  0.1316
 4732TIP3    H135755   4.441   3.846   0.749 -2.2007 -0.6879  2.8684
 4732TIP3    H235756   4.443   3.705   0.694  0.2013  0.4435 -0.2816
 4733TIP3   OH235757   2.609   2.895   7.174 -0.2434  0.4764  0.3387
 4733TIP3    H135758   2.691   2.871   7.130 -0.2090  2.9800 -1.1325
 4733TIP3    H235759   2.553   2.818   7.164  1.2682 -0.5894 -0.2704
 4734TIP3   OH235760   4.843   3.994   8.244  0.2183 -0.0817 -0.0357
 4734TIP3    H135761   4.880   4.004   8.157 -2.2935  0.3801 -1.1423
 4734TIP3    H235762   4.860   3.902   8.267  1.3002 -0.0835 -0.8043
 4735TIP3   OH235763   4.195   3.173   0.355 -0.1483  0.3272 -0.1221
 4735TIP3    H135764   4.249   3.252   0.361 -0.9570  0.9532 -0.7695
 4735TIP3    H235765   4.152   3.167   0.440  0.5198  0.1355  0.2045
 4736TIP3   OH235766   4.489   2.211   2.597  0.6487 -0.5498 -0.2037
 4736TIP3    H135767   4.512   2.171   2.681 -0.4531  1.8843  1.3597
 4736TIP3    H235768   4.394   2.221   2.600  0.7697  1.2351 -0.9352
 4737TIP3   OH235769   1.976   4.325   7.304 -0.6625 -0.0589  0.5495
 4737TIP3    H135770   1.969   4.258   7.372 -0.0699  0.5617  1.2411
 4737TIP3    H235771   2.015   4.279   7.229 -0.5500 -0.5588  0.9070
 4738TIP3   OH235772   6.181   5.142   7.463 -0.3638 -0.0774  0.4264
 4738TIP3    H135773   6.149   5.150   7.373 -0.4252 -1.4991  0.2947
 4738TIP3    H235774   6.141   5.215   7.510 -1.8649 -0.4210 -0.2753
 4739TIP3   OH235775   1.870   6.396   1.699  0.2687 -0.1935  0.4656
 4739TIP3    H135776   1.924   6.318   1.689 -0.0516 -0.3274 -0.3495
 4739TIP3    H235777   1.856   6.404   1.793 -0.9120 -1.9532  0.4794
 4740TIP3   OH235778   4.669   5.616   8.646  0.2699 -0.3524 -0.2462
 4740TIP3    H135779   4.597   5.660   8.602  1.2567  1.4697 -0.1041
 4740TIP3    H235780   4.640   5.605   8.736 -0.3773 -0.9636 -0.5173
 4741TIP3   OH235781   2.730   0.201   1.725  0.5918  0.1224  0.0296
 4741TIP3    H135782   2.662   0.171   1.665 -0.7492  0.4950  1.3103
 4741TIP3    H235783   2.685   0.217   1.808  2.0415  1.4629  0.6297
 4742TIP3   OH235784   2.333   0.140   1.794  0.1402  0.3985 -0.0096
 4742TIP3    H135785   2.265   0.115   1.855 -0.7280  0.2213 -1.0227
 4742TIP3    H235786   2.365   0.057   1.758 -1.3044  0.5789 -1.8406
 4743TIP3   OH235787   3.018   0.264   2.029  0.3532  0.0469 -0.0658
 4743TIP3    H135788   2.999   0.321   1.955  1.7596 -0.5495 -0.9331
 4743TIP3    H235789   2.933   0.248   2.069 -0.2744  1.3931 -0.7950
 4744TIP3   OH235790   4.968   2.232   0.213 -0.8216  0.6048 -0.2855
 4744TIP3    H135791   4.935   2.318   0.185 -0.6873  0.4241 -1.0106
 4744TIP3    H235792   5.021   2.201   0.139 -1.1132 -0.2371 -0.1530
 4745TIP3   OH235793   0.355   4.208   2.429  0.3549 -0.1684 -1.1860
 4745TIP3    H135794   0.339   4.149   2.502  0.1299  1.9861  0.6233
 4745TIP3    H235795   0.411   4.158   2.369  1.8752 -1.5129  1.1827
 4746TIP3   OH235796   2.982   3.324   0.266 -0.2299  0.1556  0.1827
 4746TIP3    H135797   2.975   3.303   0.173  0.6623  1.8970 -0.3157
 4746TIP3    H235798   2.910   3.275   0.306 -0.7971 -0.4354 -1.4383
 4747TIP3   OH235799   0.424   0.247   2.585 -0.0376  0.0500 -0.0353
 4747TIP3    H135800   0.342   0.296   2.594  0.0747  0.1089  0.7432
 4747TIP3    H235801   0.461   0.276   2.502 -1.7820 -1.4544 -1.4423
 4748TIP3   OH235802   3.294   2.204   0.356 -0.0328 -0.3567  0.2355
 4748TIP3    H135803   3.302   2.260   0.433 -0.0300 -0.0361  0.0043
 4748TIP3    H235804   3.312   2.262   0.282 -1.7148 -0.2517 -0.1338
 4749TIP3   OH235805   4.930   5.928   6.959 -0.2284 -0.0188 -0.1070
 4749TIP3    H135806   5.000   5.866   6.941 -0.4540 -0.7326  1.3510
 4749TIP3    H235807   4.863   5.909   6.893 -0.0537 -0.9536 -0.0249
 4750TIP3   OH235808   3.527   4.349   1.565 -0.3574  0.2208 -0.1145
 4750TIP3    H135809   3.579   4.305   1.498 -1.9306  0.4147 -1.5167
 4750TIP3    H235810   3.566   4.321   1.648  0.5815 -1.3786 -1.0578
 4751TIP3   OH235811   1.114   3.934   0.881  0.2813 -0.1989 -0.0523
 4751TIP3    H135812   1.076   3.998   0.822  0.7877  1.2823  1.1493
 4751TIP3    H235813   1.208   3.954   0.881  0.5312 -1.3011 -0.0602
 4752TIP3   OH235814   0.706   3.284   0.354  0.0782 -0.6256 -0.0759
 4752TIP3    H135815   0.679   3.358   0.407 -2.0259 -1.9577  0.8883
 4752TIP3    H235816   0.786   3.312   0.310 -0.3751  1.9828  0.6376
 4753TIP3   OH235817   3.134   1.995   7.414 -0.1330 -0.0389  0.6594
 4753TIP3    H135818   3.204   2.057   7.435  0.6415 -0.9711  0.8893
 4753TIP3    H235819   3.119   2.007   7.320  1.0973 -0.5818  0.3764
 4754TIP3   OH235820   3.715   2.370   7.863 -0.2832  0.0755  0.1368
 4754TIP3    H135821   3.630   2.412   7.847 -1.0062 -0.7492  1.5370
 4754TIP3    H235822   3.779   2.433   7.833 -1.3776  1.2821  0.2329
 4755TIP3   OH235823   6.345   2.680   6.495 -0.4044 -0.3007 -0.3467
 4755TIP3    H135824   6.387   2.763   6.471  1.4588 -1.7698 -2.5387
 4755TIP3    H235825   6.252   2.702   6.500  0.0692  2.0149 -0.3683
 4756TIP3   OH235826   4.204   2.723   7.515 -0.3637  0.6567  0.1882
 4756TIP3    H135827   4.261   2.793   7.482 -1.8802  1.8302 -0.0126
 4756TIP3    H235828   4.226   2.717   7.608 -0.0926  1.2683  0.1705
 4757TIP3   OH235829   1.818   1.788   7.684 -0.0292 -0.4550  0.2229
 4757TIP3    H135830   1.888   1.854   7.676  0.4555 -1.0278 -0.3393
 4757TIP3    H235831   1.737   1.838   7.677  0.3354  0.0727 -0.3065
 4758TIP3   OH235832   5.734   6.654   0.746  0.4905  0.4379  0.3578
 4758TIP3    H135833   5.737   6.615   0.659  1.1363  0.3799  0.4014
 4758TIP3    H235834   5.654   6.707   0.746  0.4304  0.3533 -0.2328
 4759TIP3   OH235835   0.619   1.390   0.626 -0.0483  0.0306  0.0895
 4759TIP3    H135836   0.611   1.475   0.584 -2.2396  0.1317  0.5855
 4759TIP3    H235837   0.662   1.335   0.561  1.0637  1.3907 -0.3838
 4760TIP3   OH235838   5.520   6.518   6.782  0.0417 -0.4014 -0.7185
 4760TIP3    H135839   5.610   6.537   6.809 -0.5753  3.0422 -0.6290
 4760TIP3    H235840   5.481   6.473   6.858  0.5301  2.0583  1.1246
 4761TIP3   OH235841   5.241   4.252   6.860  0.7040 -0.2468 -0.2928
 4761TIP3    H135842   5.211   4.256   6.769 -0.1214 -0.2782 -0.0303
 4761TIP3    H235843   5.336   4.261   6.854  0.8038 -1.5033 -1.2683
 4762TIP3   OH235844   4.911   4.682   6.722 -0.1772 -0.7233 -0.5070
 4762TIP3    H135845   5.001   4.712   6.734  0.2418 -2.0976  0.0210
 4762TIP3    H235846   4.920   4.597   6.678 -1.2078 -0.9356 -0.3378
 4763TIP3   OH235847   0.345   1.275   6.764 -0.1070  0.5976  0.1903
 4763TIP3    H135848   0.324   1.312   6.850  0.8788 -0.8808  1.0985
 4763TIP3    H235849   0.440   1.283   6.757  0.3621 -2.7015  0.9683
 4764TIP3   OH235850   0.266   2.892   2.599 -0.2425 -0.1646  0.2820
 4764TIP3    H135851   0.303   2.809   2.629  0.7526 -1.0806 -3.0583
 4764TIP3    H235852   0.174   2.873   2.580 -0.4598 -0.0087  1.1439
 4765TIP3   OH235853   5.650   2.958   8.020  0.0102  0.3001 -0.2321
 4765TIP3    H135854   5.563   2.941   8.058 -0.2046  0.6920 -0.5401
 4765TIP3    H235855   5.677   2.874   7.984  0.6204 -0.3193  1.5800
 4766TIP3   OH235856   2.148   4.534   8.287 -0.3523 -0.4006 -0.5087
 4766TIP3    H135857   2.159   4.460   8.227 -1.1382 -1.0682  0.1516
 4766TIP3    H235858   2.086   4.502   8.353  0.2669  0.4129  0.4918
 4767TIP3   OH235859   1.478   2.731   7.880  0.0802 -0.6384  0.5342
 4767TIP3    H135860   1.503   2.694   7.965 -2.1805 -0.0792  1.5296
 4767TIP3    H235861   1.560   2.759   7.840  1.0883  0.8044  3.3564
 4768TIP3   OH235862   3.673   6.791   1.212  0.4322  0.2265  0.2349
 4768TIP3    H135863   3.641   6.795   1.123 -1.0041  0.2938  0.7371
 4768TIP3    H235864   3.675   6.883   1.241  2.7382  0.4189 -0.3210
 4769TIP3   OH235865   3.774   1.454   6.754  0.1974 -0.4045 -0.4052
 4769TIP3    H135866   3.755   1.547   6.746  0.8643 -0.1802  0.3903
 4769TIP3    H235867   3.783   1.440   6.849 -1.0435 -1.5210 -0.4287
 4770TIP3   OH235868   2.929   1.012   7.421  0.3752  0.2380 -0.0007
 4770TIP3    H135869   2.855   0.983   7.475 -1.5649  0.1309 -2.5081
 4770TIP3    H235870   2.962   1.089   7.466 -1.7533  0.7067  0.8942
 4771TIP3   OH235871   1.477   5.334   0.100  0.5326  0.1944 -0.6401
 4771TIP3    H135872   1.421   5.295   0.033 -0.5477 -0.4613  0.5983
 4771TIP3    H235873   1.489   5.425   0.072  2.0686 -0.6014 -2.9279
 4772TIP3   OH235874   2.914   1.024   6.202 -0.7711  0.2335 -0.0572
 4772TIP3    H135875   2.998   1.031   6.248 -0.7931  0.3902 -0.0429
 4772TIP3    H235876   2.863   1.099   6.232 -1.8094 -1.1247  1.7857
 4773TIP3   OH235877   6.334   3.443   8.847  0.1799  0.5257 -0.1719
 4773TIP3    H135878   6.239   3.446   8.836 -0.4456 -2.1418  2.9531
 4773TIP3    H235879   6.365   3.397   8.769 -0.8606  2.4881 -1.8368
 4774TIP3   OH235880   1.263   5.356   1.983  0.9558  0.5659  0.2060
 4774TIP3    H135881   1.235   5.270   1.954  0.3986  0.3751  1.2478
 4774TIP3    H235882   1.230   5.363   2.072  1.4741  1.6386  0.3328
 4775TIP3   OH235883   5.902   3.697   0.468  0.2225  0.2784  0.3693
 4775TIP3    H135884   5.974   3.633   0.465 -1.6906 -2.0339  0.0284
 4775TIP3    H235885   5.936   3.770   0.518  2.6049 -0.9780  0.7216
 4776TIP3   OH235886   0.310   3.841   1.099 -0.0799  0.1143 -0.4220
 4776TIP3    H135887   0.324   3.803   1.186 -2.2044  1.1247  0.4477
 4776TIP3    H235888   0.389   3.892   1.082  0.1721  0.3128  1.1655
 4777TIP3   OH235889   4.525   3.285   8.524 -0.1568 -0.1695 -0.0104
 4777TIP3    H135890   4.494   3.352   8.463  0.3246  0.1640  0.1060
 4777TIP3    H235891   4.467   3.293   8.600  0.7499  1.0714  0.5931
 4778TIP3   OH235892   3.385   6.090   8.451  0.1922  0.0485  0.2214
 4778TIP3    H135893   3.443   6.016   8.469 -1.8005 -1.7004 -0.2099
 4778TIP3    H235894   3.333   6.100   8.531 -0.9852 -0.3964 -0.4833
 4779TIP3   OH235895   0.556   3.951   1.060 -0.2275  0.1994  0.0690
 4779TIP3    H135896   0.621   3.940   1.129  0.2754  1.0957 -0.2509
 4779TIP3    H235897   0.570   4.040   1.027 -1.3734  0.2813 -0.2520
 4780TIP3   OH235898   0.530   1.668   7.573 -0.2767 -0.7877 -0.5607
 4780TIP3    H135899   0.546   1.749   7.525 -0.4318 -0.2589  0.2596
 4780TIP3    H235900   0.491   1.696   7.656  4.5080 -1.1688  2.1948
 4781TIP3   OH235901   1.326   4.793   6.554 -0.1301  0.2222 -0.0106
 4781TIP3    H135902   1.278   4.717   6.587  0.9708 -0.8087 -0.7102
 4781TIP3    H235903   1.260   4.862   6.549 -0.6505  0.1245  3.0911
 4782TIP3   OH235904   3.540   3.791   7.085 -0.3604 -0.0340 -0.0858
 4782TIP3    H135905   3.603   3.732   7.126  0.4776  0.6011 -0.4159
 4782TIP3    H235906   3.534   3.760   6.995  0.7336  0.8513 -0.4993
 4783TIP3   OH235907   5.053   4.896   8.515 -0.7185 -0.0136  0.5770
 4783TIP3    H135908   5.019   4.963   8.575 -1.3658  0.6489 -0.5000
 4783TIP3    H235909   5.043   4.934   8.428 -1.3802 -1.6383 -0.0972
 4784TIP3   OH235910   2.250   2.548   1.291 -0.7162 -0.3382 -0.0808
 4784TIP3    H135911   2.255   2.641   1.311  0.0528 -0.3072 -0.3845
 4784TIP3    H235912   2.160   2.523   1.314 -0.3292  0.0093  1.9905
 4785TIP3   OH235913   4.607   1.805   0.057  0.3927  0.0130  0.2585
 4785TIP3    H135914   4.533   1.844   0.010  1.0665  1.2539  0.1913
 4785TIP3    H235915   4.567   1.742   0.116 -0.6524  0.0794 -0.3505
 4786TIP3   OH235916   0.323   3.026   0.743 -0.2917  0.2258 -0.0743
 4786TIP3    H135917   0.375   3.011   0.664  2.1508  0.5432  1.3689
 4786TIP3    H235918   0.296   3.118   0.736  3.1093  1.4590  1.0821
 4787TIP3   OH235919   5.794   6.012   8.407  0.3729  0.2975 -0.3911
 4787TIP3    H135920   5.784   6.087   8.348 -0.1286  0.0798 -0.5916
 4787TIP3    H235921   5.884   5.984   8.395  0.3796  0.4803 -0.7851
 4788TIP3   OH235922   2.991   2.415   7.392 -0.2229 -0.5876  0.3579
 4788TIP3    H135923   2.977   2.322   7.407 -0.0645 -1.1649 -2.5311
 4788TIP3    H235924   3.001   2.423   7.297  0.9689  2.2233  0.6263
 4789TIP3   OH235925   4.581   5.745   7.876  0.2221  0.3069  0.0713
 4789TIP3    H135926   4.596   5.659   7.836 -0.3968  0.1192  0.2245
 4789TIP3    H235927   4.639   5.804   7.828  0.6630 -0.1957 -0.0306
 4790TIP3   OH235928   6.705   3.612   0.516 -0.2744 -0.2444 -0.5741
 4790TIP3    H135929   6.748   3.531   0.489  1.7762 -0.3553  2.4905
 4790TIP3    H235930   6.773   3.679   0.510 -0.4670  0.2105  1.5421
 4791TIP3   OH235931   5.973   3.562   7.943 -0.0156 -0.2629  0.2571
 4791TIP3    H135932   5.941   3.618   8.014 -0.8468 -0.7784  0.2947
 4791TIP3    H235933   6.068   3.563   7.954 -0.1747 -1.3668  2.1654
 4792TIP3   OH235934   5.329   5.613   8.111  0.7219  0.0284  0.0192
 4792TIP3    H135935   5.294   5.549   8.173 -1.1244 -0.4932 -1.4552
 4792TIP3    H235936   5.312   5.698   8.152  1.0291 -0.3417  0.9390
 4793TIP3   OH235937   6.044   4.962   6.898 -0.5452 -0.2599 -0.0487
 4793TIP3    H135938   5.952   4.985   6.887 -0.3558  0.0653 -1.0642
 4793TIP3    H235939   6.092   5.037   6.863  0.0959 -1.3251 -1.5338
 4794TIP3   OH235940   0.999   3.633   8.109  0.4189 -0.6074 -0.5691
 4794TIP3    H135941   0.942   3.574   8.158  0.4851 -0.9809 -0.9357
 4794TIP3    H235942   0.955   3.645   8.026  0.5268 -0.3332 -0.5870
 4795TIP3   OH235943   5.442   1.674   0.827  0.1194 -0.0108 -0.2842
 4795TIP3    H135944   5.354   1.642   0.805 -0.2968  0.7131  0.2433
 4795TIP3    H235945   5.469   1.619   0.900 -0.4162  0.5379  0.3450
 4796TIP3   OH235946   3.454   6.213   0.372  0.4478 -0.3925 -0.1601
 4796TIP3    H135947   3.491   6.301   0.364  0.2816 -0.3038  0.0512
 4796TIP3    H235948   3.528   6.158   0.399  0.3627 -0.1590  0.5790
 4797TIP3   OH235949   5.880   0.462   7.940  0.3603  0.1296  0.0642
 4797TIP3    H135950   5.789   0.444   7.918  0.4547  1.3613 -1.5216
 4797TIP3    H235951   5.923   0.477   7.856  1.8719  0.2946  0.8215
 4798TIP3   OH235952   0.674   3.224   8.333 -0.2528 -0.4371  0.3460
 4798TIP3    H135953   0.679   3.143   8.281 -2.0025 -0.6461  0.4391
 4798TIP3    H235954   0.584   3.254   8.322  0.0214  0.8444  1.3190
 4799TIP3   OH235955   1.789   4.144   1.964  0.3577 -0.3521 -0.0543
 4799TIP3    H135956   1.703   4.185   1.958 -0.1375 -1.5267 -1.8126
 4799TIP3    H235957   1.846   4.199   1.911 -0.1761 -1.5304 -1.9294
 4800TIP3   OH235958   2.648   4.771   1.274  0.0113  0.1749  0.0340
 4800TIP3    H135959   2.702   4.702   1.310  2.3328  1.1713 -1.3233
 4800TIP3    H235960   2.608   4.814   1.350  0.4728 -1.1050  1.0178
 4801TIP3   OH235961   6.703   4.682   0.197  0.0388  0.5814  0.2639
 4801TIP3    H135962   6.617   4.647   0.174  1.1865 -1.6361 -1.0461
 4801TIP3    H235963   6.735   4.622   0.264  0.3433  1.7490  1.1854
 4802TIP3   OH235964   3.224   0.405   0.906 -0.4501  0.0012 -0.1939
 4802TIP3    H135965   3.312   0.368   0.910 -0.1314  0.7737  0.1200
 4802TIP3    H235966   3.167   0.329   0.892  0.2997 -0.4584 -0.8678
 4803TIP3   OH235967   0.762   1.209   8.159 -0.0535 -0.2473 -0.8676
 4803TIP3    H135968   0.672   1.194   8.186 -0.0280 -1.3425 -1.3262
 4803TIP3    H235969   0.755   1.261   8.079 -0.2481  0.2892 -0.5017
 4804TIP3   OH235970   3.201   6.695   6.892  0.0146 -0.3139  0.1071
 4804TIP3    H135971   3.228   6.613   6.934 -0.6415  0.4404  2.1405
 4804TIP3    H235972   3.275   6.719   6.837 -0.2856 -2.8982 -1.5745
 4805TIP3   OH235973   4.870   5.471   0.036 -0.2354 -0.0026 -0.3319
 4805TIP3    H135974   4.882   5.563   0.012 -1.1555 -0.1063 -1.2337
 4805TIP3    H235975   4.929   5.458   0.111 -1.5672  1.8393  1.1193
 4806TIP3   OH235976   2.146   5.058   6.326  0.3065  0.2418  0.0910
 4806TIP3    H135977   2.088   4.994   6.367  1.1478 -0.6573 -0.0938
 4806TIP3    H235978   2.122   5.142   6.367 -0.6905 -0.2079  0.4548
 4807TIP3   OH235979   1.607   3.927   0.276 -0.1681 -0.0496 -0.3281
 4807TIP3    H135980   1.663   3.890   0.344 -1.8429  1.5689  2.1025
 4807TIP3    H235981   1.573   3.851   0.229 -0.1692 -1.3599  1.6710
 4808TIP3   OH235982   0.058   0.534   7.612 -0.0300 -0.0875  0.4121
 4808TIP3    H135983   0.011   0.453   7.629 -0.6932  0.4681  1.3326
 4808TIP3    H235984   0.041   0.589   7.689  2.6219 -0.0702  1.1075
 4809TIP3   OH235985   3.833   4.043   0.098 -0.6356 -0.2405 -0.4783
 4809TIP3    H135986   3.896   3.977   0.124 -0.8145 -1.0997 -2.0903
 4809TIP3    H235987   3.823   4.099   0.175  1.9617 -0.1608 -0.1271
 4810TIP3   OH235988   6.506   2.297   7.112  0.2896  0.4910  0.9993
 4810TIP3    H135989   6.512   2.216   7.061 -0.7678  0.0491  1.5497
 4810TIP3    H235990   6.577   2.291   7.176  1.3578  0.8526 -0.1217
 4811TIP3   OH235991   0.885   2.517   2.390 -0.3357 -0.1120  0.7669
 4811TIP3    H135992   0.967   2.503   2.343 -1.8008  1.0252 -2.3677
 4811TIP3    H235993   0.876   2.440   2.446  1.1677 -2.0230 -1.4484
 4812TIP3   OH235994   1.731   4.826   7.470  0.2778 -0.1919  0.4494
 4812TIP3    H135995   1.648   4.860   7.438  0.6227 -0.9833 -1.4524
 4812TIP3    H235996   1.777   4.903   7.505 -0.4501  0.6127 -0.3220
 4813TIP3   OH235997   6.796   5.785   1.523 -0.4034 -0.2956 -0.0308
 4813TIP3    H135998   6.826   5.874   1.505  1.5921 -0.8546  0.2985
 4813TIP3    H235999   6.852   5.729   1.469 -2.7508 -1.3341 -1.5950
 4814TIP3   OH236000   4.072   5.473   1.350  0.9244  0.0836  0.6843
 4814TIP3    H136001   4.112   5.520   1.277  0.5929 -0.8532 -0.1170
 4814TIP3    H236002   4.041   5.542   1.409  1.3531  0.8474  0.0359
 4815TIP3   OH236003   0.799   1.861   1.368  0.5198  1.0596  0.5390
 4815TIP3    H136004   0.720   1.862   1.314 -0.7761  0.2831  2.3353
 4815TIP3    H236005   0.807   1.950   1.401 -0.0378  0.9727  0.9220
 4816TIP3   OH236006   5.767   3.417   7.418 -0.5587 -0.5036 -0.4791
 4816TIP3    H136007   5.838   3.476   7.444 -0.3573 -1.4368  1.1654
 4816TIP3    H236008   5.714   3.470   7.357 -0.7103  1.6068  1.3431
 4817TIP3   OH236009   4.376   0.911   7.255 -0.1855 -0.7214  0.4145
 4817TIP3    H136010   4.335   0.982   7.305 -0.7727 -0.9333  0.2446
 4817TIP3    H236011   4.465   0.906   7.288  0.0939  0.5889 -0.0759
 4818TIP3   OH236012   6.046   1.572   2.218  0.2506  0.4267  0.4768
 4818TIP3    H136013   6.084   1.488   2.193 -1.0576 -0.0761  0.0838
 4818TIP3    H236014   5.955   1.552   2.237  0.4143  1.4041  2.4690
 4819TIP3   OH236015   3.848   1.678   8.067  0.0284  0.3465 -0.0197
 4819TIP3    H136016   3.801   1.759   8.049  0.0618  0.7407  1.5186
 4819TIP3    H236017   3.940   1.701   8.057  0.0021  0.1971 -0.6641
 4820TIP3   OH236018   3.495   3.369   0.764  0.2913  0.1453  0.1644
 4820TIP3    H136019   3.589   3.382   0.756  0.2852  0.0571 -0.0529
 4820TIP3    H236020   3.484   3.274   0.771  0.1371  0.0748 -0.9309
 4821TIP3   OH236021   0.921   3.435   0.230 -0.2130  0.2271 -0.0925
 4821TIP3    H136022   0.981   3.472   0.165  1.3410 -2.9658 -0.6640
 4821TIP3    H236023   0.966   3.448   0.313 -0.4379  0.9662 -0.0748
 4822TIP3   OH236024   1.261   1.252   1.312  0.0923  0.2638  0.0493
 4822TIP3    H136025   1.311   1.317   1.262  0.0900  0.3206  0.1206
 4822TIP3    H236026   1.173   1.288   1.316  0.3218  0.7689  0.9787
 4823TIP3   OH236027   4.137   5.286   0.988 -0.4391  0.3606 -0.3382
 4823TIP3    H136028   4.190   5.364   1.002 -0.3607  0.3111 -0.3616
 4823TIP3    H236029   4.166   5.252   0.903  0.1850 -0.2176  0.0946
 4824TIP3   OH236030   5.838   2.869   1.091  0.8653  0.6016 -0.4300
 4824TIP3    H136031   5.792   2.785   1.103  0.3582  1.1111  1.4606
 4824TIP3    H236032   5.841   2.907   1.178  2.0437  2.0885 -1.0865
 4825TIP3   OH236033   5.820   5.550   8.153  0.1942  0.9340 -0.0537
 4825TIP3    H136034   5.907   5.526   8.185 -0.0314  1.3963  0.9536
 4825TIP3    H236035   5.813   5.644   8.171 -2.0289  0.2239  3.7503
 4826TIP3   OH236036   4.928   0.614   1.243  0.3379  0.0723 -0.4592
 4826TIP3    H136037   5.014   0.652   1.224 -0.6318  3.3050  0.8658
 4826TIP3    H236038   4.926   0.605   1.339 -0.9085  0.4444 -0.4244
 4827TIP3   OH236039   6.794   1.217   0.101  0.6088  0.0816 -0.0737
 4827TIP3    H136040   6.744   1.267   0.165  2.4921  1.4774  0.4018
 4827TIP3    H236041   6.739   1.216   0.022  0.1327  2.2027  0.1756
 4828TIP3   OH236042   6.761   4.778   2.129 -0.2101  0.6332 -0.1650
 4828TIP3    H136043   6.728   4.777   2.220  0.0228 -2.2774 -0.0125
 4828TIP3    H236044   6.687   4.746   2.077  0.8227 -1.4635 -0.4347
 4829TIP3   OH236045   1.201   1.735   8.047  0.1109  0.2856  0.5376
 4829TIP3    H136046   1.239   1.759   8.132  1.6289  1.5051 -0.4266
 4829TIP3    H236047   1.219   1.810   7.991 -2.5485  0.3067 -0.4112
 4830TIP3   OH236048   0.783   0.063   0.055 -0.2641 -0.7355 -0.2246
 4830TIP3    H136049   0.775   0.004   0.129  0.6725 -0.1063  0.3940
 4830TIP3    H236050   0.785   0.151   0.093  0.7653 -0.4278 -0.9357
 4831TIP3   OH236051   0.394   4.643   0.296  0.6356  0.4534 -0.4850
 4831TIP3    H136052   0.477   4.596   0.291 -0.0134 -1.0291  1.6477
 4831TIP3    H236053   0.376   4.668   0.205  1.4889 -2.6177 -1.6184
 4832TIP3   OH236054   2.044   2.525   8.077 -0.0168 -0.0569 -0.0394
 4832TIP3    H136055   2.133   2.502   8.103 -0.1353 -1.0845 -0.4841
 4832TIP3    H236056   2.047   2.619   8.057  1.1059 -0.2029 -0.6038
 4833TIP3   OH236057   4.665   2.144   7.729  0.1307  0.4947  0.3343
 4833TIP3    H136058   4.759   2.138   7.712  0.0061 -0.0427 -0.2268
 4833TIP3    H236059   4.625   2.144   7.642 -0.6020 -3.4481  0.4754
 4834TIP3   OH236060   4.392   2.294   7.693  0.0632 -0.1291  0.7982
 4834TIP3    H136061   4.363   2.203   7.692 -0.6690  0.0941  1.2960
 4834TIP3    H236062   4.485   2.289   7.668 -0.0102 -0.9897  0.6472
 4835TIP3   OH236063   4.024   0.282   1.152  0.2853 -0.0150  0.0511
 4835TIP3    H136064   4.023   0.349   1.220 -0.5075  0.9998 -0.9114
 4835TIP3    H236065   4.063   0.325   1.076 -3.1811  0.5423 -1.6188
 4836TIP3   OH236066   1.021   5.083   8.075  0.0186 -0.2162 -0.2749
 4836TIP3    H136067   1.116   5.070   8.083  0.1231  1.1993  1.6332
 4836TIP3    H236068   1.010   5.131   7.993  1.1859  1.2031  0.3525
 4837TIP3   OH236069   3.046   1.165   6.622 -0.4534 -0.0885 -0.1896
 4837TIP3    H136070   3.097   1.085   6.631 -1.1169 -0.3790  1.1722
 4837TIP3    H236071   2.998   1.173   6.704 -1.0321  1.2730 -0.6256
 4838TIP3   OH236072   1.269   5.010   7.255  0.2054 -0.0068  0.5791
 4838TIP3    H136073   1.308   5.004   7.168  2.5842 -0.1564  1.5865
 4838TIP3    H236074   1.290   4.926   7.297 -0.0493  0.4450  1.6415
 4839TIP3   OH236075   4.918   3.946   7.639  0.4093  0.0898 -0.8418
 4839TIP3    H136076   4.943   4.020   7.695 -0.7688  0.5283 -0.8729
 4839TIP3    H236077   4.847   3.903   7.687  0.9684 -0.9325 -0.9065
 4840TIP3   OH236078   0.378   2.248   8.841 -0.5989  0.2482 -0.2481
 4840TIP3    H136079   0.332   2.167   8.819 -0.7811  0.1039  0.6332
 4840TIP3    H236080   0.327   2.317   8.799 -2.3985  0.2228  1.7601
 4841TIP3   OH236081   0.828   2.425   1.376  0.0550  0.0901 -0.0329
 4841TIP3    H136082   0.780   2.351   1.414 -0.5209  0.5716  0.2017
 4841TIP3    H236083   0.813   2.497   1.438 -1.1892  0.9921 -1.3064
 4842TIP3   OH236084   2.159   5.010   1.264  0.8135 -0.1971 -0.7955
 4842TIP3    H136085   2.089   5.030   1.202  0.1478  0.8087  0.2589
 4842TIP3    H236086   2.132   4.929   1.307  1.2050 -0.8153 -1.6731
 4843TIP3   OH236087   6.519   6.473   7.132  0.3942 -0.3562  0.4895
 4843TIP3    H136088   6.540   6.462   7.225 -0.7734 -2.3820  0.5637
 4843TIP3    H236089   6.438   6.524   7.132  0.5806 -0.0506  0.5372
 4844TIP3   OH236090   3.800   2.793   7.230  0.2732 -0.4220 -0.6114
 4844TIP3    H136091   3.730   2.729   7.219 -0.3456 -0.0067  0.6385
 4844TIP3    H236092   3.764   2.874   7.193 -0.3878  0.0706  1.0141
 4845TIP3   OH236093   0.115   4.089   7.503 -0.4485  0.5310  0.3397
 4845TIP3    H136094   0.073   4.059   7.584 -1.6280 -0.6799 -0.6590
 4845TIP3    H236095   0.179   4.021   7.482 -0.3550  0.6905  0.1016
 4846TIP3   OH236096   2.026   2.111   7.585  0.7715 -0.1751  0.1091
 4846TIP3    H136097   1.956   2.166   7.622  1.2202  0.8281 -0.4973
 4846TIP3    H236098   1.986   2.068   7.510 -0.1057 -2.1121  1.5769
 4847TIP3   OH236099   5.992   6.758   1.270  0.1742  0.0045 -0.1383
 4847TIP3    H136100   5.954   6.784   1.354 -2.2164 -1.6454 -0.5919
 4847TIP3    H236101   6.080   6.727   1.292 -0.4193 -0.4460  1.8000
 4848TIP3   OH236102   6.655   1.422   8.813 -0.0947  0.4444 -0.6268
 4848TIP3    H136103   6.625   1.510   8.791 -0.7150  0.4578  0.2283
 4848TIP3    H236104   6.736   1.435   8.861  0.2795  0.4997 -1.2621
 4849TIP3   OH236105   0.293   3.225   0.408  0.0756 -0.3788  0.7097
 4849TIP3    H136106   0.339   3.142   0.420 -0.2390 -0.6487  0.0745
 4849TIP3    H236107   0.294   3.239   0.314 -0.2317  0.1377  0.7812
 4850TIP3   OH236108   3.698   1.711   1.022 -0.0208  0.1669 -0.5879
 4850TIP3    H136109   3.748   1.734   1.101 -1.1004  1.1524 -0.1611
 4850TIP3    H236110   3.743   1.635   0.987  0.8706  0.0948  0.6355
 4851TIP3   OH236111   0.446   1.702   0.122 -0.0634  0.4357  0.2022
 4851TIP3    H136112   0.488   1.786   0.103  0.0777 -0.1150 -2.2319
 4851TIP3    H236113   0.356   1.712   0.091  0.2530 -0.6205 -1.1661
 4852TIP3   OH236114   3.167   1.025   6.334 -0.5350  0.8005 -0.0599
 4852TIP3    H136115   3.181   1.013   6.427 -1.1855  0.9081  0.0577
 4852TIP3    H236116   3.204   0.947   6.293  0.4418  1.1084  0.2156
 4853TIP3   OH236117   3.325   0.509   8.590 -0.0243 -0.0508 -0.5575
 4853TIP3    H136118   3.366   0.446   8.649  2.4472  2.1013  0.2062
 4853TIP3    H236119   3.336   0.594   8.634 -1.5081  1.1699 -2.3917
 4854TIP3   OH236120   4.831   3.411   8.535 -0.3092 -0.6258  0.3619
 4854TIP3    H136121   4.757   3.470   8.521 -1.3139 -1.6340  1.2415
 4854TIP3    H236122   4.795   3.339   8.587  1.7631 -0.0873  2.7337
 4855TIP3   OH236123   3.475   4.722   0.687 -0.1862 -0.2209 -0.4693
 4855TIP3    H136124   3.429   4.645   0.654 -2.3944  0.8727 -0.0680
 4855TIP3    H236125   3.437   4.795   0.640  1.2131  0.7460 -0.1625
 4856TIP3   OH236126   4.558   6.595   8.503 -0.0428 -0.0088  0.0337
 4856TIP3    H136127   4.589   6.631   8.586 -0.4804  0.4753 -0.0079
 4856TIP3    H236128   4.465   6.618   8.501 -0.2710 -0.9404 -0.1067
 4857TIP3   OH236129   6.289   2.507   7.688  0.0237 -0.0930  0.2708
 4857TIP3    H136130   6.345   2.430   7.674  1.2304  0.7202  0.5638
 4857TIP3    H236131   6.309   2.536   7.776 -2.5098 -1.0692  1.2839
 4858TIP3   OH236132   2.721   5.264   1.043  0.2716 -0.0013 -0.5304
 4858TIP3    H136133   2.708   5.259   1.138  0.8919  0.2773 -0.4249
 4858TIP3    H236134   2.658   5.202   1.007 -1.5013  1.4740 -0.0879
 4859TIP3   OH236135   3.817   6.169   8.787 -0.3118  0.4663 -0.5111
 4859TIP3    H136136   3.863   6.174   8.704 -1.3731  2.4870 -1.0491
 4859TIP3    H236137   3.876   6.212   8.850 -0.3859  0.8257 -0.6811
 4860TIP3   OH236138   6.759   0.628   0.837 -0.8059  0.8710  0.1144
 4860TIP3    H136139   6.794   0.611   0.750 -1.9013  1.6139 -0.4921
 4860TIP3    H236140   6.741   0.541   0.873  0.6033  0.5225  0.0208
 4861TIP3   OH236141   2.460   4.778   8.651  0.4643  0.1127  0.0929
 4861TIP3    H136142   2.550   4.747   8.652  0.4420  0.0351 -0.2424
 4861TIP3    H236143   2.407   4.699   8.645  0.4377  0.2277 -1.9285
 4862TIP3   OH236144   1.806   0.864   0.370 -0.4984  0.2424 -0.2212
 4862TIP3    H136145   1.870   0.904   0.430  0.2140 -1.5916  0.3183
 4862TIP3    H236146   1.740   0.826   0.428  0.5746 -2.1876 -0.4731
 4863TIP3   OH236147   3.735   5.036   7.288 -0.2281 -0.7282  0.2808
 4863TIP3    H136148   3.713   4.970   7.223 -2.8157  1.4602 -1.2876
 4863TIP3    H236149   3.651   5.079   7.308  1.5078  3.5339 -0.5446
 4864TIP3   OH236150   5.519   6.328   1.625 -0.6425  0.0296  0.6037
 4864TIP3    H136151   5.607   6.342   1.659 -0.5383 -1.0490  0.8006
 4864TIP3    H236152   5.505   6.233   1.631 -0.8612 -0.1468 -1.7071
 4865TIP3   OH236153   4.394   3.308   7.954  0.1272 -0.2486 -0.2429
 4865TIP3    H136154   4.299   3.316   7.948  0.1728 -0.6897 -2.0052
 4865TIP3    H236155   4.415   3.230   7.903  1.5433  0.5739 -0.9801
 4866TIP3   OH236156   4.328   4.784   7.944  0.2878 -0.2831  0.2457
 4866TIP3    H136157   4.300   4.770   7.854  1.1067  1.4662 -0.3182
 4866TIP3    H236158   4.421   4.760   7.944  0.2415 -0.4696  0.6775
 4867TIP3   OH236159   2.536   0.486   8.587  0.0859  0.6954 -0.5623
 4867TIP3    H136160   2.478   0.486   8.511  0.7374  1.1901 -1.0732
 4867TIP3    H236161   2.490   0.434   8.652 -1.3893  1.8642 -0.6031
 4868TIP3   OH236162   5.796   1.239   1.252  0.0324  0.0738 -0.4986
 4868TIP3    H136163   5.871   1.250   1.310 -1.1784 -0.0556  1.1663
 4868TIP3    H236164   5.753   1.159   1.283 -1.1417  0.4824 -1.0320
 4869TIP3   OH236165   2.389   3.424   0.842  0.2253  0.3199 -0.7691
 4869TIP3    H136166   2.421   3.334   0.847 -1.2892 -0.1929  0.1875
 4869TIP3    H236167   2.460   3.472   0.799  1.1465 -1.2744 -1.1035
 4870TIP3   OH236168   3.880   1.384   8.067  0.0026  0.0760 -0.2195
 4870TIP3    H136169   3.809   1.356   8.011  0.4332 -0.2266 -0.6226
 4870TIP3    H236170   3.869   1.479   8.074 -0.6401 -0.0126  0.0116
 4871TIP3   OH236171   0.038   0.750   0.383  0.2127 -0.1512  0.3210
 4871TIP3    H136172   0.035   0.816   0.313 -1.9852  0.5551  1.0177
 4871TIP3    H236173   0.009   0.669   0.341 -0.3546  0.0941  0.2365
 4872TIP3   OH236174   6.393   5.046   0.598  0.1180  0.2131 -0.2696
 4872TIP3    H136175   6.388   5.140   0.612  0.5131  0.0863  0.8445
 4872TIP3    H236176   6.407   5.036   0.504  0.9678  1.2950 -0.2791
 4873TIP3   OH236177   5.533   3.040   1.934  0.2515 -0.3983  0.6149
 4873TIP3    H136178   5.478   3.028   1.856 -0.2486  0.1270  0.8754
 4873TIP3    H236179   5.471   3.036   2.007  0.6572 -0.4556  0.9552
 4874TIP3   OH236180   4.927   1.190   1.089 -0.3052  0.0171 -0.2217
 4874TIP3    H136181   4.854   1.181   1.150  2.1197 -0.8847  2.8009
 4874TIP3    H236182   4.952   1.282   1.095 -0.8124  0.1909 -0.7806
 4875TIP3   OH236183   5.785   0.282   1.952  0.3411 -0.6297  0.7532
 4875TIP3    H136184   5.785   0.356   2.012 -1.5146 -0.9390  1.2068
 4875TIP3    H236185   5.701   0.238   1.968  0.8329 -2.0818 -0.4087
 4876TIP3   OH236186   3.218   1.918   6.815 -0.0052  0.1902 -1.0302
 4876TIP3    H136187   3.291   1.976   6.790 -0.2038  0.5511 -0.7819
 4876TIP3    H236188   3.142   1.975   6.820  0.3631  0.6147  2.3899
 4877TIP3   OH236189   4.462   2.452   1.495  0.0818  0.1286  0.3016
 4877TIP3    H136190   4.438   2.525   1.438  2.5254  1.5225  0.9041
 4877TIP3    H236191   4.459   2.375   1.438 -1.4112  0.8336 -0.6397
 4878TIP3   OH236192   1.233   6.540   7.817  0.2110  0.6695  0.1844
 4878TIP3    H136193   1.140   6.565   7.808  0.3453  0.8537 -0.7990
 4878TIP3    H236194   1.231   6.458   7.865 -0.6016 -0.3212 -1.4397
 4879TIP3   OH236195   1.979   2.868   0.450 -0.5228 -0.3436  0.3868
 4879TIP3    H136196   2.038   2.900   0.381  3.8809 -0.8417  3.4952
 4879TIP3    H236197   2.012   2.781   0.471 -3.7947 -1.5495  1.0827
 4880TIP3   OH236198   1.787   4.545   7.849  0.1435 -0.2259 -0.2383
 4880TIP3    H136199   1.767   4.517   7.938  0.0068 -0.2942 -0.2895
 4880TIP3    H236200   1.882   4.532   7.841  0.2885  0.5628  0.1627
 4881TIP3   OH236201   1.822   1.551   1.353 -0.2540 -0.4601 -0.5321
 4881TIP3    H136202   1.918   1.546   1.354  0.0198  0.6423 -4.2326
 4881TIP3    H236203   1.803   1.642   1.378 -0.3503 -0.6420  0.0715
 4882TIP3   OH236204   3.533   1.999   2.602  0.3998  0.0489  0.1200
 4882TIP3    H136205   3.471   1.972   2.671  1.4184 -1.3832  0.5281
 4882TIP3    H236206   3.496   2.080   2.568 -1.8587 -0.8711  0.1485
 4883TIP3   OH236207   3.558   2.672   8.072  0.2719  0.8197 -0.3449
 4883TIP3    H136208   3.478   2.722   8.089 -0.5419 -0.3098 -0.7716
 4883TIP3    H236209   3.537   2.618   7.996  1.4777  0.5574 -0.5124
 4884TIP3   OH236210   2.391   1.172   8.749  0.1587 -0.1652 -0.3185
 4884TIP3    H136211   2.398   1.147   8.842  0.4747  2.9629  0.5925
 4884TIP3    H236212   2.301   1.152   8.726  0.1485 -1.2420  0.5578
 4885TIP3   OH236213   4.369   2.068   6.543  0.4792 -0.3075  0.0863
 4885TIP3    H136214   4.355   2.080   6.637 -1.9871 -2.3680  0.1056
 4885TIP3    H236215   4.301   2.006   6.517  1.5812 -0.4045 -2.9359
 4886TIP3   OH236216   1.928   4.130   6.692 -0.2806 -0.2472 -0.4121
 4886TIP3    H136217   1.948   4.045   6.654 -2.5270 -0.9379 -0.2074
 4886TIP3    H236218   1.839   4.150   6.662 -0.5700  1.0934  1.1541
 4887TIP3   OH236219   5.269   2.161   0.789  0.1238 -0.3753  0.0284
 4887TIP3    H136220   5.354   2.144   0.831  0.5278 -0.8466 -0.9458
 4887TIP3    H236221   5.205   2.120   0.847  0.6087 -0.4597  0.5143
 4888TIP3   OH236222   0.079   4.920   0.493 -0.0142  0.3132  0.6675
 4888TIP3    H136223   0.025   4.951   0.566 -0.0349 -1.7844  1.6043
 4888TIP3    H236224   0.149   4.869   0.534  0.4090 -0.3076 -0.7417
 4889TIP3   OH236225   2.259   6.601   2.232  0.0338 -0.7979 -0.3518
 4889TIP3    H136226   2.165   6.616   2.223 -0.0648 -0.3547  1.1255
 4889TIP3    H236227   2.270   6.507   2.224 -0.6513 -0.9422  0.3615
 4890TIP3   OH236228   6.339   4.809   0.718 -0.3503  0.4133 -0.1527
 4890TIP3    H136229   6.248   4.809   0.747  0.3286 -1.9445  2.4722
 4890TIP3    H236230   6.354   4.898   0.685 -2.6019  2.0840  2.8224
 4891TIP3   OH236231   2.206   6.267   1.241 -0.3631 -0.5820 -0.0319
 4891TIP3    H136232   2.165   6.183   1.221 -2.1303  0.4378 -0.9372
 4891TIP3    H236233   2.135   6.331   1.235  1.0630  1.0850 -0.0767
 4892TIP3   OH236234   1.976   3.425   1.603  0.6826  0.4856  0.4051
 4892TIP3    H136235   2.036   3.497   1.623  2.5270 -0.8705 -0.0197
 4892TIP3    H236236   1.913   3.427   1.675 -0.6893  3.8202 -0.6858
 4893TIP3   OH236237   5.372   3.370   0.540 -0.1623 -0.0078  0.3448
 4893TIP3    H136238   5.455   3.363   0.493 -0.5013 -2.0056 -0.0494
 4893TIP3    H236239   5.311   3.407   0.476 -0.0767 -0.5602 -0.0621
 4894TIP3   OH236240   3.609   3.876   0.826 -0.2643  0.2612 -0.3560
 4894TIP3    H136241   3.549   3.950   0.824  1.0606  1.3624 -1.5127
 4894TIP3    H236242   3.558   3.805   0.865 -1.3631  1.9415  1.4521
 4895TIP3   OH236243   0.291   6.241   2.645  0.0864  0.1016 -0.2728
 4895TIP3    H136244   0.302   6.157   2.689 -0.2807  0.2025  0.0124
 4895TIP3    H236245   0.356   6.239   2.575 -1.5634 -1.4985 -1.8895
 4896TIP3   OH236246   1.006   0.347   0.834 -0.0271  0.3372 -0.2711
 4896TIP3    H136247   1.045   0.364   0.920 -0.0167  0.0789 -0.2256
 4896TIP3    H236248   0.964   0.430   0.810 -1.8541 -0.1768  0.9239
 4897TIP3   OH236249   1.631   6.471   0.773  0.5453 -0.5412  0.3119
 4897TIP3    H136250   1.567   6.468   0.844  0.7007  1.6983  0.6182
 4897TIP3    H236251   1.714   6.452   0.815  0.4158 -0.9330  0.3955
 4898TIP3   OH236252   6.049   3.695   8.594  0.6423  0.2700  0.3041
 4898TIP3    H136253   5.962   3.733   8.607  0.6944  0.2797  0.6287
 4898TIP3    H236254   6.098   3.719   8.672  1.2360  1.0930 -0.3071
 4899TIP3   OH236255   4.521   0.302   1.873 -0.5346  0.2387  0.3877
 4899TIP3    H136256   4.437   0.345   1.892 -0.5333  0.1143  0.6854
 4899TIP3    H236257   4.499   0.209   1.865 -0.2248 -0.0018  1.8965
 4900TIP3   OH236258   4.657   4.138   7.443 -0.3737  0.0867 -0.1676
 4900TIP3    H136259   4.611   4.120   7.525  0.2090 -1.4070 -0.1549
 4900TIP3    H236260   4.604   4.207   7.401 -0.9442  0.5309  1.2156
 4901TIP3   OH236261   2.955   6.143   8.783  0.1652 -0.5575 -0.3764
 4901TIP3    H136262   2.868   6.123   8.747 -0.8025 -0.7294  1.8885
 4901TIP3    H236263   2.946   6.231   8.819  1.7321  0.4652 -2.2717
 4902TIP3   OH236264   2.774   1.749   7.975  0.6027  0.0294 -0.3531
 4902TIP3    H136265   2.761   1.684   8.043  0.6279  1.4438  1.0451
 4902TIP3    H236266   2.704   1.732   7.911  1.8940 -2.7490 -1.2178
 4903TIP3   OH236267   1.105   3.471   6.965  0.5917 -0.0415 -0.8698
 4903TIP3    H136268   1.017   3.440   6.988 -0.8218  1.8796 -3.2592
 4903TIP3    H236269   1.124   3.541   7.028 -0.3493  0.6876 -1.3815
 4904TIP3   OH236270   0.222   2.765   1.889  0.4753  0.3374  0.1269
 4904TIP3    H136271   0.293   2.715   1.850 -0.7351 -1.6280  0.3231
 4904TIP3    H236272   0.245   2.771   1.982  0.5644  0.0331  0.1252
 4905TIP3   OH236273   0.968   1.895   1.074  0.2820  0.3293  0.2749
 4905TIP3    H136274   0.927   1.824   1.125 -0.6508  2.7791  3.2779
 4905TIP3    H236275   0.896   1.954   1.054  1.0814  0.6364 -1.9185
 4906TIP3   OH236276   0.528   5.562   7.999 -0.0359  0.0387 -0.0573
 4906TIP3    H136277   0.616   5.545   8.033 -0.4657  1.3227  1.8338
 4906TIP3    H236278   0.473   5.494   8.038 -0.2497  0.5469  0.5388
 4907TIP3   OH236279   0.624   5.501   0.194 -0.0938  0.9158 -0.4697
 4907TIP3    H136280   0.574   5.579   0.218  2.1295  1.9902  1.1062
 4907TIP3    H236281   0.696   5.535   0.140  0.1133 -0.2705 -0.9728
 4908TIP3   OH236282   4.052   6.073   0.154  0.4332 -0.5584  0.1991
 4908TIP3    H136283   3.964   6.073   0.190 -0.2057 -0.1984 -1.2983
 4908TIP3    H236284   4.068   6.164   0.127  0.6017 -0.9275 -1.0292
 4909TIP3   OH236285   6.092   6.499   8.173  0.1031  0.2518 -0.2825
 4909TIP3    H136286   6.113   6.546   8.093 -1.4032 -0.0042 -0.8605
 4909TIP3    H236287   6.173   6.454   8.197  0.6629  0.6006 -1.4709
 4910TIP3   OH236288   4.974   1.690   8.574 -0.5693  0.2376  0.3333
 4910TIP3    H136289   5.041   1.665   8.510 -1.2651 -1.7528  0.2865
 4910TIP3    H236290   4.892   1.686   8.525 -0.8665  1.2821  0.7278
 4911TIP3   OH236291   1.630   6.405   1.526 -0.3397  0.1145  0.3951
 4911TIP3    H136292   1.713   6.430   1.567  0.4206 -0.0424 -0.9694
 4911TIP3    H236293   1.599   6.331   1.578  0.9022 -0.4764  0.3484
 4912TIP3   OH236294   3.174   3.779   0.876 -0.9882 -0.3398 -0.0367
 4912TIP3    H136295   3.268   3.788   0.861 -1.3134  0.4985 -1.9083
 4912TIP3    H236296   3.160   3.684   0.881  0.1595 -0.4581  2.1521
 4913TIP3   OH236297   1.079   0.681   2.018  0.2846  0.1655  0.5058
 4913TIP3    H136298   1.146   0.666   2.084  0.5787 -0.0374  0.1677
 4913TIP3    H236299   1.003   0.632   2.049  0.3026  0.3677  0.8733
 4914TIP3   OH236300   6.725   3.761   0.071  0.3122  0.2766 -0.0457
 4914TIP3    H136301   6.666   3.693   0.103 -0.8128  1.1157 -0.2566
 4914TIP3    H236302   6.711   3.763  -0.023  0.5310  0.6163 -0.0736
 4915TIP3   OH236303   0.939   3.638   7.836  0.4216 -0.3087 -0.6271
 4915TIP3    H136304   0.867   3.700   7.842 -1.2285 -2.1693 -0.2170
 4915TIP3    H236305   0.918   3.583   7.761  0.7242 -1.6666  0.2341
 4916TIP3   OH236306   3.377   1.159   1.361  0.1205 -0.4044  0.4856
 4916TIP3    H136307   3.382   1.071   1.324 -1.0562 -0.0491 -0.5947
 4916TIP3    H236308   3.468   1.186   1.372  0.4965 -1.3480 -0.1666
 4917TIP3   OH236309   0.764   3.548   1.082 -0.1097 -0.1294 -0.3487
 4917TIP3    H136310   0.802   3.631   1.051 -1.4972  1.4386  1.8099
 4917TIP3    H236311   0.671   3.554   1.058 -0.7137  0.0670  1.8374
 4918TIP3   OH236312   1.535   3.557   8.504  0.3594  0.4534  0.3265
 4918TIP3    H136313   1.451   3.512   8.513  0.6335  0.0761  1.0686
 4918TIP3    H236314   1.591   3.518   8.571  1.3736  0.1761 -0.6492
 4919TIP3   OH236315   5.737   5.227   0.069  0.4315  0.0271  0.3613
 4919TIP3    H136316   5.824   5.191   0.048  0.0847 -0.2151 -0.7022
 4919TIP3    H236317   5.725   5.207   0.162  1.3371 -0.3088  0.4183
 4920TIP3   OH236318   6.769   2.604   1.940 -0.2321 -0.4071  0.3231
 4920TIP3    H136319   6.827   2.600   1.864  0.8818 -0.3773  1.1427
 4920TIP3    H236320   6.681   2.596   1.903  0.1993  0.8556 -1.0686
 4921TIP3   OH236321   0.274   0.297   1.476 -0.5811 -0.2821 -0.2953
 4921TIP3    H136322   0.251   0.374   1.423 -1.5709 -0.1720  0.2718
 4921TIP3    H236323   0.352   0.262   1.434 -1.4617 -0.3303 -1.9860
 4922TIP3   OH236324   1.319   5.481   1.254  0.2867 -0.0166  0.0039
 4922TIP3    H136325   1.252   5.421   1.287  1.8407 -2.5239 -1.1420
 4922TIP3    H236326   1.387   5.424   1.218  2.0378  2.4571 -0.8616
 4923TIP3   OH236327   1.502   2.464   1.395 -0.2653 -0.3340  0.2169
 4923TIP3    H136328   1.533   2.554   1.402  0.8930 -0.7126  0.0916
 4923TIP3    H236329   1.574   2.411   1.428 -0.3533 -1.2966 -1.0679
 4924TIP3   OH236330   2.886   2.075   1.278 -0.2298 -0.3373  0.1915
 4924TIP3    H136331   2.971   2.030   1.271  0.6435  1.3944 -1.3854
 4924TIP3    H236332   2.821   2.006   1.267  1.0400 -1.2930 -1.9676
 4925TIP3   OH236333   0.801   0.385   2.023  0.2088  0.4889 -0.3886
 4925TIP3    H136334   0.724   0.408   2.074 -1.3787 -2.2123 -1.3928
 4925TIP3    H236335   0.783   0.420   1.936 -1.1301 -2.1395 -1.2796
 4926TIP3   OH236336   4.741   5.087   7.644  0.1846  0.3377 -0.1529
 4926TIP3    H136337   4.761   5.138   7.723  0.2639  1.4567 -0.8816
 4926TIP3    H236338   4.750   4.996   7.672  0.4352  0.7190  1.0733
 4927TIP3   OH236339   5.078   0.048   2.179  0.2241 -0.0479 -0.3022
 4927TIP3    H136340   5.148   0.002   2.225  1.7309 -1.3472 -3.5865
 4927TIP3    H236341   5.038  -0.019   2.124 -0.9723  1.5324 -1.4287
 4928TIP3   OH236342   4.843   5.251   7.857 -0.3759  0.4753 -0.4967
 4928TIP3    H136343   4.868   5.206   7.938 -1.7623  0.7017  0.0880
 4928TIP3    H236344   4.881   5.338   7.864  2.8953 -0.6652 -1.9253
 4929TIP3   OH236345   0.081   2.769   7.909 -0.2691 -0.5069  0.5072
 4929TIP3    H136346   0.109   2.678   7.897 -1.3645 -0.7728 -0.1415
 4929TIP3    H236347  -0.015   2.766   7.903 -0.2940  0.7641 -0.0605
 4930TIP3   OH236348   1.648   3.266   7.585  0.3821 -0.3837 -0.6744
 4930TIP3    H136349   1.627   3.261   7.492 -0.9437  0.2504 -0.4435
 4930TIP3    H236350   1.743   3.268   7.589  0.4468  1.6960 -2.1458
 4931TIP3   OH236351   5.313   3.365   7.696  0.6473  0.3123  0.5376
 4931TIP3    H136352   5.358   3.414   7.626  1.7813 -0.0746  0.9707
 4931TIP3    H236353   5.344   3.406   7.777 -3.2329  3.0667  0.8911
 4932TIP3   OH236354   0.114   2.500   7.950 -0.5431 -0.3174 -0.4720
 4932TIP3    H136355   0.143   2.411   7.966 -1.4333 -0.4976  0.2233
 4932TIP3    H236356   0.055   2.520   8.023  0.5482  1.2551  0.0459
 4933TIP3   OH236357   2.539   5.446   1.235  0.0036 -0.0884 -0.0660
 4933TIP3    H136358   2.461   5.495   1.262  0.9246  2.3064 -1.4507
 4933TIP3    H236359   2.537   5.448   1.140  1.1470 -1.0689 -0.1341
 4934TIP3   OH236360   1.945   6.106   8.381 -0.0347 -0.1062 -0.7409
 4934TIP3    H136361   1.955   6.035   8.444 -0.5154  0.6847  0.2479
 4934TIP3    H236362   2.034   6.120   8.347  0.0204 -1.3329 -1.1418
 4935TIP3   OH236363   5.708   3.209   1.075  0.4854 -0.2522  0.4305
 4935TIP3    H136364   5.636   3.269   1.092  2.0054  2.1151 -0.9617
 4935TIP3    H236365   5.721   3.213   0.980  2.6779 -0.2871  0.6791
 4936TIP3   OH236366   1.915   6.463   0.855 -0.2606 -0.3836 -0.4404
 4936TIP3    H136367   1.927   6.424   0.941  1.9299  0.1168 -0.4467
 4936TIP3    H236368   1.952   6.399   0.794 -0.0253  0.0934 -0.8107
 4937TIP3   OH236369   5.855   4.918   8.652 -0.7078  0.3222 -0.9184
 4937TIP3    H136370   5.879   4.872   8.571  0.7884 -0.6589  0.0389
 4937TIP3    H236371   5.915   4.993   8.656 -1.3822  0.8868 -1.1472
 4938TIP3   OH236372   5.262   4.029   0.487  0.5732 -0.0501 -0.1348
 4938TIP3    H136373   5.255   4.101   0.424  2.0907  0.7094  0.5063
 4938TIP3    H236374   5.234   4.067   0.570  0.7852 -0.3706  0.0883
 4939TIP3   OH236375   1.062   4.252   8.336 -0.0676  0.0733 -0.0342
 4939TIP3    H136376   1.036   4.337   8.372  0.0266  0.2251 -0.3197
 4939TIP3    H236377   1.069   4.267   8.242  0.5228 -0.1024 -0.0226
 4940TIP3   OH236378   2.817   0.494   6.955 -0.3327 -0.1462 -0.0017
 4940TIP3    H136379   2.815   0.580   6.915 -2.4419  0.0478  0.3795
 4940TIP3    H236380   2.736   0.451   6.925  1.0961 -2.3768 -0.9383
 4941TIP3   OH236381   1.065   1.516   6.663  0.3346 -0.7198 -0.0114
 4941TIP3    H136382   1.153   1.480   6.671  0.5193 -0.4117 -0.6052
 4941TIP3    H236383   1.078   1.603   6.627 -0.2117 -0.6586 -0.0684
 4942TIP3   OH236384   4.630   1.695   2.656  0.0152 -0.3414 -0.0779
 4942TIP3    H136385   4.565   1.729   2.595 -0.6633 -0.9756  0.2749
 4942TIP3    H236386   4.586   1.695   2.741  0.8648  0.3046  0.3908
 4943TIP3   OH236387   2.591   1.458   0.069  0.0513 -0.6173 -0.2656
 4943TIP3    H136388   2.525   1.507   0.021  0.3863 -2.2905 -2.6329
 4943TIP3    H236389   2.674   1.501   0.046  0.0331 -0.0912  0.6217
 4944TIP3   OH236390   4.572   2.181   8.541  0.3297 -0.2385 -0.2656
 4944TIP3    H136391   4.596   2.271   8.520  2.9523 -0.9932 -0.9539
 4944TIP3    H236392   4.592   2.172   8.634 -1.5855  0.2967  0.2491
 4945TIP3   OH236393   4.772   2.489   8.732  0.3138  0.1126  0.5528
 4945TIP3    H136394   4.733   2.574   8.751 -0.5927  0.2755 -1.7071
 4945TIP3    H236395   4.698   2.429   8.729  0.7054 -0.3657  0.2159
 4946TIP3   OH236396   0.198   3.216   8.438 -0.8855 -0.4924  0.4843
 4946TIP3    H136397   0.131   3.261   8.388 -0.0124  0.8364  0.4751
 4946TIP3    H236398   0.160   3.130   8.457 -1.8423 -0.4474 -1.0884
 4947TIP3   OH236399   2.349   5.761   7.245 -0.4430  0.2110  0.2497
 4947TIP3    H136400   2.347   5.851   7.213 -0.9558  0.4929  1.0653
 4947TIP3    H236401   2.442   5.744   7.264 -0.1101  0.0213 -1.3895
 4948TIP3   OH236402   4.729   5.217   0.168  0.3902  0.1171  0.1164
 4948TIP3    H136403   4.722   5.287   0.103  0.7068 -0.5475 -0.6488
 4948TIP3    H236404   4.740   5.138   0.117  0.0079 -0.5052  0.9753
 4949TIP3   OH236405   3.086   3.160   7.308 -0.1980  0.3389 -0.7357
 4949TIP3    H136406   3.047   3.115   7.233 -1.0158 -1.0897  0.4893
 4949TIP3    H236407   3.034   3.240   7.317 -2.1501 -0.9493  0.1247
 4950TIP3   OH236408   2.334   1.254   1.796 -0.0337 -0.0752  0.1414
 4950TIP3    H136409   2.240   1.251   1.815 -0.0473 -0.7522 -0.0383
 4950TIP3    H236410   2.369   1.176   1.838  0.4983  0.3170  0.4416
 4951TIP3   OH236411   5.962   5.678   7.464 -0.0702  0.0585  0.2207
 4951TIP3    H136412   6.049   5.664   7.426  0.4242  0.5416  1.1538
 4951TIP3    H236413   5.969   5.642   7.553 -1.4177 -1.7262 -0.3227
 4952TIP3   OH236414   6.250   1.562   0.328 -0.0316  0.2945  0.1350
 4952TIP3    H136415   6.211   1.597   0.407  0.4228 -0.5905  0.7736
 4952TIP3    H236416   6.340   1.595   0.329 -0.3113  1.0948 -0.5391
 4953TIP3   OH236417   4.432   6.479   7.733 -0.1494  0.0861 -0.1253
 4953TIP3    H136418   4.399   6.389   7.738 -1.2808  0.5119  3.4064
 4953TIP3    H236419   4.358   6.532   7.764  1.2656  1.9690  0.1397
 4954TIP3   OH236420   1.552   6.497   6.374  0.1961  0.0987 -0.3762
 4954TIP3    H136421   1.542   6.592   6.368  2.1930  0.2855 -1.4613
 4954TIP3    H236422   1.638   6.479   6.336  1.0927 -1.8718  2.2691
 4955TIP3   OH236423   5.487   1.855   1.350  0.4565 -0.0899 -0.2708
 4955TIP3    H136424   5.403   1.896   1.330  0.0213 -1.3836 -1.2943
 4955TIP3    H236425   5.463   1.768   1.383  1.3570 -1.6254 -3.2836
 4956TIP3   OH236426   4.737   4.877   0.569  0.1915 -0.4987  0.4638
 4956TIP3    H136427   4.747   4.881   0.474  2.3500 -0.8998  0.6197
 4956TIP3    H236428   4.667   4.940   0.588 -1.8723 -2.0124 -1.5280
 4957TIP3   OH236429   3.150   1.698   8.685  0.0589 -0.2660 -0.0547
 4957TIP3    H136430   3.106   1.733   8.607  1.0875  0.8435 -0.1666
 4957TIP3    H236431   3.096   1.623   8.711 -1.6194  0.7306 -0.4654
 4958TIP3   OH236432   4.635   0.514   8.485  0.2597 -0.3103  0.1293
 4958TIP3    H136433   4.550   0.555   8.467  0.5707 -0.1272 -1.0622
 4958TIP3    H236434   4.615   0.421   8.495  0.0839 -0.5356 -1.8552
 4959TIP3   OH236435   6.102   0.806   7.465  0.0482 -0.4785  0.1794
 4959TIP3    H136436   6.048   0.878   7.498  0.0576 -0.9768  1.3174
 4959TIP3    H236437   6.134   0.762   7.543  0.0478 -1.7179 -0.4925
 4960TIP3   OH236438   1.984   4.228   0.074 -0.0737 -0.1801  0.3406
 4960TIP3    H136439   1.898   4.186   0.083  0.2273 -0.6795  0.9975
 4960TIP3    H236440   1.976   4.309   0.125  0.0755 -0.5907  1.0219
 4961TIP3   OH236441   4.840   6.656   7.968 -0.4333  0.2726 -0.8153
 4961TIP3    H136442   4.888   6.585   7.925  0.1694  1.6539 -2.5269
 4961TIP3    H236443   4.791   6.613   8.038  1.7799 -1.4821 -0.2470
 4962TIP3   OH236444   6.567   0.003   6.834  0.1242  0.4092  0.0684
 4962TIP3    H136445   6.480   0.008   6.872 -0.3463  1.3884 -1.0759
 4962TIP3    H236446   6.581  -0.090   6.817 -1.3751  0.3947 -1.2472
 4963TIP3   OH236447   0.979   1.262   7.318  0.4236  0.0242  0.4836
 4963TIP3    H136448   0.963   1.167   7.312  0.6251  0.0936 -1.8606
 4963TIP3    H236449   0.941   1.298   7.238  1.0367  1.8372  0.9728
 4964TIP3   OH236450   6.599   6.430   7.396  0.4175  0.2031  0.2883
 4964TIP3    H136451   6.690   6.405   7.411  0.2947 -0.1222  0.4957
 4964TIP3    H236452   6.548   6.375   7.455 -0.0538 -0.9033 -1.0913
 4965TIP3   OH236453   0.301   0.686   7.819 -0.1489  0.1493 -0.0829
 4965TIP3    H136454   0.236   0.741   7.865  0.6414  0.4720  0.6787
 4965TIP3    H236455   0.381   0.697   7.870  0.3548 -0.7144 -0.6752
 4966TIP3   OH236456   4.516   4.706   7.229 -0.8395 -0.2595 -0.6025
 4966TIP3    H136457   4.560   4.789   7.244 -0.8219 -0.4732  0.6159
 4966TIP3    H236458   4.442   4.706   7.290 -0.6818 -1.2460 -0.3862
 4967TIP3   OH236459   2.353   3.217   0.056 -0.1107 -0.2418  0.4026
 4967TIP3    H136460   2.339   3.175  -0.029 -1.5307  1.3218 -0.1897
 4967TIP3    H236461   2.270   3.205   0.103  0.7125 -1.2319  1.6730
 4968TIP3   OH236462   1.602   1.137   8.553 -0.4622 -0.1066 -0.1004
 4968TIP3    H136463   1.631   1.047   8.568 -0.3940 -0.8088 -3.5643
 4968TIP3    H236464   1.683   1.187   8.541 -0.5264 -0.0792 -0.4345
 4969TIP3   OH236465   3.220   3.251   0.391 -0.0754 -0.0966  0.2047
 4969TIP3    H136466   3.223   3.172   0.337  0.3524  0.1956 -0.2005
 4969TIP3    H236467   3.131   3.284   0.378 -0.4108 -0.7545  0.7373
 4970TIP3   OH236468   1.518   3.433   0.882 -0.1587  0.5104 -0.0544
 4970TIP3    H136469   1.533   3.452   0.974 -0.2284  1.1041 -0.1588
 4970TIP3    H236470   1.568   3.353   0.865  0.0142  0.5098  0.4483
 4971TIP3   OH236471   4.884   5.416   8.534 -0.4409  0.4980 -0.0000
 4971TIP3    H136472   4.819   5.445   8.598  1.6642  2.2865  1.4673
 4971TIP3    H236473   4.888   5.487   8.470  0.2544  0.5272  0.0720
 4972TIP3   OH236474   3.654   1.652   2.129 -0.2062  0.3412  0.9790
 4972TIP3    H136475   3.577   1.705   2.147  1.8379  3.4574  1.3140
 4972TIP3    H236476   3.708   1.660   2.208  1.5357  0.3482 -0.1407
 4973TIP3   OH236477   2.652   6.474   7.735  0.4181  0.7721 -0.0702
 4973TIP3    H136478   2.604   6.464   7.652 -0.2879 -0.7008  0.4878
 4973TIP3    H236479   2.584   6.498   7.799  0.2407 -1.9518  0.8595
 4974TIP3   OH236480   3.161   5.075   1.597  0.0043 -0.1445  0.2528
 4974TIP3    H136481   3.153   5.063   1.502 -1.6563  0.6975  0.2535
 4974TIP3    H236482   3.255   5.072   1.613  0.3425 -0.0269 -1.4619
 4975TIP3   OH236483   3.390   0.324   8.365 -0.8374  0.4455  0.6996
 4975TIP3    H136484   3.484   0.318   8.386 -0.8679  1.6262  1.2548
 4975TIP3    H236485   3.346   0.318   8.450 -1.2982 -0.4376  0.4119
 4976TIP3   OH236486   2.032   1.017   0.527 -0.1786 -0.7673 -0.3291
 4976TIP3    H136487   2.048   0.970   0.609  1.0271 -1.4509 -0.9321
 4976TIP3    H236488   2.010   1.106   0.554 -0.3671 -1.1334  0.7531
 4977TIP3   OH236489   5.699   4.352   2.026  0.0077  0.0823  0.3766
 4977TIP3    H136490   5.642   4.363   1.950  0.2295  0.4719  0.2628
 4977TIP3    H236491   5.773   4.410   2.009  0.8745 -1.0559  0.1095
 4978TIP3   OH236492   6.523   4.392   8.280  0.6293 -0.4266  0.1405
 4978TIP3    H136493   6.448   4.335   8.296  0.7481 -0.7205 -0.3533
 4978TIP3    H236494   6.540   4.433   8.365  0.5325 -1.1105  0.4943
 4979TIP3   OH236495   3.404   2.745   7.332 -0.6093  0.0924  0.2321
 4979TIP3    H136496   3.465   2.791   7.389  0.6539 -2.6207  1.2456
 4979TIP3    H236497   3.330   2.805   7.323  0.8457  2.2261  1.5075
 4980TIP3   OH236498   0.877   5.288   0.610  0.1883 -0.2094 -0.2617
 4980TIP3    H136499   0.813   5.220   0.630 -1.1222  1.2542  0.7618
 4980TIP3    H236500   0.830   5.370   0.623  1.6349  0.9169 -1.7364
 4981TIP3   OH236501   3.911   3.689   8.808 -0.1436  0.7265  0.2868
 4981TIP3    H136502   3.933   3.598   8.829  1.1103  0.7058 -0.9454
 4981TIP3    H236503   3.827   3.683   8.763 -0.1927  0.2063  0.4415
 4982TIP3   OH236504   1.147   4.843   0.960 -0.3623  0.3973  0.0857
 4982TIP3    H136505   1.062   4.885   0.974  0.8515  2.8023  0.9048
 4982TIP3    H236506   1.138   4.757   1.002 -1.9664  1.1426  1.4211
 4983TIP3   OH236507   5.185   5.848   0.637 -0.2861 -0.8906 -0.2356
 4983TIP3    H136508   5.242   5.913   0.595 -0.7419 -0.0163  0.4751
 4983TIP3    H236509   5.103   5.893   0.652 -0.0596 -1.0583  1.8461
 4984TIP3   OH236510   1.248   3.577   0.301  0.0212  0.3115  0.2717
 4984TIP3    H136511   1.332   3.614   0.329  0.4394  1.2303 -1.9962
 4984TIP3    H236512   1.256   3.483   0.317  0.5042  0.6555  2.3423
 4985TIP3   OH236513   1.119   4.679   7.238  0.9776 -0.1228  0.1422
 4985TIP3    H136514   1.044   4.620   7.227 -0.2037  1.6641 -2.5810
 4985TIP3    H236515   1.172   4.666   7.159  2.1273  0.5318  0.7776
 4986TIP3   OH236516   6.452   6.110   6.769 -0.0076  0.8954  0.4608
 4986TIP3    H136517   6.476   6.183   6.826 -1.0792 -0.6530  3.0644
 4986TIP3    H236518   6.487   6.033   6.813 -1.4199 -0.4395 -0.6553
 4987TIP3   OH236519   5.197   6.742   0.157  1.1813 -0.4017 -0.3061
 4987TIP3    H136520   5.109   6.763   0.127  2.0935  1.2028 -2.0725
 4987TIP3    H236521   5.211   6.802   0.231  0.8657 -0.5495 -0.1225
 4988TIP3   OH236522   3.788   4.542   1.517  0.2025  0.3196  0.2602
 4988TIP3    H136523   3.713   4.526   1.460 -0.0391  1.6207  0.1829
 4988TIP3    H236524   3.844   4.466   1.504 -1.7819 -1.4578  1.5224
 4989TIP3   OH236525   5.234   2.764   7.239 -0.5358 -0.2128 -0.7460
 4989TIP3    H136526   5.293   2.727   7.304  0.6263  0.1558 -1.5616
 4989TIP3    H236527   5.268   2.851   7.221 -1.5205  0.1386 -1.0040
 4990TIP3   OH236528   2.685   4.358   0.705  0.1467 -0.4517 -0.4466
 4990TIP3    H136529   2.663   4.313   0.623 -0.7722  0.3561 -0.6645
 4990TIP3    H236530   2.736   4.294   0.755  1.0809 -0.8279 -1.8054
 4991TIP3   OH236531   3.819   6.190   0.792  0.0590  0.2064 -0.0330
 4991TIP3    H136532   3.898   6.143   0.765  0.6128  1.2180 -0.2014
 4991TIP3    H236533   3.827   6.196   0.887 -0.6375 -1.1210  0.1309
 4992TIP3   OH236534   5.613   6.294   7.689  0.3335 -0.2957 -0.0515
 4992TIP3    H136535   5.629   6.384   7.719 -0.5072  0.1959 -1.0243
 4992TIP3    H236536   5.676   6.242   7.738 -0.1841  0.6142  1.7088
 4993TIP3   OH236537   1.634   0.617   1.275 -0.0799  0.0101  0.4641
 4993TIP3    H136538   1.631   0.705   1.237 -0.1971  0.9703  2.5594
 4993TIP3    H236539   1.686   0.566   1.213 -0.6118  1.3549 -1.1587
 4994TIP3   OH236540   6.602   0.599   1.496 -0.0171 -0.1199 -0.5872
 4994TIP3    H136541   6.627   0.684   1.534 -0.5172  0.5202 -1.6355
 4994TIP3    H236542   6.674   0.577   1.437 -0.4312  0.1798 -1.2207
 4995TIP3   OH236543   3.818   0.678   8.632  0.7433 -0.7094  0.7029
 4995TIP3    H136544   3.773   0.760   8.654 -0.0149 -0.6303 -1.0013
 4995TIP3    H236545   3.750   0.612   8.632  0.8925 -0.8759 -0.3733
 4996TIP3   OH236546   3.320   3.842   1.199  0.4945  0.3736  0.0634
 4996TIP3    H136547   3.238   3.866   1.156  0.9793  0.6645 -0.7168
 4996TIP3    H236548   3.353   3.769   1.148 -0.1426 -0.9348  1.4392
 4997TIP3   OH236549   0.552   0.267   7.774  0.3108 -0.0015  0.0742
 4997TIP3    H136550   0.593   0.321   7.707  0.5889 -0.8359 -0.4544
 4997TIP3    H236551   0.468   0.309   7.790  0.7893  0.9530  0.1678
 4998TIP3   OH236552   1.143   2.825   7.600  0.2876  0.0611  0.6645
 4998TIP3    H136553   1.095   2.904   7.575  1.3076  0.0980 -1.3359
 4998TIP3    H236554   1.151   2.831   7.695  0.0840  2.2025  0.5902
 4999TIP3   OH236555   4.478   2.756   7.963 -0.2068  0.0201 -0.0919
 4999TIP3    H136556   4.495   2.676   7.913  0.1032  0.2632 -0.3732
 4999TIP3    H236557   4.553   2.812   7.946 -0.3491  0.3147  0.2299
 5000TIP3   OH236558   2.785   2.513   7.997  0.2275  0.1908  0.0775
 5000TIP3    H136559   2.872   2.534   7.964  0.7037 -1.4530  0.1739
 5000TIP3    H236560   2.731   2.503   7.918  0.6220 -0.7222 -0.0899
 5001TIP3   OH236561   1.845   1.834   0.253 -0.0329  0.3320 -0.1356
 5001TIP3    H136562   1.778   1.767   0.239  1.0150 -0.6894 -0.4693
 5001TIP3    H236563   1.873   1.821   0.344  0.3776  0.1139 -0.2909
 5002TIP3   OH236564   5.041   5.179   8.793 -0.1092  0.0391  0.3151
 5002TIP3    H136565   5.010   5.270   8.784 -0.0859  0.3378  2.5981
 5002TIP3    H236566   5.082   5.177   8.880 -2.3918 -2.7529  1.4886
 5003TIP3   OH236567   2.098   1.627   0.416 -0.1175  0.4179  0.0866
 5003TIP3    H136568   2.046   1.667   0.485 -0.5516  1.6079 -0.8773
 5003TIP3    H236569   2.045   1.553   0.386  0.9173 -1.2877  2.2233
 5004TIP3   OH236570   5.052   3.373   8.009 -0.6456  0.0085  0.1267
 5004TIP3    H136571   5.056   3.451   7.954 -0.8430 -0.9290 -1.2752
 5004TIP3    H236572   4.994   3.314   7.962 -3.6375  0.3892  3.0243
 5005TIP3   OH236573   4.534   5.234   1.207 -0.5623  0.5545 -0.8597
 5005TIP3    H136574   4.455   5.189   1.239 -0.6529  0.7775 -0.7689
 5005TIP3    H236575   4.550   5.195   1.121 -0.6261  0.3291 -0.7718
 5006TIP3   OH236576   2.654   3.886   0.901 -0.3799  0.1687  0.6305
 5006TIP3    H136577   2.734   3.870   0.849 -0.5002 -0.4229  0.6184
 5006TIP3    H236578   2.612   3.800   0.906 -1.0317  0.4847  0.6156
 5007TIP3   OH236579   4.461   1.320   0.138 -0.4454 -0.5675  0.0790
 5007TIP3    H136580   4.420   1.290   0.057 -1.4311  2.9672 -0.8949
 5007TIP3    H236581   4.388   1.337   0.197  0.2063 -1.9780  1.3575
 5008TIP3   OH236582   0.022   4.420   1.850  0.1479  0.3259 -0.4307
 5008TIP3    H136583   0.010   4.445   1.759 -1.4402  1.0885 -0.0446
 5008TIP3    H236584  -0.036   4.345   1.862  3.2841 -2.4233 -1.0206
 5009TIP3   OH236585   3.267   2.266   7.287 -0.1185  0.1936 -0.1257
 5009TIP3    H136586   3.214   2.190   7.263 -2.2994  1.0842  1.5299
 5009TIP3    H236587   3.250   2.329   7.217 -2.3548  0.9207  0.9871
 5010TIP3   OH236588   5.993   4.951   1.244 -0.3223  0.2235 -0.1596
 5010TIP3    H136589   5.947   4.964   1.327  0.0984 -1.3354  0.3507
 5010TIP3    H236590   6.082   4.926   1.269 -0.5182 -1.4945 -1.0189
 5011TIP3   OH236591   2.545   6.531   0.343 -0.1324  1.3399 -0.2562
 5011TIP3    H136592   2.570   6.581   0.265  0.6068  2.2590  0.5454
 5011TIP3    H236593   2.528   6.443   0.311  1.3813  1.3894 -1.2838
 5012TIP3   OH236594   6.563   1.886   0.713 -0.8485  0.3046 -0.0843
 5012TIP3    H136595   6.484   1.907   0.663 -1.4855  1.6737  1.4051
 5012TIP3    H236596   6.531   1.836   0.788  0.0376 -1.3533 -0.7621
 5013TIP3   OH236597   4.221   0.104   6.586 -0.4340 -0.1686  0.2417
 5013TIP3    H136598   4.207   0.087   6.492 -1.4797  0.7724  0.2093
 5013TIP3    H236599   4.198   0.196   6.598  2.6697  0.6461  0.8858
 5014TIP3   OH236600   4.048   4.319   6.177 -0.2173 -0.1025 -0.1895
 5014TIP3    H136601   4.086   4.297   6.092  0.0195 -0.3236 -0.0295
 5014TIP3    H236602   4.118   4.299   6.240 -0.8423 -1.1953  0.1855
 5015TIP3   OH236603   6.250   6.546   0.181  0.2913  0.9966 -0.1725
 5015TIP3    H136604   6.306   6.492   0.125 -0.1117 -0.0058  0.3806
 5015TIP3    H236605   6.309   6.611   0.219  0.4033  2.4621 -2.6270
 5016TIP3   OH236606   5.814   4.318   8.458 -0.0662  0.4470  0.4712
 5016TIP3    H136607   5.758   4.286   8.387  1.0566 -0.8466  0.1249
 5016TIP3    H236608   5.768   4.293   8.538 -0.4270  0.2242  0.1997
 5017TIP3   OH236609   0.676   2.302   8.210 -1.0611  0.5521  1.0806
 5017TIP3    H136610   0.691   2.207   8.217  1.2557  0.8127  0.3858
 5017TIP3    H236611   0.587   2.309   8.176 -0.6324 -1.4617 -0.6934
 5018TIP3   OH236612   2.468   1.025   8.072 -0.3481  0.3759 -0.0830
 5018TIP3    H136613   2.412   1.100   8.093  0.1150  1.3268 -2.0401
 5018TIP3    H236614   2.473   0.976   8.154 -0.1946  2.7759  1.4570
 5019TIP3   OH236615   4.726   1.329   8.806 -0.1972  0.0803 -0.4747
 5019TIP3    H136616   4.656   1.332   8.870 -0.6295 -0.7787 -0.8849
 5019TIP3    H236617   4.737   1.235   8.787  2.1006  0.0443  0.7128
 5020TIP3   OH236618   3.955   5.718   1.816  0.1567 -0.2221  0.0832
 5020TIP3    H136619   3.963   5.751   1.906  1.2027  1.7855 -0.6887
 5020TIP3    H236620   4.027   5.760   1.768 -0.7772 -0.7029 -1.8411
 5021TIP3   OH236621   3.968   4.338   0.075  0.3420 -0.3941  0.4145
 5021TIP3    H136622   4.022   4.305   0.146 -1.7120 -1.6010  1.5149
 5021TIP3    H236623   3.993   4.285  -0.001  2.0722  0.4404  0.3623
 5022TIP3   OH236624   6.775   2.978   6.732  0.3117 -0.4282  0.6969
 5022TIP3    H136625   6.788   2.887   6.707 -0.4007 -0.7075  1.3192
 5022TIP3    H236626   6.853   3.023   6.698 -0.0378 -0.9872 -0.9566
 5023TIP3   OH236627   2.609   2.369   1.311 -0.3291 -0.4132  0.0606
 5023TIP3    H136628   2.673   2.417   1.364  1.0965 -1.7540 -0.3468
 5023TIP3    H236629   2.601   2.421   1.231  0.9895 -0.6497 -0.2616
 5024TIP3   OH236630   6.452   3.123   2.068  0.4513 -0.0143 -0.5131
 5024TIP3    H136631   6.369   3.162   2.094  0.7455  0.3554 -0.1182
 5024TIP3    H236632   6.502   3.195   2.030 -0.2867 -0.6917 -2.9483
 5025TIP3   OH236633   3.191   4.889   6.881 -0.1243  0.4538 -0.1400
 5025TIP3    H136634   3.195   4.859   6.790  0.9335 -1.1374  0.3957
 5025TIP3    H236635   3.218   4.981   6.877  1.5143 -0.0483 -1.2537
 5026TIP3   OH236636   0.304   3.517   0.159 -0.7312  0.7675  0.3212
 5026TIP3    H136637   0.266   3.596   0.122 -2.3977  0.0251  0.3634
 5026TIP3    H236638   0.321   3.539   0.251 -0.9485  1.1508  0.2701
 5027TIP3   OH236639   4.049   0.081   7.975 -0.3886 -0.8123 -0.6982
 5027TIP3    H136640   3.978   0.018   7.988 -0.4965 -0.6844 -0.6564
 5027TIP3    H236641   4.003   0.164   7.960 -0.2370 -0.5321  0.3210
 5028TIP3   OH236642   6.585   2.965   7.645  0.3759  0.2191 -0.4856
 5028TIP3    H136643   6.502   2.922   7.626  0.3104 -0.0687  0.4272
 5028TIP3    H236644   6.567   3.058   7.631  1.1727 -0.0673 -4.9512
 5029TIP3   OH236645   5.220   3.216   8.169 -0.3211 -0.3346  0.4202
 5029TIP3    H136646   5.225   3.267   8.250  2.6798 -0.3192  0.3526
 5029TIP3    H236647   5.188   3.277   8.103 -0.7255  0.2658  1.1588
 5030TIP3   OH236648   0.402   2.562   2.162  0.2358  0.9198  0.2696
 5030TIP3    H136649   0.479   2.566   2.219 -1.0464 -0.4768  2.2323
 5030TIP3    H236650   0.403   2.474   2.126 -1.1154  0.3812  1.4245
 5031TIP3   OH236651   1.984   2.614   2.519  0.1656  0.4816  0.6515
 5031TIP3    H136652   1.973   2.679   2.588  3.1198  2.1288 -0.2612
 5031TIP3    H236653   1.971   2.663   2.437 -2.4890 -1.2631 -0.1169
 5032TIP3   OH236654   4.511   1.176   7.971 -0.0623  0.5573  0.2750
 5032TIP3    H136655   4.528   1.197   8.063 -0.1734 -0.0638  0.4442
 5032TIP3    H236656   4.427   1.131   7.971  0.5683 -0.6758  0.0587
 5033TIP3   OH236657   4.295   0.572   1.609 -0.4030  0.4272 -0.1289
 5033TIP3    H136658   4.314   0.478   1.611 -0.1861  0.4520 -0.8982
 5033TIP3    H236659   4.348   0.609   1.679  0.2736  0.1116 -0.4726
 5034TIP3   OH236660   2.883   3.040   0.911  0.4937  0.3489  0.5784
 5034TIP3    H136661   2.969   3.067   0.879  1.2033 -1.3162  0.9435
 5034TIP3    H236662   2.822   3.066   0.842  1.4211  0.6937 -0.1298
 5035TIP3   OH236663   5.489   4.072   8.372 -0.3334 -0.1311 -0.3292
 5035TIP3    H136664   5.397   4.099   8.370 -0.0926  0.6436 -1.5828
 5035TIP3    H236665   5.487   3.982   8.339 -0.9145 -1.1624  2.1926
 5036TIP3   OH236666   2.458   1.001   7.535  0.1426  0.1643  0.3869
 5036TIP3    H136667   2.480   0.926   7.480  0.6971  0.4101  0.2653
 5036TIP3    H236668   2.508   1.073   7.499 -1.2240  0.8672 -0.1693
 5037TIP3   OH236669   6.351   0.461   8.381  0.1970  0.2151 -0.1040
 5037TIP3    H136670   6.388   0.544   8.352  1.4860  0.2744  1.5431
 5037TIP3    H236671   6.397   0.442   8.463 -1.0719 -1.4272  0.2759
 5038TIP3   OH236672   5.808   4.855   1.460 -0.2215 -0.0076 -0.1124
 5038TIP3    H136673   5.876   4.828   1.522  0.1037 -0.7592 -0.7869
 5038TIP3    H236674   5.810   4.951   1.462  0.7465 -0.0252 -0.0057
 5039TIP3   OH236675   1.018   0.355   8.041  0.0078  0.2515 -0.2513
 5039TIP3    H136676   1.107   0.386   8.022  0.0419 -0.6282 -1.6880
 5039TIP3    H236677   0.970   0.370   7.960 -1.3631  1.3095  0.7129
 5040TIP3   OH236678   0.641   6.262   0.851 -0.4117  0.3032  0.3322
 5040TIP3    H136679   0.594   6.195   0.900  1.4762 -0.8383  0.6649
 5040TIP3    H236680   0.650   6.335   0.912 -0.3948 -0.0637  0.7673
 5041TIP3   OH236681   3.872   5.800   8.373 -0.3556 -0.4053 -0.3756
 5041TIP3    H136682   3.926   5.865   8.328  0.5415 -2.6617 -2.8280
 5041TIP3    H236683   3.902   5.716   8.339 -3.6006 -1.9679  0.2034
 5042TIP3   OH236684   4.496   4.795   1.301  0.0448  0.2963 -0.1517
 5042TIP3    H136685   4.502   4.828   1.212 -2.0872  1.2018 -0.0366
 5042TIP3    H236686   4.486   4.874   1.355 -2.1912 -0.3250  0.4559
 5043TIP3   OH236687   5.350   3.523   1.447  0.0017 -0.7189  0.8313
 5043TIP3    H136688   5.322   3.467   1.374 -0.1205  0.0196  0.3007
 5043TIP3    H236689   5.391   3.598   1.405 -1.3719  0.4300  1.4705
 5044TIP3   OH236690   2.696   5.151   8.092 -0.1168 -0.2006 -0.7591
 5044TIP3    H136691   2.619   5.126   8.144  1.4760 -1.2042  1.2279
 5044TIP3    H236692   2.723   5.236   8.128  0.3684 -0.3916 -0.6712
 5045TIP3   OH236693   3.755   3.674   7.680 -0.1804  0.4476  0.5632
 5045TIP3    H136694   3.837   3.722   7.687 -0.7351  1.4787  0.2298
 5045TIP3    H236695   3.751   3.646   7.589  2.1758 -4.0770  1.5605
 5046TIP3   OH236696   0.507   2.085   1.818  0.4495 -0.4784  0.1899
 5046TIP3    H136697   0.424   2.125   1.791 -0.0912 -1.7212 -0.0504
 5046TIP3    H236698   0.492   2.055   1.907  1.1836  0.7166  0.7408
 5047TIP3   OH236699   0.158   5.095   8.132  0.4847  0.2233 -0.3445
 5047TIP3    H136700   0.151   5.147   8.211  2.0010 -0.2667  0.1551
 5047TIP3    H236701   0.207   5.149   8.071  2.4667 -0.7090  0.3333
 5048TIP3   OH236702   3.288   3.085   1.006 -0.6440  0.4795  0.3736
 5048TIP3    H136703   3.337   3.010   1.040 -0.9820 -0.1195 -0.4075
 5048TIP3    H236704   3.207   3.046   0.971 -0.1029  0.9805 -1.5400
 5049TIP3   OH236705   1.775   2.304   1.250  0.2964  0.0740  0.0720
 5049TIP3    H136706   1.714   2.274   1.183  0.1098  0.3253  0.1265
 5049TIP3    H236707   1.806   2.223   1.291  1.7762 -0.1968 -1.4753
 5050TIP3   OH236708   0.013   5.893   6.966 -0.4066 -0.0279 -0.5923
 5050TIP3    H136709  -0.081   5.906   6.982 -0.4373 -0.2246 -0.6127
 5050TIP3    H236710   0.021   5.801   6.940 -0.2904  0.1594 -1.2323
 5051TIP3   OH236711   4.240   3.473   7.709  0.0463 -0.4704 -0.1105
 5051TIP3    H136712   4.264   3.521   7.630 -1.8960  2.1245  0.7352
 5051TIP3    H236713   4.308   3.495   7.772  0.7313 -1.2472 -0.5591
 5052TIP3   OH236714   5.796   3.819   8.785 -0.0505 -0.6187 -1.1978
 5052TIP3    H136715   5.730   3.887   8.773  0.1272  0.1318  1.4512
 5052TIP3    H236716   5.746   3.737   8.793 -0.5816 -0.2396 -0.5646
 5053TIP3   OH236717   1.409   1.458   0.474 -0.3263 -0.1063  0.2974
 5053TIP3    H136718   1.432   1.543   0.437  0.5256 -0.3119  0.3336
 5053TIP3    H236719   1.443   1.461   0.564 -1.5870  0.0531  0.7881
 5054TIP3   OH236720   5.737   0.998   1.374 -0.0650 -0.1476 -0.0409
 5054TIP3    H136721   5.735   1.029   1.465 -0.0512  0.7995 -0.3497
 5054TIP3    H236722   5.678   0.923   1.373  1.2091 -1.2215  1.1184
 5055TIP3   OH236723   0.293   0.394   7.739  0.8480 -0.2865 -0.0495
 5055TIP3    H136724   0.243   0.473   7.718  0.5863 -0.3402  0.3578
 5055TIP3    H236725   0.230   0.323   7.726  0.6628 -0.3197  0.9296
 5056TIP3   OH236726   6.502   5.904   0.829 -0.8655  0.0410 -0.6508
 5056TIP3    H136727   6.484   5.812   0.812 -1.8046 -0.3363  1.9685
 5056TIP3    H236728   6.463   5.921   0.915  1.7900  2.1500  0.2763
 5057TIP3   OH236729   1.910   5.570   8.518  0.3269  0.6350 -0.1102
 5057TIP3    H136730   1.821   5.572   8.554 -0.0788  1.2386 -1.0981
 5057TIP3    H236731   1.914   5.488   8.468 -0.1947  1.3130 -1.2950
 5058TIP3   OH236732   4.979   3.090   1.487  0.0551  0.2094  0.4598
 5058TIP3    H136733   5.075   3.086   1.495  0.0067  0.5965  1.4127
 5058TIP3    H236734   4.959   3.183   1.482 -0.2267  0.0998 -0.5121
 5059TIP3   OH236735   2.215   5.880   0.247 -0.3348 -0.2563  0.1446
 5059TIP3    H136736   2.203   5.900   0.154  0.1337  1.3068  0.4025
 5059TIP3    H236737   2.159   5.803   0.262 -2.1745  0.8031 -0.9239
 5060TIP3   OH236738   4.110   4.015   0.737 -0.0356 -0.3729  0.2539
 5060TIP3    H136739   4.180   4.012   0.801  0.7159 -0.8912 -0.5619
 5060TIP3    H236740   4.057   4.090   0.762 -0.2225 -1.0420  1.9322
 5061TIP3   OH236741   0.868   3.218   1.506 -0.7597  0.0035  0.8188
 5061TIP3    H136742   0.863   3.131   1.544 -1.6291 -0.4261 -0.2301
 5061TIP3    H236743   0.871   3.203   1.412 -1.6835  1.1275  0.5872
 5062TIP3   OH236744   1.787   4.430   8.681  0.3037  0.0632  0.7178
 5062TIP3    H136745   1.802   4.418   8.775  0.7228  0.5001  0.7136
 5062TIP3    H236746   1.692   4.433   8.672  0.1412 -2.6283  0.7722
 5063TIP3   OH236747   5.430   1.288   1.733  0.3283 -0.2521 -0.7301
 5063TIP3    H136748   5.358   1.287   1.670 -0.5242 -0.1310  0.2059
 5063TIP3    H236749   5.440   1.196   1.759  0.1250 -0.1953 -0.4444
 5064TIP3   OH236750   6.771   5.209   8.493 -0.1456 -0.0518  0.2946
 5064TIP3    H136751   6.818   5.266   8.432  1.0447 -0.6145  0.6684
 5064TIP3    H236752   6.698   5.175   8.441  1.7482 -1.7960 -1.3674
 5065TIP3   OH236753   5.968   3.371   7.734 -0.6904  0.0973 -0.5625
 5065TIP3    H136754   5.985   3.433   7.663 -0.5890  1.3822  0.5364
 5065TIP3    H236755   5.976   3.424   7.813 -0.8027 -1.3015  0.4054
 5066TIP3   OH236756   0.656   0.085   2.043 -0.8561 -0.2381 -0.0178
 5066TIP3    H136757   0.590   0.119   1.982 -2.8449 -2.2595  0.8389
 5066TIP3    H236758   0.613   0.087   2.128  1.5400  1.6834  1.2533
 5067TIP3   OH236759   4.874   1.108   1.478  0.9133  0.4932  0.5072
 5067TIP3    H136760   4.789   1.117   1.521  0.9306  0.5206  0.5355
 5067TIP3    H236761   4.866   1.027   1.427  1.2318 -0.0535  1.3139
 5068TIP3   OH236762   5.167   6.307   0.979 -0.5775 -0.0506  0.4193
 5068TIP3    H136763   5.143   6.382   0.924 -0.5535  0.3578  0.9595
 5068TIP3    H236764   5.256   6.285   0.949 -1.1378 -0.8272 -0.7692
 5069TIP3   OH236765   2.537   6.178   0.542 -0.3950 -0.2740 -0.4145
 5069TIP3    H136766   2.469   6.126   0.500 -0.5456 -0.1972 -0.2668
 5069TIP3    H236767   2.491   6.229   0.609  0.1058 -1.6907  1.0573
 5070TIP3   OH236768   1.536   0.775   6.909  0.1625 -0.8246  0.4474
 5070TIP3    H136769   1.555   0.717   6.983  0.3410 -0.4575  0.6909
 5070TIP3    H236770   1.621   0.792   6.869  0.2458  0.1624  1.0442
 5071TIP3   OH236771   5.504   3.557   0.333 -0.0568  0.0402 -0.8713
 5071TIP3    H136772   5.556   3.577   0.411  1.0770 -0.4866 -1.4666
 5071TIP3    H236773   5.537   3.616   0.266 -0.6100  0.0687 -1.1250
 5072TIP3   OH236774   2.306   5.755   7.825  0.1768  0.4065 -0.6204
 5072TIP3    H136775   2.270   5.801   7.749  0.1015 -0.4887 -1.1428
 5072TIP3    H236776   2.278   5.807   7.900 -1.4946  0.1925 -1.0621
 5073TIP3   OH236777   4.513   5.615   0.782  0.3177  0.3949  0.0236
 5073TIP3    H136778   4.517   5.607   0.687 -1.9722  2.5842 -0.3846
 5073TIP3    H236779   4.601   5.640   0.808  1.5774 -2.3859 -1.1565
 5074TIP3   OH236780   4.608   6.749   6.852  0.3069  0.4063 -0.3220
 5074TIP3    H136781   4.540   6.816   6.839 -0.0840  0.1158  0.1614
 5074TIP3    H236782   4.682   6.797   6.890  0.7888  0.9217 -1.8557
 5075TIP3   OH236783   5.597   1.855   7.363  0.2822  0.7483 -0.2761
 5075TIP3    H136784   5.540   1.880   7.435  0.5831  1.1141 -0.1553
 5075TIP3    H236785   5.577   1.918   7.294 -0.4562  0.0109 -0.7531
 5076TIP3   OH236786   6.105   2.667   0.189  0.0577 -0.1740 -0.4233
 5076TIP3    H136787   6.197   2.692   0.173  0.4763 -2.1727 -1.5135
 5076TIP3    H236788   6.058   2.702   0.113  0.1264 -0.2311 -0.4918
 5077TIP3   OH236789   1.342   4.479   2.722 -0.2960 -0.3101  0.7858
 5077TIP3    H136790   1.298   4.535   2.786 -0.6205 -1.2032  1.3598
 5077TIP3    H236791   1.344   4.531   2.642  0.2814  0.9028  1.5605
 5078TIP3   OH236792   3.558   3.690   0.157 -0.6342  0.0629  0.2562
 5078TIP3    H136793   3.537   3.632   0.231  0.8043 -0.1516  0.5191
 5078TIP3    H236794   3.497   3.763   0.167  0.6926  0.9374  2.7255
 5079TIP3   OH236795   3.410   4.967   0.500  0.2080 -0.2236  0.4340
 5079TIP3    H136796   3.376   5.053   0.526 -1.3663  0.2412 -2.7198
 5079TIP3    H236797   3.503   4.971   0.520  0.4391  2.7393 -0.7137
 5080TIP3   OH236798   5.012   1.038   8.118  0.4123 -0.1472 -0.8741
 5080TIP3    H136799   5.105   1.048   8.140  0.3003 -1.3767  0.2784
 5080TIP3    H236800   4.980   0.972   8.180 -1.8835  2.2282  0.6811
 5081TIP3   OH236801   6.125   5.371   2.365  0.3582 -0.1450 -0.3650
 5081TIP3    H136802   6.062   5.398   2.432  1.3213 -0.7364  0.8149
 5081TIP3    H236803   6.178   5.449   2.350 -1.2177  0.6748 -2.1055
 5082TIP3   OH236804   1.236   5.109   1.542 -0.7009 -0.1104  0.3128
 5082TIP3    H136805   1.216   5.046   1.612  1.4875 -2.3318 -0.8949
 5082TIP3    H236806   1.234   5.057   1.462  1.3391  1.2752 -0.7438
 5083TIP3   OH236807   2.405   4.969   0.762 -0.1021 -0.1795  0.1597
 5083TIP3    H136808   2.321   4.925   0.775  1.4666 -2.9187  2.3092
 5083TIP3    H236809   2.441   4.928   0.683 -0.2037  0.0142  0.0114
 5084TIP3   OH236810   6.777   5.728   7.488  0.0222  0.4945  0.1596
 5084TIP3    H136811   6.765   5.808   7.436 -0.3369 -0.1221 -0.7243
 5084TIP3    H236812   6.851   5.684   7.447 -0.5986 -0.2594 -0.1626
 5085TIP3   OH236813   5.885   5.248   0.678 -0.1065 -0.8262  0.0041
 5085TIP3    H136814   5.976   5.275   0.667 -0.2260 -0.7259 -0.8835
 5085TIP3    H236815   5.867   5.194   0.601 -0.7086 -1.0816  0.3218
 5086TIP3   OH236816   2.245   6.739   8.081  0.0371  0.6543 -0.1825
 5086TIP3    H136817   2.156   6.732   8.046  0.0018 -1.6441  0.2258
 5086TIP3    H236818   2.234   6.751   8.175  0.1574  1.1847 -0.2345
 5087TIP3   OH236819   0.879   3.461   1.622 -0.2672 -0.2288 -0.6754
 5087TIP3    H136820   0.893   3.375   1.582 -1.7231 -1.0309  0.4519
 5087TIP3    H236821   0.948   3.516   1.584  0.8070 -1.9140 -1.2955
 5088TIP3   OH236822   6.275   1.604   2.380 -0.0688 -0.2149 -0.3125
 5088TIP3    H136823   6.242   1.573   2.465 -0.6949  1.2570  0.0195
 5088TIP3    H236824   6.196   1.633   2.334  0.5668  2.1759 -0.0119
 5089TIP3   OH236825   1.901   4.208   2.460  0.6663  0.2489  0.4973
 5089TIP3    H136826   1.816   4.251   2.450  1.5608  1.7515 -1.2051
 5089TIP3    H236827   1.879   4.121   2.493 -2.0570 -1.2151 -4.1959
 5090TIP3   OH236828   2.865   0.794   6.971 -0.1600 -0.6265  0.6778
 5090TIP3    H136829   2.874   0.871   6.915 -0.6011  0.7463  2.3821
 5090TIP3    H236830   2.852   0.830   7.059 -0.8011 -2.6646  1.4831
 5091TIP3   OH236831   4.554   3.172   0.005  0.1627  0.3874 -0.1624
 5091TIP3    H136832   4.579   3.124   0.084 -0.8603  0.5232  0.2568
 5091TIP3    H236833   4.584   3.261   0.021  1.3088  0.0971 -0.5847
 5092TIP3   OH236834   1.127   2.213   0.954  0.0380 -0.3675 -0.1926
 5092TIP3    H136835   1.046   2.223   1.005 -0.8495 -1.7990 -1.2081
 5092TIP3    H236836   1.100   2.230   0.863  1.1145  0.1309 -0.4321
 5093TIP3   OH236837   0.199   5.806   0.227 -0.2149 -0.3298  0.1453
 5093TIP3    H136838   0.109   5.800   0.260  0.3859  0.5373  2.1251
 5093TIP3    H236839   0.224   5.898   0.242  0.2644  0.0560 -2.5484
 5094TIP3   OH236840   1.286   2.778   1.473 -0.4045 -0.1598 -0.5043
 5094TIP3    H136841   1.367   2.796   1.424 -0.1324  0.8665  0.2758
 5094TIP3    H236842   1.313   2.778   1.564 -1.4131  1.0485 -0.1773
 5095TIP3   OH236843   0.869   5.509   7.881  0.3368  0.4300  0.4670
 5095TIP3    H136844   0.862   5.476   7.971  0.4574  0.5769  0.5287
 5095TIP3    H236845   0.908   5.436   7.832 -0.0191  0.2321  0.4686
 5096TIP3   OH236846   3.183   6.530   0.630 -0.4085 -0.4450 -1.2054
 5096TIP3    H136847   3.099   6.575   0.640  0.4673  0.8432  1.1507
 5096TIP3    H236848   3.192   6.479   0.711  0.3840 -1.8306 -2.1343
 5097TIP3   OH236849   4.203   0.512   0.898  0.2882  0.0474  0.0673
 5097TIP3    H136850   4.117   0.550   0.880  0.0499 -0.7121 -0.4551
 5097TIP3    H236851   4.246   0.575   0.955 -0.4787  0.6102  0.0335
 5098TIP3   OH236852   1.646   4.187   6.853  0.0305  0.4988 -0.1308
 5098TIP3    H136853   1.557   4.216   6.873  0.5052  0.7178  1.8852
 5098TIP3    H236854   1.656   4.204   6.759 -2.1171  0.2165 -0.4669
 5099TIP3   OH236855   1.516   4.789   6.838 -0.2227  0.0818 -0.4711
 5099TIP3    H136856   1.609   4.774   6.855 -0.0528 -0.9013 -1.9929
 5099TIP3    H236857   1.506   4.769   6.745 -2.2485 -1.3893 -0.0024
 5100TIP3   OH236858   2.886   1.736   8.557 -0.0544 -0.2359 -0.6055
 5100TIP3    H136859   2.878   1.807   8.621 -0.5546 -0.5303 -0.3301
 5100TIP3    H236860   2.939   1.773   8.486 -0.8020  0.6070 -0.7436
 5101TIP3   OH236861   5.156   3.559   0.456  0.2260 -0.1518 -0.1925
 5101TIP3    H136862   5.079   3.569   0.399 -1.0019 -0.4838  1.3236
 5101TIP3    H236863   5.172   3.648   0.488 -1.2527 -0.4653  1.5680
 5102TIP3   OH236864   2.637   3.830   2.400  0.0560  0.4912 -0.0005
 5102TIP3    H136865   2.702   3.838   2.470  0.0592  0.7839 -0.0374
 5102TIP3    H236866   2.670   3.759   2.344  1.2406  1.7668 -0.9801
 5103TIP3   OH236867   1.279   5.874   1.849  0.7323  0.6090 -0.2213
 5103TIP3    H136868   1.369   5.887   1.821  0.8156  0.9794  0.2139
 5103TIP3    H236869   1.270   5.927   1.928  0.1014  0.6677 -0.3249
 5104TIP3   OH236870   5.840   2.444   7.514  0.1898  0.5165 -0.1354
 5104TIP3    H136871   5.897   2.439   7.437  0.4931 -1.4347  0.1713
 5104TIP3    H236872   5.900   2.441   7.589 -0.2095 -0.2156  0.1712
 5105TIP3   OH236873   6.139   4.263   0.941 -0.0638  0.2973  0.4302
 5105TIP3    H136874   6.065   4.244   0.883  0.3383  0.8134 -0.2708
 5105TIP3    H236875   6.216   4.255   0.884  0.4261 -0.1992  1.1407
 5106TIP3   OH236876   4.118   4.719   0.362  0.0011 -0.2531  0.1190
 5106TIP3    H136877   4.175   4.735   0.287  0.4523  0.1602  0.5461
 5106TIP3    H236878   4.177   4.690   0.431 -0.4962 -1.3610  0.1083
 5107TIP3   OH236879   6.783   6.318   1.377 -0.1951  0.1786 -0.0976
 5107TIP3    H136880   6.780   6.390   1.439  0.5250  1.0862 -1.0810
 5107TIP3    H236881   6.865   6.330   1.330 -0.7542 -0.4434 -1.2764
 5108TIP3   OH236882   4.732   0.604   8.048 -0.0703  0.2715  0.5207
 5108TIP3    H136883   4.656   0.591   7.991 -0.5100  1.4720  0.8206
 5108TIP3    H236884   4.710   0.680   8.102  1.2866  0.5587  0.7057
 5109TIP3   OH236885   4.578   5.017   2.526 -0.4959 -0.5622 -0.2126
 5109TIP3    H136886   4.640   5.017   2.600 -0.8501 -0.7581  0.0874
 5109TIP3    H236887   4.625   5.062   2.456  0.6847 -2.2203 -0.5648
 5110TIP3   OH236888   1.038   5.599   7.120  0.6655  0.2939  0.0324
 5110TIP3    H136889   1.047   5.623   7.213 -0.2405 -0.9861  0.4789
 5110TIP3    H236890   0.973   5.529   7.120  0.6119  0.3167 -1.5939
 5111TIP3   OH236891   3.704   5.545   8.205 -0.0610  0.1925  0.1892
 5111TIP3    H136892   3.662   5.570   8.288  0.2211  2.3724 -0.2862
 5111TIP3    H236893   3.786   5.504   8.232 -0.8141 -0.8698  1.0064
 5112TIP3   OH236894   3.061   0.485   0.466  0.2121  0.4728 -0.5336
 5112TIP3    H136895   3.076   0.579   0.476  0.8801  0.4562 -1.3157
 5112TIP3    H236896   3.141   0.445   0.498  0.4472  0.2309 -1.4069
 5113TIP3   OH236897   6.626   4.522   8.511  0.7206  0.2836  0.1093
 5113TIP3    H136898   6.582   4.528   8.596  1.1600 -0.7271  0.4190
 5113TIP3    H236899   6.714   4.555   8.528  1.3305 -1.4317  0.4612
 5114TIP3   OH236900   1.280   3.660   7.822 -0.3330  0.0780  0.8821
 5114TIP3    H136901   1.309   3.608   7.747 -0.0319  1.1523  0.2382
 5114TIP3    H236902   1.256   3.595   7.888 -0.3185 -0.8838 -0.0298
 5115TIP3   OH236903   3.973   0.719   1.645  0.2232 -0.1582 -0.0338
 5115TIP3    H136904   3.993   0.696   1.736  1.3012 -1.3202 -0.5356
 5115TIP3    H236905   3.919   0.647   1.614 -0.3251  0.3456 -0.2702
 5116TIP3   OH236906   0.098   0.695   0.062  0.1937 -0.0518  0.2314
 5116TIP3    H136907   0.084   0.772   0.116 -1.0044 -1.6400  2.3277
 5116TIP3    H236908   0.193   0.680   0.065  0.2005  0.1553  1.5510
 5117TIP3   OH236909   1.498   2.058   0.356  0.0307 -0.1974 -0.4035
 5117TIP3    H136910   1.561   2.084   0.289  1.4881  1.2000  1.4126
 5117TIP3    H236911   1.431   2.127   0.354  0.6517  0.4473  0.2642
 5118TIP3   OH236912   0.082   0.227   7.662  0.0069 -0.4071  0.0421
 5118TIP3    H136913   0.049   0.141   7.687  0.2933  0.0502  2.1660
 5118TIP3    H236914   0.060   0.235   7.569 -2.6267 -1.5664  0.4840
 5119TIP3   OH236915   2.832   6.541   2.302  0.2761  0.2199  0.1418
 5119TIP3    H136916   2.875   6.624   2.319  1.0828 -0.4145  1.3287
 5119TIP3    H236917   2.895   6.475   2.329 -0.3500 -0.7907 -0.7731
 5120TIP3   OH236918   2.215   3.860   0.760  0.3097 -0.0684  0.4106
 5120TIP3    H136919   2.125   3.858   0.729 -0.8005 -1.7097  3.3469
 5120TIP3    H236920   2.242   3.951   0.750 -0.5156 -0.1057 -3.3034
 5121TIP3   OH236921   3.961   0.983   2.404 -0.3050 -0.0766 -0.1509
 5121TIP3    H136922   4.047   1.009   2.371  0.0457 -0.7931  0.1763
 5121TIP3    H236923   3.955   0.889   2.385 -0.9405 -0.0747 -0.0062
 5122TIP3   OH236924   2.793   0.956   7.649 -0.0409 -0.7861  0.5490
 5122TIP3    H136925   2.725   0.984   7.709 -0.5358 -1.8876  0.5315
 5122TIP3    H236926   2.872   0.950   7.702  0.2074  1.0914  0.4380
 5123TIP3   OH236927   0.532   4.481   7.970  0.3598 -0.5173  0.0691
 5123TIP3    H136928   0.490   4.484   8.056  2.5510 -2.5528  1.3510
 5123TIP3    H236929   0.579   4.564   7.963  0.5553 -0.5340  1.0931
 5124TIP3   OH236930   5.031   4.850   7.541 -0.2204  0.1346 -0.1121
 5124TIP3    H136931   5.059   4.897   7.462 -1.5676 -0.3145 -0.8882
 5124TIP3    H236932   4.945   4.816   7.519  0.4578 -2.2221  0.6425
 5125TIP3   OH236933   1.986   2.929   1.918  0.0559  0.1736  0.7106
 5125TIP3    H136934   1.962   2.927   2.011  0.7183  1.2308  0.9242
 5125TIP3    H236935   2.079   2.950   1.917 -0.2436  1.6572 -0.2052
 5126TIP3   OH236936   2.619   0.195   8.536  0.2366  0.0150  0.0334
 5126TIP3    H136937   2.713   0.181   8.541 -0.0575 -2.2472  0.3048
 5126TIP3    H236938   2.597   0.183   8.444 -0.1534 -2.8649  0.4009
 5127TIP3   OH236939   0.105   4.351   7.615  0.4698  0.5588 -0.1453
 5127TIP3    H136940   0.133   4.263   7.588  0.3815  0.6691 -0.6174
 5127TIP3    H236941   0.169   4.379   7.680  0.0908 -0.1479  0.5472
 5128TIP3   OH236942   3.635   1.184   0.638  1.0491 -0.0425  0.3447
 5128TIP3    H136943   3.688   1.188   0.558  0.8484  1.3715  0.2547
 5128TIP3    H236944   3.595   1.271   0.644 -0.4192 -0.7300  0.9872
 5129TIP3   OH236945   5.027   2.592   2.383 -0.6475  0.0599 -0.2156
 5129TIP3    H136946   5.036   2.616   2.291 -0.4462  0.4694 -0.0892
 5129TIP3    H236947   4.947   2.539   2.386  0.0066 -0.9970 -0.8296
 5130TIP3   OH236948   2.034   4.837   1.485 -0.7287  0.2397  0.2608
 5130TIP3    H136949   1.942   4.840   1.460 -0.6855  1.7528  0.1567
 5130TIP3    H236950   2.043   4.909   1.549  0.1992 -0.4286  0.9112
 5131TIP3   OH236951   2.448   6.137   1.275  0.7577  0.2295  0.1826
 5131TIP3    H136952   2.424   6.058   1.225  0.2943 -0.4428  1.4329
 5131TIP3    H236953   2.364   6.177   1.298  0.9663  2.1061 -1.8963
 5132TIP3   OH236954   6.705   2.047   6.444 -0.0849  0.5725 -0.3290
 5132TIP3    H136955   6.646   2.123   6.450 -0.7056  0.0332  0.7014
 5132TIP3    H236956   6.728   2.028   6.534 -0.4228 -0.8343 -0.5194
 5133TIP3   OH236957   4.435   2.127   8.045  0.1384  0.4923  0.4945
 5133TIP3    H136958   4.341   2.129   8.025  0.3468  1.6528 -0.5186
 5133TIP3    H236959   4.439   2.118   8.140 -0.9894  0.0246  0.5176
 5134TIP3   OH236960   4.819   5.969   0.146  0.2070 -0.1372 -0.3651
 5134TIP3    H136961   4.846   5.910   0.076 -1.3748 -0.4200 -0.7683
 5134TIP3    H236962   4.881   5.951   0.217 -0.6413 -2.8080 -0.2141
 5135TIP3   OH236963   6.302   2.895   6.777  0.0365  0.2224  0.3092
 5135TIP3    H136964   6.277   2.974   6.826 -0.2151  0.4708 -0.2113
 5135TIP3    H236965   6.384   2.867   6.817  0.2800  0.9219  0.3031
 5136TIP3   OH236966   3.642   2.389   2.474 -0.2372 -0.0751 -0.4039
 5136TIP3    H136967   3.555   2.378   2.513 -0.2526  1.7644  0.1742
 5136TIP3    H236968   3.660   2.306   2.431 -0.6213 -1.9426  2.7385
 5137TIP3   OH236969   0.949   0.568   6.770  0.0297 -0.0507 -0.8805
 5137TIP3    H136970   0.901   0.486   6.787 -0.9653  0.4093 -1.3467
 5137TIP3    H236971   0.921   0.627   6.840  0.2977  0.0636 -0.8716
 5138TIP3   OH236972   2.563   3.780   7.271 -0.2003 -0.4621 -0.1269
 5138TIP3    H136973   2.568   3.761   7.177 -0.5766 -2.9418  0.2861
 5138TIP3    H236974   2.469   3.781   7.290 -0.1127 -2.2137  0.5711
 5139TIP3   OH236975   1.908   3.896   1.886  0.1920 -0.2469 -0.2132
 5139TIP3    H136976   1.854   3.974   1.876 -0.4497 -0.6697 -0.1146
 5139TIP3    H236977   1.996   3.929   1.905  0.2885  0.4850 -1.7615
 5140TIP3   OH236978   4.291   2.846   0.508 -0.2774  0.1332  0.0411
 5140TIP3    H136979   4.360   2.781   0.514 -0.3260  0.1346  0.6402
 5140TIP3    H236980   4.282   2.863   0.414 -1.2199 -1.7320 -0.2343
 5141TIP3   OH236981   5.635   3.955   6.282  0.5009  0.3108  0.2589
 5141TIP3    H136982   5.619   4.048   6.269 -2.9878 -0.4541 -2.4922
 5141TIP3    H236983   5.724   3.941   6.247  1.1188  2.5400  0.7907
 5142TIP3   OH236984   0.036   1.847   0.882 -0.2766 -0.0480 -0.2546
 5142TIP3    H136985   0.107   1.907   0.859 -0.2695  0.1640  0.3177
 5142TIP3    H236986  -0.043   1.893   0.856 -0.2094 -0.3596 -1.0626
 5143TIP3   OH236987   6.652   3.783   6.989 -0.2179  0.2833  0.5856
 5143TIP3    H136988   6.713   3.713   7.011 -0.0720  0.3963  0.5459
 5143TIP3    H236989   6.619   3.760   6.902 -0.5124  0.0306  0.7643
 5144TIP3   OH236990   5.405   6.720   8.346 -0.2718 -0.2089 -0.2105
 5144TIP3    H136991   5.405   6.776   8.424  0.1657 -1.6273  0.8360
 5144TIP3    H236992   5.357   6.642   8.372 -2.2504  0.2577 -2.1457
 5145TIP3   OH236993   5.637   1.874   0.184 -0.4881 -0.5370  0.8699
 5145TIP3    H136994   5.582   1.929   0.240  0.3959 -0.0208  1.2508
 5145TIP3    H236995   5.684   1.817   0.246 -1.8960 -2.2536  0.4545
 5146TIP3   OH236996   1.568   0.092   6.925 -0.1051  0.1362 -0.0210
 5146TIP3    H136997   1.484   0.082   6.881  0.1721  1.3026 -0.8572
 5146TIP3    H236998   1.581   0.009   6.971 -1.0225 -0.6156 -1.0660
 5147TIP3   OH236999   5.200   3.875   8.106  0.4230 -0.2653  0.4031
 5147TIP3    H137000   5.268   3.935   8.135 -1.0732  0.9970  1.4692
 5147TIP3    H237001   5.245   3.815   8.046  2.2089  1.1972  0.1858
 5148TIP3   OH237002   4.075   4.557   8.777 -0.4315 -0.4622 -0.8530
 5148TIP3    H137003   4.035   4.642   8.792  2.9556  0.7761  3.1588
 5148TIP3    H237004   4.018   4.495   8.822  0.2995  0.8051  2.0497
 5149TIP3   OH237005   6.041   6.342   8.823  0.0698 -0.1984  0.1878
 5149TIP3    H137006   6.021   6.414   8.762 -0.6972 -0.0828  0.5572
 5149TIP3    H237007   6.039   6.383   8.910  0.2265 -0.5493  0.3602
 5150TIP3   OH237008   5.368   4.386   1.616 -0.3302 -0.5183  0.0011
 5150TIP3    H137009   5.427   4.385   1.691 -0.9940  1.6289  0.6257
 5150TIP3    H237010   5.334   4.297   1.611  0.5493 -0.9849  1.5766
 5151TIP3   OH237011   5.569   0.137   0.707  0.3243  0.0874 -0.3765
 5151TIP3    H137012   5.520   0.220   0.702 -1.5093 -0.9328 -0.4441
 5151TIP3    H237013   5.592   0.128   0.800  1.7563  1.2925 -0.5768
 5152TIP3   OH237014   4.731   5.724   0.908 -0.4649  0.1405  0.3319
 5152TIP3    H137015   4.730   5.799   0.967 -1.0988  1.1342 -0.8851
 5152TIP3    H237016   4.797   5.666   0.944 -0.8419  0.6996  2.0084
 5153TIP3   OH237017   6.324   3.248   7.896  0.3689 -0.2042 -0.3076
 5153TIP3    H137018   6.282   3.201   7.824  0.2572 -0.5032 -0.0521
 5153TIP3    H237019   6.418   3.240   7.878  0.3249  1.0430 -1.2415
 5154TIP3   OH237020   2.695   5.142   8.719  0.6025 -1.0080  0.3164
 5154TIP3    H137021   2.695   5.225   8.670  2.3173 -0.5695  0.9698
 5154TIP3    H237022   2.615   5.097   8.691  0.6968 -0.0584 -1.6225
 5155TIP3   OH237023   2.418   1.055   1.985 -0.1455 -0.3925  0.3589
 5155TIP3    H137024   2.457   0.970   1.963 -1.0299 -0.8450  0.4784
 5155TIP3    H237025   2.427   1.062   2.080  0.6598  0.0255  0.2555
 5156TIP3   OH237026   2.337   1.308   0.469 -0.4052  0.0699  0.1071
 5156TIP3    H137027   2.325   1.375   0.402  0.8726 -0.4529 -0.6771
 5156TIP3    H237028   2.311   1.227   0.427  1.9631 -0.5065 -0.3556
 5157TIP3   OH237029   1.548   2.542   7.281  0.5296  0.4599 -0.3915
 5157TIP3    H137030   1.590   2.537   7.195 -0.6581 -0.8104 -0.9375
 5157TIP3    H237031   1.527   2.635   7.292 -0.0246  0.5210 -1.8356
 5158TIP3   OH237032   5.518   1.114   1.081  0.8705 -0.3890 -0.5318
 5158TIP3    H137033   5.569   1.161   1.015 -1.4338  0.8739 -1.5415
 5158TIP3    H237034   5.563   1.030   1.091  1.1934 -0.7794 -3.9688
 5159TIP3   OH237035   1.923   0.258   7.040  0.2949 -0.3598 -0.6700
 5159TIP3    H137036   1.901   0.240   7.131 -2.6087  2.6749 -0.5867
 5159TIP3    H237037   2.011   0.296   7.043 -0.6832  1.9878  1.2909
 5160TIP3   OH237038   5.466   5.346   8.353  0.4719 -0.0734 -0.4845
 5160TIP3    H137039   5.522   5.362   8.276  0.5445 -1.0845 -0.6544
 5160TIP3    H237040   5.514   5.385   8.426  0.7141  0.3260 -0.8507
 5161TIP3   OH237041   0.383   3.997   2.596 -0.1268  0.9374 -0.0988
 5161TIP3    H137042   0.454   4.005   2.659 -0.6718  1.0968  0.5133
 5161TIP3    H237043   0.404   3.919   2.545 -1.0599 -0.9049  2.1267
 5162TIP3   OH237044   2.592   4.458   8.349 -0.3670  0.1114 -0.0260
 5162TIP3    H137045   2.592   4.543   8.305 -0.8293 -0.3235 -0.8845
 5162TIP3    H237046   2.532   4.468   8.423 -1.0552  0.2861 -0.6077
 5163TIP3   OH237047   1.516   3.603   8.238  0.9103  0.3125 -0.2337
 5163TIP3    H137048   1.547   3.621   8.326  1.1038  1.4225 -0.5142
 5163TIP3    H237049   1.421   3.594   8.246  0.9915 -0.2207  0.1775
 5164TIP3   OH237050   5.502   0.111   6.413 -0.2006 -0.4194  0.5396
 5164TIP3    H137051   5.585   0.080   6.448  0.6550  0.2132 -0.8181
 5164TIP3    H237052   5.510   0.206   6.412 -0.4363 -0.3832 -0.6831
 5165TIP3   OH237053   2.329   6.159   6.507  0.0458 -0.1742  0.3413
 5165TIP3    H137054   2.242   6.120   6.520  0.5211 -0.8323  1.6723
 5165TIP3    H237055   2.371   6.102   6.443 -0.3867 -0.0142 -0.0956
 5166TIP3   OH237056   0.461   2.665   1.780 -0.0751  0.0897  0.3769
 5166TIP3    H137057   0.556   2.663   1.787 -0.0703  2.0194  1.5984
 5166TIP3    H237058   0.434   2.574   1.794  1.5240 -0.3156  1.0406
 5167TIP3   OH237059   2.407   4.421   7.547 -0.1350  0.1474 -0.4172
 5167TIP3    H137060   2.491   4.399   7.508 -0.8838  0.3459 -2.2606
 5167TIP3    H237061   2.367   4.483   7.486 -1.9642 -0.5896 -0.0536
 5168TIP3   OH237062   6.638   4.207   1.824 -0.3710 -0.1084  0.4549
 5168TIP3    H137063   6.549   4.225   1.854 -0.8038 -1.6296  0.1465
 5168TIP3    H237064   6.652   4.115   1.843  1.1314  0.0843  0.4308
 5169TIP3   OH237065   5.308   6.457   1.228  0.4520  0.0106 -0.1554
 5169TIP3    H137066   5.225   6.487   1.191 -0.3006 -0.7216  0.8580
 5169TIP3    H237067   5.370   6.529   1.212 -0.7669  1.2391  0.4178
 5170TIP3   OH237068   1.592   0.226   0.069 -0.5551 -0.2756  0.2648
 5170TIP3    H137069   1.604   0.132   0.054 -1.8230 -0.3361 -0.4896
 5170TIP3    H237070   1.610   0.266  -0.016  1.4723  0.3615  0.9224
 5171TIP3   OH237071   3.587   5.925   7.285 -0.0842 -0.1492 -0.0613
 5171TIP3    H137072   3.600   6.020   7.282  1.3750 -0.3228 -0.1439
 5171TIP3    H237073   3.603   5.895   7.196 -1.1865 -0.4161 -0.1818
 5172TIP3   OH237074   4.715   6.241   0.182 -0.1501  0.4168 -0.1921
 5172TIP3    H137075   4.728   6.150   0.155  1.5620  0.7598 -0.6510
 5172TIP3    H237076   4.643   6.272   0.127 -0.5810 -0.5601 -0.2163
 5173TIP3   OH237077   2.649   1.997   6.309  0.1345 -0.9243  0.4977
 5173TIP3    H137078   2.557   2.003   6.283  0.3794 -2.9361 -1.1612
 5173TIP3    H237079   2.688   2.079   6.278 -0.5939 -1.2064 -1.3158
 5174TIP3   OH237080   0.812   1.627   1.511 -0.0231  0.1332  0.2824
 5174TIP3    H137081   0.818   1.710   1.463  0.8632 -0.5823 -0.9183
 5174TIP3    H237082   0.722   1.624   1.543 -0.5403  0.8430 -1.0159
 5175TIP3   OH237083   1.114   3.124   8.212  0.6723  0.8761 -0.0620
 5175TIP3    H137084   1.052   3.069   8.164  0.0579  2.2069 -0.8744
 5175TIP3    H237085   1.172   3.158   8.144  1.6232  0.5179  0.5504
 5176TIP3   OH237086   5.630   0.723   0.291 -0.0978 -0.2607 -0.5458
 5176TIP3    H137087   5.693   0.676   0.344  1.4184  2.1041 -0.1222
 5176TIP3    H237088   5.681   0.757   0.217 -0.4982  2.6746  0.3962
 5177TIP3   OH237089   0.091   1.968   0.203  0.0347  0.1966 -0.0465
 5177TIP3    H137090   0.096   1.877   0.175 -0.4664  0.0211  0.4110
 5177TIP3    H237091   0.181   1.999   0.199  0.2945 -0.4819  0.3070
 5178TIP3   OH237092   4.065   3.655   1.834  0.2173 -0.9152  0.1668
 5178TIP3    H137093   4.002   3.728   1.832 -0.0030 -0.9555 -4.0796
 5178TIP3    H237094   4.112   3.666   1.916 -1.5082  2.5245  0.8843
 5179TIP3   OH237095   4.371   5.274   2.313  0.4494 -0.0434 -0.3359
 5179TIP3    H137096   4.302   5.212   2.334  1.6553 -1.6810 -1.0052
 5179TIP3    H237097   4.326   5.345   2.267 -0.9871 -0.3089  0.5953
 5180TIP3   OH237098   1.113   5.065   7.647  0.0228 -0.4001 -0.0702
 5180TIP3    H137099   1.124   5.104   7.734 -0.7181 -0.2949 -0.0171
 5180TIP3    H237100   1.173   4.990   7.646 -0.4733 -0.8117  0.7828
 5181TIP3   OH237101   3.139   4.118   7.779 -0.5696  1.0159  0.0114
 5181TIP3    H137102   3.212   4.135   7.839  0.9275 -0.2887 -1.3248
 5181TIP3    H237103   3.091   4.200   7.774  1.4531  2.2669  0.1300
 5182TIP3   OH237104   4.146   5.003   7.928  0.2685  0.2722 -0.6897
 5182TIP3    H137105   4.213   4.936   7.943 -0.5159  0.0746  2.5567
 5182TIP3    H237106   4.195   5.082   7.904  1.5521 -0.2706  0.0973
 5183TIP3   OH237107   3.127   0.083   1.544 -0.2313  0.3357  0.3239
 5183TIP3    H137108   3.133   0.012   1.479  0.1717  0.4446  0.2383
 5183TIP3    H237109   3.073   0.047   1.614 -0.8118  0.2775 -0.1516
 5184TIP3   OH237110   5.269   1.228   1.525 -0.5349 -0.3391 -0.2656
 5184TIP3    H137111   5.232   1.316   1.525 -0.7912 -0.4367  0.6445
 5184TIP3    H237112   5.235   1.188   1.445  0.3199  0.6734 -1.1676
 5185TIP3   OH237113   0.010   2.509   1.040  0.5135  0.0309 -0.0228
 5185TIP3    H137114  -0.037   2.510   1.123  0.7429 -0.1808  0.1124
 5185TIP3    H237115   0.088   2.563   1.056  1.7863 -1.8692  0.6450
 5186TIP3   OH237116   1.315   1.684   7.422  0.5974  0.1399 -0.3692
 5186TIP3    H137117   1.305   1.735   7.342  1.3101  1.7247  0.5062
 5186TIP3    H237118   1.271   1.736   7.489  1.9166 -0.0342  0.6757
 5187TIP3   OH237119   1.362   6.689   1.533 -0.2275  0.2678  0.3507
 5187TIP3    H137120   1.360   6.594   1.528  2.8833 -0.0100  2.1330
 5187TIP3    H237121   1.428   6.715   1.468 -0.2765  1.1133  0.6232
 5188TIP3   OH237122   1.246   4.934   0.619  0.2207 -0.1735 -0.3942
 5188TIP3    H137123   1.199   5.013   0.593  0.3301  0.3863  1.0528
 5188TIP3    H237124   1.302   4.961   0.692  0.1235 -1.6066  0.2545
 5189TIP3   OH237125   0.530   2.582   8.594  0.1480  0.3463  0.4909
 5189TIP3    H137126   0.540   2.615   8.504 -0.6534 -0.2590  0.1677
 5189TIP3    H237127   0.466   2.640   8.634 -1.3497 -0.8236 -0.1138
 5190TIP3   OH237128   5.875   0.992   7.427 -0.1108  0.1587 -0.1248
 5190TIP3    H137129   5.872   0.995   7.331  0.8711 -0.1175 -0.1686
 5190TIP3    H237130   5.881   1.084   7.454  3.1619  0.1360 -0.4800
 5191TIP3   OH237131   3.483   3.216   1.298 -0.2040 -0.1665 -0.6255
 5191TIP3    H137132   3.540   3.184   1.228 -2.5394 -3.3309 -1.3328
 5191TIP3    H237133   3.414   3.265   1.253 -0.0286  0.4908 -0.1888
 5192TIP3   OH237134   1.722   2.089   0.208  0.0432  0.3399  0.1354
 5192TIP3    H137135   1.785   2.160   0.213 -0.2202  0.5354  0.8764
 5192TIP3    H237136   1.771   2.011   0.234 -0.1006  0.5528  1.0799
 5193TIP3   OH237137   6.375   2.769   0.157  0.0201 -0.0146  0.8593
 5193TIP3    H137138   6.399   2.756   0.248  1.3146 -4.1012  0.1859
 5193TIP3    H237139   6.456   2.795   0.114 -0.2108  0.3842  0.6645
 5194TIP3   OH237140   3.152   5.356   1.335  0.1561 -0.0051  0.4502
 5194TIP3    H137141   3.237   5.357   1.377  0.0339  0.5823  0.6961
 5194TIP3    H237142   3.102   5.425   1.379  0.2978  1.2239 -1.2075
 5195TIP3   OH237143   3.262   2.351   2.705 -0.3383 -0.0327  0.1300
 5195TIP3    H137144   3.269   2.411   2.630 -3.7205 -0.3019 -0.5465
 5195TIP3    H237145   3.228   2.405   2.776  1.0186 -0.2221  0.9689
 5196TIP3   OH237146   6.662   1.979   1.253 -0.1397  0.1819 -0.9378
 5196TIP3    H137147   6.627   1.951   1.168  2.8184 -1.8809 -1.6300
 5196TIP3    H237148   6.672   1.897   1.302  3.5951  0.5386 -0.8538
 5197TIP3   OH237149   4.432   6.013   6.800 -0.3579 -0.3396 -0.1135
 5197TIP3    H137150   4.427   6.015   6.705  0.8936 -0.5153 -0.1952
 5197TIP3    H237151   4.513   6.059   6.821 -0.1970 -1.0206  0.8242
 5198TIP3   OH237152   4.084   0.401   6.892  0.2004 -0.5054  0.6264
 5198TIP3    H137153   4.171   0.365   6.874  1.1642  2.2138 -0.8674
 5198TIP3    H237154   4.070   0.463   6.821 -2.2633  0.3581  1.7738
 5199TIP3   OH237155   0.621   2.979   8.210  0.1874  0.1362  0.8137
 5199TIP3    H137156   0.649   2.915   8.144 -1.0935  0.9504 -0.5769
 5199TIP3    H237157   0.671   2.956   8.288  2.2392 -0.4707 -0.6036
 5200TIP3   OH237158   0.163   5.268   7.931  0.3736 -0.1513  0.7507
 5200TIP3    H137159   0.189   5.196   7.874  1.6199 -0.4054  1.6273
 5200TIP3    H237160   0.106   5.322   7.875  2.3226  0.1514 -1.0822
 5201TIP3   OH237161   4.155   4.376   1.921  0.0164 -0.3019 -0.4652
 5201TIP3    H137162   4.146   4.471   1.925 -0.3321 -0.3541  0.0084
 5201TIP3    H237163   4.186   4.351   2.008  0.0989 -0.6227 -0.5852
 5202TIP3   OH237164   5.950   5.088   1.517 -0.3349  0.4386  0.4272
 5202TIP3    H137165   5.993   5.013   1.558 -2.2170 -0.1915  1.3631
 5202TIP3    H237166   5.975   5.163   1.571  0.3864  0.2761  0.3377
 5203TIP3   OH237167   5.866   4.642   1.296 -0.1400  0.3237 -0.0402
 5203TIP3    H137168   5.850   4.731   1.326  0.3263  1.0795 -1.9136
 5203TIP3    H237169   5.782   4.613   1.260 -0.5118 -0.3311  1.2701
 5204TIP3   OH237170   4.172   5.015   1.470  0.7232 -0.4948  0.1274
 5204TIP3    H137171   4.225   5.009   1.550  0.5132 -1.4418  0.2068
 5204TIP3    H237172   4.101   5.074   1.493  0.4059 -1.1267  0.8035
 5205TIP3   OH237173   1.314   6.429   1.833 -0.1494 -0.1969 -0.0865
 5205TIP3    H137174   1.236   6.440   1.778 -0.2045 -0.8712 -0.1505
 5205TIP3    H237175   1.290   6.359   1.894 -0.5544  1.3428  1.6365
 5206TIP3   OH237176   1.826   2.042   0.779  0.0159 -0.0673  0.0088
 5206TIP3    H137177   1.869   2.107   0.836 -0.2357 -0.3314  0.5086
 5206TIP3    H237178   1.775   2.095   0.718  1.0990  0.2510 -0.6360
 5207TIP3   OH237179   3.452   4.363   8.180  0.0981 -0.2219 -0.5503
 5207TIP3    H137180   3.547   4.373   8.168  0.1372  0.1775  0.0345
 5207TIP3    H237181   3.443   4.280   8.228  0.2988  0.6135  1.0100
 5208TIP3   OH237182   2.982   6.217   0.719  0.1418 -0.4259  0.1652
 5208TIP3    H137183   3.049   6.267   0.766 -0.6772  0.9041 -0.0239
 5208TIP3    H237184   2.899   6.243   0.760 -0.4922 -0.0501 -1.2775
 5209TIP3   OH237185   6.714   5.682   2.128 -0.4090 -0.6989 -0.0910
 5209TIP3    H137186   6.725   5.657   2.037  0.9215 -1.8173  0.3457
 5209TIP3    H237187   6.742   5.773   2.132 -1.8179 -0.1852 -1.0284
 5210TIP3   OH237188   4.172   1.531   0.611 -0.2293  0.1113  0.4761
 5210TIP3    H137189   4.233   1.584   0.560  1.1688  0.9967  2.8736
 5210TIP3    H237190   4.092   1.584   0.615 -0.2834  0.1189 -0.5673
 5211TIP3   OH237191   2.091   1.994   7.318  0.3193  0.8069  0.0794
 5211TIP3    H137192   2.097   1.906   7.354  0.9601  0.0258 -1.7661
 5211TIP3    H237193   2.154   2.045   7.369  0.0819  0.1633  1.0425
 5212TIP3   OH237194   6.348   1.091   1.275 -0.0532 -0.2291 -0.0246
 5212TIP3    H137195   6.319   1.003   1.298  1.7777 -0.7543  0.4737
 5212TIP3    H237196   6.444   1.087   1.280  0.0873  1.7508 -0.1436
 5213TIP3   OH237197   6.032   2.399   0.188  0.3082 -0.0238 -0.3874
 5213TIP3    H137198   6.071   2.481   0.218  1.3629 -0.7918  0.4245
 5213TIP3    H237199   6.090   2.331   0.222 -0.1508 -1.0847 -1.6439
 5214TIP3   OH237200   0.860   5.150   0.969  0.2376 -0.0539 -0.8172
 5214TIP3    H137201   0.786   5.098   1.001 -0.0319  0.5266 -0.4855
 5214TIP3    H237202   0.880   5.113   0.883 -1.3591  0.7071 -1.5545
 5215TIP3   OH237203   2.382   3.431   7.319  0.1401  1.3887  0.2682
 5215TIP3    H137204   2.400   3.487   7.244 -2.3359 -0.0981 -1.6210
 5215TIP3    H237205   2.444   3.359   7.311 -1.5559  0.0459 -1.8483
 5216TIP3   OH237206   0.496   3.873   7.203 -0.1861  0.0464 -0.2327
 5216TIP3    H137207   0.568   3.828   7.159 -1.0735 -2.7710  0.9673
 5216TIP3    H237208   0.421   3.860   7.145 -0.7741 -1.4042  0.7983
 5217TIP3   OH237209   4.754   2.947   6.909 -0.4231 -0.1441  0.2345
 5217TIP3    H137210   4.725   2.900   6.988 -0.7673  1.0542  0.8397
 5217TIP3    H237211   4.771   3.036   6.939 -0.5143  0.3237 -1.0465
 5218TIP3   OH237212   5.867   3.055   7.815  0.3815  0.4210  0.6373
 5218TIP3    H137213   5.833   3.124   7.872  1.3305  2.4153 -1.0883
 5218TIP3    H237214   5.896   2.987   7.876  0.6177  2.1013  2.5243
 5219TIP3   OH237215   0.930   0.996   8.105  0.8466  0.9459 -0.1305
 5219TIP3    H137216   0.909   0.952   8.023  0.3801  0.1575  0.3969
 5219TIP3    H237217   0.864   1.065   8.113  1.2565  1.4200 -0.6959
 5220TIP3   OH237218   1.047   1.073   1.628  0.2320 -0.5859 -0.5922
 5220TIP3    H137219   1.060   1.012   1.701  1.3677 -0.0521 -0.3098
 5220TIP3    H237220   1.006   1.020   1.560 -1.8332 -0.8512  0.7653
 5221TIP3   OH237221   1.219   0.296   1.942 -0.1296  0.4477 -0.1125
 5221TIP3    H137222   1.192   0.357   1.873  1.2633  1.8489  0.5237
 5221TIP3    H237223   1.167   0.322   2.018 -1.1527 -0.6460 -0.4006
 5222TIP3   OH237224   3.136   6.190   1.804  0.0818  0.3885 -0.1134
 5222TIP3    H137225   3.159   6.142   1.724 -0.9851 -0.3037 -0.0238
 5222TIP3    H237226   3.041   6.193   1.804  0.0758  0.6834  0.9628
 5223TIP3   OH237227   1.628   5.341   0.788 -0.0016  0.0551 -0.2494
 5223TIP3    H137228   1.581   5.298   0.717 -2.6150  0.8486  0.8568
 5223TIP3    H237229   1.650   5.427   0.754 -1.3166  0.4641 -0.1325
 5224TIP3   OH237230   5.406   4.240   8.120 -0.2042  0.1581 -0.0592
 5224TIP3    H137231   5.403   4.169   8.185 -0.5694  0.5309  0.3306
 5224TIP3    H237232   5.322   4.285   8.129 -0.0900  0.4657 -0.5082
 5225TIP3   OH237233   0.191   6.118   1.265  0.5135 -0.4199 -0.2233
 5225TIP3    H137234   0.270   6.107   1.211  1.5436  0.9470  0.9475
 5225TIP3    H237235   0.119   6.117   1.202  1.6881  1.2763 -1.6922
 5226TIP3   OH237236   1.909   2.278   8.189 -0.4535  0.2815 -0.1657
 5226TIP3    H137237   1.929   2.356   8.138  0.5398 -0.3779 -0.8122
 5226TIP3    H237238   1.874   2.216   8.125 -0.7524  0.0154  0.2500
 5227TIP3   OH237239   5.559   4.499   7.332  0.5077 -0.2959  0.1819
 5227TIP3    H137240   5.532   4.432   7.269  1.4793 -0.5370 -0.0099
 5227TIP3    H237241   5.497   4.491   7.405  0.6402 -1.4541  0.1926
 5228TIP3   OH237242   5.605   2.676   7.883  0.0803  0.8402 -0.1454
 5228TIP3    H137243   5.601   2.721   7.799 -2.8393 -1.8686 -1.6597
 5228TIP3    H237244   5.685   2.623   7.877 -0.6239 -0.1324 -1.7808
 5229TIP3   OH237245   2.824   4.707   8.728 -0.4271  0.1730  0.0514
 5229TIP3    H137246   2.819   4.668   8.641 -1.0528 -0.1166  0.2112
 5229TIP3    H237247   2.916   4.700   8.752 -0.6200 -1.7681  0.3301
 5230TIP3   OH237248   5.048   2.441   0.986  0.4974 -0.2472  0.1603
 5230TIP3    H137249   5.101   2.441   0.907 -2.2150 -0.2244 -1.7854
 5230TIP3    H237250   5.034   2.348   1.006 -0.0669 -0.2787 -0.3354
 5231TIP3   OH237251   0.834   1.776   0.864  0.2318 -1.2105 -0.0712
 5231TIP3    H137252   0.912   1.782   0.919  0.3684 -0.8957 -0.2905
 5231TIP3    H237253   0.829   1.684   0.838 -0.1623 -1.4893  0.9298
 5232TIP3   OH237254   5.597   4.797   7.687  0.2065  0.9373 -0.4182
 5232TIP3    H137255   5.600   4.716   7.738 -0.9764  0.7699 -0.5969
 5232TIP3    H237256   5.682   4.800   7.643  0.6985  0.3654  0.4554
 5233TIP3   OH237257   5.950   4.526   0.818  0.1571  0.4104  0.2121
 5233TIP3    H137258   5.969   4.436   0.842  0.4403  0.2827 -0.4697
 5233TIP3    H237259   5.867   4.522   0.770  0.1328  0.5238  0.2419
 5234TIP3   OH237260   5.302   0.997   8.128 -0.2640  0.1462  0.2631
 5234TIP3    H137261   5.384   1.014   8.174 -0.3486 -0.9883  0.8531
 5234TIP3    H237262   5.295   1.068   8.064  1.2017  0.2222  0.1703
 5235TIP3   OH237263   0.175   0.048   8.747  0.1871  0.7810  0.0408
 5235TIP3    H137264   0.118   0.022   8.675  0.9355  0.4810 -0.4613
 5235TIP3    H237265   0.123   0.108   8.799 -1.4755 -1.3661  0.9993
 5236TIP3   OH237266   2.377   1.630   0.028 -0.3353 -0.2966 -0.3898
 5236TIP3    H137267   2.309   1.652  -0.036 -0.6622 -1.1886 -0.3634
 5236TIP3    H237268   2.423   1.713   0.043 -1.6206  0.4123 -0.1494
 5237TIP3   OH237269   2.122   4.343   8.117 -0.3720 -0.3692  0.3262
 5237TIP3    H137270   2.115   4.253   8.147 -1.3035 -0.3317  0.2284
 5237TIP3    H237271   2.120   4.337   8.021 -0.9033 -0.2080  0.3262
 5238TIP3   OH237272   6.625   6.536   0.016 -0.1677 -0.0920 -0.1335
 5238TIP3    H137273   6.589   6.617  -0.020 -0.0114  0.3534  0.6897
 5238TIP3    H237274   6.602   6.469  -0.048 -1.4075  0.3835 -0.2058
 5239TIP3   OH237275   2.005   5.499   7.494 -0.5110 -0.8754 -0.5721
 5239TIP3    H137276   2.084   5.453   7.523 -0.4830 -1.1117 -1.0251
 5239TIP3    H237277   2.022   5.591   7.515 -0.7327 -1.1022  0.7085
 5240TIP3   OH237278   5.913   5.511   1.592  0.0322 -0.8648 -0.4398
 5240TIP3    H137279   5.991   5.527   1.644  0.1011 -1.5770 -0.3122
 5240TIP3    H237280   5.872   5.434   1.632 -0.9490 -0.2729 -0.2574
 5241TIP3   OH237281   2.857   2.445   0.374  0.0854  0.0652 -0.1447
 5241TIP3    H137282   2.834   2.366   0.422  1.5493 -0.0257  0.4557
 5241TIP3    H237283   2.951   2.438   0.358 -0.3122  0.1352 -3.0094
 5242TIP3   OH237284   3.317   1.419   1.114 -0.4358 -0.0654  0.9306
 5242TIP3    H137285   3.397   1.453   1.155  0.4725 -0.2330 -0.6166
 5242TIP3    H237286   3.347   1.346   1.060 -2.1060 -2.2573  2.7598
 5243TIP3   OH237287   5.637   3.299   6.731  0.2060 -0.6690 -0.2844
 5243TIP3    H137288   5.574   3.237   6.767  0.8406 -1.5519 -0.6404
 5243TIP3    H237289   5.722   3.255   6.742  0.7507  0.4408  0.0856
 5244TIP3   OH237290   2.541   4.850   0.100  1.1681  0.2090 -0.4802
 5244TIP3    H137291   2.516   4.765   0.135  0.8447  0.3245 -0.4261
 5244TIP3    H237292   2.475   4.870   0.034 -0.0693  1.4112  1.0361
 5245TIP3   OH237293   5.586   3.478   6.933 -0.1187 -0.0613 -0.3239
 5245TIP3    H137294   5.597   3.458   6.840  0.7144 -1.2999  0.0251
 5245TIP3    H237295   5.674   3.472   6.970 -0.5981 -0.7060  0.7603
 5246TIP3   OH237296   5.856   1.736   0.474 -0.0600  0.2588  0.1967
 5246TIP3    H137297   5.885   1.812   0.524  0.1588 -0.8154  1.7824
 5246TIP3    H237298   5.778   1.706   0.520 -0.0463 -0.5705 -0.3129
 5247TIP3   OH237299   2.939   1.351   6.404  0.4301 -0.2219 -0.3369
 5247TIP3    H137300   2.972   1.317   6.488  1.2770 -0.8913 -0.9155
 5247TIP3    H237301   2.885   1.280   6.370  1.3301 -0.5887 -1.0522
 5248TIP3   OH237302   5.302   6.604   7.231  0.2401  0.2254 -0.6764
 5248TIP3    H137303   5.227   6.545   7.226  1.0023 -0.7341 -0.8384
 5248TIP3    H237304   5.292   6.661   7.155 -1.5581  1.6282  0.5051
 5249TIP3   OH237305   4.869   1.097   2.456  0.2571 -0.7422  0.0897
 5249TIP3    H137306   4.830   1.038   2.392  1.0598 -2.4876  1.1435
 5249TIP3    H237307   4.794   1.142   2.495 -0.4580 -1.6916 -0.1431
 5250TIP3   OH237308   3.043   5.491   7.445 -0.3974 -0.1981 -0.1834
 5250TIP3    H137309   3.051   5.505   7.350  0.9907  1.0859  0.0738
 5250TIP3    H237310   3.117   5.539   7.482 -1.8334  0.6927  1.6808
 5251TIP3   OH237311   1.527   3.295   0.575  0.1094  0.1941 -0.5378
 5251TIP3    H137312   1.439   3.325   0.596  0.1732  0.5164 -0.7080
 5251TIP3    H237313   1.522   3.200   0.576 -0.1726  0.2124 -0.2679
 5252TIP3   OH237314   5.247   1.870   8.318  0.0021  0.7568 -0.2027
 5252TIP3    H137315   5.161   1.875   8.276 -0.1094  0.6818  0.0116
 5252TIP3    H237316   5.234   1.810   8.391  0.7095 -0.7629 -1.2727
 5253TIP3   OH237317   0.911   4.275   0.127 -0.4176 -0.0400 -0.6356
 5253TIP3    H137318   0.856   4.348   0.096 -0.7914 -0.6237 -1.3724
 5253TIP3    H237319   0.990   4.318   0.160 -1.6307  0.8895  1.2295
 5254TIP3   OH237320   0.974   1.396   8.199 -0.0914 -0.2695  0.1734
 5254TIP3    H137321   0.932   1.310   8.196  0.1905 -0.4127  0.3121
 5254TIP3    H237322   1.004   1.411   8.110  0.7807 -0.7770  0.3766
 5255TIP3   OH237323   1.462   2.760   1.116 -0.4899 -0.1725 -0.3842
 5255TIP3    H137324   1.541   2.708   1.124  0.0289  0.2244 -2.3535
 5255TIP3    H237325   1.391   2.696   1.113 -0.4499 -0.4905  2.6108
 5256TIP3   OH237326   5.424   6.546   0.247 -0.0190 -0.2101 -0.3191
 5256TIP3    H137327   5.489   6.606   0.211  1.2168 -1.2528  0.0755
 5256TIP3    H237328   5.351   6.602   0.274  0.0807  0.8470 -2.1008
 5257TIP3   OH237329   3.098   3.515   0.906  0.6685  0.4465  0.6044
 5257TIP3    H137330   3.160   3.459   0.953  0.4437  0.7988  1.3406
 5257TIP3    H237331   3.070   3.462   0.832  0.3690 -0.4672  1.3518
 5258TIP3   OH237332   2.104   0.901   6.809  0.0019  0.3543 -0.0849
 5258TIP3    H137333   2.146   0.917   6.725 -1.1248  2.6245 -0.3180
 5258TIP3    H237334   2.019   0.864   6.787  0.1368 -0.0729  0.1150
 5259TIP3   OH237335   4.817   4.390   1.388  0.6129 -0.1633 -0.2675
 5259TIP3    H137336   4.885   4.386   1.455 -1.1307  1.9922  1.7901
 5259TIP3    H237337   4.839   4.467   1.336 -0.5678  0.9863  0.8705
 5260TIP3   OH237338   0.248   1.047   2.256 -0.0968 -0.4734  0.9084
 5260TIP3    H137339   0.170   1.055   2.201 -1.1464  0.0419  2.4157
 5260TIP3    H237340   0.233   0.966   2.305  0.5657 -0.6426  0.8290
 5261TIP3   OH237341   2.137   3.528   0.460 -0.3102 -0.5710 -0.0811
 5261TIP3    H137342   2.159   3.621   0.456  0.8043 -0.8065  0.3692
 5261TIP3    H237343   2.214   3.487   0.498 -1.0357 -1.6007  0.3037
 5262TIP3   OH237344   2.679   2.719   1.270 -0.0386  0.5802  0.7551
 5262TIP3    H137345   2.695   2.689   1.180 -1.8537  0.2827  0.4862
 5262TIP3    H237346   2.671   2.814   1.262 -0.6821  0.5118  0.4982
 5263TIP3   OH237347   0.172   3.365   1.981  0.3163  0.3261  0.3817
 5263TIP3    H137348   0.095   3.312   2.000  1.2039 -1.0274  0.3453
 5263TIP3    H237349   0.199   3.337   1.894  1.8201 -0.4986  1.0636
 5264TIP3   OH237350   1.260   0.034   1.733 -0.2272 -0.2896 -0.1289
 5264TIP3    H137351   1.270  -0.031   1.802  2.3295  0.9751  0.8065
 5264TIP3    H237352   1.279  -0.014   1.652  0.7825 -0.9374  0.4716
 5265TIP3   OH237353   4.506   6.219   1.094  0.8210 -0.2153  0.5692
 5265TIP3    H137354   4.475   6.309   1.093 -1.4294 -0.9373 -0.0533
 5265TIP3    H237355   4.586   6.220   1.040  0.0553  1.1535 -0.5758
 5266TIP3   OH237356   6.706   1.099   8.314  0.2222 -0.0755 -0.4090
 5266TIP3    H137357   6.664   1.077   8.398 -0.6087 -0.4005 -0.8978
 5266TIP3    H237358   6.729   1.014   8.276  0.3293  0.0601 -0.6439
 5267TIP3   OH237359   0.521   3.335   0.747  0.5854  0.0725 -0.1069
 5267TIP3    H137360   0.434   3.309   0.717  0.5435  1.2720 -1.0863
 5267TIP3    H237361   0.525   3.304   0.838 -1.9471  2.4183  0.9167
 5268TIP3   OH237362   0.426   2.713   0.586  0.1733  0.1920 -0.8647
 5268TIP3    H137363   0.469   2.735   0.669  0.7396  0.6623 -1.2733
 5268TIP3    H237364   0.441   2.619   0.576  3.6187  0.7174 -2.3291
 5269TIP3   OH237365   2.479   4.951   6.527 -0.3236  0.2575  0.3321
 5269TIP3    H137366   2.385   4.939   6.544 -0.3214 -0.6611 -0.2566
 5269TIP3    H237367   2.505   4.872   6.480  0.7584  0.4974  0.5131
 5270TIP3   OH237368   3.365   3.588   0.589 -0.5772  0.2971 -0.0750
 5270TIP3    H137369   3.410   3.519   0.636 -1.4225 -1.2760 -1.4606
 5270TIP3    H237370   3.380   3.667   0.641  0.6185 -0.8673  1.4270
 5271TIP3   OH237371   5.254   4.242   7.168  0.7478  0.0124 -0.4731
 5271TIP3    H137372   5.165   4.273   7.187  0.3032 -0.7173 -1.2788
 5271TIP3    H237373   5.250   4.214   7.077  0.4943 -4.3359  0.6646
 5272TIP3   OH237374   2.528   2.916   1.525  0.3251 -0.1989 -0.2161
 5272TIP3    H137375   2.613   2.961   1.526 -0.3928  1.2796 -1.3671
 5272TIP3    H237376   2.465   2.985   1.543 -0.7696 -0.9208 -1.1909
 5273TIP3   OH237377   1.303   1.925   8.807 -0.2061 -0.2694 -0.3669
 5273TIP3    H137378   1.329   1.981   8.881 -1.0200  0.4683 -0.6172
 5273TIP3    H237379   1.382   1.877   8.785  0.1052 -0.3756  0.8704
 5274TIP3   OH237380   2.650   5.717   2.327 -0.1358  0.2923  0.1540
 5274TIP3    H137381   2.590   5.696   2.256 -1.4402  1.3150  0.9124
 5274TIP3    H237382   2.630   5.808   2.350  1.5929  0.6166  0.5599
 5275TIP3   OH237383   3.929   6.171   7.262 -0.5330  0.5688 -0.4046
 5275TIP3    H137384   3.991   6.239   7.288 -0.1296  0.3846 -0.8600
 5275TIP3    H237385   3.929   6.109   7.335 -0.2127  0.5912 -0.3848
 5276TIP3   OH237386   1.488   1.612   7.635 -0.0509  0.1941  0.2751
 5276TIP3    H137387   1.420   1.654   7.582 -1.1967  0.6825  2.0136
 5276TIP3    H237388   1.446   1.599   7.721  1.3791 -1.4623  0.7762
 5277TIP3   OH237389   6.134   1.184   6.944 -0.3630 -0.5840 -0.0627
 5277TIP3    H137390   6.200   1.160   6.880 -0.2372 -0.5595  0.0560
 5277TIP3    H237391   6.138   1.115   7.010  3.6469  2.1240  3.0868
 5278TIP3   OH237392   5.804   6.639   7.390  0.7053 -0.2314  0.0189
 5278TIP3    H137393   5.741   6.645   7.461  0.8949 -0.0666  0.1757
 5278TIP3    H237394   5.751   6.645   7.310  0.5707  0.4582  0.1515
 5279TIP3   OH237395   4.943   4.421   6.623  0.6544  0.3379  0.2749
 5279TIP3    H137396   4.921   4.339   6.580 -1.2326  0.9036  0.0931
 5279TIP3    H237397   4.925   4.406   6.716  2.4041 -0.1068  0.5843
 5280TIP3   OH237398   2.516   2.376   7.331  0.1921  0.0449 -0.0115
 5280TIP3    H137399   2.603   2.413   7.349  0.7213 -1.0742 -0.1585
 5280TIP3    H237400   2.493   2.410   7.245  1.2978 -1.0390 -0.7736
 5281TIP3   OH237401   3.098   3.977   1.055  0.3997 -0.9452  0.3575
 5281TIP3    H137402   3.007   3.956   1.075  0.1803  0.4698  0.9411
 5281TIP3    H237403   3.120   3.921   0.980 -1.7398  0.4462 -1.4404
 5282TIP3   OH237404   2.706   0.420   7.788 -0.3915  0.0686 -0.0941
 5282TIP3    H137405   2.624   0.393   7.746  0.0304  1.5057 -1.9651
 5282TIP3    H237406   2.711   0.514   7.773  2.4732 -0.2245 -1.7910
 5283TIP3   OH237407   1.793   3.672   2.040 -0.4287 -0.2173  0.1002
 5283TIP3    H137408   1.862   3.643   2.099 -0.4130  0.4791  0.4349
 5283TIP3    H237409   1.833   3.744   1.991 -0.3149 -1.0306 -1.0431
 5284TIP3   OH237410   0.915   4.518   7.195 -0.4398  0.0348 -0.3344
 5284TIP3    H137411   0.885   4.452   7.258 -0.7080 -0.5969 -1.0995
 5284TIP3    H237412   0.835   4.545   7.149 -0.0390 -0.8559 -1.6350
 5285TIP3   OH237413   3.503   3.703   8.449  0.2304  0.1714  0.2197
 5285TIP3    H137414   3.418   3.661   8.461  0.3312  0.5328  2.9944
 5285TIP3    H237415   3.485   3.797   8.455  0.8454  0.2339  1.7038
 5286TIP3   OH237416   3.634   0.496   8.145 -0.1732  0.2076  0.2239
 5286TIP3    H137417   3.552   0.540   8.169  0.6480  1.6501  0.4850
 5286TIP3    H237418   3.606   0.416   8.100 -1.7572  1.6659 -1.5731
 5287TIP3   OH237419   3.139   2.730   1.430 -0.1237  0.1645 -0.3156
 5287TIP3    H137420   3.160   2.801   1.490 -0.6871 -1.1138  1.5067
 5287TIP3    H237421   3.109   2.773   1.351 -0.3930  1.9552  0.7101
 5288TIP3   OH237422   4.101   5.989   8.321  0.1964  0.3643  0.1518
 5288TIP3    H137423   4.173   5.980   8.258 -0.6059  2.5594 -1.1943
 5288TIP3    H237424   4.135   5.948   8.401  1.7993 -1.2513 -1.2493
 5289TIP3   OH237425   0.333   5.584   1.930  0.5141 -0.0637 -0.1788
 5289TIP3    H137426   0.304   5.581   2.021  0.0660  0.8976 -0.2784
 5289TIP3    H237427   0.269   5.531   1.882  0.5929 -0.3418  0.0249
 5290TIP3   OH237428   3.799   5.647   1.428 -0.3974 -0.7796  0.5927
 5290TIP3    H137429   3.767   5.560   1.403 -1.3818 -0.1806 -0.2874
 5290TIP3    H237430   3.767   5.659   1.517  0.0808 -1.4707  0.8673
 5291TIP3   OH237431   3.349   5.130   7.613 -0.1728 -0.5291 -0.4246
 5291TIP3    H137432   3.419   5.190   7.639 -0.1998 -1.2312  1.4985
 5291TIP3    H237433   3.391   5.044   7.614 -1.0617 -0.9744  0.9029
 5292TIP3   OH237434   5.352   2.177   7.543 -0.1961 -0.1650 -0.0741
 5292TIP3    H137435   5.305   2.181   7.460 -0.2885 -2.9444 -0.2411
 5292TIP3    H237436   5.283   2.189   7.609  0.1246  4.1095 -0.2212
 5293TIP3   OH237437   3.212   4.629   7.872 -0.1323 -0.5277 -0.4015
 5293TIP3    H137438   3.228   4.674   7.789 -2.4174  1.9781  0.3507
 5293TIP3    H237439   3.205   4.700   7.936 -2.3661 -2.0628  1.1826
 5294TIP3   OH237440   5.966   1.208   6.497  0.0621  0.4495  0.0572
 5294TIP3    H137441   6.059   1.198   6.474  0.1069  0.4637  0.2300
 5294TIP3    H237442   5.927   1.250   6.420  0.2170  0.5257  0.0189
 5295TIP3   OH237443   6.046   3.684   1.145  0.1685  0.2446  0.5087
 5295TIP3    H137444   6.135   3.661   1.119  0.5235  0.4430  1.5030
 5295TIP3    H237445   6.001   3.599   1.152  1.4608 -0.3463  4.0940
 5296TIP3   OH237446   3.948   3.510   0.916  0.3274 -0.1974 -0.0637
 5296TIP3    H137447   3.948   3.447   0.844  0.5449 -1.2412  0.8230
 5296TIP3    H237448   3.928   3.594   0.874 -1.5080 -1.0753 -1.0697
 5297TIP3   OH237449   1.966   5.550   0.527 -0.1967  0.2734  0.5996
 5297TIP3    H137450   1.997   5.530   0.616 -0.0486 -0.7525  0.3280
 5297TIP3    H237451   1.971   5.467   0.480 -0.2305  0.8148 -0.3933
 5298TIP3   OH237452   4.261   5.998   1.175  0.1486  0.2155 -0.1834
 5298TIP3    H137453   4.299   6.063   1.116  0.0674 -1.0570 -1.6785
 5298TIP3    H237454   4.307   6.012   1.258 -1.3913  3.6338  0.2791
 5299TIP3   OH237455   3.860   1.371   7.002  0.6841  0.2216 -0.0502
 5299TIP3    H137456   3.952   1.395   7.009  0.2594  1.4167  3.6195
 5299TIP3    H237457   3.859   1.276   6.994  2.2041  0.2611 -0.9558
 5300TIP3   OH237458   3.403   2.704   7.638 -0.3023  0.5320 -0.3687
 5300TIP3    H137459   3.343   2.673   7.570  2.0669 -1.8227 -1.5754
 5300TIP3    H237460   3.469   2.755   7.590  0.5631  0.1068  0.3420
 5301TIP3   OH237461   6.350   4.358   7.808 -0.1572 -0.0995  0.0897
 5301TIP3    H137462   6.335   4.448   7.836  0.1686 -0.2229  0.6793
 5301TIP3    H237463   6.276   4.309   7.845  0.3590 -0.2904  0.9111
 5302TIP3   OH237464   5.413   2.929   8.179 -0.1931  0.1468  0.4423
 5302TIP3    H137465   5.459   2.945   8.261  2.2589 -0.4503 -0.7525
 5302TIP3    H237466   5.346   2.864   8.202  0.9205 -0.5808  1.8318
 5303TIP3   OH237467   3.426   6.658   0.567  0.4941  0.4376  0.4807
 5303TIP3    H137468   3.398   6.749   0.575 -0.4695  0.5318 -2.5593
 5303TIP3    H237469   3.344   6.608   0.570  0.9718 -0.3310  1.5697
 5304TIP3   OH237470   4.758   4.737   1.523 -0.7187  0.0814 -0.8476
 5304TIP3    H137471   4.828   4.774   1.577 -0.2121 -0.7055 -0.9477
 5304TIP3    H237472   4.693   4.706   1.586 -0.7670  0.3965 -0.7392
 5305TIP3   OH237473   6.098   0.263   7.961 -0.0130 -0.4230  0.1559
 5305TIP3    H137474   6.070   0.354   7.972 -2.1767 -1.1235  1.0718
 5305TIP3    H237475   6.155   0.247   8.037 -0.1791 -0.0184  0.3718
 5306TIP3   OH237476   6.332   4.319   7.544 -0.4297  0.3291 -0.6562
 5306TIP3    H137477   6.331   4.354   7.633  0.0789  0.3988 -0.6739
 5306TIP3    H237478   6.339   4.224   7.556  1.5021  0.4403 -0.6151
 5307TIP3   OH237479   5.027   3.183   6.239  0.7023  1.1264 -0.5088
 5307TIP3    H137480   5.057   3.159   6.327 -0.5871 -3.6814 -1.0648
 5307TIP3    H237481   4.941   3.224   6.254  0.1030 -0.3854  0.5816
 5308TIP3   OH237482   5.579   5.968   0.589  0.2635  0.1789  0.0369
 5308TIP3    H137483   5.502   5.996   0.540  0.6267  2.0083  0.4027
 5308TIP3    H237484   5.546   5.949   0.677 -0.2529 -2.2792 -0.6324
 5309TIP3   OH237485   0.493   5.007   7.974 -0.1544  0.4226 -0.3468
 5309TIP3    H137486   0.584   5.020   7.947  0.2121 -2.7043 -1.0446
 5309TIP3    H237487   0.442   5.022   7.895  0.1638 -1.1420 -0.8946
 5310TIP3   OH237488   6.070   6.278   0.763 -0.0865  0.0442  0.3205
 5310TIP3    H137489   6.126   6.301   0.837  0.2602  0.2797 -0.0085
 5310TIP3    H237490   5.982   6.271   0.800  0.0628  0.3095  0.7272
 5311TIP3   OH237491   3.985   2.584   0.305  0.3023 -0.5548  0.0899
 5311TIP3    H137492   4.008   2.593   0.397  1.0852  1.5981 -0.2435
 5311TIP3    H237493   3.889   2.586   0.303  0.2432 -1.7922  0.9150
 5312TIP3   OH237494   2.349   5.115   1.448  0.4833  0.0386 -0.4047
 5312TIP3    H137495   2.271   5.102   1.395  0.0093  0.2230  0.2341
 5312TIP3    H237496   2.398   5.033   1.441  1.7965  0.9294 -3.2888
 5313TIP3   OH237497   3.182   4.274   1.808 -0.2830 -0.1692  0.2257
 5313TIP3    H137498   3.143   4.361   1.817 -2.6929 -1.1010 -0.3383
 5313TIP3    H237499   3.214   4.253   1.896 -1.6273  0.4447  0.8978
 5314TIP3   OH237500   2.967   1.206   7.834  0.1967  0.4721 -0.5500
 5314TIP3    H137501   2.986   1.112   7.824  0.1727  0.5039 -0.9354
 5314TIP3    H237502   2.971   1.222   7.928 -0.1515  0.0092 -0.4532
 5315TIP3   OH237503   1.902   3.297   7.530  0.1599 -0.0643  0.2315
 5315TIP3    H137504   1.886   3.388   7.505 -0.1265 -0.0149  0.5927
 5315TIP3    H237505   1.992   3.281   7.503 -0.2459 -0.1290 -1.1862
 5316TIP3   OH237506   0.459   0.976   7.954 -0.2522 -0.3540 -0.7340
 5316TIP3    H137507   0.516   0.901   7.940 -1.1642 -0.8721 -1.8831
 5316TIP3    H237508   0.474   1.032   7.878 -0.3278  0.1347 -0.3918
 5317TIP3   OH237509   1.395   6.672   8.762 -0.0513 -0.0037  0.3331
 5317TIP3    H137510   1.341   6.697   8.687  1.7466 -0.0299 -1.0314
 5317TIP3    H237511   1.361   6.587   8.789  0.7705 -1.1268 -2.0032
 5318TIP3   OH237512   6.317   0.658   1.535  0.8933 -0.2921 -0.3528
 5318TIP3    H137513   6.246   0.594   1.530  0.8219 -0.1537 -1.4044
 5318TIP3    H237514   6.397   0.606   1.523  1.1936 -0.7512  2.7703
 5319TIP3   OH237515   2.200   0.705   7.600 -0.3852  0.8841 -0.3858
 5319TIP3    H137516   2.183   0.671   7.512  0.7334  0.5916 -0.5043
 5319TIP3    H237517   2.203   0.800   7.588 -0.2560  0.8466 -0.6678
 5320TIP3   OH237518   3.356   1.496   7.370  0.3122 -0.5294 -0.1490
 5320TIP3    H137519   3.344   1.430   7.439  1.4098  0.0261  0.6007
 5320TIP3    H237520   3.285   1.558   7.384  0.8246 -0.1457  0.8279
 5321TIP3   OH237521   4.922   3.727   8.067 -0.1073  0.2336 -0.6456
 5321TIP3    H137522   4.987   3.679   8.016 -0.4118 -2.0959  1.0144
 5321TIP3    H237523   4.912   3.676   8.147 -0.9286  2.8039  1.0009
 5322TIP3   OH237524   6.711   4.930   0.278 -0.1525  0.0196 -0.2242
 5322TIP3    H137525   6.774   4.944   0.349 -0.1596  0.8498 -0.3637
 5322TIP3    H237526   6.742   4.852   0.233  0.7201  0.3409 -0.2035
 5323TIP3   OH237527   4.354   0.286   1.620  0.4578  0.2730  0.0208
 5323TIP3    H137528   4.430   0.235   1.649  0.0636 -0.2048  0.2492
 5323TIP3    H237529   4.341   0.260   1.529 -0.3833 -0.8848  0.4328
 5324TIP3   OH237530   1.522   5.671   2.128  0.4404 -0.5070 -0.2245
 5324TIP3    H137531   1.517   5.678   2.033 -0.4769  0.0564 -0.1484
 5324TIP3    H237532   1.572   5.748   2.155  2.0964 -1.4902 -0.3410
 5325TIP3   OH237533   1.691   5.548   0.319 -0.2911  0.1419 -0.0330
 5325TIP3    H137534   1.649   5.609   0.259  0.3137  0.3889 -0.2181
 5325TIP3    H237535   1.781   5.540   0.286 -0.2292 -0.4852  0.2625
 5326TIP3   OH237536   2.023   1.313   7.711  0.1478  0.0564 -0.1230
 5326TIP3    H137537   2.051   1.403   7.696  1.9291 -0.5252 -0.4705
 5326TIP3    H237538   1.940   1.306   7.662  0.1614  1.3936 -0.3741
 5327TIP3   OH237539   3.629   2.906   1.186 -0.2839  0.0822  0.4488
 5327TIP3    H137540   3.669   2.974   1.132  2.6470  0.1803  2.5143
 5327TIP3    H237541   3.650   2.932   1.276 -1.4656 -2.1394  1.4383
 5328TIP3   OH237542   5.028   6.634   8.368 -0.2575  0.3529 -0.3467
 5328TIP3    H137543   5.040   6.728   8.384  1.3001  0.4069 -1.5728
 5328TIP3    H237544   4.934   6.620   8.377 -0.2628  1.5227  2.2784
 5329TIP3   OH237545   5.862   2.613   7.161  0.0744  0.0779  0.2526
 5329TIP3    H137546   5.922   2.572   7.223  1.3697  1.9714  0.3364
 5329TIP3    H237547   5.894   2.703   7.152 -0.4316  0.0736 -2.6922
 5330TIP3   OH237548   3.920   6.528   7.316  0.2313 -0.1957 -0.5873
 5330TIP3    H137549   3.971   6.524   7.235  2.0731 -1.5406  0.5865
 5330TIP3    H237550   3.967   6.589   7.372 -0.5165  0.0036 -0.1524
 5331TIP3   OH237551   4.800   4.441   0.214  0.7994 -0.0128 -0.2636
 5331TIP3    H137552   4.731   4.442   0.148  1.7319  1.9340 -1.2956
 5331TIP3    H237553   4.844   4.525   0.205  2.1980 -0.4622  1.5670
 5332TIP3   OH237554   5.220   1.656   7.105  0.4409  0.2621  0.6078
 5332TIP3    H137555   5.204   1.744   7.072  0.0131  0.5545  1.5659
 5332TIP3    H237556   5.161   1.647   7.180  0.1100 -1.0271  0.2123
 5333TIP3   OH237557   6.388   1.454   7.424 -0.0552  0.2178  0.0755
 5333TIP3    H137558   6.468   1.410   7.394 -0.5485 -0.5010 -0.2160
 5333TIP3    H237559   6.363   1.509   7.350  0.5587  1.0067  0.4378
 5334TIP3   OH237560   1.564   6.010   7.201 -0.0778 -0.0620  0.2497
 5334TIP3    H137561   1.616   6.090   7.189  1.5745 -0.6921  2.5179
 5334TIP3    H237562   1.620   5.940   7.168 -0.0308 -0.6133  1.4582
 5335TIP3   OH237563   5.947   3.223   7.382  0.5168  0.1323  0.3206
 5335TIP3    H137564   6.016   3.275   7.342  1.5545 -0.1288  1.6605
 5335TIP3    H237565   5.873   3.283   7.392 -0.5271 -0.2519 -3.5607
 5336TIP3   OH237566   2.374   1.722   7.148  0.4610  0.1242  0.6557
 5336TIP3    H137567   2.291   1.678   7.128  0.5260  0.1732  0.2597
 5336TIP3    H237568   2.384   1.787   7.078  2.2651 -1.8243 -1.0458
 5337TIP3   OH237569   5.950   2.840   7.939  0.7001 -0.9831 -0.1186
 5337TIP3    H137570   6.037   2.840   7.979  0.4602 -1.2012  0.4062
 5337TIP3    H237571   5.936   2.749   7.914 -0.2619 -1.4053  1.7632
 5338TIP3   OH237572   3.014   3.237   6.675 -0.2546  0.3660  0.5770
 5338TIP3    H137573   3.108   3.240   6.689 -0.1385 -0.6011  0.0630
 5338TIP3    H237574   3.001   3.283   6.592 -0.1163 -0.3311  0.1587
 5339TIP3   OH237575   3.634   0.701   6.028 -0.0969 -0.9534 -0.2162
 5339TIP3    H137576   3.723   0.733   6.043 -0.7050 -0.2368  2.4687
 5339TIP3    H237577   3.645   0.615   5.988  1.7543 -0.3492 -1.0889
 5340TIP3   OH237578   1.542   3.534   1.121 -0.0558  0.9370  0.1210
 5340TIP3    H137579   1.605   3.533   1.193  2.0679  1.2654 -1.6349
 5340TIP3    H237580   1.552   3.620   1.080  0.4553 -0.0179 -1.9209
 5341TIP3   OH237581   4.348   4.110   2.087  0.2869  0.0858  0.1608
 5341TIP3    H137582   4.318   4.200   2.100  1.6333  0.2385  3.1956
 5341TIP3    H237583   4.417   4.116   2.021 -0.5176  1.0398 -0.6168
 5342TIP3   OH237584   2.615   2.504   1.055  0.0501  0.3685 -0.3901
 5342TIP3    H137585   2.644   2.570   0.993  0.8035 -0.9648 -1.5120
 5342TIP3    H237586   2.532   2.472   1.020 -0.8550  1.4342  0.7184
 5343TIP3   OH237587   0.079   1.969   1.733 -0.2845  0.0768 -0.1946
 5343TIP3    H137588   0.079   1.893   1.675 -0.9493 -1.6073  1.8424
 5343TIP3    H237589   0.014   2.028   1.695  0.3431 -0.2788 -1.9145
 5344TIP3   OH237590   0.592   1.180   1.457 -0.1545  0.1646 -0.2074
 5344TIP3    H137591   0.515   1.159   1.404  0.1682  0.4859 -0.8152
 5344TIP3    H237592   0.635   1.252   1.410 -0.3746  1.1072  0.9978
 5345TIP3   OH237593   6.148   0.008   7.353 -0.3102 -0.3897 -0.6924
 5345TIP3    H137594   6.181  -0.052   7.420  0.1560 -0.8950 -1.3618
 5345TIP3    H237595   6.057  -0.019   7.340 -0.1874 -0.7702 -0.7859
 5346TIP3   OH237596   5.931   3.390   0.098  0.1161  0.1464 -0.2719
 5346TIP3    H137597   5.990   3.427   0.164 -1.0429  0.5135  0.6023
 5346TIP3    H237598   5.926   3.297   0.119 -0.5374  0.3237  0.4245
 5347TIP3   OH237599   5.143   4.451   8.638 -0.0125 -0.2656 -0.2278
 5347TIP3    H137600   5.085   4.443   8.563  1.9382 -1.3764 -1.6985
 5347TIP3    H237601   5.209   4.516   8.611  0.5807 -0.5030  0.6003
 5348TIP3   OH237602   1.837   3.114   7.293 -0.2854 -0.1461 -0.5250
 5348TIP3    H137603   1.867   3.165   7.368 -3.4005 -0.7069  1.2755
 5348TIP3    H237604   1.857   3.023   7.316 -1.0178 -0.2996 -0.4667
 5349TIP3   OH237605   1.336   2.499   7.837  0.2242 -0.4768 -0.3059
 5349TIP3    H137606   1.356   2.591   7.822  0.9215 -0.5591  0.0329
 5349TIP3    H237607   1.323   2.493   7.932 -0.3961 -0.6221 -0.3998
 5350TIP3   OH237608   4.637   3.602   1.426  0.5760 -0.1181  0.3663
 5350TIP3    H137609   4.683   3.649   1.357  2.3019 -1.2691  0.6731
 5350TIP3    H237610   4.551   3.583   1.388  1.1503  0.0827 -1.1207
 5351TIP3   OH237611   6.524   0.331   7.587 -1.3965 -0.2721  0.0752
 5351TIP3    H137612   6.484   0.260   7.638  0.4741 -2.2091 -1.0058
 5351TIP3    H237613   6.577   0.379   7.651  1.1249 -2.8223  0.0962
 5352TIP3   OH237614   2.049   2.458   1.043 -0.3518 -0.4696  0.0838
 5352TIP3    H137615   2.132   2.412   1.031 -0.8106 -1.0759 -1.0026
 5352TIP3    H237616   2.058   2.504   1.126  1.2928 -0.0223 -0.3136
 5353TIP3   OH237617   3.813   5.782   0.737 -0.7952  0.3722  0.7416
 5353TIP3    H137618   3.877   5.745   0.798 -0.9176  0.0305  0.6680
 5353TIP3    H237619   3.808   5.717   0.666 -0.9876  0.5495  0.5931
 5354TIP3   OH237620   6.221   3.740   2.352  0.4011 -0.1644 -0.5254
 5354TIP3    H137621   6.235   3.826   2.393 -1.4855 -0.6750  1.3823
 5354TIP3    H237622   6.299   3.726   2.299  1.0832  2.4128 -0.3433
 5355TIP3   OH237623   6.472   1.522   1.088  0.0581 -0.3785 -0.3714
 5355TIP3    H137624   6.536   1.453   1.066  0.1675 -1.1359  2.0600
 5355TIP3    H237625   6.462   1.516   1.183 -0.8196  2.2322 -0.2272
 5356TIP3   OH237626   6.528   4.832   7.813 -0.2871 -0.0088  0.2875
 5356TIP3    H137627   6.443   4.846   7.856 -0.4799  3.2567 -0.8600
 5356TIP3    H237628   6.582   4.905   7.842  0.8344  0.1418 -1.9856
 5357TIP3   OH237629   6.345   5.761   8.098 -0.0462  0.5355  0.7833
 5357TIP3    H137630   6.390   5.678   8.084  1.2125  1.2861  0.2320
 5357TIP3    H237631   6.254   5.736   8.116  0.6405 -1.0423  2.3495
 5358TIP3   OH237632   4.287   4.670   8.506 -0.2154 -0.5529 -0.6572
 5358TIP3    H137633   4.256   4.715   8.427 -1.0230 -1.2827 -0.7740
 5358TIP3    H237634   4.293   4.739   8.572  1.5426  0.2793 -1.6158
 5359TIP3   OH237635   0.881   1.251   0.464 -0.2568  0.3621 -0.7227
 5359TIP3    H137636   0.943   1.323   0.473  0.1182  0.3356 -2.5990
 5359TIP3    H237637   0.856   1.252   0.372 -0.4795 -1.7059 -0.7444
 5360TIP3   OH237638   5.379   2.451   0.457 -0.1978 -0.6899 -0.4027
 5360TIP3    H137639   5.308   2.482   0.400  0.7598  0.0344 -1.2509
 5360TIP3    H237640   5.433   2.529   0.471  0.3011 -1.1771  0.4248
 5361TIP3   OH237641   0.472   2.329   8.521 -0.2531  0.1863  0.2770
 5361TIP3    H137642   0.384   2.340   8.485 -0.5787  2.7099  1.6439
 5361TIP3    H237643   0.499   2.417   8.547  2.4257 -0.6165  0.5289
 5362TIP3   OH237644   2.870   3.780   1.099  0.8648  0.1958 -0.6345
 5362TIP3    H137645   2.788   3.798   1.053  0.3885  1.7245  0.7105
 5362TIP3    H237646   2.884   3.686   1.088 -2.2101 -0.5649  0.9038
 5363TIP3   OH237647   1.925   2.857   8.148 -0.6244 -0.7974  0.2006
 5363TIP3    H137648   2.002   2.857   8.091 -1.4300 -1.0390 -0.9126
 5363TIP3    H237649   1.920   2.946   8.182 -1.4195  0.0086 -1.9073
 5364TIP3   OH237650   2.539   1.987   0.352  0.0240 -0.2993 -0.6762
 5364TIP3    H137651   2.593   1.960   0.426 -0.4219 -0.4071 -0.3879
 5364TIP3    H237652   2.592   1.967   0.275  1.0043  0.9520 -0.3537
 5365TIP3   OH237653   5.479   0.380   7.571  0.8932  0.5128 -0.4364
 5365TIP3    H137654   5.415   0.451   7.565  1.0587  0.6967 -0.0814
 5365TIP3    H237655   5.459   0.323   7.497  0.2754  0.5335 -0.2859
 5366TIP3   OH237656   0.288   6.116   1.712  0.3569 -0.1542 -0.3339
 5366TIP3    H137657   0.286   6.032   1.666 -2.8380 -1.0459  1.1569
 5366TIP3    H237658   0.267   6.181   1.645 -0.0308 -0.8960 -0.9411
 5367TIP3   OH237659   0.098   0.570   0.618  0.2531 -0.6202 -0.7294
 5367TIP3    H137660   0.069   0.575   0.526  1.9503 -1.9012 -1.4003
 5367TIP3    H237661   0.194   0.570   0.612  0.4013  0.1394  1.1338
 5368TIP3   OH237662   5.847   6.546   8.249 -0.0389  0.3215  0.0955
 5368TIP3    H137663   5.836   6.620   8.189  1.0546  0.3558 -0.0921
 5368TIP3    H237664   5.938   6.519   8.236 -0.0545 -0.2377  1.0980
 5369TIP3   OH237665   6.604   6.223   1.201  0.2327 -0.0293 -0.5911
 5369TIP3    H137666   6.652   6.220   1.283 -1.2502  0.9044  0.3571
 5369TIP3    H237667   6.612   6.314   1.171 -0.6819  0.0815 -0.5493
 5370TIP3   OH237668   5.691   4.100   7.923 -0.0011  0.3903 -0.7320
 5370TIP3    H137669   5.774   4.056   7.904 -0.3638 -0.6547 -0.0218
 5370TIP3    H237670   5.699   4.128   8.014 -1.2013 -1.6652  0.0814
 5371TIP3   OH237671   5.435   3.954   6.942 -0.5527  0.1392 -0.6430
 5371TIP3    H137672   5.465   4.037   6.904 -0.6143 -0.4747 -2.1095
 5371TIP3    H237673   5.374   3.919   6.877 -0.6317 -0.9883  0.0221
 5372TIP3   OH237674   3.199   1.440   0.770  0.1927 -0.0906  0.0268
 5372TIP3    H137675   3.200   1.362   0.825  1.3415 -0.1629 -0.0716
 5372TIP3    H237676   3.161   1.508   0.825  0.2679 -0.4436  0.5173
 5373TIP3   OH237677   1.048   4.529   8.759  0.3074  0.0963  0.4124
 5373TIP3    H137678   1.107   4.476   8.812  0.7129  0.5910  0.4624
 5373TIP3    H237679   1.002   4.584   8.822  0.8587  0.7530  0.2515
 5374TIP3   OH237680   3.307   3.100   6.365  0.0283 -0.1448 -0.2145
 5374TIP3    H137681   3.347   3.013   6.367  2.2659  0.7606 -1.9966
 5374TIP3    H237682   3.213   3.082   6.365  0.3874 -2.6533 -2.2556
 5375TIP3   OH237683   5.733   5.079   7.450 -0.0133 -0.0703  0.5005
 5375TIP3    H137684   5.640   5.087   7.427 -0.6168 -1.1722  2.3754
 5375TIP3    H237685   5.775   5.053   7.368 -1.5832 -0.9478 -0.0689
 5376TIP3   OH237686   0.563   3.282   8.613 -0.3461 -0.1410  0.0344
 5376TIP3    H137687   0.531   3.320   8.695 -1.3554 -0.7464 -0.0559
 5376TIP3    H237688   0.483   3.254   8.568  0.1969  0.2009 -1.1664
 5377TIP3   OH237689   4.819   1.406   0.786 -0.2927 -0.1910 -0.7343
 5377TIP3    H137690   4.821   1.467   0.860  0.4904 -0.6091 -0.4014
 5377TIP3    H237691   4.726   1.398   0.765 -0.6340 -0.7507  0.8032
 5378TIP3   OH237692   4.092   3.885   1.051 -0.1749 -0.5917 -0.0161
 5378TIP3    H137693   4.024   3.879   0.984  0.4520 -3.0015 -0.5386
 5378TIP3    H237694   4.045   3.913   1.130 -1.3545 -0.0377 -0.8771
 5379TIP3   OH237695   0.100   6.634   0.935 -0.2720  0.1404  0.4982
 5379TIP3    H137696   0.049   6.601   0.861  2.1636 -1.7741 -0.4561
 5379TIP3    H237697   0.089   6.729   0.932 -1.1961  0.0096 -1.5664
 5380TIP3   OH237698   3.198   4.009   7.242  0.1051 -0.4238  0.2670
 5380TIP3    H137699   3.258   4.081   7.225  1.2057 -1.2621  0.4437
 5380TIP3    H237700   3.201   3.997   7.337  0.1132 -0.8258  0.2218
 5381TIP3   OH237701   5.936   5.855   8.183  0.5824  0.0651  0.3989
 5381TIP3    H137702   5.987   5.934   8.199  1.8038 -0.0906 -2.2020
 5381TIP3    H237703   5.999   5.783   8.189  0.6555 -0.1862 -2.2602
 5382TIP3   OH237704   2.280   2.597   0.190 -0.0168  0.0568 -0.0095
 5382TIP3    H137705   2.294   2.640   0.274 -2.4162 -2.0201  1.6045
 5382TIP3    H237706   2.225   2.657   0.141  0.4281  0.7832  0.3656
 5383TIP3   OH237707   0.898   3.596   2.343 -0.4724 -0.0010 -0.7279
 5383TIP3    H137708   0.965   3.619   2.408 -1.4406  0.1794  0.2426
 5383TIP3    H237709   0.875   3.679   2.302 -0.5123  0.0216 -0.6593
 5384TIP3   OH237710   6.791   4.261   0.398 -0.2093  0.3506  0.6815
 5384TIP3    H137711   6.829   4.173   0.396  0.0680  0.4771  0.2495
 5384TIP3    H237712   6.701   4.249   0.369 -0.0498  0.2589  0.1968
 5385TIP3   OH237713   6.334   3.794   6.904 -0.3086  0.1051 -0.9798
 5385TIP3    H137714   6.368   3.838   6.982 -0.5096  0.6414 -1.1913
 5385TIP3    H237715   6.409   3.744   6.871 -0.7559 -1.8098  0.7105
 5386TIP3   OH237716   3.227   1.728   7.919 -0.6843  0.3327 -0.1198
 5386TIP3    H137717   3.315   1.762   7.931  0.0087 -1.0404 -1.0179
 5386TIP3    H237718   3.192   1.778   7.845  0.4112 -0.9858 -1.5877
 5387TIP3   OH237719   6.080   4.839   0.821  0.3960  0.1940 -0.2151
 5387TIP3    H137720   6.028   4.759   0.810  0.1078  0.0734  1.5835
 5387TIP3    H237721   6.107   4.836   0.913  1.8857  1.2849 -0.5959
 5388TIP3   OH237722   1.848   1.857   2.288  0.0067  0.4146  0.0576
 5388TIP3    H137723   1.799   1.911   2.226  0.9003  1.1798  0.0035
 5388TIP3    H237724   1.799   1.864   2.370 -0.7845 -0.0284 -0.3654
 5389TIP3   OH237725   2.595   6.326   7.239 -0.1474  0.0211  0.4495
 5389TIP3    H137726   2.502   6.348   7.240 -0.0151  0.5910  0.4391
 5389TIP3    H237727   2.597   6.232   7.220 -0.7505 -0.1839  1.3419
 5390TIP3   OH237728   6.212   1.374   1.276 -0.5471 -0.3754 -0.2448
 5390TIP3    H137729   6.136   1.365   1.333  1.3646  1.6952  2.9094
 5390TIP3    H237730   6.260   1.292   1.286 -0.0114  0.1173  1.6243
 5391TIP3   OH237731   3.299   3.651   8.773 -0.2362  0.0230 -0.4713
 5391TIP3    H137732   3.336   3.616   8.854 -0.3380 -0.1964 -0.5189
 5391TIP3    H237733   3.327   3.590   8.705  0.1902  0.4268 -0.6657
 5392TIP3   OH237734   5.299   1.861   8.667 -0.3241 -0.2192  0.3504
 5392TIP3    H137735   5.380   1.810   8.665 -0.5975 -0.6249 -1.1575
 5392TIP3    H237736   5.232   1.798   8.696 -0.6922 -0.8267 -1.6684
 5393TIP3   OH237737   2.180   4.192   6.692 -0.3746 -0.4480  0.1193
 5393TIP3    H137738   2.205   4.196   6.600 -0.1981  0.3040  0.1945
 5393TIP3    H237739   2.085   4.182   6.692 -0.3828 -0.3667 -0.1444
 5394TIP3   OH237740   5.896   4.312   1.288  0.0788  0.3646 -0.1053
 5394TIP3    H137741   5.895   4.226   1.245  0.4434 -0.9018  2.2878
 5394TIP3    H237742   5.817   4.356   1.256 -0.1927 -0.8938 -1.2616
 5395TIP3   OH237743   2.324   2.420   0.683  0.1396 -0.5316  0.3568
 5395TIP3    H137744   2.266   2.482   0.726  2.2359  0.5551  1.8008
 5395TIP3    H237745   2.293   2.334   0.711 -3.0354 -0.2941 -1.9637
 5396TIP3   OH237746   0.005   3.037   1.101  0.3802 -0.1656 -0.1632
 5396TIP3    H137747  -0.078   3.011   1.061 -0.4919 -1.7513  2.3880
 5396TIP3    H237748   0.072   2.999   1.044 -0.7033 -0.7894 -1.0697
 5397TIP3   OH237749   0.594   0.136   8.531  0.1735  0.4497  0.5625
 5397TIP3    H137750   0.501   0.150   8.551  0.2975 -0.0248  1.5862
 5397TIP3    H237751   0.595   0.057   8.477  0.0049  0.0944  1.0610
 5398TIP3   OH237752   2.285   4.908   0.418 -1.0803  0.0955 -0.1677
 5398TIP3    H137753   2.260   5.000   0.420  0.2748  0.4656  1.2916
 5398TIP3    H237754   2.369   4.904   0.464  0.3637 -1.4359 -2.6476
 5399TIP3   OH237755   0.347   2.578   1.403  0.0825  1.0678 -0.0675
 5399TIP3    H137756   0.278   2.545   1.461  0.0040  1.3018 -0.0271
 5399TIP3    H237757   0.301   2.636   1.342  0.3732  1.9960  0.5634
 5400TIP3   OH237758   2.510   6.269   0.210  0.0587  0.7320  0.4843
 5400TIP3    H137759   2.534   6.307   0.126  0.6938  0.0842  0.3692
 5400TIP3    H237760   2.559   6.187   0.216  0.7810  1.2263  1.9132
 5401TIP3   OH237761   1.161   5.350   1.564 -0.1506 -0.4226  0.1155
 5401TIP3    H137762   1.206   5.267   1.573 -0.0265 -0.3310  0.3405
 5401TIP3    H237763   1.096   5.335   1.495  0.0580 -0.6237 -0.0371
 5402TIP3   OH237764   3.022   3.322   1.965  0.1384  0.0457  0.0421
 5402TIP3    H137765   2.969   3.245   1.981  0.4697 -0.6948 -2.1172
 5402TIP3    H237766   2.962   3.384   1.924 -0.0005  0.7896  1.3036
 5403TIP3   OH237767   1.057   5.785   6.673  0.0630  0.1656 -0.2245
 5403TIP3    H137768   0.985   5.792   6.610  0.5920  0.8719 -0.7680
 5403TIP3    H237769   1.014   5.780   6.758 -0.6387  2.2240 -0.4026
 5404TIP3   OH237770   0.083   4.013   7.773  0.3508 -0.4551 -0.1780
 5404TIP3    H137771   0.073   4.103   7.803  1.5040 -0.1383 -0.6908
 5404TIP3    H237772   0.168   3.985   7.808 -0.6294 -1.8534  1.2091
 5405TIP3   OH237773   5.643   4.179   8.593  0.0459  0.1964 -0.6878
 5405TIP3    H137774   5.573   4.204   8.653 -1.1460 -1.1527 -1.4476
 5405TIP3    H237775   5.599   4.165   8.509  1.2115 -0.7719 -1.1768
 5406TIP3   OH237776   1.393   2.261   7.718  0.0311  0.0554  0.0627
 5406TIP3    H137777   1.394   2.350   7.755 -0.3049 -0.0859  0.4249
 5406TIP3    H237778   1.302   2.233   7.729 -0.2013  0.1986 -1.3435
 5407TIP3   OH237779   1.216   1.044   8.084 -1.1339  0.2587  0.2970
 5407TIP3    H137780   1.238   1.116   8.025 -1.5781  0.4817  0.3960
 5407TIP3    H237781   1.120   1.037   8.079 -1.2684  0.8734  1.6706
 5408TIP3   OH237782   0.301   5.407   7.148  0.5010  0.0626  0.1860
 5408TIP3    H137783   0.230   5.358   7.107  0.4959  1.0474 -1.0336
 5408TIP3    H237784   0.355   5.340   7.190 -0.3385 -0.8324 -0.1214
 5409TIP3   OH237785   6.592   2.392   2.102 -0.1828  0.2531 -0.4783
 5409TIP3    H137786   6.551   2.463   2.052  0.0444  0.4565 -0.3784
 5409TIP3    H237787   6.554   2.400   2.189  0.9906  1.2452 -0.0214
 5410TIP3   OH237788   4.034   1.091   0.280  0.5050 -0.0391  0.4979
 5410TIP3    H137789   3.964   1.144   0.241  0.2771 -0.1878  0.6978
 5410TIP3    H237790   4.039   1.123   0.371 -0.2978 -1.0089  0.9021
 5411TIP3   OH237791   6.430   3.477   8.499 -0.1085  0.1836  0.5509
 5411TIP3    H137792   6.435   3.560   8.546  0.6721  0.5396 -0.1277
 5411TIP3    H237793   6.347   3.439   8.526 -0.6818  1.3815  0.5611
 5412TIP3   OH237794   3.539   1.518   1.681 -0.0562 -0.5801  0.6492
 5412TIP3    H137795   3.546   1.588   1.746  0.4731 -2.1160  2.3454
 5412TIP3    H237796   3.484   1.554   1.612 -1.4412  0.8397  2.4041
 5413TIP3   OH237797   4.050   2.320   6.762 -0.4685 -0.3347 -0.2289
 5413TIP3    H137798   4.050   2.272   6.679 -1.6338 -4.5408  1.8943
 5413TIP3    H237799   3.958   2.330   6.784 -0.1875 -0.5371  1.1497
 5414TIP3   OH237800   5.900   4.340   8.014 -0.7856  0.4649 -0.3304
 5414TIP3    H137801   5.923   4.405   7.947 -0.6464 -0.9505 -1.7259
 5414TIP3    H237802   5.805   4.333   8.010 -0.9923  1.9237  1.1707
 5415TIP3   OH237803   0.745   0.030   1.169 -0.3065  0.0643  0.4069
 5415TIP3    H137804   0.789  -0.050   1.198 -0.7675 -0.9790 -1.5637
 5415TIP3    H237805   0.810   0.099   1.181  0.9825 -1.0237 -0.0718
 5416TIP3   OH237806   1.398   3.287   6.978  0.4776 -0.3000  0.0223
 5416TIP3    H137807   1.302   3.295   6.980  0.4925  0.0067 -0.3713
 5416TIP3    H237808   1.414   3.208   6.926  0.4014 -1.4033  1.6046
 5417TIP3   OH237809   5.871   3.005   7.543  0.1941  0.0472  0.1826
 5417TIP3    H137810   5.896   3.092   7.513  0.2405 -0.2536 -0.6671
 5417TIP3    H237811   5.857   3.015   7.637  1.2569  0.7284  0.2815
 5418TIP3   OH237812   0.055   5.506   2.375  0.2465  0.6728  0.4430
 5418TIP3    H137813  -0.021   5.557   2.404 -0.9627 -0.3539 -0.8113
 5418TIP3    H237814   0.101   5.485   2.457 -1.4602  0.3264  1.3724
 5419TIP3   OH237815   1.507   2.376   0.186  0.2691  0.1140  0.4301
 5419TIP3    H137816   1.438   2.310   0.191  1.2605 -1.0635 -0.6239
 5419TIP3    H237817   1.509   2.415   0.273  0.3909 -2.0506  1.4649
 5420TIP3   OH237818   3.818   1.211   0.134  0.0920 -0.2758 -0.8131
 5420TIP3    H137819   3.812   1.117   0.120  0.3513 -0.3378 -0.5184
 5420TIP3    H237820   3.838   1.247   0.047 -1.8625 -0.2914 -1.3265
 5421TIP3   OH237821   3.281   6.181   7.368 -0.4315  0.0220 -0.2283
 5421TIP3    H137822   3.197   6.136   7.371  0.0450 -0.8537  0.2707
 5421TIP3    H237823   3.260   6.269   7.336 -1.8142  0.4807  1.8036
 5422TIP3   OH237824   5.195   0.450   6.605  0.6164 -0.2839 -0.3684
 5422TIP3    H137825   5.228   0.363   6.583  1.5543  0.6721 -3.1023
 5422TIP3    H237826   5.157   0.483   6.524 -0.8043  1.4343  0.9070
 5423TIP3   OH237827   1.962   3.006   0.714  0.5078 -0.2426 -0.9100
 5423TIP3    H137828   1.952   3.031   0.622 -1.8993 -0.4943 -0.7778
 5423TIP3    H237829   1.876   3.024   0.753  1.5130 -0.0169  1.3312
 5424TIP3   OH237830   3.518   2.414   1.033 -0.1540  0.5513 -0.4538
 5424TIP3    H137831   3.604   2.398   0.996 -0.8018  0.0786 -1.8204
 5424TIP3    H237832   3.529   2.401   1.127  1.6412  2.1754 -0.3672
 5425TIP3   OH237833   1.884   2.761   1.041  0.0098  0.4663  0.1818
 5425TIP3    H137834   1.859   2.672   1.067 -3.2556  1.2033 -0.0026
 5425TIP3    H237835   1.818   2.787   0.977  0.9257  2.9776  0.1429
 5426TIP3   OH237836   6.624   1.510   8.388 -0.4212  0.3194  0.0913
 5426TIP3    H137837   6.656   1.468   8.468  2.2955  0.8492 -0.6245
 5426TIP3    H237838   6.623   1.441   8.323  1.2366  0.6486 -0.3478
 5427TIP3   OH237839   3.801   3.378   1.120  0.2617  0.1897 -0.5283
 5427TIP3    H137840   3.871   3.402   1.180  0.1597  1.0182 -0.7225
 5427TIP3    H237841   3.827   3.416   1.036 -0.0252 -0.1956 -0.7967
 5428TIP3   OH237842   4.418   2.160   1.282 -0.1757 -0.0258  0.1735
 5428TIP3    H137843   4.465   2.170   1.199  0.4128 -1.1101  0.3503
 5428TIP3    H237844   4.332   2.198   1.266  0.2433  0.6256 -0.6360
 5429TIP3   OH237845   1.376   4.354   7.015 -0.3456  0.6848 -0.6213
 5429TIP3    H137846   1.327   4.289   6.964  1.3917 -0.2846 -1.1216
 5429TIP3    H237847   1.344   4.343   7.105 -0.8503 -0.1004 -0.8849
 5430TIP3   OH237848   0.934   1.273   7.595  0.0289  0.0639 -0.3869
 5430TIP3    H137849   0.840   1.255   7.596  0.3045 -1.5504  0.5754
 5430TIP3    H237850   0.955   1.281   7.502 -0.8197 -1.1189 -0.7111
 5431TIP3   OH237851   3.086   5.830   7.508 -0.3130  0.3998  0.1480
 5431TIP3    H137852   3.182   5.824   7.500 -0.3469 -0.5939  0.3294
 5431TIP3    H237853   3.061   5.898   7.446  0.2991 -0.9788 -1.7319
 5432TIP3   OH237854   5.030   4.974   2.018  0.3589  0.2575 -0.4233
 5432TIP3    H137855   5.060   4.974   2.109  1.0303  1.3937 -0.6284
 5432TIP3    H237856   5.074   4.899   1.978  0.4751  0.0637  0.0596
 5433TIP3   OH237857   1.258   0.505   0.644  0.3547 -0.0341  0.0216
 5433TIP3    H137858   1.163   0.493   0.637  0.1330 -0.0275  2.2246
 5433TIP3    H237859   1.269   0.586   0.693  1.5788  0.8978 -1.6804
 5434TIP3   OH237860   0.906   4.027   6.956 -0.0670 -0.4363  0.2892
 5434TIP3    H137861   0.964   4.054   7.027  1.0132  0.9547 -1.0483
 5434TIP3    H237862   0.819   4.055   6.983  0.5274  1.2696  0.5169
 5435TIP3   OH237863   0.969   3.046   0.439 -0.1586  0.3019 -0.1905
 5435TIP3    H137864   1.016   3.006   0.366 -1.4373  1.5117 -1.7363
 5435TIP3    H237865   1.038   3.079   0.497  0.8734 -0.8000 -0.7514
 5436TIP3   OH237866   3.176   3.888   8.631  0.6240 -0.1364  0.0277
 5436TIP3    H137867   3.253   3.937   8.660  1.0024 -1.0666  0.6444
 5436TIP3    H237868   3.197   3.797   8.652 -0.8835 -0.3468  0.7247
 5437TIP3   OH237869   4.159   1.504   2.324 -0.2977 -0.2932 -0.1993
 5437TIP3    H137870   4.247   1.473   2.300 -0.5900 -1.5186  0.2466
 5437TIP3    H237871   4.173   1.551   2.406  0.0231 -0.0355 -0.4003
 5438TIP3   OH237872   3.395   3.189   6.992  0.0477 -0.0104 -0.2737
 5438TIP3    H137873   3.483   3.221   6.973 -0.6972  0.8796 -2.4954
 5438TIP3    H237874   3.351   3.264   7.034  0.5773 -0.7744  1.7776
 5439TIP3   OH237875   3.498   0.954   0.594 -0.3340 -0.2257  0.4322
 5439TIP3    H137876   3.576   1.007   0.578  0.3398 -1.5335 -0.7952
 5439TIP3    H237877   3.507   0.925   0.685 -1.6986  3.2193  1.8845
 5440TIP3   OH237878   0.609   4.664   2.137 -0.6347  0.1092  0.0022
 5440TIP3    H137879   0.533   4.613   2.165 -0.2949 -1.2388 -1.4038
 5440TIP3    H237880   0.622   4.728   2.208 -2.2748 -0.4534  0.8786
 5441TIP3   OH237881   2.451   1.986   8.045 -0.0320 -0.1664  0.3285
 5441TIP3    H137882   2.531   1.980   8.098  0.9941  0.7036 -1.0260
 5441TIP3    H237883   2.423   2.077   8.055  0.3579  0.0966 -0.8328
 5442TIP3   OH237884   1.881   6.440   1.969  0.1203  0.2028  0.5748
 5442TIP3    H137885   1.936   6.434   2.047 -1.0304  0.7869  1.4551
 5442TIP3    H237886   1.792   6.448   2.002 -0.3376  1.2199 -0.7936
 5443TIP3   OH237887   3.180   2.499   0.333  0.4615 -0.6535  0.2625
 5443TIP3    H137888   3.215   2.588   0.319  2.5634 -1.0074  2.4453
 5443TIP3    H237889   3.211   2.449   0.258 -0.4073  0.3203 -0.7929
 5444TIP3   OH237890   6.688   3.006   0.475  0.2445 -0.3728 -0.1748
 5444TIP3    H137891   6.723   3.032   0.390 -1.1469 -2.1738 -1.3773
 5444TIP3    H237892   6.765   2.981   0.526  1.0305 -0.1731 -1.2311
 5445TIP3   OH237893   4.592   2.196   6.792  0.1132  0.0087 -0.4451
 5445TIP3    H137894   4.552   2.252   6.726 -0.2950 -0.1557 -0.3400
 5445TIP3    H237895   4.662   2.250   6.831 -0.6003  0.6309  0.0034
 5446TIP3   OH237896   3.855   5.426   8.531  0.0963  0.2707  0.7306
 5446TIP3    H137897   3.765   5.457   8.537  0.0661 -0.0132  2.0180
 5446TIP3    H237898   3.906   5.504   8.508 -0.5575  0.2557 -0.9001
 5447TIP3   OH237899   4.555   1.508   0.758 -0.7725 -0.2771 -0.0170
 5447TIP3    H137900   4.547   1.596   0.796 -1.6584 -0.9568  1.4491
 5447TIP3    H237901   4.468   1.469   0.770 -0.1751 -1.6346  0.0627
 5448TIP3   OH237902   3.986   5.099   7.322 -0.1175  0.2450 -0.1247
 5448TIP3    H137903   3.899   5.090   7.282  0.6136  2.5812 -2.5644
 5448TIP3    H237904   4.011   5.010   7.345 -2.3221 -0.7510 -1.2691
 5449TIP3   OH237905   3.029   5.946   8.071  0.0245  0.6244 -0.2167
 5449TIP3    H137906   3.070   5.863   8.096 -0.1029  0.8308  0.7043
 5449TIP3    H237907   3.024   5.942   7.975 -2.8666 -1.8194 -0.1186
 5450TIP3   OH237908   0.500   5.083   1.632  0.5261  0.3197 -0.1755
 5450TIP3    H137909   0.591   5.104   1.609  0.9436  2.4951  2.8393
 5450TIP3    H237910   0.466   5.164   1.670 -1.9522 -1.1066  0.8882
 5451TIP3   OH237911   5.277   5.468   7.085  0.0144 -0.1731  0.5841
 5451TIP3    H137912   5.337   5.430   7.149  2.1284  1.8195 -0.0676
 5451TIP3    H237913   5.333   5.488   7.010 -1.5253  1.4582 -0.1929
 5452TIP3   OH237914   0.627   0.529   8.225 -0.2397 -0.4027 -0.3681
 5452TIP3    H137915   0.637   0.608   8.278  0.2576 -1.2360  0.8096
 5452TIP3    H237916   0.716   0.494   8.217 -0.4122 -0.6970 -1.1486
 5453TIP3   OH237917   4.381   0.846   6.198  0.6139 -0.6378  0.0568
 5453TIP3    H137918   4.469   0.824   6.230  1.6223  1.4834 -1.0584
 5453TIP3    H237919   4.361   0.776   6.136  2.0500 -0.5532 -0.5539
 5454TIP3   OH237920   1.484   4.220   0.783  0.1968  0.1356  0.2758
 5454TIP3    H137921   1.389   4.229   0.773  0.2633  1.8017  0.7787
 5454TIP3    H237922   1.518   4.217   0.694 -0.2520  0.5482  0.0876
 5455TIP3   OH237923   6.738   3.972   1.960  0.4745 -0.3876 -0.1638
 5455TIP3    H137924   6.719   3.931   1.876 -2.2289 -0.0987  0.2257
 5455TIP3    H237925   6.681   3.927   2.022  1.3743  0.3746  1.2583
 5456TIP3   OH237926   6.763   1.380   1.631 -0.0823  0.3125  0.1370
 5456TIP3    H137927   6.814   1.414   1.557  0.4940 -1.4797 -0.3225
 5456TIP3    H237928   6.713   1.307   1.595  1.3331 -1.5886  1.7763
 5457TIP3   OH237929   4.875   3.143   0.691 -0.3840  0.2883  0.1309
 5457TIP3    H137930   4.873   3.146   0.786 -1.6374  2.7413  0.1099
 5457TIP3    H237931   4.927   3.220   0.666 -1.4898  0.6524 -1.1505
 5458TIP3   OH237932   4.527   4.104   1.087 -0.5384 -0.2737 -0.8273
 5458TIP3    H137933   4.552   4.042   1.155 -2.6139 -1.8117 -1.3694
 5458TIP3    H237934   4.588   4.177   1.098  0.4018 -1.2985  1.4343
 5459TIP3   OH237935   3.140   6.626   7.638  0.1480  0.1170 -0.3677
 5459TIP3    H137936   3.086   6.571   7.583  1.9422 -2.0295 -0.1467
 5459TIP3    H237937   3.130   6.714   7.602 -0.7208 -0.7833 -2.4773
 5460TIP3   OH237938   3.037   3.388   7.910  0.3560 -0.0448 -0.5367
 5460TIP3    H137939   3.051   3.302   7.872  1.2266 -0.1824  0.0526
 5460TIP3    H237940   2.951   3.382   7.952  1.3714 -1.4270  1.5154
 5461TIP3   OH237941   4.255   3.455   0.411 -0.0762  0.2570 -0.3306
 5461TIP3    H137942   4.297   3.541   0.408  1.3202 -0.3848  0.0740
 5461TIP3    H237943   4.213   3.453   0.497  0.1860  0.4049 -0.1948
 5462TIP3   OH237944   1.225   6.747   0.875 -0.4753  0.1965 -0.5281
 5462TIP3    H137945   1.273   6.827   0.855  0.6546 -0.2975  0.1605
 5462TIP3    H237946   1.220   6.700   0.792 -1.4143  1.0984 -1.0045
 5463TIP3   OH237947   0.365   3.602   1.572 -0.4312 -0.2696 -0.7201
 5463TIP3    H137948   0.454   3.619   1.544 -0.8812  1.1787 -1.3716
 5463TIP3    H237949   0.372   3.528   1.632  1.4226  0.8687  0.5586
 5464TIP3   OH237950   4.166   5.339   7.759 -0.1289  0.0842  0.2089
 5464TIP3    H137951   4.076   5.320   7.733 -0.5096  0.3896  1.2589
 5464TIP3    H237952   4.177   5.433   7.743  0.4578 -0.1883 -1.1811
 5465TIP3   OH237953   1.005   5.214   1.916  0.4680  0.3675 -0.3505
 5465TIP3    H137954   0.997   5.258   2.001 -0.2677 -0.8593  0.2452
 5465TIP3    H237955   0.952   5.266   1.857  0.2913  0.7544  0.1414
 5466TIP3   OH237956   5.894   0.218   7.241  0.0887 -0.2946 -0.0180
 5466TIP3    H137957   5.808   0.238   7.203 -1.4416 -0.7655  2.9362
 5466TIP3    H237958   5.915   0.131   7.207  0.1285  0.3828 -1.8585
 5467TIP3   OH237959   5.658   1.392   0.445  0.4949 -0.2805  0.3748
 5467TIP3    H137960   5.645   1.487   0.445  0.3781 -0.2904 -0.3436
 5467TIP3    H237961   5.625   1.363   0.530 -0.2592  0.2140  0.2617
 5468TIP3   OH237962   5.036   6.159   0.495 -0.0500  0.0088  0.3966
 5468TIP3    H137963   5.028   6.141   0.589  1.0455  0.0892  0.5194
 5468TIP3    H237964   5.105   6.226   0.490 -1.8781  1.9303 -0.2772
 5469TIP3   OH237965   0.591   0.581   0.493  0.0566 -0.6846  0.3210
 5469TIP3    H137966   0.637   0.633   0.427  0.1722  0.9317  1.6182
 5469TIP3    H237967   0.513   0.632   0.514  1.0686 -0.0456  2.9190
 5470TIP3   OH237968   0.923   2.434   0.015  0.1470 -0.2580  0.1225
 5470TIP3    H137969   0.890   2.345   0.012  2.1224 -1.0213 -0.6576
 5470TIP3    H237970   0.910   2.467  -0.074 -0.6898  0.3081  0.4382
 5471TIP3   OH237971   0.685   1.949   7.545  0.5153  0.4669  0.5961
 5471TIP3    H137972   0.761   2.007   7.533  1.2143 -0.6852 -0.8833
 5471TIP3    H237973   0.616   1.991   7.493  0.6947  0.5351  0.4090
 5472TIP3   OH237974   6.269   6.681   2.081 -0.1996  0.6207  0.3406
 5472TIP3    H137975   6.306   6.679   2.169 -0.6279 -0.4390  0.5162
 5472TIP3    H237976   6.192   6.737   2.088  1.2962  2.8457 -0.0292
 5473TIP3   OH237977   0.210   5.586   7.654  0.0476 -0.4978  0.1061
 5473TIP3    H137978   0.256   5.666   7.681  0.2912 -0.5401 -0.1712
 5473TIP3    H237979   0.272   5.541   7.596 -1.3081  0.7770 -2.5309
 5474TIP3   OH237980   4.000   0.118   0.833  0.0008 -0.2608  0.2885
 5474TIP3    H137981   3.972   0.035   0.872  0.7318  0.6062  2.8496
 5474TIP3    H237982   3.919   0.168   0.825 -0.1092 -0.2222  1.3909
 5475TIP3   OH237983   6.592   6.761   7.386 -0.7183  0.0711 -0.1762
 5475TIP3    H137984   6.558   6.676   7.360  0.6215 -0.9227  1.1683
 5475TIP3    H237985   6.595   6.758   7.482  1.1490  0.8673 -0.1552
 5476TIP3   OH237986   2.448   2.827   8.826 -0.9407 -0.3014 -0.0924
 5476TIP3    H137987   2.429   2.735   8.811  0.2833 -0.2156 -2.5729
 5476TIP3    H237988   2.386   2.874   8.770 -0.8588  0.3692  0.3614
 5477TIP3   OH237989   5.314   0.642   1.918  0.8044 -0.4457 -0.4792
 5477TIP3    H137990   5.355   0.692   1.988  0.6177 -3.2218  1.7737
 5477TIP3    H237991   5.273   0.708   1.862  1.9581  1.9559  1.3367
 5478TIP3   OH237992   1.718   2.852   0.422  0.5462 -0.0740  0.1103
 5478TIP3    H137993   1.700   2.919   0.356  2.5999 -0.9946 -1.5100
 5478TIP3    H237994   1.812   2.859   0.438  0.3455 -0.8483  1.9174
 5479TIP3   OH237995   1.447   1.786   1.452  0.4051 -0.1325  0.0929
 5479TIP3    H137996   1.375   1.832   1.410  0.6943  0.7739  0.5761
 5479TIP3    H237997   1.411   1.753   1.534 -0.0695 -1.6240 -0.6855
 5480TIP3   OH237998   4.841   0.159   7.940  0.5195 -0.2917  0.2540
 5480TIP3    H137999   4.839   0.069   7.972 -0.9717 -0.1188  0.7420
 5480TIP3    H238000   4.820   0.212   8.017  0.5740  0.4151 -0.2102
 5481TIP3   OH238001   4.799   2.981   1.641  0.3725  0.2661  0.4639
 5481TIP3    H138002   4.769   3.039   1.711 -0.6785  1.7393 -1.1160
 5481TIP3    H238003   4.857   3.035   1.588  1.3846 -0.9074  0.3446
 5482TIP3   OH238004   2.548   3.230   7.229 -0.1431  0.0235 -0.0026
 5482TIP3    H138005   2.555   3.141   7.193 -0.5277  0.4057 -1.0494
 5482TIP3    H238006   2.637   3.265   7.224  0.2629 -0.7006  1.5297
 5483TIP3   OH238007   0.347   6.688   1.685 -0.5164  0.0926  0.4849
 5483TIP3    H138008   0.311   6.603   1.661  0.5574  0.0382 -1.0996
 5483TIP3    H238009   0.278   6.751   1.661 -0.0755 -0.1009 -1.4191
 5484TIP3   OH238010   6.532   5.022   6.684  0.1921 -0.0315  0.6576
 5484TIP3    H138011   6.594   4.963   6.727  1.7988 -0.1426 -1.6025
 5484TIP3    H238012   6.502   4.973   6.608 -1.8192  0.4849  1.0730
 5485TIP3   OH238013   3.804   5.905   0.053 -0.2897  0.0009 -0.3641
 5485TIP3    H138014   3.785   5.988   0.010  0.3085  0.5947  0.4816
 5485TIP3    H238015   3.720   5.875   0.088 -0.1589  1.3639  1.2267
 5486TIP3   OH238016   3.881   2.858   7.520  0.1090  0.2441  0.7005
 5486TIP3    H138017   3.861   2.946   7.488 -2.2723 -0.0693  1.1445
 5486TIP3    H238018   3.856   2.859   7.612 -0.1196 -0.9320  0.6719
 5487TIP3   OH238019   2.932   1.137   0.441  0.0088 -0.1292 -0.1293
 5487TIP3    H138020   3.009   1.099   0.397 -0.5565 -1.1940 -0.2232
 5487TIP3    H238021   2.932   1.228   0.412 -0.1209 -0.6873 -2.0900
 5488TIP3   OH238022   1.010   3.159   7.361  0.8901 -0.4599  0.1317
 5488TIP3    H138023   1.079   3.159   7.294  2.1172 -0.9400  1.3492
 5488TIP3    H238024   1.044   3.217   7.429 -0.6577  0.5854  0.0412
 5489TIP3   OH238025   1.428   4.665   8.067 -0.3333  0.2284  0.2012
 5489TIP3    H138026   1.346   4.636   8.027  0.2016 -1.5580  0.3131
 5489TIP3    H238027   1.425   4.629   8.155  0.7023 -0.1087  0.1067
 5490TIP3   OH238028   2.310   6.690   0.841  0.2251 -0.1014 -0.5020
 5490TIP3    H138029   2.303   6.595   0.852  1.6439 -0.0353  1.7978
 5490TIP3    H238030   2.385   6.702   0.783  0.0701 -0.4011 -0.7621
 5491TIP3   OH238031   3.525   5.866   8.740  0.0175 -0.6744  0.3701
 5491TIP3    H138032   3.533   5.791   8.799  2.9159 -0.7731 -0.0421
 5491TIP3    H238033   3.524   5.942   8.799  0.1711 -0.8842  0.6449
 5492TIP3   OH238034   4.737   4.768   2.206 -0.0558  0.6306 -0.1992
 5492TIP3    H138035   4.709   4.845   2.255 -0.5624  0.4135 -0.1443
 5492TIP3    H238036   4.782   4.803   2.129  0.1915  0.9757  0.1021
 5493TIP3   OH238037   6.045   5.244   1.729 -0.3547  0.5441  0.0405
 5493TIP3    H138038   6.033   5.189   1.806 -0.0017  0.5569  0.1052
 5493TIP3    H238039   6.064   5.331   1.764 -0.4504  0.6054 -0.0608
 5494TIP3   OH238040   5.272   2.789   8.420  0.1110  0.3994  0.2883
 5494TIP3    H138041   5.358   2.832   8.419  0.2868  0.1140  1.5328
 5494TIP3    H238042   5.283   2.714   8.479 -1.0197  0.4256  0.5554
 5495TIP3   OH238043   0.070   0.985   1.493 -0.2500  0.1777 -0.6116
 5495TIP3    H138044   0.116   0.928   1.554 -2.7234  1.4070  2.7169
 5495TIP3    H238045   0.124   1.063   1.487  1.8439 -1.3058 -3.1315
 5496TIP3   OH238046   5.948   1.552   1.582 -0.3704 -0.6858 -0.2898
 5496TIP3    H138047   5.903   1.610   1.643  1.4172 -0.9754  1.3721
 5496TIP3    H238048   5.943   1.597   1.498 -1.9630  0.2242  0.2470
 5497TIP3   OH238049   3.775   3.383   8.230 -0.3308  0.4652  0.3266
 5497TIP3    H138050   3.798   3.476   8.232 -0.4978  0.6448 -2.4519
 5497TIP3    H238051   3.680   3.382   8.219 -0.1570  0.0907 -1.6053
 5498TIP3   OH238052   4.313   3.678   7.536  0.2574  0.2008  0.3279
 5498TIP3    H138053   4.370   3.755   7.524  1.6210 -0.6015  1.3713
 5498TIP3    H238054   4.313   3.635   7.451 -0.6806  1.4450 -0.3257
 5499TIP3   OH238055   4.886   3.183   7.886  0.2571 -0.0871  0.1805
 5499TIP3    H138056   4.803   3.181   7.838 -1.1344  0.9186  2.3905
 5499TIP3    H238057   4.893   3.096   7.926  0.4983 -0.3180 -0.3601
 5500TIP3   OH238058   2.764   2.017   7.850 -0.0242 -0.5422 -0.0054
 5500TIP3    H138059   2.846   2.038   7.895 -0.0439  1.1592 -0.6938
 5500TIP3    H238060   2.744   1.927   7.877  0.5939 -0.0215  2.3805
 5501TIP3   OH238061   2.681   1.932   1.536 -0.1350 -0.4599 -0.0697
 5501TIP3    H138062   2.597   1.887   1.528 -0.5798  0.7102 -3.4159
 5501TIP3    H238063   2.681   1.967   1.626 -2.6051 -1.5711  0.4493
 5502TIP3   OH238064   4.005   0.805   8.852 -0.0126  0.3650  0.1694
 5502TIP3    H138065   4.065   0.739   8.886  0.1776 -0.0294 -0.9116
 5502TIP3    H238066   3.961   0.762   8.779 -0.0429  1.3540 -0.4105
 5503TIP3   OH238067   5.117   2.290   6.889  0.2436 -0.0824  0.7908
 5503TIP3    H138068   5.195   2.242   6.861 -0.2574  0.1912 -1.2078
 5503TIP3    H238069   5.044   2.234   6.862 -0.2832  0.0867  1.8209
 5504TIP3   OH238070   4.835   2.249   0.457  0.2107 -0.3231  0.2196
 5504TIP3    H138071   4.914   2.279   0.502  0.4793  1.7227 -1.4590
 5504TIP3    H238072   4.863   2.230   0.368 -1.1592  0.4205 -0.4057
 5505TIP3   OH238073   5.696   0.049   1.256  0.1952 -0.5120 -0.3894
 5505TIP3    H138074   5.751  -0.026   1.278 -0.1274 -0.4110  0.8920
 5505TIP3    H238075   5.723   0.117   1.318 -1.3933 -0.4821  0.3145
 5506TIP3   OH238076   5.240   6.660   6.962 -0.0394  0.3290  0.2153
 5506TIP3    H138077   5.161   6.638   6.912 -0.2154  0.6114  0.3668
 5506TIP3    H238078   5.311   6.616   6.916 -0.0766  1.2879 -0.7866
 5507TIP3   OH238079   1.586   4.690   0.345 -0.1160 -0.2514  0.2266
 5507TIP3    H138080   1.541   4.696   0.430 -4.3608  2.7493 -1.8393
 5507TIP3    H238081   1.658   4.753   0.351 -1.6172  1.4819  1.0774
 5508TIP3   OH238082   1.083   3.766   7.633  0.5701 -0.0445  0.6519
 5508TIP3    H138083   1.023   3.835   7.660  1.1396  0.2484  1.2071
 5508TIP3    H238084   1.099   3.715   7.713  0.9341 -0.2087  0.4766
 5509TIP3   OH238085   1.900   5.840   6.578 -0.0580  0.2119 -0.7277
 5509TIP3    H138086   1.828   5.822   6.638 -0.1431 -1.9341 -1.3890
 5509TIP3    H238087   1.872   5.801   6.495  1.0483  1.0893 -1.5500
 5510TIP3   OH238088   2.844   5.732   0.179  0.0212  0.0791 -0.5653
 5510TIP3    H138089   2.871   5.822   0.195  0.2865  0.1361 -1.3052
 5510TIP3    H238090   2.921   5.679   0.201 -0.2675 -0.0018  0.2618
 5511TIP3   OH238091   5.433   3.536   8.695  0.0704 -0.0635  0.2624
 5511TIP3    H138092   5.464   3.516   8.783  0.0539 -2.2551 -0.1575
 5511TIP3    H238093   5.345   3.500   8.692 -0.4853  1.2800 -0.2358
 5512TIP3   OH238094   2.672   3.696   7.973  0.2840  0.5456 -0.2122
 5512TIP3    H138095   2.615   3.701   8.050  1.3273  4.3628  0.5319
 5512TIP3    H238096   2.612   3.676   7.901 -1.3217  0.4533  1.0881
 5513TIP3   OH238097   1.626   5.936   7.463 -0.6261 -0.5949 -0.1114
 5513TIP3    H138098   1.651   5.844   7.473 -0.2837 -0.5294 -0.3481
 5513TIP3    H238099   1.634   5.954   7.369  4.0086  0.9431  0.2968
 5514TIP3   OH238100   3.964   4.143   1.909 -0.2325 -0.0601 -0.3388
 5514TIP3    H138101   4.041   4.200   1.905 -0.1510 -0.1854 -0.5752
 5514TIP3    H238102   3.892   4.202   1.931  0.1790 -0.1653  1.4826
 5515TIP3   OH238103   5.031   4.703   8.154  0.0033  0.7187 -0.2694
 5515TIP3    H138104   5.018   4.655   8.236  1.2541  0.2977 -0.3029
 5515TIP3    H238105   5.119   4.740   8.162  0.0438  0.8649 -1.3313
 5516TIP3   OH238106   2.165   5.968   0.781  0.1864 -0.5701  0.3326
 5516TIP3    H138107   2.240   5.914   0.753  0.3209 -0.2338  0.0464
 5516TIP3    H238108   2.092   5.934   0.731 -0.1311 -1.7347  1.5081
 5517TIP3   OH238109   2.426   6.340   8.185  0.5291  0.2640 -0.3884
 5517TIP3    H138110   2.425   6.292   8.103  0.8821 -0.7462  0.1840
 5517TIP3    H238111   2.500   6.401   8.177  0.4528  0.2900 -0.8804
 5518TIP3   OH238112   5.874   3.926   7.845 -0.2307  0.5913 -0.1312
 5518TIP3    H138113   5.930   3.972   7.782 -0.5791  0.2422 -0.7127
 5518TIP3    H238114   5.812   3.878   7.790  0.6269 -1.2338  0.4034
 5519TIP3   OH238115   6.650   2.640   7.671 -0.6578  0.4196  0.6131
 5519TIP3    H138116   6.686   2.704   7.610  2.0551 -2.1898 -0.7814
 5519TIP3    H238117   6.663   2.556   7.627 -2.0196 -1.2947  3.2656
 5520TIP3   OH238118   5.500   4.121   7.727  0.7400  0.0200  0.6090
 5520TIP3    H138119   5.495   4.034   7.689 -0.3292 -0.3197  1.4921
 5520TIP3    H238120   5.563   4.113   7.799  0.4099 -0.1024  0.8858
 5521TIP3   OH238121   0.846   6.010   0.454 -0.0567 -0.3225 -0.2164
 5521TIP3    H138122   0.941   6.020   0.442 -0.0388 -1.4505 -1.2824
 5521TIP3    H238123   0.816   6.096   0.482  0.7925  1.1317 -3.3296
 5522TIP3   OH238124   3.438   4.452   7.674 -0.1858 -0.1242  0.5417
 5522TIP3    H138125   3.504   4.486   7.734  0.4189 -0.1169 -0.1084
 5522TIP3    H238126   3.444   4.357   7.683  1.3951 -0.2271 -1.0073
 5523TIP3   OH238127   4.645   0.410   0.235 -0.5168  0.5500 -0.1745
 5523TIP3    H138128   4.711   0.422   0.168 -0.1261  2.6492  0.4994
 5523TIP3    H238129   4.681   0.453   0.313 -2.1118  0.6296  0.5744
 5524TIP3   OH238130   6.692   2.280   7.325  0.1000  0.4616 -0.1279
 5524TIP3    H138131   6.753   2.340   7.281 -0.0965  1.3227  0.7602
 5524TIP3    H238132   6.741   2.197   7.329  0.2822  0.4583 -1.5706
 5525TIP3   OH238133   5.450   0.854   6.998  0.0323 -0.4925 -0.6106
 5525TIP3    H138134   5.453   0.829   6.905  1.4061 -1.1062 -0.4220
 5525TIP3    H238135   5.386   0.795   7.037  0.9080 -1.5804 -0.7964
 5526TIP3   OH238136   0.303   3.812   7.017  0.1626  0.3900  0.0592
 5526TIP3    H138137   0.379   3.826   6.961  0.4635  1.8752  0.7780
 5526TIP3    H238138   0.228   3.812   6.958  0.7230 -1.5706 -0.7159
 5527TIP3   OH238139   1.750   5.274   1.864  0.3926 -0.5450 -0.2098
 5527TIP3    H138140   1.790   5.321   1.790  0.0495 -1.2142 -0.8326
 5527TIP3    H238141   1.717   5.193   1.825 -0.4907 -0.5498  0.5399
 5528TIP3   OH238142   4.151   4.429   8.525  0.1536 -0.0407 -0.3798
 5528TIP3    H138143   4.100   4.495   8.477  2.4061  1.3345 -1.0472
 5528TIP3    H238144   4.166   4.469   8.610 -0.7679 -0.9316  0.2287
 5529TIP3   OH238145   2.267   4.248   0.372  0.2533 -0.0272  0.0025
 5529TIP3    H138146   2.176   4.219   0.386  0.5555 -0.5840  0.9273
 5529TIP3    H238147   2.271   4.269   0.279 -0.4578 -1.3371 -0.3644
 5530TIP3   OH238148   0.468   5.894   1.964  0.2376 -0.1717 -0.2654
 5530TIP3    H138149   0.456   5.934   1.878  0.6657  2.0029  0.6200
 5530TIP3    H238150   0.385   5.851   1.982  0.3240 -1.1317 -1.9752
 5531TIP3   OH238151   0.508   6.368   6.484 -0.0559  0.2450  0.0749
 5531TIP3    H138152   0.574   6.312   6.524 -0.3915  0.3491  0.7845
 5531TIP3    H238153   0.441   6.379   6.551  0.6439  2.6041  0.4875
 5532TIP3   OH238154   0.468   6.296   8.717 -0.9394  0.2775  0.2181
 5532TIP3    H138155   0.453   6.233   8.788  1.0546 -2.8067 -1.8305
 5532TIP3    H238156   0.546   6.344   8.744 -1.4019  0.5949  1.0108
 5533TIP3   OH238157   3.905   6.022   0.449  0.1847  0.0029 -0.2468
 5533TIP3    H138158   3.928   6.014   0.541  0.6031  0.0393 -0.3457
 5533TIP3    H238159   3.931   6.111   0.425  1.4868 -0.4809 -0.7744
 5534TIP3   OH238160   1.288   0.705   2.228 -0.7534 -0.1919  0.2061
 5534TIP3    H138161   1.284   0.769   2.299  0.9292 -0.0058  0.1723
 5534TIP3    H238162   1.313   0.623   2.270 -0.9670 -0.3648 -0.0027
 5535TIP3   OH238163   5.219   1.595   8.368 -0.6702  0.4400 -0.1799
 5535TIP3    H138164   5.218   1.620   8.276 -2.1506  1.1418 -0.0037
 5535TIP3    H238165   5.223   1.499   8.367 -2.3034  0.3577 -1.0254
 5536TIP3   OH238166   0.321   5.394   8.590 -0.5503  0.3662  0.0189
 5536TIP3    H138167   0.298   5.326   8.653 -0.0376 -0.1768 -0.3663
 5536TIP3    H238168   0.367   5.347   8.520 -1.7847  0.8377 -1.1387
 5537TIP3   OH238169   4.569   5.248   0.789 -0.2089 -0.2150 -0.6881
 5537TIP3    H138170   4.569   5.344   0.788 -2.3430 -0.1279 -2.9615
 5537TIP3    H238171   4.477   5.224   0.787  0.1592 -2.4520  2.0663
 5538TIP3   OH238172   6.049   3.903   0.975  0.0216  0.2720 -0.1251
 5538TIP3    H138173   6.027   3.859   0.893 -1.9534  1.2103 -0.1640
 5538TIP3    H238174   6.046   3.834   1.041  0.5452 -0.2910 -0.6827
 5539TIP3   OH238175   0.652   6.210   0.125  0.1153 -0.0987 -0.2085
 5539TIP3    H138176   0.666   6.290   0.176 -2.2182  0.1346  0.1544
 5539TIP3    H238177   0.721   6.150   0.156  0.8637  1.1923  0.7205
 5540TIP3   OH238178   0.800   0.647   1.394 -0.3831  0.0330 -0.3030
 5540TIP3    H138179   0.762   0.561   1.378 -0.0226  0.2937 -2.9355
 5540TIP3    H238180   0.725   0.704   1.410 -0.7753 -0.3327 -0.8226
 5541TIP3   OH238181   2.987   0.059   7.758  0.2324 -0.1492 -0.4255
 5541TIP3    H138182   2.936   0.077   7.837 -0.3879  0.0155 -0.8519
 5541TIP3    H238183   2.983  -0.036   7.747 -0.6402 -0.0720 -0.8727
 5542TIP3   OH238184   0.794   3.104   2.159  0.4441  0.7177 -0.1380
 5542TIP3    H138185   0.876   3.074   2.120  0.7646  0.1526  0.9452
 5542TIP3    H238186   0.747   3.024   2.181 -0.3930  1.0349 -0.6940
 5543TIP3   OH238187   4.219   0.306   8.474  0.7608  0.3288  0.0404
 5543TIP3    H138188   4.296   0.328   8.421  1.1460  0.2587  0.5632
 5543TIP3    H238189   4.156   0.271   8.411  0.6889  1.5425 -0.5833
 5544TIP3   OH238190   3.089   4.217   8.340 -0.3491 -0.1962 -0.0167
 5544TIP3    H138191   2.998   4.188   8.351  0.2480 -2.3557 -0.2854
 5544TIP3    H238192   3.126   4.214   8.428 -0.2596 -0.3570 -0.0595
 5545TIP3   OH238193   1.649   4.218   1.390 -0.3852 -0.9860 -0.0895
 5545TIP3    H138194   1.639   4.137   1.441  1.8568 -0.3279  1.5685
 5545TIP3    H238195   1.721   4.264   1.433 -1.9319  2.1987 -0.6109
 5546TIP3   OH238196   2.505   5.158   8.343 -0.1652 -0.3786 -0.1455
 5546TIP3    H138197   2.413   5.147   8.365 -0.6945  1.5597 -1.1711
 5546TIP3    H238198   2.527   5.080   8.292 -1.4682 -0.5129 -0.5428
 5547TIP3   OH238199   4.967   0.054   7.513 -0.5968 -0.4522  0.7065
 5547TIP3    H138200   5.049   0.022   7.474 -0.6916  1.4099 -1.1922
 5547TIP3    H238201   4.992   0.083   7.601  0.3987 -1.4880  0.7878
 5548TIP3   OH238202   2.182   3.486   6.431 -0.7071 -0.4238  0.3638
 5548TIP3    H138203   2.162   3.548   6.501  0.7293 -0.4315  0.8193
 5548TIP3    H238204   2.192   3.402   6.476  3.0152  0.0087  0.7223
 5549TIP3   OH238205   4.505   0.364   7.590  0.0247  0.3138 -0.8422
 5549TIP3    H138206   4.544   0.283   7.556  0.4657  0.5835 -0.9878
 5549TIP3    H238207   4.578   0.412   7.628 -0.3731  0.2728 -0.0051
 5550TIP3   OH238208   5.257   6.748   0.672 -0.1167 -0.2681 -0.2850
 5550TIP3    H138209   5.311   6.790   0.739  0.5229 -1.8283  0.2313
 5550TIP3    H238210   5.172   6.791   0.680 -0.0605 -0.4017  1.5637
 5551TIP3   OH238211   2.915   1.313   0.079  0.0754  0.0004  0.3261
 5551TIP3    H138212   2.934   1.403   0.050 -1.1377  0.3784  0.6329
 5551TIP3    H238213   2.931   1.315   0.173 -1.2852  0.3084  0.5802
 5552TIP3   OH238214   0.546   1.660   2.065 -0.1954 -0.1917 -0.4788
 5552TIP3    H138215   0.601   1.599   2.114  1.4235  0.0247 -1.9147
 5552TIP3    H238216   0.542   1.739   2.119  2.0906  0.2801 -0.9120
 5553TIP3   OH238217   3.750   4.459   1.141 -0.3994 -0.3032 -0.4892
 5553TIP3    H138218   3.739   4.496   1.054 -1.7266 -0.5428 -0.4335
 5553TIP3    H238219   3.752   4.364   1.127  3.2320 -0.3455 -0.6594
 5554TIP3   OH238220   5.709   2.017   1.864 -0.0929 -0.5454 -0.1182
 5554TIP3    H138221   5.672   2.105   1.876 -0.7320 -0.6784 -0.9822
 5554TIP3    H238222   5.769   2.006   1.937 -2.6267 -0.7691  2.0918
 5555TIP3   OH238223   3.300   4.110   1.261  0.6404  0.0093  0.0644
 5555TIP3    H138224   3.324   4.021   1.236 -0.2872 -0.0169 -0.8168
 5555TIP3    H238225   3.370   4.165   1.225  2.0031 -0.4481  1.8828
 5556TIP3   OH238226   6.114   4.494   8.192  0.0620 -0.2333 -0.6493
 5556TIP3    H138227   6.037   4.538   8.230  0.9902 -0.5414  1.7478
 5556TIP3    H238228   6.083   4.407   8.170 -0.0494 -0.7976  1.5044
 5557TIP3   OH238229   4.914   5.018   8.301 -0.2614  0.2220 -0.5975
 5557TIP3    H138230   4.944   5.008   8.210  1.6574 -1.7837  0.1519
 5557TIP3    H238231   4.841   4.957   8.309 -0.6318  0.6238 -0.8430
 5558TIP3   OH238232   5.589   5.688   7.964 -0.0757 -0.2519  0.5763
 5558TIP3    H138233   5.658   5.624   7.946  0.1873  0.1834 -0.0102
 5558TIP3    H238234   5.517   5.636   8.000  0.1174 -0.8914  0.0667
 5559TIP3   OH238235   2.212   5.160   1.868  0.6999  0.0985  0.1857
 5559TIP3    H138236   2.190   5.214   1.944  0.8385  1.1053 -0.4712
 5559TIP3    H238237   2.305   5.176   1.853  0.5475  0.3413 -0.5243
 5560TIP3   OH238238   4.567   5.849   0.514  0.1112  0.3926 -0.1845
 5560TIP3    H138239   4.533   5.763   0.536 -1.4773  1.2083  0.7575
 5560TIP3    H238240   4.565   5.851   0.418  3.4761 -1.8002 -0.4689
 5561TIP3   OH238241   4.444   5.730   1.033  0.0410  0.3078 -0.2292
 5561TIP3    H138242   4.526   5.741   0.986 -0.0162  0.7699 -0.2235
 5561TIP3    H238243   4.466   5.742   1.125 -0.2305  1.6589 -0.3124
 5562TIP3   OH238244   1.878   5.847   7.325  0.3472 -0.4291 -0.5731
 5562TIP3    H138245   1.870   5.757   7.295 -1.2761 -0.2788 -0.6452
 5562TIP3    H238246   1.962   5.849   7.371  0.7876 -1.7615 -1.2570
 5563TIP3   OH238247   5.889   2.253   0.654 -0.0376  0.0863 -0.3500
 5563TIP3    H138248   5.835   2.218   0.724 -1.1783  0.7090 -0.8809
 5563TIP3    H238249   5.826   2.272   0.583  1.0367 -0.2722 -1.4282
 5564TIP3   OH238250   4.960   2.716   7.169 -0.3661  0.0529  0.2491
 5564TIP3    H138251   4.930   2.646   7.227 -1.3315  0.3613  0.1340
 5564TIP3    H238252   5.052   2.727   7.191  0.2628 -2.3401 -0.8157
 5565TIP3   OH238253   1.054   5.619   0.474 -0.1181  0.3087  0.1648
 5565TIP3    H138254   1.117   5.549   0.489 -0.5250  0.3570  2.3538
 5565TIP3    H238255   0.981   5.576   0.430  0.9563  0.0525 -1.4589
 5566TIP3   OH238256   4.030   2.555   7.183  0.2323 -0.4825  0.5384
 5566TIP3    H138257   4.083   2.481   7.152  0.3014 -1.3514  2.5618
 5566TIP3    H238258   3.942   2.537   7.149  0.2447 -1.5408  1.0112
 5567TIP3   OH238259   3.830   0.277   7.953 -0.2689 -0.4052 -1.0965
 5567TIP3    H138260   3.851   0.336   8.026 -0.4722  0.3255 -1.6130
 5567TIP3    H238261   3.735   0.276   7.949 -0.2802 -1.1049 -0.8382
 5568TIP3   OH238262   6.346   2.435   0.722  0.4029  0.3031  0.0812
 5568TIP3    H138263   6.293   2.508   0.690 -0.4982 -0.2205  0.3342
 5568TIP3    H238264   6.318   2.360   0.670 -0.6155 -0.4218  1.5821
 5569TIP3   OH238265   0.164   2.572   0.081  0.4471  0.7170 -0.2432
 5569TIP3    H138266   0.133   2.507   0.018 -0.1034  0.1234  0.6100
 5569TIP3    H238267   0.237   2.528   0.126 -0.8911  0.0295  1.4013
 5570TIP3   OH238268   2.744   0.070   6.604 -0.3661 -0.8399 -0.3245
 5570TIP3    H138269   2.747   0.044   6.512 -0.5494 -1.0081 -0.2833
 5570TIP3    H238270   2.656   0.046   6.633 -0.6785  0.1812 -0.3921
 5571TIP3   OH238271   0.626   6.160   8.063 -0.1160 -0.6113 -0.2363
 5571TIP3    H138272   0.592   6.073   8.083 -1.8245  0.0379 -0.1318
 5571TIP3    H238273   0.638   6.202   8.148 -1.6900  0.0910 -0.3294
 5572TIP3   OH238274   5.985   6.010   7.524 -0.4732  0.2547 -0.1835
 5572TIP3    H138275   5.998   5.915   7.530  0.9920  0.5260  1.8910
 5572TIP3    H238276   5.970   6.026   7.430  1.4420 -1.7732 -0.9325
 5573TIP3   OH238277   5.258   2.317   8.042  0.0348  0.3032  0.1253
 5573TIP3    H138278   5.294   2.378   7.977 -0.5966  0.6950  0.1320
 5573TIP3    H238279   5.302   2.340   8.124  0.9858 -0.3253 -0.1823
 5574TIP3   OH238280   1.313   2.611   7.465  0.0736  0.3007  0.6323
 5574TIP3    H138281   1.323   2.516   7.454  1.9176  0.5924 -0.6949
 5574TIP3    H238282   1.228   2.621   7.506 -1.4291 -1.8170 -1.6354
 5575TIP3   OH238283   2.416   3.311   8.613  0.0357  0.6727  0.5510
 5575TIP3    H138284   2.324   3.325   8.637  0.0732  0.8303  0.6059
 5575TIP3    H238285   2.465   3.369   8.671  0.3362 -0.9365  1.9866
 5576TIP3   OH238286   3.418   5.181   1.291 -0.0042 -0.6864 -0.4431
 5576TIP3    H138287   3.502   5.228   1.291 -0.8437  0.9068  0.7200
 5576TIP3    H238288   3.413   5.141   1.378 -0.8483  0.0067 -0.1601
 5577TIP3   OH238289   3.586   5.624   7.005 -0.0046  0.0042  0.2866
 5577TIP3    H138290   3.619   5.579   6.928 -0.9311  0.1045 -0.1761
 5577TIP3    H238291   3.650   5.694   7.021 -0.0932  0.3248 -0.7115
 5578TIP3   OH238292   2.488   5.680   0.436 -0.1503  0.0506 -0.2203
 5578TIP3    H138293   2.487   5.701   0.343  0.3098 -0.0619 -0.2555
 5578TIP3    H238294   2.538   5.751   0.476 -0.5090  0.1984 -0.0335
 5579TIP3   OH238295   1.685   4.484   0.157  0.6530 -0.7618  0.0948
 5579TIP3    H138296   1.669   4.577   0.169  0.0519 -0.2508 -3.6339
 5579TIP3    H238297   1.599   4.443   0.166  0.6302 -0.7330  0.0040
 5580TIP3   OH238298   6.266   3.130   1.485  0.5173  0.2580 -0.3717
 5580TIP3    H138299   6.177   3.152   1.513  1.3711  1.4779  1.5046
 5580TIP3    H238300   6.262   3.036   1.468 -1.2862  0.3996 -1.0134
 5581TIP3   OH238301   6.244   0.176   8.180  0.0213 -0.0404  0.3902
 5581TIP3    H138302   6.320   0.218   8.219 -0.1699 -0.8536  1.6741
 5581TIP3    H238303   6.178   0.175   8.250  0.0934 -2.6732  0.5032
 5582TIP3   OH238304   3.078   5.447   6.866 -0.0360 -0.0823  0.2709
 5582TIP3    H138305   3.029   5.504   6.806  0.5846 -0.3779 -0.5503
 5582TIP3    H238306   3.048   5.359   6.844  0.7822 -0.2634 -0.2014
 5583TIP3   OH238307   1.075   2.312   8.513  0.4210  0.2837  0.4155
 5583TIP3    H138308   1.012   2.366   8.559 -0.7624  0.3735 -1.2144
 5583TIP3    H238309   1.046   2.314   8.422  1.0446 -2.1317  0.1066
 5584TIP3   OH238310   6.637   6.645   7.652 -0.4974  0.6463  0.3677
 5584TIP3    H138311   6.624   6.551   7.642  0.6485  0.4822  0.3297
 5584TIP3    H238312   6.562   6.674   7.704 -0.7691 -0.3126  0.5308
 5585TIP3   OH238313   5.735   0.964   8.705  0.1722 -0.6048  0.7544
 5585TIP3    H138314   5.652   0.950   8.751 -1.1712 -0.4112 -1.4692
 5585TIP3    H238315   5.757   1.056   8.724 -1.1611 -0.0698 -0.1758
 5586TIP3   OH238316   2.009   6.419   8.617  0.2690  0.0945  0.5061
 5586TIP3    H138317   1.987   6.487   8.680 -0.6345 -0.4927  0.8515
 5586TIP3    H238318   2.067   6.461   8.554 -0.6607  1.3221  0.4417
 5587TIP3   OH238319   0.543   6.753   0.973  0.1416 -0.5904  0.2022
 5587TIP3    H138320   0.486   6.815   0.929 -0.9590 -0.6987  1.3958
 5587TIP3    H238321   0.623   6.802   0.993 -0.8076  0.5569  1.3508
 5588TIP3   OH238322   0.733   3.108   1.257  0.3052  0.5102 -0.3162
 5588TIP3    H138323   0.684   3.189   1.242  0.0292  0.0766 -1.9017
 5588TIP3    H238324   0.684   3.064   1.327  1.0492  2.1521  1.3106
 5589TIP3   OH238325   0.846   1.355   7.085 -0.0422  0.2246 -0.2563
 5589TIP3    H138326   0.895   1.355   7.002  0.4746 -0.9072  0.0369
 5589TIP3    H238327   0.766   1.306   7.066 -0.4124  0.8384 -0.3412
 5590TIP3   OH238328   1.070   4.369   7.439 -0.9651  0.0900 -0.7980
 5590TIP3    H138329   0.978   4.351   7.422 -0.7126 -1.8443 -0.3175
 5590TIP3    H238330   1.078   4.367   7.535 -0.3577 -0.1004 -0.8481
 5591TIP3   OH238331   0.453   2.087   6.989 -0.0648  0.0063  0.0147
 5591TIP3    H138332   0.533   2.138   7.004  0.0826  0.3795 -1.7757
 5591TIP3    H238333   0.382   2.150   7.000 -0.1169 -0.2714  1.3778
 5592TIP3   OH238334   6.564   3.947   7.597  0.0910  0.9660  0.1890
 5592TIP3    H138335   6.566   4.012   7.667 -0.5948 -0.0552  1.1929
 5592TIP3    H238336   6.572   3.999   7.517  1.6447  2.1108  1.0133
 5593TIP3   OH238337   2.862   5.362   1.979 -0.2927 -0.2391  0.1930
 5593TIP3    H138338   2.789   5.408   2.020  1.1480  0.7933  1.7089
 5593TIP3    H238339   2.834   5.349   1.888 -2.8368 -0.9806  0.9999
 5594TIP3   OH238340   2.994   3.611   8.270  0.4963  0.1219  0.0274
 5594TIP3    H138341   2.917   3.555   8.282 -0.2488  1.3086  0.9095
 5594TIP3    H238342   2.960   3.700   8.271  1.9253  0.6922  0.9270
 5595TIP3   OH238343   0.637   5.519   6.902 -0.0303  0.0291  0.0271
 5595TIP3    H138344   0.689   5.461   6.957  0.6131  1.2925  0.7905
 5595TIP3    H238345   0.681   5.517   6.817  1.5285  1.3614  0.7605
 5596TIP3   OH238346   1.017   0.880   8.410 -0.0154 -0.0673  0.0180
 5596TIP3    H138347   0.951   0.939   8.374 -1.4635 -1.9856 -0.6522
 5596TIP3    H238348   0.969   0.825   8.472  1.4326 -0.1235  1.1417
 5597TIP3   OH238349   0.093   2.248   8.052  0.1894 -0.0058 -0.0225
 5597TIP3    H138350   0.046   2.212   7.977  0.4159 -2.6978  1.0090
 5597TIP3    H238351   0.043   2.218   8.128  0.3650  2.0476  0.9604
 5598TIP3   OH238352   1.131   2.448   2.307  0.0399  0.3421  0.1596
 5598TIP3    H138353   1.113   2.362   2.271  1.7344  0.5421 -1.3136
 5598TIP3    H238354   1.209   2.435   2.362 -0.2775  0.7641  0.7222
 5599TIP3   OH238355   2.215   2.302   7.023  0.0391  0.0275 -0.1772
 5599TIP3    H138356   2.125   2.275   7.043  0.0871  0.0458  0.0622
 5599TIP3    H238357   2.220   2.299   6.928  0.0439 -0.8204 -0.1548
 5600TIP3   OH238358   2.179   1.538   6.852 -0.2341  0.6215 -0.3512
 5600TIP3    H138359   2.207   1.528   6.761 -0.1041  0.7986 -0.3311
 5600TIP3    H238360   2.105   1.598   6.848 -1.0121 -0.3289 -0.4712
 5601TIP3   OH238361   3.105   2.075   1.886  0.3189 -0.6473  0.7898
 5601TIP3    H138362   3.050   2.103   1.813  0.7471  0.6996  0.9384
 5601TIP3    H238363   3.055   2.008   1.931 -1.9932  1.6593  1.8950
 5602TIP3   OH238364   5.947   1.050   0.326  0.2547  1.1057  0.2216
 5602TIP3    H138365   6.004   0.976   0.344  1.0608  1.9273  1.1198
 5602TIP3    H238366   6.004   1.126   0.328  0.1157  1.5687 -3.8097
 5603TIP3   OH238367   0.451   0.721   7.581  0.0826  0.1102 -0.4757
 5603TIP3    H138368   0.402   0.730   7.663 -0.6881  1.0124 -1.0154
 5603TIP3    H238369   0.385   0.694   7.516  0.6960 -0.6690 -0.7979
 5604TIP3   OH238370   2.975   4.333   8.062  0.6232  0.5568  0.4567
 5604TIP3    H138371   3.059   4.372   8.087 -0.2963  2.3250  0.9293
 5604TIP3    H238372   2.968   4.254   8.116  2.3292 -0.1179 -0.2023
 5605TIP3   OH238373   2.393   1.674   8.243 -0.0877 -0.2990 -0.0868
 5605TIP3    H138374   2.483   1.658   8.270  0.3690  0.3570 -1.1493
 5605TIP3    H238375   2.389   1.769   8.227 -1.9501  0.4052  3.4323
 5606TIP3   OH238376   3.868   3.030   1.741  0.0341  0.0123  0.4014
 5606TIP3    H138377   3.931   3.100   1.726 -0.3267  0.0986 -0.8124
 5606TIP3    H238378   3.860   3.025   1.836  0.3713  1.3360  0.5190
 5607TIP3   OH238379   4.371   0.158   1.366 -0.5745 -0.6795  0.2524
 5607TIP3    H138380   4.420   0.239   1.357  0.2925 -1.1399  0.6523
 5607TIP3    H238381   4.434   0.089   1.345 -2.0964 -1.2093 -3.3287
 5608TIP3   OH238382   5.907   1.110   7.151  0.1418 -0.0824 -0.2440
 5608TIP3    H138383   5.901   1.094   7.057 -1.5241  0.0453 -0.1843
 5608TIP3    H238384   5.832   1.166   7.171  0.3092 -0.3270  1.2037
 5609TIP3   OH238385   6.400   5.924   7.502 -0.0695 -1.0930  0.0313
 5609TIP3    H138386   6.307   5.902   7.511 -0.4909  0.1133 -1.0351
 5609TIP3    H238387   6.446   5.843   7.525 -1.4078 -1.9372 -0.1234
 5610TIP3   OH238388   5.584   2.086   0.337 -0.1527  0.0308 -0.1230
 5610TIP3    H138389   5.525   2.065   0.410 -1.3602 -0.1816 -1.1118
 5610TIP3    H238390   5.545   2.164   0.297  1.2307  0.9276  0.2222
 5611TIP3   OH238391   0.611   2.687   8.330 -0.7145 -0.4814 -0.1133
 5611TIP3    H138392   0.548   2.701   8.259  0.7306  0.6914 -1.2384
 5611TIP3    H238393   0.681   2.637   8.290 -0.8866 -1.7619  1.1164
 5612TIP3   OH238394   4.369   1.147   2.523 -0.0329 -0.1557 -0.3135
 5612TIP3    H138395   4.321   1.215   2.570  0.1964  0.1521 -0.5137
 5612TIP3    H238396   4.461   1.167   2.540  0.0250 -1.5637  1.2314
 5613TIP3   OH238397   5.697   4.168   1.610 -0.5810 -0.4060 -0.3579
 5613TIP3    H138398   5.614   4.144   1.568  0.2591 -3.4120 -0.5505
 5613TIP3    H238399   5.700   4.113   1.689  1.0944 -0.1294 -0.2071
 5614TIP3   OH238400   3.971   6.716   0.458 -0.3574  0.5062  0.1743
 5614TIP3    H138401   3.958   6.644   0.520  1.8914  0.2700  0.4607
 5614TIP3    H238402   3.939   6.793   0.505 -1.5598 -0.1029  0.3834
 5615TIP3   OH238403   3.132   2.652   0.075 -0.2309 -0.3018 -0.8436
 5615TIP3    H138404   3.157   2.740   0.103  1.4403 -0.4048 -1.8785
 5615TIP3    H238405   3.187   2.635  -0.001 -1.1378 -1.9277 -1.1785
 5616TIP3   OH238406   4.469   5.037   7.588 -0.3314 -0.6108  0.0955
 5616TIP3    H138407   4.554   5.063   7.623 -0.3377 -0.3639 -0.0623
 5616TIP3    H238408   4.429   5.119   7.559 -0.2193 -0.8285 -0.7109
 5617TIP3   OH238409   2.419   3.855   0.030 -0.0868  0.6666  0.4494
 5617TIP3    H138410   2.469   3.832  -0.049  1.4705 -1.3042  1.9204
 5617TIP3    H238411   2.335   3.810   0.018  1.2415 -2.2245  1.1831
 5618TIP3   OH238412   5.696   3.270   1.898 -0.6466  0.2849  0.1353
 5618TIP3    H138413   5.661   3.185   1.926  0.4946  0.2304  1.5902
 5618TIP3    H238414   5.646   3.293   1.820 -0.8742 -1.8039 -0.4031
 5619TIP3   OH238415   3.809   5.257   8.205 -0.3147  0.4156 -0.5820
 5619TIP3    H138416   3.811   5.201   8.283 -0.7483  1.0805 -0.0807
 5619TIP3    H238417   3.735   5.223   8.154 -2.4219  2.1952  1.0481
 5620TIP3   OH238418   0.482   4.821   7.105 -0.3657 -0.2186 -0.1372
 5620TIP3    H138419   0.395   4.857   7.120 -0.0673 -0.1860  1.8123
 5620TIP3    H238420   0.476   4.776   7.021 -3.0093 -2.3677  1.0518
 5621TIP3   OH238421   4.305   6.626   1.398 -0.2633  0.1132  0.0907
 5621TIP3    H138422   4.346   6.598   1.480  0.8620 -1.5056 -0.9676
 5621TIP3    H238423   4.374   6.674   1.352 -0.0782 -1.0287 -0.8956
 5622TIP3   OH238424   5.729   2.975   1.658 -0.9490 -0.0328 -0.4727
 5622TIP3    H138425   5.790   3.004   1.590  0.7738  1.5326  1.5955
 5622TIP3    H238426   5.659   2.931   1.610  0.8069 -0.1809 -3.1333
 5623TIP3   OH238427   0.062   5.473   0.307 -0.3652  0.6379 -0.3946
 5623TIP3    H138428   0.029   5.384   0.294  1.4532 -0.9026  3.7078
 5623TIP3    H238429   0.131   5.482   0.242  1.8602 -2.5759  1.2270
 5624TIP3   OH238430   4.838   0.580   7.399 -0.1753  0.0349 -0.0979
 5624TIP3    H138431   4.868   0.489   7.396  1.1302  0.4008  1.1288
 5624TIP3    H238432   4.749   0.574   7.435  0.1792 -0.7265  0.7024
 5625TIP3   OH238433   3.142   5.947   1.532 -0.2506  0.7255 -0.0221
 5625TIP3    H138434   3.130   6.042   1.526 -1.0605  0.6299  0.0045
 5625TIP3    H238435   3.066   5.910   1.487 -0.6498  0.0818  1.1422
 5626TIP3   OH238436   5.797   1.437   0.213  0.1518 -0.1905  0.0851
 5626TIP3    H138437   5.806   1.531   0.229  1.9320 -0.5158  1.2371
 5626TIP3    H238438   5.754   1.403   0.291 -1.0842 -0.2886 -0.6027
 5627TIP3   OH238439   6.027   1.325   1.461  0.1568 -0.0108 -0.3370
 5627TIP3    H138440   6.007   1.412   1.496  1.7904 -0.0978  0.9419
 5627TIP3    H238441   6.064   1.277   1.535  1.1105 -1.1540 -1.4988
 5628TIP3   OH238442   5.053   0.750   7.475 -0.0477 -0.4838  0.0043
 5628TIP3    H138443   5.035   0.843   7.490 -1.0804 -0.4619 -1.2794
 5628TIP3    H238444   4.969   0.707   7.488  0.5922 -1.3732  1.4130
 5629TIP3   OH238445   6.527   5.389   2.165  0.2669  0.2069 -0.3286
 5629TIP3    H138446   6.606   5.434   2.193 -0.3826  0.5798  0.9882
 5629TIP3    H238447   6.477   5.455   2.117 -0.0626  0.5279  0.4293
 5630TIP3   OH238448   4.107   1.303   0.483  1.0905  0.5518  0.4967
 5630TIP3    H138449   4.132   1.383   0.529 -1.5803  1.2791  0.8847
 5630TIP3    H238450   4.046   1.259   0.543  1.3595 -1.0178 -0.3277
 5631TIP3   OH238451   2.917   3.477   1.375 -0.2581 -1.0177 -0.6860
 5631TIP3    H138452   2.862   3.498   1.451  0.0746 -2.4409 -0.0040
 5631TIP3    H238453   2.879   3.527   1.303 -1.0016 -0.1578  0.2755
 5632TIP3   OH238454   1.264   1.878   0.234 -0.8798 -0.2037 -0.2667
 5632TIP3    H138455   1.236   1.904   0.322  0.1219  2.3064 -0.5978
 5632TIP3    H238456   1.358   1.865   0.241 -1.0756 -2.1763 -0.5574
 5633TIP3   OH238457   4.506   4.419   1.728  0.2048  0.1320 -0.9012
 5633TIP3    H138458   4.463   4.484   1.784 -0.5179 -0.7410 -0.4103
 5633TIP3    H238459   4.594   4.454   1.715  0.6077  0.0890  1.2699
 5634TIP3   OH238460   1.928   1.433   0.596  0.0388  0.0517 -0.2198
 5634TIP3    H138461   2.019   1.426   0.624 -0.4308 -1.1923  1.1028
 5634TIP3    H238462   1.927   1.392   0.509  0.5190 -1.1843  0.3276
 5635TIP3   OH238463   1.920   0.203   1.362 -0.1207  0.3779  0.6400
 5635TIP3    H138464   1.993   0.175   1.307 -1.1400 -2.3767  0.5545
 5635TIP3    H238465   1.844   0.203   1.304 -0.6462  0.6558  1.3118
 5636TIP3   OH238466   5.946   6.718   8.724  0.1138 -1.0730  0.1610
 5636TIP3    H138467   5.857   6.687   8.705 -1.4094  2.5677  0.4421
 5636TIP3    H238468   5.955   6.709   8.819 -1.0453  0.8552  0.4988
 5637TIP3   OH238469   0.321   0.245   0.493  0.2100  0.0576  0.0712
 5637TIP3    H138470   0.284   0.221   0.578  0.4151 -0.2789  0.0665
 5637TIP3    H238471   0.414   0.224   0.501  0.0197 -1.1675 -0.6558
 5638TIP3   OH238472   5.530   1.315   1.451 -1.2504  0.0220  0.2463
 5638TIP3    H138473   5.448   1.267   1.464 -0.8835 -0.4774  0.7556
 5638TIP3    H238474   5.594   1.269   1.505 -0.8909  1.1043  0.7799
 5639TIP3   OH238475   3.800   1.495   0.890 -0.2569 -0.2221  0.3646
 5639TIP3    H138476   3.848   1.425   0.934  1.7331  0.8362 -0.0137
 5639TIP3    H238477   3.743   1.449   0.828  0.8709 -1.5282  0.2362
 5640TIP3   OH238478   5.932   0.488   8.615 -0.0555  0.0439 -0.4257
 5640TIP3    H138479   5.976   0.493   8.531 -0.9539 -3.2285 -1.2196
 5640TIP3    H238480   5.902   0.578   8.631  0.3651  0.8407 -3.4341
 5641TIP3   OH238481   2.428   1.088   2.265 -0.0899  0.4341 -0.0667
 5641TIP3    H138482   2.457   1.167   2.312 -3.2544  1.3025  0.6377
 5641TIP3    H238483   2.458   1.016   2.320 -0.0620  1.2843  1.0749
 5642TIP3   OH238484   1.993   4.403   0.863 -0.4254  0.1622 -0.1257
 5642TIP3    H138485   1.967   4.328   0.809 -2.3630 -0.6618  1.7862
 5642TIP3    H238486   2.040   4.461   0.803 -4.4844  0.5091 -3.4235
 5643TIP3   OH238487   6.100   1.333   2.118 -0.4476 -0.4940 -0.2395
 5643TIP3    H138488   6.131   1.243   2.124 -1.7366 -0.8679  2.5988
 5643TIP3    H238489   6.021   1.328   2.063 -1.3448 -1.4061  1.0757
 5644TIP3   OH238490   0.663   6.323   8.303 -0.2615  0.0395 -0.3078
 5644TIP3    H138491   0.695   6.369   8.380 -1.6751  0.3050  0.1445
 5644TIP3    H238492   0.590   6.270   8.335  0.2849 -1.2837 -1.1281
 5645TIP3   OH238493   2.679   5.171   0.681 -0.6026 -0.4285  0.1770
 5645TIP3    H138494   2.601   5.168   0.736 -0.0960  0.2530  0.9520
 5645TIP3    H238495   2.736   5.102   0.716 -0.5326 -0.4071  0.1070
 5646TIP3   OH238496   6.273   0.987   7.366  0.1129  0.1604 -0.6212
 5646TIP3    H138497   6.222   0.913   7.399  0.9436 -0.4784 -0.7596
 5646TIP3    H238498   6.259   0.985   7.271  1.6779 -1.0158 -0.8578
 5647TIP3   OH238499   4.291   4.205   8.508  0.2084 -0.0860 -0.1504
 5647TIP3    H138500   4.239   4.138   8.463 -0.8548 -0.7676  1.9171
 5647TIP3    H238501   4.240   4.285   8.498  0.8833  0.1871 -1.6215
 5648TIP3   OH238502   2.945   1.877   1.511  0.0157  0.0737  0.2168
 5648TIP3    H138503   2.977   1.943   1.573  0.0273  2.2992 -2.0017
 5648TIP3    H238504   2.852   1.897   1.501 -0.2272 -0.9642  0.3175
 5649TIP3   OH238505   1.773   3.083   7.770  0.2795  0.1131  0.0556
 5649TIP3    H138506   1.827   3.029   7.712  1.4157  0.2239  0.9797
 5649TIP3    H238507   1.713   3.128   7.712  0.8593 -0.3901 -0.9560
 5650TIP3   OH238508   3.709   1.886   6.963  0.1420  0.1684 -0.7921
 5650TIP3    H138509   3.734   1.958   6.905  1.0216  0.4783 -0.0573
 5650TIP3    H238510   3.713   1.924   7.051  0.6549 -0.7818 -0.3879
 5651TIP3   OH238511   0.578   0.450   0.731 -0.1809 -0.0632 -0.0102
 5651TIP3    H138512   0.557   0.488   0.645 -1.4997 -0.5281  0.0793
 5651TIP3    H238513   0.514   0.490   0.791  0.5802  0.0830  0.7186
 5652TIP3   OH238514   6.636   0.841   1.611 -0.0700 -0.0472  0.1779
 5652TIP3    H138515   6.697   0.893   1.558 -0.3164 -0.9455 -1.0327
 5652TIP3    H238516   6.567   0.903   1.635  1.1771  0.9416  1.4104
 5653TIP3   OH238517   4.641   4.731   6.799 -0.3343 -0.4653  0.5624
 5653TIP3    H138518   4.734   4.748   6.784 -0.6358  1.5680  0.7036
 5653TIP3    H238519   4.621   4.656   6.742  0.7962  0.7607 -1.6101
 5654TIP3   OH238520   5.619   1.426   6.391 -0.2061 -0.4594  0.3690
 5654TIP3    H138521   5.608   1.516   6.420 -0.3517 -0.8058  1.4343
 5654TIP3    H238522   5.714   1.416   6.381 -0.1836 -0.2173  0.3397
 5655TIP3   OH238523   1.528   0.110   7.395 -0.1892 -0.2291 -0.4733
 5655TIP3    H138524   1.458   0.052   7.424 -1.1820  0.7109 -0.9289
 5655TIP3    H238525   1.488   0.196   7.391  0.6732  0.1386 -1.8484
 5656TIP3   OH238526   2.729   6.054   6.447  0.2396 -0.3542 -0.2351
 5656TIP3    H138527   2.822   6.051   6.469 -0.0830  0.6710  1.4476
 5656TIP3    H238528   2.714   6.142   6.414 -0.3003 -0.1956  0.4063
 5657TIP3   OH238529   5.661   0.843   1.091 -0.2565 -0.6644  0.0339
 5657TIP3    H138530   5.638   0.836   0.998  0.6181  0.2640 -0.2654
 5657TIP3    H238531   5.756   0.827   1.093  0.0738  1.1508  0.5070
 5658TIP3   OH238532   3.031   2.378   6.843  0.4690 -0.2673  0.0578
 5658TIP3    H138533   2.940   2.393   6.820  0.5402  0.6586  0.3504
 5658TIP3    H238534   3.081   2.438   6.787  1.0246 -1.7124 -1.0919
 5659TIP3   OH238535   1.293   2.201   1.172  0.2519  0.7767 -0.1979
 5659TIP3    H138536   1.243   2.177   1.250 -0.2020  1.3425 -0.3097
 5659TIP3    H238537   1.231   2.189   1.100  1.3613 -2.1197 -0.7900
 5660TIP3   OH238538   0.718   2.180   1.469 -0.4104  0.2709 -0.3978
 5660TIP3    H138539   0.773   2.129   1.529 -0.6867 -0.9618 -1.1665
 5660TIP3    H238540   0.654   2.223   1.526 -0.1484 -0.2074  0.2726
 5661TIP3   OH238541   4.974   4.275   0.870 -0.0487 -0.0265  0.3686
 5661TIP3    H138542   5.022   4.338   0.816  0.1129 -1.0046 -0.6640
 5661TIP3    H238543   4.899   4.250   0.816  0.8475 -2.0604 -0.0228
 5662TIP3   OH238544   2.777   0.459   1.008  0.3316 -0.1337 -0.4425
 5662TIP3    H138545   2.755   0.386   0.951 -2.0792  0.1060  0.0434
 5662TIP3    H238546   2.783   0.535   0.950  0.0997 -0.2688 -0.6436
 5663TIP3   OH238547   3.817   0.728   2.166  0.1217  0.3625 -0.2858
 5663TIP3    H138548   3.762   0.806   2.170  2.1240  1.9925 -2.1973
 5663TIP3    H238549   3.878   0.738   2.239  0.2788  0.5162 -0.4372
 5664TIP3   OH238550   1.336   5.374   6.479 -0.5479  0.1235  0.3941
 5664TIP3    H138551   1.274   5.446   6.471 -1.6996 -1.0081 -2.1125
 5664TIP3    H238552   1.384   5.374   6.396  1.5195 -0.2118  1.5218
 5665TIP3   OH238553   5.598   4.829   7.193 -0.2919 -0.3769 -0.3265
 5665TIP3    H138554   5.627   4.920   7.184 -0.5488 -0.3019 -0.3886
 5665TIP3    H238555   5.508   4.835   7.226 -0.2748 -0.6096 -0.2326
 5666TIP3   OH238556   0.036   5.545   0.837 -0.0397 -0.3019  0.0652
 5666TIP3    H138557   0.056   5.539   0.744 -0.8303  2.9894 -0.4480
 5666TIP3    H238558   0.106   5.599   0.873 -1.4107  1.1652  0.6621
 5667TIP3   OH238559   5.937   6.373   7.692 -0.0624  0.5495  0.1752
 5667TIP3    H138560   5.965   6.320   7.617  0.3754  1.7146 -0.4960
 5667TIP3    H238561   5.964   6.321   7.768  0.3524 -0.1938 -0.4592
 5668TIP3   OH238562   5.849   0.029   1.488 -0.6149 -0.3743 -0.3227
 5668TIP3    H138563   5.799   0.013   1.568 -1.0222 -1.7249 -0.8075
 5668TIP3    H238564   5.941   0.030   1.517 -0.8384  1.1490  0.4260
 5669TIP3   OH238565   0.692   3.273   1.796 -0.1072 -0.1290  0.2773
 5669TIP3    H138566   0.744   3.339   1.751  0.5897  0.5963  2.0357
 5669TIP3    H238567   0.638   3.323   1.857 -2.0967 -0.9567 -0.7093
 5670TIP3   OH238568   3.535   0.401   0.684 -0.0393 -0.1155 -0.3742
 5670TIP3    H138569   3.621   0.441   0.698 -0.4411  0.0407  1.9207
 5670TIP3    H238570   3.514   0.358   0.766 -2.2542  0.0252 -0.8077
 5671TIP3   OH238571   3.179   4.365   0.752 -0.7783 -0.3457 -0.3759
 5671TIP3    H138572   3.248   4.304   0.724 -1.6809 -1.2742 -0.6049
 5671TIP3    H238573   3.222   4.419   0.819  0.5534 -0.0191 -1.4537
 5672TIP3   OH238574   0.541   0.292   8.094  0.3295  0.3284  0.2927
 5672TIP3    H138575   0.554   0.361   8.159  0.0311 -0.7416  1.5594
 5672TIP3    H238576   0.604   0.224   8.120 -1.1011 -0.9121  0.6523
 5673TIP3   OH238577   2.915   5.756   1.062  0.0301  0.1958 -0.5298
 5673TIP3    H138578   2.947   5.783   0.976  1.3956  0.8894  0.1658
 5673TIP3    H238579   2.958   5.671   1.077 -0.2199  0.0675 -0.5339
 5674TIP3   OH238580   4.510   6.756   1.243  0.1300  0.0834 -0.5586
 5674TIP3    H138581   4.495   6.782   1.152  0.1032  0.9991 -0.3027
 5674TIP3    H238582   4.545   6.667   1.237 -0.8944 -0.2875 -1.4075
 5675TIP3   OH238583   4.091   2.011   7.881  0.2370 -0.7640  0.2654
 5675TIP3    H138584   4.004   2.049   7.867  0.8215  1.1806  1.5549
 5675TIP3    H238585   4.143   2.042   7.807  0.9153  1.7986  1.6887
 5676TIP3   OH238586   5.598   2.311   7.847 -0.3237 -0.3008 -0.0778
 5676TIP3    H138587   5.659   2.247   7.810  0.7537  1.2828 -1.1930
 5676TIP3    H238588   5.653   2.387   7.867 -2.0099  1.5209 -1.9157
 5677TIP3   OH238589   3.308   5.840   2.568  0.3508  0.6084 -0.1385
 5677TIP3    H138590   3.288   5.908   2.504  1.3674  0.0772 -1.0449
 5677TIP3    H238591   3.290   5.881   2.653  0.3757  1.8055 -0.6898
 5678TIP3   OH238592   6.438   3.929   1.640  0.5339  0.0779 -0.2033
 5678TIP3    H138593   6.452   4.018   1.607  0.1263  0.1235 -0.2617
 5678TIP3    H238594   6.520   3.906   1.683  0.7160  0.4015 -0.3766
 5679TIP3   OH238595   2.909   0.537   1.231 -0.2250 -0.0583 -0.4595
 5679TIP3    H138596   2.832   0.566   1.279 -0.5228 -0.2108 -0.8426
 5679TIP3    H238597   2.875   0.504   1.148  0.4244  1.7363 -1.4815
 5680TIP3   OH238598   1.118   3.342   2.329 -0.3121  0.1255 -0.1460
 5680TIP3    H138599   1.102   3.250   2.350  2.6850 -1.0801 -2.3740
 5680TIP3    H238600   1.195   3.365   2.381  0.6196  0.4617 -1.6243
 5681TIP3   OH238601   2.565   0.222   8.237 -0.2063  0.5414  0.0997
 5681TIP3    H138602   2.523   0.301   8.270  2.4331  1.9602  0.3333
 5681TIP3    H238603   2.584   0.242   8.145  1.3551  0.6341  0.4123
 5682TIP3   OH238604   6.141   0.888   2.559  0.0877  0.3842  0.7363
 5682TIP3    H138605   6.198   0.964   2.570  1.2418 -0.4414  0.6650
 5682TIP3    H238606   6.199   0.812   2.571 -0.5194 -0.5232 -1.5354
 5683TIP3   OH238607   0.027   6.501   0.691  0.1953  0.5074  0.3577
 5683TIP3    H138608  -0.002   6.412   0.670  1.0301  0.1346  0.7362
 5683TIP3    H238609   0.114   6.508   0.650  0.2172  1.0865  0.4958
 5684TIP3   OH238610   3.239   1.456   2.483 -0.4603  0.3524 -0.3698
 5684TIP3    H138611   3.266   1.435   2.572 -3.4231  0.6572  0.7135
 5684TIP3    H238612   3.284   1.392   2.428  2.4868  0.9748  1.1055
 5685TIP3   OH238613   2.968   6.142   8.508 -0.0887 -0.3912 -0.3596
 5685TIP3    H138614   2.923   6.221   8.480  0.3265  0.3301  0.8952
 5685TIP3    H238615   2.986   6.156   8.601 -1.7170 -2.7923  0.4145
 5686TIP3   OH238616   4.069   5.779   6.950 -0.0003 -0.0606  0.6808
 5686TIP3    H138617   4.024   5.857   6.981 -0.1774  0.0429  0.1649
 5686TIP3    H238618   4.161   5.796   6.968  0.1140  0.8544 -0.6586
 5687TIP3   OH238619   3.863   3.185   1.339 -0.2563 -0.0935 -0.0463
 5687TIP3    H138620   3.922   3.259   1.322  1.5555 -1.7144 -1.1925
 5687TIP3    H238621   3.779   3.212   1.301  0.8818  0.6383 -2.1972
 5688TIP3   OH238622   0.906   1.989   1.968 -0.5988  0.2190 -0.2303
 5688TIP3    H138623   0.882   2.072   2.009  1.1418  1.4377 -1.5519
 5688TIP3    H238624   0.963   1.946   2.033  2.1800  2.1537 -1.1872
 5689TIP3   OH238625   0.346   4.794   1.350 -0.3755 -0.2894  0.5237
 5689TIP3    H138626   0.300   4.875   1.329 -0.5652 -0.6702 -0.6052
 5689TIP3    H238627   0.315   4.771   1.438  0.9235  1.7104  1.5964
 5690TIP3   OH238628   4.555   4.418   6.915 -0.6851 -0.0353 -0.8692
 5690TIP3    H138629   4.491   4.348   6.910  0.2309 -0.8890 -0.9237
 5690TIP3    H238630   4.551   4.461   6.829 -0.3187 -0.8600 -1.3015
 5691TIP3   OH238631   4.892   3.021   0.961  0.6315 -0.3990  0.0222
 5691TIP3    H138632   4.903   3.025   1.057 -1.4859 -4.8164  0.7033
 5691TIP3    H238633   4.972   2.977   0.930 -0.2823 -2.4676  0.4175
 5692TIP3   OH238634   3.089   6.014   1.211  0.0444 -0.3119  0.1084
 5692TIP3    H138635   3.135   5.934   1.185  1.0490 -0.4540  2.1220
 5692TIP3    H238636   2.999   5.999   1.181  0.5579 -1.4846 -0.9733
 5693TIP3   OH238637   4.278   4.067   0.962  0.4580  0.4015 -0.2501
 5693TIP3    H138638   4.217   4.017   1.016  0.5218  0.9377  0.3309
 5693TIP3    H238639   4.361   4.065   1.011  0.1160  2.2147  0.5017
 5694TIP3   OH238640   4.271   5.865   0.857 -0.3524 -0.6011 -0.5586
 5694TIP3    H138641   4.317   5.824   0.931  0.2215  2.5149  0.9991
 5694TIP3    H238642   4.337   5.919   0.815 -1.0266 -1.2700 -2.5700
 5695TIP3   OH238643   2.754   6.434   0.896  0.4681 -0.3941 -0.4159
 5695TIP3    H138644   2.704   6.504   0.938 -0.5087 -0.0223 -2.0758
 5695TIP3    H238645   2.692   6.362   0.887  0.4712 -0.2591 -1.6816
 5696TIP3   OH238646   3.209   6.376   0.401 -0.0327 -0.4817 -0.5684
 5696TIP3    H138647   3.258   6.299   0.431 -0.0503 -0.3235 -0.1255
 5696TIP3    H238648   3.192   6.425   0.481 -1.5544 -0.8886 -0.6234
 5697TIP3   OH238649   5.536   4.796   0.742 -0.4045 -0.1319 -0.2241
 5697TIP3    H138650   5.515   4.736   0.670 -3.9848 -0.6946  1.0880
 5697TIP3    H238651   5.550   4.738   0.817 -0.2829  0.5617  0.2877
 5698TIP3   OH238652   3.055   3.583   1.668  0.0758 -0.0982  0.0438
 5698TIP3    H138653   2.987   3.543   1.721  1.5623 -1.5423  0.9504
 5698TIP3    H238654   3.080   3.515   1.605  2.2053 -0.4505  1.1909
 5699TIP3   OH238655   3.905   4.551   0.257 -0.4386  0.4995  0.3286
 5699TIP3    H138656   3.953   4.531   0.177 -0.5745 -1.0945  0.6170
 5699TIP3    H238657   3.971   4.586   0.316  0.0213  0.0111  0.1133
 5700TIP3   OH238658   2.966   1.420   2.409 -0.1692  0.0775 -0.2681
 5700TIP3    H138659   3.036   1.463   2.457  0.1941  0.5048 -1.1533
 5700TIP3    H238660   3.007   1.342   2.370  0.2079  1.0366 -1.9100
 5701TIP3   OH238661   3.866   1.697   8.655 -0.0474 -0.7617 -0.4732
 5701TIP3    H138662   3.953   1.659   8.644 -0.6041 -1.6243 -2.3522
 5701TIP3    H238663   3.836   1.713   8.565 -2.0254 -0.9700  0.1075
 5702TIP3   OH238664   6.771   1.089   2.442 -0.1269  0.2146 -0.3097
 5702TIP3    H138665   6.802   1.036   2.368 -1.1537 -0.0303 -0.5835
 5702TIP3    H238666   6.706   1.033   2.485  1.3396 -0.1581  1.5524
 5703TIP3   OH238667   1.097   1.677   8.623 -0.4713  0.0086  0.1932
 5703TIP3    H138668   1.063   1.766   8.622 -0.8653 -0.0862  1.7045
 5703TIP3    H238669   1.061   1.636   8.545 -2.8409  0.3098  1.0521
 5704TIP3   OH238670   5.532   3.396   0.092  0.0390  0.4065 -0.1248
 5704TIP3    H138671   5.524   3.307   0.126 -1.9191 -0.0491 -1.6302
 5704TIP3    H238672   5.487   3.451   0.157  0.5161  0.2057  0.3842
 5705TIP3   OH238673   3.331   0.815   6.962  0.5522  0.0053  0.4372
 5705TIP3    H138674   3.312   0.796   7.054  0.8311 -0.0190  0.4909
 5705TIP3    H238675   3.304   0.905   6.950  0.5151  0.0086  0.5435
 5706TIP3   OH238676   5.766   3.153   0.787 -0.2331 -0.0489 -0.0975
 5706TIP3    H138677   5.839   3.106   0.747  0.2033  0.6224 -0.1025
 5706TIP3    H238678   5.688   3.116   0.745  0.0667 -1.1083  0.2595
 5707TIP3   OH238679   4.044   4.837   7.269 -0.2317 -1.1247  0.4250
 5707TIP3    H138680   4.107   4.873   7.207 -1.4374 -0.6494 -0.5661
 5707TIP3    H238681   4.061   4.743   7.270 -1.0625 -1.3514 -1.7060
 5708TIP3   OH238682   4.149   0.356   7.322  0.0120 -0.4083  0.0519
 5708TIP3    H138683   4.172   0.422   7.387  1.3060 -1.5136  0.7822
 5708TIP3    H238684   4.217   0.364   7.254  0.6937 -1.4923  0.5637
 5709TIP3   OH238685   1.725   1.190   7.753  0.3881  0.3757 -0.2200
 5709TIP3    H138686   1.778   1.123   7.709  0.3236  0.4377 -0.3948
 5709TIP3    H238687   1.723   1.263   7.691  1.4329  0.9985  0.4463
 5710TIP3   OH238688   4.949   3.377   6.517 -0.2782 -0.3758 -0.5623
 5710TIP3    H138689   4.916   3.342   6.434  0.2687  2.8837 -2.3285
 5710TIP3    H238690   4.870   3.394   6.569 -0.8679  0.1625 -1.5981
 5711TIP3   OH238691   4.016   2.024   0.852 -0.0587 -0.2515  0.2824
 5711TIP3    H138692   4.058   2.110   0.863 -2.0917  0.6180  2.0796
 5711TIP3    H238693   3.928   2.037   0.887 -1.1441 -2.5317 -1.4119
 5712TIP3   OH238694   6.480   3.518   7.713  0.4834  0.1344  0.1968
 5712TIP3    H138695   6.414   3.499   7.646 -0.6965  0.1888  1.3152
 5712TIP3    H238696   6.519   3.432   7.732 -1.5381 -0.5021  1.8238
 5713TIP3   OH238697   6.688   6.172   0.004 -0.2905  0.3865 -0.1719
 5713TIP3    H138698   6.608   6.212   0.039 -0.9768 -0.6788 -0.4797
 5713TIP3    H238699   6.667   6.079  -0.003  1.1363  0.0226  0.1560
 5714TIP3   OH238700   4.610   4.741   0.774 -0.4091 -0.1429  0.0450
 5714TIP3    H138701   4.515   4.745   0.761 -0.5873  0.0082  1.3138
 5714TIP3    H238702   4.646   4.770   0.690 -1.4666 -0.7929 -0.6652
 5715TIP3   OH238703   4.919   2.670   1.016  0.3124 -0.3912 -0.4484
 5715TIP3    H138704   4.953   2.585   0.990 -0.5607 -0.3942 -1.6506
 5715TIP3    H238705   4.973   2.733   0.969  1.5084 -0.2113  1.0821
 5716TIP3   OH238706   2.281   5.117   8.036 -0.7528  0.2817  0.7055
 5716TIP3    H138707   2.195   5.106   7.996 -0.0435  1.1794 -1.1555
 5716TIP3    H238708   2.318   5.028   8.037 -1.0048  0.1605 -0.1341
 5717TIP3   OH238709   5.417   1.293   0.367  0.3530 -0.3331 -0.4490
 5717TIP3    H138710   5.506   1.322   0.390  0.2204 -0.8745  0.8620
 5717TIP3    H238711   5.361   1.362   0.403  0.2433  0.2467 -1.6884
 5718TIP3   OH238712   1.001   4.792   0.054  0.2507  0.3325  0.0247
 5718TIP3    H138713   1.002   4.884   0.081  2.1474  0.2423  0.3937
 5718TIP3    H238714   0.991   4.744   0.136 -0.6512  0.1741 -0.1610
 5719TIP3   OH238715   0.617   2.873   6.748  0.2856  0.3129  0.1523
 5719TIP3    H138716   0.631   2.911   6.661 -0.6062 -0.9989 -0.6065
 5719TIP3    H238717   0.576   2.944   6.798 -1.4799  0.3890 -1.2645
 5720TIP3   OH238718   0.815   2.954   8.382  0.0776 -0.5280  0.0929
 5720TIP3    H138719   0.853   2.936   8.468 -0.0444  1.3440  0.5961
 5720TIP3    H238720   0.880   3.010   8.340 -1.5721  1.9395  0.5959
 5721TIP3   OH238721   2.523   4.867   8.343 -0.3191 -0.0013  0.1375
 5721TIP3    H138722   2.455   4.856   8.410 -0.5097  0.1247 -0.0349
 5721TIP3    H238723   2.506   4.797   8.280 -0.2993  0.0392  0.0872
 5722TIP3   OH238724   0.173   2.184   7.517  0.1733 -0.2631  0.0082
 5722TIP3    H138725   0.097   2.141   7.479  1.7194 -1.4403 -2.0414
 5722TIP3    H238726   0.139   2.264   7.556 -2.0927 -0.7570 -0.8029
 5723TIP3   OH238727   4.419   4.259   8.137 -0.1259  0.2992 -0.3887
 5723TIP3    H138728   4.404   4.321   8.209  0.9135 -0.4727  0.5329
 5723TIP3    H238729   4.457   4.182   8.180  1.6892  0.2846 -1.9036
 5724TIP3   OH238730   5.542   4.763   8.177  0.1760 -0.7081 -0.1940
 5724TIP3    H138731   5.578   4.827   8.238 -2.1814  0.7692 -0.1983
 5724TIP3    H238732   5.497   4.817   8.111 -0.7004 -2.3548 -0.9949
 5725TIP3   OH238733   3.615   5.414   7.922 -0.0776  0.4452  0.1799
 5725TIP3    H138734   3.643   5.497   7.961 -3.0198  2.1336 -0.9423
 5725TIP3    H238735   3.578   5.365   7.995 -2.8841  2.3394  0.1744
 5726TIP3   OH238736   3.442   1.717   8.690  0.1245 -0.2477 -0.4503
 5726TIP3    H138737   3.487   1.632   8.685  1.1833  0.0369  2.5506
 5726TIP3    H238738   3.354   1.695   8.719 -0.2812 -0.4483 -1.7813
 5727TIP3   OH238739   0.518   1.128   6.503  0.1733  0.2301 -0.3359
 5727TIP3    H138740   0.561   1.164   6.580  0.5841  3.1474 -1.7729
 5727TIP3    H238741   0.455   1.195   6.478 -1.8883 -1.8425 -1.0434
 5728TIP3   OH238742   6.099   0.395   7.223 -0.0662  0.1258 -0.1757
 5728TIP3    H138743   6.019   0.343   7.227  0.0983 -0.0740  2.4714
 5728TIP3    H238744   6.071   0.485   7.239  0.0608  0.2871 -0.8623
 5729TIP3   OH238745   3.004   0.312   8.802  0.2820  0.5627 -0.0333
 5729TIP3    H138746   3.083   0.351   8.764  0.5520  0.0606 -0.0046
 5729TIP3    H238747   2.932   0.347   8.750  0.5908  0.4334 -0.5527
 5730TIP3   OH238748   6.161   0.446   1.627 -0.3579  0.6962  0.1596
 5730TIP3    H138749   6.247   0.405   1.629 -0.6963 -0.0283  1.7244
 5730TIP3    H238750   6.122   0.422   1.711 -1.8962  1.4145 -0.3222
 5731TIP3   OH238751   4.323   3.722   0.276  0.6038 -0.5289  0.0955
 5731TIP3    H138752   4.365   3.765   0.351  0.3599  1.4721 -0.8516
 5731TIP3    H238753   4.397   3.693   0.222  0.7700 -0.5594  0.3343
 5732TIP3   OH238754   5.511   3.923   8.741  0.4576 -0.2891  0.1943
 5732TIP3    H138755   5.451   3.939   8.669  1.0085  0.8547 -0.0232
 5732TIP3    H238756   5.518   4.007   8.786 -1.2498 -1.3693  2.6760
 5733TIP3   OH238757   5.144   2.570   6.953  0.0060 -0.2838 -0.1431
 5733TIP3    H138758   5.136   2.475   6.957  1.1143 -0.3612  2.4114
 5733TIP3    H238759   5.089   2.602   7.025 -2.1477  1.2404 -2.3209
 5734TIP3   OH238760   1.991   2.457   1.325  0.4335  0.7337  0.7877
 5734TIP3    H138761   1.967   2.481   1.414 -1.5494  1.9647 -0.0277
 5734TIP3    H238762   1.927   2.390   1.300  1.0218  0.3435  0.2942
 5735TIP3   OH238763   4.354   0.327   8.249  0.2560  0.2397  0.2468
 5735TIP3    H138764   4.442   0.306   8.219  0.6240 -0.9925  2.0437
 5735TIP3    H238765   4.307   0.355   8.169  1.5191 -1.5588 -1.1939
 5736TIP3   OH238766   6.612   4.561   7.719 -0.3332 -0.1373  0.1517
 5736TIP3    H138767   6.595   4.494   7.786 -0.5953 -0.5058 -0.2827
 5736TIP3    H238768   6.564   4.638   7.751 -1.5777 -0.7132 -0.2824
 5737TIP3   OH238769   6.194   4.832   8.138 -0.0217 -0.0034 -0.1081
 5737TIP3    H138770   6.252   4.783   8.195  1.0348  0.6055 -0.6348
 5737TIP3    H238771   6.244   4.845   8.057 -1.5322 -0.9751 -1.2436
 5738TIP3   OH238772   3.837   6.321   6.976  0.4196 -0.8102  0.2604
 5738TIP3    H138773   3.763   6.303   6.918  0.3391 -1.6547  0.6113
 5738TIP3    H238774   3.868   6.235   7.003  1.9938 -0.4951 -0.4399
 5739TIP3   OH238775   6.359   3.913   1.141 -0.2344 -0.2702  0.2793
 5739TIP3    H138776   6.277   3.887   1.185  0.1629 -0.8485  0.6984
 5739TIP3    H238777   6.369   4.005   1.163  0.2494 -0.6749  1.9449
 5740TIP3   OH238778   1.080   4.109   7.161 -0.0889  0.1134  0.3564
 5740TIP3    H138779   1.047   4.039   7.217 -1.4997  0.3744 -0.0904
 5740TIP3    H238780   1.148   4.151   7.213  1.0850 -1.8098  0.4772
 5741TIP3   OH238781   4.819   6.563   0.114  0.1796  0.0777 -0.5147
 5741TIP3    H138782   4.914   6.571   0.104  0.2005 -0.6177 -1.0281
 5741TIP3    H238783   4.804   6.468   0.117 -0.2922  0.1765  1.8683
 5742TIP3   OH238784   1.264   3.472   6.459 -0.5566  0.2363  0.5356
 5742TIP3    H138785   1.247   3.566   6.460 -3.0347 -0.1238 -0.4545
 5742TIP3    H238786   1.318   3.458   6.382  0.9688  0.9638  1.4298
 5743TIP3   OH238787   5.954   0.178   1.115 -0.0506  0.2970 -0.1850
 5743TIP3    H138788   5.975   0.129   1.195  0.2964  2.4259  1.1026
 5743TIP3    H238789   5.882   0.129   1.076 -0.8312 -0.3498  1.9069
 5744TIP3   OH238790   1.637   5.066   1.747  0.9370 -0.1661  0.2615
 5744TIP3    H138791   1.614   5.101   1.661  1.3567  0.8248  0.5405
 5744TIP3    H238792   1.655   4.973   1.731  0.7262 -0.0559 -0.6649
 5745TIP3   OH238793   0.671   4.597   0.221  0.8819  0.0196  0.3865
 5745TIP3    H138794   0.709   4.558   0.143 -0.5705  2.3174 -1.6230
 5745TIP3    H238795   0.730   4.670   0.242 -0.8960  2.0131 -1.2040
 5746TIP3   OH238796   4.870   5.410   1.579 -0.0536 -0.2056 -0.6764
 5746TIP3    H138797   4.775   5.422   1.583  0.0701  0.6139  0.3043
 5746TIP3    H238798   4.901   5.481   1.522  0.2417  1.5645  1.5465
 5747TIP3   OH238799   2.771   2.273   8.184 -0.1963 -0.4095 -0.0659
 5747TIP3    H138800   2.761   2.343   8.119 -0.5972  0.1865  0.6315
 5747TIP3    H238801   2.847   2.298   8.236  0.1101 -0.8776 -0.2750
 5748TIP3   OH238802   4.266   3.405   0.680  0.0873 -0.2199 -0.2751
 5748TIP3    H138803   4.360   3.419   0.674  0.0582 -0.2169 -0.7745
 5748TIP3    H238804   4.253   3.368   0.768  0.3450  1.3132  0.4407
 5749TIP3   OH238805   6.014   0.354   8.846  0.5365  0.1176 -0.2662
 5749TIP3    H138806   6.085   0.385   8.790  0.4839  0.2275 -0.2732
 5749TIP3    H238807   5.940   0.342   8.786  0.5331  0.0566 -0.2500
 5750TIP3   OH238808   3.116   1.733   1.848  0.0342  0.3140  0.4630
 5750TIP3    H138809   3.039   1.686   1.815  0.5577 -0.2452 -0.0001
 5750TIP3    H238810   3.081   1.800   1.906 -0.6955 -1.2189  1.8679
 5751TIP3   OH238811   0.981   4.552   8.393  0.4850  0.1173 -0.1560
 5751TIP3    H138812   0.940   4.554   8.480 -0.5158 -0.1773 -0.6118
 5751TIP3    H238813   0.914   4.515   8.335  0.9252  0.8756 -1.1765
 5752TIP3   OH238814   4.427   0.191   6.786  0.2810 -0.0777  0.0299
 5752TIP3    H138815   4.413   0.263   6.848 -0.5691 -0.8475  0.7740
 5752TIP3    H238816   4.342   0.181   6.742 -0.4849 -2.2737  1.7858
 5753TIP3   OH238817   1.510   2.857   7.295 -0.3357  0.1182 -0.0822
 5753TIP3    H138818   1.485   2.949   7.287 -0.3136  0.1192 -0.1356
 5753TIP3    H238819   1.593   2.850   7.247  0.8335  0.5618  1.7361
 5754TIP3   OH238820   3.072   0.297   0.241 -0.1013 -0.3062  0.5195
 5754TIP3    H138821   3.019   0.346   0.178  0.6048  0.6776  0.6767
 5754TIP3    H238822   3.045   0.330   0.326 -0.3311 -0.9147  0.6891
 5755TIP3   OH238823   0.761   4.082   2.341 -0.2968  0.0829 -0.6077
 5755TIP3    H138824   0.672   4.057   2.315 -0.6965 -2.9940  2.7672
 5755TIP3    H238825   0.748   4.157   2.399 -0.9597 -1.1113  0.8677
 5756TIP3   OH238826   3.528   5.172   0.070 -0.2330  0.1783 -0.2496
 5756TIP3    H138827   3.476   5.221   0.007 -0.7463  0.4059  0.3400
 5756TIP3    H238828   3.530   5.083   0.036 -0.2203  0.3732 -0.7594
 5757TIP3   OH238829   0.039   3.956   7.129 -0.4580 -0.0440 -0.3672
 5757TIP3    H138830   0.094   4.008   7.071 -1.5578  2.1398  0.4407
 5757TIP3    H238831  -0.027   3.917   7.072  0.6645 -1.0015 -1.0510
 5758TIP3   OH238832   2.540   4.207   2.140 -0.1369  0.2704  0.1178
 5758TIP3    H138833   2.467   4.258   2.177  0.3982  1.0546  0.1172
 5758TIP3    H238834   2.516   4.116   2.155 -2.5915  0.3426 -2.4993
 5759TIP3   OH238835   2.610   3.360   0.501 -0.5045 -0.5689  0.2577
 5759TIP3    H138836   2.607   3.405   0.585 -0.3817  1.7138 -0.8548
 5759TIP3    H238837   2.668   3.414   0.447 -1.5579 -1.2311 -1.6561
 5760TIP3   OH238838   4.552   0.380   1.359 -0.3786 -0.4475 -0.2738
 5760TIP3    H138839   4.637   0.342   1.337 -0.7979  0.0505 -3.1950
 5760TIP3    H238840   4.572   0.466   1.396  0.4023 -1.1652  1.0265
 5761TIP3   OH238841   0.501   2.637   7.891 -0.1902 -0.3191 -0.0037
 5761TIP3    H138842   0.517   2.543   7.876  0.7503 -0.0623 -0.7418
 5761TIP3    H238843   0.489   2.673   7.804 -0.1868  0.3037  0.2526
 5762TIP3   OH238844   1.005   4.639   7.482  0.2342  0.0714  0.0041
 5762TIP3    H138845   1.067   4.653   7.410 -0.9760  0.2509 -1.0359
 5762TIP3    H238846   1.031   4.554   7.519  0.1595 -0.6118 -1.4246
 5763TIP3   OH238847   1.679   4.991   8.480 -0.1502 -0.2753  0.4056
 5763TIP3    H138848   1.628   5.069   8.459  0.0541 -0.9430 -3.2431
 5763TIP3    H238849   1.617   4.919   8.472  0.5323 -0.7937 -0.2933
 5764TIP3   OH238850   2.744   2.693   0.860  0.2863  0.1080  0.0402
 5764TIP3    H138851   2.804   2.624   0.833  1.5010  1.3548 -0.5461
 5764TIP3    H238852   2.801   2.768   0.880 -0.8320  0.3707  2.5564
 5765TIP3   OH238853   3.079   5.534   8.303  0.2672 -0.2545 -0.3813
 5765TIP3    H138854   3.130   5.453   8.301 -0.0439 -0.4519 -0.2683
 5765TIP3    H238855   3.037   5.534   8.389  1.2679  0.6428  0.1268
 5766TIP3   OH238856   5.580   4.257   0.304  0.6745 -0.2704 -0.6093
 5766TIP3    H138857   5.632   4.196   0.356 -0.8388 -1.5374 -0.4948
 5766TIP3    H238858   5.518   4.201   0.256  0.3837  1.0602 -1.8564
 5767TIP3   OH238859   1.912   4.037   8.286  0.1035  0.1252 -0.5264
 5767TIP3    H138860   1.891   3.944   8.289  0.6717 -0.0021 -0.2710
 5767TIP3    H238861   2.007   4.040   8.271 -0.1496  0.6672 -2.4105
 5768TIP3   OH238862   3.559   1.587   0.486 -0.2206  0.0782 -0.4553
 5768TIP3    H138863   3.624   1.655   0.467  0.5103 -0.8611 -1.4092
 5768TIP3    H238864   3.586   1.513   0.432 -1.6103 -0.6162 -0.2222
 5769TIP3   OH238865   1.485   3.843   8.561  0.7472 -0.5665  0.0034
 5769TIP3    H138866   1.528   3.871   8.481  0.6238 -0.0081  0.1242
 5769TIP3    H238867   1.539   3.772   8.595  1.1328 -0.3956 -0.2561
 5770TIP3   OH238868   3.036   2.012   7.934  0.9183 -0.3982  0.3856
 5770TIP3    H138869   3.081   2.093   7.910 -0.1231  0.5474  1.5398
 5770TIP3    H238870   3.059   1.950   7.864  0.5058  1.3307 -1.3561
 5771TIP3   OH238871   6.052   2.298   7.756  0.1955 -0.3536 -0.2211
 5771TIP3    H138872   6.100   2.379   7.775 -2.2347  1.7462 -2.2792
 5771TIP3    H238873   6.011   2.275   7.840  0.0013  1.2467  0.1645
 5772TIP3   OH238874   0.434   0.046   2.771  0.5230 -0.5237  0.0668
 5772TIP3    H138875   0.390  -0.027   2.729  0.9635 -1.2863  0.8834
 5772TIP3    H238876   0.429   0.118   2.708 -1.3746 -0.7382 -0.0845
 5773TIP3   OH238877   4.880   3.763   8.372  0.0082  0.3887  0.0235
 5773TIP3    H138878   4.877   3.670   8.350 -0.7456  0.6202 -0.9433
 5773TIP3    H238879   4.794   3.783   8.407 -0.8889  1.2987 -2.4410
 5774TIP3   OH238880   2.647   1.180   8.643  0.0262 -0.6940 -0.4440
 5774TIP3    H138881   2.664   1.086   8.632 -2.1835 -1.1985  0.0269
 5774TIP3    H238882   2.565   1.184   8.692 -1.4880  1.4723 -2.9001
 5775TIP3   OH238883   0.234   6.468   1.571 -0.1444  0.7807  0.2226
 5775TIP3    H138884   0.283   6.470   1.489 -0.4753 -1.1957 -0.0607
 5775TIP3    H238885   0.142   6.468   1.544 -0.2599  0.3785  0.6088
 5776TIP3   OH238886   2.492   1.062   8.383  0.1893 -0.6788  0.2064
 5776TIP3    H138887   2.513   0.974   8.351  1.8071 -0.0323 -0.6472
 5776TIP3    H238888   2.577   1.105   8.392 -0.5492  0.7038  0.9348
 5777TIP3   OH238889   1.846   5.440   7.025  0.0112 -0.1587 -0.0884
 5777TIP3    H138890   1.797   5.508   6.979  1.4592  0.6481 -0.4783
 5777TIP3    H238891   1.860   5.372   6.959  0.8067  0.3420 -0.4531
 5778TIP3   OH238892   3.196   0.891   0.114  0.3811 -0.0502 -0.3053
 5778TIP3    H138893   3.165   0.976   0.148  0.3672  0.1612 -0.8391
 5778TIP3    H238894   3.125   0.830   0.133  0.3411  0.0813 -0.0251
 5779TIP3   OH238895   5.940   2.899   0.842 -0.1368  0.3341  0.8002
 5779TIP3    H138896   5.897   2.867   0.922 -0.4000  2.4900  1.5963
 5779TIP3    H238897   6.017   2.947   0.874  0.9891 -0.5951 -0.4122
 5780TIP3   OH238898   3.391   0.374   8.807  0.3251  0.0383  0.0920
 5780TIP3    H138899   3.401   0.292   8.854 -1.3140 -1.3141 -1.7354
 5780TIP3    H238900   3.365   0.437   8.874  0.0011 -1.3234  1.3054
 5781TIP3   OH238901   3.204   3.454   6.784 -0.4380 -0.4051  0.0720
 5781TIP3    H138902   3.144   3.499   6.724  0.6973  0.7885 -0.2272
 5781TIP3    H238903   3.255   3.396   6.728 -0.8646 -0.9237  0.2216
 5782TIP3   OH238904   5.631   5.622   8.498  0.2625  0.4482  0.3473
 5782TIP3    H138905   5.711   5.657   8.536  0.8471 -0.2475 -0.2070
 5782TIP3    H238906   5.604   5.553   8.559 -1.4365  2.4254  1.9679
 5783TIP3   OH238907   5.845   3.351   0.472  0.1434  0.1222 -0.5046
 5783TIP3    H138908   5.878   3.436   0.503  2.2009 -1.1146  0.9767
 5783TIP3    H238909   5.922   3.294   0.474 -1.3481 -1.9892 -0.6910
 5784TIP3   OH238910   1.974   4.359   6.894  0.5063 -0.7783 -0.0417
 5784TIP3    H138911   1.984   4.445   6.852 -2.4590  0.0671  0.7172
 5784TIP3    H238912   1.947   4.301   6.824 -1.2656 -0.1189  0.0327
 5785TIP3   OH238913   3.787   4.964   1.025  0.4036  0.2090  0.2193
 5785TIP3    H138914   3.781   4.897   1.094 -1.7237  1.1926  1.0968
 5785TIP3    H238915   3.719   4.939   0.962  1.0765  0.3515 -0.5728
 5786TIP3   OH238916   5.339   6.227   8.601 -0.0407  0.5991  0.4741
 5786TIP3    H138917   5.273   6.175   8.556  1.8820  1.0699 -3.2822
 5786TIP3    H238918   5.377   6.168   8.666 -1.1816 -1.0609 -0.3223
 5787TIP3   OH238919   6.530   2.428   7.455  0.2488 -0.2195  0.5360
 5787TIP3    H138920   6.580   2.383   7.387  0.6121 -0.9692  1.2781
 5787TIP3    H238921   6.539   2.372   7.532  0.5986  1.0657  1.4505
 5788TIP3   OH238922   3.756   5.885   1.317 -0.3005 -0.7114 -0.4851
 5788TIP3    H138923   3.778   5.806   1.366  0.4900 -0.3923 -0.3201
 5788TIP3    H238924   3.818   5.887   1.245 -0.3030 -0.2289 -0.4769
 5789TIP3   OH238925   0.272   4.631   0.949 -0.2054 -0.1556  0.2973
 5789TIP3    H138926   0.219   4.696   0.903 -1.1516 -0.6333  0.6612
 5789TIP3    H238927   0.300   4.570   0.881  2.1211  1.4817 -0.3476
 5790TIP3   OH238928   1.194   0.846   1.193 -0.2993  0.4669 -0.2262
 5790TIP3    H138929   1.109   0.880   1.222 -0.4772  0.9470 -1.2810
 5790TIP3    H238930   1.258   0.907   1.231 -0.5138  0.9371 -0.6043
 5791TIP3   OH238931   0.700   2.379   2.577 -0.1368  0.1769  0.2223
 5791TIP3    H138932   0.617   2.385   2.625 -0.6014  0.1345 -0.5459
 5791TIP3    H238933   0.766   2.409   2.638 -0.4237 -1.7899  1.6204
 5792TIP3   OH238934   3.381   1.681   2.401  0.0699  0.2165 -0.2649
 5792TIP3    H138935   3.301   1.632   2.421 -0.4961  0.2969 -2.1412
 5792TIP3    H238936   3.385   1.683   2.305  2.3891  0.1222 -0.2381
 5793TIP3   OH238937   3.457   2.929   6.950  0.1215 -0.8681  0.3288
 5793TIP3    H138938   3.511   2.931   7.029  0.6584  0.0392 -0.0450
 5793TIP3    H238939   3.421   3.018   6.943  1.2363 -0.4988 -1.2119
 5794TIP3   OH238940   4.281   5.139   1.260  0.0116 -0.4883 -0.3258
 5794TIP3    H138941   4.253   5.098   1.341 -1.1199  1.2435  0.2191
 5794TIP3    H238942   4.203   5.141   1.205  0.0516  0.7334 -0.3872
 5795TIP3   OH238943   4.348   1.130   0.533  0.1978  0.0813 -0.0895
 5795TIP3    H138944   4.297   1.210   0.549  1.3790  0.7173  0.6890
 5795TIP3    H238945   4.432   1.162   0.500  0.8613 -0.7995  0.6979
 5796TIP3   OH238946   4.390   5.992   1.456 -0.6718 -0.5718  0.4004
 5796TIP3    H138947   4.412   5.986   1.549 -2.3991  2.0708  1.0732
 5796TIP3    H238948   4.304   5.952   1.448  0.5334 -3.2449 -0.6830
 5797TIP3   OH238949   6.198   0.116   0.344  0.2621  0.4318 -0.1813
 5797TIP3    H138950   6.149   0.054   0.396  0.5312  0.6732  0.3661
 5797TIP3    H238951   6.133   0.160   0.290 -0.1110  0.6704  0.4559
 5798TIP3   OH238952   0.571   4.202   8.005  0.0947  0.1013 -0.3465
 5798TIP3    H138953   0.555   4.294   7.985 -1.6599  0.0374  0.6059
 5798TIP3    H238954   0.644   4.203   8.067 -1.8380  1.1151  2.0350
 5799TIP3   OH238955   3.535   2.481   1.338  0.2595 -0.0200 -0.0779
 5799TIP3    H138956   3.588   2.557   1.316  0.1718 -0.3528 -1.5389
 5799TIP3    H238957   3.447   2.504   1.307 -0.8442  1.0122  3.3287
 5800TIP3   OH238958   5.233   6.764   1.817 -0.5986 -0.5647  0.3110
 5800TIP3    H138959   5.217   6.707   1.741  0.7860  0.3723 -0.7311
 5800TIP3    H238960   5.296   6.715   1.870  0.4031 -0.1401 -0.4598
 5801TIP3   OH238961   6.005   1.457   6.735  0.0980 -0.0850 -0.4843
 5801TIP3    H138962   5.957   1.380   6.705  1.0838 -1.5740  1.5757
 5801TIP3    H238963   5.940   1.528   6.731 -0.5796 -0.7399 -3.2944
 5802TIP3   OH238964   0.665   1.444   2.720 -0.6932 -0.3510 -0.1705
 5802TIP3    H138965   0.668   1.375   2.654  0.5173  0.0135 -0.5170
 5802TIP3    H238966   0.578   1.483   2.710 -1.0703 -1.2662 -0.5366
 5803TIP3   OH238967   1.245   1.919   0.527  0.1620  0.3356 -0.0551
 5803TIP3    H138968   1.300   1.872   0.590  2.0356  0.0388 -1.7917
 5803TIP3    H238969   1.162   1.871   0.527  0.4615 -0.2532  1.4107
 5804TIP3   OH238970   2.597   5.598   2.060  0.3401 -0.0433 -0.5097
 5804TIP3    H138971   2.614   5.652   1.982  0.5197 -0.4153 -0.7283
 5804TIP3    H238972   2.539   5.529   2.029  1.1441 -0.7336 -0.5391
 5805TIP3   OH238973   2.012   0.942   0.889  0.1634  0.0522 -0.1691
 5805TIP3    H138974   1.986   0.891   0.813  2.1215 -1.2031 -0.0570
 5805TIP3    H238975   1.955   0.911   0.960 -0.2471 -0.2674 -0.6379
 5806TIP3   OH238976   5.338   0.348   8.363 -0.0789 -0.3927 -0.9238
 5806TIP3    H138977   5.333   0.430   8.411  0.0600  0.3360 -2.1190
 5806TIP3    H238978   5.432   0.334   8.348 -0.1720 -0.1972 -1.6845
 5807TIP3   OH238979   5.015   2.166   1.041 -0.4868  0.6347 -0.1933
 5807TIP3    H138980   5.069   2.089   1.022 -1.6822 -0.3798  0.3519
 5807TIP3    H238981   5.011   2.169   1.137 -3.8193 -1.2075 -0.0959
 5808TIP3   OH238982   5.346   0.703   8.138 -0.3852  0.2698  0.2203
 5808TIP3    H138983   5.330   0.797   8.129 -1.3915  0.0421 -0.5267
 5808TIP3    H238984   5.334   0.685   8.231 -1.9173  0.5825  0.0976
 5809TIP3   OH238985   5.516   6.623   8.789 -0.2217 -0.8191  0.0489
 5809TIP3    H138986   5.590   6.637   8.848 -0.5485 -0.4399  0.3821
 5809TIP3    H238987   5.464   6.554   8.832  0.3844 -1.7101 -0.6234
 5810TIP3   OH238988   0.261   1.450   0.273  0.2022  0.2314 -0.0162
 5810TIP3    H138989   0.312   1.512   0.325  1.1916  0.2357 -0.9617
 5810TIP3    H238990   0.305   1.366   0.287  0.5597  0.2555 -0.9329
 5811TIP3   OH238991   2.003   6.253   7.895 -0.1817 -0.8289 -0.2031
 5811TIP3    H138992   1.968   6.191   7.959 -0.2984  0.6629  1.2524
 5811TIP3    H238993   2.080   6.291   7.939  0.6518 -0.8700 -1.5763
 5812TIP3   OH238994   0.999   3.439   1.194 -0.3701 -0.4962  0.6962
 5812TIP3    H138995   1.060   3.407   1.128 -1.0059 -0.6328  0.1587
 5812TIP3    H238996   0.924   3.470   1.144 -0.4991  0.2072  1.3130
 5813TIP3   OH238997   5.891   5.694   8.564 -0.1912 -0.2048  0.1129
 5813TIP3    H138998   5.910   5.607   8.530  1.3552 -0.1370  0.6999
 5813TIP3    H238999   5.964   5.748   8.533 -0.8498  0.7638  0.1949
 5814TIP3   OH239000   5.609   5.967   1.668 -0.2497  0.3349 -0.6589
 5814TIP3    H139001   5.659   5.992   1.590 -1.7823 -0.4880 -1.9643
 5814TIP3    H239002   5.536   5.916   1.634 -1.5585  0.8357  1.2448
 5815TIP3   OH239003   1.103   0.393   8.812  0.4213  0.1318 -0.3822
 5815TIP3    H139004   1.029   0.332   8.812 -0.4082  1.0097  2.1340
 5815TIP3    H239005   1.180   0.336   8.807 -0.3640 -1.1029  0.7129
 5816TIP3   OH239006   1.081   3.789   0.353  0.1229  0.0574  0.3097
 5816TIP3    H139007   1.061   3.777   0.446  2.7026  1.1454  1.1112
 5816TIP3    H239008   1.131   3.711   0.329 -1.7112 -0.8829 -0.6063
 5817TIP3   OH239009   6.090   1.613   1.105  0.9893 -0.1719  0.0549
 5817TIP3    H139010   6.099   1.669   1.028  1.4627  0.6572  0.6962
 5817TIP3    H239011   6.105   1.524   1.072 -2.2627 -0.2725 -1.4413
 5818TIP3   OH239012   4.561   3.902   0.866  0.2399 -0.1484  0.2832
 5818TIP3    H139013   4.651   3.929   0.852  0.1367  0.2743  0.4069
 5818TIP3    H239014   4.522   3.973   0.917 -0.1667 -0.3165  0.2164
 5819TIP3   OH239015   1.914   5.626   0.961 -0.2413  0.0005 -0.0124
 5819TIP3    H139016   1.835   5.680   0.961  0.1773  0.6761 -1.6947
 5819TIP3    H239017   1.911   5.579   1.045 -0.9840  2.0682  1.1953
 5820TIP3   OH239018   6.383   5.711   7.146  0.6200 -0.2121 -0.5910
 5820TIP3    H139019   6.371   5.693   7.053 -0.5370 -2.0418 -0.1474
 5820TIP3    H239020   6.464   5.666   7.170  0.7109 -0.0676 -0.6238
 5821TIP3   OH239021   3.011   4.730   0.884  0.0285  0.2428  0.6722
 5821TIP3    H139022   2.964   4.647   0.887  0.9967 -0.3347  0.4107
 5821TIP3    H239023   2.943   4.797   0.890 -0.6262 -0.5533  3.1350
 5822TIP3   OH239024   4.949   2.683   8.567  0.4571 -0.0194 -0.5442
 5822TIP3    H139025   4.955   2.593   8.598  0.0939  0.6623  1.7163
 5822TIP3    H239026   4.862   2.689   8.527 -0.0303 -0.3679  0.4297
 5823TIP3   OH239027   5.782   0.646   1.367  0.6527  0.3960  0.4322
 5823TIP3    H139028   5.839   0.679   1.297  1.3359 -0.0129  0.7834
 5823TIP3    H239029   5.821   0.562   1.391 -0.3718 -0.1169  0.3603
 5824TIP3   OH239030   2.193   0.089   7.738 -0.2365  0.0497 -0.0655
 5824TIP3    H139031   2.140   0.031   7.684  2.0323 -0.6092 -1.7106
 5824TIP3    H239032   2.152   0.085   7.825 -1.3515 -2.4379 -0.6211
 5825TIP3   OH239033   2.421   0.739   7.794  0.1501  0.1519 -0.0491
 5825TIP3    H139034   2.376   0.692   7.864  0.0730 -1.0678 -0.8841
 5825TIP3    H239035   2.353   0.753   7.727  1.0873 -2.5832 -1.7658
 5826TIP3   OH239036   5.843   5.167   7.689  0.1902  1.0478 -0.0900
 5826TIP3    H139037   5.795   5.243   7.721 -3.4586 -1.1359  0.0983
 5826TIP3    H239038   5.791   5.135   7.615  0.5382 -2.2636  0.9546
 5827TIP3   OH239039   6.461   5.278   7.179 -0.0796 -0.4832  0.3478
 5827TIP3    H139040   6.463   5.370   7.206 -0.3826 -0.2820 -0.3006
 5827TIP3    H239041   6.513   5.276   7.098  0.1519 -0.9343  0.5046
 5828TIP3   OH239042   1.379   5.961   2.110  0.1041  0.5228 -0.1672
 5828TIP3    H139043   1.349   5.870   2.121  0.5088  0.5109  0.9751
 5828TIP3    H239044   1.447   5.972   2.177  0.0917  1.6543 -0.3229
 5829TIP3   OH239045   6.115   4.165   6.883  0.6249 -0.4651  0.2551
 5829TIP3    H139046   6.143   4.204   6.800  4.1594 -1.8019  0.6705
 5829TIP3    H239047   6.133   4.072   6.874 -1.2089 -1.0420  1.7312
 5830TIP3   OH239048   3.568   1.840   1.440 -0.4345  0.3008 -0.1876
 5830TIP3    H139049   3.605   1.906   1.383 -0.3855  0.6357  0.2254
 5830TIP3    H239050   3.556   1.885   1.524 -0.5073 -0.1775  0.0624
 5831TIP3   OH239051   0.710   4.648   1.439 -0.6402  0.4048 -0.1832
 5831TIP3    H139052   0.629   4.621   1.397 -0.2116  1.1070 -1.5190
 5831TIP3    H239053   0.777   4.589   1.403 -0.2474  1.0917 -0.6060
 5832TIP3   OH239054   5.000   3.941   7.071  0.3276 -0.5110  0.1501
 5832TIP3    H139055   5.093   3.919   7.068  1.3650  2.9418  1.6119
 5832TIP3    H239056   4.983   3.957   7.164 -1.4695 -0.0795 -0.2286
 5833TIP3   OH239057   3.903   0.642   7.762  0.4554  0.5083  0.5045
 5833TIP3    H139058   3.834   0.642   7.695  0.4206  0.4212  0.5394
 5833TIP3    H239059   3.948   0.558   7.749 -0.9052 -0.5207  1.9694
 5834TIP3   OH239060   3.772   4.756   0.747  0.5008  0.3746  0.0512
 5834TIP3    H139061   3.695   4.789   0.792  0.7703  1.3593 -0.1936
 5834TIP3    H239062   3.816   4.834   0.714  0.7320 -0.2687 -1.2235
 5835TIP3   OH239063   2.991   2.794   0.977 -0.0372 -0.0422  0.0682
 5835TIP3    H139064   3.060   2.764   0.917 -0.5529 -0.6034 -0.2587
 5835TIP3    H239065   2.960   2.876   0.938  1.0767  0.7213  0.7273
 5836TIP3   OH239066   2.561   6.622   2.114  0.7002 -0.0124  0.3040
 5836TIP3    H139067   2.586   6.611   2.206 -1.4310 -1.6086  0.7862
 5836TIP3    H239068   2.468   6.644   2.117  0.8750  1.1974 -1.4743
 5837TIP3   OH239069   3.739   4.423   8.752  0.3524 -0.0129  0.4802
 5837TIP3    H139070   3.668   4.486   8.756  0.3487 -0.0050  0.2566
 5837TIP3    H239071   3.769   4.416   8.843  1.0642  1.1301  0.3556
 5838TIP3   OH239072   5.183   3.257   7.453  0.1518  0.2420  0.0562
 5838TIP3    H139073   5.245   3.266   7.380  1.5910 -1.0118  1.0518
 5838TIP3    H239074   5.153   3.346   7.471  2.4583  1.0736  0.1614
 5839TIP3   OH239075   3.705   2.617   8.307  0.5600  0.6234  0.1679
 5839TIP3    H139076   3.692   2.522   8.309  1.6757  0.4808  1.1358
 5839TIP3    H239077   3.635   2.648   8.249  0.9191 -0.8954 -1.1661
 5840TIP3   OH239078   5.253   3.790   7.118  0.4962  0.5836  0.2830
 5840TIP3    H139079   5.306   3.711   7.128 -1.6933 -0.9717  0.3464
 5840TIP3    H239080   5.302   3.844   7.056  1.8961 -0.9532 -0.0177
 5841TIP3   OH239081   1.342   4.561   0.852  0.0499  0.4357 -0.5495
 5841TIP3    H139082   1.341   4.598   0.940  0.6071  2.0259 -1.1760
 5841TIP3    H239083   1.353   4.467   0.866  1.0042  0.7392  1.0478
 5842TIP3   OH239084   2.785   5.687   8.392  0.4239 -0.1598 -0.0933
 5842TIP3    H139085   2.819   5.606   8.430  0.3637  1.3607  3.5380
 5842TIP3    H239086   2.856   5.750   8.402 -0.5737  0.9898 -0.0344
 5843TIP3   OH239087   1.516   6.264   1.773 -0.7481  0.6158  0.7101
 5843TIP3    H139088   1.559   6.260   1.858  1.3892 -0.5135 -0.3682
 5843TIP3    H239089   1.431   6.306   1.792  0.4065  2.1172  3.0524
 5844TIP3   OH239090   0.066   0.232   0.369  0.3452 -0.8587 -0.2259
 5844TIP3    H139091   0.124   0.205   0.441  0.4441 -1.2074 -0.4381
 5844TIP3    H239092   0.102   0.190   0.291  0.1802 -0.5583 -0.4664
 5845TIP3   OH239093   4.411   1.381   8.157  0.0415  0.1407  0.9326
 5845TIP3    H139094   4.420   1.348   8.246 -0.0402 -2.0959  0.1708
 5845TIP3    H239095   4.317   1.374   8.138 -0.1439  1.8395  1.0818
 5846TIP3   OH239096   5.412   5.988   0.849 -0.1491 -0.0409 -0.4437
 5846TIP3    H139097   5.410   6.082   0.831  3.8196  0.5922  1.3492
 5846TIP3    H239098   5.399   5.981   0.943 -0.4430 -1.3264 -0.5557
 5847TIP3   OH239099   6.292   3.666   1.035 -0.0825 -0.5302 -0.4871
 5847TIP3    H139100   6.370   3.614   1.053  1.1471  0.3166 -2.9880
 5847TIP3    H239101   6.317   3.755   1.058 -0.2135 -0.2145 -1.5405
 5848TIP3   OH239102   1.815   6.315   7.387  0.0506 -0.1871 -0.5362
 5848TIP3    H139103   1.802   6.266   7.306  0.5820  0.4987 -1.0459
 5848TIP3    H239104   1.814   6.248   7.456  0.3389 -0.8644 -1.1792
 5849TIP3   OH239105   1.405   1.101   0.988 -0.2015 -0.1060 -0.0459
 5849TIP3    H139106   1.313   1.082   0.969 -0.3691 -0.8046  1.3187
 5849TIP3    H239107   1.403   1.177   1.046  0.0963  0.0415 -0.2275
 5850TIP3   OH239108   2.229   0.511   1.519 -0.0003  0.3336  0.3229
 5850TIP3    H139109   2.254   0.538   1.607 -0.9602 -0.3571  0.8402
 5850TIP3    H239110   2.276   0.429   1.504 -1.5926 -0.7840  1.1584
 5851TIP3   OH239111   5.424   2.950   7.497  0.1425  0.0421  0.1392
 5851TIP3    H139112   5.414   2.981   7.407 -2.4067 -0.2492  0.2540
 5851TIP3    H239113   5.383   2.863   7.497  0.7088 -0.2488  1.4485
 5852TIP3   OH239114   5.649   3.685   0.574 -0.3185 -0.3207 -0.2673
 5852TIP3    H139115   5.624   3.778   0.575 -0.3464 -0.3238  0.7656
 5852TIP3    H239116   5.740   3.685   0.545 -0.6761 -0.0813 -1.4327
 5853TIP3   OH239117   1.991   3.945   0.229 -0.1037 -0.0802  0.1270
 5853TIP3    H139118   2.008   4.029   0.270  1.9352 -0.1353 -0.5044
 5853TIP3    H239119   1.931   3.900   0.290 -0.3420  1.3656  1.0072
 5854TIP3   OH239120   5.982   4.389   6.938 -0.3374  0.1522 -0.1552
 5854TIP3    H139121   6.009   4.458   6.878  0.6732 -1.4419 -1.6298
 5854TIP3    H239122   6.033   4.312   6.911 -1.3715 -1.1754  1.4368
 5855TIP3   OH239123   3.177   2.690   0.799 -0.0142  0.2305  0.1482
 5855TIP3    H139124   3.262   2.717   0.765  0.4781  0.7443  1.7098
 5855TIP3    H239125   3.197   2.639   0.878 -1.1461  3.2440  2.6062
 5856TIP3   OH239126   2.782   5.400   8.169  0.6900 -0.0059 -0.3303
 5856TIP3    H139127   2.762   5.441   8.085 -0.7073  0.4333  0.1883
 5856TIP3    H239128   2.796   5.474   8.229 -1.1340 -0.2294  0.4454
 5857TIP3   OH239129   4.957   3.663   7.240 -0.5738 -0.4337 -0.0616
 5857TIP3    H139130   4.956   3.706   7.326 -0.5683  1.8090 -1.1094
 5857TIP3    H239131   5.046   3.673   7.208 -0.5542 -1.3223 -0.3134
 5858TIP3   OH239132   4.747   0.078   2.009  0.4152  0.4296 -0.5031
 5858TIP3    H139133   4.826   0.061   1.957 -0.7711 -0.2074 -2.1557
 5858TIP3    H239134   4.781   0.114   2.092  2.4224  0.2659 -1.1943
 5859TIP3   OH239135   1.400   2.441   0.552 -0.3901 -0.5236  0.1043
 5859TIP3    H139136   1.478   2.436   0.606 -0.5494  1.0976  0.5279
 5859TIP3    H239137   1.403   2.529   0.514 -1.4647 -0.8209 -0.7018
 5860TIP3   OH239138   4.756   3.953   0.391 -0.5178 -0.2261  0.3262
 5860TIP3    H139139   4.753   4.027   0.332 -0.8139 -0.1033  0.4929
 5860TIP3    H239140   4.665   3.935   0.412 -0.7643 -2.6915 -2.2610
 5861TIP3   OH239141   3.543   4.602   8.731 -0.5062 -0.0767 -0.4422
 5861TIP3    H139142   3.566   4.694   8.721 -0.6166  0.1287  0.9656
 5861TIP3    H239143   3.479   4.601   8.802 -0.5290 -1.2446 -0.4564
 5862TIP3   OH239144   2.327   6.406   7.203 -0.3842 -0.2247  0.4002
 5862TIP3    H139145   2.271   6.341   7.247 -0.4642 -0.6203 -0.2640
 5862TIP3    H239146   2.288   6.415   7.116  1.3436 -1.5152 -0.5719
 5863TIP3   OH239147   2.542   3.933   1.900 -0.8562 -0.7259 -0.1038
 5863TIP3    H139148   2.595   4.007   1.870  0.5496 -1.6401  0.0439
 5863TIP3    H239149   2.564   3.923   1.992 -2.6692 -0.0125  0.4445
 5864TIP3   OH239150   4.532   6.285   1.365  0.0501 -0.7866 -0.0148
 5864TIP3    H139151   4.529   6.217   1.297 -1.0166 -1.5534  0.7519
 5864TIP3    H239152   4.481   6.248   1.438 -3.0239  1.8803 -0.5621
 5865TIP3   OH239153   3.751   5.102   8.720 -0.1093 -0.2901  0.2339
 5865TIP3    H139154   3.803   5.080   8.797  1.4515 -2.6587 -1.3515
 5865TIP3    H239155   3.702   5.181   8.745  2.9768  1.1382  2.4083
 5866TIP3   OH239156   4.636   3.719   7.660  0.2359  0.6804 -0.3103
 5866TIP3    H139157   4.598   3.782   7.599  0.3063  2.8351  1.7157
 5866TIP3    H239158   4.672   3.772   7.731  3.0530 -1.4970  0.1006
 5867TIP3   OH239159   5.198   6.264   1.410  0.3505 -0.2303 -0.1050
 5867TIP3    H139160   5.244   6.308   1.338 -1.4128  0.4035 -0.9034
 5867TIP3    H239161   5.202   6.326   1.482 -0.2678  0.3446 -0.5539
 5868TIP3   OH239162   2.185   0.303   0.205  0.0058  0.1359  0.6261
 5868TIP3    H139163   2.179   0.279   0.112  0.4759  0.0431  0.6180
 5868TIP3    H239164   2.147   0.229   0.252 -1.5428  0.7756  0.4517
 5869TIP3   OH239165   0.234   2.167   0.862  0.3440 -0.3050 -0.0089
 5869TIP3    H139166   0.178   2.128   0.795  0.5238 -1.5216  0.5246
 5869TIP3    H239167   0.293   2.096   0.888  0.4873  0.2476  1.2098
 5870TIP3   OH239168   4.435   0.285   6.405  0.5424 -0.3676  0.1402
 5870TIP3    H139169   4.375   0.357   6.423  1.3956  0.5373 -0.5132
 5870TIP3    H239170   4.497   0.287   6.478 -0.6472 -1.8390  1.2719
 5871TIP3   OH239171   4.507   3.959   7.152  0.2047 -0.0591  0.2770
 5871TIP3    H139172   4.590   3.915   7.132 -0.2223 -1.2956  1.1225
 5871TIP3    H239173   4.443   3.917   7.095 -0.1340 -0.2503  0.7928
 5872TIP3   OH239174   2.357   0.784   0.286  0.9547  0.2568  0.1662
 5872TIP3    H139175   2.368   0.690   0.270  3.5376  0.3341  1.0419
 5872TIP3    H239176   2.290   0.811   0.224  1.6607 -1.7773 -1.6046
 5873TIP3   OH239177   3.105   2.948   1.688 -0.2322 -0.4570  0.5448
 5873TIP3    H139178   3.122   3.038   1.714  0.2959  0.4353 -2.4655
 5873TIP3    H239179   3.188   2.918   1.650 -1.2321 -1.1410 -1.1924
 5874TIP3   OH239180   3.903   5.763   0.272 -0.4750 -0.2163  0.6854
 5874TIP3    H139181   3.873   5.799   0.188  0.7084  0.7314  0.6362
 5874TIP3    H239182   3.903   5.838   0.331 -1.2567 -0.8676  1.5417
 5875TIP3   OH239183   5.266   3.735   1.008  0.2009  0.4106 -0.0306
 5875TIP3    H139184   5.191   3.678   0.991  1.2073 -0.7667 -0.6867
 5875TIP3    H239185   5.311   3.741   0.924  1.1488  0.6471  0.4806
 5876TIP3   OH239186   5.130   5.707   0.201 -0.2994 -0.4545  0.4584
 5876TIP3    H139187   5.110   5.794   0.237 -0.7372 -0.1004 -0.6115
 5876TIP3    H239188   5.219   5.689   0.232 -0.6179 -0.1216  1.6164
 5877TIP3   OH239189   1.726   2.354   7.938 -0.2110 -0.4315 -0.0854
 5877TIP3    H139190   1.685   2.289   7.880 -0.7247 -1.1183  1.0085
 5877TIP3    H239191   1.682   2.342   8.022  1.7080 -0.6916  0.9496
 5878TIP3   OH239192   1.654   1.854   8.441 -0.1000  0.0409  0.1027
 5878TIP3    H139193   1.726   1.810   8.395  0.7729 -0.1768  1.6053
 5878TIP3    H239194   1.575   1.824   8.396  0.2029 -4.8164  2.1588
 5879TIP3   OH239195   4.015   1.668   7.626  0.1559 -0.1209  0.1595
 5879TIP3    H139196   3.992   1.581   7.592 -1.3709  0.6407 -0.8693
 5879TIP3    H239197   4.109   1.676   7.610  0.0530 -1.0386 -1.0727
 5880TIP3   OH239198   2.271   2.225   7.618 -0.2889 -0.6104 -0.0560
 5880TIP3    H139199   2.183   2.196   7.593 -0.4500  0.5164 -0.8814
 5880TIP3    H239200   2.263   2.254   7.708 -0.3874 -1.9690  0.3991
 5881TIP3   OH239201   5.424   5.761   0.026 -0.2614  0.3835  0.4829
 5881TIP3    H139202   5.417   5.690   0.090  1.5730 -0.0957  0.2114
 5881TIP3    H239203   5.390   5.724  -0.055 -0.6201  0.2791  0.6826
 5882TIP3   OH239204   2.325   1.101   7.179 -0.1554 -0.9024 -0.2159
 5882TIP3    H139205   2.331   1.193   7.152  0.3494 -0.4086  1.4355
 5882TIP3    H239206   2.395   1.057   7.130  0.7846 -0.0359  0.3160
 5883TIP3   OH239207   3.818   6.000   6.380  0.2945  0.0268 -0.3807
 5883TIP3    H139208   3.823   5.909   6.352  2.6525 -0.1548  0.3823
 5883TIP3    H239209   3.810   6.050   6.299  2.6223 -0.7181 -1.1492
 5884TIP3   OH239210   2.914   6.592   0.677 -0.2284 -0.1314 -0.1161
 5884TIP3    H139211   2.846   6.569   0.613 -1.2534  1.2415  0.4441
 5884TIP3    H239212   2.873   6.576   0.762  0.6896 -0.7319  0.2285
 5885TIP3   OH239213   5.657   0.660   2.608 -1.1013  0.3632 -0.2219
 5885TIP3    H139214   5.632   0.568   2.602 -0.3181  0.2166 -1.5331
 5885TIP3    H239215   5.574   0.708   2.599 -1.5786 -0.1894  0.9558
 5886TIP3   OH239216   4.866   1.064   6.919  0.5138 -0.0251  0.1989
 5886TIP3    H139217   4.832   1.135   6.973  1.6916 -0.9234  2.2050
 5886TIP3    H239218   4.935   1.105   6.866 -0.3912  0.7836 -0.3856
 5887TIP3   OH239219   1.501   6.013   1.673 -0.3391 -0.2053  0.4997
 5887TIP3    H139220   1.434   6.005   1.605 -1.0869  2.9017  0.7092
 5887TIP3    H239221   1.503   6.107   1.693  2.2948 -0.5567  2.3415
 5888TIP3   OH239222   2.168   1.905   1.903  0.1308 -0.0451 -0.0013
 5888TIP3    H139223   2.255   1.868   1.917 -0.7932 -1.8935  1.2118
 5888TIP3    H239224   2.132   1.917   1.991  0.0125  3.0140 -0.3529
 5889TIP3   OH239225   2.953   3.863   7.630  0.3107 -0.0082  0.0079
 5889TIP3    H139226   2.875   3.818   7.598  1.1307 -0.8696 -0.8388
 5889TIP3    H239227   3.004   3.795   7.674  0.8194  0.4343  0.1205
 5890TIP3   OH239228   1.972   0.536   1.358  0.3977  0.0426  0.3316
 5890TIP3    H139229   2.066   0.527   1.368  0.8386  1.7831 -1.6025
 5890TIP3    H239230   1.940   0.446   1.349  2.2664 -0.5076 -1.6947
 5891TIP3   OH239231   5.537   5.878   8.388  0.0969  0.5099  0.7368
 5891TIP3    H139232   5.564   5.789   8.411 -0.5210 -0.1357 -0.8491
 5891TIP3    H239233   5.619   5.926   8.376  0.5365 -0.5357 -0.7701
 5892TIP3   OH239234   4.167   3.570   8.651 -0.0294  0.0601  0.4521
 5892TIP3    H139235   4.204   3.658   8.661  1.2074 -0.3365 -0.3796
 5892TIP3    H239236   4.092   3.582   8.592  1.3864  0.2919 -1.3781
 5893TIP3   OH239237   2.746   2.550   7.353 -0.0724  0.5087  0.0262
 5893TIP3    H139238   2.758   2.581   7.263 -1.0586  0.6553 -0.0583
 5893TIP3    H239239   2.830   2.510   7.375  0.0033 -0.0313 -1.1533
 5894TIP3   OH239240   4.903   5.644   0.607 -0.3763 -0.0368 -0.1494
 5894TIP3    H139241   4.991   5.657   0.644 -1.0415  0.0002  1.5215
 5894TIP3    H239242   4.870   5.733   0.592 -1.2570  0.0816  2.1411
 5895TIP3   OH239243   6.001   1.943   1.601 -0.2719 -0.2537  0.0425
 5895TIP3    H139244   6.012   1.919   1.509  1.1192  0.0171  0.1201
 5895TIP3    H239245   5.913   1.913   1.623 -0.8330  0.1531 -1.5169
 5896TIP3   OH239246   6.700   1.495   1.857  0.1520  0.4777  0.2919
 5896TIP3    H139247   6.653   1.574   1.831  2.0199  0.9456 -2.0748
 5896TIP3    H239248   6.724   1.453   1.774  3.4746  0.0945  1.2810
 5897TIP3   OH239249   2.436   5.406   1.909  0.3747 -0.1130  0.3637
 5897TIP3    H139250   2.449   5.326   1.859  1.9590 -1.0675  2.1738
 5897TIP3    H239251   2.368   5.383   1.973 -0.4079  0.5555 -0.2083
 5898TIP3   OH239252   3.490   5.944   7.793 -0.4291  0.0867 -0.4634
 5898TIP3    H139253   3.486   5.857   7.834  0.9668 -1.2582 -2.9180
 5898TIP3    H239254   3.421   5.942   7.726 -0.0830  0.6843 -0.8491
 5899TIP3   OH239255   0.875   0.572   0.719 -0.4639  0.1369 -0.0963
 5899TIP3    H139256   0.796   0.548   0.671 -0.8490  0.5332  0.3306
 5899TIP3    H239257   0.864   0.666   0.738 -0.1739  0.0585  0.4927
 5900TIP3   OH239258   0.323   4.847   1.681 -0.6629  0.5916  0.2118
 5900TIP3    H139259   0.366   4.930   1.662  0.1523 -0.5007 -3.7235
 5900TIP3    H239260   0.394   4.783   1.681 -1.4501 -0.3438  1.7937
 5901TIP3   OH239261   3.406   5.517   0.174  0.2711 -0.4616  0.0885
 5901TIP3    H139262   3.385   5.491   0.264 -0.3793 -0.4415 -0.0525
 5901TIP3    H239263   3.323   5.547   0.138  0.6360  0.0230 -0.3563
 5902TIP3   OH239264   2.866   2.634   0.153  0.0062 -0.6975  0.1096
 5902TIP3    H139265   2.957   2.630   0.122  0.1474 -1.6415  0.5924
 5902TIP3    H239266   2.866   2.581   0.233 -0.8481 -0.2205  0.4393
 5903TIP3   OH239267   1.620   4.858   7.974 -0.4966 -0.0907 -0.0972
 5903TIP3    H139268   1.550   4.800   8.002 -0.3459 -0.7275 -1.0077
 5903TIP3    H239269   1.637   4.833   7.883  2.0006 -1.0596  0.5680
 5904TIP3   OH239270   2.682   6.396   1.395  0.5170 -0.7660  0.2527
 5904TIP3    H139271   2.735   6.359   1.467 -0.7494  0.1428  1.7154
 5904TIP3    H239272   2.592   6.377   1.420 -0.2536  3.1516  1.1139
 5905TIP3   OH239273   2.418   0.525   0.541  0.2232 -0.3864  0.3103
 5905TIP3    H139274   2.333   0.564   0.563 -0.3629 -2.5306  2.2530
 5905TIP3    H239275   2.467   0.526   0.623  1.3266 -0.9555 -0.3208
 5906TIP3   OH239276   5.794   1.233   8.839  0.3768  0.2410  0.0165
 5906TIP3    H139277   5.742   1.298   8.793 -0.2258  0.8446  1.4678
 5906TIP3    H239278   5.845   1.284   8.903  2.7837 -0.3236 -1.3261
 5907TIP3   OH239279   1.013   5.552   1.215 -0.0049  0.1919 -0.3498
 5907TIP3    H139280   1.089   5.559   1.157  0.4506 -0.2726  0.1785
 5907TIP3    H239281   1.039   5.600   1.294 -0.3748  0.2778 -0.2797
 5908TIP3   OH239282   0.898   1.228   1.087  0.4872 -0.1682  0.1235
 5908TIP3    H139283   0.928   1.231   1.178 -2.1638 -0.0013  1.0903
 5908TIP3    H239284   0.832   1.158   1.086 -1.2902  1.4023 -1.0058
 5909TIP3   OH239285   6.341   1.597   7.204 -0.3360  0.4541  0.1790
 5909TIP3    H139286   6.305   1.546   7.131 -1.3709  1.9680 -0.4145
 5909TIP3    H239287   6.430   1.619   7.175  0.1839 -1.0885  0.5107
 5910TIP3   OH239288   2.639   6.069   7.528  0.9949 -0.0555  0.1055
 5910TIP3    H139289   2.678   6.092   7.613  3.5270  0.0799 -1.0030
 5910TIP3    H239290   2.656   6.145   7.473  0.4499 -0.6105 -0.8495
 5911TIP3   OH239291   5.702   5.935   8.012 -0.0757 -0.7442 -0.2792
 5911TIP3    H139292   5.765   5.910   8.080  0.3526  3.1345  0.9900
 5911TIP3    H239293   5.674   5.852   7.974  2.8523 -2.8702  1.7435
 5912TIP3   OH239294   2.376   1.829   6.872 -0.1062 -0.2749  0.1038
 5912TIP3    H139295   2.410   1.780   6.797  0.5387  0.7290 -0.2834
 5912TIP3    H239296   2.379   1.921   6.844 -2.7521 -0.0833  0.2184
 5913TIP3   OH239297   6.336   6.637   7.493 -0.3760 -0.6973  0.6223
 5913TIP3    H139298   6.355   6.583   7.570  0.5250 -1.1327  0.1169
 5913TIP3    H239299   6.329   6.574   7.421  1.0640 -0.1303 -0.0483
 5914TIP3   OH239300   2.361   5.496   8.562  0.8502 -0.0442  0.5911
 5914TIP3    H139301   2.416   5.548   8.619  0.9241 -0.3629  0.8125
 5914TIP3    H239302   2.408   5.491   8.479 -0.3544  2.4718 -0.3369
 5915TIP3   OH239303   2.636   0.071   1.174  0.5369 -0.0984 -0.1177
 5915TIP3    H139304   2.631   0.157   1.216  1.8285  0.3503 -0.8250
 5915TIP3    H239305   2.678   0.014   1.239 -0.6453 -0.3016  0.4864
 5916TIP3   OH239306   5.760   5.913   0.365 -0.1943 -0.3348 -0.4928
 5916TIP3    H139307   5.712   5.869   0.295 -0.1918  0.0297 -0.7289
 5916TIP3    H239308   5.694   5.926   0.434 -0.5523  0.5499 -0.9883
 5917TIP3   OH239309   6.265   3.840   0.611 -0.4618 -0.5579  0.1824
 5917TIP3    H139310   6.307   3.777   0.669 -1.1907  0.1177  1.4972
 5917TIP3    H239311   6.337   3.885   0.568  0.0903 -1.2474  0.3743
 5918TIP3   OH239312   1.030   5.044   8.598 -0.5912 -0.0889 -0.1846
 5918TIP3    H139313   0.946   5.043   8.551 -0.5970 -2.2562 -0.2325
 5918TIP3    H239314   1.095   5.066   8.531 -0.8660 -0.7556 -0.6804
 5919TIP3   OH239315   4.609   1.858   1.499 -0.6802 -0.7265 -0.0956
 5919TIP3    H139316   4.578   1.768   1.504 -0.3697 -0.7855  1.1670
 5919TIP3    H239317   4.586   1.896   1.584  0.4807 -0.0595 -0.0499
 5920TIP3   OH239318   0.748   5.515   8.155 -0.2736 -0.2268 -0.7042
 5920TIP3    H139319   0.703   5.496   8.238 -0.8254 -3.3730 -1.6062
 5920TIP3    H239320   0.786   5.602   8.168 -2.1749  0.3210  2.0281
 5921TIP3   OH239321   1.921   2.786   8.598  0.1482 -0.0711  0.0229
 5921TIP3    H139322   1.885   2.806   8.511 -0.2513  0.0640  0.2153
 5921TIP3    H239323   1.929   2.690   8.599 -0.1971 -0.1013 -0.0283
 5922TIP3   OH239324   5.939   6.009   7.267 -0.4235 -0.1758  0.0865
 5922TIP3    H139325   6.015   5.963   7.230  0.5808  1.0589  0.5675
 5922TIP3    H239326   5.864   5.969   7.223  0.5496 -0.8486 -1.0256
 5923TIP3   OH239327   3.496   3.831   1.426  0.0996  0.0239  0.1320
 5923TIP3    H139328   3.442   3.857   1.352  0.0918 -0.5669 -0.0724
 5923TIP3    H239329   3.434   3.812   1.496  0.0797  0.0557  0.1229
 5924TIP3   OH239330   4.153   5.584   1.595  0.4799  0.7719  0.0623
 5924TIP3    H139331   4.174   5.600   1.686  0.8795 -0.1678  0.1444
 5924TIP3    H239332   4.152   5.488   1.586  0.7958  0.8467 -0.9921
 5925TIP3   OH239333   1.969   0.709   8.647  0.4654  0.0397 -0.3067
 5925TIP3    H139334   1.958   0.725   8.741 -1.1964  0.1735 -0.4967
 5925TIP3    H239335   1.980   0.797   8.610  1.2928 -0.0239 -0.2435
 5926TIP3   OH239336   0.110   6.696   7.992 -0.2298 -0.0366  0.1172
 5926TIP3    H139337   0.030   6.710   8.042  0.2373  1.2542  0.5350
 5926TIP3    H239338   0.158   6.629   8.041 -1.4810 -1.5877 -0.6880
 5927TIP3   OH239339   1.088   0.881   0.508 -0.0674  0.8649 -0.1571
 5927TIP3    H139340   1.073   0.794   0.470  0.6725  1.5510 -2.1151
 5927TIP3    H239341   1.105   0.938   0.433  1.8146  2.2405  1.2204
 5928TIP3   OH239342   0.549   5.574   7.277 -0.1943  0.3305 -0.0865
 5928TIP3    H139343   0.611   5.646   7.290 -1.2964  1.3844 -0.5050
 5928TIP3    H239344   0.588   5.500   7.324  1.6735  0.7827 -0.8330
 5929TIP3   OH239345   5.955   0.435   7.698 -0.4853 -1.1519  0.4719
 5929TIP3    H139346   6.026   0.435   7.634 -1.4676 -1.1243 -0.6631
 5929TIP3    H239347   5.878   0.463   7.648 -1.1740 -0.5802  1.8070
 5930TIP3   OH239348   1.768   5.386   1.172  0.0906 -0.2461 -0.6442
 5930TIP3    H139349   1.698   5.451   1.176 -0.1221 -0.5014  0.0166
 5930TIP3    H239350   1.844   5.430   1.210 -0.5749 -0.9893  1.7687
 5931TIP3   OH239351   1.824   1.257   8.466 -0.2637  0.2007  0.2003
 5931TIP3    H139352   1.864   1.311   8.398  0.0709  1.0531  1.0577
 5931TIP3    H239353   1.871   1.280   8.546 -0.5809 -0.8582  0.7095
 5932TIP3   OH239354   2.883   1.549   8.372 -0.2533  0.5073  0.3456
 5932TIP3    H139355   2.812   1.492   8.401  1.2498 -1.6756 -0.0104
 5932TIP3    H239356   2.901   1.606   8.447 -0.2284 -1.1314  1.6266
 5933TIP3   OH239357   5.007   4.035   7.977  1.0397  0.0666  0.1217
 5933TIP3    H139358   4.952   3.984   7.917 -0.3828  0.5229  1.0024
 5933TIP3    H239359   5.068   3.970   8.013 -0.4967 -0.9903  0.9458
 5934TIP3   OH239360   5.212   2.994   7.989  0.2857  0.1445  0.4789
 5934TIP3    H139361   5.197   3.056   8.060  3.1702  0.2046  1.1579
 5934TIP3    H239362   5.303   2.965   8.001  0.6577 -0.3884 -2.7716
 5935TIP3   OH239363   1.884   1.645   6.481 -0.2134  0.0661 -0.2008
 5935TIP3    H139364   1.959   1.611   6.432  0.5087  0.9073  0.2885
 5935TIP3    H239365   1.923   1.702   6.548 -1.3111  0.9130 -0.2522
 5936TIP3   OH239366   0.112   0.080   0.606  0.1007  0.2108  0.1924
 5936TIP3    H139367   0.032   0.033   0.583  0.9042 -2.2414  1.9757
 5936TIP3    H239368   0.085   0.139   0.677 -0.2526 -0.1410  0.3561
 5937TIP3   OH239369   5.635   5.571   1.879 -0.2459  0.3639 -0.0307
 5937TIP3    H139370   5.718   5.619   1.882  1.0404 -1.7644  0.2137
 5937TIP3    H239371   5.576   5.622   1.935  1.3973  1.0296  1.1801
 5938TIP3   OH239372   2.266   6.775   0.240  0.4594 -0.1950 -0.5637
 5938TIP3    H139373   2.201   6.821   0.293 -0.3174  0.0965 -1.7221
 5938TIP3    H239374   2.338   6.838   0.231  1.1022 -0.6480  1.0201
 5939TIP3   OH239375   3.140   4.378   7.705 -0.0902 -0.4695 -0.0647
 5939TIP3    H139376   3.162   4.387   7.612 -2.1999 -1.6415 -0.7430
 5939TIP3    H239377   3.197   4.441   7.749  0.5631  0.5389 -2.2057
 5940TIP3   OH239378   0.869   1.127   0.134 -0.1277 -0.5992 -1.4796
 5940TIP3    H139379   0.871   1.221   0.155  1.5688 -1.0375  0.6415
 5940TIP3    H239380   0.927   1.118   0.058 -0.4931  0.0663 -1.8540
 5941TIP3   OH239381   4.632   2.381   0.890  0.2951  0.0316  0.6408
 5941TIP3    H139382   4.698   2.316   0.866 -0.9782 -1.5609  1.2466
 5941TIP3    H239383   4.658   2.460   0.843  0.6252 -1.5372 -2.0058
 5942TIP3   OH239384   1.346   6.401   1.521 -0.0413 -0.1854 -0.1839
 5942TIP3    H139385   1.441   6.397   1.520 -0.0751 -1.2266  0.3501
 5942TIP3    H239386   1.320   6.368   1.435  0.0815  0.4690 -0.4793
 5943TIP3   OH239387   1.472   5.996   2.639 -0.3908  0.6412  0.7112
 5943TIP3    H139388   1.424   6.039   2.710 -1.4195  1.0472 -0.2170
 5943TIP3    H239389   1.520   5.925   2.683 -1.6609  0.3534  1.6949
 5944TIP3   OH239390   3.256   5.142   0.291 -0.0829 -0.1642 -0.3725
 5944TIP3    H139391   3.331   5.088   0.265 -0.8919 -0.7857 -1.5124
 5944TIP3    H239392   3.188   5.121   0.227 -2.2556 -1.8083  2.2415
 5945TIP3   OH239393   4.731   3.233   7.660  0.0886  0.4846 -0.6053
 5945TIP3    H139394   4.704   3.316   7.699  3.3400  2.0254 -1.3178
 5945TIP3    H239395   4.733   3.250   7.566 -1.9386 -1.3877 -1.0845
 5946TIP3   OH239396   5.640   0.370   8.374 -0.3679 -0.3955 -0.1179
 5946TIP3    H139397   5.652   0.356   8.468  0.2714  0.0619 -0.1291
 5946TIP3    H239398   5.635   0.465   8.364 -0.0260 -0.4249 -0.5962
 5947TIP3   OH239399   3.081   6.308   6.728  0.2958 -0.3882  0.6490
 5947TIP3    H139400   3.137   6.342   6.797  0.4449 -0.6103  0.6378
 5947TIP3    H239401   3.133   6.241   6.685 -0.4578 -1.5965  1.5413
 5948TIP3   OH239402   1.184   1.058   2.979 -0.3580  0.4201 -0.2912
 5948TIP3    H139403   1.110   1.107   3.015  1.1868  1.7383  1.2108
 5948TIP3    H239404   1.192   0.982   3.035 -1.5907 -0.6848 -1.5124
 5949TIP3   OH239405   6.779   6.034   0.436 -0.6323  0.0733  0.5741
 5949TIP3    H139406   6.796   5.992   0.521  1.0943 -3.4380 -1.2966
 5949TIP3    H239407   6.728   5.970   0.387 -1.5161  1.9740 -1.1299
 5950TIP3   OH239408   3.773   6.385   2.415  0.2216 -0.1750 -0.3696
 5950TIP3    H139409   3.758   6.478   2.433  1.1219  0.1834 -1.2980
 5950TIP3    H239410   3.758   6.341   2.498  1.6194  1.0442  0.5913
 5951TIP3   OH239411   0.708   1.406   1.313  0.5898 -0.0714 -0.4893
 5951TIP3    H139412   0.666   1.484   1.348 -1.5011 -1.3956  0.1406
 5951TIP3    H239413   0.664   1.391   1.229  0.7340 -0.7609 -0.4460
 5952TIP3   OH239414   4.082   4.989   1.106  0.1829 -0.0183 -0.5943
 5952TIP3    H139415   4.044   4.953   1.185  0.7857  3.5461  1.5278
 5952TIP3    H239416   4.111   4.912   1.056 -3.3773 -2.5739  0.8412
 5953TIP3   OH239417   2.548   3.188   0.877 -0.0582 -0.7116 -0.2321
 5953TIP3    H139418   2.557   3.130   0.952  2.0215  1.6735  1.5292
 5953TIP3    H239419   2.622   3.166   0.820 -0.1451 -0.7717 -0.3238
 5954TIP3   OH239420   2.440   4.841   7.766  0.5878  0.1057 -0.1948
 5954TIP3    H139421   2.526   4.882   7.776  0.4276  0.3537  0.2025
 5954TIP3    H239422   2.459   4.748   7.756  0.9034  0.1631 -0.1540
 5955TIP3   OH239423   5.215   0.228   7.185  0.5426  0.2464 -0.2804
 5955TIP3    H139424   5.122   0.207   7.190  0.6428 -0.8860 -2.1332
 5955TIP3    H239425   5.219   0.323   7.199 -1.0472  0.5299 -1.4872
 5956TIP3   OH239426   3.119   5.993   6.797  0.0572 -0.0087  0.1723
 5956TIP3    H139427   3.208   6.025   6.784 -0.1377 -0.0183 -1.3842
 5956TIP3    H239428   3.115   5.912   6.746 -0.6706 -0.3228  0.7141
 5957TIP3   OH239429   4.929   5.556   7.597  0.2331  0.6207  0.1367
 5957TIP3    H139430   5.021   5.559   7.572 -0.2519  1.9060 -1.7272
 5957TIP3    H239431   4.897   5.472   7.564  1.1305 -0.7565  2.5535
 5958TIP3   OH239432   6.543   6.430   7.839 -1.3791 -0.1474  0.3220
 5958TIP3    H139433   6.577   6.352   7.795  1.9374  1.4839 -0.3155
 5958TIP3    H239434   6.598   6.440   7.917 -3.6830  0.0124  2.0535
 5959TIP3   OH239435   5.934   4.186   0.767 -0.0088  0.2238 -0.1274
 5959TIP3    H139436   5.942   4.090   0.765  1.3688  0.2584  1.6766
 5959TIP3    H239437   5.839   4.201   0.768 -0.3816 -1.3437  3.3268
 5960TIP3   OH239438   1.205   5.389   8.117 -0.1584  0.0360 -0.0185
 5960TIP3    H139439   1.297   5.364   8.120  0.0585  0.7713 -0.3153
 5960TIP3    H239440   1.169   5.357   8.199  0.3611 -0.2606  0.0996
 5961TIP3   OH239441   4.974   2.543   1.593 -0.0892  0.2218  0.1381
 5961TIP3    H139442   4.883   2.515   1.583  0.5183 -1.7788 -0.2463
 5961TIP3    H239443   4.990   2.538   1.688 -0.2660  0.2090  0.1673
 5962TIP3   OH239444   6.770   2.701   6.656 -0.1666  0.2958  0.9691
 5962TIP3    H139445   6.702   2.673   6.596  0.0036 -0.8535  1.2906
 5962TIP3    H239446   6.814   2.620   6.683  0.9163  0.9539  1.2503
 5963TIP3   OH239447   0.041   2.854   2.294 -0.7651  0.2547  0.3723
 5963TIP3    H139448   0.130   2.823   2.275 -1.2543 -1.1946  0.2893
 5963TIP3    H239449   0.035   2.852   2.390 -1.4993 -2.2232  0.3574
 5964TIP3   OH239450   4.009   3.772   7.683  0.1067 -0.1673 -0.4377
 5964TIP3    H139451   4.052   3.815   7.757  1.6600 -2.3100  0.0100
 5964TIP3    H239452   4.080   3.749   7.624 -1.0881  1.2340 -2.5442
 5965TIP3   OH239453   3.515   6.569   7.502  0.2002  0.3437 -0.2474
 5965TIP3    H139454   3.565   6.521   7.436 -0.1263  0.6278 -0.7118
 5965TIP3    H239455   3.474   6.501   7.555  0.8473  0.1079 -0.0306
 5966TIP3   OH239456   5.366   4.543   2.111 -0.1545  0.5090  0.6419
 5966TIP3    H139457   5.334   4.504   2.030 -1.0910 -0.5456  1.4893
 5966TIP3    H239458   5.287   4.571   2.158  0.4211  1.9980  0.7793
 5967TIP3   OH239459   1.375   0.429   6.337 -0.0465  0.1446  0.4533
 5967TIP3    H139460   1.388   0.337   6.358 -1.0222 -1.1711 -3.6638
 5967TIP3    H239461   1.280   0.437   6.323  0.1065  1.5832  0.0670
 5968TIP3   OH239462   0.223   0.328   1.166 -0.8409 -0.8940 -0.4743
 5968TIP3    H139463   0.258   0.395   1.108 -1.1084 -1.3891 -1.2142
 5968TIP3    H239464   0.299   0.275   1.190 -0.6863 -0.5334 -0.1553
 5969TIP3   OH239465   1.649   1.144   7.370  0.4270 -0.5725  0.6378
 5969TIP3    H139466   1.681   1.228   7.338 -1.0592 -0.8817 -1.9072
 5969TIP3    H239467   1.611   1.164   7.456 -0.5738  1.5265 -0.2262
 5970TIP3   OH239468   4.049   6.463   1.834  0.5189 -0.3085 -0.7301
 5970TIP3    H139469   4.112   6.487   1.902  0.3366 -1.5850 -0.0858
 5970TIP3    H239470   3.989   6.402   1.876 -0.8732  0.4936 -1.4723
 5971TIP3   OH239471   4.181   4.237   7.939  0.0849  0.2157  0.0501
 5971TIP3    H139472   4.261   4.290   7.937 -0.0866  0.4749  0.0212
 5971TIP3    H239473   4.149   4.239   7.849  0.8285 -1.0982 -0.2641
 5972TIP3   OH239474   4.108   2.804   8.348 -0.3599 -0.0954  0.1160
 5972TIP3    H139475   4.187   2.798   8.294  0.2660  0.0436  1.0021
 5972TIP3    H239476   4.048   2.740   8.309 -0.0155  0.1793 -0.8915
 5973TIP3   OH239477   4.244   1.406   1.136 -0.2505 -0.1802 -0.1704
 5973TIP3    H139478   4.157   1.369   1.147  0.3688 -1.2910  1.3514
 5973TIP3    H239479   4.248   1.477   1.201  0.6438 -1.4633  1.2283
 5974TIP3   OH239480   3.702   2.593   2.292 -0.2452 -0.2412 -0.0730
 5974TIP3    H139481   3.619   2.619   2.251  0.8338  0.3878 -1.9613
 5974TIP3    H239482   3.678   2.521   2.350 -2.0998 -0.1199 -0.6165
 5975TIP3   OH239483   4.348   5.920   7.831  0.3701 -0.0686  0.0220
 5975TIP3    H139484   4.404   5.845   7.807  1.1271  0.7042 -0.7064
 5975TIP3    H239485   4.262   5.897   7.796  0.5904 -0.6136 -0.1795
 5976TIP3   OH239486   0.103   2.447   1.736 -0.1402  0.4307 -0.5734
 5976TIP3    H139487   0.100   2.484   1.648  1.6227 -1.3796 -1.4923
 5976TIP3    H239488   0.021   2.398   1.745 -0.2633  0.4995 -1.2778
 5977TIP3   OH239489   0.901   5.784   6.922  0.6566 -0.3310  0.3135
 5977TIP3    H139490   0.821   5.803   6.972  0.5606  0.1321 -0.0110
 5977TIP3    H239491   0.912   5.689   6.931 -1.7461 -0.9932 -2.2946
 5978TIP3   OH239492   3.962   4.491   0.713  0.2277 -0.1645 -0.4449
 5978TIP3    H139493   3.941   4.574   0.755  1.8044 -0.1502  0.4167
 5978TIP3    H239494   4.011   4.515   0.635  0.6661 -0.2734 -0.2070
 5979TIP3   OH239495   5.669   1.781   0.742 -0.4005 -0.0823  0.3923
 5979TIP3    H139496   5.595   1.733   0.778 -0.1300  0.6102  1.9583
 5979TIP3    H239497   5.633   1.826   0.665 -0.9203 -1.8395 -0.4261
 5980TIP3   OH239498   0.372   6.659   7.730  0.0260  0.0910 -0.4664
 5980TIP3    H139499   0.417   6.720   7.788 -1.2204 -0.4499  1.1301
 5980TIP3    H239500   0.282   6.690   7.727 -0.6739 -1.6695  0.4971
 5981TIP3   OH239501   2.385   6.141   8.379 -0.8714  0.3374 -0.0254
 5981TIP3    H139502   2.315   6.106   8.323 -1.3116  0.0965  0.6604
 5981TIP3    H239503   2.428   6.208   8.325 -0.6016 -0.6173 -1.0378
 5982TIP3   OH239504   0.991   3.985   7.401 -0.5807  0.6365  0.0919
 5982TIP3    H139505   0.900   3.955   7.407 -0.7005  0.8704 -0.4765
 5982TIP3    H239506   1.000   4.048   7.474 -0.9702  0.8509 -0.0389
 5983TIP3   OH239507   1.088   6.535   7.071 -0.0166 -0.5966 -0.9627
 5983TIP3    H139508   1.052   6.530   6.983 -0.9395  3.3766 -1.0427
 5983TIP3    H239509   1.172   6.581   7.060  0.9214 -1.9974  0.0617
 5984TIP3   OH239510   5.584   0.704   7.235 -0.4621  0.0563  0.0671
 5984TIP3    H139511   5.489   0.695   7.237 -0.4330 -0.7390 -1.0160
 5984TIP3    H239512   5.601   0.767   7.164 -0.2467  1.7760  1.5873
 5985TIP3   OH239513   1.520   3.273   7.823  0.2640  0.2610 -0.0266
 5985TIP3    H139514   1.578   3.325   7.880  1.0895  0.3965 -0.9535
 5985TIP3    H239515   1.569   3.264   7.741 -0.5072 -0.7201 -0.4015
 5986TIP3   OH239516   1.022   0.023   8.421  0.5001 -0.6570 -0.2845
 5986TIP3    H139517   1.005  -0.003   8.330 -0.8439 -0.8443  0.0067
 5986TIP3    H239518   0.967  -0.034   8.474  0.8081 -0.1437  0.6236
 5987TIP3   OH239519   4.135   1.344   8.155 -0.1939  0.2026 -0.1531
 5987TIP3    H139520   4.049   1.356   8.115 -0.5225  1.5438  0.8845
 5987TIP3    H239521   4.117   1.294   8.235  0.3704 -1.8477 -1.2314
 5988TIP3   OH239522   0.327   4.477   7.791 -0.0674 -0.6014  0.1557
 5988TIP3    H139523   0.419   4.493   7.814  0.0814  0.8749 -1.3353
 5988TIP3    H239524   0.278   4.545   7.838 -0.3027 -0.7865  0.1824
 5989TIP3   OH239525   2.194   6.524   7.714 -0.3294 -0.3433 -0.5295
 5989TIP3    H139526   2.179   6.601   7.659 -0.1760 -0.8757 -1.3488
 5989TIP3    H239527   2.132   6.533   7.786 -1.4537 -0.2471 -1.4781
 5990TIP3   OH239528   5.266   1.802   7.546  0.2752 -0.2671  0.7186
 5990TIP3    H139529   5.209   1.726   7.559 -1.4068  1.2580  3.1496
 5990TIP3    H239530   5.215   1.862   7.492  0.6011  0.1092  0.8228
 5991TIP3   OH239531   3.113   0.285   1.335 -0.2344 -0.4628 -0.2070
 5991TIP3    H139532   3.114   0.221   1.407 -1.8574 -1.6411 -1.1705
 5991TIP3    H239533   3.054   0.354   1.366  0.2631 -0.2104  0.1906
 5992TIP3   OH239534   0.662   4.648   8.285  0.2945  0.2951  0.2960
 5992TIP3    H139535   0.625   4.616   8.367 -0.4753 -0.2340 -0.2471
 5992TIP3    H239536   0.686   4.568   8.237 -0.8723  0.5256 -0.7169
 5993TIP3   OH239537   6.177   2.410   2.368 -0.0471  0.2874 -0.1205
 5993TIP3    H139538   6.115   2.461   2.420 -1.1653  0.3382 -1.4428
 5993TIP3    H239539   6.128   2.386   2.289  1.7074  0.5525 -1.3362
 5994TIP3   OH239540   3.061   0.622   0.183  0.0120  0.0882 -0.0402
 5994TIP3    H139541   3.024   0.705   0.213 -1.2527 -0.3960 -0.2010
 5994TIP3    H239542   2.988   0.577   0.141  0.6670 -1.1353  0.0924
 5995TIP3   OH239543   1.806   0.059   7.865 -0.2745 -0.0538 -0.1310
 5995TIP3    H139544   1.747  -0.016   7.872 -0.0957 -0.1795  0.0411
 5995TIP3    H239545   1.781   0.101   7.783 -0.5037 -0.1921 -0.1336
 5996TIP3   OH239546   5.142   0.470   7.309  0.3582  0.0062  0.7845
 5996TIP3    H139547   5.209   0.509   7.365 -0.2037  1.9614  0.1705
 5996TIP3    H239548   5.065   0.461   7.365  0.7363 -1.0510  1.1518
 5997TIP3   OH239549   6.000   1.712   8.120  0.5883  0.3913 -0.4609
 5997TIP3    H139550   5.922   1.768   8.117 -0.3434 -0.8394 -0.2479
 5997TIP3    H239551   6.023   1.709   8.213  0.1634 -0.1738 -0.3649
 5998TIP3   OH239552   0.534   6.265   7.844 -0.1693  0.0804  0.2576
 5998TIP3    H139553   0.496   6.344   7.884  0.5117  1.2702 -1.3518
 5998TIP3    H239554   0.586   6.226   7.914  1.2610  2.2886  0.5342
 5999TIP3   OH239555   5.218   1.095   1.283 -0.2869  0.2177  0.1425
 5999TIP3    H139556   5.287   1.151   1.248  0.0917 -0.0362  0.4632
 5999TIP3    H239557   5.147   1.101   1.219 -0.0349  0.6179 -0.1060
 6000TIP3   OH239558   2.503   4.590   7.768  0.7791 -0.2159 -0.5770
 6000TIP3    H139559   2.569   4.578   7.835  2.1726  0.2253 -1.8213
 6000TIP3    H239560   2.533   4.536   7.695 -1.2209 -1.5078 -0.5442
 6001TIP3   OH239561   3.044   6.710   1.123 -0.1815 -0.0373 -0.1165
 6001TIP3    H139562   2.982   6.777   1.152  0.2434  0.4157 -0.2504
 6001TIP3    H239563   3.100   6.694   1.199  0.0380  0.1248 -0.2443
 6002TIP3   OH239564   4.057   3.839   1.545  0.1090  0.8235  0.1885
 6002TIP3    H139565   4.016   3.869   1.627 -1.4358 -0.8501  0.1107
 6002TIP3    H239566   4.010   3.885   1.476 -0.0811  0.6242  0.1824
 6003TIP3   OH239567   6.229   6.285   0.980  0.0179  0.0186 -0.1048
 6003TIP3    H139568   6.317   6.255   0.959 -0.7113 -0.6084 -2.6428
 6003TIP3    H239569   6.178   6.204   0.987 -0.5643  0.4124  0.2368
 6004TIP3   OH239570   3.912   1.013   7.997 -0.0204 -0.2008 -0.1524
 6004TIP3    H139571   3.832   1.064   8.003  0.7139  1.2013 -1.5757
 6004TIP3    H239572   3.917   0.986   7.906  1.8229  0.9769 -0.4587
 6005TIP3   OH239573   3.610   5.201   0.334  0.0200  0.3333  0.1432
 6005TIP3    H139574   3.655   5.283   0.314 -1.4552  0.8711 -1.1298
 6005TIP3    H239575   3.559   5.182   0.256 -1.5204 -0.5472  1.3141
 6006TIP3   OH239576   4.272   2.655   0.960  0.8534 -0.5968 -0.2806
 6006TIP3    H139577   4.268   2.604   1.040  1.5320 -2.8641 -1.6141
 6006TIP3    H239578   4.354   2.704   0.966  0.3363  0.1830  0.8793
 6007TIP3   OH239579   0.740   4.720   7.081 -0.4391 -0.3203 -0.2558
 6007TIP3    H139580   0.719   4.672   7.000 -1.9457 -1.3602  0.6895
 6007TIP3    H239581   0.656   4.759   7.107  0.3649  1.3563 -0.0036
 6008TIP3   OH239582   5.703   6.029   1.927  0.0391  0.2784 -0.5931
 6008TIP3    H139583   5.672   5.986   1.847 -1.2538 -0.3628  0.2112
 6008TIP3    H239584   5.772   5.972   1.960 -0.4287 -0.2433 -0.4949
 6009TIP3   OH239585   4.049   6.122   1.375  0.1526 -0.0009 -0.6358
 6009TIP3    H139586   3.960   6.159   1.373  0.3636  0.6906  1.0742
 6009TIP3    H239587   4.106   6.198   1.368  0.6329 -0.4287 -1.5055
 6010TIP3   OH239588   2.410   3.749   1.592 -0.2095 -0.1174  0.3116
 6010TIP3    H139589   2.455   3.739   1.509 -0.5521 -2.1385  0.3191
 6010TIP3    H239590   2.341   3.814   1.575  0.7598  0.7256 -0.4941
 6011TIP3   OH239591   6.455   0.117   7.761  0.6192  0.0204 -0.3475
 6011TIP3    H139592   6.368   0.157   7.760  1.2163  1.4373  0.6504
 6011TIP3    H239593   6.439   0.023   7.773 -0.7601  0.2664 -0.1497
 6012TIP3   OH239594   1.823   0.137   7.291 -0.4711 -0.0378  0.2505
 6012TIP3    H139595   1.735   0.104   7.308 -1.1508 -0.0340 -2.6899
 6012TIP3    H239596   1.876   0.059   7.277  0.1744 -0.0575  2.4176
 6013TIP3   OH239597   0.964   0.623   6.513  0.1435 -0.1156  0.5408
 6013TIP3    H139598   0.939   0.714   6.497  0.0992 -0.3574 -0.8369
 6013TIP3    H239599   0.950   0.611   6.607 -1.1210  0.9188  0.5170
 6014TIP3   OH239600   1.663   3.852   2.372 -1.0256  0.0678  0.0339
 6014TIP3    H139601   1.738   3.837   2.314 -0.9292 -0.1620  0.2199
 6014TIP3    H239602   1.615   3.770   2.372 -1.0774  0.0971  0.2055
 6015TIP3   OH239603   2.539   2.582   8.147 -0.1886 -0.4065 -0.0892
 6015TIP3    H139604   2.577   2.583   8.234  1.0942  1.7218 -0.5998
 6015TIP3    H239605   2.610   2.554   8.089  0.0512  1.5226 -0.8049
 6016TIP3   OH239606   2.739   4.811   7.766  0.1120  0.3498  0.1190
 6016TIP3    H139607   2.793   4.736   7.741 -3.5005 -2.5902  0.3573
 6016TIP3    H239608   2.732   4.804   7.861 -1.4768  0.0026  0.0009
 6017TIP3   OH239609   5.033   6.655   6.538  0.7127 -0.4484 -0.1404
 6017TIP3    H139610   5.119   6.621   6.515  0.7486  0.3817 -1.3522
 6017TIP3    H239611   5.035   6.746   6.507  0.0144  0.1227  1.4009
 6018TIP3   OH239612   6.276   2.141   8.726  0.1700 -0.9435 -0.5901
 6018TIP3    H139613   6.334   2.142   8.802  0.5630 -1.4802 -0.8708
 6018TIP3    H239614   6.204   2.084   8.751  0.6313 -1.6554 -0.8449
 6019TIP3   OH239615   1.400   2.765   6.814  0.2888  0.7103 -0.1158
 6019TIP3    H139616   1.324   2.735   6.764  1.0134 -1.7807  0.1530
 6019TIP3    H239617   1.444   2.827   6.757 -0.7765  0.5653 -1.1344
 6020TIP3   OH239618   4.459   1.164   0.838  0.4893 -0.4444 -0.1635
 6020TIP3    H139619   4.387   1.213   0.799  0.6368 -0.1767 -0.1011
 6020TIP3    H239620   4.482   1.214   0.917  0.7159 -0.5494 -0.1613
 6021TIP3   OH239621   1.245   5.526   6.875  0.0025  0.1746 -0.6147
 6021TIP3    H139622   1.188   5.510   6.951  0.4112 -3.5974 -0.8921
 6021TIP3    H239623   1.330   5.548   6.914 -0.0344 -0.7776  0.0567
 6022TIP3   OH239624   5.452   3.581   7.500  0.2949 -0.1333 -0.4477
 6022TIP3    H139625   5.380   3.633   7.465 -0.2762 -0.8489 -0.3747
 6022TIP3    H239626   5.525   3.642   7.507 -0.0800  0.4299 -1.2521
 6023TIP3   OH239627   5.289   0.986   0.746  0.1441  0.1187 -0.3242
 6023TIP3    H139628   5.258   0.990   0.656  0.3706 -0.9075 -0.4598
 6023TIP3    H239629   5.235   1.051   0.793 -0.9872 -0.3681 -0.9083
 6024TIP3   OH239630   2.085   1.990   7.049  0.6075  0.6649  0.4743
 6024TIP3    H139631   2.057   2.077   7.020 -2.1044 -0.3307 -0.1641
 6024TIP3    H239632   2.096   1.998   7.143 -0.4192  1.5303  0.5365
 6025TIP3   OH239633   3.482   4.901   7.701  0.0885  0.3549  0.3002
 6025TIP3    H139634   3.557   4.852   7.667  1.3473  0.8602  2.1823
 6025TIP3    H239635   3.409   4.840   7.697 -0.0242  0.4728 -3.5083
 6026TIP3   OH239636   4.886   1.788   1.191 -0.0740 -0.0284  0.1926
 6026TIP3    H139637   4.892   1.729   1.267  1.5818 -0.9945 -0.6524
 6026TIP3    H239638   4.848   1.868   1.227  0.8154 -0.4059  2.0859
 6027TIP3   OH239639   0.432   3.687   7.648  0.0318 -0.4408 -0.1723
 6027TIP3    H139640   0.376   3.609   7.653  0.9959 -1.1734 -0.3298
 6027TIP3    H239641   0.519   3.652   7.625  0.6791  0.5937  0.6037
 6028TIP3   OH239642   3.343   4.971   8.645 -0.3147  0.2227  1.0323
 6028TIP3    H139643   3.308   4.920   8.572  1.5422  0.1663  0.1158
 6028TIP3    H239644   3.314   5.061   8.627 -0.6186  0.0595  0.6977
 6029TIP3   OH239645   3.801   4.940   1.316 -0.6967 -0.2981  0.4834
 6029TIP3    H139646   3.834   4.910   1.401  3.5409  3.2578  0.5092
 6029TIP3    H239647   3.782   5.033   1.330 -2.2617 -0.1884 -1.9258
 6030TIP3   OH239648   5.334   4.788   7.623 -0.1483 -0.2889  0.0175
 6030TIP3    H139649   5.425   4.772   7.645  0.5088  1.5788 -1.1081
 6030TIP3    H239650   5.311   4.868   7.670 -1.1205 -0.5753  0.0551
 6031TIP3   OH239651   2.875   1.098   2.096 -0.3786  0.3479 -0.3138
 6031TIP3    H139652   2.904   1.021   2.144 -2.4264 -0.7328 -0.6657
 6031TIP3    H239653   2.878   1.071   2.004  1.5692  1.7004 -0.7115
 6032TIP3   OH239654   1.763   3.829   7.526 -0.0365 -0.1580 -0.3270
 6032TIP3    H139655   1.694   3.765   7.511  0.1483 -0.4697  0.1237
 6032TIP3    H239656   1.736   3.875   7.606 -0.5106  0.7965 -1.0181
 6033TIP3   OH239657   2.621   3.189   0.140  0.3086  0.0868  0.2894
 6033TIP3    H139658   2.526   3.179   0.134  0.4493 -0.3209 -1.7006
 6033TIP3    H239659   2.635   3.283   0.147 -0.2402  0.1400  0.7741
 6034TIP3   OH239660   5.442   5.071   8.296  0.0626 -0.0227  0.3894
 6034TIP3    H139661   5.503   5.014   8.343  0.4665  0.6081  0.6407
 6034TIP3    H239662   5.473   5.160   8.314 -0.1768  0.2576 -0.5247
 6035TIP3   OH239663   4.815   4.745   7.395  0.5020  0.1332  0.1913
 6035TIP3    H139664   4.740   4.782   7.441 -0.7362 -0.6247 -1.1351
 6035TIP3    H239665   4.782   4.664   7.356  2.0346 -0.2533 -0.3793
 6036TIP3   OH239666   4.195   2.964   8.547 -0.4057  0.3221 -0.3316
 6036TIP3    H139667   4.142   2.950   8.625  0.3241 -0.8309 -0.0210
 6036TIP3    H239668   4.157   2.905   8.481  1.0802 -1.3520  0.2113
 6037TIP3   OH239669   4.307   0.029   7.973  0.3807  1.2128  0.4050
 6037TIP3    H139670   4.273  -0.036   8.035 -0.8163 -0.2742 -1.6657
 6037TIP3    H239671   4.234   0.089   7.958  0.3008  0.9481 -0.3140
 6038TIP3   OH239672   4.426   5.676   8.492  0.0065  0.5829  0.2204
 6038TIP3    H139673   4.357   5.728   8.533  1.2519  2.3747  0.1753
 6038TIP3    H239674   4.478   5.740   8.443  2.1659 -0.5514  0.8965
 6039TIP3   OH239675   3.203   0.300   7.983  0.0645  0.6737 -0.4171
 6039TIP3    H139676   3.266   0.240   7.942 -0.0445  0.1939  0.1010
 6039TIP3    H239677   3.141   0.322   7.913 -0.1782 -0.2163 -0.4900
 6040TIP3   OH239678   3.485   3.890   7.352  0.3199  0.2335  0.0880
 6040TIP3    H139679   3.455   3.866   7.264  1.6919  0.2377 -0.4122
 6040TIP3    H239680   3.492   3.806   7.398  1.5718 -0.0106 -0.4896
 6041TIP3   OH239681   0.144   3.623   7.521  0.0218  0.3082  0.2131
 6041TIP3    H139682   0.195   3.548   7.492 -1.6821 -0.6050 -0.5460
 6041TIP3    H239683   0.127   3.673   7.441 -1.7629 -0.3679  0.1357
 6042TIP3   OH239684   3.743   1.922   7.995 -0.1199  0.1197  0.0051
 6042TIP3    H139685   3.771   1.924   7.903 -0.8234  1.7960 -0.2164
 6042TIP3    H239686   3.757   2.012   8.026  1.5122 -0.7397  2.0016
 6043TIP3   OH239687   5.383   2.486   7.855 -0.0346 -0.1200 -0.2722
 6043TIP3    H139688   5.443   2.560   7.868  0.5272 -0.7927  1.1707
 6043TIP3    H239689   5.436   2.419   7.813  0.2349 -0.6734  0.8984
 6044TIP3   OH239690   0.081   2.384   7.694 -0.0754 -0.1197 -0.0607
 6044TIP3    H139691  -0.006   2.363   7.728 -0.1882 -1.0243 -0.8811
 6044TIP3    H239692   0.120   2.439   7.762 -0.4843 -1.4586  1.3311
 6045TIP3   OH239693   2.798   6.590   1.932  0.0255 -0.0112  0.0717
 6045TIP3    H139694   2.726   6.565   1.874 -1.9850  2.4488  1.3213
 6045TIP3    H239695   2.767   6.567   2.020  1.5048 -0.4227  0.5189
 6046TIP3   OH239696   0.820   1.520   0.776 -0.3308  0.9156  0.2966
 6046TIP3    H139697   0.883   1.450   0.792  0.1625  1.2119 -0.3041
 6046TIP3    H239698   0.749   1.479   0.727 -0.4041  0.6707  0.6079
 6047TIP3   OH239699   6.546   3.867   0.509  0.7232  0.0276  0.7998
 6047TIP3    H139700   6.565   3.778   0.540  0.1284 -0.2894  0.2701
 6047TIP3    H239701   6.601   3.923   0.564  0.0288 -0.5471  2.1266
 6048TIP3   OH239702   3.504   4.458   7.400  1.2201  0.9886 -0.6838
 6048TIP3    H139703   3.517   4.472   7.494  1.1644  2.6511 -0.8852
 6048TIP3    H239704   3.420   4.500   7.381  0.2615 -1.0287 -1.1563
 6049TIP3   OH239705   4.792   5.207   0.429  0.5356  0.0163  0.4644
 6049TIP3    H139706   4.771   5.213   0.336 -0.1406 -1.1641  0.5133
 6049TIP3    H239707   4.762   5.290   0.466 -1.4152 -0.4492  0.0239
 6050TIP3   OH239708   6.253   4.883   1.303  0.4460  0.1137  0.1561
 6050TIP3    H139709   6.271   4.877   1.397  2.5996  1.0056 -0.1525
 6050TIP3    H239710   6.275   4.796   1.269 -0.3810 -0.2257  0.4541
 6051TIP3   OH239711   0.894   4.437   1.683 -0.3932 -0.9207 -0.2780
 6051TIP3    H139712   0.983   4.409   1.660  0.0528 -0.3372  0.6795
 6051TIP3    H239713   0.842   4.419   1.605  0.9955  0.7065 -1.6537
 6052TIP3   OH239714   6.159   2.655   0.633  0.3468 -0.0701 -0.4885
 6052TIP3    H139715   6.075   2.642   0.676 -0.1463 -1.9970 -1.8448
 6052TIP3    H239716   6.162   2.748   0.611 -1.4489  0.0278 -0.4255
 6053TIP3   OH239717   1.530   6.272   0.043 -0.2353  0.3384  0.1937
 6053TIP3    H139718   1.608   6.318   0.012  1.8917 -3.4088 -0.6191
 6053TIP3    H239719   1.564   6.196   0.090 -3.4691  0.1424  2.6194
 6054TIP3   OH239720   0.193   4.214   8.118  0.6977  0.6775 -0.2570
 6054TIP3    H139721   0.251   4.280   8.156  0.4908  0.8487 -0.2351
 6054TIP3    H239722   0.107   4.255   8.120  0.3833 -0.0041  0.7375
 6055TIP3   OH239723   4.181   0.877   0.465 -0.0785  0.5047  0.2232
 6055TIP3    H139724   4.231   0.842   0.538  2.9624  1.5623 -1.1706
 6055TIP3    H239725   4.189   0.972   0.474  0.1173  0.6554 -1.3002
 6056TIP3   OH239726   1.431   0.598   1.832 -0.3985 -0.3090  0.0953
 6056TIP3    H139727   1.342   0.576   1.805 -0.9226  0.3526  1.2247
 6056TIP3    H239728   1.474   0.626   1.751 -1.4990  0.2673 -0.3129
 6057TIP3   OH239729   1.927   6.615   8.810  0.0041  0.1447 -0.3779
 6057TIP3    H139730   1.996   6.681   8.801 -0.3595  0.4752 -0.7729
 6057TIP3    H239731   1.854   6.662   8.850 -0.0317 -0.1814 -0.0519
 6058TIP3   OH239732   3.325   0.359   7.137 -0.4700 -0.4334  0.5083
 6058TIP3    H139733   3.300   0.451   7.148 -0.7320 -0.1983 -1.6308
 6058TIP3    H239734   3.244   0.310   7.152 -0.8556 -0.1193 -0.4275
 6059TIP3   OH239735   2.741   0.168   7.028  0.2084  0.3633  0.1702
 6059TIP3    H139736   2.704   0.255   7.014  1.4961  0.8124 -0.6504
 6059TIP3    H239737   2.675   0.108   6.994  0.5677  1.1808 -2.1575
 6060TIP3   OH239738   6.396   6.489   6.807 -0.1095  0.1737  0.7318
 6060TIP3    H139739   6.397   6.584   6.813 -2.9002  0.4252 -0.8434
 6060TIP3    H239740   6.336   6.462   6.877  0.7453 -0.4446  1.2323
 6061TIP3   OH239741   5.494   3.225   8.129  0.0411  0.2415  0.0463
 6061TIP3    H139742   5.527   3.242   8.217  1.3452 -1.8203  0.0130
 6061TIP3    H239743   5.399   3.222   8.140 -0.0851  3.1401  0.7250
 6062TIP3   OH239744   6.514   3.526   1.002 -0.0596  0.4636 -0.3555
 6062TIP3    H139745   6.527   3.465   1.075 -2.3281 -1.9800 -1.8365
 6062TIP3    H239746   6.603   3.548   0.974  0.8518  0.0297  1.9264
 6063TIP3   OH239747   2.137   1.453   0.018  0.1323  0.2206 -0.3636
 6063TIP3    H139748   2.222   1.493   0.030 -0.5313  1.1810  1.5366
 6063TIP3    H239749   2.119   1.408   0.101 -1.2361  0.0996 -0.6929
 6064TIP3   OH239750   1.502   2.917   2.217 -0.4854  0.1235  0.2308
 6064TIP3    H139751   1.579   2.865   2.238 -0.6194  0.2882  1.1836
 6064TIP3    H239752   1.433   2.882   2.274 -1.4244 -0.7639 -1.4016
 6065TIP3   OH239753   0.104   1.702   6.812 -0.2493  0.3370  0.3161
 6065TIP3    H139754   0.097   1.797   6.813 -0.5833  0.3270 -0.3998
 6065TIP3    H239755   0.083   1.677   6.722  0.2854 -0.3829  0.3800
 6066TIP3   OH239756   5.413   3.877   0.817  0.1202  0.0855  0.3833
 6066TIP3    H139757   5.506   3.886   0.795  0.0810 -0.1927  0.0986
 6066TIP3    H239758   5.371   3.854   0.734 -0.0474 -0.8899  0.7283
 6067TIP3   OH239759   4.264   5.727   7.549  0.4070  0.1325  0.0304
 6067TIP3    H139760   4.235   5.718   7.458  1.5398  0.2127 -0.3563
 6067TIP3    H239761   4.358   5.744   7.542  0.0054  3.4671  1.0734
 6068TIP3   OH239762   2.585   5.116   7.085 -0.4078 -0.2600 -0.4727
 6068TIP3    H139763   2.538   5.068   7.154 -1.1647 -1.7876 -1.9889
 6068TIP3    H239764   2.641   5.051   7.044  1.4999  1.0676 -0.1250
 6069TIP3   OH239765   6.302   4.040   2.309  0.8128  0.3443 -0.0106
 6069TIP3    H139766   6.245   4.035   2.232  0.2547 -2.4240  0.4802
 6069TIP3    H239767   6.269   4.115   2.358 -0.6281  0.4865 -1.1184
 6070TIP3   OH239768   3.424   3.639   0.875 -0.0032  0.1496 -0.0332
 6070TIP3    H139769   3.422   3.553   0.834 -2.1839 -0.0454  0.3895
 6070TIP3    H239770   3.426   3.621   0.969 -0.8876  0.5575  0.0674
 6071TIP3   OH239771   3.082   6.325   7.731  0.3054 -0.1994  0.6955
 6071TIP3    H139772   3.082   6.361   7.642  0.3130 -0.9371  0.3919
 6071TIP3    H239773   3.047   6.396   7.786 -0.3055  0.0399  0.0128
 6072TIP3   OH239774   2.235   0.287   7.487 -0.4031 -0.6393  0.2809
 6072TIP3    H139775   2.233   0.203   7.534  0.1701 -1.0779 -0.4482
 6072TIP3    H239776   2.150   0.292   7.444  0.2264 -1.7630 -1.1848
 6073TIP3   OH239777   5.492   3.764   1.360 -0.1674  0.2903  0.5783
 6073TIP3    H139778   5.506   3.739   1.268  0.3457 -2.3617  1.2883
 6073TIP3    H239779   5.466   3.856   1.356  2.7618  1.1809 -1.9880
 6074TIP3   OH239780   0.447   0.781   8.612 -0.3364  0.2637  0.5906
 6074TIP3    H139781   0.460   0.690   8.586  0.8658 -0.2966  2.8764
 6074TIP3    H239782   0.354   0.787   8.634 -0.6265 -0.1305 -0.4814
 6075TIP3   OH239783   2.992   2.145   8.490  0.1367 -0.0191  0.6461
 6075TIP3    H139784   3.010   2.233   8.459  0.6676 -0.7219 -1.1902
 6075TIP3    H239785   3.067   2.123   8.545  0.4650  0.3435  0.3454
 6076TIP3   OH239786   0.856   4.473   7.892 -0.1552  0.4077 -0.2980
 6076TIP3    H139787   0.906   4.447   7.815 -1.4876 -1.8370 -0.4917
 6076TIP3    H239788   0.770   4.498   7.858 -0.8586 -0.8999  0.4404
 6077TIP3   OH239789   0.622   5.259   6.627 -0.1857 -0.3403 -0.3288
 6077TIP3    H139790   0.527   5.251   6.629 -0.1580 -1.0945 -1.4615
 6077TIP3    H239791   0.653   5.179   6.584  0.9511 -0.0276 -0.1386
 6078TIP3   OH239792   0.268   2.688   1.174 -0.1822  0.3489 -0.0114
 6078TIP3    H139793   0.272   2.781   1.148  2.4089 -0.0024 -1.2093
 6078TIP3    H239794   0.312   2.642   1.102 -2.1315 -1.9491  0.1635
 6079TIP3   OH239795   1.228   4.640   6.989 -0.1642 -0.3965 -0.4642
 6079TIP3    H139796   1.159   4.581   6.961 -0.1111 -0.9011  0.4452
 6079TIP3    H239797   1.205   4.725   6.950 -0.6648 -0.8288 -1.1137
 6080TIP3   OH239798   5.114   0.084   8.436 -0.2232  0.1927  0.4513
 6080TIP3    H139799   5.209   0.086   8.448 -0.0908  0.2482 -0.5170
 6080TIP3    H239800   5.091   0.176   8.419 -0.6295  0.3764  1.8755
 6081TIP3   OH239801   3.102   4.742   8.759 -0.5148 -0.0345  0.0835
 6081TIP3    H139802   3.090   4.691   8.679 -3.2870  1.6542 -0.7199
 6081TIP3    H239803   3.147   4.821   8.731 -1.1335  0.3848  0.2631
 6082TIP3   OH239804   1.243   6.177   7.405 -0.0689  0.5563  0.4845
 6082TIP3    H139805   1.234   6.236   7.330 -0.7751  0.7538  0.7112
 6082TIP3    H239806   1.217   6.231   7.480 -2.5562 -0.5066  0.4992
 6083TIP3   OH239807   0.213   6.012   0.789  0.1362 -0.3147  0.1526
 6083TIP3    H139808   0.235   6.059   0.708 -0.5281  2.4289  1.4357
 6083TIP3    H239809   0.123   6.039   0.808  0.8728  0.6162  2.7163
 6084TIP3   OH239810   3.961   1.204   1.581  0.2550  0.0349 -0.1046
 6084TIP3    H139811   3.915   1.284   1.557  0.1794  0.3868  1.1468
 6084TIP3    H239812   3.897   1.134   1.568 -0.7383  0.5320  1.7917
 6085TIP3   OH239813   1.014   0.322   0.571 -0.1477 -0.0518 -0.6079
 6085TIP3    H139814   0.938   0.325   0.514  1.3079  0.6717 -2.6128
 6085TIP3    H239815   0.978   0.320   0.660 -2.4599  0.9489 -1.4633
 6086TIP3   OH239816   1.153   5.323   6.731 -0.1543 -0.2148 -0.3581
 6086TIP3    H139817   1.223   5.302   6.669 -0.9083 -2.6211 -0.5323
 6086TIP3    H239818   1.183   5.400   6.777  1.9604 -0.3507 -1.4076
 6087TIP3   OH239819   1.747   0.447   1.066 -0.8114 -0.7465 -0.0790
 6087TIP3    H139820   1.698   0.451   0.984 -0.6455 -0.7185 -0.1783
 6087TIP3    H239821   1.826   0.397   1.044 -0.2235  0.2277 -0.2247
 6088TIP3   OH239822   1.274   3.887   7.398 -0.5081 -0.4818  0.0578
 6088TIP3    H139823   1.286   3.889   7.303 -0.2707  2.4457  0.0401
 6088TIP3    H239824   1.181   3.906   7.410 -0.7915 -1.9858  0.4417
 6089TIP3   OH239825   1.796   1.778   0.838 -0.0227 -0.0413  0.0326
 6089TIP3    H139826   1.833   1.865   0.820  0.8776  0.1377  2.4706
 6089TIP3    H239827   1.718   1.795   0.890  0.5402 -0.7086  1.1160
 6090TIP3   OH239828   4.971   0.617   7.898  0.3792 -1.1649 -0.0336
 6090TIP3    H139829   4.944   0.693   7.847  0.1964 -1.8048 -0.9262
 6090TIP3    H239830   4.888   0.579   7.929  0.1756 -2.9113 -2.4501
 6091TIP3   OH239831   4.012   3.393   1.293 -0.9859  0.3155 -0.3391
 6091TIP3    H139832   4.043   3.441   1.370  0.2704  0.9047 -1.1933
 6091TIP3    H239833   4.062   3.429   1.220 -1.7569 -0.6250 -1.3637
 6092TIP3   OH239834   0.143   2.276   1.100 -0.2009  0.1329  0.0600
 6092TIP3    H139835   0.195   2.244   1.027 -0.3277  1.8035 -0.8088
 6092TIP3    H239836   0.095   2.351   1.065 -0.4437  0.8406  1.7904
 6093TIP3   OH239837   1.020   2.734   1.038  0.2773  0.0609 -0.0978
 6093TIP3    H139838   0.940   2.744   0.987 -0.8688 -0.0965  1.5776
 6093TIP3    H239839   1.012   2.798   1.109  1.2783 -0.4701  0.5293
 6094TIP3   OH239840   4.641   1.104   8.225  0.5824 -0.2994  0.1305
 6094TIP3    H139841   4.682   1.178   8.270  0.7030 -0.4049  0.1951
 6094TIP3    H239842   4.563   1.084   8.277  0.6492 -0.3350  0.2170
 6095TIP3   OH239843   3.553   3.306   7.827 -0.1834  0.0257 -0.4913
 6095TIP3    H139844   3.466   3.295   7.863 -1.1153 -0.7626 -2.7958
 6095TIP3    H239845   3.590   3.381   7.874 -1.8490 -0.0107  0.9428
 6096TIP3   OH239846   1.053   4.499   0.995  0.5033  0.1821 -0.1117
 6096TIP3    H139847   1.139   4.525   1.027  0.6663  0.8222 -1.0459
 6096TIP3    H239848   1.024   4.432   1.057  2.6536 -1.7588 -1.0643
 6097TIP3   OH239849   2.406   3.353   8.340 -0.4636 -0.5298 -0.3244
 6097TIP3    H139850   2.348   3.332   8.267  0.0607 -1.7193 -0.4259
 6097TIP3    H239851   2.381   3.292   8.409 -1.4760  1.0848  0.8208
 6098TIP3   OH239852   3.358   5.640   0.521  0.2002  0.5227  0.0176
 6098TIP3    H139853   3.332   5.554   0.488 -0.1317  0.3999  0.5844
 6098TIP3    H239854   3.453   5.634   0.531  0.2043  0.2973 -0.1630
 6099TIP3   OH239855   1.357   6.118   0.493 -0.7563 -0.5059  0.2194
 6099TIP3    H139856   1.422   6.048   0.491 -1.2685 -0.9805  0.2038
 6099TIP3    H239857   1.398   6.189   0.443  1.4524  0.7117  3.4125
 6100TIP3   OH239858   0.228   5.140   1.797 -0.5876 -0.2142  1.0017
 6100TIP3    H139859   0.310   5.161   1.843  1.2694 -1.0186 -1.6611
 6100TIP3    H239860   0.196   5.062   1.842  0.0767  0.1335  2.1315
 6101TIP3   OH239861   6.720   5.789   0.290 -0.4074  0.1257  0.3361
 6101TIP3    H139862   6.686   5.699   0.293  0.0434 -0.0339  0.9048
 6101TIP3    H239863   6.700   5.819   0.201  0.9314 -1.1305 -0.4363
 6102TIP3   OH239864   5.590   5.209   0.769 -0.1325  0.7033 -0.0387
 6102TIP3    H139865   5.657   5.262   0.726 -0.2615 -0.4925 -1.8522
 6102TIP3    H239866   5.563   5.261   0.845  3.7342  0.6728  1.5927
 6103TIP3   OH239867   0.718   2.616   6.803  0.3999 -0.1963  0.0043
 6103TIP3    H139868   0.661   2.605   6.879 -1.5018  0.3862 -1.2712
 6103TIP3    H239869   0.713   2.709   6.782  1.4430 -0.2283 -0.4679
 6104TIP3   OH239870   0.336   2.053   0.214 -0.0494 -0.2235 -0.1146
 6104TIP3    H139871   0.401   1.996   0.254  0.9260 -0.8335 -2.3945
 6104TIP3    H239872   0.384   2.134   0.194 -0.4298 -0.0357 -0.2817
 6105TIP3   OH239873   0.195   4.193   1.860 -0.0093 -0.1295 -0.0303
 6105TIP3    H139874   0.183   4.150   1.944  0.5798 -2.5202 -1.0782
 6105TIP3    H239875   0.126   4.260   1.856 -0.5610 -0.5277  1.9602
 6106TIP3   OH239876   2.905   4.998   7.073 -0.8918  0.1564 -0.6428
 6106TIP3    H139877   2.911   5.006   6.978  0.5570  0.3311 -0.5694
 6106TIP3    H239878   2.950   5.076   7.106 -2.1182  0.5274  0.2014
 6107TIP3   OH239879   3.113   5.436   2.054  0.0397 -0.0714  0.0101
 6107TIP3    H139880   3.029   5.397   2.029  0.5065  0.4739 -2.7090
 6107TIP3    H239881   3.179   5.373   2.025  0.6410  0.2742  0.5939
 6108TIP3   OH239882   2.350   6.414   1.863  0.1667  0.3262 -0.1278
 6108TIP3    H139883   2.357   6.400   1.957 -0.6588  0.0945 -0.0878
 6108TIP3    H239884   2.270   6.465   1.852 -0.5622 -0.8889 -0.7996
 6109TIP3   OH239885   2.855   4.310   1.547  0.0977  0.4232  0.4437
 6109TIP3    H139886   2.895   4.339   1.464 -1.6358  0.2510 -0.4970
 6109TIP3    H239887   2.891   4.370   1.613  1.0812  0.9284 -0.5070
 6110TIP3   OH239888   2.253   2.450   7.826 -0.1608 -0.4130 -0.4606
 6110TIP3    H139889   2.161   2.474   7.813  0.1365  1.6542  0.7952
 6110TIP3    H239890   2.302   2.510   7.770  0.5353  0.5152  1.1016
 6111TIP3   OH239891   4.150   2.544   2.022 -0.0628 -0.1442  0.0415
 6111TIP3    H139892   4.095   2.579   2.092 -0.2355  0.4813 -0.4023
 6111TIP3    H239893   4.186   2.463   2.059  0.9788  0.8726  1.3860
 6112TIP3   OH239894   6.407   5.923   8.570 -0.2335 -0.1576 -0.0032
 6112TIP3    H139895   6.418   5.953   8.480  1.2575 -1.2240 -0.2113
 6112TIP3    H239896   6.470   5.975   8.620  1.3333 -1.8112 -0.1421
 6113TIP3   OH239897   0.070   5.196   1.574  0.4875 -0.2857  0.0276
 6113TIP3    H139898   0.122   5.171   1.650 -2.3135  0.2310  2.2580
 6113TIP3    H239899  -0.006   5.137   1.575 -1.1848  1.7304 -0.4676
 6114TIP3   OH239900   4.320   4.792   0.786 -0.5627  0.1044 -1.0727
 6114TIP3    H139901   4.277   4.759   0.865 -1.8355 -2.4316 -2.6868
 6114TIP3    H239902   4.283   4.878   0.771 -0.8100  0.3337  0.6767
 6115TIP3   OH239903   0.648   2.887   2.286  0.4443  0.4278 -0.4937
 6115TIP3    H139904   0.664   2.917   2.375 -1.8526  0.4295 -0.0229
 6115TIP3    H239905   0.622   2.796   2.295  2.5332 -0.3427 -1.4548
 6116TIP3   OH239906   1.223   1.965   1.658 -1.3904 -0.4003 -0.3405
 6116TIP3    H139907   1.166   2.038   1.681  0.3677  0.6052  1.1189
 6116TIP3    H239908   1.288   2.002   1.599 -0.3372 -0.6835  0.6000
 6117TIP3   OH239909   0.901   6.632   0.241  0.6012 -0.4248  0.0696
 6117TIP3    H139910   0.819   6.582   0.234 -2.2829  3.7722 -0.4651
 6117TIP3    H239911   0.920   6.659   0.151  0.8463  0.9751  0.5120
 6118TIP3   OH239912   3.051   0.818   1.162  0.3012 -0.0531 -0.0838
 6118TIP3    H139913   3.071   0.853   1.075 -4.2622 -2.0755 -2.3038
 6118TIP3    H239914   3.076   0.726   1.156 -0.0091 -0.1948  0.7741
 6119TIP3   OH239915   3.778   6.380   7.534 -0.1469 -0.1710  0.5932
 6119TIP3    H139916   3.727   6.427   7.468  1.2480  0.3385 -0.1758
 6119TIP3    H239917   3.869   6.394   7.507  0.3533 -2.3999  0.9730
 6120TIP3   OH239918   1.905   6.467   0.511 -0.5413 -0.6271 -0.4680
 6120TIP3    H139919   1.966   6.407   0.554 -0.2101  0.0043 -0.0551
 6120TIP3    H239920   1.955   6.548   0.499 -0.1654 -1.1783 -3.2564
 6121TIP3   OH239921   2.053   4.604   0.644  0.4361 -0.5557  0.5302
 6121TIP3    H139922   2.069   4.615   0.551  2.5853 -3.0239  0.4928
 6121TIP3    H239923   1.958   4.612   0.654  0.1879  0.0592 -1.7880
 6122TIP3   OH239924   2.808   5.381   7.535 -0.2929 -0.5333 -0.3885
 6122TIP3    H139925   2.889   5.398   7.487  0.2355  0.1701  0.7227
 6122TIP3    H239926   2.816   5.291   7.565 -0.4521 -0.8485 -1.2566
 6123TIP3   OH239927   3.386   5.932   7.477  0.3203  0.0478 -0.3663
 6123TIP3    H139928   3.444   5.922   7.402 -0.7166 -0.0789 -1.1812
 6123TIP3    H239929   3.357   6.024   7.472  2.3170  0.8743  1.4734
 6124TIP3   OH239930   6.382   3.412   0.770  0.2353 -0.3602 -0.1123
 6124TIP3    H139931   6.313   3.352   0.798 -0.0631 -0.3173 -0.7357
 6124TIP3    H239932   6.430   3.433   0.850  1.3001 -2.6204 -0.0913
 6125TIP3   OH239933   6.474   6.796   1.763  0.1322 -0.2953  0.0031
 6125TIP3    H139934   6.454   6.758   1.849  1.3352 -1.2465 -0.0997
 6125TIP3    H239935   6.455   6.889   1.773 -0.7968 -0.5653  0.9567
 6126TIP3   OH239936   1.316   4.621   1.105  0.0722  0.1434 -0.2381
 6126TIP3    H139937   1.404   4.610   1.141 -1.2131 -0.6086  3.0343
 6126TIP3    H239938   1.283   4.701   1.146 -1.1456 -0.1621 -0.5859
 6127TIP3   OH239939   4.130   0.098   6.310 -0.7561  0.1004 -0.4343
 6127TIP3    H139940   4.197   0.110   6.243 -1.1693 -0.7155 -1.0134
 6127TIP3    H239941   4.047   0.106   6.262 -1.0980  1.3501  0.3148
 6128TIP3   OH239942   4.368   6.783   8.273  0.2988  0.1902 -0.4660
 6128TIP3    H139943   4.453   6.821   8.297 -0.6235  0.1939  3.3064
 6128TIP3    H239944   4.307   6.856   8.279 -0.4716 -0.4991  0.2372
 6129TIP3   OH239945   3.862   1.061   6.795 -0.1819  0.1808 -0.1056
 6129TIP3    H139946   3.871   0.979   6.844  0.9123  0.1682 -0.3047
 6129TIP3    H239947   3.776   1.054   6.753  1.0649 -2.2145 -2.5259
 6130TIP3   OH239948   0.508   2.970   7.807 -0.0368 -0.3042 -0.4282
 6130TIP3    H139949   0.546   2.919   7.736 -0.9446  0.4108 -1.4739
 6130TIP3    H239950   0.557   3.052   7.807 -1.9963  0.9880 -2.3697
 6131TIP3   OH239951   5.972   1.957   0.648  0.1141 -0.2241  0.1710
 6131TIP3    H139952   5.938   2.018   0.713 -1.6611 -0.3117 -0.6124
 6131TIP3    H239953   5.996   2.012   0.574 -0.3945 -0.3531 -0.0954
 6132TIP3   OH239954   6.190   5.247   7.178 -0.0700  0.2318  0.1171
 6132TIP3    H139955   6.283   5.263   7.162 -0.3737 -0.4455 -3.0588
 6132TIP3    H239956   6.147   5.331   7.158 -0.2707 -0.0012 -0.4794
 6133TIP3   OH239957   2.275   1.245   8.390 -0.3696  0.4802  0.0141
 6133TIP3    H139958   2.317   1.325   8.421  0.4811 -0.0577  0.2582
 6133TIP3    H239959   2.345   1.180   8.385 -1.1336 -0.3914  0.2886
 6134TIP3   OH239960   1.348   5.572   7.866  0.0099 -0.7456 -0.8381
 6134TIP3    H139961   1.441   5.551   7.857  0.8444  1.3280  1.7424
 6134TIP3    H239962   1.314   5.508   7.929  0.4395  0.2753  0.4541
 6135TIP3   OH239963   3.689   4.086   1.533  0.1333  0.0271 -0.2761
 6135TIP3    H139964   3.714   3.996   1.555 -0.1888 -0.1270 -0.5380
 6135TIP3    H239965   3.595   4.081   1.515  0.6506 -0.2125 -3.4764
 6136TIP3   OH239966   2.778   3.142   1.359 -0.0736 -0.1787 -0.1104
 6136TIP3    H139967   2.767   3.223   1.408  2.2801 -0.1249  0.4508
 6136TIP3    H239968   2.775   3.073   1.425 -0.6632 -0.4434 -0.4047
 6137TIP3   OH239969   1.782   5.120   0.622  0.2923 -0.2359 -0.4186
 6137TIP3    H139970   1.767   5.072   0.540  2.3780  1.9939 -2.2589
 6137TIP3    H239971   1.709   5.183   0.627  1.8407  1.9073 -2.5014
 6138TIP3   OH239972   0.794   4.430   8.175 -1.0929  0.3378 -0.0480
 6138TIP3    H139973   0.820   4.446   8.084  0.4122 -0.4787  0.2110
 6138TIP3    H239974   0.807   4.337   8.189 -2.6956  0.1740  0.6133
 6139TIP3   OH239975   1.519   0.830   7.833  0.2750 -0.5741 -0.5455
 6139TIP3    H139976   1.521   0.811   7.926  0.2381 -1.8847 -0.7936
 6139TIP3    H239977   1.427   0.819   7.808  0.1753  0.3603 -0.6381
 6140TIP3   OH239978   4.617   2.363   7.269 -0.4513  0.2751 -0.0604
 6140TIP3    H139979   4.558   2.437   7.285 -1.4321 -0.9571  2.5199
 6140TIP3    H239980   4.560   2.295   7.232 -0.2811 -0.2670  0.6470
 6141TIP3   OH239981   2.717   0.900   8.596  0.5452 -0.2784 -0.1697
 6141TIP3    H139982   2.782   0.890   8.667  0.2726  1.6020  0.4036
 6141TIP3    H239983   2.640   0.853   8.627  0.3020  0.8375  0.9954
 6142TIP3   OH239984   0.672   2.896   7.105 -0.2182 -0.3911  0.3391
 6142TIP3    H139985   0.673   2.954   7.029  1.4825 -0.4528  0.2918
 6142TIP3    H239986   0.579   2.887   7.127 -0.6199  0.9466 -0.7132
 6143TIP3   OH239987   2.038   4.431   0.225 -0.3828  0.3190  0.1783
 6143TIP3    H139988   2.106   4.497   0.210  0.3230 -0.0902  1.4803
 6143TIP3    H239989   2.007   4.448   0.314 -1.9864  0.4718 -0.3706
 6144TIP3   OH239990   2.545   4.230   6.541  0.1881 -0.0643 -0.3431
 6144TIP3    H139991   2.503   4.178   6.610 -0.6754  0.9242 -0.1048
 6144TIP3    H239992   2.548   4.171   6.465  0.5120 -0.9257  0.3274
 6145TIP3   OH239993   3.171   3.294   8.355  0.1106  0.8571  0.3500
 6145TIP3    H139994   3.178   3.212   8.404  1.4364  1.5846  1.4428
 6145TIP3    H239995   3.087   3.287   8.309  0.7127 -1.5967 -0.5254
 6146TIP3   OH239996   1.710   4.534   0.622  0.1517 -0.3061  0.3914
 6146TIP3    H139997   1.698   4.616   0.670  1.6151 -0.5600  1.2829
 6146TIP3    H239998   1.745   4.561   0.537  0.9016  0.0171  0.7855
 6147TIP3   OH239999   3.834   2.472   0.649  0.5763  0.1944  0.1041
 6147TIP3    H140000   3.768   2.512   0.593  1.8735  0.5149 -1.2492
 6147TIP3    H240001   3.908   2.532   0.647  1.8079 -1.2693 -0.3453
 6148TIP3   OH240002   5.686   5.816   0.085  0.4023  0.1876  0.0229
 6148TIP3    H140003   5.592   5.818   0.065  0.2470  0.0983  0.7021
 6148TIP3    H240004   5.726   5.869   0.017 -0.3691  1.8722  0.8125
 6149TIP3   OH240005   5.851   2.386   2.414  0.4175 -0.1180 -0.7787
 6149TIP3    H140006   5.757   2.390   2.400  0.3053  2.6346  0.0219
 6149TIP3    H240007   5.884   2.469   2.379  2.1279  0.2023  1.3371
 6150TIP3   OH240008   0.965   3.188   1.076 -0.6264 -0.0472  0.4818
 6150TIP3    H140009   0.873   3.163   1.073 -1.3026  2.1739  0.8950
 6150TIP3    H240010   0.973   3.258   1.012  0.0073  1.9196  2.5697
 6151TIP3   OH240011   2.099   3.674   7.677  0.1297  0.1940  0.4900
 6151TIP3    H140012   2.040   3.633   7.614  0.1988 -0.2821  0.7337
 6151TIP3    H240013   2.119   3.605   7.740  1.8182  0.0414 -0.1776
 6152TIP3   OH240014   3.966   4.799   8.836 -0.1178  0.1006  0.6770
 6152TIP3    H140015   3.930   4.867   8.892 -0.3077  0.9608 -0.4488
 6152TIP3    H240016   3.999   4.846   8.759  0.8578 -0.9506  0.4174
 6153TIP3   OH240017   0.498   1.504   8.640  0.2863  0.1508  0.1419
 6153TIP3    H140018   0.490   1.464   8.554 -0.2531  1.9289 -0.6967
 6153TIP3    H240019   0.434   1.575   8.639  0.3127  0.2503  2.0000
 6154TIP3   OH240020   2.597   6.030   1.835 -0.2903  0.2528 -0.1246
 6154TIP3    H140021   2.533   5.967   1.803 -1.1732  0.8069  0.5060
 6154TIP3    H240022   2.566   6.053   1.923 -0.8664  2.7051 -0.9038
 6155TIP3   OH240023   2.040   2.929   7.122 -0.1655  0.6226  0.3266
 6155TIP3    H140024   2.019   2.839   7.097 -0.4258  0.3380  1.5439
 6155TIP3    H240025   2.128   2.943   7.087 -0.1048 -0.1161  0.1577
 6156TIP3   OH240026   4.881   0.661   1.757 -0.2396 -0.4014 -1.0317
 6156TIP3    H140027   4.830   0.725   1.807  0.9071 -1.5086  1.7352
 6156TIP3    H240028   4.907   0.708   1.678 -0.1628  2.2776  0.4690
 6157TIP3   OH240029   5.357   6.084   0.475 -0.8912 -0.2154  0.3298
 6157TIP3    H140030   5.315   6.161   0.515 -1.9914 -0.5566 -0.1171
 6157TIP3    H240031   5.388   6.116   0.390 -1.3072 -0.2401  0.1639
 6158TIP3   OH240032   3.422   6.358   8.439  0.5922 -0.1807  0.1809
 6158TIP3    H140033   3.401   6.264   8.441 -1.4352  0.2371  0.5266
 6158TIP3    H240034   3.442   6.375   8.347 -0.5330 -0.6952 -0.1857
 6159TIP3   OH240035   4.188   1.743   6.713 -0.1952  0.4869  0.7565
 6159TIP3    H140036   4.167   1.670   6.656  0.5062 -0.0307  1.1524
 6159TIP3    H240037   4.119   1.741   6.780  0.4150 -0.4689  1.3686
 6160TIP3   OH240038   5.651   0.539   0.960  0.2174 -0.1887  0.1696
 6160TIP3    H140039   5.703   0.522   1.038  0.0235 -2.3444 -0.0873
 6160TIP3    H240040   5.697   0.492   0.890 -0.7289 -0.0562 -0.5706
 6161TIP3   OH240041   4.219   1.390   0.239 -0.4175  0.8427  0.3180
 6161TIP3    H140042   4.158   1.360   0.172 -0.1096 -1.3028  0.9328
 6161TIP3    H240043   4.184   1.356   0.321  1.6183 -0.5973  0.6724
 6162TIP3   OH240044   6.011   0.256   7.500  0.3326 -0.3625  0.2533
 6162TIP3    H140045   6.064   0.194   7.552  0.8670  0.6900  1.0048
 6162TIP3    H240046   6.041   0.244   7.410 -0.3379 -1.9541  0.2118
 6163TIP3   OH240047   6.398   3.372   1.475 -0.2294 -0.2406 -0.1066
 6163TIP3    H140048   6.327   3.420   1.432 -0.4224  0.8995  1.3792
 6163TIP3    H240049   6.360   3.286   1.493 -0.8063 -0.0727 -0.4671
 6164TIP3   OH240050   2.206   5.959   6.885 -0.6089 -0.1669  0.4929
 6164TIP3    H140051   2.136   6.011   6.924 -1.3997 -0.6935 -0.1944
 6164TIP3    H240052   2.213   5.991   6.795 -0.0577 -0.2085  0.5183
 6165TIP3   OH240053   5.688   5.293   6.995  0.4501  0.3383  0.1234
 6165TIP3    H140054   5.668   5.347   6.919 -2.6937 -0.9196 -0.0629
 6165TIP3    H240055   5.680   5.353   7.069 -0.8831  0.6204 -0.2304
 6166TIP3   OH240056   1.737   0.533   8.132  0.1480 -0.6818 -0.1466
 6166TIP3    H140057   1.731   0.437   8.127  0.1655 -0.7984  1.5825
 6166TIP3    H240058   1.649   0.561   8.156 -0.2809 -0.0927 -2.2057
 6167TIP3   OH240059   4.001   6.134   8.581  0.5133  0.3557  0.1924
 6167TIP3    H140060   4.028   6.221   8.551  0.3916 -0.0925 -1.2564
 6167TIP3    H240061   3.992   6.082   8.502 -3.3969  0.1159  0.5680
 6168TIP3   OH240062   4.238   3.914   7.312  0.3503  0.5033 -0.1857
 6168TIP3    H140063   4.254   3.922   7.406 -2.1722  0.9993  0.2971
 6168TIP3    H240064   4.325   3.914   7.272  1.4662  2.0855  2.0088
 6169TIP3   OH240065   6.404   3.053   8.153 -0.6237 -0.0300  0.1804
 6169TIP3    H140066   6.496   3.060   8.126  0.1381 -0.4940  2.4616
 6169TIP3    H240067   6.383   3.140   8.188 -1.0668  0.0648 -0.3015
 6170TIP3   OH240068   6.768   2.782   0.862 -0.1191  0.2797  0.2570
 6170TIP3    H140069   6.689   2.832   0.884  0.6908  0.7594  2.2847
 6170TIP3    H240070   6.787   2.731   0.941  0.0525 -1.9858 -1.1676
 6171TIP3   OH240071   6.728   6.729   0.454  0.2080  0.0288 -0.2751
 6171TIP3    H140072   6.750   6.715   0.362 -0.0885 -1.8072 -0.0919
 6171TIP3    H240073   6.645   6.776   0.452  0.8377  1.1617 -0.9243
 6172TIP3   OH240074   5.316   6.552   6.558  0.0004  0.3555 -1.1002
 6172TIP3    H140075   5.354   6.534   6.644  1.4564 -0.6493 -1.9159
 6172TIP3    H240076   5.391   6.575   6.503 -0.6324 -1.0904 -2.6171
 6173TIP3   OH240077   6.510   5.550   1.883 -0.2684 -0.6340  0.3532
 6173TIP3    H140078   6.444   5.598   1.933 -2.5504 -2.1978 -0.9496
 6173TIP3    H240079   6.562   5.618   1.841 -0.3945  0.6636  2.2024
 6174TIP3   OH240080   5.139   1.931   0.916 -1.1215  0.3876  0.0457
 6174TIP3    H140081   5.105   1.841   0.918 -2.3115  0.8397  0.6299
 6174TIP3    H240082   5.183   1.938   0.831  0.8831 -1.4103  0.8239
 6175TIP3   OH240083   2.861   1.630   1.521 -0.1659 -0.3289 -0.3661
 6175TIP3    H140084   2.896   1.718   1.536  0.2336 -0.5496  0.0376
 6175TIP3    H240085   2.768   1.644   1.503 -0.4776  0.0506  1.3425
 6176TIP3   OH240086   0.285   3.490   8.610  0.2218 -0.1008  0.2953
 6176TIP3    H140087   0.231   3.556   8.567 -0.3720  0.0962  1.3065
 6176TIP3    H240088   0.373   3.530   8.614 -0.2282  0.8527  1.3118
 6177TIP3   OH240089   1.507   5.687   1.114  0.6206 -0.5583  0.3887
 6177TIP3    H140090   1.472   5.598   1.113 -0.9598  0.0183 -0.7335
 6177TIP3    H240091   1.564   5.691   1.037  0.5054 -0.5571  0.3013
 6178TIP3   OH240092   1.483   2.885   1.696  0.5817  0.5268  0.1951
 6178TIP3    H140093   1.434   2.891   1.778 -1.5381 -2.1947 -0.6939
 6178TIP3    H240094   1.447   2.955   1.642 -2.8691 -1.5408 -0.5330
 6179TIP3   OH240095   5.904   2.642   2.316  0.4905  0.0994 -0.4331
 6179TIP3    H140096   5.820   2.664   2.275  0.4558 -0.1067 -0.4761
 6179TIP3    H240097   5.964   2.710   2.286  0.2775  0.3988 -0.1906
 6180TIP3   OH240098   5.137   4.977   0.706  0.2408  0.3686  0.3483
 6180TIP3    H140099   5.153   4.887   0.734 -0.0683  0.3298  0.4079
 6180TIP3    H240100   5.224   5.016   0.698  0.3887 -0.0422 -0.0313
 6181TIP3   OH240101   1.121   1.314   8.508 -0.8758  0.4026 -0.2592
 6181TIP3    H140102   1.053   1.334   8.443  0.0941 -0.7990 -1.7032
 6181TIP3    H240103   1.203   1.320   8.460 -0.1579 -1.0080  0.7172
 6182TIP3   OH240104   0.259   6.687   0.462  0.5634  0.9215 -0.9439
 6182TIP3    H140105   0.192   6.747   0.497 -0.0649  0.5989 -1.5798
 6182TIP3    H240106   0.251   6.694   0.367 -1.4448 -2.1760 -1.1571
 6183TIP3   OH240107   6.604   5.266   8.053 -0.1749  0.0936  0.2128
 6183TIP3    H140108   6.513   5.259   8.082 -0.0862  0.9676  0.7190
 6183TIP3    H240109   6.600   5.309   7.968 -0.3782 -1.8157 -0.8019
 6184TIP3   OH240110   2.039   3.735   1.423  0.1102  0.0206 -0.4214
 6184TIP3    H140111   2.039   3.690   1.507  0.1700  1.2534  0.2624
 6184TIP3    H240112   2.042   3.665   1.358 -2.8281 -1.0779  0.4999
 6185TIP3   OH240113   6.455   3.685   8.679  0.4471 -0.4549  0.1411
 6185TIP3    H140114   6.457   3.773   8.716  0.3081 -0.3179 -0.1807
 6185TIP3    H240115   6.388   3.639   8.729  0.0292 -0.1737 -0.1585
 6186TIP3   OH240116   4.659   1.556   0.446  0.3389 -0.0699 -0.6533
 6186TIP3    H140117   4.753   1.573   0.449  0.4726 -0.7553 -0.9433
 6186TIP3    H240118   4.621   1.621   0.505  1.0288 -0.0602 -0.2165
 6187TIP3   OH240119   2.806   3.138   0.367 -0.1351  0.2985  0.2246
 6187TIP3    H140120   2.748   3.131   0.291  1.4446 -0.8792 -0.9635
 6187TIP3    H240121   2.827   3.047   0.389  0.6619  0.6722  1.0632
 6188TIP3   OH240122   3.242   4.195   7.035  0.0436  0.4809  0.4141
 6188TIP3    H140123   3.153   4.165   7.019  0.1563 -1.2099  2.4592
 6188TIP3    H240124   3.269   4.237   6.953 -2.5024  0.8123 -0.3365
 6189TIP3   OH240125   4.954   3.103   7.332  0.2423  0.1687  0.7686
 6189TIP3    H140126   4.999   3.141   7.407 -0.6164 -0.1109  1.4362
 6189TIP3    H240127   5.024   3.063   7.280  1.1952  2.6302  0.0110
 6190TIP3   OH240128   3.430   0.259   1.558 -0.6452  0.3507  0.2544
 6190TIP3    H140129   3.346   0.217   1.576 -1.5008  1.1003 -1.6942
 6190TIP3    H240130   3.425   0.285   1.466  1.6185  0.6902  0.1582
 6191TIP3   OH240131   6.185   6.488   2.387  0.3927 -0.6233 -0.4477
 6191TIP3    H140132   6.232   6.411   2.417 -0.2436 -0.3272  1.4364
 6191TIP3    H240133   6.253   6.548   2.358  1.0867 -0.8535  0.6357
 6192TIP3   OH240134   2.314   5.969   1.019  0.5553 -0.2909  0.0205
 6192TIP3    H140135   2.397   5.972   0.971  2.4311 -1.1799  2.9212
 6192TIP3    H240136   2.247   5.955   0.952  3.0813 -2.7890 -2.2410
 6193TIP3   OH240137   1.980   1.591   7.540 -0.1405  0.5593 -1.5813
 6193TIP3    H140138   2.070   1.621   7.556 -0.1969  0.1260 -0.3946
 6193TIP3    H240139   1.927   1.669   7.556 -0.0649  0.5366 -1.2143
 6194TIP3   OH240140   0.557   4.692   7.668 -0.7243  0.3359  0.4124
 6194TIP3    H140141   0.470   4.731   7.664 -0.3590  1.1197 -0.4390
 6194TIP3    H240142   0.597   4.714   7.584  0.5418  0.5943  1.0462
 6195TIP3   OH240143   3.368   0.906   1.298 -0.3913 -0.1622  0.1148
 6195TIP3    H140144   3.355   0.867   1.212  1.1528 -0.3162 -0.0752
 6195TIP3    H240145   3.374   0.832   1.358 -0.0356 -0.1105  0.1431
 6196TIP3   OH240146   3.942   4.118   7.463  0.2966 -0.8564  0.7146
 6196TIP3    H140147   3.915   4.178   7.394  3.1400 -0.3562 -0.0748
 6196TIP3    H240148   3.925   4.031   7.428  2.5256 -0.6496 -1.1054
 6197TIP3   OH240149   0.530   5.000   1.891  0.2316 -0.4914  0.3751
 6197TIP3    H140150   0.520   4.910   1.924  2.5360 -1.1247 -0.4816
 6197TIP3    H240151   0.555   4.990   1.800 -0.1057  1.0662  0.0798
 6198TIP3   OH240152   4.570   4.121   7.727 -0.5651 -0.3176 -0.3634
 6198TIP3    H140153   4.595   4.081   7.810  1.3191 -0.2676 -0.8576
 6198TIP3    H240154   4.613   4.207   7.727 -3.1153  1.0454 -0.0766
 6199TIP3   OH240155   3.441   3.403   8.673 -0.4961 -0.7342 -1.0686
 6199TIP3    H140156   3.514   3.436   8.725 -1.0218 -1.4624  0.1874
 6199TIP3    H240157   3.411   3.325   8.720 -1.9713 -0.5485 -1.6435
 6200TIP3   OH240158   3.140   3.338   1.435 -0.0767 -0.0361 -0.6801
 6200TIP3    H140159   3.127   3.246   1.412 -1.9197 -0.2146  0.8466
 6200TIP3    H240160   3.066   3.383   1.395  0.3519  0.6685 -0.6996
 6201TIP3   OH240161   0.234   3.001   7.813  0.1225  0.1359  0.2109
 6201TIP3    H140162   0.214   2.908   7.816  0.3323  0.0643 -0.5143
 6201TIP3    H240163   0.329   3.006   7.804 -0.0778  0.2956 -3.1941
 6202TIP3   OH240164   6.350   3.955   6.636 -0.9213  0.5193  0.0427
 6202TIP3    H140165   6.359   3.912   6.721  0.9727  0.1487 -0.3072
 6202TIP3    H240166   6.417   3.916   6.581 -0.0783  2.8497 -0.7368
 6203TIP3   OH240167   1.984   6.686   7.362 -0.1395  0.2076 -0.4448
 6203TIP3    H140168   1.903   6.635   7.371  0.5730 -1.0000 -0.6495
 6203TIP3    H240169   2.004   6.715   7.452  0.6847 -1.8859  0.1024
 6204TIP3   OH240170   2.618   5.576   1.550  0.1308 -0.2380 -0.3561
 6204TIP3    H140171   2.589   5.661   1.519 -0.8426 -0.6153 -0.5059
 6204TIP3    H240172   2.594   5.515   1.480 -0.8702 -0.9047  0.5409
 6205TIP3   OH240173   0.370   3.216   1.018 -0.4507 -0.0773  0.2473
 6205TIP3    H140174   0.381   3.127   0.985  3.5784  0.3119  0.0457
 6205TIP3    H240175   0.349   3.204   1.111 -0.9842 -1.2116 -0.0050
 6206TIP3   OH240176   5.350   4.348   1.294 -0.1665 -0.1123  0.2739
 6206TIP3    H140177   5.330   4.431   1.337  1.3072  0.8755 -0.8482
 6206TIP3    H240178   5.437   4.324   1.328 -0.0654 -0.5755 -0.3010
 6207TIP3   OH240179   3.772   1.132   0.869 -0.2131 -0.2828 -0.1279
 6207TIP3    H140180   3.732   1.138   0.783  1.4469  2.8358 -0.8358
 6207TIP3    H240181   3.866   1.139   0.852  0.1132  1.4435  1.9361
 6208TIP3   OH240182   3.307   4.937   6.614  0.3690 -0.3145  0.3896
 6208TIP3    H140183   3.264   4.979   6.540 -0.6052  0.3335  1.3032
 6208TIP3    H240184   3.325   4.848   6.584  0.8421  0.2089 -0.9386
 6209TIP3   OH240185   4.844   1.349   7.088 -0.4954 -0.4566 -0.0493
 6209TIP3    H140186   4.763   1.384   7.050 -1.3665 -0.4597  1.6667
 6209TIP3    H240187   4.845   1.385   7.177  0.5383 -1.7804  0.5036
 6210TIP3   OH240188   3.237   2.949   7.436 -0.0782  0.2906 -0.1873
 6210TIP3    H140189   3.176   2.922   7.504  0.2841  1.2520  0.5554
 6210TIP3    H240190   3.197   3.027   7.397  1.7672  2.5822  2.0982
 6211TIP3   OH240191   3.032   2.536   7.841  0.5009 -0.1722 -0.6678
 6211TIP3    H140192   3.091   2.611   7.835 -0.1537  0.2602 -2.4032
 6211TIP3    H240193   2.957   2.560   7.786 -1.6616 -0.4180  1.9609
 6212TIP3   OH240194   1.548   4.026   1.118 -0.0601 -0.3398  0.4550
 6212TIP3    H140195   1.483   3.992   1.057 -0.1065 -0.7600  0.7298
 6212TIP3    H240196   1.543   4.121   1.108 -0.7610 -0.3636  0.5121
 6213TIP3   OH240197   5.549   0.337   8.661 -0.2225 -0.3850 -0.1213
 6213TIP3    H140198   5.569   0.428   8.641 -0.4128 -0.7146 -2.0518
 6213TIP3    H240199   5.502   0.340   8.744 -2.7119  1.6095 -1.4473
 6214TIP3   OH240200   4.653   4.963   1.041  0.2227  0.3389 -0.5621
 6214TIP3    H140201   4.708   4.944   0.965 -0.3570 -1.1314 -0.6383
 6214TIP3    H240202   4.565   4.936   1.014 -0.3261  1.4585  0.0195
 6215TIP3   OH240203   4.444   6.441   0.287  0.0988 -0.1774 -0.1698
 6215TIP3    H140204   4.503   6.492   0.343 -1.1356  1.1272  0.0046
 6215TIP3    H240205   4.496   6.418   0.210  0.9004  0.6983  0.1017
 6216TIP3   OH240206   1.654   0.633   6.605  0.1908 -0.4272 -0.3654
 6216TIP3    H140207   1.564   0.639   6.572 -0.1816 -1.8285  0.3331
 6216TIP3    H240208   1.673   0.540   6.609 -0.0692 -0.5249  3.8814
 6217TIP3   OH240209   0.241   1.189   8.809  0.0005  0.4511 -0.3221
 6217TIP3    H140210   0.170   1.185   8.873 -0.0987  0.1554 -0.4477
 6217TIP3    H240211   0.220   1.120   8.746 -1.0479  2.1118 -1.8853
 6218TIP3   OH240212   2.848   3.898   7.261  0.3860  0.3441 -0.0565
 6218TIP3    H140213   2.880   3.963   7.324 -0.2692 -2.0820  2.9845
 6218TIP3    H240214   2.763   3.871   7.295 -0.6815 -0.1042 -2.8307
 6219TIP3   OH240215   0.085   6.328   2.483 -0.2069  0.4266 -0.2001
 6219TIP3    H140216   0.168   6.310   2.528 -1.5977 -1.7761  1.6465
 6219TIP3    H240217   0.058   6.244   2.446 -0.8146  1.4736 -2.3633
 6220TIP3   OH240218   4.466   3.255   8.247  0.2575 -0.0519 -0.1744
 6220TIP3    H140219   4.466   3.290   8.157  0.1065  0.3481 -0.0220
 6220TIP3    H240220   4.386   3.291   8.286  1.4250  1.6169  0.8249
 6221TIP3   OH240221   0.910   4.882   7.222 -0.5147 -0.7513  0.3385
 6221TIP3    H140222   0.842   4.829   7.181  0.7139 -1.4262 -0.9225
 6221TIP3    H240223   0.987   4.824   7.225  0.2506  0.2634  0.9290
 6222TIP3   OH240224   4.519   2.546   7.783  0.1241  0.0150 -0.2816
 6222TIP3    H140225   4.497   2.468   7.834  0.6815  0.4484  0.6346
 6222TIP3    H240226   4.581   2.514   7.716 -0.9937 -0.6448 -1.0319
 6223TIP3   OH240227   5.767   4.043   1.879  0.2115 -0.6693 -0.0565
 6223TIP3    H140228   5.675   4.018   1.878  0.3624 -1.2305 -0.9872
 6223TIP3    H240229   5.798   4.016   1.966 -0.2138 -1.5580 -0.1709
 6224TIP3   OH240230   3.928   0.243   0.172  0.0345  0.6120 -0.7009
 6224TIP3    H140231   3.918   0.320   0.228 -1.3263  0.0107 -0.0807
 6224TIP3    H240232   4.007   0.200   0.204  0.2641  1.2316 -0.4201
 6225TIP3   OH240233   4.365   1.263   8.455 -0.2180 -0.0333  0.0194
 6225TIP3    H140234   4.367   1.167   8.454  0.6452 -0.0277  0.1961
 6225TIP3    H240235   4.277   1.286   8.486 -0.0525 -0.7750  1.0714
 6226TIP3   OH240236   5.825   6.704   6.779 -0.0799 -0.4785 -0.3169
 6226TIP3    H140237   5.912   6.726   6.811  0.1616  0.7687 -1.7266
 6226TIP3    H240238   5.790   6.644   6.844  1.3031  0.0677  0.9878
 6227TIP3   OH240239   1.383   2.476   2.442  0.1665 -0.6556 -0.4622
 6227TIP3    H140240   1.403   2.565   2.412  1.4238 -0.9511 -0.5771
 6227TIP3    H240241   1.399   2.478   2.536 -2.0089 -0.2032 -0.0474
 6228TIP3   OH240242   2.552   0.054   1.525 -0.0245 -0.1381 -0.0942
 6228TIP3    H140243   2.639   0.032   1.492 -0.0979 -0.6525  0.0509
 6228TIP3    H240244   2.492  -0.004   1.478 -0.5658  1.7334 -1.8551
 6229TIP3   OH240245   6.320   6.659   7.155 -0.1927  0.4579 -0.0883
 6229TIP3    H140246   6.282   6.735   7.198  0.5917  1.9091 -1.8337
 6229TIP3    H240247   6.332   6.686   7.064 -0.9908 -2.1665 -1.0837
 6230TIP3   OH240248   0.350   3.777   8.112 -0.2033  0.0405 -0.5434
 6230TIP3    H140249   0.328   3.688   8.140  0.0670  0.5458  1.4194
 6230TIP3    H240250   0.295   3.833   8.166  0.0184  1.0882 -1.3834
 6231TIP3   OH240251   3.999   1.608   1.113  0.1880  0.8514  0.1938
 6231TIP3    H140252   4.040   1.654   1.039 -0.7825  1.2964 -0.0849
 6231TIP3    H240253   4.038   1.649   1.191  0.7670  0.8028 -0.0673
 6232TIP3   OH240254   3.943   4.184   2.266 -0.1178 -0.3190 -0.0308
 6232TIP3    H140255   3.973   4.100   2.231  2.2674  0.5034 -0.1743
 6232TIP3    H240256   3.911   4.232   2.190 -2.9448 -1.5730  0.2607
 6233TIP3   OH240257   1.175   2.844   0.821 -0.3968 -0.3081 -0.4766
 6233TIP3    H140258   1.173   2.931   0.781 -0.1476  0.5291  1.2410
 6233TIP3    H240259   1.083   2.822   0.835 -0.4348  0.9574  1.6311
 6234TIP3   OH240260   6.194   5.838   0.644 -0.3796  0.0104 -0.1934
 6234TIP3    H140261   6.160   5.923   0.617  0.8474  0.4182 -0.5539
 6234TIP3    H240262   6.253   5.858   0.717  0.6336 -0.3921 -0.8762
 6235TIP3   OH240263   1.948   2.249   7.288 -0.2656 -0.0748  0.0463
 6235TIP3    H140264   1.968   2.341   7.271  0.4392 -0.1026  0.6880
 6235TIP3    H240265   2.034   2.206   7.290 -0.4804 -0.4794  1.2531
 6236TIP3   OH240266   5.588   1.542   1.672 -0.1696 -0.0711  0.1412
 6236TIP3    H140267   5.541   1.590   1.604  0.8541  3.3914  1.6382
 6236TIP3    H240268   5.520   1.518   1.735 -0.5261  0.8736  0.1301
 6237TIP3   OH240269   3.658   3.862   1.928 -0.6790 -0.2303 -0.2298
 6237TIP3    H140270   3.578   3.830   1.889 -1.5382  1.8980 -0.3723
 6237TIP3    H240271   3.649   3.958   1.928  2.5319  0.2281 -1.7675
 6238TIP3   OH240272   2.055   0.661   8.375 -0.0500  0.1347 -0.2543
 6238TIP3    H140273   2.071   0.627   8.463  1.6011 -1.0489 -0.9666
 6238TIP3    H240274   1.989   0.729   8.388 -1.0454 -1.0979  1.6767
 6239TIP3   OH240275   2.272   1.960   7.815 -0.8094  0.0052 -0.5749
 6239TIP3    H140276   2.206   1.968   7.884 -0.8398  0.5956 -0.6606
 6239TIP3    H240277   2.351   1.997   7.854 -0.4756 -0.8860 -0.4056
 6240TIP3   OH240278   3.715   0.255   1.482  0.2133 -0.3258  0.0098
 6240TIP3    H140279   3.714   0.281   1.390  1.6759 -0.3217 -0.0270
 6240TIP3    H240280   3.623   0.248   1.506 -0.2142 -1.1052 -1.6744
 6241TIP3   OH240281   3.555   5.307   7.685 -0.3431  0.9925  0.5445
 6241TIP3    H140282   3.643   5.300   7.646 -0.9146 -0.9361 -0.5232
 6241TIP3    H240283   3.570   5.349   7.770  1.7093  0.1133  0.6816
 6242TIP3   OH240284   2.686   5.372   7.213  0.3182 -0.3447  0.4832
 6242TIP3    H140285   2.651   5.289   7.182 -0.3159 -0.1268  0.5967
 6242TIP3    H240286   2.688   5.363   7.309  1.0289 -0.5282  0.4604
 6243TIP3   OH240287   0.770   0.864   0.666 -0.4568  0.1420  0.0625
 6243TIP3    H140288   0.798   0.952   0.693 -0.4280 -0.2338  1.3211
 6243TIP3    H240289   0.787   0.861   0.572  1.0161  0.9486  0.2757
 6244TIP3   OH240290   6.251   2.988   6.413  0.4264 -0.5993 -0.4112
 6244TIP3    H140291   6.342   2.970   6.437  0.1493  0.1240  1.3709
 6244TIP3    H240292   6.211   2.902   6.404  1.0466 -0.9158 -0.2038
 6245TIP3   OH240293   0.864   6.325   8.086 -0.8919  0.3944  0.1792
 6245TIP3    H140294   0.782   6.275   8.085  0.1588 -1.4304  0.2728
 6245TIP3    H240295   0.896   6.316   8.176  0.8981 -1.5937 -0.5616
 6246TIP3   OH240296   1.799   5.151   8.691 -0.3452 -0.8173 -0.1494
 6246TIP3    H140297   1.787   5.200   8.610 -1.4734 -0.0790  0.4253
 6246TIP3    H240298   1.753   5.068   8.676  0.4230 -1.1597 -0.6541
 6247TIP3   OH240299   0.736   5.545   6.643 -0.5525 -0.2872 -0.1896
 6247TIP3    H140300   0.752   5.635   6.613  1.3923 -0.9065 -1.1946
 6247TIP3    H240301   0.685   5.505   6.572  1.1475 -0.7846 -1.1857
 6248TIP3   OH240302   0.968   5.320   1.363 -0.4362  0.1107 -0.0948
 6248TIP3    H140303   0.964   5.407   1.323  1.5543  0.1722 -0.2154
 6248TIP3    H240304   0.995   5.262   1.292 -2.2728 -0.7494 -0.1513
 6249TIP3   OH240305   2.538   0.813   8.296 -0.4548  0.0019 -0.8248
 6249TIP3    H140306   2.615   0.789   8.349 -0.3333  1.0853 -0.4942
 6249TIP3    H240307   2.557   0.775   8.209  0.9856  1.1705 -1.0701
 6250TIP3   OH240308   0.714   4.663   0.628  0.1857 -0.0805 -0.4057
 6250TIP3    H140309   0.793   4.716   0.637  0.2780 -0.1842 -0.5824
 6250TIP3    H240310   0.644   4.725   0.612  0.1189  0.0598  0.4345
 6251TIP3   OH240311   0.422   1.099   7.716 -0.1455  0.1972 -0.2128
 6251TIP3    H140312   0.417   1.153   7.637  0.5635 -1.1071 -1.2084
 6251TIP3    H240313   0.345   1.042   7.711  0.2454 -0.3360 -0.3408
 6252TIP3   OH240314   1.273   1.963   7.913  0.3301  0.5860  0.1358
 6252TIP3    H140315   1.248   1.998   7.998  0.5275 -0.7826  0.7743
 6252TIP3    H240316   1.341   2.023   7.882 -0.6316  1.8153  0.3539
 6253TIP3   OH240317   4.333   0.460   1.951 -0.5672  0.5448  0.4421
 6253TIP3    H140318   4.335   0.553   1.931 -1.0289  0.4780  0.0872
 6253TIP3    H240319   4.241   0.438   1.959 -0.4423  0.5889  2.7779
 6254TIP3   OH240320   0.216   4.587   1.950 -0.1966 -0.1579  0.0724
 6254TIP3    H140321   0.174   4.613   2.031  1.0651  0.5060  0.5442
 6254TIP3    H240322   0.158   4.521   1.913 -1.6879  0.7879  0.6202
 6255TIP3   OH240323   0.726   3.820   7.842 -0.5559  0.2465  0.7688
 6255TIP3    H140324   0.705   3.869   7.922  0.8909 -0.6587  1.7574
 6255TIP3    H240325   0.735   3.886   7.774 -1.8890  1.0347  1.3169
 6256TIP3   OH240326   1.037   4.710   1.321 -0.0953  0.6179 -0.1970
 6256TIP3    H140327   1.086   4.629   1.336 -0.6928  0.0433 -1.2259
 6256TIP3    H240328   0.964   4.684   1.264 -1.4888  1.4805  1.1121
 6257TIP3   OH240329   0.370   4.372   0.152 -0.0353  0.2934  0.2759
 6257TIP3    H140330   0.291   4.394   0.201  0.4366 -1.6385  2.0528
 6257TIP3    H240331   0.417   4.455   0.145 -1.7501  1.2983 -0.0161
 6258TIP3   OH240332   4.026   3.983   1.292 -0.3109 -0.3270 -0.7740
 6258TIP3    H140333   3.981   4.067   1.297 -0.5817 -0.5246  0.9916
 6258TIP3    H240334   4.116   4.003   1.317 -0.3195 -0.5220 -0.5888
 6259TIP3   OH240335   6.388   0.745   1.037  0.0591 -0.1146 -0.0892
 6259TIP3    H140336   6.460   0.789   1.081 -1.0642  0.3924  1.3190
 6259TIP3    H240337   6.353   0.810   0.977 -0.8705  0.5584  1.1507
 6260TIP3   OH240338   2.643   5.837   7.684  0.0970  0.4162 -0.0460
 6260TIP3    H140339   2.638   5.906   7.619 -0.2422 -1.1762 -1.8070
 6260TIP3    H240340   2.697   5.769   7.644  0.2547 -0.4563  1.5271
 6261TIP3   OH240341   4.118   2.935   7.888 -0.5723  0.0220  0.0630
 6261TIP3    H140342   4.163   3.014   7.857 -0.7282  0.0203 -0.1693
 6261TIP3    H240343   4.156   2.864   7.837 -1.7573  0.1750 -1.1000
 6262TIP3   OH240344   3.347   5.670   7.153 -0.1413  0.3845  0.0592
 6262TIP3    H140345   3.310   5.757   7.135  1.2480  1.3330  1.5326
 6262TIP3    H240346   3.434   5.672   7.114 -0.0798 -0.3406  0.1425
 6263TIP3   OH240347   0.617   6.119   7.643  0.1968 -0.6057  0.5190
 6263TIP3    H140348   0.608   6.026   7.664 -0.5196 -0.9387 -1.1517
 6263TIP3    H240349   0.585   6.165   7.721  3.0793 -1.6674  2.5074
 6264TIP3   OH240350   4.169   6.576   6.148  0.0798 -0.1297 -0.4677
 6264TIP3    H140351   4.158   6.481   6.143  0.6382 -0.7582  4.6615
 6264TIP3    H240352   4.081   6.609   6.165  0.4506 -0.4499  2.5055
 6265TIP3   OH240353   3.353   5.762   6.844  0.2660  0.1105  0.0617
 6265TIP3    H140354   3.403   5.720   6.914 -1.3590  0.3029  1.3982
 6265TIP3    H240355   3.378   5.855   6.849  0.3707  0.0763  0.1910
 6266TIP3   OH240356   1.222   0.154   8.776 -0.9183  0.4079  0.4214
 6266TIP3    H140357   1.150   0.092   8.765  0.0959 -1.1121  1.7347
 6266TIP3    H240358   1.288   0.125   8.713 -1.7517  2.4019 -1.4923
 6267TIP3   OH240359   0.011   4.905   2.411  0.1428 -0.8711  0.0780
 6267TIP3    H140360   0.078   4.842   2.384  1.7018 -0.0685  1.7969
 6267TIP3    H240361  -0.071   4.856   2.409  0.9189 -2.2026 -1.0573
 6268TIP3   OH240362   3.747   2.662   1.410 -0.0368  0.3777  0.0652
 6268TIP3    H140363   3.817   2.684   1.348 -0.5932  0.5363 -0.5089
 6268TIP3    H240364   3.745   2.737   1.470 -0.3867  0.8522 -0.5213
 6269TIP3   OH240365   0.056   5.507   8.532  0.3084 -0.0997 -0.2459
 6269TIP3    H140366   0.026   5.523   8.442  0.3550  1.0334 -0.0664
 6269TIP3    H240367   0.134   5.453   8.522  0.0116 -0.4260 -0.8643
 6270TIP3   OH240368   6.506   2.804   0.433  0.1447  0.0524 -0.6439
 6270TIP3    H140369   6.499   2.757   0.516 -0.8053 -0.4106 -0.9724
 6270TIP3    H240370   6.547   2.888   0.457 -1.0913  0.3765  0.4889
 6271TIP3   OH240371   4.408   6.074   7.453  0.2810  0.2172  0.1700
 6271TIP3    H140372   4.440   6.005   7.511  1.9586  0.6170 -0.2262
 6271TIP3    H240373   4.445   6.154   7.490 -0.1907  0.6921 -0.3869
 6272TIP3   OH240374   0.522   6.183   7.396 -0.0528 -0.2115  0.3278
 6272TIP3    H140375   0.579   6.188   7.473 -1.3103  0.6875  1.2417
 6272TIP3    H240376   0.478   6.099   7.406 -1.9082  0.8723  1.8919
 6273TIP3   OH240377   3.686   6.568   0.481  0.3046  0.3227 -0.0000
 6273TIP3    H140378   3.597   6.589   0.508  0.7946  0.7704  1.3581
 6273TIP3    H240379   3.710   6.491   0.533  1.1481  0.9844  0.6329
 6274TIP3   OH240380   2.669   3.797   0.530  0.0677 -0.6383 -0.3785
 6274TIP3    H140381   2.615   3.876   0.528 -1.1536 -1.4211  0.1541
 6274TIP3    H240382   2.651   3.754   0.446  0.5058 -0.4948 -0.5461
 6275TIP3   OH240383   0.791   3.452   8.174  0.1749  0.1164 -0.0599
 6275TIP3    H140384   0.764   3.415   8.258  1.0731  1.8935  1.1008
 6275TIP3    H240385   0.723   3.516   8.153  0.9981  1.2335  0.4886
 6276TIP3   OH240386   0.730   6.258   6.581 -0.1300 -0.2157 -0.1215
 6276TIP3    H140387   0.682   6.265   6.664 -2.0941 -0.6861 -1.1528
 6276TIP3    H240388   0.817   6.292   6.601 -0.8393  0.6014  1.8764
 6277TIP3   OH240389   4.251   1.532   8.405  0.4561  0.4909  0.0749
 6277TIP3    H140390   4.200   1.452   8.406  3.1122 -1.4289  3.5434
 6277TIP3    H240391   4.193   1.598   8.444 -0.4658 -0.7823  0.9355
 6278TIP3   OH240392   2.943   4.257   7.241  0.2106  0.4481  0.1153
 6278TIP3    H140393   2.931   4.193   7.311 -0.6321  0.4298 -0.0267
 6278TIP3    H240394   3.013   4.221   7.186 -0.1132 -0.2535  0.1559
 6279TIP3   OH240395   0.120   4.954   1.352  0.0767 -0.0985 -0.6267
 6279TIP3    H140396   0.087   4.887   1.412  0.1638 -0.1461 -0.6317
 6279TIP3    H240397   0.043   4.979   1.301  0.0066 -0.0733 -0.5103
 6280TIP3   OH240398   2.236   0.805   1.927 -0.5269  0.4186 -0.0724
 6280TIP3    H140399   2.197   0.892   1.929 -0.2029  0.5437  1.0163
 6280TIP3    H240400   2.183   0.753   1.987 -0.9119 -0.2321 -0.9484
 6281TIP3   OH240401   1.794   0.659   0.844  0.2102  0.2070 -0.1735
 6281TIP3    H140402   1.768   0.722   0.911  0.7425  0.1998  0.0457
 6281TIP3    H240403   1.859   0.706   0.791 -1.0266  0.6013 -1.3836
 6282TIP3   OH240404   3.439   2.912   8.280 -0.2621  0.2585 -0.0296
 6282TIP3    H140405   3.511   2.923   8.217 -0.6251  1.0949 -0.3126
 6282TIP3    H240406   3.447   2.987   8.338 -1.9798  1.3859 -1.1640
 6283TIP3   OH240407   1.358   2.961   0.129 -0.1009 -0.5678  0.8187
 6283TIP3    H140408   1.441   3.004   0.151 -0.0097 -0.9755  1.3239
 6283TIP3    H240409   1.382   2.893   0.066 -0.4072  0.7987 -0.8312
 6284TIP3   OH240410   2.843   0.335   8.185  0.1040 -0.1462  0.3343
 6284TIP3    H140411   2.859   0.320   8.278  0.0201  0.7677  0.4989
 6284TIP3    H240412   2.875   0.423   8.168  2.7355 -1.2730 -1.1548
 6285TIP3   OH240413   5.070   3.042   5.991  0.2265 -0.3014  0.4280
 6285TIP3    H140414   5.063   3.095   6.070 -0.0113 -0.4323  0.4951
 6285TIP3    H240415   4.984   3.001   5.981 -0.3415  1.1263 -0.9137
 6286TIP3   OH240416   3.866   1.591   1.936  0.4442 -0.2989  0.0076
 6286TIP3    H140417   3.816   1.623   2.012  1.8852 -1.0991  1.3294
 6286TIP3    H240418   3.846   1.655   1.867 -0.6757  0.6176  1.1194
 6287TIP3   OH240419   5.688   6.276   2.037  0.1300 -0.0110 -0.1696
 6287TIP3    H140420   5.781   6.298   2.046 -0.0626  0.4037  0.9483
 6287TIP3    H240421   5.688   6.183   2.015  0.8039 -0.1903  0.5383
 6288TIP3   OH240422   5.902   1.679   1.288  0.8451  0.8803 -0.2551
 6288TIP3    H140423   5.815   1.642   1.274  0.0049  2.4428  0.6046
 6288TIP3    H240424   5.956   1.641   1.218 -0.4970 -0.1801 -0.7413
 6289TIP3   OH240425   2.082   2.014   1.686 -0.3380 -0.2909 -0.6125
 6289TIP3    H140426   2.129   1.997   1.767 -0.2865 -0.6139 -0.7057
 6289TIP3    H240427   2.041   1.930   1.664  1.4033 -0.8487 -2.0434
 6290TIP3   OH240428   2.000   6.738   1.513 -0.0714 -0.1942  0.4198
 6290TIP3    H140429   2.025   6.831   1.511 -0.0876 -0.1990 -0.5440
 6290TIP3    H240430   1.918   6.736   1.561 -0.3468  0.3641 -0.0189
 6291TIP3   OH240431   3.553   6.551   8.040  0.5465 -0.1073 -0.0879
 6291TIP3    H140432   3.501   6.471   8.040  0.7556 -0.2442 -0.2910
 6291TIP3    H240433   3.501   6.613   8.091 -0.2468  0.0303 -1.0250
 6292TIP3   OH240434   3.775   6.790   7.468  0.1751 -0.3525  0.6054
 6292TIP3    H140435   3.830   6.782   7.546  0.0674  0.1132  0.7326
 6292TIP3    H240436   3.774   6.702   7.430 -1.0141 -0.9547  1.9569
 6293TIP3   OH240437   3.931   5.612   7.838 -0.2972  0.5519 -0.0767
 6293TIP3    H140438   3.877   5.594   7.761 -1.4877  1.0556  0.6103
 6293TIP3    H240439   3.920   5.536   7.894  1.2097 -0.1791 -0.7190
 6294TIP3   OH240440   1.193   2.651   6.683  0.4330 -0.3376  0.5304
 6294TIP3    H140441   1.195   2.647   6.587  0.5020 -0.3956  0.5343
 6294TIP3    H240442   1.105   2.624   6.706  0.1142  0.5865  0.4389
 6295TIP3   OH240443   6.494   3.339   1.909 -0.0165 -0.3548  0.4002
 6295TIP3    H140444   6.529   3.424   1.884  0.6692 -0.4249  1.0802
 6295TIP3    H240445   6.405   3.339   1.875 -0.0082  0.6192  0.3433
 6296TIP3   OH240446   2.247   1.771   8.668  0.6849 -0.3795 -0.3359
 6296TIP3    H140447   2.255   1.820   8.586  2.3470  0.1666  0.1213
 6296TIP3    H240448   2.167   1.805   8.707  0.8216  0.6448 -0.9008
 6297TIP3   OH240449   4.073   4.488   1.557 -0.0770  0.6190 -0.4221
 6297TIP3    H140450   4.067   4.539   1.476  0.9723 -0.0132 -0.9144
 6297TIP3    H240451   4.150   4.432   1.545 -0.1659  0.1932  0.8333
 6298TIP3   OH240452   4.343   2.985   0.238 -0.1298  0.6590 -0.1460
 6298TIP3    H140453   4.268   2.927   0.226 -0.5873  0.8927  1.4113
 6298TIP3    H240454   4.307   3.064   0.278  1.1383  0.0806  2.3690
 6299TIP3   OH240455   2.498   5.784   1.424 -0.3283 -0.4958 -0.2706
 6299TIP3    H140456   2.422   5.797   1.368 -0.0274 -0.4620 -0.6751
 6299TIP3    H240457   2.573   5.798   1.367 -0.0141 -0.9899  0.0110
 6300TIP3   OH240458   3.265   4.531   0.538 -0.1407 -0.6401  0.2065
 6300TIP3    H140459   3.216   4.489   0.608 -0.8426 -1.9665 -1.0211
 6300TIP3    H240460   3.310   4.460   0.493  1.0205  0.2865 -0.1561
 6301TIP3   OH240461   0.989   1.772   1.800 -0.2951  0.7021  0.0432
 6301TIP3    H140462   0.941   1.844   1.840 -0.3882 -0.3116  1.8717
 6301TIP3    H240463   1.069   1.765   1.852 -0.7512 -1.1256  0.5543
 6302TIP3   OH240464   2.636   0.379   0.339  0.0351  0.3090  0.4126
 6302TIP3    H140465   2.589   0.435   0.400  0.0804  0.1717  0.5754
 6302TIP3    H240466   2.711   0.347   0.389 -0.3247 -0.3853  0.5172
 6303TIP3   OH240467   1.767   3.797   0.453 -0.3005 -0.2279 -0.0123
 6303TIP3    H140468   1.755   3.712   0.494 -1.5839  0.8286  1.9690
 6303TIP3    H240469   1.824   3.845   0.513  0.5452  0.2961 -1.1882
 6304TIP3   OH240470   0.055   6.384   7.577  0.0618 -0.5732  0.0781
 6304TIP3    H140471   0.133   6.373   7.631  1.8366 -2.3905 -2.6297
 6304TIP3    H240472   0.058   6.475   7.548 -0.2544  0.0711  1.9355
 6305TIP3   OH240473   4.558   3.160   7.117  0.5775  0.0191  0.2317
 6305TIP3    H140474   4.472   3.183   7.153  0.6307 -1.9129  1.6933
 6305TIP3    H240475   4.556   3.065   7.110  2.4553 -0.0150 -0.1249
 6306TIP3   OH240476   2.507   2.109   7.121 -0.1451 -0.1023  0.5581
 6306TIP3    H140477   2.469   2.125   7.035 -0.1495 -0.2221  0.5372
 6306TIP3    H240478   2.432   2.087   7.176 -0.1733  0.2389  0.6571
 6307TIP3   OH240479   5.775   6.037   7.741  0.6706 -0.2406  0.2926
 6307TIP3    H140480   5.855   6.018   7.692  1.3676  1.2974  0.7652
 6307TIP3    H240481   5.793   6.007   7.830  0.2100 -1.0833  0.1124
 6308TIP3   OH240482   1.092   0.747   8.153  0.5673 -0.4062 -0.4856
 6308TIP3    H140483   1.069   0.766   8.244  1.4177 -0.3463 -0.2767
 6308TIP3    H240484   1.125   0.830   8.119  2.4361 -0.9615 -0.1499
 6309TIP3   OH240485   1.346   1.010   0.091 -0.1229 -0.1201  0.1442
 6309TIP3    H140486   1.377   1.077   0.030  0.0091 -0.5793 -0.2931
 6309TIP3    H240487   1.403   1.020   0.168 -1.4077  1.6233  0.9336
 6310TIP3   OH240488   0.904   2.694   8.451 -0.5104  0.3551  0.2803
 6310TIP3    H140489   0.951   2.666   8.372 -2.4433  0.0824 -0.8217
 6310TIP3    H240490   0.845   2.762   8.422  0.0996  1.6512  1.9066
 6311TIP3   OH240491   6.080   6.070   0.547 -0.1431  0.0218  0.1037
 6311TIP3    H140492   5.988   6.073   0.519 -0.5851 -0.8667  1.3822
 6311TIP3    H240493   6.090   6.145   0.605 -0.0120  0.1931 -0.1365
 6312TIP3   OH240494   1.204   6.021   8.546  0.0480 -0.3580 -0.0267
 6312TIP3    H140495   1.274   6.076   8.512 -0.8028  0.7390 -0.0719
 6312TIP3    H240496   1.212   5.938   8.498  1.0509 -0.1111 -0.3014
 6313TIP3   OH240497   6.070   4.293   7.459  0.4136 -0.8086  0.0391
 6313TIP3    H140498   6.161   4.311   7.483  0.2470 -0.0003  0.1038
 6313TIP3    H240499   6.063   4.318   7.367 -0.1953  0.9952  0.5273
 6314TIP3   OH240500   2.885   0.727   7.980  0.1835  0.3670 -0.0298
 6314TIP3    H140501   2.792   0.730   7.999  0.2563  0.2243  0.3521
 6314TIP3    H240502   2.924   0.679   8.053  0.2948 -1.3373 -1.1584
 6315TIP3   OH240503   3.067   2.903   6.678  0.2946 -0.2252  0.4441
 6315TIP3    H140504   3.091   2.938   6.592 -1.1858  0.6573  0.3480
 6315TIP3    H240505   3.010   2.828   6.657  0.8012 -0.6757  0.6611
 6316TIP3   OH240506   4.729   1.059   8.770  0.1143 -0.0562  0.1034
 6316TIP3    H140507   4.663   0.991   8.761 -0.5541  0.4352  1.0891
 6316TIP3    H240508   4.757   1.054   8.861 -1.2653  2.0897  0.7486
 6317TIP3   OH240509   1.433   5.424   1.758  0.1049 -0.6863  0.0643
 6317TIP3    H140510   1.395   5.367   1.825 -1.5402  0.3456  0.0598
 6317TIP3    H240511   1.358   5.459   1.710  1.1416  0.2726 -0.9266
 6318TIP3   OH240512   1.084   0.959   2.126 -0.4479  0.3627  0.0724
 6318TIP3    H140513   1.133   0.878   2.116 -0.3332  0.5820 -1.1833
 6318TIP3    H240514   1.019   0.938   2.194  1.1726  0.0051  1.5999
 6319TIP3   OH240515   4.927   5.884   8.350 -0.1471 -0.2440 -0.1240
 6319TIP3    H140516   4.896   5.825   8.419  0.2650 -0.8956 -0.4856
 6319TIP3    H240517   4.929   5.830   8.272  1.1814 -0.0135 -0.2648
 6320TIP3   OH240518   4.216   5.772   2.066 -0.0589  0.5866 -0.2644
 6320TIP3    H140519   4.139   5.828   2.083 -0.2136  1.0113 -2.1076
 6320TIP3    H240520   4.287   5.834   2.051  0.2052  0.2459 -0.4333
 6321TIP3   OH240521   6.330   4.865   0.129 -0.1647  0.1282  0.1942
 6321TIP3    H140522   6.237   4.846   0.147  0.2966 -0.5003  2.1520
 6321TIP3    H240523   6.362   4.904   0.210  1.4135 -0.1245 -0.2921
 6322TIP3   OH240524   3.374   6.297   8.002  0.5398  0.6918 -0.2991
 6322TIP3    H140525   3.452   6.242   8.003  0.6492  0.8073  1.8920
 6322TIP3    H240526   3.301   6.237   7.988  0.6723 -0.0714  1.8888
 6323TIP3   OH240527   0.190   0.150   8.285 -0.6901 -0.3840 -0.2113
 6323TIP3    H140528   0.106   0.188   8.312 -1.1013 -1.0297 -0.5455
 6323TIP3    H240529   0.187   0.153   8.189 -0.1158  0.0373 -0.2187
 6324TIP3   OH240530   0.487   5.441   1.434 -0.0090 -0.5237 -0.6287
 6324TIP3    H140531   0.428   5.387   1.381 -1.5525  0.5517 -0.0853
 6324TIP3    H240532   0.490   5.397   1.518 -0.2366 -0.4548 -0.5836
 6325TIP3   OH240533   3.158   5.297   8.001  0.4259  1.0576  0.6287
 6325TIP3    H140534   3.069   5.266   7.982  0.5060  0.3300  1.3861
 6325TIP3    H240535   3.171   5.371   7.942  0.7308 -1.1569 -2.3593
 6326TIP3   OH240536   3.295   5.403   7.021  0.0338  0.0806 -0.1891
 6326TIP3    H140537   3.219   5.417   6.964  0.0764  2.9884  0.3285
 6326TIP3    H240538   3.299   5.481   7.076  2.5272 -0.6731  0.8583
 6327TIP3   OH240539   3.620   5.127   0.822  0.2720 -0.2699 -0.2920
 6327TIP3    H140540   3.572   5.210   0.825  0.7871  0.0106  1.2901
 6327TIP3    H240541   3.686   5.140   0.754 -0.1134  0.3610 -0.5548
 6328TIP3   OH240542   2.384   4.778   6.852  0.6157 -0.3962  0.5316
 6328TIP3    H140543   2.347   4.839   6.788  0.0608  0.0958  1.3009
 6328TIP3    H240544   2.341   4.695   6.832  1.2776 -0.5248 -0.4383
 6329TIP3   OH240545   4.298   1.673   8.126  0.6134 -0.6379  0.4454
 6329TIP3    H140546   4.260   1.635   8.205  0.3499  0.2154  0.7312
 6329TIP3    H240547   4.231   1.734   8.094  0.9230 -0.6038 -0.1630
 6330TIP3   OH240548   6.376   3.587   1.647 -0.7803  0.0139  0.0658
 6330TIP3    H140549   6.338   3.651   1.587 -0.6951  0.8493  0.8816
 6330TIP3    H240550   6.389   3.509   1.594 -0.7237  0.7285 -0.9942
 6331TIP3   OH240551   1.013   4.068   0.664 -0.8920 -0.4195  0.3139
 6331TIP3    H140552   1.006   4.004   0.594 -0.8072  0.4713 -0.5240
 6331TIP3    H240553   0.934   4.122   0.656  0.6674  1.8533 -1.3321
 6332TIP3   OH240554   1.073   4.211   1.830 -0.1139 -0.2163 -0.1167
 6332TIP3    H140555   1.155   4.214   1.878 -0.4003  0.0098  0.3643
 6332TIP3    H240556   1.009   4.251   1.889 -0.6724 -0.8362 -0.2861
 6333TIP3   OH240557   3.406   2.376   8.339 -0.6628  0.3121 -0.3758
 6333TIP3    H140558   3.340   2.310   8.357  0.2289 -0.5017  0.0185
 6333TIP3    H240559   3.358   2.448   8.298 -1.7640 -0.2839 -0.1649
 6334TIP3   OH240560   2.108   1.926   0.926 -0.2875  0.6054  0.3559
 6334TIP3    H140561   2.197   1.902   0.953 -1.0180  0.9752  3.4258
 6334TIP3    H240562   2.053   1.856   0.960 -1.4737  1.9500  1.3400
 6335TIP3   OH240563   2.961   5.076   0.828  0.5609  0.2710  0.4631
 6335TIP3    H140564   2.905   5.032   0.891 -1.0465  0.1997 -0.9376
 6335TIP3    H240565   2.959   5.020   0.751  0.8979  1.2975 -0.3232
 6336TIP3   OH240566   4.410   2.028   0.121  0.3183  0.1835  0.1494
 6336TIP3    H140567   4.431   1.964   0.052  0.9540  0.9110 -0.3555
 6336TIP3    H240568   4.341   2.082   0.082 -0.5054 -0.4334  0.7292
 6337TIP3   OH240569   5.775   6.467   8.497 -0.3938 -0.2838 -0.3806
 6337TIP3    H140570   5.799   6.458   8.405  0.0316 -0.5266 -0.2489
 6337TIP3    H240571   5.680   6.460   8.498 -0.3743 -0.6566 -0.7626
 6338TIP3   OH240572   6.108   4.465   8.811  0.1623  0.2880 -0.1365
 6338TIP3    H140573   6.183   4.416   8.846 -0.2020 -0.2838 -0.1395
 6338TIP3    H240574   6.052   4.481   8.886 -0.3973 -0.5374 -0.3660
 6339TIP3   OH240575   6.137   6.021   0.977  0.6195 -0.0496 -0.0057
 6339TIP3    H140576   6.205   5.972   1.022  0.5110 -0.5784 -0.3967
 6339TIP3    H240577   6.062   5.961   0.974 -0.5721  1.2188  2.1811
 6340TIP3   OH240578   5.332   0.166   0.359  0.2018 -0.3259  0.0947
 6340TIP3    H140579   5.298   0.178   0.447 -0.2620 -0.9694  0.0121
 6340TIP3    H240580   5.330   0.253   0.320  2.0890  0.3130  1.2973
 6341TIP3   OH240581   6.523   5.180   0.093  0.6339  1.0184 -0.3336
 6341TIP3    H140582   6.548   5.245   0.158  1.8661  0.1214  0.1316
 6341TIP3    H240583   6.595   5.178   0.030  1.5714 -1.2003  0.7074
 6342TIP3   OH240584   1.306   4.684   2.540 -0.4198 -0.8308 -0.3450
 6342TIP3    H140585   1.224   4.697   2.492 -1.2184 -2.3425  0.5353
 6342TIP3    H240586   1.345   4.771   2.545 -1.2904 -0.3012 -1.9654
 6343TIP3   OH240587   0.079   3.281   7.357 -0.2822 -0.0876  0.2660
 6343TIP3    H140588   0.077   3.302   7.450  0.9909 -0.9788  0.5124
 6343TIP3    H240589   0.146   3.338   7.320 -0.3437 -0.1813  0.0048
 6344TIP3   OH240590   1.718   3.282   0.778  0.0183 -0.9262  0.0024
 6344TIP3    H140591   1.698   3.295   0.685 -0.5540  1.5359  0.3945
 6344TIP3    H240592   1.797   3.335   0.793  0.5708 -1.9445  0.7671
 6345TIP3   OH240593   2.130   0.909   7.179  0.1070 -0.6000  0.4174
 6345TIP3    H140594   2.148   0.895   7.086 -0.4950 -1.0457  0.3648
 6345TIP3    H240595   2.214   0.939   7.215  0.7801 -1.9348  0.0287
 6346TIP3   OH240596   1.053   4.170   1.275 -0.2858  0.0992  1.0170
 6346TIP3    H140597   1.085   4.261   1.280 -3.4480  1.5973 -1.9853
 6346TIP3    H240598   1.125   4.122   1.235 -0.0720  2.4038 -1.7187
 6347TIP3   OH240599   2.439   2.461   7.082 -0.3022  0.3684  0.5513
 6347TIP3    H140600   2.432   2.527   7.013  3.1160 -1.7461 -2.1833
 6347TIP3    H240601   2.368   2.399   7.064  1.4909 -1.0522 -2.4232
 6348TIP3   OH240602   3.243   3.023   0.224 -0.4275  0.0442 -0.3797
 6348TIP3    H140603   3.306   3.065   0.166 -0.9232 -1.1937 -1.9008
 6348TIP3    H240604   3.278   2.934   0.235 -0.5035  0.1705  1.0107
 6349TIP3   OH240605   2.361   4.470   7.047 -0.1865 -0.7265 -0.3025
 6349TIP3    H140606   2.346   4.497   6.956 -1.3271  1.4218  0.4315
 6349TIP3    H240607   2.277   4.486   7.090  0.9943  0.7313  1.6283
 6350TIP3   OH240608   5.755   6.462   8.766  0.3063  0.1320 -0.0096
 6350TIP3    H140609   5.767   6.455   8.671  1.3009 -0.2007  0.1272
 6350TIP3    H240610   5.665   6.433   8.782  0.3907 -0.5720 -0.7674
 6351TIP3   OH240611   0.953   4.388   6.608 -0.0095 -0.5658  0.3573
 6351TIP3    H140612   0.877   4.330   6.598 -0.3071 -0.6051  2.3291
 6351TIP3    H240613   0.916   4.473   6.630  0.4871 -0.2369 -0.0574
 6352TIP3   OH240614   6.392   4.469   1.105  0.0143  0.1882 -0.1669
 6352TIP3    H140615   6.371   4.484   1.197 -1.8680  1.9765 -0.8143
 6352TIP3    H240616   6.332   4.526   1.057  0.6099 -1.0533 -2.5342
 6353TIP3   OH240617   2.110   6.556   1.884  0.0161  0.1160 -0.1806
 6353TIP3    H140618   2.031   6.526   1.929 -0.1901  1.1170  0.1360
 6353TIP3    H240619   2.098   6.650   1.873  1.1303  0.2744 -0.1974
 6354TIP3   OH240620   6.245   0.720   7.693 -0.0535 -0.1322  0.4965
 6354TIP3    H140621   6.338   0.739   7.681  0.1792 -0.1741  2.0202
 6354TIP3    H240622   6.235   0.630   7.664  0.6399 -0.5227  1.4181
 6355TIP3   OH240623   1.948   3.068   1.374  0.5413  0.0295 -0.1044
 6355TIP3    H140624   1.927   3.070   1.281 -0.3268 -2.4568 -0.0542
 6355TIP3    H240625   1.928   2.978   1.401  0.7909  0.6604  2.4862
 6356TIP3   OH240626   2.474   1.684   6.665 -0.0931  0.3159  0.3572
 6356TIP3    H140627   2.444   1.604   6.622 -0.2367  1.4206 -1.7670
 6356TIP3    H240628   2.521   1.732   6.596 -0.3395  2.2203  1.4320
 6357TIP3   OH240629   1.209   4.830   7.579 -0.6808 -0.6394 -0.2868
 6357TIP3    H140630   1.263   4.794   7.649 -0.6440 -0.5283 -0.2580
 6357TIP3    H240631   1.140   4.765   7.566  0.5110 -1.7176 -1.6163
 6358TIP3   OH240632   5.310   5.008   6.326 -0.1736  0.8352 -0.1285
 6358TIP3    H140633   5.267   5.039   6.405  1.6944 -0.2456  1.4205
 6358TIP3    H240634   5.312   4.912   6.337  0.5978  0.7162 -1.2018
 6359TIP3   OH240635   2.833   2.456   1.886 -0.1060  0.5909  0.4663
 6359TIP3    H140636   2.858   2.535   1.839 -2.9582  0.8352 -0.8950
 6359TIP3    H240637   2.788   2.402   1.821  2.5770 -2.7064  1.0946
 6360TIP3   OH240638   6.234   5.551   0.582 -0.3554  0.1273  0.2937
 6360TIP3    H140639   6.326   5.576   0.575  0.1098 -1.7510 -1.2599
 6360TIP3    H240640   6.187   5.634   0.587  1.3246  1.1895 -0.4467
 6361TIP3   OH240641   5.582   5.409   8.650 -0.0069 -0.0564  0.1745
 6361TIP3    H140642   5.627   5.327   8.669  0.3197  0.1783  0.4446
 6361TIP3    H240643   5.517   5.418   8.720  1.4470  0.9911  1.4686
 6362TIP3   OH240644   5.413   5.030   0.647 -0.1319 -0.0711 -0.1801
 6362TIP3    H140645   5.450   4.951   0.686  2.4833  0.0262 -2.1501
 6362TIP3    H240646   5.461   5.101   0.689  0.1177  0.2273 -0.9497
 6363TIP3   OH240647   0.883   5.377   6.788  0.4289  0.5373 -0.1748
 6363TIP3    H140648   0.847   5.447   6.732  1.2225  1.6764  0.6861
 6363TIP3    H240649   0.959   5.345   6.739  0.9400  1.3190  0.0778
 6364TIP3   OH240650   6.744   5.426   1.500  0.3749  1.0316  0.4162
 6364TIP3    H140651   6.764   5.335   1.520  1.7909  0.7386 -1.8768
 6364TIP3    H240652   6.828   5.471   1.508  0.1042  1.7145 -0.3615
 6365TIP3   OH240653   6.165   0.709   8.776  0.2028 -0.3063  0.2698
 6365TIP3    H140654   6.075   0.741   8.770  0.3175  1.1057  3.8260
 6365TIP3    H240655   6.161   0.620   8.740 -2.6810 -0.3954  0.5965
 6366TIP3   OH240656   4.284   3.941   1.887  1.3326  0.1958 -0.0484
 6366TIP3    H140657   4.304   3.979   1.973 -0.2434  1.8932 -0.3592
 6366TIP3    H240658   4.270   4.018   1.830 -0.5950 -0.8498 -1.0803
 6367TIP3   OH240659   1.181   4.415   0.117 -0.0428  0.6468 -0.2251
 6367TIP3    H140660   1.175   4.471   0.194 -0.0068  1.4573 -0.7958
 6367TIP3    H240661   1.264   4.367   0.129 -0.1992  0.5227  0.3900
 6368TIP3   OH240662   1.022   5.424   6.455  0.6211  0.5120 -0.9781
 6368TIP3    H140663   0.983   5.505   6.486 -1.4421  0.0704 -2.1682
 6368TIP3    H240664   1.043   5.375   6.534 -3.7850 -0.2956 -0.0308
 6369TIP3   OH240665   4.039   3.004   1.423 -0.1556  0.4698  0.2636
 6369TIP3    H140666   4.035   3.066   1.496  0.7150  0.6895  0.1278
 6369TIP3    H240667   3.973   3.037   1.361 -1.5300 -0.2051  1.2965
 6370TIP3   OH240668   0.336   6.487   0.640  0.3614  0.0278 -0.4265
 6370TIP3    H140669   0.326   6.568   0.590  1.2433 -0.1809 -0.9655
 6370TIP3    H240670   0.394   6.434   0.587  0.1896 -0.7656  0.1676
 6371TIP3   OH240671   4.525   5.573   0.496 -0.4428 -0.1955  0.0965
 6371TIP3    H140672   4.584   5.546   0.425 -0.8332  2.9803 -1.6222
 6371TIP3    H240673   4.447   5.519   0.484 -0.4415  0.1662 -1.8825
 6372TIP3   OH240674   3.582   1.004   1.075 -0.3424  0.6986 -0.1399
 6372TIP3    H140675   3.647   1.054   1.026  0.3819  0.0729  0.1570
 6372TIP3    H240676   3.524   1.070   1.112 -0.1616  1.2409 -0.8112
 6373TIP3   OH240677   2.289   3.782   7.258 -0.0694 -0.4261 -0.1035
 6373TIP3    H140678   2.216   3.826   7.215  0.1149  0.8703  0.8190
 6373TIP3    H240679   2.319   3.717   7.195 -0.8674  0.2607 -1.2294
 6374TIP3   OH240680   6.139   2.375   1.768  0.1848 -1.1412 -0.0075
 6374TIP3    H140681   6.207   2.419   1.717  2.3953 -2.0219  1.9809
 6374TIP3    H240682   6.078   2.341   1.702  0.1326  1.9534 -1.7532
 6375TIP3   OH240683   6.019   3.289   1.525 -0.2174 -0.2242  0.4332
 6375TIP3    H140684   6.025   3.308   1.618 -0.4281  1.0655  0.1983
 6375TIP3    H240685   5.989   3.371   1.485 -1.2090 -1.0677 -0.6389
 6376TIP3   OH240686   1.814   3.833   6.395 -0.2449  0.1216 -0.2736
 6376TIP3    H140687   1.861   3.792   6.468  1.3894  0.7359 -0.9098
 6376TIP3    H240688   1.869   3.814   6.318 -1.4464  0.2611 -1.1900
 6377TIP3   OH240689   5.186   1.279   8.234 -0.3505 -0.3180 -0.2643
 6377TIP3    H140690   5.230   1.328   8.165  0.5189  1.2611  1.3419
 6377TIP3    H240691   5.255   1.226   8.274 -1.1134 -2.2852 -1.4266
 6378TIP3   OH240692   5.546   1.671   0.468 -0.2238 -0.6033  0.3452
 6378TIP3    H140693   5.543   1.764   0.489  2.1777 -0.2146 -0.6235
 6378TIP3    H240694   5.465   1.655   0.419 -0.7505  0.9310  0.6540
 6379TIP3   OH240695   1.057   6.591   1.467 -0.1750  0.1585 -0.4348
 6379TIP3    H140696   1.060   6.543   1.385  0.1326  0.0429 -0.3546
 6379TIP3    H240697   0.968   6.628   1.469 -0.7609 -1.2001 -0.0387
 6380TIP3   OH240698   2.183   2.138   0.680  0.2499  0.0908  0.2803
 6380TIP3    H140699   2.258   2.085   0.653  0.2568  0.6022 -0.7180
 6380TIP3    H240700   2.140   2.085   0.748  1.7822  0.0132  1.2400
 6381TIP3   OH240701   4.715   4.254   7.082  0.6745 -0.4693 -0.2937
 6381TIP3    H140702   4.722   4.178   7.024 -0.9330 -0.6154 -0.3276
 6381TIP3    H240703   4.683   4.324   7.026  2.9072  0.5097 -0.4488
 6382TIP3   OH240704   4.425   1.615   6.752 -0.1233  0.4048 -0.3628
 6382TIP3    H140705   4.422   1.542   6.690  0.0425 -0.1966  0.3274
 6382TIP3    H240706   4.353   1.672   6.724 -1.0818 -0.6509 -0.1460
 6383TIP3   OH240707   0.444   2.344   7.865  0.5341  0.9657 -0.2460
 6383TIP3    H140708   0.379   2.372   7.801 -0.1002  0.0498 -0.0320
 6383TIP3    H240709   0.497   2.279   7.819 -0.6678 -0.5853  0.4508
 6384TIP3   OH240710   6.019   5.158   0.059  0.3025  0.5341 -0.4591
 6384TIP3    H140711   6.105   5.145   0.020  0.4108  2.0095 -0.7951
 6384TIP3    H240712   6.025   5.118   0.146  1.6552  1.4570 -0.0972
 6385TIP3   OH240713   4.394   2.865   7.195 -0.2040 -0.0724  0.1947
 6385TIP3    H140714   4.407   2.880   7.102  0.1017  1.3069  0.4370
 6385TIP3    H240715   4.419   2.773   7.208 -2.1295 -0.8914 -1.3845
 6386TIP3   OH240716   2.515   1.311   7.085  0.1595  0.3595 -0.4319
 6386TIP3    H140717   2.507   1.402   7.057  0.7937 -0.1178 -2.2985
 6386TIP3    H240718   2.572   1.270   7.020 -2.3257 -2.0532 -1.3339
 6387TIP3   OH240719   6.613   2.325   0.615  0.0944 -0.0860  0.7472
 6387TIP3    H140720   6.585   2.275   0.538  2.2601 -0.2623 -0.0119
 6387TIP3    H240721   6.560   2.405   0.612  0.4887  0.1752 -1.3242
 6388TIP3   OH240722   0.250   1.476   2.047 -0.4170  0.1276  0.3749
 6388TIP3    H140723   0.198   1.401   2.077 -0.2129 -0.6473 -1.0876
 6388TIP3    H240724   0.340   1.443   2.045 -0.4734 -0.0309 -1.4602
 6389TIP3   OH240725   3.977   0.146   7.244  0.0853  0.1741 -0.3758
 6389TIP3    H140726   4.018   0.226   7.278 -0.5857  0.6548 -0.6571
 6389TIP3    H240727   3.935   0.107   7.320  0.4770  0.0461 -0.2216
 6390TIP3   OH240728   3.252   2.378   0.108  0.2176 -0.3395 -0.0726
 6390TIP3    H140729   3.309   2.341   0.041  2.4295 -0.8626  1.9587
 6390TIP3    H240730   3.170   2.397   0.062  1.8158 -0.0191 -3.0237
 6391TIP3   OH240731   0.070   2.569   1.491 -0.0917  0.0215 -0.4972
 6391TIP3    H140732   0.060   2.510   1.417 -0.0407  0.9189 -1.2269
 6391TIP3    H240733  -0.004   2.629   1.485  0.4451  0.7087 -0.3850
 6392TIP3   OH240734   1.899   5.817   7.755 -0.4859 -0.2196 -0.2613
 6392TIP3    H140735   1.827   5.879   7.753 -0.7458 -0.4237  1.3507
 6392TIP3    H240736   1.978   5.872   7.754 -0.6648  0.0329 -1.1509
 6393TIP3   OH240737   3.391   3.363   2.358 -0.4279 -0.4418 -0.2658
 6393TIP3    H140738   3.472   3.337   2.400 -1.2292 -1.9179  0.4456
 6393TIP3    H240739   3.385   3.307   2.280 -0.2410  0.4358 -0.9291
 6394TIP3   OH240740   0.767   0.148   8.245 -0.0640 -0.5522  0.3969
 6394TIP3    H140741   0.795   0.209   8.313 -0.9254  0.9919 -0.5936
 6394TIP3    H240742   0.685   0.111   8.279 -1.0152  0.9518 -0.1949
 6395TIP3   OH240743   0.197   0.341   0.757  0.3800 -0.1192  0.8087
 6395TIP3    H140744   0.125   0.384   0.710  0.4432 -2.0203 -1.1544
 6395TIP3    H240745   0.236   0.411   0.809 -1.0783  1.6145 -0.3016
 6396TIP3   OH240746   6.333   6.632   0.425 -0.4667  0.6357 -0.0265
 6396TIP3    H140747   6.345   6.542   0.393 -0.1063 -0.7023  3.4668
 6396TIP3    H240748   6.238   6.642   0.432 -0.5091  0.5620 -0.4370
 6397TIP3   OH240749   0.638   4.580   6.799  0.5005 -0.2719  0.1758
 6397TIP3    H140750   0.677   4.509   6.849  1.8957 -0.1616 -0.6903
 6397TIP3    H240751   0.710   4.615   6.747 -0.9431 -0.6731 -2.2458
 6398TIP3   OH240752   3.296   0.519   8.148  0.0211  0.2608  0.4273
 6398TIP3    H140753   3.301   0.444   8.208  0.6854  0.3423  0.4768
 6398TIP3    H240754   3.236   0.491   8.079  0.6583 -0.5057  0.1786
 6399TIP3   OH240755   6.235   4.003   7.465 -0.1008 -0.0150 -0.1831
 6399TIP3    H140756   6.185   4.020   7.385 -2.6326  1.0570  1.4872
 6399TIP3    H240757   6.325   4.028   7.443 -0.6606  0.1344 -2.6785
 6400TIP3   OH240758   4.549   3.563   0.670  0.1273  0.9790 -0.1273
 6400TIP3    H140759   4.547   3.475   0.708 -2.8451  0.7486 -0.5411
 6400TIP3    H240760   4.641   3.589   0.674  0.8490 -1.4351  1.6077
 6401TIP3   OH240761   2.577   3.195   1.597 -0.1570  0.3182 -0.5988
 6401TIP3    H140762   2.635   3.167   1.668 -0.8432 -0.4706 -0.3278
 6401TIP3    H240763   2.616   3.275   1.564  0.1924  0.7007  0.6739
 6402TIP3   OH240764   6.363   6.354   0.439  0.2131 -0.0224  0.2156
 6402TIP3    H140765   6.439   6.370   0.383  0.5257 -0.9523  0.3662
 6402TIP3    H240766   6.382   6.271   0.483  0.1149  0.8070  1.9330
 6403TIP3   OH240767   0.832   3.278   7.950 -0.6570 -0.2573  0.0832
 6403TIP3    H140768   0.741   3.255   7.935 -1.5578  2.5751  0.6295
 6403TIP3    H240769   0.830   3.336   8.027  1.8627 -1.6831  1.3458
 6404TIP3   OH240770   1.795   6.592   8.150 -0.7272 -0.2102 -0.8762
 6404TIP3    H140771   1.719   6.566   8.201 -0.3595 -0.5473 -0.4966
 6404TIP3    H240772   1.868   6.593   8.212 -0.7327  1.8907 -0.8197
 6405TIP3   OH240773   6.715   6.665   1.766 -0.3631 -0.0711 -0.5290
 6405TIP3    H140774   6.632   6.707   1.741 -0.0953  0.2319 -0.9198
 6405TIP3    H240775   6.738   6.704   1.850 -1.4557 -1.3519  0.4051
 6406TIP3   OH240776   3.217   3.989   7.530  0.1041 -0.2390  0.2170
 6406TIP3    H140777   3.280   3.964   7.598 -1.4698  0.6311  2.0721
 6406TIP3    H240778   3.148   4.035   7.576 -0.2758  1.8498 -2.1994
 6407TIP3   OH240779   2.203   6.059   8.183 -0.4609 -0.5352 -0.3395
 6407TIP3    H140780   2.265   6.035   8.114 -1.3477 -1.4032 -0.8584
 6407TIP3    H240781   2.187   5.977   8.230 -0.7648 -0.1906  0.1674
 6408TIP3   OH240782   1.393   5.125   6.784 -0.3048 -0.0448 -0.2698
 6408TIP3    H140783   1.399   5.145   6.690  1.6937 -0.0030 -0.1732
 6408TIP3    H240784   1.345   5.043   6.788  1.0905 -0.9603 -1.4798
 6409TIP3   OH240785   3.259   6.344   8.716 -0.3289 -0.2948 -0.1264
 6409TIP3    H140786   3.330   6.400   8.683 -1.1900  0.9043 -0.0355
 6409TIP3    H240787   3.290   6.313   8.801 -0.3720  1.2200  0.4831
 6410TIP3   OH240788   1.405   2.997   8.060 -0.0019 -0.4898 -0.0696
 6410TIP3    H140789   1.493   2.973   8.032  1.1611 -0.1758  2.9255
 6410TIP3    H240790   1.412   3.008   8.155 -3.1291  0.2471  0.1968
 6411TIP3   OH240791   2.198   6.780   7.231  1.0635 -0.5076 -0.2056
 6411TIP3    H140792   2.133   6.724   7.272  1.8875 -1.5272 -0.2314
 6411TIP3    H240793   2.183   6.769   7.137  0.6219  0.0603 -0.2035
 6412TIP3   OH240794   2.304   1.595   6.366 -0.1380  0.2470  0.1219
 6412TIP3    H140795   2.397   1.573   6.362  0.4162  1.9752  2.0135
 6412TIP3    H240796   2.297   1.677   6.316 -0.2561  1.0925  1.4688
 6413TIP3   OH240797   0.247   2.893   1.560 -0.6531 -0.2133 -0.0672
 6413TIP3    H140798   0.275   2.814   1.607 -2.5386  0.8016  2.9915
 6413TIP3    H240799   0.190   2.860   1.490 -1.1890 -1.6191  0.9860
 6414TIP3   OH240800   1.780   6.107   0.026  0.5964 -0.3476 -0.1333
 6414TIP3    H140801   1.759   6.060   0.107  0.0913  0.0396 -0.0321
 6414TIP3    H240802   1.825   6.043  -0.028  0.3843 -0.7935  0.2119
 6415TIP3   OH240803   5.005   2.314   7.135  0.2624  0.2041 -0.0312
 6415TIP3    H140804   5.036   2.302   7.045  0.8113 -1.8139  0.3754
 6415TIP3    H240805   5.006   2.225   7.172  1.9059  1.2307  2.5891
 6416TIP3   OH240806   6.222   5.264   0.579 -0.2780 -0.0793 -0.2340
 6416TIP3    H140807   6.248   5.352   0.608 -0.1471 -0.3328  0.4401
 6416TIP3    H240808   6.237   5.264   0.485  2.0009 -0.1537  0.0678
 6417TIP3   OH240809   3.455   1.866   0.746 -0.3178  0.8258 -0.4105
 6417TIP3    H140810   3.402   1.868   0.667 -1.7832  2.5100  0.5335
 6417TIP3    H240811   3.544   1.884   0.715 -0.5729 -0.1960 -1.8235
 6418TIP3   OH240812   5.654   0.231   7.119 -0.0757 -0.1088  0.2811
 6418TIP3    H140813   5.626   0.168   7.053 -0.1472  0.6412 -0.4214
 6418TIP3    H240814   5.612   0.313   7.092  1.0094  0.5191  0.4779
 6419TIP3   OH240815   6.208   3.248   2.154  0.5171  0.2905  0.3941
 6419TIP3    H140816   6.200   3.160   2.191 -0.5199  1.5620  3.5373
 6419TIP3    H240817   6.122   3.287   2.165  1.6071  2.5631  1.6404
 6420TIP3   OH240818   0.610   0.898   0.904 -0.0448 -0.6228  0.2328
 6420TIP3    H140819   0.628   0.871   0.814  1.4545  5.2826 -1.6672
 6420TIP3    H240820   0.640   0.824   0.958 -1.1728 -4.5321 -3.9281
 6421TIP3   OH240821   3.401   6.329   0.099  0.3690 -0.3528  0.1592
 6421TIP3    H140822   3.477   6.382   0.125 -0.6402  0.4788  1.5063
 6421TIP3    H240823   3.395   6.261   0.166 -0.6301  0.1544  0.5978
 6422TIP3   OH240824   1.987   3.822   1.158 -0.1326  0.1005 -0.3046
 6422TIP3    H140825   2.009   3.818   1.251 -1.2975 -1.2221 -0.0557
 6422TIP3    H240826   2.064   3.862   1.117  0.0231  1.6366  1.3217
 6423TIP3   OH240827   1.685   2.597   0.299 -0.0295  0.6841  0.0720
 6423TIP3    H140828   1.723   2.518   0.337 -0.9181 -0.5607 -1.5555
 6423TIP3    H240829   1.724   2.669   0.351  1.4504 -0.7314  1.0195
 6424TIP3   OH240830   3.417   1.857   0.171  0.1311 -0.1892 -0.6082
 6424TIP3    H140831   3.338   1.837   0.121  0.1724 -0.5350 -0.5379
 6424TIP3    H240832   3.460   1.772   0.181  0.6465  0.0376 -0.8769
 6425TIP3   OH240833   3.138   2.665   7.483  0.1382  0.2116  0.0150
 6425TIP3    H140834   3.074   2.595   7.471 -1.6328  1.6331  0.7496
 6425TIP3    H240835   3.151   2.702   7.396 -0.4434  0.2263 -0.0687
 6426TIP3   OH240836   4.149   2.802   0.252  0.4472 -0.0270 -0.3367
 6426TIP3    H140837   4.097   2.739   0.302  0.1108  1.3393  1.1127
 6426TIP3    H240838   4.087   2.870   0.227  1.0889  0.4789 -0.5880
 6427TIP3   OH240839   5.402   0.544   0.309  1.1255 -0.2127 -0.2255
 6427TIP3    H140840   5.496   0.566   0.311  1.0121  0.3021 -0.4715
 6427TIP3    H240841   5.372   0.560   0.398  1.1475  0.1840 -0.2879
 6428TIP3   OH240842   2.122   2.639   0.500  0.0818  0.5748  0.1418
 6428TIP3    H140843   2.124   2.546   0.521 -2.0665  0.6579  1.0444
 6428TIP3    H240844   2.213   2.664   0.488  0.6405 -1.9363 -1.5216
 6429TIP3   OH240845   0.755   0.052   1.743 -0.1445 -0.1604  0.6675
 6429TIP3    H140846   0.846   0.084   1.751 -0.7945  2.1510 -0.2725
 6429TIP3    H240847   0.728   0.036   1.834  0.3741  1.7947  1.2279
 6430TIP3   OH240848   0.744   5.063   7.866  0.0286 -0.0492 -0.1873
 6430TIP3    H140849   0.797   4.987   7.842 -0.1585  0.0278 -0.8780
 6430TIP3    H240850   0.804   5.137   7.857  0.4699 -0.1882  1.3722
 6431TIP3   OH240851   2.745   5.809   7.942  0.1635 -0.4699 -0.0759
 6431TIP3    H140852   2.718   5.809   7.851  0.6713 -2.0928 -0.2664
 6431TIP3    H240853   2.840   5.804   7.939  0.1522 -1.2671  0.5266
 6432TIP3   OH240854   5.292   1.510   8.094 -0.4822 -0.3223 -0.4851
 6432TIP3    H140855   5.366   1.471   8.047 -0.4195  0.6162 -1.1766
 6432TIP3    H240856   5.268   1.586   8.042  0.4001  1.5030  1.6177
 6433TIP3   OH240857   6.354   3.082   0.468 -0.4939 -0.2513 -0.1997
 6433TIP3    H140858   6.340   2.993   0.437 -1.2325  0.1522 -1.0538
 6433TIP3    H240859   6.356   3.135   0.389  0.7329  0.4098  0.2361
 6434TIP3   OH240860   2.467   2.074   1.256  0.0935 -0.1283  0.0147
 6434TIP3    H140861   2.495   2.159   1.290 -1.0428  0.8804 -1.4081
 6434TIP3    H240862   2.422   2.096   1.174 -3.2104 -1.7340  1.2289
 6435TIP3   OH240863   5.422   2.987   7.235 -0.5258 -0.2408  0.2283
 6435TIP3    H140864   5.515   2.975   7.216 -0.5247 -0.3787  0.3127
 6435TIP3    H240865   5.392   3.053   7.173 -0.4674 -0.5053 -0.0848
 6436TIP3   OH240866   4.043   4.903   0.595  0.0689 -0.0472 -0.2351
 6436TIP3    H140867   4.086   4.827   0.556 -0.5099 -0.7271  0.4118
 6436TIP3    H240868   4.111   4.944   0.649 -0.0584 -1.1220  0.7953
 6437TIP3   OH240869   2.076   6.283   6.613  0.3390 -0.0773 -0.2361
 6437TIP3    H140870   2.070   6.188   6.600 -1.7924 -0.4288  2.4270
 6437TIP3    H240871   2.104   6.293   6.704  0.4856  1.8815 -0.4433
 6438TIP3   OH240872   0.583   1.454   0.294  0.1567 -0.3637  0.3210
 6438TIP3    H140873   0.534   1.506   0.230 -2.1672 -1.4307  1.1162
 6438TIP3    H240874   0.650   1.409   0.243  2.1673  3.1370 -0.4452
 6439TIP3   OH240875   3.386   2.333   8.020  0.4043 -0.2457  0.2262
 6439TIP3    H140876   3.470   2.317   8.062  0.9210  1.3986 -0.0814
 6439TIP3    H240877   3.341   2.392   8.080  0.3181  0.4947 -0.5387
 6440TIP3   OH240878   1.468   3.688   0.811  0.6897  0.2643 -0.1759
 6440TIP3    H140879   1.495   3.599   0.834  1.5119  0.3275 -0.8159
 6440TIP3    H240880   1.548   3.728   0.776 -0.1381  0.6403 -1.6924
 6441TIP3   OH240881   0.002   3.349   8.703 -0.2456 -0.4180  0.2875
 6441TIP3    H140882  -0.008   3.443   8.714 -1.3266 -0.5425  0.4779
 6441TIP3    H240883   0.074   3.339   8.641 -1.5715  0.6145 -1.5210
 6442TIP3   OH240884   6.010   4.714   7.209 -0.0487 -0.2500 -0.5358
 6442TIP3    H140885   5.978   4.694   7.297  0.5597 -1.3344 -0.5455
 6442TIP3    H240886   6.038   4.806   7.215 -0.1354 -0.2711  0.3675
 6443TIP3   OH240887   6.327   4.302   0.046 -0.2173 -0.2627  0.6452
 6443TIP3    H140888   6.416   4.293   0.011 -1.2234 -1.1481 -1.9205
 6443TIP3    H240889   6.312   4.221   0.095  0.0691 -0.5347  0.2871
 6444TIP3   OH240890   2.026   1.040   8.200  0.0310  0.2833 -0.1297
 6444TIP3    H140891   2.060   0.958   8.165  0.1362  0.1589  0.2568
 6444TIP3    H240892   1.932   1.037   8.183  0.0341  0.0761 -0.1040
 6445TIP3   OH240893   3.656   6.347   0.655  0.0069  0.0917 -0.6442
 6445TIP3    H140894   3.730   6.291   0.677  0.0212  0.6038  0.6799
 6445TIP3    H240895   3.580   6.302   0.693 -0.1846  0.2260 -0.8633
 6446TIP3   OH240896   4.969   5.389   6.855  0.3159  0.2729 -0.2325
 6446TIP3    H140897   4.902   5.458   6.846 -1.4072 -1.3792 -0.6089
 6446TIP3    H240898   4.998   5.373   6.765  0.7166  0.4759 -0.1437
 6447TIP3   OH240899   5.657   0.455   7.746  0.0639 -0.4531 -0.0292
 6447TIP3    H140900   5.582   0.406   7.712 -2.0027  0.8350  2.3306
 6447TIP3    H240901   5.622   0.542   7.765  3.0725  1.3740 -2.0819
 6448TIP3   OH240902   6.630   5.894   0.026 -0.3849 -0.1033  0.0721
 6448TIP3    H140903   6.534   5.897   0.019 -0.3131 -0.2221 -1.0518
 6448TIP3    H240904   6.658   5.844  -0.050  0.6410  0.7538 -0.1307
 6449TIP3   OH240905   3.468   6.633   8.823  0.2402 -0.1727 -0.4434
 6449TIP3    H140906   3.402   6.637   8.754 -0.1735  1.3237  0.0017
 6449TIP3    H240907   3.419   6.652   8.904  0.8913 -0.9074  0.1412
 6450TIP3   OH240908   0.618   2.423   0.480 -0.2427 -0.2586 -0.5251
 6450TIP3    H140909   0.680   2.497   0.478  1.0634 -1.3235 -0.8498
 6450TIP3    H240910   0.574   2.426   0.395 -1.0988  0.8565 -0.0682
 6451TIP3   OH240911   3.979   6.153   7.631 -0.3704  0.3530  0.1274
 6451TIP3    H140912   3.985   6.219   7.699  0.5059 -0.9069  1.3137
 6451TIP3    H240913   3.890   6.162   7.597 -1.0109  0.6716  1.8022
 6452TIP3   OH240914   4.246   4.763   8.216  0.6107  0.0253  0.2304
 6452TIP3    H140915   4.303   4.821   8.267  0.4795 -0.8661  1.4417
 6452TIP3    H240916   4.301   4.735   8.143  1.7039 -0.6556  1.2636
 6453TIP3   OH240917   5.349   1.317   0.872 -0.2187  0.5149 -0.0435
 6453TIP3    H140918   5.316   1.405   0.889 -0.0333  0.2862  1.7627
 6453TIP3    H240919   5.282   1.259   0.908 -0.0653 -0.0773 -0.6886
 6454TIP3   OH240920   2.734   2.881   6.437  0.3882  0.1014 -0.1604
 6454TIP3    H140921   2.823   2.863   6.469  0.8976  1.5098 -0.6795
 6454TIP3    H240922   2.734   2.975   6.420 -1.5515  0.3499  0.8738
 6455TIP3   OH240923   0.254   4.823   7.720  0.2844 -0.5041  0.1850
 6455TIP3    H140924   0.197   4.775   7.660 -0.8785  1.4915 -0.4077
 6455TIP3    H240925   0.229   4.791   7.807 -3.2484  1.5783  0.1322
 6456TIP3   OH240926   5.376   4.268   8.665  0.0734  0.6255  0.3707
 6456TIP3    H140927   5.370   4.180   8.628  0.1621  0.6569  0.2814
 6456TIP3    H240928   5.296   4.311   8.636 -0.1266  0.4729  0.6838
 6457TIP3   OH240929   2.693   6.108   8.428  0.0568  0.6456 -0.5928
 6457TIP3    H140930   2.716   6.075   8.341  0.4725  0.2697 -0.3414
 6457TIP3    H240931   2.730   6.196   8.431  1.7172 -0.0430 -0.0981
 6458TIP3   OH240932   2.079   0.064   1.899 -0.9510 -0.4755 -0.3804
 6458TIP3    H140933   2.004   0.082   1.956 -1.6354 -0.8303 -1.1458
 6458TIP3    H240934   2.046   0.080   1.810  0.5793  1.8046 -0.6201
 6459TIP3   OH240935   2.127   0.170   2.525  0.1880  0.5004 -0.1385
 6459TIP3    H140936   2.055   0.107   2.526 -0.6344  1.3852 -1.3165
 6459TIP3    H240937   2.202   0.120   2.492  1.0195 -1.2302  3.7082
 6460TIP3   OH240938   4.912   5.686   7.255  0.0470 -0.0716 -0.0136
 6460TIP3    H140939   4.910   5.590   7.262 -1.2334 -0.0718 -0.0714
 6460TIP3    H240940   4.964   5.703   7.176 -0.2599 -0.7549 -0.3741
 6461TIP3   OH240941   4.763   6.550   6.514  0.3425  0.4439 -0.2804
 6461TIP3    H140942   4.721   6.636   6.514  0.0614  0.3200  0.7384
 6461TIP3    H240943   4.857   6.569   6.519  0.2858  0.6961 -0.1302
 6462TIP3   OH240944   5.223   2.716   8.168  0.2222 -0.2380  0.0085
 6462TIP3    H140945   5.213   2.754   8.255 -1.8070 -0.5610 -0.0236
 6462TIP3    H240946   5.292   2.650   8.178 -0.8813 -1.2161  1.7380
 6463TIP3   OH240947   5.812   6.237   1.279 -0.2205  0.9449 -0.1892
 6463TIP3    H140948   5.889   6.284   1.248 -0.6627  1.4865 -0.5029
 6463TIP3    H240949   5.742   6.303   1.279 -0.3574  0.8377  1.5079
 6464TIP3   OH240950   5.634   0.385   1.470  0.0649  0.1352  0.1131
 6464TIP3    H140951   5.724   0.398   1.498  0.5263 -0.0471 -1.2024
 6464TIP3    H240952   5.591   0.469   1.487  0.0993 -0.1921  2.0098
 6465TIP3   OH240953   3.274   3.373   1.908  0.1487  0.0315 -0.5417
 6465TIP3    H140954   3.263   3.310   1.837 -1.8802 -0.0458 -0.2154
 6465TIP3    H240955   3.188   3.380   1.948  0.3699  2.7203 -0.3210
 6466TIP3   OH240956   6.780   4.362   6.991  0.1763  0.2904 -0.2272
 6466TIP3    H140957   6.756   4.399   7.076 -1.8471  0.8772 -1.0004
 6466TIP3    H240958   6.832   4.285   7.013  1.3338  1.4613  1.4871
 6467TIP3   OH240959   2.607   3.828   6.762 -0.0781  0.0273 -0.3099
 6467TIP3    H140960   2.582   3.819   6.854 -0.4408  1.7430 -0.2017
 6467TIP3    H240961   2.689   3.780   6.755 -0.9899 -1.7217  0.4434
 6468TIP3   OH240962   2.024   4.576   1.662  0.0555 -0.4065 -0.2578
 6468TIP3    H140963   2.052   4.660   1.625 -0.8981  0.1351  0.1774
 6468TIP3    H240964   2.017   4.593   1.756 -1.4342 -0.5654 -0.3155
 6469TIP3   OH240965   2.867   4.012   0.471 -0.0760  0.5447  0.4475
 6469TIP3    H140966   2.942   4.045   0.421 -0.4860 -3.0961 -3.0647
 6469TIP3    H240967   2.906   3.964   0.545  1.0830 -0.4000 -0.7293
 6470TIP3   OH240968   6.254   1.385   6.379  0.1519  0.2489 -0.1901
 6470TIP3    H140969   6.205   1.465   6.362 -2.5190 -1.5785 -1.9735
 6470TIP3    H240970   6.335   1.395   6.329 -1.0696  1.0231 -2.1264
 6471TIP3   OH240971   6.504   5.433   8.380 -0.3522  0.2724  0.2433
 6471TIP3    H140972   6.595   5.460   8.368 -0.0139 -1.1737 -0.6833
 6471TIP3    H240973   6.463   5.450   8.295 -0.8413  0.4818  0.5163
 6472TIP3   OH240974   3.465   3.542   6.928 -0.4852  0.4974  0.4235
 6472TIP3    H140975   3.384   3.501   6.897  1.0239 -1.4582 -1.2936
 6472TIP3    H240976   3.478   3.507   7.016 -1.2000  0.3078  0.4552
 6473TIP3   OH240977   1.245   0.531   1.417 -0.1248 -0.0059 -0.3202
 6473TIP3    H140978   1.220   0.442   1.439 -0.8071  0.4112  0.6609
 6473TIP3    H240979   1.252   0.531   1.322  1.3347 -1.4632 -0.2611
 6474TIP3   OH240980   0.568   6.755   8.309 -0.2136  0.1149  0.0498
 6474TIP3    H140981   0.607   6.706   8.237 -0.1846  0.6772 -0.3287
 6474TIP3    H240982   0.475   6.730   8.308 -0.5692  1.3539 -1.2566
 6475TIP3   OH240983   1.711   6.065   8.237  0.1362  0.0443 -0.1201
 6475TIP3    H140984   1.727   6.098   8.149 -0.0694  0.2085 -0.0981
 6475TIP3    H240985   1.792   6.083   8.285 -0.1779  1.0604  0.0507
 6476TIP3   OH240986   4.000   0.792   8.450  1.1896 -0.3704 -0.2947
 6476TIP3    H140987   3.927   0.751   8.497  0.3279 -0.6919 -1.8613
 6476TIP3    H240988   3.985   0.769   8.358  2.5987  0.5917 -0.7852
 6477TIP3   OH240989   1.825   3.203   1.815 -0.0550  0.3023 -0.1852
 6477TIP3    H140990   1.823   3.108   1.825 -0.2297  0.2763 -0.4518
 6477TIP3    H240991   1.918   3.225   1.811  0.0197  0.2676  1.0017
 6478TIP3   OH240992   0.072   5.030   7.313  0.1633 -0.4051 -0.0023
 6478TIP3    H140993   0.031   5.105   7.270 -0.7037 -0.6932  0.3071
 6478TIP3    H240994   0.004   4.994   7.370  0.6507 -1.2594  0.0637
 6479TIP3   OH240995   1.476   5.073   2.001  0.4565  0.1586  0.2618
 6479TIP3    H140996   1.419   5.041   1.932 -0.8282  1.5726  0.6043
 6479TIP3    H240997   1.532   5.137   1.958  1.2972 -0.6759  0.0818
 6480TIP3   OH240998   1.221   4.262   0.696  0.0546 -0.1485 -0.6482
 6480TIP3    H140999   1.163   4.194   0.662 -0.0062 -0.6825  0.4592
 6480TIP3    H241000   1.194   4.342   0.650 -1.0536 -0.5347 -0.7114
 6481TIP3   OH241001   5.115   1.439   1.169  0.0842 -0.1358  0.5549
 6481TIP3    H141002   5.204   1.424   1.202 -0.3169  0.0081  1.7507
 6481TIP3    H241003   5.058   1.406   1.238 -0.8269 -1.8483 -0.9402
 6482TIP3   OH241004   5.527   4.289   7.146  0.4493 -0.6594  0.2386
 6482TIP3    H141005   5.432   4.286   7.136  0.4865 -1.4201  0.0412
 6482TIP3    H241006   5.557   4.350   7.078 -0.0131  0.7882  1.2992
 6483TIP3   OH241007   1.906   6.777   7.050  0.1741 -0.2983 -0.7283
 6483TIP3    H141008   1.811   6.773   7.065  0.0503 -0.9223 -1.5956
 6483TIP3    H241009   1.923   6.869   7.031 -0.1306 -0.0424  0.1778
 6484TIP3   OH241010   4.725   0.963   8.510 -0.2994  0.5566  0.0385
 6484TIP3    H141011   4.630   0.967   8.500 -0.3021  2.7261  0.3601
 6484TIP3    H241012   4.743   1.012   8.590  1.0420 -0.6282  0.5107
 6485TIP3   OH241013   5.257   1.602   7.789 -0.2843 -0.3348  0.7224
 6485TIP3    H141014   5.179   1.609   7.735  0.4922  0.4690 -0.3285
 6485TIP3    H241015   5.308   1.531   7.749  0.7663  0.9230 -0.2897
 6486TIP3   OH241016   2.895   1.215   0.801  0.1545 -0.0063 -0.0652
 6486TIP3    H141017   2.989   1.198   0.795  0.1651 -0.1377  0.4264
 6486TIP3    H241018   2.854   1.130   0.787  0.1060  0.0597 -0.3276
 6487TIP3   OH241019   0.640   5.310   8.770 -0.6017  0.4764  0.8849
 6487TIP3    H141020   0.575   5.324   8.839 -0.6151  0.2090  0.9275
 6487TIP3    H241021   0.642   5.215   8.757  0.1748  0.4315  1.2716
 6488TIP3   OH241022   2.220   1.269   2.439  0.7502  0.1246  0.0462
 6488TIP3    H141023   2.189   1.352   2.403 -0.5691  0.3037  1.4936
 6488TIP3    H241024   2.313   1.285   2.459 -0.0698  2.2927  2.8968
 6489TIP3   OH241025   3.422   1.739   1.016 -0.0484 -0.8333 -0.5047
 6489TIP3    H141026   3.517   1.727   1.021 -0.1563 -2.0982 -1.1914
 6489TIP3    H241027   3.407   1.775   0.929  0.1530  3.7924  1.0663
 6490TIP3   OH241028   2.409   1.032   0.140 -0.4223  0.6584  0.3461
 6490TIP3    H141029   2.371   1.026   0.227 -0.4581  0.2944  0.3083
 6490TIP3    H241030   2.473   1.103   0.146 -0.0319  0.2772  0.8236
 6491TIP3   OH241031   6.510   2.354   1.340  0.1500 -0.0783 -0.4420
 6491TIP3    H141032   6.522   2.344   1.246 -0.1948 -0.4502 -0.4462
 6491TIP3    H241033   6.557   2.280   1.378  0.5436  0.2368 -0.3042
 6492TIP3   OH241034   2.256   5.182   0.350  0.3134  0.0091  0.7838
 6492TIP3    H141035   2.336   5.219   0.388  3.1025 -1.6948 -2.8026
 6492TIP3    H241036   2.246   5.226   0.266 -2.7055  0.2264  1.1343
 6493TIP3   OH241037   5.854   4.828   8.387 -0.2625  0.3039  0.7534
 6493TIP3    H141038   5.942   4.817   8.423 -1.1000 -1.9730  2.3391
 6493TIP3    H241039   5.833   4.743   8.349 -2.8125 -0.1858  2.9553
 6494TIP3   OH241040   4.130   2.282   0.855  0.0313 -0.1782 -0.0436
 6494TIP3    H141041   4.222   2.288   0.826 -0.3468  1.5942 -1.0275
 6494TIP3    H241042   4.100   2.372   0.857 -1.7570 -0.7448  0.0815
 6495TIP3   OH241043   4.866   1.323   0.261  0.1724  0.0601 -0.1007
 6495TIP3    H141044   4.888   1.404   0.305 -0.5142 -0.6346  1.5774
 6495TIP3    H241045   4.906   1.332   0.174  0.4499  1.9939  0.1843
 6496TIP3   OH241046   4.573   4.610   0.389  0.3116 -0.1382 -1.0414
 6496TIP3    H141047   4.569   4.515   0.376  1.1888 -0.3011 -0.2351
 6496TIP3    H241048   4.487   4.642   0.360  0.2457 -1.0893 -1.9575
 6497TIP3   OH241049   6.146   5.286   1.392 -0.4109  0.3577  0.1240
 6497TIP3    H141050   6.198   5.290   1.472  0.6925  0.7127 -0.5807
 6497TIP3    H241051   6.116   5.196   1.387  0.5463  0.0191  0.3088
 6498TIP3   OH241052   1.053   3.619   7.377  0.3286 -0.1001 -0.5916
 6498TIP3    H141053   1.123   3.616   7.311  0.3268 -1.6188 -0.5600
 6498TIP3    H241054   1.083   3.683   7.441  0.0780  1.8709 -2.3094
 6499TIP3   OH241055   1.019   3.350   0.479 -0.1764 -0.0102 -0.3889
 6499TIP3    H141056   1.101   3.308   0.452 -0.9253 -0.3207 -2.3129
 6499TIP3    H241057   0.951   3.289   0.451 -1.0702 -0.3486  2.2930
 6500TIP3   OH241058   5.694   6.502   1.257 -0.4769  0.5667 -0.6697
 6500TIP3    H141059   5.727   6.517   1.346 -3.3657 -0.7034  0.7621
 6500TIP3    H241060   5.764   6.533   1.200  1.6641  1.1144  2.0268
 6501TIP3   OH241061   0.702   3.078   0.530  0.1784  0.0439  0.5080
 6501TIP3    H141062   0.714   3.172   0.518 -1.0657  0.0775 -0.6003
 6501TIP3    H241063   0.783   3.039   0.496  1.8926  0.7864  3.3687
 6502TIP3   OH241064   4.171   6.268   1.072 -0.6095 -0.1043  0.5452
 6502TIP3    H141065   4.199   6.268   1.163 -0.8162 -0.0077  0.6080
 6502TIP3    H241066   4.082   6.233   1.074  0.3120 -2.7512  0.1048
 6503TIP3   OH241067   1.255   3.391   1.082 -0.2633  0.2096 -0.4347
 6503TIP3    H141068   1.280   3.301   1.060 -0.0874  0.1031  0.1819
 6503TIP3    H241069   1.332   3.427   1.126 -0.3116  0.6817 -0.7342
 6504TIP3   OH241070   0.220   2.703   7.300 -0.0772 -0.9129  0.0487
 6504TIP3    H141071   0.294   2.752   7.263  1.3623 -2.6157  0.5025
 6504TIP3    H241072   0.175   2.666   7.224 -0.9945  0.7703 -0.2789
 6505TIP3   OH241073   5.554   1.791   1.798  0.9497 -0.2585  0.2952
 6505TIP3    H141074   5.624   1.856   1.805  2.0340 -0.8908 -2.9269
 6505TIP3    H241075   5.599   1.707   1.807  0.1548 -0.6366  0.8187
 6506TIP3   OH241076   6.676   0.905   0.831  0.1454 -0.6773 -0.3182
 6506TIP3    H141077   6.695   0.812   0.830  2.4953 -0.2705  0.7024
 6506TIP3    H241078   6.708   0.935   0.916 -1.9112  0.8343 -0.0013
 6507TIP3   OH241079   4.595   3.147   6.595  0.3236  0.5224  0.2067
 6507TIP3    H141080   4.626   3.238   6.589  1.4416  0.1301 -0.2667
 6507TIP3    H241081   4.651   3.107   6.661 -0.3002  0.2186  0.5597
 6508TIP3   OH241082   0.960   1.000   7.283 -0.7475  0.5335  0.0174
 6508TIP3    H141083   0.884   0.997   7.225 -1.1121  2.6238  0.3004
 6508TIP3    H241084   0.942   0.935   7.351 -2.9993  1.9354  0.8666
 6509TIP3   OH241085   4.009   5.560   8.305 -0.3072 -0.6884  0.4581
 6509TIP3    H141086   3.986   5.468   8.293  0.4547 -0.9084  0.6166
 6509TIP3    H241087   4.105   5.561   8.304 -0.2937  0.2651 -0.7805
 6510TIP3   OH241088   5.920   0.688   0.304  0.1000 -0.1316  0.2591
 6510TIP3    H141089   5.892   0.764   0.254 -0.3674  0.7232  1.7801
 6510TIP3    H241090   6.009   0.709   0.334 -0.5049  0.4122  1.7692
 6511TIP3   OH241091   5.039   5.132   0.509  0.1027  0.1689  0.4121
 6511TIP3    H141092   5.029   5.081   0.589  1.1229  0.3442  0.6649
 6511TIP3    H241093   4.950   5.164   0.490 -0.8313 -2.6895 -0.4692
 6512TIP3   OH241094   1.269   0.137   7.081 -0.4655  0.1677  0.3159
 6512TIP3    H141095   1.228   0.133   7.167 -1.4804 -1.3008 -0.1906
 6512TIP3    H241096   1.297   0.047   7.064 -1.9868 -0.0189 -1.6389
 6513TIP3   OH241097   4.237   5.165   0.211 -0.4333  0.5063  0.0559
 6513TIP3    H141098   4.201   5.077   0.214  0.6948 -0.0378 -1.2208
 6513TIP3    H241099   4.310   5.163   0.273  0.7641 -0.0540 -1.3267
 6514TIP3   OH241100   5.132   4.176   1.298 -0.1292  0.2700 -0.7046
 6514TIP3    H141101   5.212   4.228   1.307  0.8943 -1.5666  2.9485
 6514TIP3    H241102   5.063   4.230   1.337  0.6261 -0.3829  1.6801
 6515TIP3   OH241103   6.791   0.931   0.186  0.3033  0.1710 -0.1526
 6515TIP3    H141104   6.698   0.912   0.177  0.9529 -2.2492 -3.6906
 6515TIP3    H241105   6.797   1.026   0.174 -1.7475  0.6250  1.7876
 6516TIP3   OH241106   4.634   0.840   0.809  0.0590  0.0607  0.1437
 6516TIP3    H141107   4.608   0.884   0.890  0.0469  1.0122 -0.3652
 6516TIP3    H241108   4.729   0.828   0.817 -0.0011 -0.2442  0.4728
 6517TIP3   OH241109   1.867   6.777   2.485 -0.1439 -0.2766 -0.4163
 6517TIP3    H141110   1.821   6.715   2.427  1.6188 -1.1075 -1.0035
 6517TIP3    H241111   1.802   6.799   2.551 -1.0851 -2.2325 -0.5837
 6518TIP3   OH241112   6.057   2.936   1.245 -0.4333 -0.1871  0.1229
 6518TIP3    H141113   6.044   3.010   1.303  3.3464 -0.5919  1.8095
 6518TIP3    H241114   6.051   2.859   1.302  1.2605 -0.7317 -0.3716
 6519TIP3   OH241115   3.973   0.649   7.344 -0.0685  0.6329 -0.0453
 6519TIP3    H141116   3.880   0.648   7.322  0.1426  1.5485 -1.0236
 6519TIP3    H241117   4.019   0.641   7.261  0.7338  0.2692  0.4160
 6520TIP3   OH241118   4.730   5.719   1.618 -0.1776  0.2752 -0.5000
 6520TIP3    H141119   4.669   5.769   1.672 -0.4611  0.0516 -0.6109
 6520TIP3    H241120   4.683   5.638   1.597  0.5317 -0.3392  0.2375
 6521TIP3   OH241121   5.291   0.655   7.115  0.0814 -0.0889  0.1241
 6521TIP3    H141122   5.292   0.642   7.020 -1.4035 -1.2872  0.2362
 6521TIP3    H241123   5.218   0.602   7.146  0.3232  0.5480  1.9162
 6522TIP3   OH241124   0.001   6.071   1.502  0.2192 -0.0565  0.0581
 6522TIP3    H141125   0.084   6.044   1.463  0.0312 -0.7602  0.1244
 6522TIP3    H241126  -0.025   6.148   1.452  2.0288  1.5881  1.5432
 6523TIP3   OH241127   5.381   2.946   1.728 -0.2822  0.2903 -0.0385
 6523TIP3    H141128   5.334   2.866   1.752 -0.2092 -0.3740 -2.0065
 6523TIP3    H241129   5.416   2.929   1.641  0.6008  2.1061 -0.0855
 6524TIP3   OH241130   6.683   1.056   8.695 -0.1410  0.0527 -0.5331
 6524TIP3    H141131   6.620   0.994   8.734  0.0558 -0.6383 -1.2761
 6524TIP3    H241132   6.766   1.008   8.694  0.3752  0.9070  0.2995
 6525TIP3   OH241133   3.720   5.845   7.047  0.5547  0.4734  0.2343
 6525TIP3    H141134   3.814   5.829   7.046  0.4152 -0.4038  0.2322
 6525TIP3    H241135   3.704   5.903   6.973  0.9347 -0.3629 -0.5195
 6526TIP3   OH241136   4.328   5.263   8.568  0.0734  0.9517 -0.8373
 6526TIP3    H141137   4.261   5.200   8.542 -0.1458  1.2295 -0.9482
 6526TIP3    H241138   4.394   5.258   8.500  0.3245  0.4425 -0.5626
 6527TIP3   OH241139   0.222   1.207   1.671 -0.3713 -0.0521 -0.6789
 6527TIP3    H141140   0.225   1.289   1.720 -2.3975 -1.0149  1.2151
 6527TIP3    H241141   0.311   1.172   1.676 -0.4256  0.0537  2.0765
 6528TIP3   OH241142   4.947   4.263   6.875 -0.2133 -0.3142 -0.2844
 6528TIP3    H141143   5.032   4.270   6.919 -0.8372  1.1062  0.7756
 6528TIP3    H241144   4.948   4.177   6.834  2.6477  0.5000 -2.2293
 6529TIP3   OH241145   0.167   5.024   8.577 -0.3495  0.3643 -0.5840
 6529TIP3    H141146   0.100   5.093   8.583 -0.8311 -0.1440  0.1409
 6529TIP3    H241147   0.137   4.967   8.507 -0.3513  0.4729 -0.6728
 6530TIP3   OH241148   2.036   1.199   0.140 -0.1276 -0.1192  0.0170
 6530TIP3    H141149   1.946   1.168   0.152 -0.4378 -0.3157 -2.3693
 6530TIP3    H241150   2.068   1.149   0.065  1.6956  0.5400  0.3251
 6531TIP3   OH241151   4.564   1.941   1.759  0.6022  0.7009 -0.3756
 6531TIP3    H141152   4.567   1.979   1.847  0.6226 -1.3086  0.5481
 6531TIP3    H241153   4.526   2.010   1.704 -0.5972  1.5633  1.4562
 6532TIP3   OH241154   5.907   4.773   8.040  0.0538 -0.1586  0.0147
 6532TIP3    H141155   5.957   4.774   8.121 -0.6114  1.5234  0.4381
 6532TIP3    H241156   5.839   4.707   8.055  0.4232 -0.4359  0.5106
 6533TIP3   OH241157   0.658   5.093   0.634  0.0976  0.2450 -0.2512
 6533TIP3    H141158   0.587   5.041   0.671 -0.1071  0.3773 -0.4495
 6533TIP3    H241159   0.677   5.051   0.550  1.2423 -0.6529  0.4327
 6534TIP3   OH241160   5.694   5.462   7.466 -0.1667  0.2731  0.3286
 6534TIP3    H141161   5.609   5.419   7.467 -1.4294  2.5667 -1.3095
 6534TIP3    H241162   5.717   5.473   7.558 -1.7575 -0.1424  0.7992
 6535TIP3   OH241163   1.645   1.361   7.570  0.5056  0.3122 -0.3394
 6535TIP3    H141164   1.586   1.388   7.640  1.0302 -0.2563  0.3385
 6535TIP3    H241165   1.660   1.441   7.519  1.1295  1.0545  0.9541
 6536TIP3   OH241166   1.712   6.341   7.744  0.3876 -0.1421  0.1315
 6536TIP3    H141167   1.641   6.307   7.689  0.8666 -3.2179  1.2446
 6536TIP3    H241168   1.780   6.368   7.681 -0.2767 -0.6871 -0.8458
 6537TIP3   OH241169   5.338   1.844   1.633 -0.5109  0.7441  1.0068
 6537TIP3    H141170   5.316   1.936   1.622  0.8564  1.0679  0.7568
 6537TIP3    H241171   5.426   1.845   1.671  0.4391 -0.4343 -0.9928
 6538TIP3   OH241172   6.141   0.704   7.029 -0.1818 -0.4596 -0.0297
 6538TIP3    H141173   6.110   0.686   7.118  0.0495  0.5643  0.2781
 6538TIP3    H241174   6.063   0.729   6.981 -0.0840  0.6899  0.3634
 6539TIP3   OH241175   5.896   2.055   8.408 -0.2781 -0.1710  0.1351
 6539TIP3    H141176   5.968   2.023   8.462 -0.9340 -0.8358  0.6340
 6539TIP3    H241177   5.858   1.977   8.370 -1.1452  0.1078  0.4029
 6540TIP3   OH241178   1.196   2.784   7.865 -0.2494  0.0139  0.0181
 6540TIP3    H141179   1.173   2.836   7.942  1.7736 -0.0602  0.7309
 6540TIP3    H241180   1.291   2.781   7.866 -0.2330 -1.2375 -1.6789
 6541TIP3   OH241181   6.401   2.121   8.484  0.1637  0.1171  0.2039
 6541TIP3    H141182   6.347   2.133   8.562 -0.8156 -0.5110 -0.3610
 6541TIP3    H241183   6.441   2.035   8.496  0.0348  0.0322  0.0337
 6542TIP3   OH241184   6.166   0.162   7.702 -0.0145  0.2697 -0.1508
 6542TIP3    H141185   6.127   0.201   7.780  1.4026 -1.1123  1.3321
 6542TIP3    H241186   6.157   0.067   7.715 -1.0913  0.0050 -2.4130
 6543TIP3   OH241187   3.639   0.461   8.718  0.3092  0.4320 -0.3465
 6543TIP3    H141188   3.697   0.481   8.792  0.5598  3.8618 -1.2947
 6543TIP3    H241189   3.555   0.441   8.758  0.9716  0.0008  0.8977
 6544TIP3   OH241190   2.328   5.574   6.397  0.1456  0.9238 -0.6570
 6544TIP3    H141191   2.251   5.565   6.340 -0.2786  0.6766 -0.0575
 6544TIP3    H241192   2.298   5.544   6.482  1.7065 -1.9390 -0.9896
 6545TIP3   OH241193   2.142   0.775   8.123  0.5614 -0.6854 -0.5600
 6545TIP3    H141194   2.173   0.703   8.068 -1.0079 -0.4479 -1.8349
 6545TIP3    H241195   2.107   0.732   8.202  0.9037 -1.1963 -0.6806
 6546TIP3   OH241196   5.051   5.995   7.688  0.2219 -0.1599 -0.2503
 6546TIP3    H141197   5.126   6.027   7.636 -0.7045  0.7930 -1.0602
 6546TIP3    H241198   5.010   5.930   7.632 -0.1228  0.0437 -0.2370
 6547TIP3   OH241199   3.846   3.452   7.317  0.5129 -0.0256 -0.1064
 6547TIP3    H141200   3.915   3.449   7.251  1.5644  1.2151  0.8681
 6547TIP3    H241201   3.866   3.379   7.376  1.1178  0.4281  0.2635
 6548TIP3   OH241202   3.374   0.748   8.732 -0.6328 -0.3277 -0.1897
 6548TIP3    H141203   3.292   0.770   8.776  0.3850  1.6501  0.8873
 6548TIP3    H241204   3.434   0.727   8.804 -0.5627 -3.4160 -1.0305
 6549TIP3   OH241205   2.732   4.119   8.699  0.6047 -0.0232  0.5846
 6549TIP3    H141206   2.753   4.031   8.667  2.7793 -0.2658  2.4414
 6549TIP3    H241207   2.656   4.107   8.756 -0.1331 -0.3891 -0.4445
 6550TIP3   OH241208   1.995   2.879   7.394 -0.5769 -0.7600 -0.1486
 6550TIP3    H141209   1.997   2.903   7.301 -1.5108 -0.3238 -0.0719
 6550TIP3    H241210   2.053   2.803   7.400 -0.5683 -0.8508 -1.1074
 6551TIP3   OH241211   0.737   4.409   1.065 -0.6808  0.0024  0.1849
 6551TIP3    H141212   0.688   4.394   0.984  0.5740 -0.0051 -0.6144
 6551TIP3    H241213   0.778   4.325   1.084 -1.4638 -0.1638  1.1923
 6552TIP3   OH241214   3.737   2.874   8.131 -0.2496  0.3177  0.1064
 6552TIP3    H141215   3.677   2.800   8.120  1.2201 -0.7388 -1.4008
 6552TIP3    H241216   3.700   2.943   8.076  0.6873 -0.8801 -2.1498
 6553TIP3   OH241217   5.296   0.559   6.857  0.3676 -0.3737 -0.4534
 6553TIP3    H141218   5.364   0.614   6.818 -0.2981  0.1288 -0.9489
 6553TIP3    H241219   5.259   0.511   6.783 -0.6702  0.3278 -0.4202
 6554TIP3   OH241220   1.197   1.563   0.745  0.5375  0.0743  0.4605
 6554TIP3    H141221   1.147   1.596   0.820 -1.6908  0.3765 -1.0780
 6554TIP3    H241222   1.242   1.640   0.710 -2.3004  1.0359 -1.3464
 6555TIP3   OH241223   3.093   0.725   6.803 -0.5093  0.8533 -0.3618
 6555TIP3    H141224   3.012   0.711   6.753 -0.8698 -0.3547  0.5254
 6555TIP3    H241225   3.065   0.728   6.894  0.7109 -3.1404  0.3607
 6556TIP3   OH241226   6.059   5.635   0.105 -0.6766 -0.2198 -0.5156
 6556TIP3    H141227   6.058   5.647   0.200 -0.1124  0.5744 -0.5960
 6556TIP3    H241228   5.988   5.574   0.088 -0.5453 -0.6684  0.4550
 6557TIP3   OH241229   4.507   5.130   8.103 -0.2773  0.1759 -0.1955
 6557TIP3    H141230   4.574   5.196   8.083  0.4374 -0.6397 -0.5685
 6557TIP3    H241231   4.434   5.152   8.046 -1.3370  2.5199  1.8973
 6558TIP3   OH241232   4.306   5.051   1.685 -0.1017  0.0673  0.1131
 6558TIP3    H141233   4.321   5.146   1.693  0.8052 -0.0583  0.0763
 6558TIP3    H241234   4.277   5.025   1.773  2.2999 -0.0327  0.9757
 6559TIP3   OH241235   3.184   3.827   8.362 -0.2225  0.5197  0.1309
 6559TIP3    H141236   3.103   3.863   8.326 -0.7624 -0.1660  0.6531
 6559TIP3    H241237   3.187   3.860   8.452  1.0214  2.0637 -0.4289
 6560TIP3   OH241238   6.691   3.106   6.343  0.1488  0.1082  0.0666
 6560TIP3    H141239   6.719   3.162   6.416 -0.5040 -1.0877  1.2813
 6560TIP3    H241240   6.694   3.163   6.266  2.8938  0.8579  0.6260
 6561TIP3   OH241241   6.542   5.696   7.879 -0.3050  0.3680 -0.5182
 6561TIP3    H141242   6.630   5.728   7.862  0.2715 -1.0145 -0.3132
 6561TIP3    H241243   6.508   5.754   7.947  0.6731  0.5641 -0.1761
 6562TIP3   OH241244   4.737   5.485   2.191 -0.0780 -0.3839 -0.1931
 6562TIP3    H141245   4.790   5.406   2.176  0.0659 -0.2399 -0.4602
 6562TIP3    H241246   4.677   5.460   2.261  1.3413 -0.0793  1.1924
 6563TIP3   OH241247   0.701   0.190   0.920  0.1773  0.0886 -0.4776
 6563TIP3    H141248   0.782   0.144   0.941 -1.2125 -2.3017  0.0744
 6563TIP3    H241249   0.718   0.231   0.835  1.9994 -0.1692 -0.2872
 6564TIP3   OH241250   4.548   0.043   7.112  0.2812 -0.1723 -0.0034
 6564TIP3    H141251   4.505  -0.022   7.056  0.2348  1.2695 -1.7127
 6564TIP3    H241252   4.606  -0.009   7.168 -1.2739 -1.8522  0.1265
 6565TIP3   OH241253   2.046   0.146   7.975 -0.0293  0.2912 -0.0289
 6565TIP3    H141254   2.045   0.174   8.066 -0.9967 -0.0946  0.0944
 6565TIP3    H241255   1.961   0.104   7.962  0.1491  0.2253 -1.0722
 6566TIP3   OH241256   5.049   2.900   0.418  0.0384  0.0556 -0.3973
 6566TIP3    H141257   5.086   2.983   0.448  1.9734 -0.9366  0.1134
 6566TIP3    H241258   4.986   2.925   0.351 -0.7555  2.0336  0.9907
 6567TIP3   OH241259   0.976   5.554   1.688  0.0818  0.1260  0.0327
 6567TIP3    H141260   1.006   5.645   1.692  1.1138 -0.1897 -0.0464
 6567TIP3    H241261   1.056   5.504   1.670 -0.7425 -0.6448 -1.7005
 6568TIP3   OH241262   1.377   1.266   8.398  0.6021  0.0459 -0.1617
 6568TIP3    H141263   1.416   1.210   8.465 -0.7104 -0.1991  0.4185
 6568TIP3    H241264   1.445   1.272   8.330  2.2050  0.7788  1.4102
 6569TIP3   OH241265   4.851   5.250   2.395 -0.3575  0.0518  0.0339
 6569TIP3    H141266   4.865   5.205   2.478  2.3183  1.4033  0.4134
 6569TIP3    H241267   4.849   5.343   2.417 -0.5173  0.3927 -1.3200
 6570TIP3   OH241268   2.548   6.253   0.876 -0.4535  0.0148 -0.6421
 6570TIP3    H141269   2.550   6.162   0.845  0.3432 -0.6723  1.2841
 6570TIP3    H241270   2.576   6.248   0.967 -0.9197  2.1503 -0.3293
 6571TIP3   OH241271   1.190   0.404   0.332  0.2498 -0.0396  0.1056
 6571TIP3    H141272   1.215   0.343   0.263 -0.0119  0.7638 -0.7126
 6571TIP3    H241273   1.158   0.347   0.403  0.5641 -0.8780 -0.4032
 6572TIP3   OH241274   2.695   4.382   1.049 -0.1724  0.4102  0.0370
 6572TIP3    H141275   2.680   4.391   1.143 -1.0104 -0.4908  0.0170
 6572TIP3    H241276   2.663   4.294   1.029 -0.3345  0.7251 -1.1488
 6573TIP3   OH241277   4.873   5.077   2.627 -0.3332  0.5095  0.4134
 6573TIP3    H141278   4.953   5.051   2.672  0.4744  1.2255 -0.5557
 6573TIP3    H241279   4.829   4.994   2.608  0.7729  0.0129 -0.0989
 6574TIP3   OH241280   1.176   4.572   6.635 -0.5034  0.4551 -0.2628
 6574TIP3    H141281   1.106   4.513   6.608  0.0728 -0.6356  0.5722
 6574TIP3    H241282   1.136   4.625   6.705 -1.4206  2.0155 -1.8687
 6575TIP3   OH241283   5.353   5.299   8.815  0.7248  0.2040  0.8500
 6575TIP3    H141284   5.334   5.251   8.895  0.2931  1.3798  1.4681
 6575TIP3    H241285   5.340   5.234   8.745 -1.8624 -0.0777  1.4916
 6576TIP3   OH241286   1.303   4.183   7.796 -0.2802 -0.1898  0.5426
 6576TIP3    H141287   1.387   4.217   7.826  0.2441  0.7137 -1.7646
 6576TIP3    H241288   1.246   4.260   7.794 -0.5467 -0.3975  0.0924
 6577TIP3   OH241289   1.916   6.347   0.057 -0.2734  0.2039 -0.1224
 6577TIP3    H141290   1.872   6.292  -0.008  1.6177 -3.4379  1.4025
 6577TIP3    H241291   1.956   6.417   0.006 -1.2196 -0.8811 -2.4950
 6578TIP3   OH241292   6.306   5.938   0.389  0.2802  0.0101  0.0159
 6578TIP3    H141293   6.246   5.968   0.457  0.0555 -2.1062  0.8236
 6578TIP3    H241294   6.354   6.017   0.364  0.5208  0.8704  2.7889
 6579TIP3   OH241295   3.536   0.134   7.447 -0.6106 -0.6285  0.8125
 6579TIP3    H141296   3.618   0.089   7.427 -1.0950 -0.3691 -2.3840
 6579TIP3    H241297   3.472   0.095   7.387 -1.9213  1.6721  0.5808
 6580TIP3   OH241298   1.265   6.553   2.696 -0.4430  0.1022  0.9349
 6580TIP3    H141299   1.244   6.642   2.670 -1.7188 -0.0830  1.2336
 6580TIP3    H241300   1.346   6.532   2.650  0.4467  1.7627  1.6660
 6581TIP3   OH241301   1.939   0.406   0.729  0.3633 -0.7095 -0.0345
 6581TIP3    H141302   2.032   0.388   0.747  0.1895 -2.0639 -0.3790
 6581TIP3    H241303   1.934   0.501   0.725  1.4627 -0.5478  1.4538
 6582TIP3   OH241304   3.048   3.049   6.433  0.3996 -0.1906  0.0895
 6582TIP3    H141305   2.994   3.017   6.361  0.2734 -0.6136  0.3702
 6582TIP3    H241306   3.001   3.126   6.466  1.5177  1.3118 -1.6336
 6583TIP3   OH241307   4.077   1.290   8.449 -0.1813 -0.2171  0.2337
 6583TIP3    H141308   3.984   1.307   8.433 -0.2147 -2.0027 -1.9946
 6583TIP3    H241309   4.078   1.210   8.501  0.1299  1.1395  2.4307
 6584TIP3   OH241310   2.120   6.681   0.547  0.1300  0.7009  0.5888
 6584TIP3    H141311   2.190   6.622   0.519  0.2464  1.0925  0.0542
 6584TIP3    H241312   2.153   6.721   0.627 -0.8742 -1.6733  2.3399
 6585TIP3   OH241313   5.662   2.308   0.495  0.4074 -0.1654  0.4071
 6585TIP3    H141314   5.715   2.251   0.439  2.1289  1.4263  0.3222
 6585TIP3    H241315   5.584   2.257   0.513  1.3167 -2.0593 -0.6638
 6586TIP3   OH241316   6.246   0.967   7.091 -0.2245 -0.2249 -0.2630
 6586TIP3    H141317   6.320   0.970   7.030 -0.2095  1.6738 -0.2407
 6586TIP3    H241318   6.200   0.886   7.070 -0.0556  0.2132 -2.6149
 6587TIP3   OH241319   1.225   6.094   2.377 -0.2802 -0.2202 -0.4012
 6587TIP3    H141320   1.155   6.029   2.373 -1.0021  0.5445 -0.5116
 6587TIP3    H241321   1.304   6.047   2.348 -0.9844 -0.7682 -1.4957
 6588TIP3   OH241322   3.817   3.892   7.362 -0.1417  0.0311  0.2284
 6588TIP3    H141323   3.755   3.818   7.356 -1.8159  1.4469 -1.3581
 6588TIP3    H241324   3.883   3.873   7.295 -0.5224 -0.0775 -0.1228
 6589TIP3   OH241325   6.721   5.325   1.858 -0.2580  0.0210 -0.4550
 6589TIP3    H141326   6.674   5.262   1.803  1.1632  0.5189 -2.3358
 6589TIP3    H241327   6.662   5.400   1.865 -2.1253 -1.5178  2.1061
 6590TIP3   OH241328   2.645   2.313   6.855  0.0204  0.2032  0.3723
 6590TIP3    H141329   2.719   2.355   6.811 -1.1360  0.3486 -1.5746
 6590TIP3    H241330   2.654   2.338   6.947  1.9437  0.8165  0.0722
 6591TIP3   OH241331   0.118   2.366   2.033 -0.4240 -0.2332 -0.4902
 6591TIP3    H141332   0.055   2.301   2.001 -1.9692  1.0277 -0.1687
 6591TIP3    H241333   0.085   2.450   1.999  0.4774  0.5975  0.6027
 6592TIP3   OH241334   3.822   4.506   1.848  0.4265  0.6124  0.2004
 6592TIP3    H141335   3.904   4.553   1.859  1.3536 -0.6705 -0.8956
 6592TIP3    H241336   3.816   4.490   1.754 -0.9541  0.4445  0.2958
 6593TIP3   OH241337   2.369   1.155   6.808  0.0188 -0.1582  0.2526
 6593TIP3    H141338   2.297   1.165   6.870 -0.0434 -1.2819  0.3824
 6593TIP3    H241339   2.448   1.164   6.861 -0.0135  0.8024  0.1555
 6594TIP3   OH241340   1.941   0.382   7.452  0.2766  0.0469  0.4789
 6594TIP3    H141341   1.854   0.400   7.487 -1.1200  2.2197 -3.4923
 6594TIP3    H241342   1.928   0.306   7.395  0.9713  0.3392 -0.0852
 6595TIP3   OH241343   1.101   3.247   7.905  0.5737 -0.0052 -1.0663
 6595TIP3    H141344   1.009   3.268   7.924  0.4736 -1.4425  0.2391
 6595TIP3    H241345   1.097   3.182   7.835  0.6267  0.3448 -1.3959
 6596TIP3   OH241346   0.076   3.464   1.238  0.4076  0.4084 -0.0880
 6596TIP3    H141347  -0.003   3.517   1.243  0.1975  0.1070 -0.1617
 6596TIP3    H241348   0.050   3.378   1.273  0.4445  0.0183 -1.0026
 6597TIP3   OH241349   1.792   5.304   7.549 -0.6029 -0.4229  0.1163
 6597TIP3    H141350   1.769   5.281   7.459 -0.1126  0.4520 -0.2442
 6597TIP3    H241351   1.843   5.384   7.541 -2.8896  1.2604  1.3683
 6598TIP3   OH241352   2.490   1.556   1.095 -0.3100 -0.1300  0.1942
 6598TIP3    H141353   2.563   1.614   1.114 -0.8369  0.7187 -0.2923
 6598TIP3    H241354   2.449   1.540   1.180  1.8357 -2.6164  0.8864
 6599TIP3   OH241355   6.034   5.033   8.249 -0.6584  0.0867 -0.2998
 6599TIP3    H141356   6.087   4.958   8.222  0.0386 -0.3150  1.9319
 6599TIP3    H241357   5.947   4.997   8.264 -0.6122 -0.0553 -0.3684
 6600TIP3   OH241358   4.228   1.115   7.925  0.1683  0.1160 -0.1522
 6600TIP3    H141359   4.179   1.183   7.878  0.7281 -0.4326 -1.5606
 6600TIP3    H241360   4.162   1.050   7.949  0.1855 -0.8023 -2.3564
 6601TIP3   OH241361   2.405   5.253   0.114  0.1245  0.1289 -0.0080
 6601TIP3    H141362   2.447   5.318   0.057 -0.3332 -0.4557 -1.0246
 6601TIP3    H241363   2.367   5.189   0.055 -1.1618 -0.0146  0.9320
 6602TIP3   OH241364   0.338   6.217   1.464 -0.1733 -0.3351  0.5601
 6602TIP3    H141365   0.306   6.166   1.389  0.0534 -0.3679  0.4865
 6602TIP3    H241366   0.375   6.296   1.425  1.2523 -0.9937  0.5144
 6603TIP3   OH241367   0.721   2.471   7.713 -0.3743  0.7430 -0.8530
 6603TIP3    H141368   0.779   2.400   7.742 -1.3589 -0.0820 -0.8158
 6603TIP3    H241369   0.777   2.548   7.707  0.3710  0.3829  0.8690
 6604TIP3   OH241370   1.305   3.864   1.531 -0.2335 -0.0001 -0.4122
 6604TIP3    H141371   1.347   3.809   1.596 -1.6273  0.2404  0.7436
 6604TIP3    H241372   1.360   3.856   1.453  0.9737 -1.0001  0.5112
 6605TIP3   OH241373   0.760   2.045   8.089 -0.2153 -0.3174  0.6366
 6605TIP3    H141374   0.797   1.956   8.090  1.2537  0.2588  0.5398
 6605TIP3    H241375   0.668   2.033   8.067  0.0620 -1.7875  0.1761
 6606TIP3   OH241376   5.760   5.789   7.167  0.2302 -0.0595  0.1428
 6606TIP3    H141377   5.692   5.778   7.100  0.0260  2.7429 -0.2250
 6606TIP3    H241378   5.716   5.764   7.249 -1.3110  1.6870 -0.0886
 6607TIP3   OH241379   2.504   2.091   8.372 -0.4492 -0.5392  0.5671
 6607TIP3    H141380   2.564   2.044   8.314 -2.4066 -1.3026 -0.9590
 6607TIP3    H241381   2.561   2.136   8.434  1.6695 -1.3984 -0.6427
 6608TIP3   OH241382   5.881   1.699   1.814  0.4248  0.4920 -0.3085
 6608TIP3    H141383   5.830   1.655   1.882  1.8670 -2.1822 -0.7944
 6608TIP3    H241384   5.955   1.737   1.861  0.1947  0.7056 -0.1139
 6609TIP3   OH241385   1.319   6.663   7.559  0.2293  0.6912  0.2541
 6609TIP3    H141386   1.271   6.613   7.625 -2.2547  3.1211  0.5088
 6609TIP3    H241387   1.250   6.708   7.509  2.1084  0.4907 -2.7645
 6610TIP3   OH241388   3.830   6.304   1.360  0.3088 -0.0683 -0.4114
 6610TIP3    H141389   3.838   6.390   1.319  1.1995  0.2562  0.4211
 6610TIP3    H241390   3.774   6.319   1.436 -1.3395 -0.6681 -1.4508
 6611TIP3   OH241391   0.000   1.305   7.801 -0.1285 -0.6932  0.2132
 6611TIP3    H141392  -0.048   1.387   7.817  0.1871 -0.4229 -0.1888
 6611TIP3    H241393  -0.046   1.239   7.853 -1.8862 -0.7638 -1.3421
 6612TIP3   OH241394   5.826   5.499   0.789  0.6354 -0.0373 -0.0152
 6612TIP3    H141395   5.861   5.426   0.738  2.1816  0.0210  0.8841
 6612TIP3    H241396   5.817   5.463   0.878 -0.6882  0.2534 -0.0215
 6613TIP3   OH241397   1.056   6.302   0.744  0.2236  0.1920 -0.2360
 6613TIP3    H141398   0.991   6.361   0.783 -0.8666 -0.6788 -0.6888
 6613TIP3    H241399   1.054   6.224   0.800  0.8547  0.1436 -0.2767
 6614TIP3   OH241400   3.131   3.048   0.782  0.4202 -0.5694  0.0315
 6614TIP3    H141401   3.169   3.131   0.752 -0.6983 -0.1927 -0.3775
 6614TIP3    H241402   3.177   2.982   0.730 -0.6676 -0.0072 -1.7476
 6615TIP3   OH241403   1.927   3.885   0.668  0.4819 -0.3199  0.3606
 6615TIP3    H141404   1.929   3.975   0.702 -0.6275  0.0739 -0.5323
 6615TIP3    H241405   1.880   3.835   0.735  0.0797  0.0160  0.3313
 6616TIP3   OH241406   0.472   5.753   0.067 -0.4544 -0.6281  0.4236
 6616TIP3    H141407   0.381   5.759   0.040 -1.2220 -0.8873  2.7449
 6616TIP3    H241408   0.505   5.675   0.022 -0.8166  0.3881 -1.7488
 6617TIP3   OH241409   1.695   4.827   0.682 -0.2949 -0.1609  0.4597
 6617TIP3    H141410   1.614   4.793   0.643  0.3381 -1.8309  0.5424
 6617TIP3    H241411   1.665   4.875   0.759 -1.1710 -1.7547  1.1702
 6618TIP3   OH241412   5.372   1.179   0.112  0.1935  0.9114  0.3939
 6618TIP3    H141413   5.411   1.095   0.087  0.5689  1.5107 -1.1021
 6618TIP3    H241414   5.393   1.188   0.205  3.1513  0.9087 -0.1683
 6619TIP3   OH241415   4.158   4.170   2.435  0.4562 -0.1898  0.5072
 6619TIP3    H141416   4.075   4.124   2.425  0.1338 -0.1965  2.5968
 6619TIP3    H241417   4.160   4.233   2.364 -0.0217 -2.0289 -1.2361
 6620TIP3   OH241418   3.088   4.714   0.166 -0.2784  0.3353  0.2968
 6620TIP3    H141419   3.000   4.753   0.175  0.0383  1.6142 -1.5730
 6620TIP3    H241420   3.100   4.704   0.072  1.7205  0.4958  0.4982
 6621TIP3   OH241421   2.286   5.626   1.789 -0.6992  0.1009  0.1292
 6621TIP3    H141422   2.347   5.556   1.811 -0.5744 -0.3676 -1.5778
 6621TIP3    H241423   2.199   5.588   1.802 -0.6289 -0.3018 -0.5454
 6622TIP3   OH241424   6.468   3.738   7.927  0.1488 -0.4851  0.2552
 6622TIP3    H141425   6.374   3.757   7.929 -0.6942 -4.0346  1.5542
 6622TIP3    H241426   6.500   3.766   8.013 -0.3076 -1.5868  0.7988
 6623TIP3   OH241427   5.490   1.929   7.674  0.3557  0.3839 -0.6529
 6623TIP3    H141428   5.470   2.019   7.699  0.4467  0.5629 -1.2184
 6623TIP3    H241429   5.405   1.890   7.652  0.0015 -0.3515  1.7151
 6624TIP3   OH241430   1.076   1.446   6.950 -0.4288  0.5686 -0.3877
 6624TIP3    H141431   1.051   1.523   7.002 -0.0064 -0.3313  1.2340
 6624TIP3    H241432   1.139   1.480   6.886 -0.9245  1.7168 -0.2938
 6625TIP3   OH241433   3.738   4.185   1.052 -0.3437 -0.0036  0.1219
 6625TIP3    H141434   3.784   4.139   0.982 -2.1099 -1.2407 -0.2958
 6625TIP3    H241435   3.736   4.122   1.125  0.9543  1.0508  1.1264
 6626TIP3   OH241436   5.070   2.606   2.116 -0.0582  0.5079  0.2469
 6626TIP3    H141437   5.085   2.515   2.140 -1.5619 -0.5183 -2.2613
 6626TIP3    H241438   4.992   2.603   2.060  1.0934  3.0277 -1.6760
 6627TIP3   OH241439   2.270   5.118   6.849 -0.3564  0.2279 -0.5706
 6627TIP3    H141440   2.195   5.145   6.797  0.1733  0.1166 -1.3979
 6627TIP3    H241441   2.342   5.108   6.787 -0.0428 -1.2037 -0.0423
 6628TIP3   OH241442   3.462   3.115   0.797 -0.6300 -0.7621 -0.1801
 6628TIP3    H141443   3.385   3.132   0.851  0.3801  0.1050  1.0592
 6628TIP3    H241444   3.499   3.034   0.833  0.3648  0.1242  0.8594
 6629TIP3   OH241445   4.576   4.212   1.921  0.3044 -0.7926 -0.3640
 6629TIP3    H141446   4.543   4.249   1.839  0.1309  0.9490  0.4451
 6629TIP3    H241447   4.668   4.193   1.904  0.2365 -0.5661 -1.0043
 6630TIP3   OH241448   6.649   1.966   8.200  0.1421  0.3443  0.8274
 6630TIP3    H141449   6.583   1.905   8.232  1.3295 -0.4003  1.9545
 6630TIP3    H241450   6.693   1.920   8.129 -0.3826  0.7551  0.2229
 6631TIP3   OH241451   3.021   1.804   8.347 -0.4178 -0.2653 -0.1815
 6631TIP3    H141452   3.006   1.749   8.270  1.3178  1.1029 -1.6028
 6631TIP3    H241453   2.984   1.889   8.322  0.3152  0.2433  0.4451
 6632TIP3   OH241454   2.802   1.472   0.746 -0.4201 -0.7240  0.1891
 6632TIP3    H141455   2.708   1.478   0.728 -0.2688 -1.0088 -0.7373
 6632TIP3    H241456   2.813   1.384   0.783 -0.2790 -1.3464 -1.2934
 6633TIP3   OH241457   1.064   5.073   0.440  0.2530 -0.0217  0.5229
 6633TIP3    H141458   1.097   5.112   0.359  0.2565 -0.3374  0.3693
 6633TIP3    H241459   0.990   5.128   0.464 -0.6203 -0.7147 -0.4486
 6634TIP3   OH241460   5.378   0.646   1.081  0.0259 -0.3176  0.3079
 6634TIP3    H141461   5.414   0.558   1.093  0.6816 -0.2614 -1.1399
 6634TIP3    H241462   5.446   0.694   1.034 -0.6069  0.7703  0.4707
 6635TIP3   OH241463   4.702   3.545   8.053 -0.3610 -0.1770 -0.2402
 6635TIP3    H141464   4.710   3.469   8.110  0.3859  0.2045  0.1820
 6635TIP3    H241465   4.774   3.602   8.080 -1.4303  1.0710  0.0503
 6636TIP3   OH241466   1.366   1.851   2.535  0.2680  0.2844  0.1079
 6636TIP3    H141467   1.290   1.909   2.536  0.9296  1.1712  1.5544
 6636TIP3    H241468   1.329   1.763   2.526 -1.0153  0.6110  1.7977
 6637TIP3   OH241469   0.535   4.939   8.494  0.0957 -0.2339 -0.2918
 6637TIP3    H141470   0.448   4.899   8.490  0.3364 -0.7444 -0.5679
 6637TIP3    H241471   0.547   4.980   8.409 -0.4792  1.1543  0.2704
 6638TIP3   OH241472   2.811   4.617   1.406  0.0037  0.4990  0.5750
 6638TIP3    H141473   2.815   4.599   1.500  0.0010  0.2688  0.5330
 6638TIP3    H241474   2.894   4.584   1.371 -0.1410  0.2681  0.4455
 6639TIP3   OH241475   2.120   3.788   0.061 -0.2195 -0.0787  0.0201
 6639TIP3    H141476   2.077   3.837   0.132 -1.1379 -0.3246 -0.3614
 6639TIP3    H241477   2.117   3.697   0.090 -0.6428 -0.1857 -0.3582
 6640TIP3   OH241478   5.736   0.685   2.286 -0.8929  0.0234  0.5763
 6640TIP3    H141479   5.757   0.768   2.242 -1.7778 -0.3139 -0.4994
 6640TIP3    H241480   5.782   0.692   2.371  1.6330  0.2884 -0.7013
 6641TIP3   OH241481   0.756   5.744   0.456 -0.6327 -0.3593  0.2955
 6641TIP3    H141482   0.736   5.832   0.489 -0.8775 -0.8832  1.5966
 6641TIP3    H241483   0.846   5.750   0.423 -0.9705  0.6039 -0.4988
 6642TIP3   OH241484   2.443   6.413   1.116 -0.2675 -0.3407  0.1234
 6642TIP3    H141485   2.478   6.392   1.202  0.7796  0.6597 -0.0438
 6642TIP3    H241486   2.372   6.350   1.103  0.7804 -1.7402  0.9158
 6643TIP3   OH241487   4.819   0.005   1.187 -0.1209  0.7348  0.2346
 6643TIP3    H141488   4.836  -0.056   1.259 -1.6199 -1.7806 -1.3636
 6643TIP3    H241489   4.724   0.016   1.187  0.1413  3.6849  0.8437
 6644TIP3   OH241490   2.965   2.040   8.197  0.1005  0.9811 -0.1679
 6644TIP3    H141491   2.934   2.130   8.193  1.2449  1.3519 -1.2443
 6644TIP3    H241492   2.997   2.021   8.109  0.1776 -0.3747  0.1243
 6645TIP3   OH241493   5.318   5.558   8.735  0.0371 -0.2094  0.9718
 6645TIP3    H141494   5.266   5.571   8.655  0.2440 -0.9139  0.7146
 6645TIP3    H241495   5.308   5.464   8.754  4.9325 -1.6325 -1.7672
 6646TIP3   OH241496   4.821   0.342   1.310 -0.5591  0.5298  0.4994
 6646TIP3    H141497   4.851   0.417   1.258 -2.2368  0.9797  0.1407
 6646TIP3    H241498   4.887   0.274   1.293  0.0186  1.3280 -0.6111
 6647TIP3   OH241499   5.919   3.011   2.541  0.0496  0.5355 -0.0397
 6647TIP3    H141500   5.935   2.925   2.580  1.3862  0.4602 -0.6968
 6647TIP3    H241501   5.992   3.064   2.570 -0.7976  1.4874  0.4062
 6648TIP3   OH241502   5.513   1.471   7.957  0.2373 -0.3919  0.2302
 6648TIP3    H141503   5.596   1.427   7.978  1.2186  1.3892  0.2273
 6648TIP3    H241504   5.539   1.551   7.911 -1.4012  1.1048  1.7659
 6649TIP3   OH241505   1.641   4.388   7.675 -0.5625 -0.1494  0.4211
 6649TIP3    H141506   1.627   4.473   7.716  1.6594  0.5831 -0.1897
 6649TIP3    H241507   1.734   4.370   7.688 -0.6290 -1.6964 -0.9278
 6650TIP3   OH241508   6.598   2.793   7.926  0.2266  0.4218 -0.5227
 6650TIP3    H141509   6.569   2.721   7.871 -3.3847  1.5717 -0.3869
 6650TIP3    H241510   6.567   2.872   7.882  2.4581  1.8316  0.2353
 6651TIP3   OH241511   6.477   5.675   7.586 -0.3547 -0.4801 -0.0588
 6651TIP3    H141512   6.481   5.688   7.681  2.8049  0.6672 -0.2563
 6651TIP3    H241513   6.523   5.593   7.570  0.9990  0.3686 -0.7114
 6652TIP3   OH241514   1.585   6.744   1.364 -0.6874  0.3883  0.7178
 6652TIP3    H141515   1.629   6.794   1.432 -0.8023  1.4548  0.0318
 6652TIP3    H241516   1.585   6.801   1.288  1.2813 -1.5429 -0.8474
 6653TIP3   OH241517   2.965   6.387   8.082  0.0303 -0.4169  0.1185
 6653TIP3    H141518   2.975   6.437   8.163  1.4084 -0.1101 -0.2022
 6653TIP3    H241519   3.036   6.322   8.086 -0.8978 -1.4688 -0.1039
 6654TIP3   OH241520   3.793   1.298   8.469  0.6375  0.1155 -0.2572
 6654TIP3    H141521   3.733   1.364   8.435  0.1140 -0.8834 -1.3183
 6654TIP3    H241522   3.763   1.216   8.431 -0.2507 -1.1917  2.8857
 6655TIP3   OH241523   0.865   0.712   8.555  0.1925 -0.3681 -0.3029
 6655TIP3    H141524   0.954   0.699   8.589 -0.0489 -0.9485  0.1376
 6655TIP3    H241525   0.822   0.627   8.569 -0.5016 -0.0195 -0.2881
 6656TIP3   OH241526   4.365   4.865   2.433  0.3945 -0.0183  0.6917
 6656TIP3    H141527   4.312   4.941   2.456 -1.8402 -0.9036 -1.1391
 6656TIP3    H241528   4.455   4.898   2.432 -0.6111  3.2087 -1.9874
 6657TIP3   OH241529   1.553   2.178   8.138  0.3042 -0.1178 -0.4548
 6657TIP3    H141530   1.477   2.226   8.171 -0.3532 -1.1561 -0.4054
 6657TIP3    H241531   1.608   2.164   8.215 -1.2324 -2.5516  0.3213
 6658TIP3   OH241532   0.743   3.147   7.614 -0.0338  0.6524  0.5508
 6658TIP3    H141533   0.738   3.095   7.534  0.2540 -0.4806  1.2389
 6658TIP3    H241534   0.652   3.164   7.637 -0.2340 -1.1623  1.2953
 6659TIP3   OH241535   1.016   1.387   1.847 -0.6077  0.0128 -0.0840
 6659TIP3    H141536   1.020   1.354   1.758 -1.4751  1.8718 -0.8692
 6659TIP3    H241537   0.932   1.432   1.852 -0.6140 -0.1274  1.7121
 6660TIP3   OH241538   2.921   0.001   1.742  0.5058 -0.0046 -0.2693
 6660TIP3    H141539   2.884  -0.064   1.803 -1.3843  2.0235  0.9064
 6660TIP3    H241540   2.856   0.071   1.740  3.6289  3.2224  0.7792
 6661TIP3   OH241541   1.006   6.703   7.681  0.1316 -0.0163 -0.1360
 6661TIP3    H141542   1.003   6.798   7.692 -0.3652  0.1702 -1.5660
 6661TIP3    H241543   0.925   6.672   7.720 -0.0481  0.2411 -0.2985
 6662TIP3   OH241544   0.431   0.341   8.745  0.1185 -0.0300 -0.1564
 6662TIP3    H141545   0.487   0.409   8.706 -0.4265 -0.0297 -0.9533
 6662TIP3    H241546   0.407   0.284   8.672 -0.7400 -0.1663  0.2176
 6663TIP3   OH241547   1.451   2.120   2.038 -0.8296 -0.0099 -0.1997
 6663TIP3    H141548   1.414   2.088   2.121 -1.3868 -1.2512 -0.8999
 6663TIP3    H241549   1.452   2.043   1.981  1.4495  0.3364 -0.7153
 6664TIP3   OH241550   0.206   2.144   2.669 -0.4691  0.3751 -0.5082
 6664TIP3    H141551   0.119   2.156   2.706 -0.7763  1.2485 -1.4584
 6664TIP3    H241552   0.266   2.180   2.735 -0.9493  1.2536 -0.5409
 6665TIP3   OH241553   3.447   5.490   8.132 -0.1226 -0.0869 -0.2809
 6665TIP3    H141554   3.529   5.505   8.178  0.0652 -0.6699 -0.4225
 6665TIP3    H241555   3.447   5.553   8.060 -1.0566  1.8437  1.2895
 6666TIP3   OH241556   1.687   2.689   7.696  0.2316  0.6731 -0.0761
 6666TIP3    H141557   1.749   2.752   7.660  1.0457 -0.3545 -0.5371
 6666TIP3    H241558   1.718   2.673   7.785 -1.0755  2.2986  0.7300
 6667TIP3   OH241559   6.759   0.144   6.991  0.3293 -0.6160  0.1528
 6667TIP3    H141560   6.701   0.176   7.060 -0.3087 -1.2292 -0.0977
 6667TIP3    H241561   6.715   0.067   6.955  1.1454 -0.9060 -0.2538
 6668TIP3   OH241562   2.583   4.185   8.379 -0.1806 -0.4171 -0.7125
 6668TIP3    H141563   2.496   4.180   8.420  0.5883  0.2604  1.1149
 6668TIP3    H241564   2.602   4.279   8.376  0.4591 -0.5586 -1.1439
 6669TIP3   OH241565   4.988   4.317   7.218  0.6598  0.1513  0.1609
 6669TIP3    H141566   4.950   4.296   7.133  0.2793 -0.8281  0.5636
 6669TIP3    H241567   4.913   4.321   7.277  0.8831  1.2225  0.3821
 6670TIP3   OH241568   2.735   5.845   6.814  0.2045 -0.4340 -0.2120
 6670TIP3    H141569   2.673   5.839   6.887  0.9782 -2.1648  0.3482
 6670TIP3    H241570   2.783   5.925   6.830 -0.2718 -0.3125  0.6637
 6671TIP3   OH241571   2.742   4.608   6.561  0.2112 -0.0379 -0.1210
 6671TIP3    H141572   2.806   4.566   6.505  0.7594 -0.9601  1.1407
 6671TIP3    H241573   2.777   4.696   6.575  0.5978 -0.1478 -0.3796
 6672TIP3   OH241574   6.639   4.420   7.216  0.2596  0.0832 -0.0329
 6672TIP3    H141575   6.658   4.330   7.243  2.2605 -0.0040 -1.5596
 6672TIP3    H241576   6.625   4.466   7.299 -0.3635 -1.5066  0.8120
 6673TIP3   OH241577   3.269   6.357   0.817  0.7586  0.1174 -0.1165
 6673TIP3    H141578   3.344   6.300   0.798  0.2827 -0.3116 -0.7600
 6673TIP3    H241579   3.234   6.323   0.900  3.1588  2.3274  1.9923
 6674TIP3   OH241580   1.887   6.086   2.140  0.4741  0.1148  0.0038
 6674TIP3    H141581   1.975   6.113   2.113  1.5738 -0.2088  2.9133
 6674TIP3    H241582   1.867   6.142   2.215 -0.6674 -1.5849  1.0324
 6675TIP3   OH241583   2.914   2.940   8.145  0.0882  0.2206  0.2325
 6675TIP3    H141584   2.886   2.867   8.200  1.2092  0.3998  1.0852
 6675TIP3    H241585   2.860   3.014   8.173  0.1130  0.1200  0.5483
 6676TIP3   OH241586   5.175   5.442   1.490  0.1645 -0.0130 -0.0646
 6676TIP3    H141587   5.114   5.373   1.462  0.1269  0.4177 -1.0657
 6676TIP3    H241588   5.166   5.444   1.585 -1.6016  0.2380 -0.2133
 6677TIP3   OH241589   5.077   6.487   8.702 -0.5021  0.3660  1.1143
 6677TIP3    H141590   5.160   6.478   8.748  0.2495 -1.3147 -0.4484
 6677TIP3    H241591   5.066   6.581   8.691  2.2367  0.6033 -0.3790
 6678TIP3   OH241592   5.065   5.026   8.079  0.0484 -0.4831 -0.4434
 6678TIP3    H141593   5.048   4.988   7.993  1.0595 -1.0726 -0.3998
 6678TIP3    H241594   5.129   5.096   8.061 -1.3698  0.8762 -0.4491
 6679TIP3   OH241595   0.803   1.608   8.530  0.5412 -0.1256  0.4431
 6679TIP3    H141596   0.787   1.577   8.440 -0.3759  0.1392  0.5047
 6679TIP3    H241597   0.772   1.698   8.530  1.8412  0.3413  0.6604
 6680TIP3   OH241598   0.393   2.222   2.417 -0.4429  0.1681 -0.3404
 6680TIP3    H141599   0.409   2.293   2.479 -0.1516 -0.1348 -0.0680
 6680TIP3    H241600   0.459   2.235   2.349 -1.0311  0.7546 -0.8238
 6681TIP3   OH241601   3.866   0.547   6.997  0.3129 -0.1730  0.2669
 6681TIP3    H141602   3.825   0.479   7.051 -0.3434 -0.5312 -0.6603
 6681TIP3    H241603   3.934   0.500   6.949  1.2986  0.2610  1.1915
 6682TIP3   OH241604   5.502   6.439   1.902 -0.3193 -0.1485 -0.0591
 6682TIP3    H141605   5.485   6.517   1.954 -1.9743 -0.9040  0.6117
 6682TIP3    H241606   5.559   6.385   1.956 -0.8274 -0.2813  0.3503
 6683TIP3   OH241607   2.191   0.499   8.195 -0.0711  0.8305  0.3821
 6683TIP3    H141608   2.122   0.493   8.128 -0.8384 -0.8925  1.2775
 6683TIP3    H241609   2.145   0.531   8.273  0.7192  2.3087  0.2915
 6684TIP3   OH241610   1.621   4.161   1.718 -0.0133  0.2920 -0.5756
 6684TIP3    H141611   1.590   4.171   1.808 -0.5573 -0.9529 -0.6063
 6684TIP3    H241612   1.651   4.070   1.713  0.0531  0.3599 -1.6383
 6685TIP3   OH241613   4.902   5.579   1.310  0.1609  0.3691 -0.2145
 6685TIP3    H141614   4.929   5.493   1.277  0.5289  0.0363  0.9287
 6685TIP3    H241615   4.982   5.631   1.312 -0.0827  0.7915 -1.0203
 6686TIP3   OH241616   1.745   0.961   8.159  0.1955 -0.3295  0.1540
 6686TIP3    H141617   1.722   0.989   8.070 -0.0617  1.3419  0.7101
 6686TIP3    H241618   1.661   0.958   8.205  0.4689  0.1254  0.6833
 6687TIP3   OH241619   4.985   5.992   7.939  0.6628 -0.6575  0.2110
 6687TIP3    H141620   5.001   6.004   7.846 -0.6712 -2.9550 -0.4001
 6687TIP3    H241621   5.072   5.979   7.978  1.1461 -0.8411 -0.9077
 6688TIP3   OH241622   3.245   4.372   1.481  1.0305 -0.0578 -0.0638
 6688TIP3    H141623   3.332   4.409   1.496  0.9186  0.5668 -0.9007
 6688TIP3    H241624   3.244   4.293   1.534  2.1810 -0.1752 -0.1783
 6689TIP3   OH241625   2.916   3.225   1.123  0.3322  0.3895  0.1656
 6689TIP3    H141626   2.881   3.164   1.058 -0.3237  1.0738 -0.1446
 6689TIP3    H241627   2.875   3.198   1.205  0.6799 -0.0949  0.1798
 6690TIP3   OH241628   1.601   4.456   1.635 -0.6233 -0.6899  0.1893
 6690TIP3    H141629   1.585   4.362   1.638  0.0740 -0.7985  1.6237
 6690TIP3    H241630   1.679   4.469   1.689 -0.2583  0.6301 -0.5994
 6691TIP3   OH241631   5.462   3.076   7.843 -0.6828 -0.4814  0.4265
 6691TIP3    H141632   5.473   3.142   7.911  1.7981  2.3028 -2.3541
 6691TIP3    H241633   5.543   3.025   7.844 -0.5269 -0.2818 -0.5142
 6692TIP3   OH241634   2.675   1.948   8.191  0.2931 -0.3508  0.3421
 6692TIP3    H141635   2.757   1.990   8.218  0.6863  0.5877 -2.1124
 6692TIP3    H241636   2.702   1.881   8.129 -0.7737 -0.4716 -0.0088
 6693TIP3   OH241637   2.674   3.657   1.346  0.0586 -0.9014 -0.3772
 6693TIP3    H141638   2.616   3.582   1.360 -0.4276 -0.0946  2.5602
 6693TIP3    H241639   2.621   3.721   1.300 -0.2739 -1.4543 -0.7739
 6694TIP3   OH241640   4.825   5.074   7.348 -0.2424 -0.5415  0.5629
 6694TIP3    H141641   4.796   5.119   7.427  1.3806  0.7111  0.4933
 6694TIP3    H241642   4.744   5.042   7.308 -1.1558 -0.6386  2.3657
 6695TIP3   OH241643   1.495   5.392   1.043  0.1938  0.0798 -0.2905
 6695TIP3    H141644   1.560   5.354   0.984 -0.1819  0.2874 -0.8423
 6695TIP3    H241645   1.423   5.330   1.041 -0.0350  0.3500 -0.4595
 6696TIP3   OH241646   6.170   1.194   1.647 -0.3895 -0.2895 -0.4984
 6696TIP3    H141647   6.170   1.270   1.706 -1.5827 -1.3922  1.0357
 6696TIP3    H241648   6.252   1.148   1.667 -0.3646 -0.1755 -0.3312
 6697TIP3   OH241649   0.753   5.866   7.973  0.1788 -0.4255  0.0904
 6697TIP3    H141650   0.760   5.811   8.051  2.1886 -0.2280  0.0872
 6697TIP3    H241651   0.822   5.931   7.982 -0.5501  0.5814 -1.1213
 6698TIP3   OH241652   6.395   4.528   0.439 -0.0207 -0.1379  0.2724
 6698TIP3    H141653   6.445   4.570   0.509  1.7039  0.2596 -1.1245
 6698TIP3    H241654   6.343   4.598   0.401 -1.7879 -0.5597  1.7529
 6699TIP3   OH241655   2.365   1.483   1.322 -0.2346  0.4576 -0.4153
 6699TIP3    H141656   2.366   1.480   1.417 -0.6013  0.5568 -0.4031
 6699TIP3    H241657   2.271   1.483   1.300 -0.1554  0.7647 -0.7605
 6700TIP3   OH241658   4.545   0.500   7.874  0.7046  0.5964 -0.3838
 6700TIP3    H141659   4.556   0.419   7.924  0.7588  1.5378  1.2236
 6700TIP3    H241660   4.596   0.487   7.795 -0.2493 -1.3886 -0.7346
 6701TIP3   OH241661   3.222   4.451   8.087  0.8523  0.0010  0.1611
 6701TIP3    H141662   3.243   4.514   8.019  0.0884 -0.0892 -0.1676
 6701TIP3    H241663   3.307   4.421   8.119  1.2175  0.4439 -0.3769
 6702TIP3   OH241664   4.953   1.039   0.679 -0.3655 -0.5740  0.3470
 6702TIP3    H141665   4.940   0.986   0.601  1.1545  1.7506 -1.5973
 6702TIP3    H241666   4.872   1.089   0.688 -0.1079 -0.0156 -0.4255
 6703TIP3   OH241667   1.082   1.486   7.983 -0.1295 -0.3936  0.2808
 6703TIP3    H141668   1.022   1.532   7.924 -0.4729  1.2806  1.8520
 6703TIP3    H241669   1.114   1.554   8.042  3.9821 -1.0021 -0.9208
 6704TIP3   OH241670   6.608   3.374   7.343 -0.3627 -0.6381 -0.2034
 6704TIP3    H141671   6.576   3.350   7.256  1.4289 -2.4165 -0.4406
 6704TIP3    H241672   6.701   3.354   7.340  0.2425  1.6400  1.3514
 6705TIP3   OH241673   3.172   4.995   1.348 -0.0640 -0.3710 -0.2442
 6705TIP3    H141674   3.261   5.019   1.322 -0.9963  2.9807 -0.8911
 6705TIP3    H241675   3.144   4.931   1.283  0.9395  0.6912 -1.7982
 6706TIP3   OH241676   3.283   0.429   6.843 -0.2801  0.4063  0.0781
 6706TIP3    H141677   3.257   0.353   6.791  0.5303  0.7761 -0.9042
 6706TIP3    H241678   3.339   0.393   6.912 -2.6089 -0.2880  1.7280
 6707TIP3   OH241679   1.213   0.465   6.547  0.5332  0.9063 -0.1317
 6707TIP3    H141680   1.240   0.493   6.634  1.1144 -0.8945  0.3161
 6707TIP3    H241681   1.126   0.502   6.535  0.8112  1.9085  0.8441
 6708TIP3   OH241682   0.874   0.420   8.286 -0.3689  0.0340 -0.0932
 6708TIP3    H141683   0.907   0.422   8.197  0.3033  3.2288  0.1069
 6708TIP3    H241684   0.943   0.379   8.337  0.0387 -0.1326 -0.7727
 6709TIP3   OH241685   1.686   6.605   7.909  0.0629  0.0396  0.4282
 6709TIP3    H141686   1.735   6.592   7.990 -0.2823  1.0695  0.8238
 6709TIP3    H241687   1.677   6.518   7.872  1.8170 -0.2354  0.5511
 6710TIP3   OH241688   2.431   2.172   0.860  0.5194  0.5337  0.0386
 6710TIP3    H141689   2.366   2.236   0.890  0.8775  0.0205  2.0567
 6710TIP3    H241690   2.400   2.089   0.897  1.9352  0.1651  0.4463
 6711TIP3   OH241691   3.186   5.546   1.628 -0.3021 -0.3469  0.3098
 6711TIP3    H141692   3.212   5.510   1.543 -3.9148 -1.0490 -0.6718
 6711TIP3    H241693   3.255   5.519   1.688  3.2219  1.4377 -2.5227
 6712TIP3   OH241694   3.707   4.950   6.222 -0.1178 -0.4271 -0.2398
 6712TIP3    H141695   3.700   5.045   6.210 -0.0124 -0.4704 -0.6742
 6712TIP3    H241696   3.636   4.914   6.168  0.4496 -0.6413 -0.8540
 6713TIP3   OH241697   6.385   1.124   7.659  0.1909  0.1940  0.3166
 6713TIP3    H141698   6.296   1.106   7.628  0.3343  0.6576 -0.4113
 6713TIP3    H241699   6.403   1.213   7.626  1.4404 -0.4335 -0.7733
 6714TIP3   OH241700   1.092   4.792   8.191  0.3850  0.2654 -0.4533
 6714TIP3    H141701   1.128   4.784   8.279 -0.3643  1.4322 -0.0225
 6714TIP3    H241702   1.168   4.791   8.133  1.0305  1.4934  0.3489
 6715TIP3   OH241703   0.770   6.623   7.016  0.2334 -0.4500  0.9314
 6715TIP3    H141704   0.732   6.537   7.034 -0.3543 -0.9513 -2.1269
 6715TIP3    H241705   0.846   6.604   6.962 -0.0337  0.9270  0.0278
 6716TIP3   OH241706   0.101   6.505   0.119 -0.0223 -0.6679  0.2168
 6716TIP3    H141707   0.024   6.515   0.062 -0.6953  0.7347  1.3038
 6716TIP3    H241708   0.067   6.458   0.195  0.1126  0.2201  0.8325
 6717TIP3   OH241709   4.475   4.147   2.379 -0.3772 -0.1999  0.0853
 6717TIP3    H141710   4.422   4.144   2.458 -2.1776 -2.3822 -1.0861
 6717TIP3    H241711   4.483   4.240   2.359 -1.3819  0.3103  1.8533
 6718TIP3   OH241712   1.339   3.543   1.393  0.0050 -0.1235 -0.0006
 6718TIP3    H141713   1.363   3.599   1.319  0.1851  1.1687  0.9933
 6718TIP3    H241714   1.414   3.547   1.452  1.4845 -4.0880 -1.2716
 6719TIP3   OH241715   3.580   1.307   0.964 -0.2460 -0.1103 -0.1391
 6719TIP3    H141716   3.635   1.250   0.910 -1.7904 -0.2398 -1.6506
 6719TIP3    H241717   3.573   1.388   0.915 -1.4045 -0.1059  0.0006
 6720TIP3   OH241718   5.575   3.968   0.568  0.1802 -0.9052 -0.5229
 6720TIP3    H141719   5.615   3.992   0.485  0.2408  1.5283  0.1190
 6720TIP3    H241720   5.482   3.986   0.556  0.4098  1.2502  0.4157
 6721TIP3   OH241721   4.301   4.971   7.155 -0.4702  0.0982  0.0513
 6721TIP3    H141722   4.346   4.917   7.220 -0.6751  0.2321  0.3052
 6721TIP3    H241723   4.341   5.057   7.164 -0.1189 -0.0134 -0.3784
 6722TIP3   OH241724   2.296   5.806   8.093  0.4091 -0.0294  0.4994
 6722TIP3    H141725   2.385   5.839   8.086  0.5391 -0.5105 -0.1875
 6722TIP3    H241726   2.299   5.743   8.164  1.2723 -2.0468 -1.1993
 6723TIP3   OH241727   5.717   1.198   8.402  1.0930 -0.1556 -0.2959
 6723TIP3    H141728   5.667   1.199   8.321  1.3616  1.5746 -0.4646
 6723TIP3    H241729   5.653   1.221   8.470  1.5113  1.6363 -0.4584
 6724TIP3   OH241730   3.801   4.769   6.400  0.1068  0.0506 -0.6849
 6724TIP3    H141731   3.807   4.818   6.318  1.9229 -0.5620 -0.9771
 6724TIP3    H241732   3.713   4.732   6.401  0.4743 -1.0108 -3.0095
 6725TIP3   OH241733   6.414   4.270   0.379  0.1322  0.1588  0.1527
 6725TIP3    H141734   6.420   4.224   0.463 -0.0106 -0.8773 -0.3769
 6725TIP3    H241735   6.431   4.361   0.400  0.9937 -0.2126  1.1828
 6726TIP3   OH241736   5.754   0.188   7.612  0.2437  1.0029 -0.5922
 6726TIP3    H141737   5.741   0.273   7.653 -2.8309  1.4842 -2.2995
 6726TIP3    H241738   5.836   0.196   7.564  0.3913  2.7083 -0.0976
 6727TIP3   OH241739   5.035   2.606   0.541 -0.5031  0.2602 -0.2910
 6727TIP3    H141740   5.102   2.674   0.544  1.8190 -1.7881 -1.6506
 6727TIP3    H241741   5.060   2.551   0.467 -2.8418 -1.5302  0.1171
 6728TIP3   OH241742   2.462   1.818   1.336 -0.0518  0.2294  0.1123
 6728TIP3    H141743   2.372   1.790   1.353  0.3816 -0.0105  2.3337
 6728TIP3    H241744   2.453   1.901   1.290 -1.4328  0.5269  0.8559
 6729TIP3   OH241745   5.152   1.471   1.563  0.2911  0.4544 -0.3640
 6729TIP3    H141746   5.125   1.484   1.654 -0.6753  2.4809 -0.8856
 6729TIP3    H241747   5.185   1.556   1.535  2.7532 -0.7084 -1.2717
 6730TIP3   OH241748   4.883   1.396   2.026  0.0435 -0.3799  0.1696
 6730TIP3    H141749   4.970   1.358   2.014  0.6943  1.2978 -0.7367
 6730TIP3    H241750   4.899   1.481   2.066 -1.0003  0.6782 -1.5179
 6731TIP3   OH241751   1.514   0.952   8.337 -0.2198  0.1625 -0.0241
 6731TIP3    H141752   1.569   0.983   8.409  1.9761 -3.2650  0.0003
 6731TIP3    H241753   1.426   0.948   8.375  0.3233  1.2740  1.4746
 6732TIP3   OH241754   3.549   2.306   7.192 -0.1769 -0.9456 -0.1939
 6732TIP3    H141755   3.454   2.310   7.201  0.0264  0.5368  2.1133
 6732TIP3    H241756   3.566   2.337   7.103 -1.8376 -1.4050 -0.7070
 6733TIP3   OH241757   4.783   3.423   0.222  0.3597 -0.7143  0.0487
 6733TIP3    H141758   4.768   3.373   0.302  3.3404  2.0489  2.6040
 6733TIP3    H241759   4.700   3.468   0.205 -0.2880 -1.2510  1.6616
 6734TIP3   OH241760   1.240   5.794   2.679  0.4433  0.5465  0.3779
 6734TIP3    H141761   1.282   5.731   2.620  0.0266  0.3301  0.3071
 6734TIP3    H241762   1.280   5.878   2.657 -1.1510  0.8518 -1.6828
 6735TIP3   OH241763   1.123   5.618   8.392 -0.5355 -0.0191 -0.1474
 6735TIP3    H141764   1.215   5.631   8.370 -0.9043  1.7051 -0.7711
 6735TIP3    H241765   1.113   5.522   8.397  0.9092 -0.2863 -1.6778
 6736TIP3   OH241766   4.766   3.258   6.310  0.1470 -0.4979  0.1958
 6736TIP3    H141767   4.709   3.191   6.273 -1.6208  1.3790 -0.6763
 6736TIP3    H241768   4.775   3.324   6.241  1.3820  0.4338  1.1931
 6737TIP3   OH241769   6.615   6.441   2.408  0.2312  0.4157 -0.4935
 6737TIP3    H141770   6.656   6.495   2.341  2.4773 -2.8062 -1.9489
 6737TIP3    H241771   6.685   6.424   2.471 -0.9790  0.7521  1.0061
 6738TIP3   OH241772   4.571   0.864   0.332 -0.3951  0.3795  0.0735
 6738TIP3    H141773   4.606   0.817   0.408 -0.6574  1.3136  0.7878
 6738TIP3    H241774   4.638   0.928   0.310  0.4397 -0.9682 -1.5635
 6739TIP3   OH241775   1.438   4.150   0.277  0.3677 -0.1477 -0.9527
 6739TIP3    H141776   1.514   4.097   0.301  2.4233  1.6699 -2.8815
 6739TIP3    H241777   1.438   4.149   0.181 -1.6215  0.5298 -1.0075
 6740TIP3   OH241778   5.997   1.483   7.066 -0.1059  0.1128 -0.0300
 6740TIP3    H141779   6.018   1.513   7.155 -1.2364  0.6535  0.0753
 6740TIP3    H241780   5.907   1.514   7.052 -0.0511 -0.2619 -1.2376
 6741TIP3   OH241781   4.764   3.842   7.866 -0.3799  0.4131 -0.0431
 6741TIP3    H141782   4.692   3.886   7.912  0.5390  0.9306  0.9375
 6741TIP3    H241783   4.811   3.795   7.935 -0.1714 -0.4824 -0.7802
 6742TIP3   OH241784   5.365   0.737   8.830 -0.2776  0.0866 -0.1141
 6742TIP3    H141785   5.325   0.778   8.907  0.6149 -0.1275  0.4794
 6742TIP3    H241786   5.293   0.691   8.787 -0.5835 -0.7163  1.2127
 6743TIP3   OH241787   3.789   3.563   0.384  0.7236 -1.1738  0.1305
 6743TIP3    H141788   3.775   3.599   0.297  0.1294  0.1862  0.7669
 6743TIP3    H241789   3.878   3.590   0.408 -0.2918  1.4908  1.2890
 6744TIP3   OH241790   4.844   1.977   1.591 -1.1981  0.1513 -0.0307
 6744TIP3    H141791   4.889   1.919   1.652  0.0696  1.3705  0.2345
 6744TIP3    H241792   4.763   1.930   1.568 -1.0296 -0.9395  1.4889
 6745TIP3   OH241793   6.264   6.274   1.452  0.7815  0.3541  0.2041
 6745TIP3    H141794   6.206   6.350   1.446 -0.0890  0.0830  3.2753
 6745TIP3    H241795   6.323   6.294   1.524  0.7036 -1.7513  0.9116
 6746TIP3   OH241796   3.333   1.374   0.530  1.0971  0.4245  0.1781
 6746TIP3    H141797   3.305   1.432   0.460 -1.7554 -1.0752 -0.0727
 6746TIP3    H241798   3.307   1.418   0.611  0.5399  0.2772  0.0792
 6747TIP3   OH241799   4.718   4.533   0.954  0.5547  0.3035 -0.1933
 6747TIP3    H141800   4.672   4.602   0.906 -1.8888  0.1286  1.6652
 6747TIP3    H241801   4.808   4.564   0.962 -0.0863  2.4823 -0.8404
 6748TIP3   OH241802   4.110   2.879   7.265 -0.1420  0.9026  1.0538
 6748TIP3    H141803   4.203   2.872   7.246 -0.0793 -3.3246  1.8936
 6748TIP3    H241804   4.083   2.962   7.225  2.9364 -0.0414 -3.8001
 6749TIP3   OH241805   4.666   1.491   8.107 -0.4183  0.4164  0.3109
 6749TIP3    H141806   4.690   1.558   8.171  0.9066 -0.3341  0.6408
 6749TIP3    H241807   4.582   1.457   8.138 -1.2375  2.0237  0.0180
 6750TIP3   OH241808   4.368   5.346   0.520 -0.5556 -0.2665  0.3481
 6750TIP3    H141809   4.400   5.285   0.454  2.2700 -0.3089  1.6191
 6750TIP3    H241810   4.338   5.289   0.592 -0.8763 -0.1759  0.2898
 6751TIP3   OH241811   2.979   0.108   7.158  0.4417 -0.1358  0.3892
 6751TIP3    H141812   2.972   0.182   7.218 -2.1475 -0.8996  1.1844
 6751TIP3    H241813   2.905   0.120   7.097  1.7395 -0.5129 -1.3512
 6752TIP3   OH241814   4.566   3.985   7.974  0.0962  0.3377 -0.0432
 6752TIP3    H141815   4.582   4.024   8.060  0.4574 -0.3550  0.2191
 6752TIP3    H241816   4.472   3.965   7.973 -0.2500  1.8715 -0.4805
 6753TIP3   OH241817   2.433   4.495   8.557  0.3761 -0.5063 -0.4487
 6753TIP3    H141818   2.353   4.469   8.603 -0.4891  2.4936 -0.0625
 6753TIP3    H241819   2.504   4.468   8.615 -0.4780 -1.0314  0.3736
 6754TIP3   OH241820   3.609   0.058   8.714  0.4478  0.1523 -0.1254
 6754TIP3    H141821   3.580  -0.033   8.722 -1.4212  0.7986  1.0322
 6754TIP3    H241822   3.632   0.084   8.803 -2.5477  1.8474  0.2780
 6755TIP3   OH241823   3.463   6.346   1.068 -0.1715  0.1237  0.5695
 6755TIP3    H141824   3.532   6.285   1.040  0.1642  0.8533 -0.2163
 6755TIP3    H241825   3.381   6.299   1.049  0.0833 -0.7242  1.4583
 6756TIP3   OH241826   4.118   2.949   8.817 -0.6105  0.3697 -0.3080
 6756TIP3    H141827   4.116   2.928   8.911 -0.7602  2.1645  0.1175
 6756TIP3    H241828   4.031   2.926   8.786  0.0313 -2.1285 -0.5000
 6757TIP3   OH241829   1.129   2.440   0.189  0.7060  0.2403 -0.4928
 6757TIP3    H141830   1.062   2.452   0.122  0.8684 -0.0991 -0.7211
 6757TIP3    H241831   1.191   2.511   0.175 -0.6802  1.8727  1.0696
 6758TIP3   OH241832   0.931   5.380   0.018  0.1909 -0.3459 -0.0036
 6758TIP3    H141833   0.963   5.457   0.065  1.1922 -0.8539  0.1743
 6758TIP3    H241834   0.837   5.380   0.033  0.4249 -0.2281  1.6177
 6759TIP3   OH241835   0.756   1.895   8.511 -0.4749  0.7183 -0.0587
 6759TIP3    H141836   0.743   1.936   8.425 -0.9206 -0.1033 -0.3904
 6759TIP3    H241837   0.683   1.928   8.564 -1.0966  0.0224 -0.4577
 6760TIP3   OH241838   6.038   1.521   0.802 -0.5354  0.6559 -0.4874
 6760TIP3    H141839   6.102   1.464   0.843 -0.9227  0.4762 -0.1280
 6760TIP3    H241840   5.997   1.467   0.734 -0.4983  0.6856 -0.5336
 6761TIP3   OH241841   2.678   2.381   1.671  0.3814  0.3085 -0.2711
 6761TIP3    H141842   2.738   2.356   1.601 -0.0921 -0.4935 -0.4087
 6761TIP3    H241843   2.596   2.402   1.626  0.3124  0.5893 -0.0190
 6762TIP3   OH241844   0.080   0.547   1.382  0.2197  0.5680 -0.4246
 6762TIP3    H141845   0.130   0.573   1.460  1.1543  1.6927 -1.3681
 6762TIP3    H241846   0.131   0.580   1.308 -1.1042  0.3096 -1.4959
 6763TIP3   OH241847   0.320   6.615   1.126 -0.1288 -0.1795  0.0951
 6763TIP3    H141848   0.310   6.648   1.037 -2.5834 -2.9106 -0.8040
 6763TIP3    H241849   0.274   6.677   1.181  0.8810  1.2126 -0.5721
 6764TIP3   OH241850   3.520   2.009   1.046 -0.5831 -0.0067  0.3403
 6764TIP3    H141851   3.508   1.927   0.997  0.4870 -0.4707  0.8116
 6764TIP3    H241852   3.434   2.050   1.047 -1.1682 -1.1982  0.1990
 6765TIP3   OH241853   2.959   0.479   7.860  0.4598 -0.0197 -0.0336
 6765TIP3    H141854   2.928   0.565   7.887 -0.9345 -1.0319  1.8873
 6765TIP3    H241855   2.884   0.438   7.818  1.0991 -0.3224 -0.9131
 6766TIP3   OH241856   4.313   5.500   7.312  0.1045 -0.3238  0.1356
 6766TIP3    H141857   4.394   5.534   7.274 -0.0159 -0.7663 -0.5264
 6766TIP3    H241858   4.255   5.576   7.316 -0.3473 -0.5230 -1.8284
 6767TIP3   OH241859   4.227   6.352   1.360 -0.3082 -0.1406 -0.4811
 6767TIP3    H141860   4.216   6.360   1.454  0.1617 -1.4852 -0.2922
 6767TIP3    H241861   4.294   6.416   1.337 -1.2400  0.9999 -0.0965
 6768TIP3   OH241862   0.201   1.212   7.270  0.6772 -0.3157 -0.5051
 6768TIP3    H141863   0.212   1.157   7.192 -0.9691  1.6344 -2.2288
 6768TIP3    H241864   0.115   1.188   7.304  1.3582 -1.0987  0.7114
 6769TIP3   OH241865   4.865   5.590   8.311  0.4837 -0.0377  0.1184
 6769TIP3    H141866   4.784   5.541   8.298  0.4954 -0.0759  0.1870
 6769TIP3    H241867   4.876   5.640   8.231  0.5711 -0.2893 -0.0277
 6770TIP3   OH241868   5.514   3.062   6.824  0.3623  0.1480  0.1434
 6770TIP3    H141869   5.454   3.020   6.762 -1.2977 -0.8158  2.2879
 6770TIP3    H241870   5.594   3.011   6.817 -0.3616 -0.9969 -0.0275
 6771TIP3   OH241871   1.857   4.593   0.405 -0.2126 -0.6255 -0.1971
 6771TIP3    H141872   1.819   4.537   0.338 -0.4344 -0.3967 -0.2630
 6771TIP3    H241873   1.897   4.665   0.356  0.5330 -0.9909 -0.1483
 6772TIP3   OH241874   1.030   0.288   8.527  0.0646 -0.6288 -0.3160
 6772TIP3    H141875   1.067   0.207   8.493 -1.0056 -1.8261  1.2576
 6772TIP3    H241876   0.951   0.261   8.573  1.5576  0.7827  3.4194
 6773TIP3   OH241877   6.531   0.397   7.313  0.3623 -0.0915 -0.0285
 6773TIP3    H141878   6.531   0.401   7.409  0.9365  0.7333 -0.0513
 6773TIP3    H241879   6.443   0.369   7.290 -0.4451  1.7193  0.6744
 6774TIP3   OH241880   1.436   2.544   1.798  0.3911  0.4327 -0.4925
 6774TIP3    H141881   1.362   2.598   1.824 -1.5868 -1.6804 -1.3522
 6774TIP3    H241882   1.489   2.600   1.742  0.0456  2.3126  0.9595
 6775TIP3   OH241883   2.783   0.556   7.242  0.2568 -0.1907  0.2482
 6775TIP3    H141884   2.805   0.508   7.162 -1.3611 -0.6227  0.0189
 6775TIP3    H241885   2.690   0.576   7.233  0.4373  1.2718  1.2609
 6776TIP3   OH241886   5.400   0.465   8.001  0.5906 -0.4243 -0.3625
 6776TIP3    H141887   5.319   0.442   7.955 -0.3909 -0.4406  1.2965
 6776TIP3    H241888   5.377   0.540   8.055  1.9014  0.0422 -0.4166
 6777TIP3   OH241889   5.694   4.653   2.083 -0.1270 -0.2818 -0.2223
 6777TIP3    H141890   5.778   4.617   2.052  0.2718 -0.1986  0.7264
 6777TIP3    H241891   5.688   4.739   2.040  0.3155 -0.2550 -0.2422
 6778TIP3   OH241892   4.723   5.159   6.680 -0.3740  0.3917 -0.1782
 6778TIP3    H141893   4.680   5.078   6.651  0.1887  0.6354 -1.8267
 6778TIP3    H241894   4.775   5.133   6.756 -1.2175 -0.5035  0.1207
 6779TIP3   OH241895   1.173   6.228   6.572 -0.3223 -0.2897  0.1469
 6779TIP3    H141896   1.107   6.295   6.590  1.3943  1.3320  0.7152
 6779TIP3    H241897   1.152   6.156   6.632 -0.8207  0.7330  1.2351
 6780TIP3   OH241898   4.828   1.845   6.564  0.1486 -0.0763  0.3787
 6780TIP3    H141899   4.807   1.765   6.514  0.1391  1.0074 -1.4486
 6780TIP3    H241900   4.908   1.823   6.611  0.0790 -1.2063  0.0191
 6781TIP3   OH241901   0.154   1.205   8.290  0.1891  0.3546 -0.2886
 6781TIP3    H141902   0.059   1.195   8.283  0.1024  0.4350  0.6158
 6781TIP3    H241903   0.189   1.123   8.255 -0.2139  0.2692 -0.5068
 6782TIP3   OH241904   5.873   2.561   0.006  0.8768 -0.7484 -0.3783
 6782TIP3    H141905   5.904   2.518   0.086 -2.5654  1.5402  2.4718
 6782TIP3    H241906   5.790   2.518  -0.014  0.0848  0.8694 -0.7273
 6783TIP3   OH241907   1.096   6.415   1.242 -0.0621  0.2629  0.0363
 6783TIP3    H141908   1.178   6.368   1.253  0.0854 -0.0451 -1.9915
 6783TIP3    H241909   1.113   6.476   1.171 -1.5930  0.1799 -0.4349
 6784TIP3   OH241910   4.109   1.799   8.372 -0.1220 -0.2218  0.6596
 6784TIP3    H141911   4.016   1.784   8.390  0.0378 -0.6869  1.1232
 6784TIP3    H241912   4.110   1.841   8.286 -0.6793 -1.6722 -0.0894
 6785TIP3   OH241913   5.791   1.334   1.676 -0.0794 -0.3361  0.4614
 6785TIP3    H141914   5.708   1.381   1.689 -0.2049 -0.4463  0.0642
 6785TIP3    H241915   5.849   1.399   1.636  0.0858 -0.2069  0.8996
 6786TIP3   OH241916   5.115   0.351   8.182 -0.0733 -0.1715 -0.0168
 6786TIP3    H141917   5.124   0.349   8.086 -0.2549 -0.6039 -0.0264
 6786TIP3    H241918   5.204   0.368   8.213 -0.0001 -0.1020 -0.2594
 6787TIP3   OH241919   3.523   2.316   8.834 -0.0272 -0.4082 -0.6937
 6787TIP3    H141920   3.587   2.324   8.905 -0.2908  0.1215 -0.5096
 6787TIP3    H241921   3.515   2.222   8.820 -0.4473 -0.5517  0.4116
 6788TIP3   OH241922   3.438   6.148   0.754  0.2032 -0.2637 -0.1259
 6788TIP3    H141923   3.430   6.075   0.693  0.4258  1.1139 -1.8732
 6788TIP3    H241924   3.463   6.107   0.837  2.6081 -1.9746 -1.5780
 6789TIP3   OH241925   3.485   3.071   7.323  0.3130  0.0690  0.1666
 6789TIP3    H141926   3.468   3.165   7.329  0.0756  0.0871 -0.7251
 6789TIP3    H241927   3.415   3.030   7.374 -0.2513  0.3259 -0.3961
 6790TIP3   OH241928   3.569   2.217   0.561 -0.2413  0.5209  0.3586
 6790TIP3    H141929   3.661   2.195   0.575 -0.4706  0.6040  2.4422
 6790TIP3    H241930   3.523   2.133   0.563 -0.3028  0.5526  0.2861
 6791TIP3   OH241931   4.462   0.287   0.010 -0.0662 -0.7405  0.0530
 6791TIP3    H141932   4.455   0.217   0.075  1.1174 -0.4485  0.5174
 6791TIP3    H241933   4.466   0.367   0.061 -0.6640 -0.3701 -0.4536
 6792TIP3   OH241934   4.514   2.755   6.733 -0.0876  0.1237 -0.2143
 6792TIP3    H141935   4.525   2.665   6.702 -2.8324 -0.1352 -0.7208
 6792TIP3    H241936   4.596   2.799   6.709  0.5624 -1.7473 -1.7311
 6793TIP3   OH241937   0.533   1.395   8.376  0.2054  0.0970 -0.3021
 6793TIP3    H141938   0.532   1.308   8.337 -1.7275 -0.2242  0.3533
 6793TIP3    H241939   0.584   1.449   8.315 -1.4905 -0.6884 -2.5314
 6794TIP3   OH241940   1.110   2.901   0.227  0.3108  0.2551 -0.2506
 6794TIP3    H141941   1.192   2.906   0.178  0.0133  1.1939 -0.6846
 6794TIP3    H241942   1.094   2.807   0.238  0.8587  0.0414 -1.1528
 6795TIP3   OH241943   0.302   4.993   0.055 -0.7058 -0.3636 -0.3981
 6795TIP3    H141944   0.305   5.031   0.143  1.0472 -1.6398  0.1537
 6795TIP3    H241945   0.257   4.910   0.066  1.2818 -1.4827 -0.2430
 6796TIP3   OH241946   0.700   2.772   1.987  0.0905  0.0583  0.2616
 6796TIP3    H141947   0.627   2.761   2.048  0.0042 -1.8118 -0.0980
 6796TIP3    H241948   0.779   2.764   2.041  0.0284  0.6171  0.4382
 6797TIP3   OH241949   6.166   6.739   7.979  0.6608  0.2445 -0.0017
 6797TIP3    H141950   6.079   6.707   7.952  0.0368  1.4679  0.4887
 6797TIP3    H241951   6.149   6.826   8.015  2.0793  0.4169  0.2869
 6798TIP3   OH241952   0.790   2.799   0.002  0.2609 -0.4335  0.5440
 6798TIP3    H141953   0.797   2.817   0.096 -1.2657 -2.0500  1.0319
 6798TIP3    H241954   0.697   2.809  -0.018  0.1819 -2.3075 -0.2487
 6799TIP3   OH241955   1.042   2.788   8.185 -0.3679  0.0998 -0.1357
 6799TIP3    H141956   0.997   2.871   8.170 -1.5090 -0.2046  1.4621
 6799TIP3    H241957   1.006   2.729   8.119 -0.6056  0.4811 -0.3513
 6800TIP3   OH241958   6.334   4.251   1.614  0.1617  0.2155 -0.3130
 6800TIP3    H141959   6.324   4.234   1.707 -2.6918  0.0530 -0.5643
 6800TIP3    H241960   6.427   4.234   1.596  0.7115 -0.0447  2.3989
 6801TIP3   OH241961   1.239   3.268   1.457  0.2129  0.5027 -0.3230
 6801TIP3    H141962   1.265   3.356   1.431 -1.1589  0.7570 -0.9462
 6801TIP3    H241963   1.202   3.230   1.377  0.5341 -0.5396  0.0142
 6802TIP3   OH241964   2.754   5.770   8.760 -0.6409 -0.3477 -0.0516
 6802TIP3    H141965   2.799   5.758   8.843 -1.1455 -1.6508  0.0513
 6802TIP3    H241966   2.823   5.772   8.694 -0.4018 -2.0479  0.1283
 6803TIP3   OH241967   4.977   0.801   1.516  0.0367  0.0401 -1.0187
 6803TIP3    H141968   4.928   0.851   1.450 -0.5315 -0.6908 -1.1597
 6803TIP3    H241969   5.069   0.815   1.494 -0.1121  0.9298 -1.1218
 6804TIP3   OH241970   2.782   3.149   0.673  0.1628  0.0395  0.0004
 6804TIP3    H141971   2.782   3.119   0.582 -1.3298  0.1673 -0.0661
 6804TIP3    H241972   2.845   3.221   0.675  1.5030 -1.0821 -0.5252
 6805TIP3   OH241973   3.184   6.645   1.375  0.2774 -0.1465  0.2467
 6805TIP3    H141974   3.263   6.592   1.375  0.6161  0.3013 -1.7006
 6805TIP3    H241975   3.121   6.594   1.426  1.7134 -0.6239  1.6196
 6806TIP3   OH241976   2.204   0.891   0.031  0.0839  0.5429 -0.0933
 6806TIP3    H141977   2.156   0.953  -0.024  0.5321  1.4051  0.4663
 6806TIP3    H241978   2.293   0.925   0.033  0.1896  0.2253  0.7479
 6807TIP3   OH241979   5.188   3.617   2.399 -0.2624 -0.1010  0.3000
 6807TIP3    H141980   5.177   3.522   2.406  0.7263 -0.2369  0.1763
 6807TIP3    H241981   5.242   3.629   2.321  0.8374  0.4456  1.1095
 6808TIP3   OH241982   3.110   3.354   8.754  0.2183  0.1499  0.1335
 6808TIP3    H141983   3.149   3.440   8.738  0.6314  0.1390  1.0414
 6808TIP3    H241984   3.184   3.295   8.767 -0.0459 -0.4612 -0.9705
 6809TIP3   OH241985   6.522   4.769   1.672  0.5214  0.5411  0.1612
 6809TIP3    H141986   6.450   4.829   1.651  1.8245  1.9001 -0.6718
 6809TIP3    H241987   6.532   4.716   1.593  0.3079  0.2135  0.3529
 6810TIP3   OH241988   1.820   3.133   8.214  0.1717  0.6175 -0.1603
 6810TIP3    H141989   1.870   3.173   8.285 -0.1916  0.8773 -0.0463
 6810TIP3    H241990   1.743   3.095   8.257 -0.4950  1.5270 -0.5079
 6811TIP3   OH241991   2.978   5.878   8.455  0.1891  0.1330 -0.1577
 6811TIP3    H141992   3.062   5.871   8.411  0.4093 -0.9140  0.3916
 6811TIP3    H241993   2.953   5.970   8.447  2.1628  0.8424  1.0954
 6812TIP3   OH241994   2.031   3.637   0.849 -0.5199 -1.0957 -0.2815
 6812TIP3    H141995   2.039   3.542   0.863  0.2682 -1.0366 -0.2630
 6812TIP3    H241996   2.121   3.665   0.831 -0.6904 -0.2838  0.1219
 6813TIP3   OH241997   4.888   5.781   8.087  0.1458 -0.3786  0.4903
 6813TIP3    H141998   4.936   5.839   8.028  1.0391 -0.8536  0.7308
 6813TIP3    H241999   4.796   5.800   8.070  0.4160  0.5549  0.0189
 6814TIP3   OH242000   5.168   2.230   7.734 -0.5914 -0.2005  0.1815
 6814TIP3    H142001   5.082   2.208   7.699 -0.3903 -0.7896  0.0520
 6814TIP3    H242002   5.162   2.323   7.756 -1.5030 -0.4024  0.8770
 6815TIP3   OH242003   5.619   4.939   1.025  0.0704  0.0206 -0.1223
 6815TIP3    H142004   5.690   4.999   1.046  0.0394  0.7361 -1.9163
 6815TIP3    H242005   5.660   4.869   0.975 -0.5225  0.6814 -1.5813
 6816TIP3   OH242006   1.988   2.470   7.778  0.4845  0.2538  0.1035
 6816TIP3    H142007   1.899   2.440   7.759  0.4570  0.3318  0.1096
 6816TIP3    H242008   1.977   2.535   7.847  0.7454 -1.3542  1.7495
 6817TIP3   OH242009   6.746   0.187   7.405  0.1285  0.2516 -0.2671
 6817TIP3    H142010   6.673   0.248   7.392  0.4326  0.2861 -2.0235
 6817TIP3    H242011   6.704   0.101   7.406 -0.4272  0.3914  3.1555
 6818TIP3   OH242012   5.830   4.391   6.080 -0.0793  0.2550 -0.5179
 6818TIP3    H142013   5.785   4.341   6.148 -2.0980  1.5837 -0.7729
 6818TIP3    H242014   5.901   4.335   6.051 -0.6697 -1.3459  0.9840
 6819TIP3   OH242015   0.181   0.526   8.527 -0.6868 -0.2240 -0.4837
 6819TIP3    H142016   0.251   0.511   8.462 -1.7690  1.0199 -2.0165
 6819TIP3    H242017   0.140   0.440   8.537 -0.9554 -0.3183 -2.0375
 6820TIP3   OH242018   0.516   1.977   7.971 -0.1531 -0.1779  0.5239
 6820TIP3    H142019   0.460   1.951   7.897 -0.9468  1.3898  0.5220
 6820TIP3    H242020   0.462   1.962   8.048  0.9634 -2.5904  0.9379
 6821TIP3   OH242021   6.266   3.108   7.298 -0.0016 -0.3030 -0.0560
 6821TIP3    H142022   6.360   3.095   7.307  0.0958  1.1660  1.7080
 6821TIP3    H242023   6.227   3.052   7.364 -0.0271  2.1043  2.1472
 6822TIP3   OH242024   4.387   4.311   1.248 -0.0989  0.1252  0.9705
 6822TIP3    H142025   4.374   4.400   1.214 -1.3805  0.6218  2.6107
 6822TIP3    H242026   4.477   4.311   1.282 -0.4499  1.2125  1.9961
 6823TIP3   OH242027   2.806   2.840   7.378  0.1427 -0.3996 -0.9935
 6823TIP3    H142028   2.787   2.753   7.412  0.0954  0.0516  0.1853
 6823TIP3    H242029   2.723   2.873   7.345 -0.0242 -0.4521 -0.6219
 6824TIP3   OH242030   1.329   0.174   1.221 -0.0994  0.2061 -0.1149
 6824TIP3    H142031   1.362   0.191   1.133 -0.1785 -1.2808 -0.4667
 6824TIP3    H242032   1.391   0.218   1.279 -0.2852  1.5714 -0.9023
 6825TIP3   OH242033   6.751   3.618   8.676  0.3054  0.0184  0.2887
 6825TIP3    H142034   6.796   3.702   8.668  0.0094  0.1076 -0.4930
 6825TIP3    H242035   6.662   3.635   8.646  0.0217 -0.3953  0.8762
 6826TIP3   OH242036   5.877   0.233   0.501  0.5448  0.4152 -0.1245
 6826TIP3    H142037   5.869   0.204   0.411 -2.8940 -0.0009  0.1702
 6826TIP3    H242038   5.893   0.153   0.551  0.2653  0.3236 -0.1790
 6827TIP3   OH242039   3.873   5.152   7.802 -0.6494 -0.3188 -0.1052
 6827TIP3    H142040   3.833   5.079   7.849 -0.4536 -0.6740 -0.4832
 6827TIP3    H242041   3.913   5.206   7.870  1.4782 -1.9372  0.0337
 6828TIP3   OH242042   0.323   5.227   6.642 -0.0597 -0.6199 -0.5411
 6828TIP3    H142043   0.237   5.269   6.647 -0.3960 -0.7346 -3.5186
 6828TIP3    H242044   0.318   5.171   6.565  2.2615 -1.7465  0.0389
 6829TIP3   OH242045   0.290   1.111   1.945 -0.1465 -0.4364  0.1643
 6829TIP3    H142046   0.238   1.165   1.885  0.8412  0.1954 -0.1518
 6829TIP3    H242047   0.236   1.105   2.024 -1.1610 -0.7084 -0.5298
 6830TIP3   OH242048   5.813   5.019   7.189  0.1060 -0.0290  0.1092
 6830TIP3    H142049   5.832   5.073   7.113 -1.5915  1.5103  0.7117
 6830TIP3    H242050   5.899   4.991   7.221  0.9583  1.2268 -0.9866
 6831TIP3   OH242051   1.558   3.546   2.044  0.3954 -0.5084 -0.0084
 6831TIP3    H142052   1.632   3.605   2.029 -0.4277  0.9536  1.3986
 6831TIP3    H242053   1.538   3.554   2.137 -1.7820 -0.5564 -0.4078
 6832TIP3   OH242054   5.709   3.947   0.805 -0.1247 -0.1739 -0.0878
 6832TIP3    H142055   5.797   3.914   0.788  0.7665  1.2815  1.3966
 6832TIP3    H242056   5.682   3.987   0.722 -0.5782 -2.9579 -1.4118
 6833TIP3   OH242057   4.367   5.609   1.834 -0.4682  0.0670 -0.3442
 6833TIP3    H142058   4.443   5.661   1.861 -0.1901 -0.3474 -0.3149
 6833TIP3    H242059   4.300   5.629   1.899  0.6674 -2.0970  1.6851
 6834TIP3   OH242060   2.349   5.798   6.590  0.4800 -0.4398 -0.3837
 6834TIP3    H142061   2.315   5.752   6.514  2.6230 -0.9622 -1.0926
 6834TIP3    H242062   2.445   5.794   6.580  0.8306 -0.2857  2.1776
 6835TIP3   OH242063   4.673   5.476   6.847 -0.2404 -0.4495 -0.4095
 6835TIP3    H142064   4.668   5.549   6.909 -1.0168 -0.8550  0.0252
 6835TIP3    H242065   4.672   5.398   6.902 -2.3917 -0.8637 -0.9362
 6836TIP3   OH242066   3.862   4.815   2.028  0.3134 -0.5085  0.0338
 6836TIP3    H142067   3.845   4.902   2.063 -0.7409 -1.2798  1.5214
 6836TIP3    H242068   3.903   4.831   1.943 -0.9440  1.4549 -0.2705
 6837TIP3   OH242069   6.338   1.955   0.569 -0.4488  0.0227  0.8078
 6837TIP3    H142070   6.301   2.039   0.596 -0.8988 -0.4550  1.7288
 6837TIP3    H242071   6.273   1.919   0.508 -0.6025  0.0201  0.9728
 6838TIP3   OH242072   1.776   6.064   1.381 -0.1098 -0.4312 -0.8391
 6838TIP3    H142073   1.844   6.031   1.440  1.2916  0.5655 -1.8239
 6838TIP3    H242074   1.799   6.028   1.295 -0.7798 -0.0122 -1.2047
 6839TIP3   OH242075   1.279   4.326   7.278  0.1084  0.1069 -0.1671
 6839TIP3    H142076   1.351   4.360   7.332 -0.3160  0.0041  0.4784
 6839TIP3    H242077   1.203   4.326   7.336 -0.3658 -0.0030 -0.7734
 6840TIP3   OH242078   6.579   5.071   8.321 -0.2161 -0.1730  0.2635
 6840TIP3    H142079   6.484   5.063   8.335 -0.0968 -2.2308  0.1001
 6840TIP3    H242080   6.590   5.059   8.227  0.2530 -0.3632  0.3434
 6841TIP3   OH242081   5.689   5.571   1.456 -0.5061 -0.3776  0.0316
 6841TIP3    H142082   5.767   5.555   1.509 -0.3432  0.1790 -0.0375
 6841TIP3    H242083   5.631   5.622   1.513  0.2420  1.4447 -0.7729
 6842TIP3   OH242084   6.759   1.317   6.421  0.1802 -0.2435 -0.3330
 6842TIP3    H142085   6.751   1.405   6.459 -0.7740 -0.5674  0.2679
 6842TIP3    H242086   6.676   1.274   6.443  0.3557 -1.0695 -1.2101
 6843TIP3   OH242087   6.095   1.781   8.371 -0.3441  0.3640  0.0185
 6843TIP3    H142088   6.150   1.831   8.312  2.6377 -1.1728  1.2702
 6843TIP3    H242089   6.108   1.822   8.457  1.4669 -1.8403  0.9028
 6844TIP3   OH242090   5.762   3.488   0.776 -0.6671  0.4204  0.3400
 6844TIP3    H142091   5.750   3.394   0.787  0.4353  0.1923 -0.2101
 6844TIP3    H242092   5.693   3.514   0.714 -1.3076  0.0851  0.9027
 6845TIP3   OH242093   4.483   2.816   0.940 -0.5944 -0.5798 -0.0793
 6845TIP3    H142094   4.539   2.821   0.862 -1.5937  0.5468 -0.7699
 6845TIP3    H242095   4.538   2.778   1.007  0.2365 -1.8367 -1.4071
 6846TIP3   OH242096   5.780   6.554   7.819 -0.6577 -0.2958  0.8330
 6846TIP3    H142097   5.738   6.606   7.750  0.1715  0.6098  0.9921
 6846TIP3    H242098   5.827   6.485   7.772  0.7442  0.9087  0.3746
 6847TIP3   OH242099   4.798   1.441   7.327  0.1000 -0.0094  0.2406
 6847TIP3    H142100   4.754   1.443   7.411  0.2864  0.8300  0.3261
 6847TIP3    H242101   4.760   1.514   7.278 -0.5913 -0.9664 -0.7111
 6848TIP3   OH242102   4.798   3.196   6.999 -0.2396 -0.1105  0.4422
 6848TIP3    H142103   4.716   3.187   7.047 -0.0595 -1.6355  0.5077
 6848TIP3    H242104   4.837   3.276   7.034 -0.9336 -0.2343  1.5615
 6849TIP3   OH242105   0.171   1.929   0.498 -0.0689  0.2573 -0.4004
 6849TIP3    H142106   0.235   1.858   0.502 -2.2229 -1.8507 -0.5718
 6849TIP3    H242107   0.160   1.947   0.405 -0.9835 -0.7068 -0.5084
 6850TIP3   OH242108   1.914   0.993   2.215 -0.1016 -0.2098 -0.0921
 6850TIP3    H142109   2.004   1.025   2.206 -0.4629  1.9458  2.5629
 6850TIP3    H242110   1.906   0.970   2.308 -1.9833 -1.5009 -0.5069
 6851TIP3   OH242111   5.111   2.885   6.275  0.0037 -0.6382  0.1517
 6851TIP3    H142112   5.183   2.935   6.314 -0.0760 -1.5505  1.5335
 6851TIP3    H242113   5.124   2.894   6.180  2.8054 -1.9487  0.3134
 6852TIP3   OH242114   1.697   0.333   0.815 -0.5649 -0.0008 -0.2262
 6852TIP3    H142115   1.677   0.242   0.834 -0.1651 -0.1872 -0.6918
 6852TIP3    H242116   1.792   0.336   0.805 -0.6678  0.2702 -1.2387
 6853TIP3   OH242117   6.604   1.662   7.314  0.4345 -0.1126  0.3173
 6853TIP3    H142118   6.678   1.712   7.347  1.3166 -0.6347 -0.8016
 6853TIP3    H242119   6.528   1.703   7.355  1.3054  0.6014  1.2869
 6854TIP3   OH242120   6.154   2.860   0.403  0.1354 -0.3654 -0.2305
 6854TIP3    H142121   6.119   2.869   0.314 -1.4365 -0.3882  0.3452
 6854TIP3    H242122   6.141   2.768   0.424 -1.5798  0.0542  0.7850
 6855TIP3   OH242123   1.580   4.904   2.348 -0.2609 -0.1262  0.1396
 6855TIP3    H142124   1.543   4.903   2.437  0.0238 -0.4367  0.2546
 6855TIP3    H242125   1.538   4.979   2.306 -2.6449 -1.6334 -0.4046
 6856TIP3   OH242126   6.321   4.884   7.339  0.5631 -0.2280 -0.0954
 6856TIP3    H142127   6.316   4.797   7.379  1.6477 -0.7546 -1.0620
 6856TIP3    H242128   6.325   4.945   7.413 -0.4873 -0.9565  0.5961
 6857TIP3   OH242129   0.615   1.437   2.270  0.8813 -0.0573 -0.0980
 6857TIP3    H142130   0.563   1.375   2.220  2.1682 -0.6280 -0.7744
 6857TIP3    H242131   0.636   1.391   2.352 -1.1317  0.8359  0.9976
 6858TIP3   OH242132   5.000   6.021   0.745  0.2386  0.3709 -0.7293
 6858TIP3    H142133   5.010   6.044   0.837  1.9115  3.2597 -1.5055
 6858TIP3    H242134   4.906   6.003   0.734 -0.2298  1.3813  1.2460
 6859TIP3   OH242135   6.526   0.938   2.521  0.6962 -0.1817 -0.1977
 6859TIP3    H142136   6.442   0.971   2.487  0.6876  0.1775  0.1691
 6859TIP3    H242137   6.542   0.858   2.471  0.4298  0.0680 -0.6904
 6860TIP3   OH242138   0.062   2.428   6.683 -0.0044  0.0118  0.8175
 6860TIP3    H142139   0.125   2.410   6.614 -0.8810  1.6160 -0.4953
 6860TIP3    H242140   0.067   2.353   6.742  3.6136  0.3984  1.2121
 6861TIP3   OH242141   1.836   3.140   0.504 -0.2977  0.3833  0.2920
 6861TIP3    H142142   1.790   3.152   0.421 -0.7274 -0.5857  0.3747
 6861TIP3    H242143   1.861   3.228   0.530  0.6019  0.6385 -1.2907
 6862TIP3   OH242144   6.750   5.114   0.972 -0.4869 -0.3396 -0.4373
 6862TIP3    H142145   6.746   5.209   0.981 -2.0207 -0.4989  0.8673
 6862TIP3    H242146   6.743   5.099   0.878 -1.8982  0.7893 -0.5371
 6863TIP3   OH242147   4.859   5.091   6.904 -0.4533  0.4757 -0.1791
 6863TIP3    H142148   4.885   5.175   6.942  1.3234 -0.3211  0.5114
 6863TIP3    H242149   4.927   5.030   6.934 -0.7366 -0.8480 -2.0656
 6864TIP3   OH242150   1.661   5.544   0.609 -0.4190  0.5458  0.8634
 6864TIP3    H142151   1.578   5.550   0.563 -0.4462  0.4343  0.8969
 6864TIP3    H242152   1.726   5.577   0.547 -0.5244  0.9032  0.9407
 6865TIP3   OH242153   3.702   2.615   6.359 -0.5004 -0.3748 -0.1800
 6865TIP3    H142154   3.626   2.567   6.326  0.5898 -1.3059 -1.4685
 6865TIP3    H242155   3.715   2.582   6.448 -0.8079 -1.2131 -0.4363
 6866TIP3   OH242156   4.269   6.630   6.397  0.1623 -1.0294  0.5337
 6866TIP3    H142157   4.227   6.606   6.314 -0.3221  0.7775  0.2290
 6866TIP3    H242158   4.353   6.668   6.370 -0.7428  1.2130  0.7042
 6867TIP3   OH242159   0.977   4.697   1.713  0.3354 -0.0169 -0.0775
 6867TIP3    H142160   0.955   4.621   1.660 -0.9551  0.1416  0.2022
 6867TIP3    H242161   0.911   4.698   1.783 -1.2343  2.7122 -1.4357
 6868TIP3   OH242162   2.288   6.703   1.135  0.1138 -0.6668  0.6944
 6868TIP3    H142163   2.323   6.655   1.059  1.5868 -0.0942  0.9688
 6868TIP3    H242164   2.202   6.733   1.107  0.6674 -0.3706 -0.8205
 6869TIP3   OH242165   4.932   0.918   0.217  1.0208 -0.2338  0.3801
 6869TIP3    H142166   4.988   0.847   0.186  0.4281 -0.4125 -0.3266
 6869TIP3    H242167   4.974   0.998   0.186  0.1796 -0.4325 -1.3821
 6870TIP3   OH242168   0.273   4.207   7.849 -0.3734 -0.0832  0.4180
 6870TIP3    H142169   0.308   4.295   7.862  2.1664 -0.9382 -0.0348
 6870TIP3    H242170   0.275   4.168   7.937  0.9317 -0.4577  0.2536
 6871TIP3   OH242171   3.688   6.118   7.542 -0.0322 -0.2421 -0.4816
 6871TIP3    H142172   3.593   6.117   7.528 -0.4119  0.3298  1.6442
 6871TIP3    H242173   3.719   6.195   7.494 -1.0347  0.9481  0.7023
 6872TIP3   OH242174   0.114   5.814   0.601  0.2364  0.0410  0.4261
 6872TIP3    H142175   0.210   5.807   0.600  0.2720  0.5399  0.2431
 6872TIP3    H242176   0.084   5.723   0.600  0.7012 -0.1274 -0.9885
 6873TIP3   OH242177   3.833   5.615   1.103  0.2227  0.3351  0.4030
 6873TIP3    H142178   3.779   5.554   1.154  1.8363 -0.3412  1.4133
 6873TIP3    H242179   3.904   5.560   1.069 -0.7537  0.7799 -2.6024
 6874TIP3   OH242180   5.655   3.889   1.053  0.6802  0.2459  0.7992
 6874TIP3    H142181   5.619   3.800   1.057  0.8342  0.2352  2.2288
 6874TIP3    H242182   5.656   3.909   0.959  2.5802 -2.0561  0.2024
 6875TIP3   OH242183   2.673   4.034   1.343 -0.5731  0.3572 -0.4894
 6875TIP3    H142184   2.755   3.988   1.361 -0.4746  0.9706  0.7339
 6875TIP3    H242185   2.690   4.124   1.372 -1.3600  0.7304 -1.1568
 6876TIP3   OH242186   1.242   1.601   2.836  0.4268  0.2867 -0.4617
 6876TIP3    H142187   1.235   1.524   2.892  1.2416 -0.4292 -1.2981
 6876TIP3    H242188   1.336   1.608   2.816  0.2100  0.7241 -1.4206
 6877TIP3   OH242189   5.771   4.389   8.773 -0.0440  0.4561 -0.0600
 6877TIP3    H142190   5.772   4.296   8.792 -1.8511  0.4653  0.2757
 6877TIP3    H242191   5.860   4.419   8.791  0.0118 -0.8014  1.9926
 6878TIP3   OH242192   0.541   5.070   8.764 -0.1379 -0.8758  0.5776
 6878TIP3    H142193   0.535   5.018   8.684  0.8872 -0.0190 -0.0900
 6878TIP3    H242194   0.456   5.059   8.807  0.1289 -3.3208  0.6347
 6879TIP3   OH242195   1.007   6.086   2.072 -0.7054  0.1549  0.2246
 6879TIP3    H142196   0.980   6.007   2.119 -0.2104 -0.7246 -0.9154
 6879TIP3    H242197   0.954   6.156   2.111 -1.0802 -0.7082  1.3352
 6880TIP3   OH242198   5.682   1.998   8.747 -0.1480  0.0531 -0.0004
 6880TIP3    H142199   5.625   2.070   8.719  0.4517  0.9323  0.9470
 6880TIP3    H242200   5.634   1.956   8.818  0.3057  0.7322  0.7311
 6881TIP3   OH242201   5.670   4.420   1.182  0.4804  0.1345  0.4551
 6881TIP3    H142202   5.633   4.332   1.182  2.0422 -0.7184 -2.9182
 6881TIP3    H242203   5.597   4.477   1.158  0.0365 -0.6550 -0.1167
 6882TIP3   OH242204   5.887   2.140   7.220  0.3687  0.6617 -0.2667
 6882TIP3    H142205   5.818   2.200   7.192 -1.0378 -1.1328 -0.8251
 6882TIP3    H242206   5.966   2.194   7.225 -0.6437  2.3399 -1.6139
 6883TIP3   OH242207   4.055   2.034   1.811  0.1770 -0.3585  0.1970
 6883TIP3    H142208   4.003   2.112   1.830 -0.1571 -0.5495  0.0546
 6883TIP3    H242209   4.069   2.038   1.716  0.7133 -0.1244  0.2804
 6884TIP3   OH242210   3.392   1.722   7.061 -0.5100  0.6211 -0.3827
 6884TIP3    H142211   3.409   1.816   7.062  1.8153  0.2777  0.5992
 6884TIP3    H242212   3.424   1.691   7.146  0.0463 -1.2117 -1.1946
 6885TIP3   OH242213   2.118   2.541   0.793  0.0501 -0.2340 -0.3893
 6885TIP3    H142214   2.099   2.525   0.885  0.7487  1.5062  0.0920
 6885TIP3    H242215   2.120   2.636   0.784  1.8094 -0.3343 -1.7930
 6886TIP3   OH242216   4.110   1.003   8.245 -0.5446  0.7140  0.2513
 6886TIP3    H142217   4.059   1.056   8.183 -0.9037  0.2966  0.1917
 6886TIP3    H242218   4.080   1.032   8.331  0.9151  2.2712  0.2922
 6887TIP3   OH242219   3.443   5.985   1.592 -0.2159 -0.6679  0.0445
 6887TIP3    H142220   3.498   5.998   1.515  1.8521  0.0753  1.5452
 6887TIP3    H242221   3.358   6.021   1.567  1.1061  1.9517 -1.0836
 6888TIP3   OH242222   4.133   4.702   0.959  0.1853  0.0772 -0.1375
 6888TIP3    H142223   4.048   4.686   0.999 -0.0579 -1.6205 -1.2525
 6888TIP3    H242224   4.170   4.615   0.944  1.1569  0.7069 -1.6601
 6889TIP3   OH242225   5.155   5.347   1.933 -0.4281  0.1477 -0.5309
 6889TIP3    H142226   5.152   5.411   1.862  1.6868  3.1582  1.8210
 6889TIP3    H242227   5.066   5.346   1.968 -0.9796  0.2304 -1.8810
 6890TIP3   OH242228   1.006   5.813   7.808  0.0900 -0.1487 -0.0391
 6890TIP3    H142229   0.942   5.746   7.833  0.2195 -0.0496  0.5920
 6890TIP3    H242230   1.017   5.866   7.887  2.5664 -1.4624  0.6250
 6891TIP3   OH242231   4.522   1.321   0.433  0.3390 -0.2502  0.1704
 6891TIP3    H142232   4.566   1.400   0.463 -0.4404  0.2587 -0.0269
 6891TIP3    H242233   4.528   1.325   0.337 -0.7239  0.1676  0.1097
 6892TIP3   OH242234   6.499   0.735   2.343  0.0649  0.8835  0.3502
 6892TIP3    H142235   6.454   0.795   2.284 -0.9586 -0.2217 -0.0358
 6892TIP3    H242236   6.547   0.675   2.285  2.2376  2.1142  0.7480
 6893TIP3   OH242237   0.090   0.766   7.964 -0.4883 -0.8228 -0.4860
 6893TIP3    H142238   0.001   0.735   7.947 -0.4926 -1.6767  0.9749
 6893TIP3    H242239   0.085   0.809   8.049  0.5722 -1.2513 -0.1907
 6894TIP3   OH242240   4.359   5.133   6.270 -0.0734 -0.5800  0.4958
 6894TIP3    H142241   4.303   5.092   6.336  0.4012 -1.4812  0.3474
 6894TIP3    H242242   4.408   5.061   6.232  0.2167  0.0328 -0.3142
 6895TIP3   OH242243   2.459   6.444   7.555  0.7639 -0.4567  0.2359
 6895TIP3    H142244   2.382   6.388   7.548 -0.2808  0.7226  1.4780
 6895TIP3    H242245   2.423   6.531   7.573  2.3670  0.3455 -0.2334
 6896TIP3   OH242246   3.517   0.127   2.723  0.2037 -0.1208  0.4922
 6896TIP3    H142247   3.567   0.197   2.680 -0.4494 -0.7443 -1.3893
 6896TIP3    H242248   3.526   0.052   2.665 -0.7078 -1.0398  1.4910
 6897TIP3   OH242249   4.491   3.844   1.287 -1.1486  0.5227  0.2693
 6897TIP3    H142250   4.445   3.846   1.371 -1.5993  1.1450  0.0186
 6897TIP3    H242251   4.469   3.758   1.250 -0.7970  0.1716  0.8628
 6898TIP3   OH242252   3.332   3.223   7.999 -0.0967 -0.6646  0.1782
 6898TIP3    H142253   3.305   3.276   8.074  1.8740 -1.1460  1.2937
 6898TIP3    H242254   3.267   3.152   7.996 -0.7225 -0.1375  0.8424
 6899TIP3   OH242255   1.386   1.540   8.324  0.2804  0.1418  0.3151
 6899TIP3    H142256   1.476   1.554   8.296  0.1166 -0.4080 -0.5304
 6899TIP3    H242257   1.379   1.445   8.333  0.0344  0.2387  1.2624
 6900TIP3   OH242258   4.999   3.902   0.728  0.5414  0.3903 -0.5013
 6900TIP3    H142259   4.977   3.982   0.679  0.7260  0.7248 -0.0429
 6900TIP3    H242260   4.919   3.849   0.724  0.2624  0.7994 -0.4128
 6901TIP3   OH242261   1.849   3.160   8.606  0.5588  0.6059 -0.1974
 6901TIP3    H142262   1.863   3.234   8.547  0.6599  1.4124  0.8274
 6901TIP3    H242263   1.918   3.167   8.672  1.0493 -0.8560 -0.5142
 6902TIP3   OH242264   1.461   3.685   7.470  0.0966  0.1326 -0.2415
 6902TIP3    H142265   1.493   3.707   7.557  0.6080 -0.0982 -0.3679
 6902TIP3    H242266   1.379   3.733   7.462  0.9918  1.6829 -0.3842
 6903TIP3   OH242267   5.232   2.534   0.766 -0.3743  0.0205  0.2048
 6903TIP3    H142268   5.320   2.501   0.745  0.3502  0.8281  1.7786
 6903TIP3    H242269   5.228   2.620   0.724 -0.3042  0.1040  0.3692
 6904TIP3   OH242270   6.134   0.851   0.405  0.4700 -0.6407 -0.3582
 6904TIP3    H142271   6.188   0.780   0.440  0.5377 -0.4127 -0.0064
 6904TIP3    H242272   6.094   0.892   0.482 -1.0895 -1.5016 -0.6505
 6905TIP3   OH242273   0.159   6.086   8.774  0.4917  0.4735 -0.0661
 6905TIP3    H142274   0.243   6.082   8.820  0.6253 -1.9755 -0.4261
 6905TIP3    H242275   0.097   6.119   8.839  0.7518 -2.5009  1.8744
 6906TIP3   OH242276   0.204   2.021   8.730  0.2200  0.5183 -0.2399
 6906TIP3    H142277   0.173   1.942   8.773 -0.4101  0.1964 -1.2420
 6906TIP3    H242278   0.296   2.003   8.709  0.1096  0.0991 -0.3589
 6907TIP3   OH242279   6.523   0.489   1.100  0.2580 -0.6131  0.6815
 6907TIP3    H142280   6.487   0.570   1.063 -0.6229 -1.8701 -1.4393
 6907TIP3    H242281   6.451   0.426   1.095  1.3501 -1.9331  0.8453
 6908TIP3   OH242282   6.234   1.390   0.967 -0.2338  0.0753  0.5096
 6908TIP3    H142283   6.303   1.434   1.015  1.2358 -0.7252 -0.7615
 6908TIP3    H242284   6.231   1.302   1.004  0.1759 -0.2126 -0.1158
 6909TIP3   OH242285   5.029   3.332   0.598 -0.0782  0.1741  0.0899
 6909TIP3    H142286   5.101   3.394   0.612  0.3808  0.1151 -1.7393
 6909TIP3    H242287   5.042   3.300   0.509 -2.3415  0.0921 -0.2628
 6910TIP3   OH242288   0.181   1.868   1.447  0.1613  0.7551 -0.4127
 6910TIP3    H142289   0.086   1.879   1.450  0.0390 -0.3493  1.0212
 6910TIP3    H242290   0.208   1.916   1.369 -1.3093  3.0169  0.3529
 6911TIP3   OH242291   1.207   2.332   7.429  0.2805 -0.6040  0.3697
 6911TIP3    H142292   1.182   2.303   7.517 -2.2093  2.7237  0.9329
 6911TIP3    H242293   1.128   2.318   7.376  0.8228  0.0086 -0.6326
 6912TIP3   OH242294   2.923   0.858   0.182 -0.8168  0.5863  0.0415
 6912TIP3    H142295   2.829   0.838   0.176 -1.0807  1.7452  0.1483
 6912TIP3    H242296   2.934   0.894   0.270  0.0499 -1.0649  0.6491
 6913TIP3   OH242297   0.513   1.234   7.255 -0.8290 -0.2538 -0.1455
 6913TIP3    H142298   0.479   1.323   7.261 -2.7065 -0.7309 -2.2559
 6913TIP3    H242299   0.492   1.195   7.340 -2.4193  0.5553 -0.1273
 6914TIP3   OH242300   2.089   0.114   0.391  0.2704  0.2085  0.5020
 6914TIP3    H142301   2.010   0.165   0.408  0.5843  0.5113  1.1090
 6914TIP3    H242302   2.092   0.049   0.462 -0.6856 -1.3808 -0.8458
 6915TIP3   OH242303   1.827   0.850   1.990  0.3179  0.5745  0.7392
 6915TIP3    H142304   1.916   0.823   1.967  0.8471  1.3631  1.8009
 6915TIP3    H242305   1.838   0.910   2.063 -0.6107  4.9866 -2.3413
 6916TIP3   OH242306   2.404   4.621   8.198  0.5803  0.2410  0.3025
 6916TIP3    H142307   2.377   4.676   8.124 -0.0386 -1.0569 -0.4803
 6916TIP3    H242308   2.325   4.613   8.251  0.1928 -1.1530 -0.4324
 6917TIP3   OH242309   4.842   0.886   1.296  0.2707 -0.3296 -0.1028
 6917TIP3    H142310   4.779   0.939   1.248 -2.1706 -4.1696 -1.6085
 6917TIP3    H242311   4.907   0.861   1.230  0.8064 -0.0928  0.3268
 6918TIP3   OH242312   5.414   6.516   0.862 -0.4844 -0.1301  0.1772
 6918TIP3    H142313   5.410   6.557   0.948 -0.5868  2.5057 -0.9918
 6918TIP3    H242314   5.495   6.465   0.864  1.3052  2.5063  0.8414
 6919TIP3   OH242315   2.170   2.833   7.972  0.0217  0.0121 -0.2859
 6919TIP3    H142316   2.260   2.808   7.992 -0.1092 -0.0024  0.2980
 6919TIP3    H242317   2.171   2.854   7.878  0.2261 -1.7479 -0.6983
 6920TIP3   OH242318   1.295   2.888   7.055 -0.0780 -0.1854  0.4150
 6920TIP3    H142319   1.327   2.976   7.035 -1.4127  0.3581  0.5483
 6920TIP3    H242320   1.360   2.829   7.017 -0.3254  0.8414 -1.7565
 6921TIP3   OH242321   6.265   4.883   7.886  0.1165 -0.3558 -0.7991
 6921TIP3    H142322   6.172   4.899   7.871  0.5032  1.7025 -1.3725
 6921TIP3    H242323   6.304   4.971   7.886  1.8406 -1.0571  1.0145
 6922TIP3   OH242324   6.269   6.246   8.694 -0.5548  0.0666  0.4878
 6922TIP3    H142325   6.185   6.277   8.729 -0.3306 -0.0567  1.1417
 6922TIP3    H242326   6.250   6.159   8.658 -0.1391 -1.2276  3.1844
 6923TIP3   OH242327   2.461   0.079   7.203 -0.1390  0.2943 -0.0616
 6923TIP3    H142328   2.375   0.045   7.229  0.1723 -2.1113 -1.7978
 6923TIP3    H242329   2.472   0.048   7.113  0.9391  3.8419 -1.3305
 6924TIP3   OH242330   4.896   1.608   8.844 -0.4761  0.3798 -0.4741
 6924TIP3    H142331   4.925   1.657   8.768 -0.2347 -0.3507 -0.8568
 6924TIP3    H242332   4.932   1.656   8.919 -0.2416  0.7795 -0.8422
 6925TIP3   OH242333   1.291   1.203   0.274  0.0933  0.1490 -0.7097
 6925TIP3    H142334   1.311   1.204   0.367 -0.2140  0.8845 -0.6434
 6925TIP3    H242335   1.260   1.114   0.257 -0.6357  0.2447  0.0628
 6926TIP3   OH242336   4.022   2.639   2.252  0.3768 -0.2940  0.0576
 6926TIP3    H142337   4.061   2.725   2.265  0.2709 -0.1682 -0.4194
 6926TIP3    H242338   3.932   2.658   2.227  0.4902 -0.5213 -0.5436
 6927TIP3   OH242339   2.319   1.206   7.714  0.5587  0.2110  0.2409
 6927TIP3    H142340   2.236   1.178   7.752  0.8066 -0.0817  0.5654
 6927TIP3    H242341   2.330   1.149   7.638 -0.1307  1.0554 -0.5335
 6928TIP3   OH242342   0.454   5.699   1.122  0.2118  0.3555 -0.2101
 6928TIP3    H142343   0.538   5.685   1.079 -0.0501  1.2841 -1.0644
 6928TIP3    H242344   0.403   5.750   1.059 -0.8465  0.1634  0.4597
 6929TIP3   OH242345   3.222   2.145   8.235  0.0680 -0.0474  0.3919
 6929TIP3    H142346   3.174   2.073   8.195 -0.7664  0.6718  0.0685
 6929TIP3    H242347   3.166   2.222   8.222  0.0231  0.3172  2.4566
 6930TIP3   OH242348   6.206   6.560   0.880 -0.4187 -0.0692 -0.1794
 6930TIP3    H142349   6.198   6.504   0.958 -0.8380 -1.0783 -0.9231
 6930TIP3    H242350   6.267   6.513   0.823 -1.1975 -0.0551 -1.0487
 6931TIP3   OH242351   3.208   3.708   7.499 -0.0036  0.3517 -0.0121
 6931TIP3    H142352   3.175   3.683   7.585 -3.3945  1.0341 -0.9719
 6931TIP3    H242353   3.209   3.804   7.500  0.5790  0.3586 -0.5161
 6932TIP3   OH242354   4.116   1.599   7.298 -0.0675 -0.4508  0.0053
 6932TIP3    H142355   4.145   1.610   7.207  0.1502 -0.7952  0.0318
 6932TIP3    H242356   4.172   1.658   7.349 -0.1859 -0.2620 -0.0841
 6933TIP3   OH242357   3.348   2.821   6.361  0.0818 -0.4536  0.3165
 6933TIP3    H142358   3.405   2.750   6.332  1.7598  1.3858 -1.2081
 6933TIP3    H242359   3.259   2.786   6.351  0.8537 -2.5841  0.4301
 6934TIP3   OH242360   5.795   1.642   6.995 -0.1807  0.2605  0.9281
 6934TIP3    H142361   5.712   1.629   7.040  1.1668 -2.3505  2.9422
 6934TIP3    H242362   5.776   1.623   6.904 -1.7394 -0.5713  1.3823
 6935TIP3   OH242363   6.636   1.206   0.758 -0.0189  0.0421  0.7219
 6935TIP3    H142364   6.600   1.232   0.673  0.4756 -0.5352  0.3221
 6935TIP3    H242365   6.643   1.110   0.752  0.1348  0.0118  1.3654
 6936TIP3   OH242366   4.873   5.175   1.815  0.0713  0.0548  0.0871
 6936TIP3    H142367   4.899   5.266   1.808  0.6639 -0.0240  1.1826
 6936TIP3    H242368   4.841   5.153   1.727  1.7355  0.7503 -0.7395
 6937TIP3   OH242369   1.265   3.283   0.283 -0.4754  0.2460  0.1126
 6937TIP3    H142370   1.261   3.225   0.207  0.3148  1.0043 -0.5347
 6937TIP3    H242371   1.356   3.310   0.288 -0.5465  0.2946  1.2762
 6938TIP3   OH242372   2.909   4.589   8.187 -0.0100  0.4106  0.0105
 6938TIP3    H142373   2.965   4.512   8.188 -0.5413  0.0127 -0.1408
 6938TIP3    H242374   2.965   4.660   8.216  0.8280  0.1954 -0.9954
 6939TIP3   OH242375   0.404   5.710   2.867 -0.2343  0.3716 -0.5506
 6939TIP3    H142376   0.382   5.714   2.774 -2.2366  1.7440 -0.0964
 6939TIP3    H242377   0.499   5.721   2.870 -0.3544  2.8119 -2.3635
 6940TIP3   OH242378   4.555   3.210   1.528 -0.0133  0.4494  0.0723
 6940TIP3    H142379   4.640   3.243   1.559  0.2123  1.3525 -1.4430
 6940TIP3    H242380   4.514   3.175   1.607  1.4475  0.6766  0.9847
 6941TIP3   OH242381   1.920   2.900   7.649  0.3424  0.3547  0.3164
 6941TIP3    H142382   2.008   2.918   7.680  0.9293  1.1772 -1.6853
 6941TIP3    H242383   1.930   2.880   7.556 -1.4089 -1.1812  0.3767
 6942TIP3   OH242384   5.095   3.071   1.913 -0.6217  0.0622  0.5914
 6942TIP3    H142385   5.003   3.053   1.935  0.0197 -1.2856  2.3489
 6942TIP3    H242386   5.140   2.989   1.931  0.9046  0.6112 -0.5589
 6943TIP3   OH242387   3.431   5.733   8.521  0.2471 -0.2700 -0.4011
 6943TIP3    H142388   3.473   5.791   8.585 -0.4675  0.9471 -1.0045
 6943TIP3    H242389   3.421   5.787   8.443 -0.3993 -1.2277 -0.9957
 6944TIP3   OH242390   2.319   4.259   7.285  0.9144 -0.5239 -0.1615
 6944TIP3    H142391   2.352   4.337   7.241 -0.1643 -1.2899 -2.5170
 6944TIP3    H242392   2.372   4.187   7.250  0.9358 -1.0230  0.8620
 6945TIP3   OH242393   5.917   2.038   2.094  0.1497  0.3603 -0.3509
 6945TIP3    H142394   5.891   2.074   2.179 -0.5037 -0.8307 -0.0268
 6945TIP3    H242395   5.914   2.113   2.034 -0.5504  0.9702  0.4233
 6946TIP3   OH242396   3.929   1.032   1.270  0.0414 -0.2713  0.5430
 6946TIP3    H142397   3.895   1.003   1.354 -0.0142 -1.4678  0.1215
 6946TIP3    H242398   3.851   1.044   1.215  0.1946 -2.0835 -0.1289
 6947TIP3   OH242399   2.865   6.389   0.034  0.2713 -0.1263  0.1777
 6947TIP3    H142400   2.769   6.397   0.036  0.3439  1.5819 -0.6990
 6947TIP3    H242401   2.889   6.360   0.122 -0.9243  1.5781  1.1207
 6948TIP3   OH242402   2.894   4.932   1.248 -0.3691 -0.6391 -0.2342
 6948TIP3    H142403   2.927   4.983   1.322  0.0741  0.1849 -0.9928
 6948TIP3    H242404   2.807   4.903   1.277 -0.9090  1.0706 -0.0222
 6949TIP3   OH242405   2.871   0.299   0.482  0.2372  0.0343 -0.6348
 6949TIP3    H142406   2.932   0.372   0.491 -1.1360  1.2285 -0.5810
 6949TIP3    H242407   2.868   0.258   0.568  0.9572 -0.0316 -0.6413
 6950TIP3   OH242408   0.697   5.385   7.406 -0.2147 -0.4895  0.0001
 6950TIP3    H142409   0.678   5.312   7.464 -0.9993 -1.5065 -1.4551
 6950TIP3    H242410   0.748   5.446   7.459  1.2965 -2.5067  1.0270
 6951TIP3   OH242411   4.427   5.702   2.396  0.6292 -0.1725  0.3220
 6951TIP3    H142412   4.478   5.691   2.315  0.0710 -0.5536  0.0145
 6951TIP3    H242413   4.399   5.794   2.394  2.2858  0.3740  1.0905
 6952TIP3   OH242414   3.907   5.623   7.195 -0.4914  0.2370 -0.3269
 6952TIP3    H142415   3.850   5.564   7.244  1.9808 -1.3656  0.8236
 6952TIP3    H242416   3.932   5.574   7.117 -0.7603  0.9980 -0.9148
 6953TIP3   OH242417   2.214   5.844   8.816  0.6666 -0.4536  0.2486
 6953TIP3    H142418   2.219   5.801   8.731 -0.6354  0.6590 -0.4272
 6953TIP3    H242419   2.258   5.784   8.876  1.0542 -1.5527 -1.0891
 6954TIP3   OH242420   0.915   4.849   7.949  0.0897 -0.6747  0.3808
 6954TIP3    H142421   0.931   4.911   8.020 -0.7650 -0.4621  0.4090
 6954TIP3    H242422   0.997   4.801   7.939  1.4013  1.6058 -0.7847
 6955TIP3   OH242423   2.923   1.778   7.531 -0.3693 -0.0886  0.5092
 6955TIP3    H142424   2.830   1.794   7.550 -0.7985 -3.0757  1.3983
 6955TIP3    H242425   2.922   1.705   7.469  1.4142 -0.3185  0.7173
 6956TIP3   OH242426   1.482   3.787   0.062 -0.2977  0.7453 -0.2015
 6956TIP3    H142427   1.392   3.799   0.031 -0.5841  1.6664  0.9131
 6956TIP3    H242428   1.533   3.773  -0.017 -1.3024  1.0025 -0.9137
 6957TIP3   OH242429   3.838   3.114   7.434  0.4698  0.2726  0.1342
 6957TIP3    H142430   3.763   3.157   7.477  0.8154  0.9968  0.0375
 6957TIP3    H242431   3.912   3.171   7.455  0.9162 -0.2043 -0.1420
 6958TIP3   OH242432   5.221   3.235   0.097 -0.2074 -0.3595 -0.0727
 6958TIP3    H142433   5.311   3.205   0.110 -0.2056  0.7036  2.9827
 6958TIP3    H242434   5.177   3.161   0.054  2.1920 -0.6517 -2.3251
 6959TIP3   OH242435   2.190   2.086   1.364 -0.5007  0.1299 -0.4214
 6959TIP3    H142436   2.280   2.101   1.336 -1.5852  0.8074 -4.2070
 6959TIP3    H242437   2.185   1.993   1.384  1.3606  0.3983  1.6362
 6960TIP3   OH242438   2.864   0.267   6.408  0.5104 -0.2903  0.1547
 6960TIP3    H142439   2.869   0.351   6.363  1.3136  0.0070  0.7900
 6960TIP3    H242440   2.867   0.202   6.338  0.9584  0.1872 -0.2728
 6961TIP3   OH242441   4.896   5.467   1.856 -0.4461 -0.2568 -0.0805
 6961TIP3    H142442   4.896   5.496   1.765  2.3972  0.2466 -0.0196
 6961TIP3    H242443   4.873   5.545   1.906 -1.3740 -0.3707 -0.3112
 6962TIP3   OH242444   6.065   0.108   2.253 -0.0907 -0.1699  0.4628
 6962TIP3    H142445   6.014   0.077   2.328 -0.3657 -1.0083 -0.0632
 6962TIP3    H242446   6.156   0.092   2.278 -0.1184  0.4986  1.0306
 6963TIP3   OH242447   2.476   0.755   1.803  0.1063  0.0668 -0.0572
 6963TIP3    H142448   2.389   0.787   1.829  0.8203  3.0106 -0.9023
 6963TIP3    H242449   2.522   0.741   1.886 -1.0721 -1.3084  0.3884
 6964TIP3   OH242450   3.805   1.121   7.088 -0.3710 -0.5014  0.9776
 6964TIP3    H142451   3.851   1.054   7.037 -3.0791 -1.4883 -0.3965
 6964TIP3    H242452   3.732   1.074   7.128 -1.7741  1.4028  0.7976
 6965TIP3   OH242453   0.813   4.949   1.731 -0.2168  0.4019  0.4924
 6965TIP3    H142454   0.878   4.890   1.692  1.8501  2.4432  0.5889
 6965TIP3    H242455   0.865   5.006   1.788 -1.4546  4.3379 -1.9408
 6966TIP3   OH242456   6.449   3.948   8.787  0.0460 -0.5381 -0.1352
 6966TIP3    H142457   6.411   3.994   8.863  0.1240 -1.9684  0.8042
 6966TIP3    H242458   6.500   4.016   8.742 -0.3432  0.4522  0.8486
 6967TIP3   OH242459   0.267   6.347   0.872  0.0440  0.2550 -0.4272
 6967TIP3    H142460   0.329   6.391   0.814 -0.0576  2.7159  1.1889
 6967TIP3    H242461   0.184   6.391   0.858 -0.7462 -1.2283 -0.6429
 6968TIP3   OH242462   1.983   3.836   2.325 -0.2892  0.6861  0.6461
 6968TIP3    H142463   1.944   3.902   2.268  0.7329  1.2277  0.5575
 6968TIP3    H242464   1.977   3.874   2.413 -1.0207  0.2543  0.7901
 6969TIP3   OH242465   1.447   3.303   1.994 -0.9932  0.2057  0.8691
 6969TIP3    H142466   1.467   3.395   1.981 -1.3945  0.2558  0.6088
 6969TIP3    H242467   1.443   3.293   2.090  2.3501 -0.2527  1.0865
 6970TIP3   OH242468   4.863   1.906   8.845 -0.4599 -0.1472  0.1523
 6970TIP3    H142469   4.771   1.883   8.836 -0.3006 -0.5785 -0.4434
 6970TIP3    H242470   4.891   1.860   8.924 -0.9525  0.6558  0.8106
 6971TIP3   OH242471   6.243   1.396   0.122 -0.2654  1.1163 -0.6754
 6971TIP3    H142472   6.161   1.349   0.137  0.4002  0.3568  0.8251
 6971TIP3    H242473   6.252   1.453   0.199  2.4438 -1.6066  1.2583
 6972TIP3   OH242474   1.088   1.645   0.979  0.0620  0.6814  0.5965
 6972TIP3    H142475   1.173   1.688   0.988  0.2139  0.5667 -0.2374
 6972TIP3    H242476   1.056   1.637   1.069 -0.0702  2.7443  0.7844
 6973TIP3   OH242477   2.161   2.965   0.276  0.4937 -0.3359  0.0172
 6973TIP3    H142478   2.123   3.007   0.199  0.2155 -2.0447 -0.8165
 6973TIP3    H242479   2.256   2.966   0.259  0.3761 -1.5772 -0.8503
 6974TIP3   OH242480   3.681   2.333   8.346  0.5116  0.2666 -0.1627
 6974TIP3    H142481   3.586   2.324   8.355  0.6850 -2.5914 -0.2829
 6974TIP3    H242482   3.717   2.268   8.406  2.3566  0.0513 -1.4306
 6975TIP3   OH242483   0.552   1.382   1.945 -0.4252 -1.0173  0.4297
 6975TIP3    H142484   0.618   1.333   1.896  1.7726 -0.0961  2.2520
 6975TIP3    H242485   0.516   1.319   2.007 -0.6258 -1.3209  0.0049
 6976TIP3   OH242486   4.011   6.513   7.069  0.2789 -0.4985  0.0206
 6976TIP3    H142487   3.934   6.466   7.038  0.5158 -2.5571  2.3018
 6976TIP3    H242488   4.076   6.500   6.999 -0.6460 -0.9261 -0.7746
 6977TIP3   OH242489   1.482   5.035   1.093 -0.3295 -0.1833  0.2865
 6977TIP3    H142490   1.480   4.951   1.139  0.4846 -0.3749 -0.0055
 6977TIP3    H242491   1.429   5.094   1.147 -2.6928 -1.3870 -0.5619
 6978TIP3   OH242492   0.850   3.999   1.967  0.1209 -0.4756  0.4038
 6978TIP3    H142493   0.797   4.024   1.891 -1.7701 -0.0227  1.7788
 6978TIP3    H242494   0.895   4.079   1.992  0.4663 -0.5343 -0.0330
 6979TIP3   OH242495   2.066   4.718   1.170  0.2681  0.9522 -0.2520
 6979TIP3    H142496   2.030   4.630   1.169 -0.0121  1.0666 -0.6548
 6979TIP3    H242497   2.002   4.771   1.123  0.5359  1.3297 -0.2019
 6980TIP3   OH242498   4.974   6.414   7.442 -0.1487  0.2009  0.0237
 6980TIP3    H142499   5.004   6.410   7.351  0.4718 -0.2832  0.2405
 6980TIP3    H242500   5.054   6.409   7.494 -0.4823  0.6540  0.6029
 6981TIP3   OH242501   4.149   6.097   6.867  0.4058  0.6162  0.6681
 6981TIP3    H142502   4.178   6.016   6.824 -1.3431  0.9715 -1.3330
 6981TIP3    H242503   4.213   6.163   6.839  1.5877  0.0658  1.9572
 6982TIP3   OH242504   3.052   6.042   7.351 -0.5484  0.2717 -0.3642
 6982TIP3    H142505   2.987   6.108   7.326 -0.7139  0.2626  0.0349
 6982TIP3    H242506   3.089   6.012   7.268  0.8179  2.1590 -0.5032
 6983TIP3   OH242507   2.397   1.381   8.580 -0.0696  0.3642 -0.0346
 6983TIP3    H142508   2.414   1.459   8.632 -2.0385  0.1977  0.9869
 6983TIP3    H242509   2.399   1.309   8.644  1.2011 -0.3629 -0.8657
 6984TIP3   OH242510   5.407   5.394   2.163 -0.2964  0.6589  0.0788
 6984TIP3    H142511   5.378   5.390   2.072 -0.1253  0.7965  0.0184
 6984TIP3    H242512   5.330   5.367   2.214 -0.1819 -0.1000 -0.1432
 6985TIP3   OH242513   1.138   4.436   2.029  0.2465  0.0755 -0.2276
 6985TIP3    H142514   1.078   4.413   2.100  0.1022 -0.1563 -0.4230
 6985TIP3    H242515   1.206   4.369   2.032 -0.6273 -0.8779 -1.3363
 6986TIP3   OH242516   1.684   0.670   2.154 -0.0210  0.1461  0.1990
 6986TIP3    H142517   1.710   0.661   2.246  1.5016 -0.1165 -0.2221
 6986TIP3    H242518   1.751   0.727   2.116  0.4604 -1.2564 -1.1647
 6987TIP3   OH242519   2.695   4.403   7.634 -0.3444  0.4440  0.7588
 6987TIP3    H142520   2.749   4.373   7.707 -0.4062  0.0071  0.6297
 6987TIP3    H242521   2.757   4.445   7.574  0.1662 -1.5390 -0.2004
 6988TIP3   OH242522   1.249   3.714   8.619 -0.5155 -0.2643 -0.6519
 6988TIP3    H142523   1.257   3.753   8.706 -2.2364  1.4214 -1.1895
 6988TIP3    H242524   1.303   3.769   8.563 -2.4643  1.0688 -1.3056
 6989TIP3   OH242525   2.852   1.165   1.720  0.5475  0.3576 -0.4970
 6989TIP3    H142526   2.931   1.111   1.709  0.4311 -0.0407  0.5441
 6989TIP3    H242527   2.879   1.238   1.775  0.0477 -0.1336  0.4240
 6990TIP3   OH242528   4.297   1.729   7.638 -0.1484 -0.4486  0.2938
 6990TIP3    H142529   4.347   1.657   7.600  0.4169  0.3832 -0.5566
 6990TIP3    H242530   4.320   1.727   7.731  0.8949 -0.5553  0.0490
 6991TIP3   OH242531   0.646   5.831   7.714 -0.7090  0.4538 -0.2447
 6991TIP3    H142532   0.598   5.748   7.713 -1.1870  0.7368 -1.0388
 6991TIP3    H242533   0.676   5.839   7.805  0.4762 -1.2202 -0.4383
 6992TIP3   OH242534   3.535   3.458   6.570 -0.4401 -0.1639  0.0945
 6992TIP3    H142535   3.452   3.502   6.552 -0.7732 -0.1606  1.5398
 6992TIP3    H242536   3.540   3.388   6.504 -0.4355  1.2798 -1.5111
 6993TIP3   OH242537   6.735   5.194   8.779 -0.2498  0.0972  0.3883
 6993TIP3    H142538   6.725   5.279   8.822 -3.2427 -0.0918  0.2880
 6993TIP3    H242539   6.726   5.213   8.686 -1.1703 -0.2998  0.3789
 6994TIP3   OH242540   6.381   0.031   0.143  0.1127  0.0698  0.5306
 6994TIP3    H142541   6.454   0.093   0.152  0.4223 -0.3476  0.9402
 6994TIP3    H242542   6.310   0.069   0.195  0.3828 -0.0322  0.9811
 6995TIP3   OH242543   6.494   2.541   2.590 -0.0248 -0.5441 -0.2661
 6995TIP3    H142544   6.482   2.635   2.577  0.1296 -0.6307 -1.0602
 6995TIP3    H242545   6.528   2.534   2.680 -3.2535 -0.1112  1.0982
 6996TIP3   OH242546   3.967   3.120   8.117  0.2307  0.5389  0.1030
 6996TIP3    H142547   3.978   3.089   8.207  0.3525  0.5169  0.0804
 6996TIP3    H242548   3.933   3.044   8.069  1.7163  0.0576 -0.2300
 6997TIP3   OH242549   2.849   3.546   0.346  0.1285 -0.1172  0.0779
 6997TIP3    H142550   2.911   3.480   0.316  0.8823  0.3139  0.6631
 6997TIP3    H242551   2.894   3.592   0.417 -0.7375  0.4129  0.3064
 6998TIP3   OH242552   4.171   6.693   7.370  0.2055  0.2324  0.1251
 6998TIP3    H142553   4.186   6.749   7.446 -0.9430 -0.8588  1.2095
 6998TIP3    H242554   4.154   6.754   7.298  0.3261  1.2831  0.9680
 6999TIP3   OH242555   3.564   0.315   2.188  0.3089  0.3675 -0.5992
 6999TIP3    H142556   3.468   0.322   2.188  0.3375  0.9090 -0.9244
 6999TIP3    H242557   3.582   0.224   2.208 -0.3116 -0.0361 -1.7663
 7000TIP3   OH242558   5.302   5.861   8.259 -0.1089 -0.1532 -0.0776
 7000TIP3    H142559   5.235   5.880   8.324 -0.8931 -0.6321 -0.7351
 7000TIP3    H242560   5.381   5.903   8.294 -0.4913 -0.4569  1.2055
 7001TIP3   OH242561   6.751   5.024   7.920 -0.1828 -0.4158  0.2522
 7001TIP3    H142562   6.844   5.030   7.944 -0.1789  1.1517 -0.0963
 7001TIP3    H242563   6.706   5.078   7.985 -1.2225 -3.2377  2.0613
 7002TIP3   OH242564   1.713   3.933   7.912  0.0786 -0.4814 -0.5032
 7002TIP3    H142565   1.647   3.960   7.976 -0.2728  0.2877 -1.1817
 7002TIP3    H242566   1.715   3.838   7.918  0.3990 -0.4027  1.0013
 7003TIP3   OH242567   2.803   1.824   6.447 -0.3283  0.5962 -0.4826
 7003TIP3    H142568   2.834   1.759   6.384 -1.5415  1.0158 -1.5617
 7003TIP3    H242569   2.754   1.887   6.394  0.6554  2.3217  0.5455
 7004TIP3   OH242570   3.019   0.941   2.342  0.1825  0.2780 -1.5669
 7004TIP3    H142571   3.058   0.876   2.284  1.1669  1.0790 -1.8356
 7004TIP3    H242572   3.034   0.907   2.430 -0.5010 -0.4954 -1.7395
 7005TIP3   OH242573   0.327   1.923   7.412  0.3214  0.0195  0.3114
 7005TIP3    H142574   0.299   1.982   7.482 -0.7235  1.7456 -1.4592
 7005TIP3    H242575   0.245   1.888   7.375  0.6282  1.3611 -1.8192
 7006TIP3   OH242576   2.371   1.895   0.971  0.8092 -0.4684  0.0587
 7006TIP3    H142577   2.455   1.924   1.006  0.5602  0.2178  0.0920
 7006TIP3    H242578   2.395   1.835   0.900  1.3242 -0.1661 -0.0298
 7007TIP3   OH242579   5.117   4.906   1.209  0.3160 -0.1349 -0.2335
 7007TIP3    H142580   5.210   4.898   1.186  0.5024 -1.2400  0.8000
 7007TIP3    H242581   5.072   4.856   1.141  0.5077  0.0871 -0.5260
 7008TIP3   OH242582   4.611   5.480   8.353 -0.0873  0.5881  0.2594
 7008TIP3    H142583   4.599   5.385   8.357  1.8872  0.3134  0.6660
 7008TIP3    H242584   4.574   5.513   8.435 -0.9078  0.1942  0.0521
 7009TIP3   OH242585   4.042   5.766   8.110  0.0563 -0.2454 -0.2019
 7009TIP3    H142586   4.043   5.689   8.167  0.5726  0.2494  0.4755
 7009TIP3    H242587   4.134   5.787   8.096 -0.0808  0.5734  0.0736
 7010TIP3   OH242588   4.141   1.953   6.405  0.2016 -0.3753 -0.2120
 7010TIP3    H142589   4.179   1.928   6.320 -0.4733  1.3684 -1.0655
 7010TIP3    H242590   4.069   1.890   6.418  0.6150 -0.9598 -0.6827
 7011TIP3   OH242591   0.022   0.722   8.484  0.0163  0.2266 -0.2984
 7011TIP3    H142592   0.081   0.651   8.510  0.3080  0.1064 -1.2488
 7011TIP3    H242593  -0.030   0.740   8.563  0.0621 -0.9147  0.0186
 7012TIP3   OH242594   0.556   3.200   2.299 -0.2455 -0.2176  0.2912
 7012TIP3    H142595   0.602   3.165   2.223  0.5430  0.2755  0.5350
 7012TIP3    H242596   0.614   3.267   2.334 -0.1878 -1.0393  1.8503
 7013TIP3   OH242597   1.804   0.737   8.341 -0.0222 -0.5077  0.4879
 7013TIP3    H142598   1.803   0.824   8.301 -0.3607 -0.3972  0.7280
 7013TIP3    H242599   1.811   0.677   8.266  0.9490 -0.2563  0.3709
 7014TIP3   OH242600   1.933   6.468   7.577 -0.5409  0.0651 -0.2160
 7014TIP3    H142601   2.010   6.412   7.588 -0.6266 -0.4003 -1.7707
 7014TIP3    H242602   1.890   6.434   7.498 -0.0100  2.9507 -1.8884
 7015TIP3   OH242603   0.504   6.731   0.199  0.2604 -0.1367  0.0862
 7015TIP3    H142604   0.459   6.670   0.140  2.3129 -0.4117 -1.3191
 7015TIP3    H242605   0.483   6.818   0.164 -0.2635 -0.1749  0.2890
 7016TIP3   OH242606   4.254   5.501   0.835  0.3639 -0.0369 -0.6233
 7016TIP3    H142607   4.333   5.547   0.863  1.3958 -1.8295 -0.4254
 7016TIP3    H242608   4.248   5.520   0.741  1.2343 -0.1704 -0.7140
 7017TIP3   OH242609   0.600   2.657   1.460 -0.3661  0.3665  0.2743
 7017TIP3    H142610   0.643   2.656   1.545  0.3640 -2.7929  0.0194
 7017TIP3    H242611   0.511   2.628   1.477  0.4733 -2.8526 -0.1672
 7018TIP3   OH242612   3.717   4.195   8.053 -0.3521  0.1536 -0.0106
 7018TIP3    H142613   3.725   4.290   8.062  1.3533 -0.0685  1.3650
 7018TIP3    H242614   3.653   4.169   8.120 -2.9906  0.5381 -2.2010
 7019TIP3   OH242615   3.418   0.507   7.450 -0.1800 -0.0616 -0.1462
 7019TIP3    H142616   3.342   0.510   7.392 -1.2580  0.5221  1.2365
 7019TIP3    H242617   3.383   0.526   7.537  1.2832 -1.4257  0.8082
 7020TIP3   OH242618   4.085   1.911   8.720 -0.3761  0.3067  0.1571
 7020TIP3    H142619   4.074   1.904   8.625 -0.0263 -0.9811  0.1970
 7020TIP3    H242620   4.157   1.851   8.740 -0.7745  0.1917  1.2954
 7021TIP3   OH242621   4.802   2.165   8.279  0.2590  0.5817 -0.4175
 7021TIP3    H142622   4.750   2.207   8.210  1.1614  1.1055 -0.8024
 7021TIP3    H242623   4.778   2.212   8.359 -0.0955  0.6011 -0.5345
 7022TIP3   OH242624   1.384   4.674   7.363 -0.1920 -0.1312 -0.6042
 7022TIP3    H142625   1.386   4.620   7.441  0.8454  1.0406  0.2220
 7022TIP3    H242626   1.305   4.647   7.316 -0.2552 -1.5882  0.2989
 7023TIP3   OH242627   2.504   0.057   6.936 -0.5319 -0.6848  0.5037
 7023TIP3    H142628   2.464   0.143   6.925 -0.6413 -0.6456  1.1699
 7023TIP3    H242629   2.487   0.011   6.854 -0.1723  0.0495  0.0048
 7024TIP3   OH242630   5.615   4.955   8.459 -0.1032 -0.3849  0.0988
 7024TIP3    H142631   5.705   4.930   8.436 -0.2155 -0.3479 -0.3709
 7024TIP3    H242632   5.608   4.932   8.552 -0.0199 -1.5742 -0.1707
 7025TIP3   OH242633   0.382   3.598   0.400 -0.7460  0.1066 -0.1530
 7025TIP3    H142634   0.451   3.656   0.368 -1.6608  1.3269  0.0144
 7025TIP3    H242635   0.410   3.573   0.487  0.6674 -1.4168 -1.0022
 7026TIP3   OH242636   3.298   4.878   7.117  0.4200  0.2870 -0.2429
 7026TIP3    H142637   3.242   4.928   7.176  0.1112 -1.9747  1.5325
 7026TIP3    H242638   3.247   4.871   7.036  0.4501  2.6590 -0.5389
 7027TIP3   OH242639   0.386   4.018   6.413 -0.0818  0.6259  0.1125
 7027TIP3    H142640   0.354   3.974   6.334  0.1026 -1.4044  1.0911
 7027TIP3    H242641   0.321   3.998   6.480  1.2012 -0.2156  1.1610
 7028TIP3   OH242642   5.152   5.739   7.779  0.0249  0.0234 -0.3685
 7028TIP3    H142643   5.063   5.716   7.804 -0.1633 -0.4259 -1.3780
 7028TIP3    H242644   5.151   5.834   7.767 -0.1078  0.1203  0.3952
 7029TIP3   OH242645   0.715   5.915   1.234  0.1401  0.8112  0.2268
 7029TIP3    H142646   0.682   5.937   1.322  0.3548 -0.2215  0.5778
 7029TIP3    H242647   0.701   5.821   1.227 -1.5356  1.1188 -1.5478
 7030TIP3   OH242648   2.008   6.702   6.179  0.6878  0.1197 -0.3586
 7030TIP3    H142649   2.072   6.772   6.187  1.7796 -0.9565  0.9192
 7030TIP3    H242650   1.967   6.716   6.094  0.0200  2.9496  0.3330
 7031TIP3   OH242651   6.461   1.477   7.679  0.9801 -0.3202  0.6099
 7031TIP3    H142652   6.531   1.543   7.686  1.4160 -0.7913  0.7414
 7031TIP3    H242653   6.438   1.477   7.586  1.4586 -0.4744  0.4911
 7032TIP3   OH242654   5.681   4.280   8.207 -0.6971  0.3532  0.0635
 7032TIP3    H142655   5.587   4.275   8.191 -1.0072  0.5228  1.6689
 7032TIP3    H242656   5.707   4.364   8.169 -1.2443  0.4328 -0.1480
 7033TIP3   OH242657   3.599   2.869   7.476 -0.6022  0.1417  0.0476
 7033TIP3    H142658   3.691   2.844   7.468 -0.2333  1.5017 -0.3374
 7033TIP3    H242659   3.595   2.955   7.434 -2.1910 -0.1998 -0.5425
 7034TIP3   OH242660   6.313   2.535   7.133 -0.5634  0.4862 -0.2833
 7034TIP3    H142661   6.369   2.457   7.138 -1.5559 -0.3024 -1.0015
 7034TIP3    H242662   6.332   2.583   7.213 -1.3874 -1.5223  1.2009
 7035TIP3   OH242663   6.355   0.679   0.122 -0.6359  0.2325  0.4996
 7035TIP3    H142664   6.279   0.657   0.067  0.4909 -1.7976 -0.3666
 7035TIP3    H242665   6.330   0.647   0.209 -1.1551  0.4636  0.4410
 7036TIP3   OH242666   4.387   5.245   7.870  1.0057 -0.3162  0.6401
 7036TIP3    H142667   4.302   5.268   7.834  0.6007 -0.5552  1.4198
 7036TIP3    H242668   4.445   5.241   7.794  0.1460 -0.9724 -0.0096
 7037TIP3   OH242669   3.673   0.291   0.430  0.0879 -0.3116  0.1672
 7037TIP3    H142670   3.726   0.369   0.446  0.6737 -0.9904  1.5993
 7037TIP3    H242671   3.612   0.287   0.504 -0.8969 -0.4440 -0.6237
 7038TIP3   OH242672   3.733   4.203   0.630  0.3067  0.2468  0.3328
 7038TIP3    H142673   3.784   4.154   0.694  0.9610  1.7897  1.0278
 7038TIP3    H242674   3.662   4.243   0.680  0.5884  1.1314  0.0438
 7039TIP3   OH242675   0.952   1.670   0.238 -0.0727 -0.0190 -0.2248
 7039TIP3    H142676   0.951   1.703   0.148  0.1807 -2.9389 -1.4180
 7039TIP3    H242677   1.039   1.633   0.249 -0.3217 -0.2817  1.0189
 7040TIP3   OH242678   2.209   6.503   0.287 -0.4145  0.4206  0.0248
 7040TIP3    H142679   2.244   6.592   0.283  0.2802  0.1945  0.6821
 7040TIP3    H242680   2.260   6.454   0.222 -0.4834  0.4060 -0.0179
 7041TIP3   OH242681   1.104   5.335   8.365  0.1493 -0.1476 -0.2045
 7041TIP3    H142682   1.011   5.349   8.381  0.3783 -0.5553  1.6871
 7041TIP3    H242683   1.121   5.247   8.398  1.1610 -0.1773 -0.7572
 7042TIP3   OH242684   6.713   2.844   8.204 -0.0684 -0.1199  0.0154
 7042TIP3    H142685   6.680   2.806   8.123 -0.3716  1.9707 -0.8970
 7042TIP3    H242686   6.637   2.845   8.262 -0.3844  0.2419 -0.3970
 7043TIP3   OH242687   2.544   5.457   8.831  0.1971  0.0001 -0.4231
 7043TIP3    H142688   2.638   5.458   8.852  0.1170 -2.1347  0.3699
 7043TIP3    H242689   2.540   5.452   8.736  0.9754 -1.5160 -0.4044
 7044TIP3   OH242690   5.675   3.736   7.484 -0.1735 -0.0477 -0.1391
 7044TIP3    H142691   5.765   3.764   7.497 -0.6397  0.9805  1.0627
 7044TIP3    H242692   5.679   3.673   7.412  1.2225  1.4941 -1.4622
 7045TIP3   OH242693   0.288   3.308   7.850 -0.2071  0.0709 -0.2823
 7045TIP3    H142694   0.335   3.357   7.782  0.1967  2.2691  1.4590
 7045TIP3    H242695   0.227   3.253   7.802  1.1643  0.3215 -2.4712
 7046TIP3   OH242696   3.155   2.110   0.664  0.2008  0.0045 -0.0663
 7046TIP3    H142697   3.100   2.148   0.733 -0.7361  0.8474 -1.2344
 7046TIP3    H242698   3.180   2.185   0.609  0.3087 -0.7455 -1.0715
 7047TIP3   OH242699   2.130   5.966   7.840 -0.2288  0.2815 -0.4328
 7047TIP3    H142700   2.173   6.051   7.825  0.2556  0.2028  0.4739
 7047TIP3    H242701   2.066   5.984   7.909  1.4121 -0.5490  1.3757
 7048TIP3   OH242702   3.274   0.145   1.821  0.1917 -0.4048  0.4273
 7048TIP3    H142703   3.274   0.052   1.800  0.8631 -0.5914  1.2154
 7048TIP3    H242704   3.361   0.176   1.798 -0.2821  0.2242 -0.6014
 7049TIP3   OH242705   2.865   5.209   8.360  0.4236 -0.6146 -0.1345
 7049TIP3    H142706   2.838   5.270   8.291 -0.5034 -0.7579  0.0829
 7049TIP3    H242707   2.832   5.248   8.441  2.5831  0.1890  0.4181
 7050TIP3   OH242708   3.915   3.879   1.833  0.1263 -0.1830  0.1045
 7050TIP3    H142709   3.827   3.855   1.863  0.5405  0.5362  2.0808
 7050TIP3    H242710   3.914   3.975   1.831  0.0286 -0.1710 -2.7285
 7051TIP3   OH242711   5.142   1.244   6.586  0.5868 -0.5396 -0.0483
 7051TIP3    H142712   5.209   1.306   6.613 -0.6475 -0.3783  3.2402
 7051TIP3    H242713   5.137   1.181   6.659 -1.6965 -1.4501 -0.8755
 7052TIP3   OH242714   5.827   3.801   8.388 -0.5782  0.1867 -0.7931
 7052TIP3    H142715   5.765   3.730   8.404 -0.8112  0.4677 -0.4221
 7052TIP3    H242716   5.775   3.868   8.342 -0.4880  0.3205 -0.7015
 7053TIP3   OH242717   0.328   5.408   8.097 -0.1352  0.2483 -0.2054
 7053TIP3    H142718   0.273   5.362   8.033 -0.3189 -1.4804  1.1165
 7053TIP3    H242719   0.280   5.489   8.116 -0.8529  0.0467 -1.0633
 7054TIP3   OH242720   6.330   5.519   6.486  0.1771  0.9729 -0.4804
 7054TIP3    H142721   6.308   5.580   6.556 -0.0257 -0.8507  1.1149
 7054TIP3    H242722   6.376   5.572   6.421  1.3948  2.4956  1.5488
 7055TIP3   OH242723   6.745   1.460   0.927  0.4434 -0.6400  0.8144
 7055TIP3    H142724   6.692   1.493   0.855  0.6657  0.1165  0.9919
 7055TIP3    H242725   6.696   1.385   0.961  0.7885 -1.5807 -0.7020
 7056TIP3   OH242726   0.012   0.328   8.014  0.1731  0.0505  0.3829
 7056TIP3    H142727   0.042   0.365   8.097  1.1074 -0.8087  0.4489
 7056TIP3    H242728   0.074   0.258   7.995  1.2634  1.4983 -2.0592
 7057TIP3   OH242729   0.379   1.037   0.737 -0.3902 -0.0475 -0.1344
 7057TIP3    H142730   0.366   0.986   0.816 -0.0851 -0.9837 -0.6812
 7057TIP3    H242731   0.327   0.992   0.670  0.9428 -0.4435 -0.9396
 7058TIP3   OH242732   3.678   4.979   7.897 -0.1162  0.6162  0.6583
 7058TIP3    H142733   3.608   4.948   7.839  0.0410  1.3748  0.0620
 7058TIP3    H242734   3.635   5.041   7.956 -0.0737  0.5775  0.7315
 7059TIP3   OH242735   3.864   5.477   0.841  0.3177 -0.2027  0.7586
 7059TIP3    H142736   3.926   5.422   0.792  1.0962  0.3695  1.0820
 7059TIP3    H242737   3.917   5.550   0.873 -0.8712  1.2319 -0.4084
 7060TIP3   OH242738   1.220   4.494   8.111 -0.3958 -0.4007 -0.7025
 7060TIP3    H142739   1.262   4.456   8.188 -1.9299  1.3284  1.1234
 7060TIP3    H242740   1.159   4.427   8.081 -0.8969 -0.5560  0.5924
 7061TIP3   OH242741   6.210   5.907   7.245  0.1130 -0.0062  0.0993
 7061TIP3    H142742   6.271   5.980   7.234  0.5454 -0.2354  0.9417
 7061TIP3    H242743   6.257   5.831   7.210 -0.3024  0.0935 -0.6949
 7062TIP3   OH242744   5.642   0.589   6.919 -0.0901  0.3166  0.5525
 7062TIP3    H142745   5.582   0.623   6.852  0.2543 -1.0910 -0.5103
 7062TIP3    H242746   5.600   0.509   6.951  1.0356 -0.5298  0.0046
 7063TIP3   OH242747   6.134   2.308   0.910  0.1272 -0.1016 -0.2742
 7063TIP3    H142748   6.230   2.314   0.904  0.2594 -1.7862 -0.1876
 7063TIP3    H242749   6.108   2.266   0.828 -0.6132  0.9120 -0.5737
 7064TIP3   OH242750   0.662   4.120   1.805  0.2916  0.3469 -0.3722
 7064TIP3    H142751   0.637   4.029   1.820 -1.0040  0.9591  1.7114
 7064TIP3    H242752   0.599   4.153   1.741  0.2989 -0.0285 -0.5706
 7065TIP3   OH242753   0.413   5.631   8.673 -0.0288 -0.5563 -0.4822
 7065TIP3    H142754   0.333   5.682   8.690  0.8211  0.9773 -0.8646
 7065TIP3    H242755   0.382   5.542   8.658 -1.6634 -0.0014 -0.6004
 7066TIP3   OH242756   0.913   3.502   1.978  0.8258 -0.3083 -0.2441
 7066TIP3    H142757   0.912   3.558   1.901 -0.3768  1.0729  0.7143
 7066TIP3    H242758   0.826   3.515   2.018  1.7356 -0.2145  1.8448
 7067TIP3   OH242759   2.598   1.589   1.473  0.0815  0.0163  0.3124
 7067TIP3    H142760   2.545   1.531   1.528  1.1020 -1.5170 -0.2694
 7067TIP3    H242761   2.540   1.616   1.403 -0.2904 -0.6609  0.3521
 7068TIP3   OH242762   2.473   3.791   8.619  0.9048 -0.1735  0.0078
 7068TIP3    H142763   2.397   3.753   8.575  0.0529 -0.9835  2.0157
 7068TIP3    H242764   2.537   3.805   8.550 -0.4529 -1.0666 -1.4970
 7069TIP3   OH242765   2.900   0.042   8.753 -0.0977  0.0047  0.1811
 7069TIP3    H142766   2.889  -0.009   8.833  1.4542  0.1279  0.5168
 7069TIP3    H242767   2.961   0.112   8.778 -1.5085  1.5313 -0.4860
 7070TIP3   OH242768   2.721   4.466   8.603  0.3783 -0.1081  0.3141
 7070TIP3    H142769   2.750   4.468   8.512  1.5086  0.3891  0.6744
 7070TIP3    H242770   2.791   4.420   8.649  1.2373  2.1565  1.3991
 7071TIP3   OH242771   0.926   5.260   7.767 -0.2174  0.3343 -0.2196
 7071TIP3    H142772   1.002   5.247   7.711 -0.2740  1.0608 -0.4736
 7071TIP3    H242773   0.851   5.257   7.707 -0.3419  0.2418 -0.0600
 7072LIG      O42774   2.750   3.275   7.504  0.6590  0.0205  0.0627
 7072LIG     C142775   2.653   3.287   7.610 -0.7772 -0.0294 -0.2388
 7072LIG     C242776   2.556   3.166   7.601 -0.5284  0.3537 -0.5121
 7072LIG     C342777   2.730   3.280   7.743 -0.4105 -0.5279  0.4197
 7072LIG     H142778   2.602   3.385   7.592  0.7134  0.5721 -1.3429
 7072LIG     H242779   2.601   3.084   7.662  1.2431  1.8832  0.3377
 7072LIG     H342780   2.532   3.141   7.496  1.6056  1.6638 -1.3662
 7072LIG     H442781   2.459   3.195   7.647 -0.2061 -0.6072  0.8794
 7072LIG     H542782   2.654   3.275   7.823  1.3137  2.7468  2.4678
 7072LIG     H642783   2.784   3.375   7.764  1.7204 -1.9950  2.0786
 7072LIG     H742784   2.793   3.189   7.754  1.8239  0.6739 -1.4542
 7072LIG     H842785   2.792   3.195   7.536 -2.9098 -1.4907  1.5491
   6.79700   6.79700   8.85308
